Title
42773
    1SAPS     N    1   0.794   1.022   7.821  0.3472  0.6262  1.2488
    1SAPS   HN1    2   0.859   0.993   7.745 -2.6056 -1.3092 -0.7831
    1SAPS   HN2    3   0.708   0.982   7.777  0.8152  0.2946  0.6260
    1SAPS   HN3    4   0.799   1.125   7.828  0.0804  0.6592  0.9958
    1SAPS   C12    5   0.807   0.955   7.951 -0.0728  0.3572  0.5138
    1SAPS  H12A    6   0.884   1.016   7.996  1.2179  0.8534 -2.1978
    1SAPS   C13    7   0.680   0.975   8.037 -0.8099 -0.2585 -0.7097
    1SAPS  O13A    8   0.582   1.017   7.978  0.0107 -0.4246  0.0304
    1SAPS  O13B    9   0.683   0.962   8.160  0.0385  0.5365 -0.3065
    1SAPS   C11   10   0.846   0.802   7.927 -0.0163  0.0197 -0.1450
    1SAPS  H11A   11   0.755   0.745   7.899  0.1885 -0.8158  0.7988
    1SAPS  H11B   12   0.876   0.751   8.022 -2.0901  0.1659  0.6480
    1SAPS     P   13   0.969   0.622   7.787  0.3269  0.2440  0.1437
    1SAPS   O13   14   1.103   0.609   7.720  0.3007 -0.1833 -0.0862
    1SAPS   O14   15   0.940   0.543   7.911  0.0906  0.0087 -0.4214
    1SAPS   O12   16   0.940   0.778   7.825 -0.7439 -0.3407 -0.7443
    1SAPS   O11   17   0.861   0.585   7.676 -0.4090 -0.3316 -0.7475
    1SAPS    C1   18   0.865   0.638   7.543  0.4161 -0.5422  0.6578
    1SAPS    HA   19   0.834   0.744   7.556 -1.7498 -0.9340 -0.7461
    1SAPS    HB   20   0.960   0.622   7.487  1.2888  0.3251  1.8415
    1SAPS    C2   21   0.735   0.583   7.467  0.3565 -0.6501 -0.9992
    1SAPS    HS   22   0.653   0.566   7.540  0.7151 -3.2722 -1.1053
    1SAPS   O21   23   0.772   0.453   7.415  0.1957  0.3124 -0.3390
    1SAPS   C21   24   0.665   0.394   7.365  0.1796  0.2094 -0.0235
    1SAPS   O22   25   0.552   0.435   7.361  0.0436  0.1565  0.1827
    1SAPS   C22   26   0.703   0.250   7.324  0.1270 -0.3182 -0.3990
    1SAPS   H2R   27   0.813   0.237   7.318  0.3090  0.6008  0.5341
    1SAPS   H2S   28   0.677   0.194   7.416  0.8393  1.1303  0.7339
    1SAPS    C3   29   0.688   0.696   7.367 -1.1122  0.2104 -0.2314
    1SAPS    HX   30   0.660   0.784   7.429  0.1195 -1.7223  3.4119
    1SAPS    HY   31   0.602   0.653   7.311  0.0677 -0.4549 -1.5907
    1SAPS   O31   32   0.800   0.722   7.285 -0.1100  0.0114  0.4614
    1SAPS   C31   33   0.776   0.791   7.172  0.1986  0.1048 -0.4287
    1SAPS   O32   34   0.666   0.827   7.137 -0.3958 -0.0215  0.2226
    1SAPS   C32   35   0.903   0.807   7.096 -0.0351  0.3634 -0.1499
    1SAPS   H2X   36   0.966   0.716   7.101  1.0940  1.1321 -0.0537
    1SAPS   H2Y   37   0.969   0.878   7.150  2.5222  0.2693 -2.9133
    1SAPS   C23   38   0.625   0.222   7.196  0.9070 -0.0842 -0.1737
    1SAPS   H3R   39   0.515   0.231   7.212  0.8958 -0.7201  0.1553
    1SAPS   H3S   40   0.646   0.118   7.163 -0.2610 -0.2374 -0.4761
    1SAPS   C24   41   0.658   0.313   7.080 -0.6556  0.0629  0.2824
    1SAPS   H4R   42   0.614   0.415   7.088  0.8993  1.0095 -1.9104
    1SAPS   H4S   43   0.600   0.267   6.996 -1.7803  0.4983  0.8048
    1SAPS   C25   44   0.806   0.316   7.058 -0.0549  0.0136  0.3624
    1SAPS   H5R   45   0.871   0.261   7.128  1.7728  0.7231 -0.7107
    1SAPS   C26   46   0.854   0.371   6.945 -0.7193 -0.1457  0.1707
    1SAPS   H6R   47   0.963   0.373   6.947 -0.6430 -2.2447  1.2787
    1SAPS   C27   48   0.783   0.427   6.831  0.3907 -0.0810  0.6286
    1SAPS   H7R   49   0.742   0.524   6.864  1.6226  0.5668  0.2913
    1SAPS   H7S   50   0.686   0.377   6.812 -0.2120  1.2704  0.0292
    1SAPS   C28   51   0.854   0.419   6.687  0.0027  0.5582 -0.0289
    1SAPS   H8R   52   0.891   0.513   6.645  0.9898 -0.4065 -1.3957
    1SAPS   C29   53   0.878   0.310   6.610  0.7655  0.5023  0.0467
    1SAPS   H9R   54   0.908   0.314   6.504  1.5752  2.0001  0.3221
    1SAPS  C210   55   0.831   0.171   6.657  0.0522 -0.5455 -0.4672
    1SAPS  H10R   56   0.741   0.186   6.720  1.4705  0.5388  1.3945
    1SAPS  H10S   57   0.899   0.132   6.736 -0.7288  0.2071  0.6098
    1SAPS  C211   58   0.811   0.080   6.541 -0.4935  0.1812 -0.2905
    1SAPS  H11R   59   0.902   0.022   6.518 -0.6788  0.1413 -0.9369
    1SAPS  C212   60   0.702   0.059   6.470 -0.2003  0.5457 -0.1811
    1SAPS  H12R   61   0.702  -0.000   6.377 -1.2380  0.4583 -0.1365
    1SAPS  C213   62   0.568   0.125   6.494 -0.4319  0.2230  0.0727
    1SAPS  H13R   63   0.544   0.200   6.416 -0.5730  0.6506  0.5234
    1SAPS  H13S   64   0.572   0.190   6.583 -0.1541 -0.3970  0.5217
    1SAPS  C214   65   0.453   0.024   6.510  0.1244 -0.2707  0.5338
    1SAPS  H14R   66   0.443  -0.033   6.604  0.5709 -1.8910 -0.3536
    1SAPS  C215   67   0.369  -0.012   6.410  0.1258  0.5069  0.1694
    1SAPS  H15R   68   0.306  -0.098   6.439  0.6375  0.1616  0.2644
    1SAPS  C216   69   0.367   0.031   6.268  0.1585  1.0042  0.1794
    1SAPS  H16R   70   0.440  -0.031   6.212 -0.7673  0.1329 -0.0949
    1SAPS  H16S   71   0.390   0.139   6.250  0.2300  0.5147 -3.4058
    1SAPS  C217   72   0.216   0.031   6.203 -1.1200 -0.1018 -0.1196
    1SAPS  H17R   73   0.155   0.105   6.259 -0.7865  0.3543 -0.3532
    1SAPS  H17S   74   0.181  -0.074   6.210 -1.0072 -0.2286 -1.2588
    1SAPS  C218   75   0.220   0.057   6.056 -0.7207  0.1467  0.9466
    1SAPS  H18R   76   0.279   0.151   6.041 -2.3594  0.8256 -2.0189
    1SAPS  H18S   77   0.114   0.065   6.024 -0.4770 -0.7229 -0.1536
    1SAPS  C219   78   0.281  -0.061   5.968  0.1369  0.1602  0.4091
    1SAPS  H19R   79   0.238  -0.154   6.012  2.3094 -0.7048  0.8321
    1SAPS  H19S   80   0.389  -0.055   5.992  0.6744  1.5694 -2.0812
    1SAPS  C220   81   0.245  -0.041   5.821  0.1911 -0.0418  0.4248
    1SAPS  H20R   82   0.136  -0.060   5.812  0.1509  0.7189 -0.8334
    1SAPS  H20S   83   0.296  -0.116   5.757 -0.1584  0.1162 -0.0457
    1SAPS  H20T   84   0.259   0.065   5.791 -3.1634  0.3819 -0.0222
    1SAPS   C33   85   0.893   0.852   6.950 -0.1924  0.2222 -0.0253
    1SAPS   H3X   86   0.836   0.777   6.891 -0.3328 -0.3412  0.8134
    1SAPS   H3Y   87   0.992   0.854   6.901  0.3397 -3.3715  0.6807
    1SAPS   C34   88   0.822   0.987   6.936  0.4359  0.4705 -1.0639
    1SAPS   H4X   89   0.853   1.046   7.025  0.1789 -1.3795  0.3045
    1SAPS   H4Y   90   0.714   0.964   6.949  0.6954 -1.1997 -1.6066
    1SAPS   C35   91   0.839   1.055   6.800 -0.3111  0.5144 -0.3409
    1SAPS   H5X   92   0.773   1.017   6.719  1.9815 -1.7401 -1.3142
    1SAPS   H5Y   93   0.942   1.022   6.772 -1.1853 -2.2645 -0.5781
    1SAPS   C36   94   0.831   1.204   6.807 -0.0140  0.4993  0.4890
    1SAPS   H6X   95   0.904   1.243   6.880  0.2340  1.1527 -0.0915
    1SAPS   H6Y   96   0.728   1.221   6.847 -0.2406  0.6569 -0.1453
    1SAPS   C37   97   0.861   1.279   6.674  0.0016 -0.3214 -0.0634
    1SAPS   H7X   98   0.963   1.256   6.634  1.1275  3.2018  0.4029
    1SAPS   H7Y   99   0.865   1.388   6.695 -0.2239  0.2140 -2.4578
    1SAPS   C38  100   0.757   1.256   6.568  0.2847 -0.5216 -0.7101
    1SAPS   H8X  101   0.702   1.353   6.566  1.3373  0.0858 -0.6785
    1SAPS   H8Y  102   0.682   1.178   6.594  1.2561 -1.1950  0.1252
    1SAPS   C39  103   0.809   1.230   6.422 -0.1753 -0.2958 -1.0722
    1SAPS   H9X  104   0.875   1.142   6.436 -0.2534 -0.0554  1.1224
    1SAPS   H9Y  105   0.877   1.317   6.406  0.1957 -0.1375  1.1219
    1SAPS  C310  106   0.698   1.216   6.318 -0.3483 -0.3765  0.0080
    1SAPS  H10X  107   0.636   1.307   6.323 -1.4726 -1.0546 -0.9871
    1SAPS  H10Y  108   0.626   1.135   6.344 -0.4357 -0.4911 -0.5929
    1SAPS  C311  109   0.751   1.213   6.172  0.2708 -0.1844 -0.4615
    1SAPS  H11X  110   0.836   1.284   6.177  0.9372 -0.7511 -2.8072
    1SAPS  H11Y  111   0.661   1.243   6.114  0.8505  0.4867 -1.0225
    1SAPS  C312  112   0.804   1.073   6.129 -0.0575  0.1252  0.8463
    1SAPS  H12X  113   0.763   1.001   6.202 -1.3022  0.8336  0.8717
    1SAPS  H12Y  114   0.915   1.081   6.129  0.0492 -0.1094 -1.9755
    1SAPS  C313  115   0.765   1.038   5.981 -1.2381  0.0501  0.3456
    1SAPS  H13X  116   0.838   1.094   5.920  0.2240 -1.1846  0.9017
    1SAPS  H13Y  117   0.659   1.072   5.974 -1.4720 -0.2115  2.2822
    1SAPS  C314  118   0.779   0.885   5.954 -1.0468  0.1887  0.1341
    1SAPS  H14X  119   0.685   0.838   5.989 -2.1700  2.2067 -0.0142
    1SAPS  H14Y  120   0.858   0.841   6.019  0.2146  2.2153  0.0621
    1SAPS  C315  121   0.805   0.854   5.806  0.0871  0.0195  0.3955
    1SAPS  H15X  122   0.838   0.749   5.793 -1.1567 -0.1606 -1.6329
    1SAPS  H15Y  123   0.896   0.910   5.776 -0.8534  0.9208 -0.8683
    1SAPS  C316  124   0.684   0.877   5.715 -0.1398 -0.3826 -0.5324
    1SAPS  H16X  125   0.717   0.894   5.611 -1.8820  0.3864 -1.0023
    1SAPS  H16Y  126   0.632   0.972   5.739  0.8260 -0.1111  0.5517
    1SAPS  C317  127   0.588   0.753   5.722  0.6948 -0.6629 -0.5039
    1SAPS  H17X  128   0.553   0.752   5.827 -1.4812 -0.4915 -1.1899
    1SAPS  H17Y  129   0.649   0.660   5.716  2.2641  0.3386 -0.9141
    1SAPS  C318  130   0.471   0.749   5.622  0.1523  0.0143 -0.0176
    1SAPS  H18X  131   0.509   0.764   5.519  1.4243 -0.0363  0.4226
    1SAPS  H18Y  132   0.398   0.831   5.639  0.1422 -0.0570  0.2827
    1SAPS  H18Z  133   0.412   0.655   5.623 -1.4687  0.9650  2.1665
    2SAPS     N  134   5.896   1.343   7.813 -0.0729  0.7254 -0.6733
    2SAPS   HN1  135   5.800   1.306   7.803 -0.0265  0.8607 -1.7463
    2SAPS   HN2  136   5.926   1.347   7.912  0.9540 -0.3656 -0.9038
    2SAPS   HN3  137   5.916   1.441   7.785  0.4404  1.5266  2.2342
    2SAPS   C12  138   6.002   1.260   7.750 -0.1408 -0.2221 -0.8865
    2SAPS  H12A  139   6.098   1.304   7.775 -1.8669  2.4103  1.7554
    2SAPS   C13  140   5.985   1.114   7.795 -0.7628  0.1556 -0.5106
    2SAPS  O13A  141   5.946   1.082   7.910 -0.0368 -1.1242  0.4027
    2SAPS  O13B  142   6.075   1.045   7.738 -0.3328  0.0761  0.5889
    2SAPS   C11  143   6.001   1.279   7.593 -0.8575 -0.3562  0.2244
    2SAPS  H11A  144   5.899   1.259   7.554 -1.5294 -0.4603  1.9636
    2SAPS  H11B  145   6.059   1.197   7.544 -1.5250 -0.9843  0.4592
    2SAPS     P  146   6.176   1.453   7.522  0.4238  0.4432  0.1259
    2SAPS   O13  147   6.237   1.518   7.633 -0.1011 -0.0542  0.0850
    2SAPS   O14  148   6.239   1.326   7.462  0.2991 -0.1162 -0.3658
    2SAPS   O12  149   6.032   1.416   7.558  0.0364 -0.1386  0.8579
    2SAPS   O11  150   6.150   1.561   7.408  0.4406  0.0699  0.3186
    2SAPS    C1  151   6.057   1.538   7.301 -0.0036  0.1676  0.3595
    2SAPS    HA  152   6.027   1.431   7.293 -0.6706  0.4219 -0.7225
    2SAPS    HB  153   5.960   1.592   7.309 -0.4972 -0.6503  0.0365
    2SAPS    C2  154   6.123   1.567   7.155 -0.6857  0.2226 -0.5096
    2SAPS    HS  155   6.219   1.514   7.173 -0.9763  0.0301  0.5060
    2SAPS   O21  156   6.141   1.712   7.151 -0.2742  0.3586  0.3401
    2SAPS   C21  157   6.239   1.742   7.063  0.5656  0.5359 -0.4674
    2SAPS   O22  158   6.331   1.671   7.029  0.0119  0.3535  0.1399
    2SAPS   C22  159   6.207   1.875   6.993 -0.7019 -0.0054  0.1931
    2SAPS   H2R  160   6.111   1.864   6.939 -0.2326 -0.0576 -0.6579
    2SAPS   H2S  161   6.205   1.954   7.072 -0.8036  0.7753 -0.5733
    2SAPS    C3  162   6.027   1.508   7.040 -0.5859  0.2025 -0.8920
    2SAPS    HX  163   5.936   1.568   7.057 -0.8402 -0.2439 -0.6730
    2SAPS    HY  164   5.999   1.405   7.072 -0.2626  0.1139 -0.8836
    2SAPS   O31  165   6.073   1.533   6.908  0.0800  0.0924  0.0396
    2SAPS   C31  166   6.161   1.438   6.874  0.5689 -0.2537 -0.6785
    2SAPS   O32  167   6.205   1.354   6.954 -0.5397  0.1260  0.7731
    2SAPS   C32  168   6.217   1.466   6.734 -0.3928 -0.0480  0.7752
    2SAPS   H2X  169   6.288   1.387   6.704 -1.8615 -0.1148 -3.0633
    2SAPS   H2Y  170   6.283   1.555   6.733  0.8937 -0.8837  3.1507
    2SAPS   C23  171   6.324   1.936   6.907 -0.1279  0.4556  0.3243
    2SAPS   H3R  172   6.423   1.927   6.956  0.5939  0.0651 -1.1640
    2SAPS   H3S  173   6.289   2.040   6.890 -0.0749  0.5267  0.6429
    2SAPS   C24  174   6.346   1.864   6.772 -0.1795 -0.5169  0.0580
    2SAPS   H4R  175   6.391   1.763   6.782 -1.4790 -0.8757  4.1982
    2SAPS   H4S  176   6.419   1.925   6.715  0.4598  0.0428  1.4529
    2SAPS   C25  177   6.219   1.861   6.694 -0.2185  0.4110 -0.1385
    2SAPS   H5R  178   6.136   1.810   6.745 -1.1037  0.5598 -1.3947
    2SAPS   C26  179   6.199   1.915   6.571  0.4815 -0.1147  0.2842
    2SAPS   H6R  180   6.097   1.916   6.531  0.5475  3.8965 -0.1637
    2SAPS   C27  181   6.293   1.980   6.474  0.2104 -0.2432 -0.5924
    2SAPS   H7R  182   6.398   1.967   6.507 -0.0893  2.1837  1.6726
    2SAPS   H7S  183   6.265   2.087   6.478 -3.6818 -1.1090  2.2504
    2SAPS   C28  184   6.288   1.931   6.329  0.5050 -0.9291  0.1640
    2SAPS   H8R  185   6.375   1.868   6.305 -1.1667 -2.9353 -1.0345
    2SAPS   C29  186   6.189   1.953   6.239  0.0742  0.2335  0.4180
    2SAPS   H9R  187   6.200   1.911   6.138 -0.0395  2.0925 -0.4185
    2SAPS  C210  188   6.057   2.032   6.258 -0.9227 -0.5686  0.0770
    2SAPS  H10R  189   6.094   2.136   6.257  1.3947 -1.1733  3.7331
    2SAPS  H10S  190   6.018   2.023   6.362  0.8472  0.5219  0.8730
    2SAPS  C211  191   5.955   2.030   6.150  0.4385 -0.0118  0.1448
    2SAPS  H11R  192   5.853   2.004   6.185 -1.3791  1.0676 -3.7732
    2SAPS  C212  193   5.970   2.062   6.019  0.5863 -0.3515 -0.4764
    2SAPS  H12R  194   5.875   2.068   5.964 -0.1382  1.6963  0.9015
    2SAPS  C213  195   6.105   2.114   5.971 -0.2385 -0.3118  0.2892
    2SAPS  H13R  196   6.167   2.028   5.938  0.2001  0.9234 -2.4691
    2SAPS  H13S  197   6.159   2.171   6.049  0.7268 -0.4685 -0.2443
    2SAPS  C214  198   6.083   2.197   5.853  0.0341  0.1504 -0.4059
    2SAPS  H14R  199   6.015   2.278   5.883  1.3182 -0.0503  3.6812
    2SAPS  C215  200   6.118   2.176   5.729  0.4594  0.0538 -0.4777
    2SAPS  H15R  201   6.099   2.260   5.661 -0.5991  0.1605 -0.0695
    2SAPS  C216  202   6.223   2.076   5.683  0.8774 -0.4497  0.0502
    2SAPS  H16R  203   6.188   1.974   5.710 -2.3745  0.7789  1.0370
    2SAPS  H16S  204   6.317   2.096   5.737 -1.1808  2.3555  2.9709
    2SAPS  C217  205   6.251   2.068   5.528 -0.0417  0.5443  0.2520
    2SAPS  H17R  206   6.151   2.059   5.479 -0.1000  1.3453  0.2160
    2SAPS  H17S  207   6.318   1.981   5.511  0.5448  0.8012  1.1696
    2SAPS  C218  208   6.303   2.200   5.466 -0.2298 -0.3226  0.0894
    2SAPS  H18R  209   6.401   2.237   5.502 -0.4496  0.0119  0.3491
    2SAPS  H18S  210   6.229   2.281   5.486 -1.3770 -0.6823 -2.2404
    2SAPS  C219  211   6.304   2.198   5.310 -0.2153 -0.2482  0.4530
    2SAPS  H19R  212   6.386   2.128   5.282  0.6201  0.4673  1.0663
    2SAPS  H19S  213   6.352   2.295   5.283  1.4989 -0.9937  0.6343
    2SAPS  C220  214   6.172   2.172   5.237  1.0449  0.1668  0.6751
    2SAPS  H20R  215   6.100   2.248   5.275 -0.9797 -1.6764  0.7144
    2SAPS  H20S  216   6.131   2.071   5.259 -2.6279  1.0740 -1.1783
    2SAPS  H20T  217   6.179   2.190   5.127 -3.8049 -0.0700  0.0922
    2SAPS   C33  218   6.121   1.484   6.615 -0.3953  0.4430 -0.2748
    2SAPS   H3X  219   6.065   1.578   6.634 -1.4278 -0.1230 -0.4472
    2SAPS   H3Y  220   6.044   1.406   6.597 -1.2688  1.0715  0.6018
    2SAPS   C34  221   6.192   1.505   6.476  0.0752  0.1635  0.3963
    2SAPS   H4X  222   6.249   1.413   6.454  0.4028  0.4496  0.0259
    2SAPS   H4Y  223   6.265   1.589   6.480 -1.8194  1.9511 -0.4924
    2SAPS   C35  224   6.093   1.529   6.358 -0.9669  0.2999  0.7657
    2SAPS   H5X  225   6.048   1.628   6.378  2.3202  1.4357  3.4257
    2SAPS   H5Y  226   6.023   1.446   6.380  0.8046 -0.9579  1.8907
    2SAPS   C36  227   6.150   1.507   6.213  0.0857  0.3248  0.3563
    2SAPS   H6X  228   6.145   1.401   6.184  3.3175  0.7420 -2.3131
    2SAPS   H6Y  229   6.259   1.530   6.208 -0.1659  1.2980 -1.0403
    2SAPS   C37  230   6.060   1.591   6.121 -1.1183  0.3317  0.2392
    2SAPS   H7X  231   6.074   1.700   6.141  0.8073  0.1152  0.2077
    2SAPS   H7Y  232   5.953   1.571   6.146 -1.5537  0.5482 -1.3736
    2SAPS   C38  233   6.075   1.559   5.972  0.2658  0.4004 -0.4976
    2SAPS   H8X  234   6.014   1.627   5.908 -0.5323 -0.2596 -0.4595
    2SAPS   H8Y  235   6.035   1.457   5.955  2.1319 -0.9892  2.5466
    2SAPS   C39  236   6.214   1.567   5.913  0.2161  0.1871 -0.0649
    2SAPS   H9X  237   6.279   1.484   5.949  0.8888  0.9243  0.4420
    2SAPS   H9Y  238   6.260   1.660   5.951 -2.0566  1.3058  0.1056
    2SAPS  C310  239   6.220   1.584   5.764  0.4150 -0.7747  0.0259
    2SAPS  H10X  240   6.158   1.669   5.731  0.7828 -0.3983  0.3011
    2SAPS  H10Y  241   6.184   1.488   5.719  0.9511 -1.1750  0.4410
    2SAPS  C311  242   6.367   1.601   5.717 -0.4091 -0.2154  0.5002
    2SAPS  H11X  243   6.432   1.535   5.778  2.1639  1.2339 -0.5451
    2SAPS  H11Y  244   6.394   1.708   5.734  0.5010  0.0037 -1.9057
    2SAPS  C312  245   6.389   1.566   5.567  0.0528  0.3019 -0.2367
    2SAPS  H12X  246   6.374   1.457   5.556  0.3054  0.3491 -1.0538
    2SAPS  H12Y  247   6.495   1.585   5.540  0.2940  0.4344  0.7348
    2SAPS  C313  248   6.292   1.638   5.463 -0.0265 -0.1893 -0.2595
    2SAPS  H13X  249   6.295   1.748   5.472 -1.6783  0.1123 -2.3821
    2SAPS  H13Y  250   6.194   1.606   5.505 -0.1286  1.1577  0.5812
    2SAPS  C314  251   6.317   1.597   5.315  0.0674  0.1094 -0.3489
    2SAPS  H14X  252   6.312   1.487   5.304 -0.5443  0.2493 -1.6811
    2SAPS  H14Y  253   6.421   1.625   5.286  0.6002  1.8792  2.8998
    2SAPS  C315  254   6.223   1.663   5.208  0.7313  0.5151 -0.8383
    2SAPS  H15X  255   6.237   1.601   5.116 -0.9810 -0.3111 -0.5805
    2SAPS  H15Y  256   6.263   1.764   5.188  0.9976  0.0600 -2.8874
    2SAPS  C316  257   6.074   1.668   5.255  0.2045  0.1854 -0.0790
    2SAPS  H16X  258   6.050   1.739   5.337 -1.8647  0.0034 -0.4759
    2SAPS  H16Y  259   6.049   1.567   5.294  0.2752  0.4389  0.6473
    2SAPS  C317  260   5.978   1.700   5.146  0.0671  0.5338  0.5321
    2SAPS  H17X  261   5.998   1.624   5.068 -1.4805 -0.4995  1.0814
    2SAPS  H17Y  262   5.983   1.802   5.103 -1.5049  0.8661  1.0512
    2SAPS  C318  263   5.832   1.684   5.185 -0.1766 -0.0419  0.2398
    2SAPS  H18X  264   5.809   1.588   5.236 -2.3635  0.8607  1.0431
    2SAPS  H18Y  265   5.771   1.685   5.092  0.3910  1.2855 -0.1454
    2SAPS  H18Z  266   5.796   1.760   5.257 -0.1299  0.8016 -0.6079
    3SAPS     N  267   6.777   2.856   7.906 -0.0161 -0.3020 -0.0645
    3SAPS   HN1  268   6.862   2.796   7.903 -0.0607 -0.4115  0.7627
    3SAPS   HN2  269   6.702   2.790   7.878  1.0425 -0.9809 -1.4298
    3SAPS   HN3  270   6.782   2.943   7.849 -2.1308  1.6077  2.4271
    3SAPS   C12  271   6.761   2.889   8.049 -0.3235 -0.0269 -0.7371
    3SAPS  H12A  272   6.803   2.805   8.102  2.0411 -0.2605 -2.7917
    3SAPS   C13  273   6.838   3.013   8.082 -0.2258  0.1088 -0.0392
    3SAPS  O13A  274   6.877   3.095   7.993 -0.0980  0.2549  0.0371
    3SAPS  O13B  275   6.853   3.033   8.207  0.4939  0.1926 -0.0817
    3SAPS   C11  276   6.604   2.898   8.072 -0.0150 -0.7209 -0.2608
    3SAPS  H11A  277   6.557   2.975   8.006 -0.2820 -1.4127 -0.8899
    3SAPS  H11B  278   6.588   2.939   8.173  0.4846  0.9051 -0.8048
    3SAPS     P  279   6.471   2.688   7.959 -0.3874  0.3600  0.0701
    3SAPS   O13  280   6.438   2.550   7.999  0.3597  0.1476 -0.3083
    3SAPS   O14  281   6.357   2.771   7.916  0.2884  0.2812  0.1074
    3SAPS   O12  282   6.546   2.768   8.073  0.4253 -0.3073 -0.2567
    3SAPS   O11  283   6.584   2.691   7.847 -0.7901  0.5820  0.3728
    3SAPS    C1  284   6.583   2.601   7.738 -0.2428  0.3055 -0.4164
    3SAPS    HA  285   6.662   2.525   7.754 -0.6273 -0.4769 -2.0628
    3SAPS    HB  286   6.484   2.559   7.712 -0.2386 -0.0848  0.1713
    3SAPS    C2  287   6.637   2.665   7.605  1.1965 -0.0534 -0.6168
    3SAPS    HS  288   6.634   2.590   7.522  0.5042  2.5610 -3.1274
    3SAPS   O21  289   6.772   2.714   7.627 -0.0604  0.0223 -0.7322
    3SAPS   C21  290   6.867   2.619   7.615  0.6578  0.1896  0.3940
    3SAPS   O22  291   6.852   2.498   7.602  0.3718 -0.5683 -0.7126
    3SAPS   C22  292   7.003   2.686   7.625 -0.2904 -0.3764  0.8031
    3SAPS   H2R  293   7.009   2.716   7.732 -1.1249 -1.3584  1.1417
    3SAPS   H2S  294   7.092   2.622   7.608  1.3265  1.7338  0.8137
    3SAPS    C3  295   6.544   2.789   7.573 -0.7938 -0.1363  0.5767
    3SAPS    HX  296   6.535   2.854   7.662 -3.1505 -3.0481  2.6819
    3SAPS    HY  297   6.448   2.737   7.550  0.6943 -1.2687 -4.6585
    3SAPS   O31  298   6.605   2.862   7.465  0.2890 -0.3577  0.5295
    3SAPS   C31  299   6.593   2.789   7.352 -0.3625 -0.2040  0.6323
    3SAPS   O32  300   6.527   2.687   7.336  0.3077 -0.0642 -0.3140
    3SAPS   C32  301   6.671   2.860   7.238  0.5185  0.3983 -0.1217
    3SAPS   H2X  302   6.769   2.898   7.274  0.1775 -0.0032  1.2798
    3SAPS   H2Y  303   6.610   2.944   7.200 -1.0113 -1.4034 -1.8865
    3SAPS   C23  304   7.017   2.794   7.514  0.0418 -0.4189  0.2675
    3SAPS   H3R  305   7.107   2.860   7.522  0.0912 -0.5740  1.1627
    3SAPS   H3S  306   6.932   2.866   7.523  1.7359  2.1365 -2.3044
    3SAPS   C24  307   7.020   2.725   7.375  0.6886 -0.2701  0.1497
    3SAPS   H4R  308   7.006   2.802   7.296  1.0188  0.3063  0.6508
    3SAPS   H4S  309   6.922   2.674   7.368  1.1267 -1.5135  2.2763
    3SAPS   C25  310   7.132   2.644   7.328 -0.0554 -0.3443  0.0045
    3SAPS   H5R  311   7.225   2.651   7.387 -0.0347  0.6060 -0.1237
    3SAPS   C26  312   7.135   2.589   7.210 -0.1063 -0.4612  0.6753
    3SAPS   H6R  313   7.222   2.534   7.171 -1.6169 -1.3756 -1.6488
    3SAPS   C27  314   7.031   2.579   7.104 -0.1375  0.2154 -0.6822
    3SAPS   H7R  315   7.059   2.619   7.004  1.0363 -2.2708 -1.4354
    3SAPS   H7S  316   6.944   2.641   7.136 -0.4266 -0.6287  0.1977
    3SAPS   C28  317   6.991   2.438   7.080 -1.3762  0.3167  0.1973
    3SAPS   H8R  318   6.948   2.381   7.164 -0.1571  0.4558  0.9401
    3SAPS   C29  319   6.990   2.363   6.967 -0.0227 -0.4421  0.6689
    3SAPS   H9R  320   6.964   2.257   6.975  0.8135 -0.8483 -1.3933
    3SAPS  C210  321   7.048   2.405   6.829  0.2122 -0.2696 -0.5695
    3SAPS  H10R  322   7.153   2.373   6.812  0.4750  0.4927 -0.4039
    3SAPS  H10S  323   7.059   2.515   6.837 -3.0401  0.0813  0.7068
    3SAPS  C211  324   6.953   2.367   6.715 -0.4720 -0.1656 -0.2710
    3SAPS  H11R  325   6.859   2.320   6.747 -1.9625  2.7066 -0.1377
    3SAPS  C212  326   6.982   2.360   6.580 -0.3373 -0.0833 -0.0039
    3SAPS  H12R  327   6.901   2.338   6.509  1.3067  0.3605 -2.1495
    3SAPS  C213  328   7.115   2.400   6.513 -0.6854  0.1896  0.0918
    3SAPS  H13R  329   7.163   2.312   6.466  0.8735  1.4439 -0.7972
    3SAPS  H13S  330   7.192   2.435   6.586 -0.0867  0.7725 -0.7984
    3SAPS  C214  331   7.093   2.516   6.413 -0.4195  0.1497  0.5062
    3SAPS  H14R  332   7.118   2.621   6.435 -0.0051 -0.1058  1.2907
    3SAPS  C215  333   7.033   2.501   6.291 -0.3425  0.2753 -0.2843
    3SAPS  H15R  334   7.017   2.587   6.224 -0.1713  1.4508  1.1222
    3SAPS  C216  335   6.984   2.372   6.229 -0.3009  0.0128  0.4963
    3SAPS  H16R  336   6.876   2.392   6.218 -0.2242  0.4477  0.5150
    3SAPS  H16S  337   6.994   2.292   6.306 -3.0400 -0.1141  0.8040
    3SAPS  C217  338   7.045   2.334   6.091 -0.2496  0.2283  0.3826
    3SAPS  H17R  339   7.021   2.229   6.064 -1.5366  1.0100 -1.7907
    3SAPS  H17S  340   7.154   2.341   6.109 -0.5590  0.0906  2.5487
    3SAPS  C218  341   7.014   2.427   5.972 -0.0660 -0.2888 -0.7213
    3SAPS  H18R  342   7.010   2.535   5.999 -2.3130 -0.5134  0.1017
    3SAPS  H18S  343   6.910   2.396   5.945 -0.0225 -0.1993 -0.9948
    3SAPS  C219  344   7.105   2.420   5.844 -0.2624 -0.1042 -0.0275
    3SAPS  H19R  345   7.199   2.480   5.839  0.2726 -1.0086 -1.0689
    3SAPS  H19S  346   7.146   2.317   5.852  1.1719  0.5606  2.6700
    3SAPS  C220  347   7.038   2.451   5.709 -0.6382  0.5743 -0.1183
    3SAPS  H20R  348   7.127   2.459   5.642  0.0617 -0.3366  0.6636
    3SAPS  H20S  349   6.988   2.549   5.723 -0.9325  0.1430  2.1635
    3SAPS  H20T  350   6.983   2.360   5.678  0.7817 -0.2341 -0.3744
    3SAPS   C33  351   6.696   2.771   7.110 -0.2103  0.4100  0.1697
    3SAPS   H3X  352   6.595   2.740   7.075  0.5663  0.0620 -1.9272
    3SAPS   H3Y  353   6.746   2.673   7.127 -0.9522 -0.1104 -0.5362
    3SAPS   C34  354   6.770   2.847   7.004 -0.2718 -0.0381  0.0384
    3SAPS   H4X  355   6.871   2.852   7.051 -0.0560  2.7308 -0.5155
    3SAPS   H4Y  356   6.733   2.951   6.991 -2.4999 -0.9810 -1.7360
    3SAPS   C35  357   6.774   2.781   6.871  0.7488  0.0326 -0.0643
    3SAPS   H5X  358   6.821   2.681   6.873  3.7228  1.1645 -2.8585
    3SAPS   H5Y  359   6.671   2.779   6.828 -1.4961 -0.3402  4.7244
    3SAPS   C36  360   6.858   2.862   6.775  0.3146 -0.0508  1.5442
    3SAPS   H6X  361   6.955   2.859   6.829 -0.6334 -0.6916  3.2648
    3SAPS   H6Y  362   6.818   2.964   6.760  1.3636  0.4467  2.0305
    3SAPS   C37  363   6.870   2.796   6.634 -0.1315  0.0094  0.4277
    3SAPS   H7X  364   6.771   2.772   6.589  1.1701 -0.4596 -2.4491
    3SAPS   H7Y  365   6.934   2.708   6.658  2.4297  1.4765 -0.5802
    3SAPS   C38  366   6.939   2.891   6.545 -0.7444 -0.4965  0.8047
    3SAPS   H8X  367   7.006   2.840   6.472 -1.1436  0.3853 -0.2069
    3SAPS   H8Y  368   6.998   2.963   6.605 -1.8048  1.3957 -0.3144
    3SAPS   C39  369   6.849   2.984   6.464 -0.1775  0.2807  0.2783
    3SAPS   H9X  370   6.888   3.080   6.423  0.9763 -0.1418  0.3475
    3SAPS   H9Y  371   6.775   3.014   6.542  0.6762 -0.7148  1.5094
    3SAPS  C310  372   6.774   2.908   6.354 -0.2613 -0.4859 -0.1739
    3SAPS  H10X  373   6.681   2.960   6.325 -0.3071  1.0714  2.5037
    3SAPS  H10Y  374   6.754   2.802   6.382  0.5195 -0.4920  0.4166
    3SAPS  C311  375   6.866   2.879   6.231 -0.2408  0.5179 -0.5775
    3SAPS  H11X  376   6.961   2.831   6.263  0.1207  0.5443 -1.5736
    3SAPS  H11Y  377   6.901   2.976   6.188  1.5145 -0.3082 -1.0997
    3SAPS  C312  378   6.801   2.791   6.126 -0.1142 -0.0285  0.1377
    3SAPS  H12X  379   6.699   2.825   6.097  0.6783  0.0671 -2.8283
    3SAPS  H12Y  380   6.791   2.691   6.172  2.5292 -0.7787 -0.7238
    3SAPS  C313  381   6.892   2.780   6.002  0.0289  0.1422  0.0517
    3SAPS  H13X  382   6.851   2.693   5.947  2.1907 -0.7673 -0.2243
    3SAPS  H13Y  383   6.996   2.770   6.041 -0.2090  0.0984  0.6848
    3SAPS  C314  384   6.889   2.903   5.910  0.5692 -0.9908  0.1226
    3SAPS  H14X  385   6.957   2.975   5.959  0.9871 -1.5109  0.3096
    3SAPS  H14Y  386   6.787   2.945   5.897  1.0358  0.2085  0.2030
    3SAPS  C315  387   6.932   2.865   5.767  0.1747 -0.4642  0.0085
    3SAPS  H15X  388   6.865   2.786   5.728 -0.3729  0.0092 -0.0375
    3SAPS  H15Y  389   7.025   2.805   5.768 -0.3114 -1.2323  0.1905
    3SAPS  C316  390   6.946   2.973   5.666 -0.0108 -1.1331  0.5406
    3SAPS  H16X  391   7.037   3.026   5.700 -0.6177  0.2402  0.0677
    3SAPS  H16Y  392   6.859   3.041   5.673 -1.0788 -2.2267 -1.2038
    3SAPS  C317  393   6.966   2.913   5.522 -0.7145 -0.5137  0.2147
    3SAPS  H17X  394   6.889   2.837   5.495  0.7974 -2.0427  0.0903
    3SAPS  H17Y  395   7.059   2.854   5.511  0.4228  1.0272  1.3003
    3SAPS  C318  396   6.964   3.029   5.417  0.3368  0.8028  0.2049
    3SAPS  H18X  397   6.869   3.087   5.422  1.4507  2.6882  0.0593
    3SAPS  H18Y  398   6.961   2.972   5.321  0.1037 -0.4194  0.9164
    3SAPS  H18Z  399   7.047   3.101   5.409  0.8432  0.4019  1.6057
    4SAPS     N  400   6.655   0.169   7.784  0.2480 -0.3418  0.2607
    4SAPS   HN1  401   6.611   0.197   7.874 -0.3562  1.6044 -0.6016
    4SAPS   HN2  402   6.674   0.257   7.732 -0.3195 -0.1037  0.4451
    4SAPS   HN3  403   6.598   0.101   7.729 -2.1052  0.9184  0.9634
    4SAPS   C12  404   6.797   0.121   7.800  0.1515  0.3708 -0.1734
    4SAPS  H12A  405   6.843   0.188   7.871 -0.6404 -0.2999  1.0003
    4SAPS   C13  406   6.818  -0.020   7.866 -0.3510  0.3165  0.1214
    4SAPS  O13A  407   6.721  -0.085   7.914  0.1035  0.0077  0.8335
    4SAPS  O13B  408   6.933  -0.040   7.908 -0.0555 -0.6060 -0.1417
    4SAPS   C11  409   6.872   0.119   7.667 -0.1155  0.0394  0.3031
    4SAPS  H11A  410   6.980   0.105   7.692  0.6568  2.7893 -1.0491
    4SAPS  H11B  411   6.874   0.219   7.619  0.5655 -0.3186 -0.4299
    4SAPS     P  412   6.894  -0.016   7.443 -0.3070 -0.0996  0.1241
    4SAPS   O13  413   7.003  -0.110   7.474  0.4362  0.2133  0.8578
    4SAPS   O14  414   6.802  -0.057   7.334 -0.0711 -0.4087 -1.2620
    4SAPS   O12  415   6.814   0.015   7.578  0.1544  0.1223  0.3853
    4SAPS   O11  416   6.959   0.122   7.405  0.0387 -0.2313 -0.8172
    4SAPS    C1  417   6.890   0.226   7.345  0.2474 -0.3711 -0.5568
    4SAPS    HA  418   6.792   0.244   7.394  1.2592  0.1466  1.4054
    4SAPS    HB  419   6.948   0.318   7.371 -2.0831  1.2617 -0.7753
    4SAPS    C2  420   6.879   0.210   7.189 -0.0896 -0.3981 -0.4188
    4SAPS    HS  421   6.843   0.107   7.165  0.1086 -1.1672  2.2549
    4SAPS   O21  422   6.998   0.242   7.114 -0.3958 -0.1462 -0.5415
    4SAPS   C21  423   7.058   0.142   7.070 -0.4247  0.3924 -0.1313
    4SAPS   O22  424   7.045   0.024   7.106  0.1063 -0.8385  0.1647
    4SAPS   C22  425   7.150   0.179   6.954 -0.2541 -0.5119  0.2866
    4SAPS   H2R  426   7.171   0.287   6.964 -0.6516 -0.4640  0.5824
    4SAPS   H2S  427   7.243   0.118   6.967 -0.2212 -0.3778  0.6741
    4SAPS    C3  428   6.780   0.316   7.136  0.6421 -0.3342 -0.4985
    4SAPS    HX  429   6.824   0.413   7.170 -1.2481  0.2097  0.5250
    4SAPS    HY  430   6.688   0.314   7.199 -0.0127  0.0070 -1.4189
    4SAPS   O31  431   6.753   0.325   6.992  0.3266  0.5041 -0.7786
    4SAPS   C31  432   6.679   0.223   6.953 -0.5446 -0.5280 -0.0838
    4SAPS   O32  433   6.629   0.142   7.031  0.1115  0.1843  0.1398
    4SAPS   C32  434   6.666   0.228   6.812 -0.4797  0.2064 -0.3582
    4SAPS   H2X  435   6.769   0.222   6.770  0.7786  0.0256  2.5393
    4SAPS   H2Y  436   6.612   0.318   6.774  1.0159  0.1826 -2.7629
    4SAPS   C23  437   7.082   0.158   6.819 -0.1869  0.0363 -0.0774
    4SAPS   H3R  438   6.975   0.184   6.834  0.1222 -0.1049  2.9653
    4SAPS   H3S  439   7.087   0.050   6.795 -3.2854 -0.2536  0.0961
    4SAPS   C24  440   7.152   0.236   6.711  0.3037 -0.7618 -0.4738
    4SAPS   H4R  441   7.132   0.179   6.618  1.4528 -2.2564  0.1496
    4SAPS   H4S  442   7.259   0.211   6.728  0.6457  1.1654  0.5330
    4SAPS   C25  443   7.123   0.388   6.705 -0.4363  0.0202 -0.0084
    4SAPS   H5R  444   7.173   0.448   6.783  2.2293  0.3596 -1.8291
    4SAPS   C26  445   7.056   0.449   6.608  0.1957  0.5875 -0.3083
    4SAPS   H6R  446   7.048   0.559   6.608  1.5631  0.7076 -1.3634
    4SAPS   C27  447   6.982   0.387   6.491 -0.2904  0.1534  0.3251
    4SAPS   H7R  448   6.997   0.277   6.482 -0.0049  0.3037 -1.5608
    4SAPS   H7S  449   7.026   0.425   6.396  1.9997 -2.4075  0.2274
    4SAPS   C28  450   6.836   0.406   6.504  0.1427 -0.0044  0.0283
    4SAPS   H8R  451   6.790   0.411   6.604 -1.6400 -2.2445 -0.6132
    4SAPS   C29  452   6.758   0.426   6.399 -0.1552  0.3807  0.0891
    4SAPS   H9R  453   6.652   0.439   6.425  0.0601 -1.1371  1.9923
    4SAPS  C210  454   6.787   0.433   6.251 -0.0183 -1.2475  0.4823
    4SAPS  H10R  455   6.886   0.483   6.241 -0.9052  0.1606 -1.8749
    4SAPS  H10S  456   6.719   0.511   6.212  0.6384 -1.0835 -0.3694
    4SAPS  C211  457   6.778   0.299   6.180 -0.6198 -0.1185 -0.0943
    4SAPS  H11R  458   6.769   0.205   6.236 -0.0542 -0.1409 -0.0389
    4SAPS  C212  459   6.798   0.287   6.049 -0.2103  0.3252  0.1569
    4SAPS  H12R  460   6.781   0.185   6.012  1.5071 -0.4893  1.4880
    4SAPS  C213  461   6.825   0.396   5.947  0.1503  0.8769  0.4546
    4SAPS  H13R  462   6.809   0.494   5.997  1.4854  1.2933  0.1256
    4SAPS  H13S  463   6.751   0.385   5.866 -0.1085 -0.1438  0.8234
    4SAPS  C214  464   6.969   0.380   5.888  0.4759 -0.4008  0.4525
    4SAPS  H14R  465   7.038   0.391   5.972 -0.3479 -1.5281  1.3084
    4SAPS  C215  466   7.003   0.395   5.759 -0.0708 -0.4148  0.5031
    4SAPS  H15R  467   7.106   0.370   5.731 -0.0268 -0.2789  0.5407
    4SAPS  C216  468   6.910   0.426   5.642 -0.4013 -0.0677  0.1635
    4SAPS  H16R  469   6.925   0.522   5.588 -4.5403  1.1031  0.7975
    4SAPS  H16S  470   6.803   0.428   5.670 -0.0423  1.9890  1.6256
    4SAPS  C217  471   6.911   0.318   5.532 -0.2384 -0.4930  0.0384
    4SAPS  H17R  472   7.016   0.316   5.495  0.2405 -0.6041  1.3338
    4SAPS  H17S  473   6.847   0.358   5.450  0.2037  1.2747  0.4997
    4SAPS  C218  474   6.869   0.179   5.571  0.1266 -0.2712  0.0357
    4SAPS  H18R  475   6.761   0.175   5.547  0.0508 -0.0949  0.3451
    4SAPS  H18S  476   6.879   0.152   5.678  0.5564  1.9570  0.6179
    4SAPS  C219  477   6.943   0.072   5.483 -0.1144 -0.2353 -0.1226
    4SAPS  H19R  478   6.906  -0.024   5.525 -0.0825 -1.3549 -2.4784
    4SAPS  H19S  479   7.052   0.068   5.506 -0.7597 -0.5221  3.4131
    4SAPS  C220  480   6.920   0.074   5.333 -0.2123  0.3867 -0.2335
    4SAPS  H20R  481   6.960   0.170   5.293  0.1451  0.9479  1.3755
    4SAPS  H20S  482   6.813   0.084   5.308 -0.9535 -0.3537  2.3626
    4SAPS  H20T  483   6.965  -0.010   5.276 -0.9690 -0.0197 -0.2432
    4SAPS   C33  484   6.578   0.117   6.755  0.6615  1.2148  0.3548
    4SAPS   H3X  485   6.477   0.121   6.801  0.6843  0.9889  0.4242
    4SAPS   H3Y  486   6.625   0.020   6.782 -1.3230  0.2719  0.5416
    4SAPS   C34  487   6.553   0.111   6.599  0.3385  0.1102  0.3216
    4SAPS   H4X  488   6.506   0.017   6.562 -0.6766  1.2296 -1.3655
    4SAPS   H4Y  489   6.648   0.125   6.544  0.3798 -0.1367  0.3260
    4SAPS   C35  490   6.456   0.219   6.544  0.5018 -0.3192 -0.2456
    4SAPS   H5X  491   6.519   0.310   6.547  1.7190 -1.1175 -0.9065
    4SAPS   H5Y  492   6.358   0.221   6.597  0.6487  0.6142  0.0050
    4SAPS   C36  493   6.430   0.189   6.397  0.5541  0.5749 -0.7817
    4SAPS   H6X  494   6.383   0.089   6.398  1.2333  0.2470 -0.1419
    4SAPS   H6Y  495   6.527   0.180   6.342  1.3973 -0.6521  0.8389
    4SAPS   C37  496   6.342   0.291   6.329 -0.0415  0.1708 -0.6644
    4SAPS   H7X  497   6.376   0.397   6.338 -0.3228  0.0858  2.9807
    4SAPS   H7Y  498   6.242   0.290   6.378  1.0925  1.4660  1.8782
    4SAPS   C38  499   6.324   0.251   6.179 -0.2656 -0.6197 -0.1683
    4SAPS   H8X  500   6.257   0.329   6.138  1.5646  1.4027  0.5149
    4SAPS   H8Y  501   6.284   0.148   6.168 -0.1756 -0.7926  1.0028
    4SAPS   C39  502   6.453   0.261   6.093  0.6284 -0.5239 -0.0359
    4SAPS   H9X  503   6.519   0.172   6.105 -0.2980 -1.1153  0.8094
    4SAPS   H9Y  504   6.514   0.343   6.134  0.1307  0.2406 -0.7925
    4SAPS  C310  505   6.424   0.299   5.948 -0.2709 -0.1572 -0.8089
    4SAPS  H10X  506   6.524   0.303   5.899 -0.2223 -1.3255 -0.8153
    4SAPS  H10Y  507   6.384   0.402   5.933 -1.1022 -0.3516  0.0084
    4SAPS  C311  508   6.326   0.202   5.872 -0.0254  0.1581  0.8543
    4SAPS  H11X  509   6.235   0.202   5.935 -1.0003 -0.5028 -0.5085
    4SAPS  H11Y  510   6.373   0.101   5.874  1.2461  0.6496 -1.1958
    4SAPS  C312  511   6.289   0.244   5.725 -0.9002 -0.4239 -0.2365
    4SAPS  H12X  512   6.249   0.347   5.729 -1.3838 -0.6392  0.8257
    4SAPS  H12Y  513   6.208   0.177   5.689 -0.3029 -1.2150 -0.1461
    4SAPS  C313  514   6.391   0.231   5.616  0.2071  0.6930  0.2869
    4SAPS  H13X  515   6.438   0.130   5.620  0.5221  0.4319 -4.7043
    4SAPS  H13Y  516   6.473   0.305   5.631 -0.5746  1.9304 -1.2991
    4SAPS  C314  517   6.327   0.258   5.474  0.2862  0.9379  0.9150
    4SAPS  H14X  518   6.307   0.367   5.466 -1.6208  0.5830  0.2465
    4SAPS  H14Y  519   6.227   0.212   5.461  0.8638  0.4066 -2.7726
    4SAPS  C315  520   6.427   0.212   5.359 -0.2627 -0.7957 -0.6880
    4SAPS  H15X  521   6.433   0.102   5.360 -0.7100 -0.8211 -0.5053
    4SAPS  H15Y  522   6.527   0.258   5.377 -1.2871  1.2788  0.1178
    4SAPS  C316  523   6.375   0.250   5.221 -0.0958  0.2623  0.4438
    4SAPS  H16X  524   6.366   0.360   5.211  2.4608  0.5864  0.9813
    4SAPS  H16Y  525   6.272   0.211   5.212 -0.3427  1.2845 -1.7320
    4SAPS  C317  526   6.445   0.188   5.099  0.2711  0.4218  0.4902
    4SAPS  H17X  527   6.467   0.083   5.128  1.0697  0.3666 -0.2673
    4SAPS  H17Y  528   6.545   0.235   5.084  0.0271  0.3127 -1.9004
    4SAPS  C318  529   6.371   0.196   4.966  1.0080  0.0562 -0.4785
    4SAPS  H18X  530   6.430   0.160   4.878 -1.2241 -0.3802 -1.8827
    4SAPS  H18Y  531   6.329   0.293   4.933 -0.7951 -0.4126  0.3619
    4SAPS  H18Z  532   6.282   0.131   4.973  0.7295  0.3430 -1.2179
    5SAPS     N  533   1.160   3.619   7.548 -0.0391  0.0231  0.3856
    5SAPS   HN1  534   1.099   3.689   7.503 -2.7156 -3.1138 -1.3186
    5SAPS   HN2  535   1.241   3.593   7.489  0.0205 -0.2188  0.5698
    5SAPS   HN3  536   1.106   3.530   7.549  1.6910 -1.0761  0.2135
    5SAPS   C12  537   1.194   3.645   7.699 -0.2649  0.2610  0.3194
    5SAPS  H12A  538   1.104   3.686   7.744 -0.5936 -0.3201  0.2000
    5SAPS   C13  539   1.239   3.519   7.779 -0.3370  0.0357  0.0539
    5SAPS  O13A  540   1.248   3.404   7.727 -0.1627 -0.1039 -0.4982
    5SAPS  O13B  541   1.298   3.540   7.889  0.3717  0.9610  0.5588
    5SAPS   C11  542   1.305   3.758   7.718 -0.1339  0.3441 -0.3062
    5SAPS  H11A  543   1.401   3.713   7.686 -1.3304 -1.9463 -0.8585
    5SAPS  H11B  544   1.294   3.777   7.827  1.3312  0.7301 -0.2088
    5SAPS     P  545   1.375   3.960   7.566  0.1727  0.5310 -0.1933
    5SAPS   O13  546   1.356   4.101   7.608  0.8945  0.0362 -0.4269
    5SAPS   O14  547   1.511   3.908   7.586 -0.0217  0.2659  0.3399
    5SAPS   O12  548   1.267   3.875   7.641 -0.5271  0.8747 -0.8203
    5SAPS   O11  549   1.327   3.936   7.422 -0.1362 -0.0668 -0.3198
    5SAPS    C1  550   1.204   3.957   7.359  0.7906 -0.3633 -1.1887
    5SAPS    HA  551   1.131   3.883   7.397  0.2910  1.1206  0.8962
    5SAPS    HB  552   1.163   4.055   7.391 -0.1096 -0.4162 -2.1283
    5SAPS    C2  553   1.206   3.937   7.205 -0.6650  0.3351  0.3139
    5SAPS    HS  554   1.103   3.946   7.165 -0.0583 -3.4386 -2.7230
    5SAPS   O21  555   1.271   3.808   7.172 -0.3763 -0.4566 -0.7244
    5SAPS   C21  556   1.234   3.766   7.048  1.0006  0.5022 -0.0002
    5SAPS   O22  557   1.135   3.804   6.986  0.0484 -0.3955  0.2011
    5SAPS   C22  558   1.338   3.662   7.002 -0.1390 -0.3155 -0.0629
    5SAPS   H2R  559   1.343   3.586   7.083 -0.6765 -1.0431 -0.6922
    5SAPS   H2S  560   1.292   3.605   6.918 -1.1587  0.8903 -0.3479
    5SAPS    C3  561   1.282   4.054   7.145  1.3676 -0.1941 -0.2978
    5SAPS    HX  562   1.388   4.030   7.169  0.6042 -3.1238  0.6598
    5SAPS    HY  563   1.251   4.146   7.199  1.7287  0.4547 -1.1881
    5SAPS   O31  564   1.278   4.066   6.999  0.2615 -0.3006  0.2121
    5SAPS   C31  565   1.157   4.110   6.950 -0.2305 -0.1303  1.0629
    5SAPS   O32  566   1.064   4.149   7.012 -0.0644 -0.2333 -0.4497
    5SAPS   C32  567   1.156   4.097   6.800  0.4066 -0.4903 -0.1395
    5SAPS   H2X  568   1.177   3.993   6.766 -1.3615 -0.5919 -1.0541
    5SAPS   H2Y  569   1.225   4.177   6.768 -0.0639  0.4024  1.0128
    5SAPS   C23  570   1.480   3.716   6.961 -0.5776  0.0018 -0.1172
    5SAPS   H3R  571   1.547   3.627   6.968 -0.7419 -0.2654 -1.7144
    5SAPS   H3S  572   1.498   3.802   7.029 -0.4249  2.2496 -2.8396
    5SAPS   C24  573   1.502   3.774   6.823 -0.6621  0.4750  0.1704
    5SAPS   H4R  574   1.606   3.810   6.810  0.0497 -0.6822  2.1530
    5SAPS   H4S  575   1.433   3.859   6.811 -0.3661  0.7854  0.6455
    5SAPS   C25  576   1.466   3.661   6.728  0.0256  0.7968 -0.3393
    5SAPS   H5R  577   1.363   3.622   6.725 -0.0498  1.0671 -1.9499
    5SAPS   C26  578   1.550   3.600   6.646  0.1950 -0.4595  1.1000
    5SAPS   H6R  579   1.499   3.533   6.575 -2.0809  0.8733  1.3835
    5SAPS   C27  580   1.698   3.635   6.618  0.0899  0.6873 -0.0513
    5SAPS   H7R  581   1.756   3.640   6.713  1.9333  1.6356 -1.1656
    5SAPS   H7S  582   1.712   3.730   6.562  3.9480  1.0132  1.1382
    5SAPS   C28  583   1.766   3.529   6.541 -0.5577 -0.2480  0.1927
    5SAPS   H8R  584   1.842   3.478   6.601  0.2757  1.2531  0.4728
    5SAPS   C29  585   1.763   3.500   6.410 -0.3426 -0.2226 -0.9504
    5SAPS   H9R  586   1.840   3.431   6.373  0.7150  0.2446  0.2940
    5SAPS  C210  587   1.673   3.565   6.309  0.1434  0.3261  0.0904
    5SAPS  H10R  588   1.733   3.640   6.253 -0.7207  0.2439 -0.9754
    5SAPS  H10S  589   1.599   3.630   6.361 -0.7343  0.8236 -1.6920
    5SAPS  C211  590   1.596   3.471   6.221  0.7315  0.0221  0.0631
    5SAPS  H11R  591   1.536   3.392   6.269  2.3572 -0.7974  0.8093
    5SAPS  C212  592   1.581   3.491   6.088  0.0605 -0.4210  0.3217
    5SAPS  H12R  593   1.522   3.409   6.044  0.3415 -1.6847  2.1658
    5SAPS  C213  594   1.627   3.609   6.008  0.5954 -0.5751  0.2615
    5SAPS  H13R  595   1.599   3.708   6.050  0.3801 -0.8501  0.7823
    5SAPS  H13S  596   1.554   3.622   5.926  1.9293 -2.7828 -1.3640
    5SAPS  C214  597   1.763   3.599   5.952  0.0551  0.4072  0.3691
    5SAPS  H14R  598   1.847   3.586   6.021 -0.4807  0.1580  0.9853
    5SAPS  C215  599   1.799   3.596   5.823  0.6360 -0.4895  0.1266
    5SAPS  H15R  600   1.907   3.582   5.810  0.4806 -1.6048 -0.0903
    5SAPS  C216  601   1.705   3.608   5.703 -0.4558 -0.0516 -0.2377
    5SAPS  H16R  602   1.729   3.704   5.651  0.3289 -0.5234 -0.7669
    5SAPS  H16S  603   1.596   3.611   5.724 -0.3918 -0.1795  0.1176
    5SAPS  C217  604   1.722   3.507   5.581 -0.6453 -0.5510  0.2518
    5SAPS  H17R  605   1.693   3.402   5.603  0.3594 -0.9002 -0.0231
    5SAPS  H17S  606   1.830   3.491   5.557  0.0489  0.1906  2.6253
    5SAPS  C218  607   1.657   3.554   5.448 -0.2174  0.3036 -1.0417
    5SAPS  H18R  608   1.708   3.493   5.370  3.5192  1.5965  0.1631
    5SAPS  H18S  609   1.673   3.662   5.429 -3.5733  0.9718 -0.6367
    5SAPS  C219  610   1.505   3.536   5.439 -0.3133  0.3058  0.0286
    5SAPS  H19R  611   1.459   3.611   5.508 -0.7110  0.3945 -0.3283
    5SAPS  H19S  612   1.482   3.435   5.480 -0.2756  0.1871 -0.2392
    5SAPS  C220  613   1.457   3.551   5.304  0.5959  0.0859 -0.4152
    5SAPS  H20R  614   1.508   3.491   5.225 -1.0110 -1.5978 -0.2620
    5SAPS  H20S  615   1.455   3.651   5.256 -2.3688  0.8833  1.1506
    5SAPS  H20T  616   1.348   3.531   5.293  0.5519  0.4148 -0.5887
    5SAPS   C33  617   1.024   4.140   6.739  0.3451  0.0274  0.2216
    5SAPS   H3X  618   1.043   4.177   6.636 -2.2413 -1.0163 -0.7062
    5SAPS   H3Y  619   0.972   4.212   6.806 -0.5158 -1.3214  1.0598
    5SAPS   C34  620   0.925   4.024   6.725  0.2213 -0.4047 -0.0003
    5SAPS   H4X  621   0.821   4.062   6.732  1.3235  3.0571 -0.3565
    5SAPS   H4Y  622   0.940   3.963   6.816  2.4056 -2.3698 -1.5403
    5SAPS   C35  623   0.935   3.937   6.604  0.7786 -0.0309 -0.2029
    5SAPS   H5X  624   0.865   3.851   6.617 -0.5195  0.9715 -0.3483
    5SAPS   H5Y  625   1.037   3.895   6.596  1.0865 -0.0357  2.6870
    5SAPS   C36  626   0.891   4.007   6.471  0.1263  0.3327 -0.1453
    5SAPS   H6X  627   0.951   4.098   6.453  0.0568  0.3530 -0.2703
    5SAPS   H6Y  628   0.785   4.025   6.497  0.2941 -1.3352  2.0807
    5SAPS   C37  629   0.901   3.920   6.348  0.4464  0.3995  0.1759
    5SAPS   H7X  630   0.835   3.832   6.361  1.7006 -0.7201 -0.8032
    5SAPS   H7Y  631   1.006   3.886   6.334  0.2763 -0.7424  1.4947
    5SAPS   C38  632   0.851   3.986   6.220 -0.0750  0.4637  0.1844
    5SAPS   H8X  633   0.742   4.005   6.226 -0.1668 -0.1008  0.3679
    5SAPS   H8Y  634   0.880   3.916   6.138 -0.6096  0.3001  0.1306
    5SAPS   C39  635   0.917   4.122   6.176 -0.0680 -0.3350 -0.5831
    5SAPS   H9X  636   1.024   4.104   6.199 -1.2131 -4.2061  2.8658
    5SAPS   H9Y  637   0.875   4.200   6.243  1.3034 -0.8995  0.9874
    5SAPS  C310  638   0.885   4.175   6.031 -0.5032 -0.0433 -0.4947
    5SAPS  H10X  639   0.910   4.282   6.025 -2.2080  0.4482  0.2772
    5SAPS  H10Y  640   0.775   4.168   6.016 -0.7216 -0.3756  1.0330
    5SAPS  C311  641   0.951   4.098   5.919 -0.2364 -0.4769 -0.3786
    5SAPS  H11X  642   0.939   3.987   5.920  1.4851 -0.6888  1.2983
    5SAPS  H11Y  643   1.059   4.121   5.928 -0.5841  0.9122  0.4910
    5SAPS  C312  644   0.910   4.165   5.787 -0.4389  0.1578 -0.1823
    5SAPS  H12X  645   0.852   4.257   5.808  0.5216  0.7895 -0.2638
    5SAPS  H12Y  646   0.843   4.091   5.737  0.9504 -0.4030 -1.2615
    5SAPS  C313  647   1.028   4.193   5.696  0.5281  0.2886 -0.2735
    5SAPS  H13X  648   1.089   4.101   5.692  0.1079  0.0173 -0.6656
    5SAPS  H13Y  649   1.095   4.275   5.731  0.2354 -0.1332  1.3192
    5SAPS  C314  650   0.977   4.212   5.552  0.0417 -0.3515 -0.3109
    5SAPS  H14X  651   0.893   4.285   5.552  0.7207  0.5207 -2.6678
    5SAPS  H14Y  652   0.941   4.117   5.509  1.8331 -0.7197 -1.0838
    5SAPS  C315  653   1.085   4.272   5.467 -0.2540 -0.1752  0.0723
    5SAPS  H15X  654   1.178   4.213   5.458 -0.0545 -0.1811  1.9420
    5SAPS  H15Y  655   1.119   4.367   5.514 -1.1044  1.0338 -1.6248
    5SAPS  C316  656   1.018   4.318   5.341 -0.2820 -0.2837  0.0934
    5SAPS  H16X  657   0.929   4.378   5.367 -0.0316 -0.5701  1.7091
    5SAPS  H16Y  658   0.968   4.230   5.295 -1.1938 -0.7109  1.8543
    5SAPS  C317  659   1.121   4.388   5.246  0.2009 -0.2649  0.1656
    5SAPS  H17X  660   1.192   4.309   5.212  1.5167  0.8401  0.2468
    5SAPS  H17Y  661   1.183   4.462   5.301 -0.2544 -0.3627  0.8328
    5SAPS  C318  662   1.063   4.437   5.116 -0.2596 -0.4774 -0.3324
    5SAPS  H18X  663   1.022   4.348   5.064 -0.7392 -0.3251 -0.2207
    5SAPS  H18Y  664   1.159   4.472   5.073 -0.5360  1.4377  0.5091
    5SAPS  H18Z  665   0.991   4.520   5.133 -1.3836 -1.7272  1.3437
    6SAPS     N  666   6.207   1.813   7.451 -0.4797  0.4895 -0.7655
    6SAPS   HN1  667   6.161   1.897   7.410  0.5967  0.4260 -2.1678
    6SAPS   HN2  668   6.307   1.804   7.425 -0.6732  1.1378 -1.7728
    6SAPS   HN3  669   6.161   1.720   7.441  0.0763 -0.1889  2.0183
    6SAPS   C12  670   6.210   1.847   7.605  0.5015 -0.3893  0.6606
    6SAPS  H12A  671   6.256   1.759   7.647 -0.3362 -0.4544  1.4736
    6SAPS   C13  672   6.307   1.965   7.639  0.8498  0.2057  0.2570
    6SAPS  O13A  673   6.369   2.026   7.548  0.0771 -0.7656 -0.0731
    6SAPS  O13B  674   6.347   1.978   7.757  0.2123  0.6639 -0.0683
    6SAPS   C11  675   6.062   1.858   7.670 -0.0632  0.6309 -0.6548
    6SAPS  H11A  676   6.077   1.902   7.771 -0.7843 -2.6336  1.0270
    6SAPS  H11B  677   6.020   1.756   7.686  0.4465  0.5511  0.3130
    6SAPS     P  678   5.850   1.906   7.520  0.0365  0.1991 -0.0709
    6SAPS   O13  679   5.798   1.777   7.569 -0.7378  0.0231 -0.9265
    6SAPS   O14  680   5.761   2.020   7.528 -0.1717  0.2658 -0.0075
    6SAPS   O12  681   5.984   1.946   7.590  0.4870  0.3783  0.0640
    6SAPS   O11  682   5.892   1.886   7.366 -0.0586 -0.0049  0.0856
    6SAPS    C1  683   5.896   1.992   7.270 -0.6236  0.1614  0.6699
    6SAPS    HA  684   5.935   2.086   7.312 -0.0698 -1.1587  3.3058
    6SAPS    HB  685   5.964   1.961   7.188 -0.1663  1.9727  0.3396
    6SAPS    C2  686   5.751   2.005   7.209  0.0990 -0.2046 -0.0302
    6SAPS    HS  687   5.684   2.031   7.293  1.5707  0.7721  0.8751
    6SAPS   O21  688   5.715   1.882   7.133 -0.9054 -1.0387 -0.0944
    6SAPS   C21  689   5.589   1.861   7.120  0.0699 -0.3098  0.7082
    6SAPS   O22  690   5.500   1.915   7.183  0.1076 -0.7314  0.0186
    6SAPS   C22  691   5.565   1.745   7.022 -0.0862 -1.1292  0.9817
    6SAPS   H2R  692   5.663   1.698   7.002  1.0132  1.8350 -1.4038
    6SAPS   H2S  693   5.488   1.676   7.062 -2.1488  0.1139 -0.5995
    6SAPS    C3  694   5.740   2.129   7.122 -0.9593  0.2016 -0.1082
    6SAPS    HX  695   5.745   2.210   7.198  1.2329  0.0461 -0.0327
    6SAPS    HY  696   5.643   2.125   7.068 -0.1467 -0.6804 -1.5488
    6SAPS   O31  697   5.854   2.133   7.036  0.1916 -0.2167 -0.3065
    6SAPS   C31  698   5.888   2.252   6.997 -0.2840  0.0887 -0.0165
    6SAPS   O32  699   5.828   2.355   7.019  0.2773  0.0057  0.2403
    6SAPS   C32  700   6.019   2.245   6.918 -0.3307 -0.2659  0.0339
    6SAPS   H2X  701   6.102   2.230   6.991 -0.0803  0.6161 -0.0590
    6SAPS   H2Y  702   6.026   2.350   6.885  0.6423 -0.1179  0.6602
    6SAPS   C23  703   5.518   1.791   6.885  0.0340  0.5250 -0.0232
    6SAPS   H3R  704   5.420   1.840   6.897  0.0068  0.6928 -0.9066
    6SAPS   H3S  705   5.515   1.704   6.816 -0.2399  1.9147 -1.8347
    6SAPS   C24  706   5.611   1.894   6.812  0.8361  0.3171 -0.3979
    6SAPS   H4R  707   5.603   1.988   6.872 -0.8995  0.2488 -0.4608
    6SAPS   H4S  708   5.558   1.912   6.716 -1.3162 -0.7508  0.5174
    6SAPS   C25  709   5.759   1.862   6.793  0.0570  0.1477  0.3770
    6SAPS   H5R  710   5.829   1.881   6.876  0.2256  0.4935  0.1574
    6SAPS   C26  711   5.803   1.794   6.685  0.4398  0.0996 -0.2557
    6SAPS   H6R  712   5.912   1.786   6.671  0.7592  3.0079 -0.1319
    6SAPS   C27  713   5.726   1.738   6.568 -0.5734 -0.6246 -0.4743
    6SAPS   H7R  714   5.744   1.803   6.479  0.3444  1.0653  0.8910
    6SAPS   H7S  715   5.620   1.765   6.584  0.0076 -0.2537  3.9180
    6SAPS   C28  716   5.740   1.583   6.544  0.8012  0.4564  0.1150
    6SAPS   H8R  717   5.775   1.523   6.629  2.3191  1.9033  0.5558
    6SAPS   C29  718   5.710   1.523   6.427 -0.2660 -0.2250 -0.5348
    6SAPS   H9R  719   5.724   1.414   6.428 -0.0541 -0.2053 -1.1062
    6SAPS  C210  720   5.655   1.586   6.302 -0.2033 -0.0429  0.3450
    6SAPS  H10R  721   5.688   1.690   6.285 -1.2989  0.0783 -1.2220
    6SAPS  H10S  722   5.546   1.592   6.321  0.0903  1.3373  1.7805
    6SAPS  C211  723   5.679   1.510   6.175 -0.4007  0.9332  0.3397
    6SAPS  H11R  724   5.716   1.406   6.181 -2.5715  0.1921  2.6648
    6SAPS  C212  725   5.680   1.561   6.054 -0.1021 -0.3336  0.0550
    6SAPS  H12R  726   5.694   1.491   5.970  1.0892  0.1684 -0.1729
    6SAPS  C213  727   5.640   1.697   6.007 -0.1730  0.7065  0.1578
    6SAPS  H13R  728   5.610   1.765   6.090  0.0778  1.0378 -0.0199
    6SAPS  H13S  729   5.543   1.678   5.957 -0.4596 -1.3281  1.3887
    6SAPS  C214  730   5.739   1.758   5.911  0.5208 -0.0052  0.1007
    6SAPS  H14R  731   5.809   1.822   5.967  1.1755 -1.0759  0.5499
    6SAPS  C215  732   5.753   1.751   5.780  0.3925  0.8732  0.3707
    6SAPS  H15R  733   5.842   1.790   5.729  0.9259  0.5387  1.0334
    6SAPS  C216  734   5.659   1.682   5.677  0.1306 -0.4670 -0.2499
    6SAPS  H16R  735   5.611   1.771   5.631  2.0216  0.8192  0.1427
    6SAPS  H16S  736   5.583   1.615   5.722 -1.7346 -0.0283 -2.5648
    6SAPS  C217  737   5.715   1.602   5.562 -0.6487  0.1718  0.1442
    6SAPS  H17R  738   5.790   1.671   5.519 -0.5142  0.1848  0.4012
    6SAPS  H17S  739   5.646   1.564   5.483  0.4409 -3.5243  0.7691
    6SAPS  C218  740   5.777   1.470   5.618  0.2306  0.5946 -0.0125
    6SAPS  H18R  741   5.688   1.407   5.642 -1.5423  2.0253 -2.4104
    6SAPS  H18S  742   5.850   1.499   5.698  1.6658 -0.3394 -0.9523
    6SAPS  C219  743   5.863   1.397   5.506 -0.5176 -0.0018 -0.2081
    6SAPS  H19R  744   5.945   1.466   5.479 -1.7150  0.4706 -3.0505
    6SAPS  H19S  745   5.796   1.379   5.419  0.3303  1.8881 -1.3051
    6SAPS  C220  746   5.910   1.259   5.545 -0.2102 -0.0198 -0.4723
    6SAPS  H20R  747   5.943   1.196   5.460  2.9399 -3.4851  2.9106
    6SAPS  H20S  748   5.826   1.211   5.600 -1.4676  1.1319 -1.3256
    6SAPS  H20T  749   5.999   1.254   5.612  1.2490 -0.7471 -2.3587
    6SAPS   C33  750   6.024   2.128   6.813  0.1712 -0.6006  0.1122
    6SAPS   H3X  751   6.023   2.034   6.873  1.1331 -0.1295  0.8974
    6SAPS   H3Y  752   6.119   2.139   6.757 -0.0726  0.1192 -0.1742
    6SAPS   C34  753   5.903   2.132   6.709 -0.3926 -0.7936  0.1665
    6SAPS   H4X  754   5.810   2.152   6.766  0.3444  0.8473  0.8889
    6SAPS   H4Y  755   5.903   2.030   6.666 -0.8996 -1.7787  2.3521
    6SAPS   C35  756   5.906   2.242   6.604  0.0019  0.5776 -0.3891
    6SAPS   H5X  757   5.981   2.221   6.525 -2.1685  2.3465 -3.1297
    6SAPS   H5Y  758   5.921   2.337   6.660 -1.1982  0.1570  0.7091
    6SAPS   C36  759   5.767   2.253   6.543  0.2777  0.3363  0.3695
    6SAPS   H6X  760   5.762   2.332   6.464  0.6572 -0.1185 -0.1114
    6SAPS   H6Y  761   5.699   2.272   6.629 -0.4104 -2.3616  0.5061
    6SAPS   C37  762   5.714   2.124   6.472  0.5122 -0.2472  0.1444
    6SAPS   H7X  763   5.728   2.047   6.551 -0.6807  0.8964  1.5317
    6SAPS   H7Y  764   5.783   2.098   6.388 -0.8155 -1.6747 -0.5598
    6SAPS   C38  765   5.572   2.135   6.416  0.2927 -0.0038 -0.4419
    6SAPS   H8X  766   5.513   2.206   6.477  2.5827  1.1020  0.6099
    6SAPS   H8Y  767   5.528   2.032   6.412  0.1916 -0.0123  0.5789
    6SAPS   C39  768   5.556   2.203   6.279  0.0020 -0.4742 -0.2816
    6SAPS   H9X  769   5.569   2.120   6.206 -0.7771 -2.6449  1.9288
    6SAPS   H9Y  770   5.626   2.287   6.258  0.4169 -0.8973 -0.5996
    6SAPS  C310  771   5.415   2.254   6.250 -0.5104 -0.5572  0.5142
    6SAPS  H10X  772   5.370   2.308   6.336 -0.8022  0.2188 -0.1092
    6SAPS  H10Y  773   5.356   2.162   6.235 -1.6868  0.2401  0.1409
    6SAPS  C311  774   5.403   2.334   6.117  0.3365  0.6576 -0.7006
    6SAPS  H11X  775   5.433   2.272   6.030  2.1245 -0.8171  0.8831
    6SAPS  H11Y  776   5.462   2.428   6.109 -0.6169  1.3539  0.1874
    6SAPS  C312  777   5.254   2.365   6.093 -0.1037 -0.3392  0.3697
    6SAPS  H12X  778   5.224   2.424   6.182 -0.4405  0.8827 -0.5363
    6SAPS  H12Y  779   5.189   2.275   6.092  0.9753 -1.1411 -1.3785
    6SAPS  C313  780   5.231   2.464   5.977  0.1802  0.3304  0.8505
    6SAPS  H13X  781   5.319   2.531   5.988 -0.0728  1.3081 -2.0977
    6SAPS  H13Y  782   5.137   2.517   6.003 -1.4494 -2.0622  0.1388
    6SAPS  C314  783   5.222   2.398   5.839  0.6530 -0.1455 -0.4486
    6SAPS  H14X  784   5.124   2.345   5.839  0.6311 -0.1118  0.7316
    6SAPS  H14Y  785   5.303   2.324   5.817 -1.2501 -2.0963 -1.3587
    6SAPS  C315  786   5.200   2.495   5.721 -0.6115 -0.0665  0.4357
    6SAPS  H15X  787   5.142   2.582   5.758  2.5398  1.5719  1.9322
    6SAPS  H15Y  788   5.160   2.466   5.622 -2.5907  0.3085  1.0959
    6SAPS  C316  789   5.339   2.556   5.684 -0.2825  0.1061  0.5127
    6SAPS  H16X  790   5.408   2.471   5.668 -1.5937 -1.1362  1.1688
    6SAPS  H16Y  791   5.382   2.606   5.773  0.4518  0.1653  0.1332
    6SAPS  C317  792   5.336   2.658   5.564 -0.4416  0.6960 -0.2843
    6SAPS  H17X  793   5.278   2.747   5.599  1.5804  2.1827 -0.5213
    6SAPS  H17Y  794   5.284   2.607   5.480  0.1440  0.6449 -0.6176
    6SAPS  C318  795   5.473   2.701   5.506 -0.0411 -0.4565 -0.6743
    6SAPS  H18X  796   5.524   2.770   5.577 -3.2949  1.1306  0.3359
    6SAPS  H18Y  797   5.452   2.772   5.424  0.7185  1.8758  1.0391
    6SAPS  H18Z  798   5.540   2.614   5.489 -0.1244 -0.8684  0.9070
    7SAPS     N  799   6.274   0.654   7.797 -0.4561  0.1921 -0.2066
    7SAPS   HN1  800   6.227   0.720   7.861 -0.1591  0.4280 -0.2280
    7SAPS   HN2  801   6.323   0.703   7.719 -0.0254  0.3171  0.1378
    7SAPS   HN3  802   6.197   0.595   7.759  0.2646  0.2728 -1.8906
    7SAPS   C12  803   6.363   0.578   7.887  0.3325  0.5859  0.3967
    7SAPS  H12A  804   6.415   0.656   7.939  1.1585 -0.3965  1.0828
    7SAPS   C13  805   6.291   0.498   8.002  0.2991 -0.3121 -0.8750
    7SAPS  O13A  806   6.163   0.517   8.008  0.1439  0.7628  0.8621
    7SAPS  O13B  807   6.342   0.402   8.063  0.1659 -0.3749 -0.0163
    7SAPS   C11  808   6.457   0.493   7.793  0.2762  0.0686  0.6179
    7SAPS  H11A  809   6.401   0.413   7.741  0.0944 -0.3172  1.3985
    7SAPS  H11B  810   6.523   0.440   7.866  0.2537  0.8066  1.1923
    7SAPS     P  811   6.668   0.534   7.640 -0.0598  0.0889 -0.3224
    7SAPS   O13  812   6.776   0.622   7.695 -0.4443  0.1399  0.2743
    7SAPS   O14  813   6.687   0.389   7.659  0.3910 -0.1435  0.1602
    7SAPS   O12  814   6.526   0.583   7.701  0.3560 -0.1268  0.6129
    7SAPS   O11  815   6.647   0.564   7.480  0.4890 -0.0783 -0.6681
    7SAPS    C1  816   6.616   0.702   7.448 -0.2212  0.5972 -0.1137
    7SAPS    HA  817   6.527   0.728   7.509 -0.2103 -0.0397  0.1831
    7SAPS    HB  818   6.701   0.769   7.475  0.0101  0.0973  0.4005
    7SAPS    C2  819   6.587   0.720   7.292 -0.5146 -1.3483  0.6688
    7SAPS    HS  820   6.517   0.640   7.262 -1.0017 -2.8734  5.2459
    7SAPS   O21  821   6.715   0.718   7.219  0.2432 -0.0678  0.0323
    7SAPS   C21  822   6.705   0.706   7.088  0.5296 -1.0720  0.6937
    7SAPS   O22  823   6.594   0.704   7.035  0.4128 -0.0058 -0.4226
    7SAPS   C22  824   6.847   0.722   7.027  0.0585  0.1708  0.5583
    7SAPS   H2R  825   6.883   0.826   7.041  0.5378  0.5084 -2.4528
    7SAPS   H2S  826   6.923   0.662   7.082 -0.1335 -2.4788 -1.7811
    7SAPS    C3  827   6.529   0.865   7.279 -0.3562 -0.2061  0.1808
    7SAPS    HX  828   6.615   0.931   7.299 -0.2023 -0.6650  1.0893
    7SAPS    HY  829   6.461   0.879   7.366 -1.5081 -3.6261  0.0004
    7SAPS   O31  830   6.449   0.899   7.163 -0.1325  0.2716  0.2875
    7SAPS   C31  831   6.329   0.845   7.157 -0.3042  0.4314  0.7266
    7SAPS   O32  832   6.286   0.767   7.239  1.1086  0.1467 -0.1311
    7SAPS   C32  833   6.244   0.894   7.034 -0.4254  0.5637 -0.2075
    7SAPS   H2X  834   6.196   0.986   7.073  1.5190  0.8577  1.6814
    7SAPS   H2Y  835   6.166   0.818   7.012  0.5250 -0.9615  1.4857
    7SAPS   C23  836   6.866   0.681   6.881 -0.1654  0.3471 -0.2498
    7SAPS   H3R  837   6.824   0.578   6.874 -2.4345  1.1133  0.9776
    7SAPS   H3S  838   6.973   0.680   6.853 -0.0407 -2.3473  0.0458
    7SAPS   C24  839   6.775   0.747   6.770 -0.3295 -0.2095  0.6177
    7SAPS   H4R  840   6.666   0.731   6.787 -0.6969  0.1616 -1.1480
    7SAPS   H4S  841   6.792   0.693   6.675 -0.1379  1.9249 -0.6254
    7SAPS   C25  842   6.831   0.882   6.745  0.6858  0.4709  0.5967
    7SAPS   H5R  843   6.831   0.938   6.840  3.9473 -0.4921  1.3048
    7SAPS   C26  844   6.870   0.946   6.630  0.2046  0.5898  0.1944
    7SAPS   H6R  845   6.911   1.048   6.634 -0.9088  1.0319  1.3469
    7SAPS   C27  846   6.860   0.893   6.488  0.6562 -0.3457 -0.3759
    7SAPS   H7R  847   6.804   0.797   6.490  1.6106 -0.9456 -1.1684
    7SAPS   H7S  848   6.961   0.865   6.450  0.8319 -0.1676 -0.0443
    7SAPS   C28  849   6.783   0.988   6.395  0.6572 -0.2161 -0.2380
    7SAPS   H8R  850   6.759   1.082   6.446 -1.2637 -0.3936 -0.7287
    7SAPS   C29  851   6.757   0.968   6.269  0.3107  0.3814  0.0731
    7SAPS   H9R  852   6.719   1.056   6.215 -0.4363 -0.5443 -0.9643
    7SAPS  C210  853   6.792   0.846   6.185  0.2968 -0.2540  0.3858
    7SAPS  H10R  854   6.701   0.799   6.142  1.0704 -0.1424 -1.4892
    7SAPS  H10S  855   6.841   0.765   6.243  0.8699 -0.6824 -0.6586
    7SAPS  C211  856   6.883   0.891   6.066 -0.0638  0.1987  0.7541
    7SAPS  H11R  857   6.989   0.898   6.092  0.5027  0.2265 -1.4069
    7SAPS  C212  858   6.844   0.916   5.933 -0.5087 -0.7156 -0.4872
    7SAPS  H12R  859   6.927   0.911   5.861 -2.1075 -1.2163 -2.3688
    7SAPS  C213  860   6.707   0.921   5.877  0.0392  0.4754  0.3857
    7SAPS  H13R  861   6.642   0.970   5.952  0.6905 -0.0324  1.3071
    7SAPS  H13S  862   6.663   0.820   5.867 -0.2575  0.6161  0.2767
    7SAPS  C214  863   6.714   0.983   5.741  0.3595  0.2106  0.0108
    7SAPS  H14R  864   6.705   1.092   5.746  0.4781  0.2898 -1.1911
    7SAPS  C215  865   6.703   0.922   5.619  0.0377 -0.2087 -0.4036
    7SAPS  H15R  866   6.699   0.970   5.519 -0.3993 -2.6978 -1.6682
    7SAPS  C216  867   6.716   0.778   5.594  0.5191 -0.0695 -0.6074
    7SAPS  H16R  868   6.621   0.728   5.621 -0.0711  0.9570 -0.7197
    7SAPS  H16S  869   6.799   0.743   5.658  0.0918  0.2057  0.1062
    7SAPS  C217  870   6.737   0.739   5.446  0.7063  0.1179 -0.0006
    7SAPS  H17R  871   6.784   0.639   5.443 -0.7172 -0.5711 -0.3920
    7SAPS  H17S  872   6.809   0.810   5.401 -0.1782  0.3569 -1.0852
    7SAPS  C218  873   6.612   0.743   5.358 -0.0851  0.3794 -0.1223
    7SAPS  H18R  874   6.590   0.849   5.333 -0.5880  0.1654 -0.6243
    7SAPS  H18S  875   6.521   0.700   5.404 -0.5491 -1.3478 -2.4221
    7SAPS  C219  876   6.627   0.678   5.220 -0.6797 -0.4169 -0.0619
    7SAPS  H19R  877   6.626   0.567   5.224 -3.9610 -0.5259 -0.8655
    7SAPS  H19S  878   6.723   0.718   5.178  0.4661  1.1750  3.6762
    7SAPS  C220  879   6.524   0.724   5.119 -0.1545  0.6053  0.1789
    7SAPS  H20R  880   6.510   0.834   5.122 -2.9665  0.3562 -0.7663
    7SAPS  H20S  881   6.422   0.692   5.150  0.1835  0.2216  0.9189
    7SAPS  H20T  882   6.522   0.685   5.015 -0.5189  0.8876  0.0800
    7SAPS   C33  883   6.337   0.941   6.921 -0.5476  0.6150 -0.1725
    7SAPS   H3X  884   6.415   0.866   6.897 -0.8829  0.5787 -1.1948
    7SAPS   H3Y  885   6.393   1.025   6.968  0.6332 -0.9744  1.3912
    7SAPS   C34  886   6.257   0.989   6.799  0.4842  0.2726  0.3607
    7SAPS   H4X  887   6.183   1.066   6.830 -1.0914 -1.2676  0.5820
    7SAPS   H4Y  888   6.195   0.899   6.775 -0.7661  0.4407  2.7199
    7SAPS   C35  889   6.356   1.048   6.692 -0.3358 -0.0989 -0.6543
    7SAPS   H5X  890   6.438   0.972   6.692  1.3732  1.6652  0.3655
    7SAPS   H5Y  891   6.399   1.141   6.733  0.1759  0.3977 -2.2462
    7SAPS   C36  892   6.286   1.077   6.563 -0.1862 -0.6784  0.2226
    7SAPS   H6X  893   6.210   1.156   6.580  0.0877  0.1780 -2.1908
    7SAPS   H6Y  894   6.234   0.992   6.515  1.2232 -1.1676 -0.4999
    7SAPS   C37  895   6.373   1.119   6.439 -0.7577 -0.1548 -0.7368
    7SAPS   H7X  896   6.459   1.051   6.421  0.3352  0.2728  2.2865
    7SAPS   H7Y  897   6.410   1.222   6.459 -1.2034 -0.2976  1.0198
    7SAPS   C38  898   6.291   1.119   6.312  0.2500  0.2344  0.2327
    7SAPS   H8X  899   6.208   1.186   6.343 -0.2854 -0.5907  0.6015
    7SAPS   H8Y  900   6.230   1.028   6.300  1.3412 -0.8196  2.1716
    7SAPS   C39  901   6.360   1.164   6.188  0.2387  0.4336  0.0356
    7SAPS   H9X  902   6.442   1.091   6.167  0.8295  0.4947  1.9365
    7SAPS   H9Y  903   6.412   1.262   6.194  0.3391  0.3718  0.1842
    7SAPS  C310  904   6.269   1.165   6.064 -0.1915  0.0710 -0.2932
    7SAPS  H10X  905   6.196   1.249   6.062 -0.3724 -0.0809 -1.9226
    7SAPS  H10Y  906   6.210   1.071   6.058  0.0005 -0.3270  2.6171
    7SAPS  C311  907   6.357   1.180   5.938  0.1876  0.0992  0.4186
    7SAPS  H11X  908   6.452   1.124   5.945 -0.2613 -0.6692  0.4153
    7SAPS  H11Y  909   6.379   1.289   5.940 -1.0580  0.3953 -0.7368
    7SAPS  C312  910   6.276   1.146   5.811  0.2871 -0.6488  0.1862
    7SAPS  H12X  911   6.193   1.217   5.787 -1.4356 -2.2483  1.1326
    7SAPS  H12Y  912   6.240   1.042   5.822 -0.0636 -0.5128  0.3427
    7SAPS  C313  913   6.375   1.141   5.684  0.0990 -0.6161  0.2530
    7SAPS  H13X  914   6.462   1.076   5.707  1.4494  1.0746  0.1991
    7SAPS  H13Y  915   6.420   1.243   5.681  0.6684 -0.8560  0.4431
    7SAPS  C314  916   6.299   1.114   5.554  0.4576 -0.1196  0.4662
    7SAPS  H14X  917   6.221   1.193   5.556  1.4264  0.8906  2.5391
    7SAPS  H14Y  918   6.261   1.010   5.564  0.1094  0.0678  1.1540
    7SAPS  C315  919   6.375   1.148   5.428 -0.4920 -0.4929  0.3090
    7SAPS  H15X  920   6.474   1.098   5.421 -0.4667 -0.4115  0.0666
    7SAPS  H15Y  921   6.391   1.258   5.425 -1.1474 -0.3442  1.7945
    7SAPS  C316  922   6.288   1.111   5.307  0.1110  0.0054  0.4395
    7SAPS  H16X  923   6.207   1.184   5.286 -0.2166  0.0966  1.8877
    7SAPS  H16Y  924   6.227   1.018   5.313 -0.6429  0.5705  2.6810
    7SAPS  C317  925   6.377   1.099   5.180  0.7322 -0.5132  0.4138
    7SAPS  H17X  926   6.321   1.041   5.103 -0.0880  0.3535  0.3316
    7SAPS  H17Y  927   6.468   1.047   5.217  0.4038 -0.7156  0.9314
    7SAPS  C318  928   6.423   1.240   5.135  0.3385 -0.0771 -0.0425
    7SAPS  H18X  929   6.347   1.283   5.067  2.1930  2.9183 -0.4164
    7SAPS  H18Y  930   6.524   1.236   5.088  0.6307  1.1265  0.4397
    7SAPS  H18Z  931   6.433   1.306   5.224 -1.9723  0.4180 -0.0916
    8SAPS     N  932   5.931   3.243   7.812  0.4418 -0.6588 -0.8299
    8SAPS   HN1  933   5.896   3.333   7.775 -0.0016 -0.7327 -0.5901
    8SAPS   HN2  934   5.851   3.178   7.827  1.1310 -1.2589  0.4368
    8SAPS   HN3  935   5.981   3.245   7.904 -0.7347 -1.9559 -0.1316
    8SAPS   C12  936   6.021   3.174   7.713  0.2164  0.2801  0.6052
    8SAPS  H12A  937   6.118   3.217   7.695 -0.1786  0.1436 -2.1569
    8SAPS   C13  938   6.044   3.025   7.760  0.1707  0.1510 -0.2331
    8SAPS  O13A  939   6.000   2.982   7.875  0.4643  0.2135 -1.2043
    8SAPS  O13B  940   6.122   2.950   7.696 -0.2969 -0.0585 -0.6131
    8SAPS   C11  941   5.958   3.169   7.569 -0.4365  0.2411  0.4086
    8SAPS  H11A  942   6.011   3.084   7.520 -0.2047  0.6416 -0.0388
    8SAPS  H11B  943   5.977   3.260   7.509  0.5294 -0.3932 -0.2799
    8SAPS     P  944   5.736   3.035   7.510 -0.0717 -0.1775  0.4956
    8SAPS   O13  945   5.734   2.925   7.606  0.0636 -0.2825 -0.0759
    8SAPS   O14  946   5.601   3.087   7.465  0.2074 -0.0194 -0.8642
    8SAPS   O12  947   5.815   3.152   7.575 -0.1379  0.2777 -0.0530
    8SAPS   O11  948   5.814   2.993   7.378  0.2435  0.0104  0.6544
    8SAPS    C1  949   5.850   3.075   7.268  0.2476 -0.0490 -0.1865
    8SAPS    HA  950   5.831   3.183   7.279 -0.4280 -0.1112 -0.7178
    8SAPS    HB  951   5.960   3.069   7.251  0.1489  0.4857 -1.0145
    8SAPS    C2  952   5.785   3.031   7.132 -0.7633  0.2735  0.6733
    8SAPS    HS  953   5.813   3.113   7.062  0.6667  2.0380  3.1520
    8SAPS   O21  954   5.642   3.017   7.148 -0.3104  0.4131 -0.1769
    8SAPS   C21  955   5.578   3.128   7.181 -0.7299 -0.2807  0.5820
    8SAPS   O22  956   5.626   3.242   7.166 -0.1052  0.5805 -0.2034
    8SAPS   C22  957   5.426   3.106   7.208 -0.4235  0.1493 -0.1792
    8SAPS   H2R  958   5.405   2.998   7.220 -0.6915 -0.0813 -2.3255
    8SAPS   H2S  959   5.399   3.153   7.305 -0.2548 -0.0791 -0.0208
    8SAPS    C3  960   5.844   2.894   7.080  0.1621  0.2376 -0.2554
    8SAPS    HX  961   5.798   2.868   6.982 -0.1103 -1.9990  0.4050
    8SAPS    HY  962   5.799   2.809   7.136 -0.0078 -0.9866 -2.1589
    8SAPS   O31  963   5.989   2.901   7.081 -0.0531  0.5278  0.4390
    8SAPS   C31  964   6.049   2.782   7.058 -0.7027  0.0458 -0.0611
    8SAPS   O32  965   5.990   2.686   7.012  0.2997 -0.1241  0.3132
    8SAPS   C32  966   6.197   2.781   7.087  0.3850  0.3161 -0.5951
    8SAPS   H2X  967   6.236   2.679   7.070  2.7695  1.2665 -1.4061
    8SAPS   H2Y  968   6.214   2.805   7.194  0.1025 -4.2273  0.6598
    8SAPS   C23  969   5.341   3.167   7.092  0.3311  0.5714  0.3567
    8SAPS   H3R  970   5.387   3.155   6.992 -1.0868 -3.0954 -0.0128
    8SAPS   H3S  971   5.320   3.275   7.107 -0.0688  0.3463  1.5527
    8SAPS   C24  972   5.198   3.101   7.084  0.5446  0.0295 -0.2337
    8SAPS   H4R  973   5.131   3.184   7.056  0.3206  0.7583  2.1913
    8SAPS   H4S  974   5.178   3.066   7.188  2.0290  1.1289  0.4712
    8SAPS   C25  975   5.195   2.982   6.995  0.2134 -0.1272 -0.4410
    8SAPS   H5R  976   5.276   2.908   7.001 -0.7028 -1.0859  0.4528
    8SAPS   C26  977   5.100   2.954   6.904  0.0702 -0.2133  0.1136
    8SAPS   H6R  978   5.101   2.865   6.840  0.2848  0.7225 -1.2278
    8SAPS   C27  979   4.986   3.058   6.876  0.3806  0.5506 -0.2780
    8SAPS   H7R  980   5.024   3.162   6.876  1.3888  0.2112 -1.7422
    8SAPS   H7S  981   4.920   3.058   6.965  0.2745  1.0101 -0.3531
    8SAPS   C28  982   4.916   3.011   6.751 -0.2570 -0.6859  0.6070
    8SAPS   H8R  983   4.824   2.952   6.761 -1.4437  1.1052  0.7178
    8SAPS   C29  984   4.944   3.040   6.624  0.3041  0.1145  0.7192
    8SAPS   H9R  985   4.885   2.984   6.550  1.2246  1.2268 -0.9199
    8SAPS  C210  986   5.053   3.127   6.572  0.4492  0.4607 -0.1919
    8SAPS  H10R  987   5.085   3.073   6.481 -0.6288 -2.8230  1.2472
    8SAPS  H10S  988   5.139   3.126   6.642  0.5930 -0.2267 -0.3812
    8SAPS  C211  989   5.032   3.271   6.529 -0.5069 -0.3260 -0.8548
    8SAPS  H11R  990   5.107   3.336   6.577 -0.0863 -1.3892 -0.0129
    8SAPS  C212  991   4.961   3.305   6.425  0.7727 -0.0835  0.3432
    8SAPS  H12R  992   4.958   3.411   6.395 -1.4387  0.2212  1.3995
    8SAPS  C213  993   4.860   3.222   6.352 -0.1012  0.8111  0.2155
    8SAPS  H13R  994   4.767   3.282   6.339 -0.2624  0.7606  1.1286
    8SAPS  H13S  995   4.825   3.134   6.410 -3.1220  2.1108  0.5471
    8SAPS  C214  996   4.902   3.171   6.216 -0.3094 -0.9616 -0.5440
    8SAPS  H14R  997   5.003   3.130   6.223 -0.9304 -2.2471  2.1931
    8SAPS  C215  998   4.834   3.165   6.097 -0.7222 -0.2792  0.2142
    8SAPS  H15R  999   4.878   3.117   6.008 -2.2054  0.0904 -0.7538
    8SAPS  C216 1000   4.696   3.219   6.070  0.4857  0.7942  0.3215
    8SAPS  H16R 1001   4.694   3.232   5.960  1.4065  1.5665  0.3878
    8SAPS  H16S 1002   4.668   3.315   6.118 -0.9734  0.6048 -0.0993
    8SAPS  C217 1003   4.585   3.116   6.106 -0.1233  0.1966  0.3884
    8SAPS  H17R 1004   4.599   3.106   6.216  2.3468 -0.2777  0.0873
    8SAPS  H17S 1005   4.609   3.017   6.063 -2.1117  0.6980 -2.1433
    8SAPS  C218 1006   4.450   3.164   6.064  0.1875 -0.1230  0.1707
    8SAPS  H18R 1007   4.457   3.209   5.962 -0.5341 -0.9735 -0.2728
    8SAPS  H18S 1008   4.420   3.240   6.139  2.0719  0.7418  0.0938
    8SAPS  C219 1009   4.343   3.048   6.058 -0.6217 -0.3327 -0.1239
    8SAPS  H19R 1010   4.335   2.992   6.154  0.1237 -1.1089 -0.5088
    8SAPS  H19S 1011   4.376   2.976   5.981 -1.5825 -2.7674  1.6310
    8SAPS  C220 1012   4.194   3.090   6.023 -0.3172 -0.0526  0.4641
    8SAPS  H20R 1013   4.166   3.170   6.094 -1.1195 -1.8651  2.2775
    8SAPS  H20S 1014   4.124   3.005   6.040 -0.8849  0.1550 -0.7103
    8SAPS  H20T 1015   4.190   3.138   5.923  1.2589  1.0432  0.8945
    8SAPS   C33 1016   6.283   2.890   7.015 -0.5446 -0.2645  0.0495
    8SAPS   H3X 1017   6.365   2.915   7.085  0.2161 -1.3752 -0.4048
    8SAPS   H3Y 1018   6.216   2.978   7.003 -0.5722 -0.3997 -0.8905
    8SAPS   C34 1019   6.325   2.838   6.881  0.1328  0.3758 -0.1431
    8SAPS   H4X 1020   6.235   2.813   6.821  1.7244  0.9740 -2.9868
    8SAPS   H4Y 1021   6.375   2.739   6.889 -3.2912 -1.3786  1.8811
    8SAPS   C35 1022   6.399   2.943   6.794  0.0948  0.6099  0.1572
    8SAPS   H5X 1023   6.485   2.972   6.858 -0.4767 -2.1955  2.4515
    8SAPS   H5Y 1024   6.331   3.030   6.791  0.5061  0.9922  1.4595
    8SAPS   C36 1025   6.462   2.891   6.665  0.5951 -0.4558  0.2368
    8SAPS   H6X 1026   6.503   2.788   6.673 -0.4567 -1.0349 -1.1625
    8SAPS   H6Y 1027   6.540   2.963   6.635  0.4488 -0.3876  0.0185
    8SAPS   C37 1028   6.372   2.883   6.539 -0.0074  0.1282 -0.7572
    8SAPS   H7X 1029   6.275   2.847   6.577  1.3533 -0.9390  2.0294
    8SAPS   H7Y 1030   6.432   2.813   6.477 -0.5578 -2.2203  1.2174
    8SAPS   C38 1031   6.359   3.025   6.484 -0.3195  0.1996  0.2958
    8SAPS   H8X 1032   6.451   3.086   6.496 -1.2440  1.4999  1.0352
    8SAPS   H8Y 1033   6.281   3.078   6.543 -0.2828 -0.3363  0.8276
    8SAPS   C39 1034   6.300   3.024   6.344  0.2937 -0.2534  0.3076
    8SAPS   H9X 1035   6.281   2.916   6.329  0.7998 -0.1925 -0.8758
    8SAPS   H9Y 1036   6.379   3.045   6.268  1.9138  0.8155  2.1992
    8SAPS  C310 1037   6.177   3.118   6.318 -0.3035 -0.1586  0.0185
    8SAPS  H10X 1038   6.205   3.225   6.330 -3.9271  0.8597  0.3325
    8SAPS  H10Y 1039   6.098   3.096   6.392 -0.2826  1.9955  0.7489
    8SAPS  C311 1040   6.123   3.117   6.174  0.1171  0.2616  0.3780
    8SAPS  H11X 1041   6.213   3.127   6.110  1.1478 -3.0036  1.1594
    8SAPS  H11Y 1042   6.048   3.195   6.149 -2.2888 -2.0078  0.0389
    8SAPS  C312 1043   6.054   2.982   6.138 -0.7146 -0.0472 -1.1487
    8SAPS  H12X 1044   5.957   2.974   6.192 -0.3379 -1.3688 -0.6366
    8SAPS  H12Y 1045   6.117   2.895   6.168 -0.2099  0.8179  0.4558
    8SAPS  C313 1046   6.034   2.972   5.986 -0.3862 -0.3180  0.1114
    8SAPS  H13X 1047   6.136   2.984   5.944 -1.1726 -0.7167 -2.0931
    8SAPS  H13Y 1048   5.977   3.063   5.960  0.0852  0.1047  0.5365
    8SAPS  C314 1049   5.955   2.849   5.950 -0.2631 -0.1832  0.9073
    8SAPS  H14X 1050   5.852   2.847   5.991 -0.9189  1.0827 -0.6031
    8SAPS  H14Y 1051   6.012   2.764   5.993 -1.2355 -0.2640  2.0920
    8SAPS  C315 1052   5.943   2.825   5.804 -0.0487 -0.0754 -0.1468
    8SAPS  H15X 1053   5.946   2.715   5.791  0.2117  0.0936 -1.7455
    8SAPS  H15Y 1054   6.029   2.877   5.755 -1.0954  0.8581 -1.0559
    8SAPS  C316 1055   5.812   2.879   5.740 -0.4494  0.3473 -0.3983
    8SAPS  H16X 1056   5.735   2.810   5.781  1.1593  0.1220  2.5389
    8SAPS  H16Y 1057   5.813   2.855   5.631 -1.5926  0.5032 -0.4531
    8SAPS  C317 1058   5.785   3.031   5.764 -0.2701  0.3253  0.3756
    8SAPS  H17X 1059   5.866   3.090   5.716  0.1764  0.7827  1.6678
    8SAPS  H17Y 1060   5.764   3.050   5.871  0.3805  0.5742  0.4690
    8SAPS  C318 1061   5.665   3.085   5.695  0.7923 -0.9823 -0.2504
    8SAPS  H18X 1062   5.572   3.033   5.727 -0.5186  1.2037 -0.3282
    8SAPS  H18Y 1063   5.671   3.068   5.586 -2.2862 -1.2145 -0.4637
    8SAPS  H18Z 1064   5.661   3.194   5.714  2.0329 -0.8164 -0.8544
    9SAPS     N 1065   4.330   2.693   7.785  0.1511 -0.0890  0.1201
    9SAPS   HN1 1066   4.297   2.731   7.876 -1.5681 -0.3874 -0.3547
    9SAPS   HN2 1067   4.351   2.591   7.789  0.7943  0.0325 -0.0511
    9SAPS   HN3 1068   4.414   2.743   7.750 -1.0100  0.9978 -1.2289
    9SAPS   C12 1069   4.224   2.724   7.685  0.6148 -0.1836 -0.3157
    9SAPS  H12A 1070   4.130   2.688   7.725  0.1769 -0.2412 -1.3642
    9SAPS   C13 1071   4.212   2.868   7.644  0.7952  0.1491  0.1901
    9SAPS  O13A 1072   4.304   2.955   7.671 -1.0267  0.8582 -0.4617
    9SAPS  O13B 1073   4.115   2.906   7.566 -0.8872 -0.2808 -0.1977
    9SAPS   C11 1074   4.231   2.638   7.555 -0.5532  0.2433  0.2265
    9SAPS  H11A 1075   4.328   2.658   7.506 -0.4344  1.4466  0.9095
    9SAPS  H11B 1076   4.145   2.664   7.490  1.0146  0.0584 -2.0274
    9SAPS     P 1077   4.251   2.398   7.452 -0.5607 -0.2018  0.1545
    9SAPS   O13 1078   4.397   2.366   7.455 -0.4697  0.3229 -0.3839
    9SAPS   O14 1079   4.159   2.284   7.463 -0.0967  0.2875 -0.8829
    9SAPS   O12 1080   4.219   2.497   7.575 -0.2929  0.2401 -0.2742
    9SAPS   O11 1081   4.221   2.482   7.321  0.5683 -0.4733  0.3327
    9SAPS    C1 1082   4.275   2.453   7.194  0.2543  0.0229  0.3093
    9SAPS    HA 1083   4.330   2.357   7.186  0.7469  0.4231 -1.8330
    9SAPS    HB 1084   4.195   2.452   7.117 -2.0779  1.8146  2.5283
    9SAPS    C2 1085   4.377   2.568   7.153  0.2625  0.3677 -0.1455
    9SAPS    HS 1086   4.426   2.542   7.057  1.3713 -1.3184  0.8074
    9SAPS   O21 1087   4.481   2.587   7.253 -0.0934  0.0959  0.8968
    9SAPS   C21 1088   4.573   2.496   7.253 -0.0711  0.2549  0.0862
    9SAPS   O22 1089   4.570   2.390   7.192  0.3877 -0.0924  0.7019
    9SAPS   C22 1090   4.688   2.539   7.335  0.1713  0.5852 -0.1578
    9SAPS   H2R 1091   4.662   2.494   7.433 -0.3745  1.0702 -0.0742
    9SAPS   H2S 1092   4.782   2.500   7.291 -0.4240 -0.8547 -0.2092
    9SAPS    C3 1093   4.299   2.702   7.139 -0.2784 -0.1717  0.1225
    9SAPS    HX 1094   4.286   2.754   7.236  1.6028 -1.4172  1.1099
    9SAPS    HY 1095   4.191   2.684   7.118 -1.3100  3.9461  1.0874
    9SAPS   O31 1096   4.359   2.785   7.036  0.2074 -0.4223 -0.3026
    9SAPS   C31 1097   4.347   2.924   7.061  0.0513  0.5807  0.0213
    9SAPS   O32 1098   4.279   2.962   7.155 -0.0532 -0.1271 -0.1010
    9SAPS   C32 1099   4.452   3.004   6.985 -0.2865  0.5477  0.0239
    9SAPS   H2X 1100   4.438   2.992   6.875 -0.0918  0.3097  0.0234
    9SAPS   H2Y 1101   4.551   2.959   7.005  0.2611  1.0293 -1.4569
    9SAPS   C23 1102   4.684   2.701   7.349  0.4463  0.6288 -0.0139
    9SAPS   H3R 1103   4.772   2.719   7.414  0.3545 -0.0859  0.3162
    9SAPS   H3S 1104   4.596   2.732   7.409 -0.1982  0.4056 -0.8272
    9SAPS   C24 1105   4.696   2.770   7.209  1.1156  0.7277 -1.0587
    9SAPS   H4R 1106   4.662   2.874   7.228 -1.0899 -0.4344  2.1661
    9SAPS   H4S 1107   4.619   2.729   7.141 -0.1967 -0.0223  0.7923
    9SAPS   C25 1108   4.830   2.766   7.144  0.4069  0.0101 -0.1755
    9SAPS   H5R 1109   4.903   2.817   7.208  1.1187 -1.6014  0.3631
    9SAPS   C26 1110   4.865   2.698   7.034 -0.3180  0.4711  0.3010
    9SAPS   H6R 1111   4.961   2.716   6.982 -1.7291  2.8677 -1.7338
    9SAPS   C27 1112   4.773   2.602   6.961 -0.0706  0.7993  0.3081
    9SAPS   H7R 1113   4.743   2.649   6.865 -2.0341 -2.7320 -0.9798
    9SAPS   H7S 1114   4.680   2.578   7.017  0.1801  0.8917  0.7760
    9SAPS   C28 1115   4.851   2.478   6.933  0.1106 -0.0830  0.8034
    9SAPS   H8R 1116   4.878   2.416   7.021 -1.1933  1.5346  2.4237
    9SAPS   C29 1117   4.898   2.437   6.814  0.6170  0.2768  0.4306
    9SAPS   H9R 1118   4.959   2.345   6.811  0.2841 -0.0635  2.5286
    9SAPS  C210 1119   4.862   2.497   6.684 -0.4450 -0.1189 -0.2092
    9SAPS  H10R 1120   4.751   2.496   6.677 -0.4082  1.1849 -1.7545
    9SAPS  H10S 1121   4.881   2.429   6.599 -3.7899 -1.2480 -0.2166
    9SAPS  C211 1122   4.915   2.631   6.663  0.2135 -0.1948 -0.2943
    9SAPS  H11R 1123   4.900   2.704   6.744  1.1693 -0.8553  0.5073
    9SAPS  C212 1124   4.991   2.670   6.562  0.2218 -0.3055  0.1112
    9SAPS  H12R 1125   5.034   2.771   6.574 -1.2679  0.2998  0.5582
    9SAPS  C213 1126   5.038   2.602   6.437  0.5449  0.1845  0.0312
    9SAPS  H13R 1127   5.108   2.518   6.458  2.5378  1.6644 -0.3923
    9SAPS  H13S 1128   5.104   2.668   6.376 -1.4618  1.2078 -1.1093
    9SAPS  C214 1129   4.933   2.553   6.341  0.2770 -0.2015 -0.2784
    9SAPS  H14R 1130   4.890   2.454   6.361 -0.5039  0.4591  1.5226
    9SAPS  C215 1131   4.881   2.611   6.227  0.0283  0.5114  0.0240
    9SAPS  H15R 1132   4.811   2.554   6.165  0.8045 -0.3490 -0.0841
    9SAPS  C216 1133   4.894   2.756   6.179 -0.4420 -0.0779 -0.0377
    9SAPS  H16R 1134   4.939   2.811   6.264  1.9152 -1.6829 -0.1410
    9SAPS  H16S 1135   4.792   2.797   6.163 -0.5656 -0.5448 -0.4838
    9SAPS  C217 1136   4.977   2.776   6.054 -0.1289  0.2295  0.0992
    9SAPS  H17R 1137   5.077   2.735   6.077  0.4106  1.4241 -0.0354
    9SAPS  H17S 1138   4.986   2.886   6.040  1.7847  0.2590  1.1842
    9SAPS  C218 1139   4.913   2.716   5.932  0.4914  0.3286 -0.1853
    9SAPS  H18R 1140   4.912   2.608   5.958  3.9644  0.4205  0.8261
    9SAPS  H18S 1141   4.975   2.742   5.843  1.5524 -0.1820  0.3770
    9SAPS  C219 1142   4.765   2.756   5.904  1.0355  0.6385  0.0543
    9SAPS  H19R 1143   4.764   2.867   5.904 -0.0936  0.6657 -1.7911
    9SAPS  H19S 1144   4.696   2.735   5.988  0.4268  1.2713 -0.2768
    9SAPS  C220 1145   4.709   2.700   5.770 -0.2989 -0.0556  0.2191
    9SAPS  H20R 1146   4.771   2.730   5.683  0.5719  1.6991  1.3758
    9SAPS  H20S 1147   4.615   2.750   5.739  1.6267  2.9862 -1.3526
    9SAPS  H20T 1148   4.711   2.590   5.785 -1.3191  0.1252  1.9125
    9SAPS   C33 1149   4.458   3.150   7.026  0.1876  0.1267  0.3597
    9SAPS   H3X 1150   4.456   3.147   7.138 -0.0674 -3.9146  0.3803
    9SAPS   H3Y 1151   4.375   3.212   6.985  0.2480  0.7291  1.1202
    9SAPS   C34 1152   4.585   3.215   6.977  0.4558  1.3175  0.2205
    9SAPS   H4X 1153   4.597   3.192   6.869  0.1618 -1.8031  0.7688
    9SAPS   H4Y 1154   4.671   3.167   7.028 -1.4226 -1.0497  1.3921
    9SAPS   C35 1155   4.599   3.366   7.013  0.3092  0.2527  1.1370
    9SAPS   H5X 1156   4.691   3.415   6.974 -0.5377 -0.7282 -2.5073
    9SAPS   H5Y 1157   4.597   3.375   7.123 -0.9228  0.8581  1.0823
    9SAPS   C36 1158   4.478   3.452   6.967  0.5321 -0.2996  0.2962
    9SAPS   H6X 1159   4.494   3.551   7.014  0.7146 -0.6778  1.0480
    9SAPS   H6Y 1160   4.398   3.405   7.029 -0.3127 -0.4673 -0.8813
    9SAPS   C37 1161   4.433   3.451   6.816  0.3318 -0.4529  0.2764
    9SAPS   H7X 1162   4.336   3.502   6.798  1.0266  0.7389 -0.2277
    9SAPS   H7Y 1163   4.404   3.346   6.791  2.5671 -0.8361 -1.0495
    9SAPS   C38 1164   4.541   3.499   6.719 -0.1351  0.2370  0.8187
    9SAPS   H8X 1165   4.627   3.430   6.710  0.0907  0.6809 -0.7335
    9SAPS   H8Y 1166   4.568   3.596   6.765 -0.1141 -0.4909  2.3769
    9SAPS   C39 1167   4.491   3.528   6.574 -0.3079  0.0372  0.3745
    9SAPS   H9X 1168   4.415   3.609   6.582 -0.1861  0.1058  0.9035
    9SAPS   H9Y 1169   4.443   3.434   6.541 -0.4893  0.2993 -0.1136
    9SAPS  C310 1170   4.607   3.569   6.480 -0.9269 -0.8525 -0.0321
    9SAPS  H10X 1171   4.567   3.553   6.377  0.5857 -0.9584 -0.6333
    9SAPS  H10Y 1172   4.696   3.503   6.489 -1.5683 -2.0471 -1.8192
    9SAPS  C311 1173   4.638   3.728   6.501 -0.5354 -0.7337 -0.2418
    9SAPS  H11X 1174   4.654   3.756   6.607 -3.6120 -0.8087  0.3289
    9SAPS  H11Y 1175   4.546   3.782   6.470  0.5419  0.2296 -1.9310
    9SAPS  C312 1176   4.759   3.763   6.412  0.0706  0.3030 -0.0286
    9SAPS  H12X 1177   4.716   3.742   6.312 -0.4324 -2.6512  0.7260
    9SAPS  H12Y 1178   4.850   3.700   6.423  0.9388  1.5657  0.3984
    9SAPS  C313 1179   4.791   3.912   6.440  0.6405 -0.6950 -0.4055
    9SAPS  H13X 1180   4.837   3.920   6.541 -1.0893  2.0962  0.2518
    9SAPS  H13Y 1181   4.693   3.964   6.436  0.8580 -0.1242  1.0222
    9SAPS  C314 1182   4.885   3.976   6.344  0.6934  0.1269  0.0281
    9SAPS  H14X 1183   4.989   3.947   6.372  0.3515  0.7526  2.1267
    9SAPS  H14Y 1184   4.875   4.086   6.354 -1.0020 -0.0473  0.4206
    9SAPS  C315 1185   4.845   3.934   6.202 -0.2318  0.3968 -0.1629
    9SAPS  H15X 1186   4.735   3.951   6.198 -0.2993 -0.2195 -1.6243
    9SAPS  H15Y 1187   4.862   3.825   6.193  1.8678  0.7916 -1.5154
    9SAPS  C316 1188   4.903   4.025   6.084 -0.0032  0.6095 -0.1182
    9SAPS  H16X 1189   5.009   4.000   6.061  0.2352 -0.5314  2.0185
    9SAPS  H16Y 1190   4.911   4.129   6.124  1.1460  1.5095 -2.4931
    9SAPS  C317 1191   4.811   4.008   5.964  0.4575  0.2157  0.5167
    9SAPS  H17X 1192   4.710   4.018   6.011  0.1805 -1.9924  0.4844
    9SAPS  H17Y 1193   4.827   3.903   5.932  0.6083  0.0882  1.0091
    9SAPS  C318 1194   4.839   4.110   5.853 -0.2577 -0.0665 -0.4114
    9SAPS  H18X 1195   4.842   4.211   5.899  0.2195 -1.0553  1.8742
    9SAPS  H18Y 1196   4.760   4.114   5.774  0.0276 -1.1508 -0.7686
    9SAPS  H18Z 1197   4.939   4.084   5.813 -0.9040 -1.6966 -1.0842
   10SAPS     N 1198   6.040   0.277   7.953  0.1771 -0.5182 -0.0249
   10SAPS   HN1 1199   6.033   0.245   8.052  1.9175 -0.0288  0.2880
   10SAPS   HN2 1200   6.066   0.377   7.967 -3.4328  0.2924  2.0606
   10SAPS   HN3 1201   5.943   0.274   7.914 -0.4463  0.1815  1.4021
   10SAPS   C12 1202   6.128   0.194   7.863 -0.2945 -0.5725 -0.4432
   10SAPS  H12A 1203   6.230   0.219   7.887  0.2184 -2.0296 -0.9884
   10SAPS   C13 1204   6.125   0.045   7.874 -0.5858 -0.0748  0.2095
   10SAPS  O13A 1205   6.069  -0.017   7.976 -0.0522 -0.2168  0.3899
   10SAPS  O13B 1206   6.185  -0.025   7.782  0.0476  0.2956  0.2546
   10SAPS   C11 1207   6.106   0.236   7.714  0.5662  0.4801 -0.4880
   10SAPS  H11A 1208   6.004   0.195   7.699  0.0353  2.1965 -1.8674
   10SAPS  H11B 1209   6.167   0.175   7.645 -1.2459 -2.2496  0.1201
   10SAPS     P 1210   6.058   0.453   7.572  0.0168  0.1143 -0.2653
   10SAPS   O13 1211   5.910   0.462   7.585  0.1303  0.4141  0.2739
   10SAPS   O14 1212   6.139   0.574   7.550 -0.1583 -0.1302  0.6855
   10SAPS   O12 1213   6.117   0.378   7.699  0.4352  0.1938  0.0199
   10SAPS   O11 1214   6.096   0.363   7.447 -0.1947 -0.3437  0.3785
   10SAPS    C1 1215   6.232   0.355   7.406 -0.3393  0.0446  0.5068
   10SAPS    HA 1216   6.305   0.394   7.480  0.2475  2.3078 -1.1698
   10SAPS    HB 1217   6.260   0.248   7.389 -0.9045  0.1311 -1.1757
   10SAPS    C2 1218   6.254   0.424   7.266  0.0610 -0.5762  0.8126
   10SAPS    HS 1219   6.263   0.532   7.293  1.4197 -0.2591 -0.7597
   10SAPS   O21 1220   6.141   0.407   7.177  0.0376 -0.5399  0.1961
   10SAPS   C21 1221   6.050   0.507   7.180  0.1870  0.9097  0.0465
   10SAPS   O22 1222   6.048   0.599   7.258 -0.2290  0.3216  0.1194
   10SAPS   C22 1223   5.956   0.491   7.055 -0.4812 -0.0879  0.5707
   10SAPS   H2R 1224   6.027   0.452   6.979 -0.0818  2.1756 -0.3082
   10SAPS   H2S 1225   5.864   0.431   7.072 -0.5330  0.8305  4.1332
   10SAPS    C3 1226   6.389   0.395   7.203  0.3772  0.7479  0.1958
   10SAPS    HX 1227   6.411   0.288   7.187  1.6716  0.9448  0.5093
   10SAPS    HY 1228   6.460   0.431   7.281 -0.5666 -0.2036  1.5375
   10SAPS   O31 1229   6.412   0.473   7.090 -0.3515  0.2388 -0.1164
   10SAPS   C31 1230   6.360   0.425   6.974 -0.2796 -0.8608 -0.0975
   10SAPS   O32 1231   6.312   0.320   6.946  0.0599  0.2846  0.0114
   10SAPS   C32 1232   6.373   0.544   6.880 -0.0060  0.0633  0.2836
   10SAPS   H2X 1233   6.482   0.550   6.860 -0.0851 -1.5021 -0.7211
   10SAPS   H2Y 1234   6.344   0.637   6.934 -0.4891 -1.2876  2.4637
   10SAPS   C23 1235   5.908   0.630   7.009  0.2841  0.7593  0.1853
   10SAPS   H3R 1236   5.998   0.683   6.972  0.4233  0.6946  0.4260
   10SAPS   H3S 1237   5.857   0.679   7.095  0.4368  4.3554 -1.5978
   10SAPS   C24 1238   5.799   0.622   6.900 -0.0616 -0.1844  0.3893
   10SAPS   H4R 1239   5.704   0.572   6.930 -1.9208  1.9486 -1.5008
   10SAPS   H4S 1240   5.842   0.569   6.812  0.2394  3.0774 -1.6006
   10SAPS   C25 1241   5.760   0.760   6.861  0.6498 -0.1280 -0.1883
   10SAPS   H5R 1242   5.682   0.802   6.927 -1.7375 -0.6008 -2.5512
   10SAPS   C26 1243   5.781   0.817   6.739 -0.1460 -0.0466  0.2570
   10SAPS   H6R 1244   5.757   0.925   6.733 -0.3399  0.0007  1.5457
   10SAPS   C27 1245   5.872   0.770   6.629 -0.3125 -0.2530  0.7097
   10SAPS   H7R 1246   5.909   0.668   6.652  0.5764 -0.0631  0.1512
   10SAPS   H7S 1247   5.965   0.829   6.617  0.4033 -1.0597  2.0868
   10SAPS   C28 1248   5.811   0.757   6.492 -0.5171  0.0616  0.2260
   10SAPS   H8R 1249   5.701   0.754   6.497 -0.5689 -0.9764 -0.8790
   10SAPS   C29 1250   5.878   0.724   6.374  0.2127 -0.6311  0.1092
   10SAPS   H9R 1251   5.820   0.693   6.285  0.0191  0.3475 -0.1209
   10SAPS  C210 1252   6.029   0.715   6.354 -0.3061  0.3232 -0.3596
   10SAPS  H10R 1253   6.087   0.763   6.436  0.2707 -2.2498  0.8470
   10SAPS  H10S 1254   6.050   0.764   6.257 -1.6317 -0.8630 -1.2881
   10SAPS  C211 1255   6.061   0.569   6.343 -0.2302 -0.2343 -0.4102
   10SAPS  H11R 1256   6.086   0.519   6.437 -1.4084 -0.5331 -0.2375
   10SAPS  C212 1257   6.063   0.496   6.231  0.1223  0.5855  0.0721
   10SAPS  H12R 1258   6.091   0.390   6.231 -2.6884 -0.3528 -3.0311
   10SAPS  C213 1259   6.037   0.547   6.090 -0.1202 -0.3717 -0.2002
   10SAPS  H13R 1260   6.101   0.482   6.027  0.6512 -0.7132  0.9187
   10SAPS  H13S 1261   6.089   0.645   6.087 -2.1345  0.7364 -0.9897
   10SAPS  C214 1262   5.895   0.561   6.038  0.4308  0.2585 -0.1405
   10SAPS  H14R 1263   5.829   0.625   6.099 -1.9212  1.7264 -3.9055
   10SAPS  C215 1264   5.840   0.492   5.942  0.0064 -0.5877 -0.0401
   10SAPS  H15R 1265   5.734   0.511   5.917  0.7548  2.0243 -1.6514
   10SAPS  C216 1266   5.900   0.387   5.851 -0.1544 -0.0077 -0.1863
   10SAPS  H16R 1267   5.848   0.290   5.861  0.7463 -0.6244 -1.2935
   10SAPS  H16S 1268   6.006   0.360   5.874 -0.3284 -3.0719 -2.3919
   10SAPS  C217 1269   5.880   0.432   5.703 -0.1450  0.2943 -0.2605
   10SAPS  H17R 1270   5.936   0.527   5.690  1.9606 -1.0384 -1.5675
   10SAPS  H17S 1271   5.773   0.443   5.676 -0.2360  2.1815  0.7310
   10SAPS  C218 1272   5.920   0.326   5.599  0.0932  0.1414  0.1388
   10SAPS  H18R 1273   5.869   0.229   5.615  0.2143  0.2956  1.5668
   10SAPS  H18S 1274   6.030   0.310   5.603 -0.2022 -2.0788  1.4121
   10SAPS  C219 1275   5.893   0.366   5.450  0.2295  0.0154  0.1294
   10SAPS  H19R 1276   5.926   0.471   5.434  1.3680 -0.0602  1.7133
   10SAPS  H19S 1277   5.783   0.355   5.438  0.4163 -2.2698 -0.0483
   10SAPS  C220 1278   5.954   0.264   5.346 -0.3349 -0.1667  0.0315
   10SAPS  H20R 1279   5.922   0.293   5.244  0.0743 -2.1107 -0.6891
   10SAPS  H20S 1280   5.917   0.160   5.352  2.6915 -1.4731 -1.4322
   10SAPS  H20T 1281   6.065   0.261   5.351 -0.3682 -1.9108  0.1130
   10SAPS   C33 1282   6.299   0.530   6.749  0.1016  0.4134  0.1852
   10SAPS   H3X 1283   6.191   0.548   6.768 -0.0236  0.7065 -0.7786
   10SAPS   H3Y 1284   6.316   0.429   6.707 -2.9658 -0.1674  0.0870
   10SAPS   C34 1285   6.351   0.644   6.649  0.0410 -0.0423  0.4992
   10SAPS   H4X 1286   6.377   0.727   6.717  2.2984  0.2444 -0.6068
   10SAPS   H4Y 1287   6.272   0.684   6.582 -0.0966  1.3910  1.4678
   10SAPS   C35 1288   6.472   0.596   6.570  0.7144  1.0681 -0.3562
   10SAPS   H5X 1289   6.442   0.522   6.493 -0.0206  0.1447  0.7837
   10SAPS   H5Y 1290   6.548   0.553   6.639  1.6518  2.9452 -0.1457
   10SAPS   C36 1291   6.542   0.701   6.490  0.2077 -0.0944 -0.0374
   10SAPS   H6X 1292   6.637   0.658   6.453  0.7944  0.4208  0.8323
   10SAPS   H6Y 1293   6.577   0.781   6.559 -0.0186  0.5088 -0.6119
   10SAPS   C37 1294   6.461   0.776   6.384  0.0217  0.1132 -0.3907
   10SAPS   H7X 1295   6.526   0.853   6.338 -0.0756 -0.6890 -1.9251
   10SAPS   H7Y 1296   6.374   0.826   6.432  0.3015  0.7426 -0.5461
   10SAPS   C38 1297   6.418   0.692   6.260 -0.2534 -0.5621  0.5342
   10SAPS   H8X 1298   6.334   0.624   6.284 -0.9360 -0.0652 -0.3806
   10SAPS   H8Y 1299   6.509   0.631   6.240  1.1377  0.9852  1.7769
   10SAPS   C39 1300   6.380   0.778   6.140  0.4394 -0.4338 -0.4130
   10SAPS   H9X 1301   6.444   0.868   6.124  0.3574 -0.5416 -1.4083
   10SAPS   H9Y 1302   6.281   0.824   6.160  0.6029  0.5576 -1.7298
   10SAPS  C310 1303   6.374   0.691   6.012  0.1809  0.0716  0.5984
   10SAPS  H10X 1304   6.307   0.603   6.025 -0.1817  0.5131  1.8981
   10SAPS  H10Y 1305   6.482   0.670   5.998  0.3795  1.4423 -0.0773
   10SAPS  C311 1306   6.315   0.764   5.889  0.2535 -0.7549  0.3758
   10SAPS  H11X 1307   6.379   0.850   5.860 -1.9745  0.4882 -1.1368
   10SAPS  H11Y 1308   6.213   0.805   5.905 -1.3209 -2.3400 -3.9900
   10SAPS  C312 1309   6.305   0.668   5.770  0.2388  0.0278  0.8573
   10SAPS  H12X 1310   6.237   0.587   5.804 -0.9571 -0.5676 -2.5766
   10SAPS  H12Y 1311   6.404   0.619   5.757 -0.2109 -0.4942 -0.7484
   10SAPS  C313 1312   6.253   0.724   5.642 -0.0790  0.2569  0.4301
   10SAPS  H13X 1313   6.305   0.815   5.605  0.9941 -0.2977  0.5136
   10SAPS  H13Y 1314   6.151   0.757   5.669  0.2431  1.5165  0.1553
   10SAPS  C314 1315   6.233   0.618   5.533 -0.4279  0.3030 -0.2559
   10SAPS  H14X 1316   6.179   0.538   5.586 -1.3218  0.3946 -1.0126
   10SAPS  H14Y 1317   6.337   0.586   5.511  0.0044  0.9886  0.6613
   10SAPS  C315 1318   6.167   0.670   5.409 -0.3290  0.2392 -0.2762
   10SAPS  H15X 1319   6.220   0.764   5.381 -0.5640 -0.1089 -1.9674
   10SAPS  H15Y 1320   6.064   0.698   5.440  0.5460  0.9506  2.2704
   10SAPS  C316 1321   6.178   0.573   5.290 -0.7047 -0.5214 -0.6078
   10SAPS  H16X 1322   6.122   0.477   5.303  0.3483 -1.1787 -0.7820
   10SAPS  H16Y 1323   6.279   0.531   5.270 -0.4860  0.2370 -1.1411
   10SAPS  C317 1324   6.127   0.646   5.169  0.0278  0.0146  0.0618
   10SAPS  H17X 1325   6.194   0.733   5.153 -0.8011  0.9980  1.5734
   10SAPS  H17Y 1326   6.026   0.690   5.187  0.2942  0.5093  0.3648
   10SAPS  C318 1327   6.131   0.553   5.044 -0.0544 -0.5431  0.6433
   10SAPS  H18X 1328   6.148   0.611   4.951  0.1813  0.0143  1.0330
   10SAPS  H18Y 1329   6.043   0.485   5.038 -1.3847  1.1346  0.6934
   10SAPS  H18Z 1330   6.216   0.482   5.057  1.7990  1.0029 -2.0545
   11SAPS     N 1331   4.433   6.553   2.553 -0.1332  0.9134  0.2073
   11SAPS   HN1 1332   4.415   6.454   2.528 -0.4378  0.8079  0.8299
   11SAPS   HN2 1333   4.420   6.607   2.465  1.2002  0.8981 -0.0095
   11SAPS   HN3 1334   4.530   6.570   2.586 -0.0367  1.5246 -0.3711
   11SAPS   C12 1335   4.329   6.584   2.659  1.0408  0.1869  0.1674
   11SAPS  H12A 1336   4.334   6.691   2.673  0.6552 -0.0003  1.8815
   11SAPS   C13 1337   4.180   6.551   2.635 -0.2915 -0.1737 -0.1322
   11SAPS  O13A 1338   4.154   6.489   2.527 -0.6814  0.2249  0.7009
   11SAPS  O13B 1339   4.094   6.561   2.728  0.2906  0.3685 -0.5057
   11SAPS   C11 1340   4.382   6.528   2.796 -0.5198  0.3732  0.4957
   11SAPS  H11A 1341   4.378   6.417   2.794 -1.7084  0.1735  4.8080
   11SAPS  H11B 1342   4.306   6.550   2.874  0.1060 -1.4729  1.6988
   11SAPS     P 1343   4.584   6.488   2.933 -0.4612  0.3462 -0.0262
   11SAPS   O13 1344   4.643   6.375   2.859  0.3630  1.0776 -0.6591
   11SAPS   O14 1345   4.672   6.569   3.020  0.1772 -0.0689 -0.0856
   11SAPS   O12 1346   4.503   6.576   2.832  0.0565  0.0289 -0.0146
   11SAPS   O11 1347   4.472   6.423   3.030  0.2546 -0.7647  0.0085
   11SAPS    C1 1348   4.485   6.457   3.171 -0.5913  0.3864  0.6093
   11SAPS    HA 1349   4.470   6.565   3.191 -2.3095  0.4603 -0.7708
   11SAPS    HB 1350   4.389   6.416   3.209 -0.8851  1.0407  0.5775
   11SAPS    C2 1351   4.596   6.377   3.250  0.4128  0.0898  0.1718
   11SAPS    HS 1352   4.697   6.408   3.214  0.9561 -2.4976 -0.6900
   11SAPS   O21 1353   4.580   6.240   3.214  0.2411  0.1353 -0.6578
   11SAPS   C21 1354   4.668   6.155   3.271  0.0655  0.0183 -0.0016
   11SAPS   O22 1355   4.768   6.187   3.334  0.0880 -0.3984  0.2793
   11SAPS   C22 1356   4.629   6.010   3.233  0.7471  0.3281  0.2372
   11SAPS   H2R 1357   4.530   6.003   3.183  0.6720 -0.7655  0.5202
   11SAPS   H2S 1358   4.703   5.967   3.162 -2.0116 -1.5893 -1.6797
   11SAPS    C3 1359   4.572   6.400   3.406  0.3938  0.4358 -0.1175
   11SAPS    HX 1360   4.629   6.328   3.468 -0.4403  1.0357  1.3947
   11SAPS    HY 1361   4.464   6.374   3.420  0.1260  0.0481 -2.4263
   11SAPS   O31 1362   4.594   6.539   3.451  0.3993  0.5046  0.3949
   11SAPS   C31 1363   4.720   6.565   3.485  0.2544 -0.3455  1.3508
   11SAPS   O32 1364   4.814   6.499   3.461 -0.6656 -0.2538 -0.5637
   11SAPS   C32 1365   4.720   6.696   3.558  0.6986  0.0267  0.9514
   11SAPS   H2X 1366   4.651   6.675   3.643 -0.5007 -0.8223 -0.1960
   11SAPS   H2Y 1367   4.675   6.773   3.491 -0.3100 -0.8145  0.6227
   11SAPS   C23 1368   4.612   5.922   3.354  0.2287 -0.0255 -1.0130
   11SAPS   H3R 1369   4.701   5.931   3.421  1.5783  0.5322 -2.7975
   11SAPS   H3S 1370   4.595   5.814   3.335  0.5143 -0.5767  1.4436
   11SAPS   C24 1371   4.482   5.958   3.432 -0.3573 -0.0520  0.1264
   11SAPS   H4R 1372   4.393   5.931   3.370  1.4481  2.1515 -3.7493
   11SAPS   H4S 1373   4.462   6.067   3.437 -0.0117  0.1957 -2.4888
   11SAPS   C25 1374   4.465   5.912   3.574  0.0001 -0.3498 -0.6308
   11SAPS   H5R 1375   4.398   5.827   3.595 -2.1477  1.2238 -0.7730
   11SAPS   C26 1376   4.512   5.979   3.679  0.6375  0.3071  0.5102
   11SAPS   H6R 1377   4.491   5.930   3.776 -0.9867  0.6594  0.3724
   11SAPS   C27 1378   4.596   6.105   3.677 -0.4111 -0.8476 -0.8215
   11SAPS   H7R 1379   4.606   6.131   3.570  2.1520  1.4321 -0.1399
   11SAPS   H7S 1380   4.699   6.093   3.716 -0.4893  0.3079 -0.1944
   11SAPS   C28 1381   4.536   6.227   3.750  0.1191 -0.0733 -1.4297
   11SAPS   H8R 1382   4.493   6.303   3.683  0.9580  1.2909 -0.4613
   11SAPS   C29 1383   4.546   6.263   3.884 -0.5670  0.0614  0.1216
   11SAPS   H9R 1384   4.490   6.351   3.919 -0.2428  0.3239 -0.0100
   11SAPS  C210 1385   4.607   6.171   3.979 -0.9275 -0.2090  0.1831
   11SAPS  H10R 1386   4.699   6.120   3.943 -0.2979  1.3762 -0.5861
   11SAPS  H10S 1387   4.531   6.094   4.002 -1.2324  0.2027  0.5894
   11SAPS  C211 1388   4.662   6.244   4.099 -0.2184  0.0338  0.0840
   11SAPS  H11R 1389   4.748   6.310   4.079  0.2257 -0.5441  0.0511
   11SAPS  C212 1390   4.611   6.235   4.222 -0.0089  0.5175  0.2894
   11SAPS  H12R 1391   4.660   6.298   4.297  0.1709 -1.2312  1.7093
   11SAPS  C213 1392   4.503   6.147   4.269 -0.8117  0.4211  0.1735
   11SAPS  H13R 1393   4.443   6.103   4.186  0.6826  0.9038 -1.2199
   11SAPS  H13S 1394   4.429   6.204   4.329  1.2351  1.8943  1.4068
   11SAPS  C214 1395   4.576   6.046   4.364  0.3472  0.1042 -0.2995
   11SAPS  H14R 1396   4.627   5.960   4.319  0.8163  0.6402 -0.8136
   11SAPS  C215 1397   4.587   6.066   4.500 -0.7281 -0.8233 -0.4534
   11SAPS  H15R 1398   4.634   5.986   4.559 -0.1285  0.3366  0.6938
   11SAPS  C216 1399   4.543   6.183   4.581  0.2048 -0.6624  0.0267
   11SAPS  H16R 1400   4.435   6.175   4.607  0.2613 -1.0733  0.1514
   11SAPS  H16S 1401   4.562   6.274   4.520  4.1883 -1.8294 -0.7735
   11SAPS  C217 1402   4.616   6.211   4.708 -0.1394 -0.3094 -0.7922
   11SAPS  H17R 1403   4.571   6.308   4.736 -0.5384 -0.2960 -1.4574
   11SAPS  H17S 1404   4.724   6.233   4.687 -0.0950 -0.8901 -1.1901
   11SAPS  C218 1405   4.601   6.116   4.831 -0.4408 -0.3525 -0.0819
   11SAPS  H18R 1406   4.639   6.013   4.819 -0.7740 -0.2458 -2.3740
   11SAPS  H18S 1407   4.492   6.117   4.848 -0.6640  0.2448 -1.4202
   11SAPS  C219 1408   4.671   6.167   4.959 -0.7053  0.1959 -0.7505
   11SAPS  H19R 1409   4.776   6.182   4.926 -0.6476  1.4717 -0.0678
   11SAPS  H19S 1410   4.666   6.098   5.045 -2.1335  0.4321 -0.6116
   11SAPS  C220 1411   4.609   6.296   5.021 -0.3411 -0.3622  0.0698
   11SAPS  H20R 1412   4.499   6.294   5.009 -0.2542 -0.0290 -0.8214
   11SAPS  H20S 1413   4.641   6.379   4.955 -0.5939 -1.2992 -1.2606
   11SAPS  H20T 1414   4.637   6.313   5.128 -0.2287  1.5539 -0.2280
   11SAPS   C33 1415   4.864   6.747   3.576  0.0231 -0.5158  0.6698
   11SAPS   H3X 1416   4.861   6.850   3.616  1.2786  0.0432 -0.5652
   11SAPS   H3Y 1417   4.920   6.760   3.480 -1.7099 -1.3080 -0.5089
   11SAPS   C34 1418   4.946   6.677   3.680 -0.0145  0.2600  0.1165
   11SAPS   H4X 1419   5.045   6.729   3.685  1.0407 -1.3609 -2.1128
   11SAPS   H4Y 1420   4.963   6.570   3.654 -1.5136  0.6177 -2.6972
   11SAPS   C35 1421   4.875   6.679   3.816 -0.2753  0.3406 -0.0518
   11SAPS   H5X 1422   4.788   6.610   3.816 -0.6627  0.8266 -0.1060
   11SAPS   H5Y 1423   4.828   6.779   3.818  0.5589  0.7677 -1.0613
   11SAPS   C36 1424   4.963   6.638   3.924  0.0647 -0.0224 -0.9341
   11SAPS   H6X 1425   5.058   6.693   3.933 -0.1461  0.0496  1.4280
   11SAPS   H6Y 1426   4.985   6.533   3.897 -2.9182 -0.6677 -1.3003
   11SAPS   C37 1427   4.895   6.649   4.062  0.6205 -0.2872  0.3289
   11SAPS   H7X 1428   4.793   6.606   4.068 -0.0936  1.4568  1.4279
   11SAPS   H7Y 1429   4.879   6.756   4.085  0.6354  0.0432 -1.1211
   11SAPS   C38 1430   4.983   6.602   4.176  0.0107 -0.4169 -0.5160
   11SAPS   H8X 1431   5.078   6.656   4.156 -0.2514  0.3761  0.3236
   11SAPS   H8Y 1432   5.000   6.493   4.170 -0.2536 -0.3553 -3.2983
   11SAPS   C39 1433   4.913   6.640   4.307 -0.5545 -0.3809  0.2116
   11SAPS   H9X 1434   4.807   6.605   4.308  0.1867 -3.0853  3.6305
   11SAPS   H9Y 1435   4.901   6.750   4.314 -1.0412 -0.3194 -1.1870
   11SAPS  C310 1436   4.982   6.594   4.438 -0.5033  0.2057  0.0037
   11SAPS  H10X 1437   4.952   6.652   4.528  1.1053  1.1943 -0.0539
   11SAPS  H10Y 1438   5.092   6.598   4.424 -0.7006  1.1262 -1.3766
   11SAPS  C311 1439   4.941   6.451   4.477  0.7853 -0.2489 -0.2947
   11SAPS  H11X 1440   4.959   6.382   4.391  0.4698  0.5428 -1.0078
   11SAPS  H11Y 1441   4.831   6.438   4.489  0.5022  1.8981 -0.2852
   11SAPS  C312 1442   5.015   6.390   4.600  0.3170  0.5079 -0.0911
   11SAPS  H12X 1443   5.118   6.432   4.592 -0.2979  2.0385 -0.3275
   11SAPS  H12Y 1444   5.018   6.279   4.593  0.1323  0.3728  1.6085
   11SAPS  C313 1445   4.981   6.439   4.742  0.5818 -0.2574 -0.5007
   11SAPS  H13X 1446   4.876   6.423   4.775  1.1123 -0.1331  1.3725
   11SAPS  H13Y 1447   5.000   6.548   4.745 -0.3537 -0.0923 -0.2266
   11SAPS  C314 1448   5.064   6.382   4.861  0.3028 -0.3132  0.4818
   11SAPS  H14X 1449   5.172   6.368   4.837 -0.0951 -1.2661 -0.8815
   11SAPS  H14Y 1450   5.026   6.278   4.868 -0.7795 -0.0695 -1.2505
   11SAPS  C315 1451   5.054   6.448   5.002  0.6749 -0.2122 -0.2759
   11SAPS  H15X 1452   5.045   6.559   5.005 -1.4440 -0.3338 -0.8127
   11SAPS  H15Y 1453   5.142   6.423   5.065  0.0349 -0.7089  0.4387
   11SAPS  C316 1454   4.938   6.391   5.093 -0.5919  0.6603 -0.5659
   11SAPS  H16X 1455   4.950   6.281   5.098 -0.2674  0.6870  3.9999
   11SAPS  H16Y 1456   4.833   6.409   5.060 -0.7236  0.0522 -0.4886
   11SAPS  C317 1457   4.955   6.449   5.243  0.0895  0.7938 -0.0452
   11SAPS  H17X 1458   5.056   6.419   5.278 -0.1647  1.2493  1.1204
   11SAPS  H17Y 1459   4.872   6.403   5.301 -0.1151 -0.4368 -1.2368
   11SAPS  C318 1460   4.937   6.596   5.253 -0.1853 -0.7545 -0.3221
   11SAPS  H18X 1461   4.935   6.623   5.360 -0.8037  1.8347 -0.9344
   11SAPS  H18Y 1462   4.842   6.637   5.214  1.5952  3.2780 -0.8322
   11SAPS  H18Z 1463   5.027   6.644   5.211  0.9538 -0.8820  1.8195
   12SAPS     N 1464   6.291   0.817   2.713 -0.6542 -0.2870  0.0712
   12SAPS   HN1 1465   6.362   0.741   2.721  0.1266  0.4525  0.2749
   12SAPS   HN2 1466   6.259   0.814   2.614  1.9483  0.1984 -0.8574
   12SAPS   HN3 1467   6.338   0.910   2.712 -2.8518  0.9109  0.5622
   12SAPS   C12 1468   6.185   0.807   2.814 -0.0747  0.0039 -0.1145
   12SAPS  H12A 1469   6.228   0.780   2.909  0.5156 -1.6819 -0.8118
   12SAPS   C13 1470   6.105   0.934   2.816  0.7193 -1.2822  0.3288
   12SAPS  O13A 1471   6.136   1.045   2.756 -0.3688  0.9249  0.8879
   12SAPS  O13B 1472   6.023   0.950   2.909  0.5943 -0.0668  0.1238
   12SAPS   C11 1473   6.095   0.679   2.794  0.1318  0.4269  0.4341
   12SAPS  H11A 1474   6.056   0.669   2.690 -1.1056  0.2942  0.8935
   12SAPS  H11B 1475   6.003   0.687   2.856 -0.2727 -0.8246  0.0252
   12SAPS     P 1476   6.106   0.418   2.854 -0.3691 -0.0243  0.1713
   12SAPS   O13 1477   5.968   0.444   2.903  0.0030 -0.4676  0.5722
   12SAPS   O14 1478   6.110   0.330   2.737  0.5031 -0.2460  0.6462
   12SAPS   O12 1479   6.173   0.562   2.821  0.4337  0.0337 -0.7740
   12SAPS   O11 1480   6.200   0.353   2.965  0.2094 -0.4893 -0.2190
   12SAPS    C1 1481   6.292   0.434   3.042 -0.3205  0.6076 -0.2666
   12SAPS    HA 1482   6.392   0.387   3.057 -1.0897 -0.6398  1.2854
   12SAPS    HB 1483   6.321   0.531   2.998 -0.0200  0.2216 -0.9316
   12SAPS    C2 1484   6.231   0.451   3.186  0.2812  0.5895 -0.1347
   12SAPS    HS 1485   6.310   0.505   3.242 -1.3261  1.7430  1.1243
   12SAPS   O21 1486   6.186   0.323   3.242  0.1530 -0.3187  0.0312
   12SAPS   C21 1487   6.276   0.242   3.285 -0.4783 -0.2531  0.2156
   12SAPS   O22 1488   6.395   0.262   3.275  0.1093  0.3672 -0.8162
   12SAPS   C22 1489   6.218   0.119   3.359 -0.3821  0.0246 -1.0538
   12SAPS   H2R 1490   6.138   0.160   3.425 -0.1992 -1.3937  0.0948
   12SAPS   H2S 1491   6.174   0.071   3.269 -0.4708 -0.5166 -0.7300
   12SAPS    C3 1492   6.110   0.546   3.189 -0.1535 -0.3823  0.1007
   12SAPS    HX 1493   6.025   0.483   3.156 -0.3795 -0.2684  0.4578
   12SAPS    HY 1494   6.127   0.630   3.119  0.6554 -0.5642  0.0655
   12SAPS   O31 1495   6.102   0.606   3.325 -0.1307 -0.0256  0.1038
   12SAPS   C31 1496   5.999   0.563   3.393 -0.5716  0.3899 -0.1057
   12SAPS   O32 1497   5.897   0.510   3.346 -0.4606  0.2683  0.2486
   12SAPS   C32 1498   6.014   0.595   3.545 -0.0124  0.0682  0.2805
   12SAPS   H2X 1499   5.918   0.645   3.568  1.9542  3.7672  1.3684
   12SAPS   H2Y 1500   6.085   0.680   3.557 -0.0036 -0.0583  1.2215
   12SAPS   C23 1501   6.327   0.036   3.429  0.2135  0.6709 -0.1763
   12SAPS   H3R 1502   6.421   0.025   3.371 -1.1045 -0.9202 -2.1708
   12SAPS   H3S 1503   6.292  -0.070   3.429  0.3662  0.6165  0.8054
   12SAPS   C24 1504   6.364   0.076   3.574 -0.3937  0.2962 -0.3548
   12SAPS   H4R 1505   6.378   0.186   3.576 -2.0073  0.5854 -1.8353
   12SAPS   H4S 1506   6.456   0.024   3.606 -0.0854  1.2384  0.3156
   12SAPS   C25 1507   6.255   0.028   3.666  0.5817 -0.5114 -0.0620
   12SAPS   H5R 1508   6.164   0.089   3.658 -0.0111 -1.4499 -0.5565
   12SAPS   C26 1509   6.264  -0.063   3.766 -0.3288 -0.0816 -0.0198
   12SAPS   H6R 1510   6.171  -0.086   3.819 -0.4852  0.5982  0.0105
   12SAPS   C27 1511   6.380  -0.142   3.806  0.5250 -0.1075  0.4463
   12SAPS   H7R 1512   6.429  -0.080   3.885  0.6620  0.3542  0.0087
   12SAPS   H7S 1513   6.457  -0.140   3.726  1.5073  1.8083  1.3635
   12SAPS   C28 1514   6.372  -0.283   3.852  0.5325 -0.4179  0.0632
   12SAPS   H8R 1515   6.338  -0.356   3.778 -0.6468 -1.4625  1.5586
   12SAPS   C29 1516   6.377  -0.327   3.980  0.8505  0.2395 -0.1030
   12SAPS   H9R 1517   6.362  -0.435   3.990 -1.3870  0.3521 -1.4589
   12SAPS  C210 1518   6.422  -0.241   4.088 -0.9632 -0.3503 -0.8879
   12SAPS  H10R 1519   6.373  -0.142   4.090 -1.0678 -0.3876 -1.3378
   12SAPS  H10S 1520   6.530  -0.217   4.079 -0.5602 -1.4291  0.6168
   12SAPS  C211 1521   6.404  -0.320   4.221  0.7781  0.0393  0.9151
   12SAPS  H11R 1522   6.298  -0.341   4.246  0.8315 -0.0174  1.0940
   12SAPS  C212 1523   6.489  -0.380   4.299 -0.6081  0.2226  0.0823
   12SAPS  H12R 1524   6.456  -0.431   4.391  1.0492 -1.8729 -0.4189
   12SAPS  C213 1525   6.637  -0.373   4.288 -0.1421 -0.4897  0.1559
   12SAPS  H13R 1526   6.671  -0.304   4.209 -2.1942 -0.7999 -1.0925
   12SAPS  H13S 1527   6.657  -0.467   4.232 -2.3948  0.1004 -1.8051
   12SAPS  C214 1528   6.722  -0.380   4.418  0.6191  0.0311 -0.4567
   12SAPS  H14R 1529   6.781  -0.287   4.424 -1.4704  1.5360 -1.6228
   12SAPS  C215 1530   6.721  -0.464   4.525 -0.1152  0.3290  0.2308
   12SAPS  H15R 1531   6.785  -0.441   4.612 -0.7877  0.2350  0.7595
   12SAPS  C216 1532   6.626  -0.581   4.541 -0.6079  0.0738  0.3753
   12SAPS  H16R 1533   6.597  -0.622   4.442  1.7438 -4.0320  1.1396
   12SAPS  H16S 1534   6.529  -0.562   4.591 -1.5452  1.4691 -1.8454
   12SAPS  C217 1535   6.690  -0.704   4.617  0.0147  0.6390  0.5829
   12SAPS  H17R 1536   6.607  -0.778   4.616 -2.0446  2.8224  0.0792
   12SAPS  H17S 1537   6.718  -0.685   4.723  1.6322  0.9902  0.1137
   12SAPS  C218 1538   6.805  -0.761   4.533 -0.1596 -0.7552 -0.0243
   12SAPS  H18R 1539   6.888  -0.688   4.534 -1.1099  0.3605 -0.0307
   12SAPS  H18S 1540   6.773  -0.776   4.428 -2.1282  1.7519  0.1186
   12SAPS  C219 1541   6.852  -0.901   4.589 -0.3181  0.0426 -0.0065
   12SAPS  H19R 1542   6.764  -0.957   4.628  0.3800 -0.0980  1.4417
   12SAPS  H19S 1543   6.916  -0.891   4.679  2.4989 -3.1583 -1.4099
   12SAPS  C220 1544   6.936  -0.974   4.479  0.3385  0.0750  0.6158
   12SAPS  H20R 1545   7.042  -0.942   4.473  0.5165 -0.7026 -0.9148
   12SAPS  H20S 1546   6.895  -0.979   4.376  2.5911  0.0326 -0.3389
   12SAPS  H20T 1547   6.938  -1.083   4.500  0.3707 -0.3636 -1.4884
   12SAPS   C33 1548   6.061   0.466   3.617  0.5253  0.2172  0.3382
   12SAPS   H3X 1549   6.163   0.441   3.579  0.4698  2.2119 -1.2964
   12SAPS   H3Y 1550   5.993   0.381   3.591 -0.3118  0.8501  0.4395
   12SAPS   C34 1551   6.066   0.485   3.772 -0.1195  0.0062 -0.2627
   12SAPS   H4X 1552   5.974   0.530   3.815  0.2347  0.9765 -0.4963
   12SAPS   H4Y 1553   6.152   0.552   3.796  1.8288 -1.8746 -1.5796
   12SAPS   C35 1554   6.083   0.347   3.829 -0.5320 -0.0469 -0.2236
   12SAPS   H5X 1555   6.172   0.295   3.787 -0.5040 -1.2575  1.2274
   12SAPS   H5Y 1556   5.992   0.283   3.816  0.0222 -0.3411 -3.5627
   12SAPS   C36 1557   6.103   0.354   3.987 -0.3656  0.1242 -0.0988
   12SAPS   H6X 1558   6.003   0.375   4.031  0.0285  2.4655 -0.1671
   12SAPS   H6Y 1559   6.169   0.439   4.017 -2.6807  2.1108 -0.3498
   12SAPS   C37 1560   6.164   0.223   4.037 -0.4583 -0.2834 -0.3702
   12SAPS   H7X 1561   6.263   0.202   3.990 -0.6794  1.0542 -1.4834
   12SAPS   H7Y 1562   6.091   0.140   4.026 -1.5553  0.2071  2.3735
   12SAPS   C38 1563   6.188   0.228   4.189 -0.4232 -0.5371  0.1459
   12SAPS   H8X 1564   6.093   0.270   4.227 -0.5699 -0.2660 -0.5055
   12SAPS   H8Y 1565   6.274   0.295   4.209 -1.4531  0.7780  0.2437
   12SAPS   C39 1566   6.231   0.095   4.239  0.1260 -0.9625  0.2328
   12SAPS   H9X 1567   6.338   0.080   4.211  0.4448 -0.7754  1.3014
   12SAPS   H9Y 1568   6.169   0.013   4.197  1.5000 -1.5289 -0.7885
   12SAPS  C310 1569   6.242   0.089   4.392 -0.4872 -0.6203  0.4529
   12SAPS  H10X 1570   6.147   0.072   4.448 -0.4745  0.3818  0.8098
   12SAPS  H10Y 1571   6.278   0.186   4.434 -2.2464  0.1930  0.1757
   12SAPS  C311 1572   6.352  -0.015   4.440  0.6439  0.0841  0.1644
   12SAPS  H11X 1573   6.449  -0.003   4.388 -0.5032  0.8739 -1.9050
   12SAPS  H11Y 1574   6.314  -0.111   4.399 -0.9432  0.9164 -0.4173
   12SAPS  C312 1575   6.368  -0.022   4.587  0.8696 -0.3926 -0.3724
   12SAPS  H12X 1576   6.265  -0.036   4.627 -0.0812  0.1084 -2.5118
   12SAPS  H12Y 1577   6.404   0.075   4.628  1.4765 -1.9133  3.0988
   12SAPS  C313 1578   6.449  -0.142   4.644 -0.3893 -0.1558 -0.2894
   12SAPS  H13X 1579   6.559  -0.130   4.641 -0.2369 -0.9731  1.3628
   12SAPS  H13Y 1580   6.424  -0.230   4.581 -1.6042  0.3439 -0.5544
   12SAPS  C314 1581   6.405  -0.171   4.785 -0.4179  0.5751  0.7240
   12SAPS  H14X 1582   6.295  -0.182   4.798 -0.4814  1.3917  0.9457
   12SAPS  H14Y 1583   6.420  -0.079   4.846  1.0516  0.2972  0.8097
   12SAPS  C315 1584   6.478  -0.293   4.843  0.3660 -0.5183  0.3044
   12SAPS  H15X 1585   6.583  -0.257   4.848  0.1829  0.0797 -0.1298
   12SAPS  H15Y 1586   6.468  -0.380   4.775  0.5709  0.4980 -1.0622
   12SAPS  C316 1587   6.429  -0.335   4.983 -0.0493  0.0543 -0.3082
   12SAPS  H16X 1588   6.490  -0.426   4.997 -0.6447 -0.2984  0.0842
   12SAPS  H16Y 1589   6.327  -0.379   4.992 -0.3042  0.5141 -0.8799
   12SAPS  C317 1590   6.459  -0.231   5.092  0.0208  0.1137 -0.1275
   12SAPS  H17X 1591   6.395  -0.247   5.181 -2.7500  2.1349 -1.5653
   12SAPS  H17Y 1592   6.427  -0.128   5.063  0.4890 -0.1603 -1.7332
   12SAPS  C318 1593   6.599  -0.222   5.136 -0.0251 -0.3255  0.6032
   12SAPS  H18X 1594   6.632  -0.320   5.177  0.7477 -0.6233 -0.6790
   12SAPS  H18Y 1595   6.603  -0.149   5.220 -1.4330  1.2003 -0.5849
   12SAPS  H18Z 1596   6.663  -0.194   5.050  0.4475 -1.0388  0.7131
   13SAPS     N 1597   2.487   5.624   2.787 -0.8788 -0.3014 -0.0958
   13SAPS   HN1 1598   2.423   5.647   2.865  0.0834  1.7507  0.1546
   13SAPS   HN2 1599   2.445   5.605   2.694  2.3573 -0.2539 -1.7235
   13SAPS   HN3 1600   2.553   5.548   2.813 -0.4994  0.4570  1.2236
   13SAPS   C12 1601   2.580   5.741   2.778  0.1881 -0.1130  0.4332
   13SAPS  H12A 1602   2.666   5.707   2.722 -1.2413 -0.9938 -1.3326
   13SAPS   C13 1603   2.526   5.862   2.699 -0.0565 -0.2403 -0.9811
   13SAPS  O13A 1604   2.407   5.855   2.648  0.0723 -0.0514 -0.1240
   13SAPS  O13B 1605   2.597   5.961   2.684  0.0095 -0.0083  0.1884
   13SAPS   C11 1606   2.635   5.794   2.909  0.4335  0.3401  0.3140
   13SAPS  H11A 1607   2.562   5.837   2.981 -0.7582 -0.1073 -0.6010
   13SAPS  H11B 1608   2.708   5.874   2.883  0.8567 -0.5401 -1.3027
   13SAPS     P 1609   2.813   5.711   3.084 -0.1359 -0.1195 -0.0773
   13SAPS   O13 1610   2.939   5.644   3.044 -0.2506  0.5698 -0.0672
   13SAPS   O14 1611   2.811   5.856   3.106 -0.3442  0.3214 -1.0162
   13SAPS   O12 1612   2.706   5.686   2.973  0.3018  0.2643 -0.5674
   13SAPS   O11 1613   2.736   5.652   3.215  0.4378 -0.1099  0.3878
   13SAPS    C1 1614   2.708   5.510   3.208 -0.2304  0.7510  0.2158
   13SAPS    HA 1615   2.606   5.493   3.248 -0.8109 -0.9654 -1.7950
   13SAPS    HB 1616   2.716   5.463   3.108 -1.0040  0.6334  0.2032
   13SAPS    C2 1617   2.802   5.425   3.299 -0.0095 -0.6676  0.8685
   13SAPS    HS 1618   2.767   5.319   3.304  0.2049 -0.7653  0.3944
   13SAPS   O21 1619   2.804   5.490   3.428  0.5547 -0.2728  0.5866
   13SAPS   C21 1620   2.720   5.443   3.521  0.1602 -0.1798 -0.3224
   13SAPS   O22 1621   2.653   5.344   3.513 -0.2661  0.4561  0.0608
   13SAPS   C22 1622   2.714   5.535   3.643 -0.0061  0.2695 -0.0229
   13SAPS   H2R 1623   2.816   5.550   3.683  0.1741 -1.2555  0.1499
   13SAPS   H2S 1624   2.660   5.630   3.621 -2.3564 -1.0646 -0.4053
   13SAPS    C3 1625   2.959   5.420   3.265  0.6421 -0.2074 -0.3924
   13SAPS    HX 1626   2.993   5.525   3.273  0.6864 -0.1950 -0.7220
   13SAPS    HY 1627   2.961   5.396   3.156 -0.0367  1.7003 -0.8653
   13SAPS   O31 1628   3.029   5.328   3.349 -0.1791 -0.0247  0.3951
   13SAPS   C31 1629   3.037   5.198   3.313 -0.4664 -0.1756  0.6443
   13SAPS   O32 1630   2.979   5.152   3.216  0.4668 -0.0140 -0.0690
   13SAPS   C32 1631   3.128   5.132   3.413  0.1259  0.7312 -0.4350
   13SAPS   H2X 1632   3.149   5.202   3.497 -0.2697  1.0460 -0.5967
   13SAPS   H2Y 1633   3.224   5.122   3.359  0.5106  0.0977  0.3372
   13SAPS   C23 1634   2.637   5.463   3.761 -0.2392  0.1637  0.0605
   13SAPS   H3R 1635   2.702   5.384   3.806 -0.6863  0.0634  0.5415
   13SAPS   H3S 1636   2.535   5.431   3.731 -0.8561  2.2535 -0.1672
   13SAPS   C24 1637   2.615   5.557   3.883 -0.3581 -0.7423 -0.0697
   13SAPS   H4R 1638   2.546   5.641   3.861 -0.6228 -0.0039  3.0947
   13SAPS   H4S 1639   2.708   5.612   3.905 -0.8827 -0.4746  1.6300
   13SAPS   C25 1640   2.574   5.483   4.012  0.5213  0.1321  0.2662
   13SAPS   H5R 1641   2.560   5.374   4.006 -0.6398  0.2200  1.0157
   13SAPS   C26 1642   2.588   5.529   4.134  0.2015 -0.5503 -0.9729
   13SAPS   H6R 1643   2.577   5.452   4.212  1.0034  0.9077  0.6541
   13SAPS   C27 1644   2.636   5.666   4.171 -0.4672 -0.2300  0.4376
   13SAPS   H7R 1645   2.559   5.696   4.246  0.4315  2.6862  0.3135
   13SAPS   H7S 1646   2.632   5.736   4.085 -0.5710  1.0071  1.4292
   13SAPS   C28 1647   2.780   5.677   4.220  0.6748 -0.0113 -0.2427
   13SAPS   H8R 1648   2.851   5.677   4.136  0.8089 -1.3851 -0.1536
   13SAPS   C29 1649   2.824   5.670   4.348  0.5489  0.4913  0.5662
   13SAPS   H9R 1650   2.930   5.693   4.371  0.9899 -1.6553  0.9096
   13SAPS  C210 1651   2.745   5.638   4.467  0.0771 -0.6284  0.2217
   13SAPS  H10R 1652   2.671   5.560   4.436  0.5288  0.0619 -2.9050
   13SAPS  H10S 1653   2.682   5.728   4.483 -0.6221 -0.5960 -2.2669
   13SAPS  C211 1654   2.823   5.595   4.592  0.5879 -0.3410 -0.1961
   13SAPS  H11R 1655   2.902   5.521   4.569 -0.8786 -1.0893 -3.4055
   13SAPS  C212 1656   2.805   5.653   4.716  0.6399  0.0751  0.4519
   13SAPS  H12R 1657   2.855   5.613   4.805 -3.1313 -0.0630  2.6966
   13SAPS  C213 1658   2.709   5.767   4.754 -0.3097  0.7162 -0.1521
   13SAPS  H13R 1659   2.614   5.748   4.700  0.5864  0.3653 -1.6533
   13SAPS  H13S 1660   2.746   5.862   4.708 -1.2935  1.3618  0.3510
   13SAPS  C214 1661   2.683   5.797   4.898 -0.2025  0.2130 -0.1586
   13SAPS  H14R 1662   2.771   5.782   4.963 -0.1141 -1.3247 -0.5952
   13SAPS  C215 1663   2.572   5.833   4.963 -0.5151  1.1237 -0.0784
   13SAPS  H15R 1664   2.583   5.856   5.070  1.4785 -1.5583  0.3900
   13SAPS  C216 1665   2.437   5.851   4.898  0.1524  1.0652 -0.9007
   13SAPS  H16R 1666   2.439   5.796   4.802  2.6997 -0.2537 -0.1826
   13SAPS  H16S 1667   2.409   5.957   4.880 -2.8773  0.4590 -0.2959
   13SAPS  C217 1668   2.332   5.787   4.991  0.0741  0.1390 -0.0334
   13SAPS  H17R 1669   2.307   5.854   5.076  1.5029 -2.3397  2.5040
   13SAPS  H17S 1670   2.372   5.697   5.042  0.7609  1.0488  1.0869
   13SAPS  C218 1671   2.205   5.759   4.920 -0.0731 -0.1475  0.1556
   13SAPS  H18R 1672   2.213   5.668   4.858  0.7540 -0.5877  0.8836
   13SAPS  H18S 1673   2.183   5.852   4.864 -1.3100  1.5764  3.2116
   13SAPS  C219 1674   2.080   5.728   5.008 -0.0926 -0.4424 -1.0193
   13SAPS  H19R 1675   1.991   5.716   4.942 -0.7665 -0.8683 -0.0514
   13SAPS  H19S 1676   2.052   5.814   5.071  0.6984 -2.0387  1.6565
   13SAPS  C220 1677   2.086   5.608   5.101 -0.8963 -0.1129  0.0290
   13SAPS  H20R 1678   2.134   5.624   5.200  0.6082  0.2147 -0.7172
   13SAPS  H20S 1679   2.138   5.525   5.048 -1.5303 -1.2934  1.2086
   13SAPS  H20T 1680   1.983   5.570   5.113 -1.1244 -1.0091 -3.4781
   13SAPS   C33 1681   3.071   4.990   3.456 -0.0231 -0.7647 -0.2561
   13SAPS   H3X 1682   3.139   4.936   3.525 -2.7742 -1.1082  2.4124
   13SAPS   H3Y 1683   3.058   4.934   3.362 -0.4359 -0.0875 -0.6139
   13SAPS   C34 1684   2.929   5.005   3.509  0.1579 -0.1136 -0.0501
   13SAPS   H4X 1685   2.886   4.915   3.558 -0.0371  1.2781  2.4990
   13SAPS   H4Y 1686   2.860   5.025   3.424 -1.4215 -0.3357  1.1348
   13SAPS   C35 1687   2.913   5.122   3.622 -0.2384  0.1425 -0.0364
   13SAPS   H5X 1688   2.803   5.135   3.628 -0.2970 -0.9538  2.1795
   13SAPS   H5Y 1689   2.958   5.222   3.602  0.5939  0.2842  2.2343
   13SAPS   C36 1690   2.945   5.079   3.757  0.3098 -0.3031 -0.1638
   13SAPS   H6X 1691   3.055   5.073   3.770  0.4336 -3.8407 -1.7631
   13SAPS   H6Y 1692   2.910   4.975   3.775  2.4446 -1.0416  0.0261
   13SAPS   C37 1693   2.886   5.178   3.861  0.1330  0.2519 -0.2540
   13SAPS   H7X 1694   2.779   5.202   3.848 -0.2662  0.2484  2.3693
   13SAPS   H7Y 1695   2.935   5.278   3.856  1.4440 -0.4389 -2.5608
   13SAPS   C38 1696   2.905   5.121   4.007  0.5649 -0.6301 -0.2120
   13SAPS   H8X 1697   2.998   5.060   4.000 -1.1007 -3.3004 -0.5098
   13SAPS   H8Y 1698   2.822   5.049   4.018  1.4674 -1.9133 -1.3590
   13SAPS   C39 1699   2.919   5.227   4.121  0.4070 -0.5113 -0.1421
   13SAPS   H9X 1700   2.829   5.291   4.130  1.3937  0.7191  1.7703
   13SAPS   H9Y 1701   3.014   5.282   4.104  0.9552 -1.2613  0.4407
   13SAPS  C310 1702   2.956   5.146   4.249 -0.3133 -0.7372  0.2531
   13SAPS  H10X 1703   3.039   5.074   4.232  1.7693  1.5941 -0.0286
   13SAPS  H10Y 1704   2.879   5.069   4.270  1.5581 -2.3121  1.7439
   13SAPS  C311 1705   2.962   5.236   4.373  0.4037  0.3190 -0.2336
   13SAPS  H11X 1706   2.869   5.293   4.391  1.5502  1.7762  1.4311
   13SAPS  H11Y 1707   3.049   5.305   4.371 -1.1396  2.3385 -0.0472
   13SAPS  C312 1708   2.984   5.140   4.489 -0.1774 -0.3742  0.1309
   13SAPS  H12X 1709   3.082   5.088   4.480  0.7586  1.4924 -1.4362
   13SAPS  H12Y 1710   2.899   5.070   4.494  0.3548 -1.1373 -1.0352
   13SAPS  C313 1711   2.977   5.211   4.629  0.0516  0.4139 -0.5551
   13SAPS  H13X 1712   2.877   5.259   4.638 -0.8548 -0.7779 -3.1812
   13SAPS  H13Y 1713   3.065   5.277   4.640  0.3373 -0.3585  3.7934
   13SAPS  C314 1714   2.984   5.117   4.748 -0.0971  0.6020 -0.1233
   13SAPS  H14X 1715   3.045   5.027   4.727 -0.3354  0.4183 -0.0324
   13SAPS  H14Y 1716   2.887   5.067   4.772  0.6291 -0.4497  0.6956
   13SAPS  C315 1717   3.033   5.193   4.868 -0.4071 -0.2539  0.0709
   13SAPS  H15X 1718   2.978   5.287   4.892  1.7481  1.0830 -0.0362
   13SAPS  H15Y 1719   3.139   5.225   4.861 -0.3366 -0.7251 -1.2962
   13SAPS  C316 1720   3.014   5.115   5.001  0.0250 -0.6117 -0.2859
   13SAPS  H16X 1721   3.088   5.032   5.011 -0.1309 -0.4563  3.8541
   13SAPS  H16Y 1722   2.912   5.071   5.005 -0.8027  1.2845  0.9337
   13SAPS  C317 1723   3.018   5.204   5.126  0.0360 -0.1363 -0.0922
   13SAPS  H17X 1724   2.985   5.307   5.101  4.2145  1.7317  1.2451
   13SAPS  H17Y 1725   3.124   5.221   5.154 -0.1906  0.0473  0.6778
   13SAPS  C318 1726   2.936   5.152   5.239 -0.3674  0.4220 -0.1707
   13SAPS  H18X 1727   2.978   5.200   5.330  0.7865 -0.4975 -0.1987
   13SAPS  H18Y 1728   2.961   5.046   5.261 -1.8466  0.5243  2.5200
   13SAPS  H18Z 1729   2.827   5.172   5.233 -0.5152  0.3231  1.5312
   14SAPS     N 1730   0.314   0.530   2.398  0.1962  0.5723  0.1638
   14SAPS   HN1 1731   0.240   0.603   2.407  0.0751  0.6736 -1.3874
   14SAPS   HN2 1732   0.355   0.564   2.309 -0.3085  0.9040  0.0523
   14SAPS   HN3 1733   0.260   0.443   2.380 -0.2264  1.1173 -1.3713
   14SAPS   C12 1734   0.397   0.532   2.515  1.3094  1.1991 -0.0332
   14SAPS  H12A 1735   0.446   0.436   2.516 -0.1350  0.3935 -1.4879
   14SAPS   C13 1736   0.496   0.651   2.510  0.5288 -0.2054 -0.2480
   14SAPS  O13A 1737   0.497   0.735   2.412 -0.4032  0.0923 -0.2857
   14SAPS  O13B 1738   0.560   0.668   2.623 -0.1484  0.0913  0.5926
   14SAPS   C11 1739   0.309   0.544   2.647 -0.8351  0.0029 -0.6122
   14SAPS  H11A 1740   0.248   0.635   2.631 -1.4156  0.3113  2.6395
   14SAPS  H11B 1741   0.377   0.560   2.734 -2.3726 -2.3851  1.1587
   14SAPS     P 1742   0.239   0.330   2.792 -0.1415 -0.3517 -0.0755
   14SAPS   O13 1743   0.134   0.227   2.774 -0.0733 -0.0104  0.3725
   14SAPS   O14 1744   0.382   0.291   2.786  0.2751  0.1661  0.3726
   14SAPS   O12 1745   0.219   0.436   2.677 -0.1604 -0.4621 -0.3851
   14SAPS   O11 1746   0.224   0.398   2.927  0.1264  0.2580  0.0152
   14SAPS    C1 1747   0.328   0.434   3.012  0.1811  0.9114 -0.0769
   14SAPS    HA 1748   0.420   0.468   2.959  1.5549 -0.9973  0.9517
   14SAPS    HB 1749   0.295   0.518   3.077 -0.9031  2.2630 -2.2611
   14SAPS    C2 1750   0.367   0.317   3.103  0.5505  0.2217 -0.5432
   14SAPS    HS 1751   0.391   0.229   3.040 -0.9472 -0.4110 -0.2800
   14SAPS   O21 1752   0.266   0.270   3.194 -0.1246  0.4625 -0.6212
   14SAPS   C21 1753   0.291   0.169   3.275 -0.4965 -0.7702 -0.5615
   14SAPS   O22 1754   0.385   0.091   3.278 -0.3136 -0.6563 -0.2123
   14SAPS   C22 1755   0.179   0.176   3.377 -0.3239 -0.2945  0.3562
   14SAPS   H2R 1756   0.185   0.282   3.408  1.4928 -0.6497  1.4064
   14SAPS   H2S 1757   0.076   0.159   3.339 -1.0704  0.3284  1.9844
   14SAPS    C3 1758   0.506   0.352   3.167 -0.0834 -0.6468  0.3795
   14SAPS    HX 1759   0.563   0.415   3.097  0.4555  2.0340  3.0295
   14SAPS    HY 1760   0.565   0.260   3.189  1.9073 -0.2423 -2.6784
   14SAPS   O31 1761   0.489   0.429   3.285  0.4551 -0.2565 -0.5289
   14SAPS   C31 1762   0.602   0.469   3.340  0.8240 -0.3657 -0.0851
   14SAPS   O32 1763   0.711   0.429   3.299  0.4730  0.0465 -0.3141
   14SAPS   C32 1764   0.573   0.552   3.464 -0.5850 -0.2394  0.1538
   14SAPS   H2X 1765   0.482   0.511   3.513 -0.8646 -0.4550 -0.5458
   14SAPS   H2Y 1766   0.574   0.656   3.427  0.2884 -0.0560  0.6678
   14SAPS   C23 1767   0.206   0.091   3.499  0.5519  0.2206 -0.1319
   14SAPS   H3R 1768   0.297   0.125   3.553  1.3486  0.3844 -1.5282
   14SAPS   H3S 1769   0.218  -0.016   3.470 -1.0120  0.0906 -0.3767
   14SAPS   C24 1770   0.089   0.106   3.592  0.6594  0.3983  0.0311
   14SAPS   H4R 1771  -0.011   0.099   3.543 -0.1866 -0.3963  1.7587
   14SAPS   H4S 1772   0.099   0.211   3.626  0.8149  1.2361 -2.4270
   14SAPS   C25 1773   0.099  -0.001   3.706  0.8218 -0.4870  0.3581
   14SAPS   H5R 1774   0.089  -0.105   3.671  0.4555 -1.1490  2.3263
   14SAPS   C26 1775   0.134   0.020   3.832  0.6577 -0.4832 -0.4155
   14SAPS   H6R 1776   0.145  -0.066   3.899  2.1363  0.2829  0.3781
   14SAPS   C27 1777   0.161   0.163   3.888 -0.5777  0.3408 -0.0081
   14SAPS   H7R 1778   0.137   0.176   3.995  1.7878  0.8882  0.5047
   14SAPS   H7S 1779   0.102   0.238   3.831 -1.3396 -0.7446 -0.7100
   14SAPS   C28 1780   0.307   0.200   3.874 -0.2654 -0.1930 -0.3603
   14SAPS   H8R 1781   0.334   0.241   3.776  0.2024 -1.3720 -0.7410
   14SAPS   C29 1782   0.399   0.202   3.969  0.1691 -0.2794  0.0407
   14SAPS   H9R 1783   0.502   0.226   3.940  0.0635  0.1935  0.0479
   14SAPS  C210 1784   0.382   0.172   4.113 -0.1293  0.0807  0.0113
   14SAPS  H10R 1785   0.473   0.115   4.143 -0.7901 -0.6040  0.7288
   14SAPS  H10S 1786   0.299   0.105   4.141 -1.4919  1.6777 -0.0627
   14SAPS  C211 1787   0.367   0.293   4.198 -0.0395  1.1374  0.0863
   14SAPS  H11R 1788   0.284   0.363   4.178  0.0734  1.2053 -0.1439
   14SAPS  C212 1789   0.453   0.326   4.296  0.3209  0.0794 -0.3003
   14SAPS  H12R 1790   0.431   0.421   4.348 -0.1801 -0.5815  0.7223
   14SAPS  C213 1791   0.577   0.259   4.342  0.4324  0.5016  0.3279
   14SAPS  H13R 1792   0.612   0.191   4.260 -3.3249 -1.0146 -0.2089
   14SAPS  H13S 1793   0.548   0.195   4.428  0.0879 -0.8208 -0.7335
   14SAPS  C214 1794   0.678   0.367   4.377 -0.4313 -0.7160 -0.0069
   14SAPS  H14R 1795   0.726   0.425   4.297  1.5599 -1.2158  0.7577
   14SAPS  C215 1796   0.712   0.411   4.502  0.1624  0.2824  0.2161
   14SAPS  H15R 1797   0.782   0.495   4.516 -0.3525  0.6201  0.8331
   14SAPS  C216 1798   0.681   0.365   4.643  0.2285  0.0018 -0.0957
   14SAPS  H16R 1799   0.763   0.399   4.709  2.4615  0.4883 -2.8997
   14SAPS  H16S 1800   0.673   0.256   4.662 -1.2636  0.3281  1.4313
   14SAPS  C217 1801   0.545   0.426   4.693 -0.7571  0.8446 -0.1598
   14SAPS  H17R 1802   0.468   0.381   4.627  2.4307 -2.0983 -2.2409
   14SAPS  H17S 1803   0.551   0.537   4.691 -0.4578  0.8552  0.8437
   14SAPS  C218 1804   0.517   0.387   4.840  0.2000  0.4362 -0.0208
   14SAPS  H18R 1805   0.511   0.277   4.849 -0.5590  0.5934  1.6678
   14SAPS  H18S 1806   0.421   0.438   4.862  0.3807  0.2658  1.2191
   14SAPS  C219 1807   0.623   0.438   4.941  0.1236 -0.4743 -0.2058
   14SAPS  H19R 1808   0.646   0.546   4.927  1.2580 -0.6364  0.2549
   14SAPS  H19S 1809   0.722   0.388   4.934  0.6579  0.6744 -1.0342
   14SAPS  C220 1810   0.576   0.424   5.085 -0.0363  0.2186  0.2069
   14SAPS  H20R 1811   0.534   0.324   5.111 -0.0629  0.5909  1.7007
   14SAPS  H20S 1812   0.495   0.500   5.094 -1.2996 -1.0116 -0.4445
   14SAPS  H20T 1813   0.659   0.443   5.156  0.2668  2.6436 -0.7194
   14SAPS   C33 1814   0.689   0.530   3.566  0.0587  0.1939 -0.5129
   14SAPS   H3X 1815   0.787   0.571   3.532  1.3403  0.4057  3.0001
   14SAPS   H3Y 1816   0.694   0.423   3.595  0.8773  0.7937  1.8048
   14SAPS   C34 1817   0.647   0.606   3.696 -0.2130  0.3419 -0.3745
   14SAPS   H4X 1818   0.708   0.564   3.779 -0.0601  1.3592  0.0445
   14SAPS   H4Y 1819   0.537   0.603   3.707 -0.3933  1.5508 -1.4857
   14SAPS   C35 1820   0.703   0.750   3.698 -0.5190 -0.7602 -0.3636
   14SAPS   H5X 1821   0.653   0.803   3.615 -1.5837  2.4092  2.0875
   14SAPS   H5Y 1822   0.814   0.755   3.700 -0.5328 -0.5010 -0.1211
   14SAPS   C36 1823   0.663   0.833   3.821  0.6267 -0.4078  0.3455
   14SAPS   H6X 1824   0.553   0.820   3.833  0.2626  0.6661 -1.4790
   14SAPS   H6Y 1825   0.673   0.943   3.816 -0.0177 -0.4116 -2.1785
   14SAPS   C37 1826   0.710   0.782   3.962 -0.4892 -0.1395 -0.0476
   14SAPS   H7X 1827   0.821   0.780   3.961 -0.4580  0.4945  0.9361
   14SAPS   H7Y 1828   0.683   0.676   3.981 -0.5954  0.3047  2.5664
   14SAPS   C38 1829   0.651   0.850   4.084 -0.5863  0.2687  0.4855
   14SAPS   H8X 1830   0.542   0.860   4.065 -0.1837  0.8209 -1.8833
   14SAPS   H8Y 1831   0.695   0.952   4.089 -0.9708  0.4358  0.4784
   14SAPS   C39 1832   0.677   0.780   4.215  0.6855 -0.2687 -0.1545
   14SAPS   H9X 1833   0.783   0.757   4.240  0.4971 -1.1950 -0.1683
   14SAPS   H9Y 1834   0.622   0.684   4.205 -0.5514  0.3243  0.7211
   14SAPS  C310 1835   0.613   0.861   4.338  0.1528  0.1080 -0.4246
   14SAPS  H10X 1836   0.508   0.892   4.321  0.2375  0.2321 -0.7401
   14SAPS  H10Y 1837   0.668   0.958   4.333 -0.1645  0.2733 -0.7987
   14SAPS  C311 1838   0.638   0.781   4.466  0.8294  0.3841 -0.6663
   14SAPS  H11X 1839   0.743   0.745   4.456  0.9011  0.6863 -1.0822
   14SAPS  H11Y 1840   0.558   0.704   4.462  0.0969  1.1612 -1.6759
   14SAPS  C312 1841   0.621   0.860   4.597 -0.5486 -0.1914 -0.5246
   14SAPS  H12X 1842   0.687   0.948   4.611  1.2038 -1.6523  1.1745
   14SAPS  H12Y 1843   0.655   0.795   4.681  1.1969  1.0592 -0.2146
   14SAPS  C313 1844   0.480   0.904   4.642 -0.0066  0.3820  0.2207
   14SAPS  H13X 1845   0.475   0.889   4.752  2.4876 -1.5524  0.1649
   14SAPS  H13Y 1846   0.408   0.837   4.590 -0.7028  0.5600  0.9439
   14SAPS  C314 1847   0.450   1.044   4.586 -0.7980 -0.1248 -0.0626
   14SAPS  H14X 1848   0.462   1.050   4.475 -1.5499 -1.8571 -0.2615
   14SAPS  H14Y 1849   0.508   1.127   4.633 -0.6712  0.0987 -0.6001
   14SAPS  C315 1850   0.298   1.062   4.606  1.2571  0.9814  0.4003
   14SAPS  H15X 1851   0.270   1.045   4.712  0.9520 -0.2553  0.1313
   14SAPS  H15Y 1852   0.247   0.982   4.550  3.4442 -0.2050  0.0045
   14SAPS  C316 1853   0.239   1.199   4.560 -0.6496  0.3065 -0.5648
   14SAPS  H16X 1854   0.295   1.286   4.600  1.2549 -0.8565 -0.5728
   14SAPS  H16Y 1855   0.140   1.228   4.601 -0.2022  2.0896 -0.6591
   14SAPS  C317 1856   0.223   1.212   4.405 -0.1244 -0.5616 -0.5643
   14SAPS  H17X 1857   0.134   1.162   4.362 -1.6009  0.4490  1.1980
   14SAPS  H17Y 1858   0.308   1.157   4.359  0.4667  1.1778 -1.6699
   14SAPS  C318 1859   0.213   1.358   4.349 -0.0537 -0.2616 -0.2892
   14SAPS  H18X 1860   0.189   1.358   4.240 -0.9456 -1.5499 -0.1154
   14SAPS  H18Y 1861   0.313   1.406   4.355 -0.1187  0.3615 -3.0580
   14SAPS  H18Z 1862   0.134   1.420   4.396  0.9438  0.0355  1.0528
   15SAPS     N 1863   6.762   2.434   2.826 -0.0179 -0.4937 -0.0566
   15SAPS   HN1 1864   6.858   2.438   2.787  0.1383 -1.1260  0.2544
   15SAPS   HN2 1865   6.699   2.493   2.767 -1.7831 -1.0780  1.1405
   15SAPS   HN3 1866   6.762   2.472   2.922  0.5181  0.3385 -0.3810
   15SAPS   C12 1867   6.709   2.292   2.837  0.0201 -0.1709  0.3202
   15SAPS  H12A 1868   6.607   2.305   2.870  0.0303  1.2196 -0.1249
   15SAPS   C13 1869   6.696   2.209   2.711  0.2214 -0.4249 -0.8249
   15SAPS  O13A 1870   6.713   2.267   2.605 -0.1001  0.1050  0.4957
   15SAPS  O13B 1871   6.659   2.086   2.715 -0.1696  0.4234 -0.4151
   15SAPS   C11 1872   6.790   2.222   2.949  0.1415 -0.2642  0.4369
   15SAPS  H11A 1873   6.898   2.230   2.921  0.4613 -0.2238  1.6148
   15SAPS  H11B 1874   6.752   2.117   2.951 -3.1560  0.7160 -1.9439
   15SAPS     P 1875   6.886   2.297   3.178 -0.3519  0.1454  0.5186
   15SAPS   O13 1876   6.981   2.402   3.133 -0.7655 -0.0666  0.4368
   15SAPS   O14 1877   6.835   2.312   3.317 -0.6553  0.1846 -0.4482
   15SAPS   O12 1878   6.765   2.282   3.074 -0.4100  0.2982 -0.7678
   15SAPS   O11 1879   6.965   2.155   3.177  0.7094 -0.2990 -0.1236
   15SAPS    C1 1880   6.889   2.035   3.200 -0.0307 -0.0156 -0.8917
   15SAPS    HA 1881   6.779   2.045   3.198 -0.1859 -1.3923 -0.3480
   15SAPS    HB 1882   6.918   1.965   3.119  1.5771  0.3609 -0.6832
   15SAPS    C2 1883   6.925   1.956   3.338 -0.0502  0.2235  0.5030
   15SAPS    HS 1884   6.870   1.860   3.342  0.8516 -0.3565 -0.4077
   15SAPS   O21 1885   6.905   2.037   3.451 -0.3803  0.7180  0.0396
   15SAPS   C21 1886   6.777   2.047   3.488 -0.8772 -0.1605 -0.1458
   15SAPS   O22 1887   6.686   1.990   3.428 -0.3605 -0.0635 -0.6111
   15SAPS   C22 1888   6.739   2.126   3.613 -0.9356  0.4586  0.4108
   15SAPS   H2R 1889   6.744   2.233   3.585 -1.3699  0.7141  1.2840
   15SAPS   H2S 1890   6.637   2.089   3.639 -1.2341 -2.0156 -3.4177
   15SAPS    C3 1891   7.069   1.922   3.339  0.0485 -0.1257  0.4824
   15SAPS    HX 1892   7.124   2.017   3.326 -1.3502  0.3697 -2.4742
   15SAPS    HY 1893   7.080   1.870   3.242  0.5553 -0.1381  0.5451
   15SAPS   O31 1894   7.101   1.839   3.456 -0.3362  0.0264 -0.7287
   15SAPS   C31 1895   7.178   1.897   3.552  0.0488 -0.2721 -0.4418
   15SAPS   O32 1896   7.214   2.013   3.552  0.6343  0.7611  0.0442
   15SAPS   C32 1897   7.200   1.801   3.681  0.6084 -0.0749  1.2093
   15SAPS   H2X 1898   7.171   1.702   3.640 -1.4383  0.8775  0.2164
   15SAPS   H2Y 1899   7.122   1.830   3.755 -0.8725 -1.4781  0.2642
   15SAPS   C23 1900   6.834   2.098   3.728 -1.1618  0.3222 -0.1290
   15SAPS   H3R 1901   6.938   2.104   3.690 -1.0742  0.2234  0.0918
   15SAPS   H3S 1902   6.815   1.996   3.767 -0.1987 -0.3958 -1.4662
   15SAPS   C24 1903   6.826   2.206   3.843  0.5379  0.7118 -0.0703
   15SAPS   H4R 1904   6.852   2.302   3.793  0.7099 -1.2875 -4.2309
   15SAPS   H4S 1905   6.901   2.179   3.920  0.3070 -1.0502 -0.4126
   15SAPS   C25 1906   6.691   2.203   3.903 -0.2667 -0.8391  0.0191
   15SAPS   H5R 1907   6.604   2.217   3.837  1.3507  0.3068 -1.9731
   15SAPS   C26 1908   6.659   2.176   4.033 -0.6390 -0.8675 -0.6017
   15SAPS   H6R 1909   6.555   2.161   4.066 -1.0013  1.2998 -0.6525
   15SAPS   C27 1910   6.767   2.148   4.132 -0.2930 -1.0019  0.8530
   15SAPS   H7R 1911   6.840   2.228   4.109 -0.7114 -1.2297 -1.5547
   15SAPS   H7S 1912   6.820   2.053   4.109  0.0780 -0.3167 -1.3774
   15SAPS   C28 1913   6.731   2.156   4.283  0.7319 -0.0307 -0.0563
   15SAPS   H8R 1914   6.676   2.248   4.309 -0.9492 -1.2455  0.8952
   15SAPS   C29 1915   6.737   2.057   4.371 -0.5498  0.0796  0.8472
   15SAPS   H9R 1916   6.707   2.075   4.476  2.1699 -0.2450  1.7366
   15SAPS  C210 1917   6.803   1.924   4.339 -0.1802  0.1861  0.2188
   15SAPS  H10R 1918   6.761   1.885   4.244  0.5007  0.2615 -0.1208
   15SAPS  H10S 1919   6.760   1.848   4.408  0.1797 -0.7262 -0.5576
   15SAPS  C211 1920   6.957   1.923   4.353  0.1187  0.7690 -0.7400
   15SAPS  H11R 1921   7.007   1.989   4.280 -1.0595  4.3742  1.4831
   15SAPS  C212 1922   7.036   1.847   4.444  0.8553 -0.2869  0.5084
   15SAPS  H12R 1923   7.145   1.846   4.436  0.9025 -2.1879  1.0214
   15SAPS  C213 1924   7.001   1.747   4.549 -0.1107  0.5658 -0.3551
   15SAPS  H13R 1925   7.037   1.647   4.520 -1.5233 -0.2411  0.5177
   15SAPS  H13S 1926   6.893   1.724   4.566 -0.4582  2.9831  1.1917
   15SAPS  C214 1927   7.067   1.778   4.682  0.4160 -0.0338  0.0217
   15SAPS  H14R 1928   7.071   1.887   4.696  4.3195 -0.1740  1.0134
   15SAPS  C215 1929   7.111   1.694   4.779  0.4705  0.1810 -0.2486
   15SAPS  H15R 1930   7.155   1.736   4.871  0.3272 -1.6043  0.6647
   15SAPS  C216 1931   7.106   1.539   4.772  0.2474  0.1702  0.6510
   15SAPS  H16R 1932   7.202   1.501   4.731  0.6342  1.3213  0.4468
   15SAPS  H16S 1933   7.037   1.518   4.688 -0.8243  2.7221  0.8072
   15SAPS  C217 1934   7.042   1.477   4.903 -0.0383  0.1501  0.0337
   15SAPS  H17R 1935   6.942   1.523   4.920 -0.2046  0.3484 -1.4055
   15SAPS  H17S 1936   7.110   1.497   4.989 -1.6071  1.9333  0.9271
   15SAPS  C218 1937   7.043   1.322   4.889  0.5574 -0.2130  0.2018
   15SAPS  H18R 1938   7.144   1.282   4.866 -0.0964 -0.4584 -2.5679
   15SAPS  H18S 1939   6.969   1.310   4.808 -1.2727  0.6033  1.6812
   15SAPS  C219 1940   6.993   1.255   5.019  0.4500  0.0005  0.8461
   15SAPS  H19R 1941   6.885   1.281   5.028 -0.1659 -1.8562 -0.5308
   15SAPS  H19S 1942   7.043   1.301   5.107 -1.0374  2.2213  0.6277
   15SAPS  C220 1943   7.016   1.107   5.026 -0.4016  0.0571  0.6054
   15SAPS  H20R 1944   6.982   1.063   5.123  0.8505  1.7337  1.8620
   15SAPS  H20S 1945   7.119   1.065   5.031  0.2440  1.0141 -2.4948
   15SAPS  H20T 1946   6.967   1.062   4.937 -2.0372  1.7772  0.5928
   15SAPS   C33 1947   7.339   1.788   3.740 -0.0637  0.0857 -0.4195
   15SAPS   H3X 1948   7.356   1.879   3.800 -0.3617 -0.8844  1.1827
   15SAPS   H3Y 1949   7.423   1.786   3.667 -0.1735 -2.4052 -0.5602
   15SAPS   C34 1950   7.354   1.669   3.836  0.2456  0.1267  0.1676
   15SAPS   H4X 1951   7.456   1.682   3.878  0.6426  0.8944 -0.9960
   15SAPS   H4Y 1952   7.362   1.583   3.766 -1.9520 -0.1621  0.1806
   15SAPS   C35 1953   7.239   1.652   3.936 -0.3753 -0.8041  0.3562
   15SAPS   H5X 1954   7.267   1.560   3.992  0.7189 -1.6317 -1.4658
   15SAPS   H5Y 1955   7.149   1.630   3.874  1.5639 -1.3430 -2.4964
   15SAPS   C36 1956   7.207   1.773   4.030  0.0577 -0.4035 -0.6020
   15SAPS   H6X 1957   7.122   1.743   4.095  1.5219  1.3370  2.3342
   15SAPS   H6Y 1958   7.166   1.859   3.974  0.1650  1.2754  1.7500
   15SAPS   C37 1959   7.327   1.818   4.117  0.2447  0.4652 -0.3615
   15SAPS   H7X 1960   7.295   1.913   4.166 -0.5998 -0.8352  1.7460
   15SAPS   H7Y 1961   7.412   1.843   4.049  0.6101 -1.7016 -0.7463
   15SAPS   C38 1962   7.366   1.711   4.221 -0.0972  0.0537 -0.0678
   15SAPS   H8X 1963   7.375   1.610   4.174 -0.1358 -0.9857  2.0626
   15SAPS   H8Y 1964   7.284   1.709   4.295 -0.9301 -0.3540 -0.9674
   15SAPS   C39 1965   7.500   1.754   4.287  0.3946 -0.2589 -0.5619
   15SAPS   H9X 1966   7.495   1.862   4.312 -1.4344 -0.5511  0.5554
   15SAPS   H9Y 1967   7.592   1.753   4.224  0.3978 -0.9379 -0.5572
   15SAPS  C310 1968   7.528   1.669   4.414  0.0728 -0.5924  0.9171
   15SAPS  H10X 1969   7.630   1.702   4.444  0.2085  0.5077 -0.6692
   15SAPS  H10Y 1970   7.520   1.563   4.382 -2.6504  0.1353 -1.1236
   15SAPS  C311 1971   7.437   1.681   4.529  0.2423 -0.3300 -0.0053
   15SAPS  H11X 1972   7.341   1.632   4.503 -0.0635  1.6112 -3.0414
   15SAPS  H11Y 1973   7.410   1.787   4.546 -0.6515 -0.6820  0.8334
   15SAPS  C312 1974   7.487   1.618   4.659 -0.1363 -0.4469 -0.4650
   15SAPS  H12X 1975   7.406   1.635   4.733 -0.0672  0.0428 -0.5001
   15SAPS  H12Y 1976   7.578   1.671   4.693 -0.5170 -0.5596  0.7720
   15SAPS  C313 1977   7.517   1.468   4.654  0.1122 -0.0226  0.5815
   15SAPS  H13X 1978   7.609   1.456   4.594 -0.0880  1.6286 -0.1037
   15SAPS  H13Y 1979   7.426   1.425   4.607  0.9889 -0.1724 -1.0520
   15SAPS  C314 1980   7.537   1.424   4.800  0.8961 -0.0094  1.0574
   15SAPS  H14X 1981   7.447   1.444   4.863  0.0173 -0.7633  0.0866
   15SAPS  H14Y 1982   7.614   1.488   4.848  0.8057  2.0987 -1.4215
   15SAPS  C315 1983   7.583   1.280   4.800  0.5763  0.4742 -0.2966
   15SAPS  H15X 1984   7.671   1.270   4.731  0.2447  2.0106 -0.9847
   15SAPS  H15Y 1985   7.498   1.224   4.756 -1.5700  2.1461  1.5180
   15SAPS  C316 1986   7.635   1.230   4.943  0.3180 -0.2308 -0.4221
   15SAPS  H16X 1987   7.667   1.125   4.926 -0.0321 -0.5587  0.8569
   15SAPS  H16Y 1988   7.558   1.237   5.023  1.2925  1.5619  0.4411
   15SAPS  C317 1989   7.748   1.304   5.020  0.4533  0.0478  0.3184
   15SAPS  H17X 1990   7.715   1.406   5.048 -1.4670 -1.5357  4.6257
   15SAPS  H17Y 1991   7.836   1.305   4.952  0.7225 -1.8394  0.5827
   15SAPS  C318 1992   7.781   1.234   5.153 -0.0496 -0.3211  0.3541
   15SAPS  H18X 1993   7.865   1.292   5.197  1.9652 -0.3542 -3.0813
   15SAPS  H18Y 1994   7.817   1.130   5.135 -0.8634 -0.8500  1.6750
   15SAPS  H18Z 1995   7.698   1.213   5.223  0.6825 -1.6223  0.8841
   16SAPS     N 1996   3.361   0.455   2.954  0.9370  0.5496 -0.0349
   16SAPS   HN1 1997   3.303   0.370   2.941 -2.4863  2.7652 -0.4967
   16SAPS   HN2 1998   3.416   0.457   2.866 -0.3805 -0.3228 -0.9118
   16SAPS   HN3 1999   3.423   0.439   3.036  1.0269 -1.6577 -0.4863
   16SAPS   C12 2000   3.273   0.573   2.967 -0.1861  0.1825 -0.2917
   16SAPS  H12A 2001   3.329   0.666   2.961 -0.7124  0.5515  0.4645
   16SAPS   C13 2002   3.173   0.579   2.853  0.5206 -0.0296 -0.0962
   16SAPS  O13A 2003   3.174   0.496   2.755 -0.4670  0.3857 -0.4693
   16SAPS  O13B 2004   3.067   0.649   2.865 -0.1711  0.3180  0.7441
   16SAPS   C11 2005   3.207   0.554   3.104  0.4231  0.7242  0.5494
   16SAPS  H11A 2006   3.147   0.461   3.099  1.7671 -0.1476  0.1489
   16SAPS  H11B 2007   3.139   0.641   3.121  0.1346  0.7548 -0.6748
   16SAPS     P 2008   3.245   0.555   3.366 -0.3242  0.1594 -0.2259
   16SAPS   O13 2009   3.356   0.606   3.444 -0.5633 -0.5935 -0.2463
   16SAPS   O14 2010   3.127   0.642   3.369  0.4510 -0.3146 -0.0785
   16SAPS   O12 2011   3.296   0.535   3.213 -0.0198 -0.1162 -0.2152
   16SAPS   O11 2012   3.212   0.404   3.400  0.0033 -0.0308 -0.0669
   16SAPS    C1 2013   3.267   0.295   3.323 -0.4638 -0.5273  0.7411
   16SAPS    HA 2014   3.189   0.269   3.249 -1.5135 -1.8409  2.2538
   16SAPS    HB 2015   3.360   0.328   3.271 -2.2789  1.9631 -1.1596
   16SAPS    C2 2016   3.304   0.168   3.402 -0.2525 -0.0287  0.3249
   16SAPS    HS 2017   3.204   0.140   3.440  0.1012 -1.0091  0.5510
   16SAPS   O21 2018   3.394   0.198   3.510 -0.1920  0.4553 -0.5617
   16SAPS   C21 2019   3.332   0.226   3.631  0.1313 -0.3997  0.2230
   16SAPS   O22 2020   3.213   0.258   3.638  0.3045  0.3818  0.0934
   16SAPS   C22 2021   3.422   0.193   3.750 -0.2343 -0.6034  0.0987
   16SAPS   H2R 2022   3.514   0.254   3.739 -0.6153  0.7215  3.1361
   16SAPS   H2S 2023   3.375   0.225   3.846  0.5244 -0.3908  0.4112
   16SAPS    C3 2024   3.357   0.048   3.314  0.2126 -0.2340  0.7213
   16SAPS    HX 2025   3.460   0.081   3.290  0.4397 -0.5474  1.2620
   16SAPS    HY 2026   3.291   0.046   3.224 -0.9712  3.0967  1.3594
   16SAPS   O31 2027   3.358  -0.079   3.389  0.3188  0.8746  0.4593
   16SAPS   C31 2028   3.464  -0.157   3.353  0.4179 -0.4340  1.0765
   16SAPS   O32 2029   3.540  -0.133   3.258  0.8373 -0.1947  0.9092
   16SAPS   C32 2030   3.468  -0.276   3.441  0.0627  0.3016  0.5566
   16SAPS   H2X 2031   3.427  -0.358   3.377  1.7905 -1.2477  1.3334
   16SAPS   H2Y 2032   3.405  -0.267   3.531  0.3406 -0.1382  0.8028
   16SAPS   C23 2033   3.456   0.044   3.764  1.0992  1.0598  1.1760
   16SAPS   H3R 2034   3.530   0.052   3.847  1.0624 -0.5943  1.3984
   16SAPS   H3S 2035   3.510  -0.004   3.679 -1.8886  1.1548 -0.9060
   16SAPS   C24 2036   3.330  -0.039   3.802 -0.1896 -0.3120  0.4700
   16SAPS   H4R 2037   3.280  -0.055   3.704 -0.6038 -0.9311  0.7800
   16SAPS   H4S 2038   3.272   0.028   3.870  2.2337 -0.0452  2.4427
   16SAPS   C25 2039   3.373  -0.170   3.867  0.6763 -0.1286 -0.0133
   16SAPS   H5R 2040   3.402  -0.248   3.795 -0.3919 -0.6870  0.1270
   16SAPS   C26 2041   3.387  -0.192   3.997  0.5349 -0.0231  0.3596
   16SAPS   H6R 2042   3.428  -0.289   4.029 -1.0076 -0.3297  1.5033
   16SAPS   C27 2043   3.349  -0.103   4.111 -0.1006  0.6485 -0.0804
   16SAPS   H7R 2044   3.242  -0.084   4.132 -0.7598 -0.7837 -1.8972
   16SAPS   H7S 2045   3.385  -0.001   4.086 -0.4293  1.5372  2.7102
   16SAPS   C28 2046   3.417  -0.146   4.242  0.5228 -0.0549  0.8076
   16SAPS   H8R 2047   3.422  -0.254   4.263 -1.1369  0.1752  2.6764
   16SAPS   C29 2048   3.427  -0.057   4.342  0.0501  0.3494 -0.1387
   16SAPS   H9R 2049   3.470  -0.089   4.438 -2.8724  2.5110  2.0342
   16SAPS  C210 2050   3.389   0.088   4.334  0.1822  0.1876  0.1771
   16SAPS  H10R 2051   3.328   0.111   4.424 -1.9311 -2.8090 -0.3303
   16SAPS  H10S 2052   3.323   0.106   4.247  1.2253 -0.7646 -0.8447
   16SAPS  C211 2053   3.507   0.175   4.331 -0.3081  0.3568 -0.4366
   16SAPS  H11R 2054   3.539   0.209   4.232  0.0513  0.0179 -0.4406
   16SAPS  C212 2055   3.584   0.207   4.440 -0.2456 -0.0556  0.2085
   16SAPS  H12R 2056   3.676   0.265   4.423 -0.8829  0.6956 -0.8228
   16SAPS  C213 2057   3.552   0.165   4.578 -0.3891  0.7915  0.9403
   16SAPS  H13R 2058   3.536   0.055   4.573  0.1411  0.6940  1.2194
   16SAPS  H13S 2059   3.454   0.212   4.599 -0.4535  0.7381  0.7543
   16SAPS  C214 2060   3.668   0.187   4.669 -0.5710 -0.3258  0.0666
   16SAPS  H14R 2061   3.737   0.264   4.632  1.9774 -3.0266 -1.2421
   16SAPS  C215 2062   3.691   0.131   4.786 -0.2036  0.1367 -0.9080
   16SAPS  H15R 2063   3.781   0.155   4.845 -0.7289  2.1728 -0.8547
   16SAPS  C216 2064   3.585   0.033   4.841 -0.3214  0.0072 -0.0616
   16SAPS  H16R 2065   3.551  -0.032   4.757  2.4203 -0.0833 -1.2065
   16SAPS  H16S 2066   3.502   0.094   4.880  0.1708 -1.0587  2.9498
   16SAPS  C217 2067   3.612  -0.067   4.950  0.4291  0.8078  0.4994
   16SAPS  H17R 2068   3.514  -0.116   4.967  0.1509  1.1850 -0.0120
   16SAPS  H17S 2069   3.659  -0.029   5.044 -1.6921  0.2052  1.8933
   16SAPS  C218 2070   3.706  -0.180   4.906 -0.1709 -0.2264  0.3326
   16SAPS  H18R 2071   3.793  -0.133   4.855 -1.0277  1.0009 -0.0548
   16SAPS  H18S 2072   3.663  -0.251   4.833 -0.1991 -0.5157  0.6290
   16SAPS  C219 2073   3.758  -0.265   5.030 -0.0314 -0.2778 -0.0946
   16SAPS  H19R 2074   3.679  -0.309   5.094 -0.8748 -1.7308 -2.0113
   16SAPS  H19S 2075   3.817  -0.190   5.086 -0.1963 -0.3965  0.2412
   16SAPS  C220 2076   3.840  -0.382   4.985  0.0626  0.6149 -0.4149
   16SAPS  H20R 2077   3.792  -0.445   4.907  1.0217  0.1279 -0.6324
   16SAPS  H20S 2078   3.878  -0.442   5.070 -3.3839 -1.8187 -0.3695
   16SAPS  H20T 2079   3.936  -0.341   4.947  1.3476  0.2433  2.2337
   16SAPS   C33 2080   3.612  -0.311   3.485 -0.0944  0.6432 -0.3845
   16SAPS   H3X 2081   3.688  -0.302   3.405  0.1104  0.6385 -0.1901
   16SAPS   H3Y 2082   3.594  -0.418   3.507 -1.8230  0.6919 -1.3635
   16SAPS   C34 2083   3.661  -0.250   3.618  0.2528  0.5375 -0.0889
   16SAPS   H4X 2084   3.573  -0.244   3.686  0.5604 -0.3866  0.3989
   16SAPS   H4Y 2085   3.706  -0.150   3.604  1.5220 -0.0350 -0.2176
   16SAPS   C35 2086   3.758  -0.344   3.687  0.1518 -0.5674 -0.1281
   16SAPS   H5X 2087   3.860  -0.303   3.672 -0.4237  0.7090 -0.7166
   16SAPS   H5Y 2088   3.765  -0.450   3.654  1.5330 -0.5775  0.1596
   16SAPS   C36 2089   3.748  -0.350   3.844 -0.1810 -0.2791  0.0057
   16SAPS   H6X 2090   3.784  -0.439   3.899 -0.0145 -0.8354 -0.9917
   16SAPS   H6Y 2091   3.639  -0.352   3.869 -0.3938  3.3254 -0.0599
   16SAPS   C37 2092   3.807  -0.223   3.910  0.3146 -0.0651 -0.4527
   16SAPS   H7X 2093   3.790  -0.129   3.853  0.9697  1.3678  1.5910
   16SAPS   H7Y 2094   3.918  -0.225   3.911  0.4909  3.2962  0.7458
   16SAPS   C38 2095   3.776  -0.205   4.060  0.3243  0.4010  0.0629
   16SAPS   H8X 2096   3.666  -0.212   4.075  0.5128  0.7108  1.6953
   16SAPS   H8Y 2097   3.799  -0.099   4.084 -0.8312  0.6723  0.0281
   16SAPS   C39 2098   3.857  -0.287   4.157 -0.0720 -0.3384  0.0630
   16SAPS   H9X 2099   3.961  -0.249   4.148 -0.3811  0.3607 -0.7212
   16SAPS   H9Y 2100   3.842  -0.393   4.128 -2.8156 -0.0669  0.1382
   16SAPS  C310 2101   3.806  -0.279   4.303  0.7640  0.3773  0.1731
   16SAPS  H10X 2102   3.696  -0.289   4.292  0.7248  1.6363 -0.8844
   16SAPS  H10Y 2103   3.823  -0.178   4.346 -0.7721  0.4119  0.7390
   16SAPS  C311 2104   3.864  -0.394   4.388 -0.4325  0.0418 -0.8325
   16SAPS  H11X 2105   3.970  -0.369   4.366  0.0492  0.1987  1.4543
   16SAPS  H11Y 2106   3.837  -0.493   4.346  1.2708 -0.1932 -1.4669
   16SAPS  C312 2107   3.833  -0.397   4.540 -0.4773  0.0223  0.2330
   16SAPS  H12X 2108   3.724  -0.401   4.564 -0.1146  0.7398  2.2223
   16SAPS  H12Y 2109   3.861  -0.303   4.592 -0.8091 -0.8458  2.0959
   16SAPS  C313 2110   3.899  -0.521   4.608  0.0794  0.3978  0.0012
   16SAPS  H13X 2111   3.891  -0.508   4.718 -0.6040  0.1512 -0.0169
   16SAPS  H13Y 2112   4.003  -0.537   4.573 -0.3934 -0.8657 -0.8912
   16SAPS  C314 2113   3.821  -0.648   4.584  0.2236 -0.2895  0.2692
   16SAPS  H14X 2114   3.842  -0.690   4.483 -0.4661  0.5771 -0.2564
   16SAPS  H14Y 2115   3.711  -0.633   4.578  0.2808  0.1074  0.2030
   16SAPS  C315 2116   3.854  -0.758   4.690 -0.6669 -0.2414  0.0015
   16SAPS  H15X 2117   3.834  -0.708   4.787  1.0376 -0.3669  0.4550
   16SAPS  H15Y 2118   3.959  -0.796   4.689 -1.3374 -2.6694  3.2624
   16SAPS  C316 2119   3.761  -0.882   4.682 -0.5962  0.2429 -0.4447
   16SAPS  H16X 2120   3.782  -0.950   4.767  1.3330  1.3884  0.0642
   16SAPS  H16Y 2121   3.798  -0.934   4.591  1.3336  1.9013 -0.6895
   16SAPS  C317 2122   3.610  -0.855   4.652  0.2767  0.7398  0.3676
   16SAPS  H17X 2123   3.583  -0.791   4.566 -4.7525 -1.7677 -0.2860
   16SAPS  H17Y 2124   3.572  -0.790   4.734  0.6903  1.0237  0.3404
   16SAPS  C318 2125   3.533  -0.992   4.638 -0.1830 -0.4972  0.0267
   16SAPS  H18X 2126   3.432  -0.960   4.603 -1.4757 -3.3142  0.9339
   16SAPS  H18Y 2127   3.521  -1.043   4.736  0.4105  0.9967  0.9032
   16SAPS  H18Z 2128   3.564  -1.061   4.557  0.8333 -0.3302  0.2567
   17SAPS     N 2129   1.660   6.485   2.683 -0.4447 -0.0020 -0.0458
   17SAPS   HN1 2130   1.600   6.528   2.610  1.3466  0.1500 -1.5094
   17SAPS   HN2 2131   1.760   6.513   2.674 -0.2382  0.0825  2.0351
   17SAPS   HN3 2132   1.649   6.383   2.665 -2.1099  0.4450 -1.9666
   17SAPS   C12 2133   1.620   6.508   2.822 -0.6866  0.1217 -0.0057
   17SAPS  H12A 2134   1.650   6.605   2.857 -1.7280  0.3958  0.1634
   17SAPS   C13 2135   1.466   6.515   2.828 -0.7176  0.3641  1.0299
   17SAPS  O13A 2136   1.394   6.462   2.738  0.1956  0.1962  0.0673
   17SAPS  O13B 2137   1.409   6.564   2.929  0.6526  0.3850  0.2930
   17SAPS   C11 2138   1.659   6.388   2.910  0.2186 -0.0292  0.2631
   17SAPS  H11A 2139   1.599   6.300   2.877 -0.4874 -0.5553  2.7489
   17SAPS  H11B 2140   1.629   6.423   3.011 -2.2074  3.4774 -1.4593
   17SAPS     P 2141   1.904   6.437   3.009  0.0486  0.3421 -0.3752
   17SAPS   O13 2142   2.039   6.400   2.966  0.1783 -0.5225  0.3482
   17SAPS   O14 2143   1.865   6.577   3.026  0.0681  0.8000  0.7179
   17SAPS   O12 2144   1.802   6.370   2.907 -0.7009  0.0394 -0.3056
   17SAPS   O11 2145   1.884   6.363   3.147 -0.0454  0.3422  0.4535
   17SAPS    C1 2146   1.833   6.232   3.154 -0.2963  0.2240  0.3957
   17SAPS    HA 2147   1.725   6.240   3.131 -0.7200  1.4962  2.5903
   17SAPS    HB 2148   1.886   6.159   3.088  2.9264  0.9840  1.9580
   17SAPS    C2 2149   1.831   6.162   3.302 -0.8353 -0.1238  0.5912
   17SAPS    HS 2150   1.759   6.078   3.295  0.5812 -1.2436 -1.4841
   17SAPS   O21 2151   1.808   6.262   3.401 -0.0222 -0.4103  0.7923
   17SAPS   C21 2152   1.685   6.304   3.389  1.2483 -0.0922  0.3576
   17SAPS   O22 2153   1.591   6.250   3.335 -0.3950 -0.4258 -0.3711
   17SAPS   C22 2154   1.673   6.432   3.469  0.7477 -0.1459  0.1917
   17SAPS   H2R 2155   1.725   6.425   3.568  2.4563 -0.6261 -0.6935
   17SAPS   H2S 2156   1.720   6.517   3.415 -0.6050  0.1203 -0.6002
   17SAPS    C3 2157   1.963   6.090   3.330  0.1117 -0.9617  0.1868
   17SAPS    HX 2158   2.048   6.159   3.313 -0.2904 -0.4751  0.1117
   17SAPS    HY 2159   1.977   6.016   3.249 -1.8814 -1.5811  0.3470
   17SAPS   O31 2160   1.966   6.039   3.462 -0.2988 -0.6995 -0.2149
   17SAPS   C31 2161   2.041   6.105   3.552  0.3047  0.1161 -0.2875
   17SAPS   O32 2162   2.110   6.200   3.526  0.2186 -0.1957  0.1241
   17SAPS   C32 2163   2.048   6.037   3.690  0.6459 -0.5927  0.6875
   17SAPS   H2X 2164   2.147   6.073   3.724  1.7841 -3.4116  0.6209
   17SAPS   H2Y 2165   2.034   5.927   3.684  0.0343 -0.4434 -1.3169
   17SAPS   C23 2166   1.523   6.461   3.487  0.3631  0.4123  0.5506
   17SAPS   H3R 2167   1.466   6.435   3.396  0.4001  1.3761  0.2362
   17SAPS   H3S 2168   1.499   6.570   3.486 -3.0331 -0.2365  0.7633
   17SAPS   C24 2169   1.463   6.408   3.619  0.3980  0.1905 -0.5698
   17SAPS   H4R 2170   1.474   6.298   3.610 -0.1730  0.1721 -1.1042
   17SAPS   H4S 2171   1.356   6.437   3.626 -0.0775 -1.8411  2.0091
   17SAPS   C25 2172   1.525   6.468   3.745 -0.2249 -0.1712 -0.2652
   17SAPS   H5R 2173   1.532   6.578   3.751 -0.4820 -0.1271 -0.6590
   17SAPS   C26 2174   1.550   6.399   3.855 -0.3409  0.0968  0.0715
   17SAPS   H6R 2175   1.585   6.452   3.944  0.7122  1.6552 -1.2125
   17SAPS   C27 2176   1.537   6.252   3.887 -0.5827 -0.2284  0.0522
   17SAPS   H7R 2177   1.636   6.215   3.922  0.6730  2.6644 -0.1521
   17SAPS   H7S 2178   1.521   6.200   3.791  0.0936 -0.3404 -0.0070
   17SAPS   C28 2179   1.423   6.233   3.991  0.7838 -0.1486  1.1053
   17SAPS   H8R 2180   1.321   6.256   3.958  0.4344 -1.1915  1.4524
   17SAPS   C29 2181   1.436   6.172   4.110  0.0946  1.1167  0.2795
   17SAPS   H9R 2182   1.350   6.186   4.177 -0.2799  0.8505 -0.1383
   17SAPS  C210 2183   1.555   6.110   4.171  0.0663 -0.0689 -0.4622
   17SAPS  H10R 2184   1.556   6.143   4.277 -0.8394 -0.2205 -0.4013
   17SAPS  H10S 2185   1.651   6.161   4.147 -1.6190  3.8269  0.3798
   17SAPS  C211 2186   1.558   5.965   4.143  0.1256 -0.3559 -0.2456
   17SAPS  H11R 2187   1.591   5.931   4.045 -0.2164  0.3372 -0.6128
   17SAPS  C212 2188   1.512   5.869   4.225  0.4590 -0.0574  0.9859
   17SAPS  H12R 2189   1.513   5.770   4.176  3.8957  1.3459 -2.3463
   17SAPS  C213 2190   1.459   5.881   4.364  0.4193 -0.2493 -0.5565
   17SAPS  H13R 2191   1.353   5.850   4.360  0.7938 -1.6308 -0.4785
   17SAPS  H13S 2192   1.461   5.983   4.409 -2.2368 -0.7875  1.0100
   17SAPS  C214 2193   1.519   5.784   4.461 -0.0400 -0.1594 -0.5295
   17SAPS  H14R 2194   1.614   5.825   4.500 -0.3904  1.2858 -1.1138
   17SAPS  C215 2195   1.485   5.662   4.504  0.5618 -0.3648 -0.6311
   17SAPS  H15R 2196   1.551   5.606   4.571  0.6084  1.0694  0.5800
   17SAPS  C216 2197   1.357   5.592   4.466  0.3318 -0.1460  0.0388
   17SAPS  H16R 2198   1.367   5.513   4.388  1.7946 -0.3068  0.3610
   17SAPS  H16S 2199   1.283   5.668   4.431  0.9479  0.4722  0.0464
   17SAPS  C217 2200   1.292   5.531   4.601 -0.1599 -0.4972  0.8362
   17SAPS  H17R 2201   1.195   5.492   4.565 -0.3981  1.6562 -1.1028
   17SAPS  H17S 2202   1.269   5.606   4.679 -1.3925 -0.0510  0.0609
   17SAPS  C218 2203   1.375   5.421   4.661 -0.2161 -0.0154  0.1861
   17SAPS  H18R 2204   1.451   5.471   4.724 -0.9223  1.1849  0.1320
   17SAPS  H18S 2205   1.426   5.363   4.581  0.1915  1.2554 -0.5160
   17SAPS  C219 2206   1.285   5.318   4.734 -0.4282  0.0761  0.4348
   17SAPS  H19R 2207   1.197   5.312   4.666 -1.1436  1.6052  1.1786
   17SAPS  H19S 2208   1.251   5.370   4.827  0.5249  0.6359  0.4877
   17SAPS  C220 2209   1.349   5.182   4.757  0.1483  1.0558  0.2503
   17SAPS  H20R 2210   1.437   5.199   4.823  0.7470  0.7744 -0.4630
   17SAPS  H20S 2211   1.398   5.133   4.670  1.6308  2.1050  0.4456
   17SAPS  H20T 2212   1.271   5.115   4.797 -0.5792 -0.0164 -2.7017
   17SAPS   C33 2213   1.947   6.098   3.791 -0.5736 -0.2718  0.4179
   17SAPS   H3X 2214   1.861   6.028   3.784 -0.8218  0.1260 -0.6878
   17SAPS   H3Y 2215   1.939   6.204   3.757  0.5579 -0.7801 -1.6435
   17SAPS   C34 2216   1.992   6.115   3.941 -0.0941  0.3613  0.0387
   17SAPS   H4X 2217   2.101   6.136   3.949 -0.4432  2.3299  0.2472
   17SAPS   H4Y 2218   1.970   6.018   3.990  0.6065  0.6722  0.9917
   17SAPS   C35 2219   1.923   6.232   4.011  0.2323  0.2678  0.9388
   17SAPS   H5X 2220   1.816   6.213   4.034  0.2091 -0.3229  0.3782
   17SAPS   H5Y 2221   1.931   6.320   3.943  0.4468 -1.2886 -1.1532
   17SAPS   C36 2222   1.973   6.251   4.149  0.2062 -0.1320 -0.1695
   17SAPS   H6X 2223   1.928   6.341   4.196  1.2227  0.5031 -0.3741
   17SAPS   H6Y 2224   2.084   6.265   4.150  0.2758 -0.6231 -0.4496
   17SAPS   C37 2225   1.934   6.133   4.238 -0.1769 -0.0125 -0.1429
   17SAPS   H7X 2226   1.976   6.038   4.199 -0.2140 -0.6812  1.4063
   17SAPS   H7Y 2227   1.824   6.118   4.224 -0.2240  0.7949 -0.7025
   17SAPS   C38 2228   1.985   6.145   4.382  0.2758  0.2881 -0.2380
   17SAPS   H8X 2229   1.927   6.227   4.429 -1.1215 -0.4489 -0.6177
   17SAPS   H8Y 2230   2.093   6.171   4.392  0.2262  0.2311  0.5630
   17SAPS   C39 2231   1.969   6.005   4.453  0.7177 -0.1950  0.0486
   17SAPS   H9X 2232   2.032   5.922   4.416  0.0695 -1.4783  1.6800
   17SAPS   H9Y 2233   1.862   5.978   4.439 -0.3280  1.2062  3.9398
   17SAPS  C310 2234   1.987   6.015   4.602 -0.2990 -0.6884 -0.6888
   17SAPS  H10X 2235   2.083   6.068   4.620 -1.2787  0.8014  0.3571
   17SAPS  H10Y 2236   1.989   5.909   4.638  1.2193  0.0910  1.8216
   17SAPS  C311 2237   1.879   6.090   4.681  0.2730 -0.4494  0.1883
   17SAPS  H11X 2238   1.778   6.045   4.674 -0.8341  1.9923 -0.6824
   17SAPS  H11Y 2239   1.872   6.197   4.651 -0.6652 -0.0735  1.6558
   17SAPS  C312 2240   1.918   6.089   4.833 -0.4896  1.7448  0.4970
   17SAPS  H12X 2241   2.012   6.149   4.841 -1.0474  2.7093  0.0312
   17SAPS  H12Y 2242   1.949   5.985   4.858  2.6724  1.9277 -2.0191
   17SAPS  C313 2243   1.813   6.150   4.927  0.5629 -0.0416  0.6946
   17SAPS  H13X 2244   1.720   6.089   4.932  0.2616 -0.1477 -3.1764
   17SAPS  H13Y 2245   1.794   6.251   4.887 -3.0962 -0.9526 -0.2332
   17SAPS  C314 2246   1.869   6.185   5.064 -0.1354  0.6658 -1.0867
   17SAPS  H14X 2247   1.802   6.265   5.102  1.3893  0.6402  2.0141
   17SAPS  H14Y 2248   1.965   6.239   5.053  0.3062 -0.1039 -1.0843
   17SAPS  C315 2249   1.892   6.059   5.154 -0.4088 -0.5796 -0.2887
   17SAPS  H15X 2250   1.979   6.006   5.109  0.0287 -0.3842  0.3174
   17SAPS  H15Y 2251   1.805   5.989   5.153 -0.9532  0.0240  1.5582
   17SAPS  C316 2252   1.940   6.105   5.290 -0.1894  0.4007  0.4893
   17SAPS  H16X 2253   1.861   6.163   5.342  1.1829  3.2978 -0.4817
   17SAPS  H16Y 2254   2.021   6.180   5.279  0.4299 -0.1052  1.4309
   17SAPS  C317 2255   2.003   5.988   5.363  0.4268 -0.2974 -0.8443
   17SAPS  H17X 2256   2.112   5.986   5.344  0.5754 -2.2411 -0.0508
   17SAPS  H17Y 2257   1.954   5.895   5.326 -2.7965  1.0212 -0.2456
   17SAPS  C318 2258   1.969   5.986   5.514 -0.4724 -0.1909 -0.7564
   17SAPS  H18X 2259   1.859   5.971   5.510 -0.4877 -0.0656 -0.8225
   17SAPS  H18Y 2260   1.990   6.080   5.569 -2.0280  0.5569 -1.3837
   17SAPS  H18Z 2261   2.020   5.911   5.577 -0.0909  0.5985 -0.1023
   18SAPS     N 2262   2.371   0.038   7.749 -0.3516  0.2065 -0.2500
   18SAPS   HN1 2263   2.427   0.082   7.673  0.3847  0.5473  0.4801
   18SAPS   HN2 2264   2.397  -0.063   7.745 -1.1668  0.0270 -2.3176
   18SAPS   HN3 2265   2.272   0.060   7.727 -0.1643 -1.2865 -3.2138
   18SAPS   C12 2266   2.407   0.097   7.881 -0.0536 -0.0758 -0.4335
   18SAPS  H12A 2267   2.369   0.040   7.964  1.0706 -0.1337  0.0481
   18SAPS   C13 2268   2.557   0.113   7.910 -0.5815  0.6092  0.1450
   18SAPS  O13A 2269   2.638   0.059   7.827 -0.3681  0.4423 -0.4960
   18SAPS  O13B 2270   2.593   0.133   8.030 -0.0014  0.2392  0.0088
   18SAPS   C11 2271   2.343   0.239   7.876 -0.2855 -0.0280  0.5012
   18SAPS  H11A 2272   2.400   0.298   7.801  0.0852 -0.5239  0.3955
   18SAPS  H11B 2273   2.356   0.287   7.975  0.4201  1.1045 -0.1205
   18SAPS     P 2274   2.115   0.339   7.784 -0.3573 -0.1085  0.3017
   18SAPS   O13 2275   1.993   0.275   7.731  0.1340 -0.4945 -0.8232
   18SAPS   O14 2276   2.093   0.449   7.879  0.3536 -0.6039  0.5375
   18SAPS   O12 2277   2.196   0.232   7.858 -0.5675 -0.0197 -0.1121
   18SAPS   O11 2278   2.192   0.385   7.660  0.0633  0.8822  0.1744
   18SAPS    C1 2279   2.180   0.520   7.618 -0.1263 -0.1991  0.4816
   18SAPS    HA 2280   2.075   0.552   7.597  0.2227 -0.0557 -1.1732
   18SAPS    HB 2281   2.218   0.591   7.695 -1.4076  0.4116  0.5946
   18SAPS    C2 2282   2.270   0.551   7.495 -0.6270  0.1769  0.1702
   18SAPS    HS 2283   2.254   0.660   7.481 -2.3262 -0.2995 -2.5953
   18SAPS   O21 2284   2.228   0.471   7.376  0.0286 -1.0653 -0.3609
   18SAPS   C21 2285   2.117   0.517   7.323  0.7317  0.8055  0.6332
   18SAPS   O22 2286   2.044   0.607   7.361  0.1960  0.3267  0.6441
   18SAPS   C22 2287   2.094   0.427   7.208 -0.6296  0.5286  0.3717
   18SAPS   H2R 2288   2.075   0.322   7.238 -1.5867  1.0071  1.5173
   18SAPS   H2S 2289   1.993   0.455   7.172 -0.0235  1.2119 -0.8638
   18SAPS    C3 2290   2.412   0.522   7.529  0.4806  0.0628 -0.1830
   18SAPS    HX 2291   2.431   0.418   7.563  0.2868  0.8282  2.5194
   18SAPS    HY 2292   2.436   0.576   7.624  0.7537  1.7888 -1.1941
   18SAPS   O31 2293   2.504   0.564   7.429  0.6500  0.3844  0.6841
   18SAPS   C31 2294   2.525   0.471   7.338  0.0866 -0.1541 -0.1889
   18SAPS   O32 2295   2.489   0.354   7.352  0.6889  0.1362 -0.4489
   18SAPS   C32 2296   2.596   0.531   7.222  0.3195  0.2323  0.9079
   18SAPS   H2X 2297   2.667   0.606   7.263  0.7803  1.2957 -1.6723
   18SAPS   H2Y 2298   2.517   0.582   7.163 -0.3374 -2.2869 -0.5460
   18SAPS   C23 2299   2.207   0.436   7.101 -0.5012 -0.3852  0.2695
   18SAPS   H3R 2300   2.181   0.374   7.013  1.1681  0.5259 -0.9219
   18SAPS   H3S 2301   2.304   0.401   7.141  0.4461  0.4244 -1.2476
   18SAPS   C24 2302   2.235   0.578   7.049 -0.0745 -0.1808  0.1026
   18SAPS   H4R 2303   2.324   0.579   6.982 -0.9118 -2.1719 -1.1336
   18SAPS   H4S 2304   2.281   0.639   7.129  2.1833  2.2995 -2.8436
   18SAPS   C25 2305   2.118   0.642   6.978  0.3668  0.2447 -0.2895
   18SAPS   H5R 2306   2.032   0.668   7.041 -0.6843  1.4820 -2.1199
   18SAPS   C26 2307   2.100   0.677   6.855 -1.1405 -0.3591 -0.2053
   18SAPS   H6R 2308   2.004   0.722   6.827 -0.7239 -0.0514 -1.1993
   18SAPS   C27 2309   2.199   0.659   6.737  0.3143 -0.2044  0.4409
   18SAPS   H7R 2310   2.150   0.601   6.656 -1.9761  2.5105 -0.2662
   18SAPS   H7S 2311   2.287   0.595   6.763  0.7441  0.3146  0.2953
   18SAPS   C28 2312   2.253   0.788   6.675 -0.4005 -0.5808 -0.5023
   18SAPS   H8R 2313   2.337   0.837   6.726 -1.9309  1.0382  0.5857
   18SAPS   C29 2314   2.211   0.845   6.566 -0.2985 -0.3409 -0.6315
   18SAPS   H9R 2315   2.251   0.944   6.537 -0.4979  0.3307  1.2481
   18SAPS  C210 2316   2.106   0.807   6.468 -0.3282 -0.1741  0.1816
   18SAPS  H10R 2317   2.049   0.897   6.436  0.3104  1.2709  2.7369
   18SAPS  H10S 2318   2.040   0.734   6.520  0.7024  0.4927  2.6094
   18SAPS  C211 2319   2.172   0.741   6.349  0.2176  0.0626  0.8133
   18SAPS  H11R 2320   2.239   0.657   6.373  1.5547  0.9748  0.3786
   18SAPS  C212 2321   2.143   0.772   6.220  0.5030 -0.2513  0.1986
   18SAPS  H12R 2322   2.206   0.722   6.145  1.9457  0.0430  1.1749
   18SAPS  C213 2323   2.057   0.877   6.171 -0.1476 -0.8353  0.5142
   18SAPS  H13R 2324   2.095   0.979   6.192 -0.3828 -0.7408  0.4850
   18SAPS  H13S 2325   1.963   0.870   6.230  0.3189 -1.2234  1.2146
   18SAPS  C214 2326   2.039   0.862   6.021 -0.0785  0.4687  0.6432
   18SAPS  H14R 2327   1.985   0.770   5.993  0.1920  0.5166 -0.0435
   18SAPS  C215 2328   2.088   0.944   5.931  0.3059  0.0194  0.2604
   18SAPS  H15R 2329   2.050   0.933   5.828  0.7087  0.8298  0.0180
   18SAPS  C216 2330   2.167   1.070   5.957 -0.1978  0.4298  0.5576
   18SAPS  H16R 2331   2.250   1.052   6.027 -0.2685 -2.6638 -0.0245
   18SAPS  H16S 2332   2.093   1.147   5.989  0.7970  0.9562  1.6346
   18SAPS  C217 2333   2.230   1.128   5.829  0.3366  0.7739  0.3466
   18SAPS  H17R 2334   2.150   1.151   5.754 -2.2608 -0.2496  2.6384
   18SAPS  H17S 2335   2.308   1.062   5.786  0.0393  1.0241 -0.6168
   18SAPS  C218 2336   2.303   1.266   5.848  0.1613 -0.6640 -0.1463
   18SAPS  H18R 2337   2.344   1.302   5.751 -2.2471 -0.3417 -1.1013
   18SAPS  H18S 2338   2.391   1.251   5.914  1.1440  0.8777 -1.0415
   18SAPS  C219 2339   2.204   1.371   5.905 -0.2295 -0.0292  1.1455
   18SAPS  H19R 2340   2.192   1.359   6.015  0.4143 -0.4120  1.1778
   18SAPS  H19S 2341   2.110   1.364   5.846  1.3532  2.3308 -1.9712
   18SAPS  C220 2342   2.258   1.516   5.877  0.3742 -0.4499  0.1309
   18SAPS  H20R 2343   2.222   1.549   5.777  0.4875  1.7991  0.7765
   18SAPS  H20S 2344   2.368   1.526   5.885  0.2981 -0.1518  0.8445
   18SAPS  H20T 2345   2.215   1.587   5.951  0.5981 -0.9841  0.7714
   18SAPS   C33 2346   2.680   0.441   7.135 -0.7395  0.6776 -0.9661
   18SAPS   H3X 2347   2.720   0.366   7.207 -1.8605  0.9016 -0.0833
   18SAPS   H3Y 2348   2.764   0.495   7.087  0.6728 -1.2634 -0.8103
   18SAPS   C34 2349   2.592   0.366   7.023  0.0369  0.8232 -0.0138
   18SAPS   H4X 2350   2.514   0.429   6.974 -1.6674 -0.4723  0.9198
   18SAPS   H4Y 2351   2.536   0.283   7.071 -1.8826  3.2754  2.2752
   18SAPS   C35 2352   2.690   0.302   6.923  0.7014  0.4221 -0.2303
   18SAPS   H5X 2353   2.624   0.230   6.870  2.3520  0.5213 -2.6179
   18SAPS   H5Y 2354   2.769   0.237   6.967 -0.7413 -1.1486  0.1391
   18SAPS   C36 2355   2.748   0.392   6.801 -0.1529  0.2369 -0.7008
   18SAPS   H6X 2356   2.817   0.323   6.748  0.4951  0.7062 -0.4854
   18SAPS   H6Y 2357   2.809   0.476   6.840 -0.5167  0.6458 -0.9942
   18SAPS   C37 2358   2.632   0.439   6.713  0.2897  1.0139 -0.3130
   18SAPS   H7X 2359   2.557   0.499   6.769 -0.7542 -0.8254  0.3639
   18SAPS   H7Y 2360   2.584   0.342   6.688 -1.1161  1.3435  0.9290
   18SAPS   C38 2361   2.676   0.533   6.600  0.6705 -0.1698  0.3476
   18SAPS   H8X 2362   2.742   0.474   6.532  0.2641 -0.6402  0.3529
   18SAPS   H8Y 2363   2.740   0.614   6.640 -0.5487  1.1889 -0.3709
   18SAPS   C39 2364   2.554   0.592   6.519 -0.5684 -0.6295  0.0192
   18SAPS   H9X 2365   2.584   0.677   6.454  0.6992 -1.8065 -0.9914
   18SAPS   H9Y 2366   2.487   0.628   6.599  0.9345  1.7482  0.3084
   18SAPS  C310 2367   2.468   0.496   6.439  0.3586 -0.5736  0.4770
   18SAPS  H10X 2368   2.360   0.515   6.449 -0.7715 -4.4877 -1.8097
   18SAPS  H10Y 2369   2.478   0.391   6.475  2.1404 -0.6118 -0.0162
   18SAPS  C311 2370   2.494   0.506   6.293 -0.0950 -0.3374  1.4082
   18SAPS  H11X 2371   2.598   0.483   6.262 -0.2906 -1.0593  1.2650
   18SAPS  H11Y 2372   2.474   0.613   6.269  1.6251 -0.1628  0.6566
   18SAPS  C312 2373   2.408   0.421   6.199  0.4196 -0.1492  0.1675
   18SAPS  H12X 2374   2.411   0.452   6.092 -1.7266 -2.5090 -0.6610
   18SAPS  H12Y 2375   2.303   0.422   6.232  0.8549  1.6767  1.6626
   18SAPS  C313 2376   2.464   0.282   6.211 -0.3730  0.8691  0.3037
   18SAPS  H13X 2377   2.435   0.253   6.314 -0.8338  1.8860  0.4743
   18SAPS  H13Y 2378   2.574   0.281   6.193 -0.6664  0.0830 -1.7031
   18SAPS  C314 2379   2.389   0.188   6.112  0.0438  0.0071  0.0332
   18SAPS  H14X 2380   2.280   0.193   6.131 -0.1378 -0.6428 -0.7888
   18SAPS  H14Y 2381   2.433   0.087   6.127  2.0681  1.0945  2.0990
   18SAPS  C315 2382   2.416   0.229   5.972  0.2427  0.5304  0.5084
   18SAPS  H15X 2383   2.522   0.261   5.960  0.5215 -1.0656 -1.7526
   18SAPS  H15Y 2384   2.351   0.316   5.946  0.8126  0.8254  0.0364
   18SAPS  C316 2385   2.376   0.126   5.863 -0.2894  0.5103  0.8085
   18SAPS  H16X 2386   2.267   0.135   5.842 -0.6814  1.3932  2.9675
   18SAPS  H16Y 2387   2.405   0.021   5.886  0.7055  0.5200 -0.3116
   18SAPS  C317 2388   2.450   0.152   5.729  0.3736 -0.4726  0.2539
   18SAPS  H17X 2389   2.412   0.076   5.658  0.1179 -0.3785  0.2900
   18SAPS  H17Y 2390   2.560   0.149   5.744  0.6316 -0.8625 -1.5124
   18SAPS  C318 2391   2.412   0.285   5.663  0.0345  0.1131  0.6178
   18SAPS  H18X 2392   2.470   0.369   5.707  0.8522  0.1026 -0.4106
   18SAPS  H18Y 2393   2.308   0.319   5.675 -0.1188  0.3213 -1.0661
   18SAPS  H18Z 2394   2.443   0.294   5.557 -1.4977  1.8404  0.2886
   19SAPS     N 2395   0.417   2.544   2.608 -0.6759 -0.0258  1.2785
   19SAPS   HN1 2396   0.341   2.525   2.540  1.6992 -0.6157 -1.4094
   19SAPS   HN2 2397   0.486   2.601   2.555 -0.7732 -2.4066 -1.6618
   19SAPS   HN3 2398   0.474   2.460   2.631  1.9390  0.5213 -2.3445
   19SAPS   C12 2399   0.369   2.618   2.724  0.0221  0.1598 -0.4812
   19SAPS  H12A 2400   0.343   2.720   2.698 -1.4076  0.1848  0.8902
   19SAPS   C13 2401   0.234   2.561   2.785 -0.3526  0.5622  0.0507
   19SAPS  O13A 2402   0.189   2.457   2.735  0.4838  0.6355 -0.2664
   19SAPS  O13B 2403   0.176   2.621   2.877  0.4329  0.5319 -0.4512
   19SAPS   C11 2404   0.481   2.608   2.843 -0.6760 -0.3539 -0.7960
   19SAPS  H11A 2405   0.492   2.505   2.882  1.9287  0.0701 -0.1836
   19SAPS  H11B 2406   0.442   2.680   2.918 -1.5402 -0.9164 -0.6951
   19SAPS     P 2407   0.736   2.621   2.888 -0.1500  0.1179  0.5103
   19SAPS   O13 2408   0.814   2.510   2.824 -0.4522 -0.4802  0.6306
   19SAPS   O14 2409   0.803   2.748   2.902  0.6893 -0.5530 -0.2219
   19SAPS   O12 2410   0.606   2.658   2.800  0.1093  0.5293  0.0027
   19SAPS   O11 2411   0.687   2.565   3.031  0.5245  0.0435  0.0703
   19SAPS    C1 2412   0.621   2.632   3.132  0.8352 -0.2105 -0.2043
   19SAPS    HA 2413   0.573   2.726   3.097  0.5731  0.5713  2.0486
   19SAPS    HB 2414   0.540   2.569   3.175 -1.5023  2.1652 -0.8595
   19SAPS    C2 2415   0.730   2.662   3.236 -0.1152  0.0485 -0.5359
   19SAPS    HS 2416   0.825   2.687   3.184 -0.1719  0.4426 -0.4552
   19SAPS   O21 2417   0.754   2.540   3.313 -0.2146  0.4676 -0.6187
   19SAPS   C21 2418   0.864   2.544   3.392 -0.6499  0.0457  0.4112
   19SAPS   O22 2419   0.944   2.636   3.385 -0.4823 -0.4950  0.1169
   19SAPS   C22 2420   0.840   2.441   3.501 -0.7872 -0.2287  0.1269
   19SAPS   H2R 2421   0.739   2.464   3.542 -1.0677  1.2564 -1.2962
   19SAPS   H2S 2422   0.845   2.340   3.455  1.0649  0.2173 -0.7494
   19SAPS    C3 2423   0.692   2.782   3.331  0.2999 -0.1438  0.2444
   19SAPS    HX 2424   0.692   2.873   3.266 -1.9385  0.5065  1.0934
   19SAPS    HY 2425   0.771   2.809   3.404  0.5091  1.3326 -0.4844
   19SAPS   O31 2426   0.554   2.764   3.371 -0.2159  0.2594  0.5132
   19SAPS   C31 2427   0.546   2.725   3.490  0.8665 -0.1549  0.2088
   19SAPS   O32 2428   0.634   2.729   3.573  0.3914 -0.1889  0.2440
   19SAPS   C32 2429   0.403   2.681   3.529 -0.1563  0.4823  0.5945
   19SAPS   H2X 2430   0.380   2.592   3.466 -0.7668  2.2978 -1.8666
   19SAPS   H2Y 2431   0.334   2.767   3.512 -0.2492  0.1944 -0.5586
   19SAPS   C23 2432   0.959   2.454   3.603  0.9400  0.1215  0.1554
   19SAPS   H3R 2433   0.918   2.401   3.692 -0.4949  0.9087 -0.0135
   19SAPS   H3S 2434   0.967   2.556   3.646 -1.5393  0.0770  0.8838
   19SAPS   C24 2435   1.088   2.403   3.560 -0.4716  0.0394  0.7078
   19SAPS   H4R 2436   1.172   2.448   3.617  1.5409  0.5637 -2.4273
   19SAPS   H4S 2437   1.114   2.443   3.459  0.1699  0.1783  0.9247
   19SAPS   C25 2438   1.103   2.254   3.564  0.3768  0.3262 -0.7779
   19SAPS   H5R 2439   1.046   2.187   3.497  1.3907 -0.4486 -0.9012
   19SAPS   C26 2440   1.183   2.186   3.647 -0.2302 -0.1225  0.0905
   19SAPS   H6R 2441   1.182   2.078   3.628  0.7221 -0.0014 -0.7560
   19SAPS   C27 2442   1.279   2.240   3.752 -0.1797  0.4894  0.1838
   19SAPS   H7R 2443   1.250   2.346   3.763  0.8282  0.7141  0.7759
   19SAPS   H7S 2444   1.387   2.252   3.728 -0.3030  1.6266  0.1421
   19SAPS   C28 2445   1.271   2.162   3.879  0.3912  0.2404  0.2548
   19SAPS   H8R 2446   1.302   2.057   3.869 -0.7957 -0.4349  2.8259
   19SAPS   C29 2447   1.213   2.206   3.994  0.2670  0.4370  0.8394
   19SAPS   H9R 2448   1.203   2.139   4.081 -1.1084 -0.2621  0.1814
   19SAPS  C210 2449   1.165   2.349   4.012 -0.0733  0.1481 -1.1178
   19SAPS  H10R 2450   1.114   2.385   3.921 -0.9442  2.3793  0.1845
   19SAPS  H10S 2451   1.248   2.422   4.017 -0.8084  0.9376 -0.0848
   19SAPS  C211 2452   1.065   2.370   4.118  0.1573  0.1098 -0.2090
   19SAPS  H11R 2453   0.963   2.366   4.078  0.1133 -2.4602 -0.0492
   19SAPS  C212 2454   1.083   2.376   4.259  0.6683  1.0464  0.3132
   19SAPS  H12R 2455   0.993   2.386   4.321  0.0742  2.1402 -0.6757
   19SAPS  C213 2456   1.212   2.389   4.321 -0.5206 -0.1055 -0.5758
   19SAPS  H13R 2457   1.234   2.489   4.366  0.6890 -1.5305  2.2691
   19SAPS  H13S 2458   1.297   2.368   4.253  0.3800 -0.0130  0.4945
   19SAPS  C214 2459   1.236   2.296   4.436 -0.3863 -0.2951  0.4391
   19SAPS  H14R 2460   1.258   2.194   4.402  0.5707  0.5729 -1.6991
   19SAPS  C215 2461   1.204   2.320   4.566  0.1846  0.5199  0.1285
   19SAPS  H15R 2462   1.215   2.236   4.635 -0.6357 -1.0253 -1.5431
   19SAPS  C216 2463   1.132   2.446   4.611  0.1607 -0.0385  0.1422
   19SAPS  H16R 2464   1.088   2.505   4.528 -0.1008 -1.5975 -0.8546
   19SAPS  H16S 2465   1.201   2.511   4.669 -0.5743  0.0094  0.9766
   19SAPS  C217 2466   1.008   2.422   4.700 -0.2101  0.2158 -0.2138
   19SAPS  H17R 2467   1.032   2.343   4.774  2.0179  0.3744 -0.7176
   19SAPS  H17S 2468   0.924   2.387   4.635  2.4638 -1.7206 -2.9004
   19SAPS  C218 2469   0.961   2.548   4.772 -0.8347  0.6100  0.1865
   19SAPS  H18R 2470   0.939   2.623   4.693 -1.1281  0.3873  0.0515
   19SAPS  H18S 2471   1.034   2.597   4.839 -0.0796  0.1275 -0.2610
   19SAPS  C219 2472   0.840   2.515   4.857  0.0313  0.4234  0.0382
   19SAPS  H19R 2473   0.762   2.476   4.788 -1.0703 -1.6131  2.3144
   19SAPS  H19S 2474   0.803   2.611   4.899 -0.4640 -0.0389  0.6650
   19SAPS  C220 2475   0.874   2.412   4.964 -0.2768  1.0533 -0.5941
   19SAPS  H20R 2476   0.888   2.308   4.929  0.2834 -0.3331  3.2716
   19SAPS  H20S 2477   0.792   2.405   5.038 -0.0587 -0.0755 -0.4426
   19SAPS  H20T 2478   0.950   2.447   5.037 -0.8990 -0.4045  0.8155
   19SAPS   C33 2479   0.390   2.643   3.677 -0.1576 -0.7399 -0.2706
   19SAPS   H3X 2480   0.283   2.643   3.706 -0.5859  0.2161 -1.7828
   19SAPS   H3Y 2481   0.439   2.709   3.752 -1.3687  0.0715 -0.1697
   19SAPS   C34 2482   0.437   2.495   3.707 -0.4554  0.5319 -0.5272
   19SAPS   H4X 2483   0.539   2.471   3.671 -0.8862 -0.7606 -0.9556
   19SAPS   H4Y 2484   0.364   2.437   3.646 -1.2427  0.5199  0.4073
   19SAPS   C35 2485   0.415   2.437   3.857  0.2893 -0.9792 -0.0597
   19SAPS   H5X 2486   0.497   2.478   3.920 -1.5231  2.1497  0.4728
   19SAPS   H5Y 2487   0.431   2.328   3.843 -0.9593 -1.4474  1.8661
   19SAPS   C36 2488   0.274   2.477   3.910 -0.1548  0.0247 -0.1951
   19SAPS   H6X 2489   0.199   2.461   3.829 -1.5461  1.7559  0.6875
   19SAPS   H6Y 2490   0.272   2.583   3.942  0.1900 -0.3466  1.1017
   19SAPS   C37 2491   0.243   2.388   4.033  0.4832 -0.2995 -0.1423
   19SAPS   H7X 2492   0.269   2.282   4.013 -0.7993 -0.5980 -0.3017
   19SAPS   H7Y 2493   0.135   2.392   4.055  0.4108  0.6919 -0.6416
   19SAPS   C38 2494   0.306   2.429   4.165 -0.2044 -0.1005 -0.2070
   19SAPS   H8X 2495   0.239   2.510   4.201  1.2238  2.1612 -2.3617
   19SAPS   H8Y 2496   0.407   2.473   4.153  0.4910 -2.0771 -2.2869
   19SAPS   C39 2497   0.301   2.316   4.266  0.6149  0.2828 -0.5564
   19SAPS   H9X 2498   0.381   2.246   4.232 -0.3086  0.3414 -3.0158
   19SAPS   H9Y 2499   0.201   2.269   4.259 -0.6865  2.7511  0.6268
   19SAPS  C310 2500   0.327   2.360   4.408 -0.7935  0.7634 -0.6093
   19SAPS  H10X 2501   0.265   2.450   4.430 -0.1741  1.4481 -1.6032
   19SAPS  H10Y 2502   0.428   2.405   4.411  0.2459 -1.3702 -1.6198
   19SAPS  C311 2503   0.307   2.256   4.520  0.5592  0.0083  0.2158
   19SAPS  H11X 2504   0.338   2.154   4.490 -2.0839 -0.9054  0.3146
   19SAPS  H11Y 2505   0.198   2.246   4.538  0.6853 -2.6491 -0.1995
   19SAPS  C312 2506   0.352   2.301   4.660 -0.0142 -0.1040 -0.1026
   19SAPS  H12X 2507   0.272   2.367   4.701 -0.3900 -1.2453  1.0588
   19SAPS  H12Y 2508   0.452   2.350   4.658 -0.7508  1.5668  1.5506
   19SAPS  C313 2509   0.370   2.182   4.750 -0.0153  0.0507 -0.1344
   19SAPS  H13X 2510   0.459   2.126   4.714 -1.4634 -2.1281 -0.5095
   19SAPS  H13Y 2511   0.277   2.122   4.740 -0.7358  0.9937  0.7592
   19SAPS  C314 2512   0.374   2.200   4.902 -0.2336  0.0003  0.0912
   19SAPS  H14X 2513   0.302   2.277   4.937  0.6177  0.5151  0.7529
   19SAPS  H14Y 2514   0.472   2.246   4.926 -0.1022 -0.3636  0.2492
   19SAPS  C315 2515   0.355   2.074   4.978 -0.0381  0.4324 -0.7531
   19SAPS  H15X 2516   0.427   1.992   4.957  0.1233  0.1137  0.8954
   19SAPS  H15Y 2517   0.255   2.028   4.963  0.9412 -1.6514 -1.2725
   19SAPS  C316 2518   0.373   2.092   5.132  0.1347  0.0203 -0.5837
   19SAPS  H16X 2519   0.480   2.101   5.161  0.3301 -0.9504 -0.9761
   19SAPS  H16Y 2520   0.352   1.988   5.166  0.1841 -0.1168 -0.9773
   19SAPS  C317 2521   0.280   2.192   5.206  0.5739  0.3071  0.2743
   19SAPS  H17X 2522   0.187   2.213   5.149  1.8800  2.4174 -1.2692
   19SAPS  H17Y 2523   0.330   2.292   5.202  0.4159  0.3408 -1.6596
   19SAPS  C318 2524   0.251   2.140   5.347  0.0656 -0.2434 -0.1337
   19SAPS  H18X 2525   0.341   2.154   5.411 -0.9438 -2.4612  1.9326
   19SAPS  H18Y 2526   0.202   2.041   5.359  1.8441 -1.4649 -2.2698
   19SAPS  H18Z 2527   0.177   2.206   5.399  1.6418  0.2451  1.6060
   20SAPS     N 2528   3.032   3.682   2.843 -0.0045 -0.0180  0.5616
   20SAPS   HN1 2529   3.123   3.634   2.856  1.1390  1.2044 -2.1529
   20SAPS   HN2 2530   2.954   3.617   2.868 -0.0066 -0.2140  0.0681
   20SAPS   HN3 2531   3.030   3.688   2.739  1.2075 -0.4208  0.5037
   20SAPS   C12 2532   3.024   3.808   2.923 -0.0930 -0.3806  0.0553
   20SAPS  H12A 2533   3.029   3.786   3.028 -0.1809  0.8150  0.3276
   20SAPS   C13 2534   3.119   3.929   2.884  0.1119  0.0786 -0.1894
   20SAPS  O13A 2535   3.209   3.908   2.799 -0.3768  0.3684 -0.4282
   20SAPS  O13B 2536   3.114   4.035   2.953  0.0724 -0.3196 -0.4391
   20SAPS   C11 2537   2.876   3.848   2.913  0.1239 -0.5530 -0.4039
   20SAPS  H11A 2538   2.862   3.866   2.805  1.0540  0.1910 -0.4138
   20SAPS  H11B 2539   2.864   3.942   2.971  0.8250 -0.0374 -1.0649
   20SAPS     P 2540   2.718   3.732   3.092 -0.1967  0.1554  0.2678
   20SAPS   O13 2541   2.643   3.857   3.120  0.4600  0.3756  0.5596
   20SAPS   O14 2542   2.643   3.605   3.095 -0.1196 -0.1689  0.6896
   20SAPS   O12 2543   2.784   3.746   2.948  0.1510 -0.0936  0.1392
   20SAPS   O11 2544   2.841   3.725   3.193 -0.3663  0.1160  0.1549
   20SAPS    C1 2545   2.836   3.788   3.324 -0.2815 -0.0001 -0.2304
   20SAPS    HA 2546   2.942   3.797   3.357 -0.5707  1.0097  0.4562
   20SAPS    HB 2547   2.807   3.895   3.321  2.8418  0.9516 -0.5460
   20SAPS    C2 2548   2.758   3.716   3.442  0.1146 -0.6062 -0.3459
   20SAPS    HS 2549   2.649   3.701   3.426 -0.3982  0.6857  1.5930
   20SAPS   O21 2550   2.780   3.788   3.563  0.1446  0.2443  0.6017
   20SAPS   C21 2551   2.711   3.895   3.583  1.4160  0.4672  0.0233
   20SAPS   O22 2552   2.606   3.931   3.533 -0.0224  0.5368 -0.2363
   20SAPS   C22 2553   2.778   3.960   3.707 -0.6271  0.2102  0.4189
   20SAPS   H2R 2554   2.842   3.891   3.766 -2.5898 -1.7887  0.3357
   20SAPS   H2S 2555   2.851   4.037   3.673  1.0403 -0.0459  3.0802
   20SAPS    C3 2556   2.810   3.574   3.456  0.5136  0.5245 -0.2517
   20SAPS    HX 2557   2.920   3.586   3.467  0.2540  2.1345  0.9190
   20SAPS    HY 2558   2.777   3.514   3.369 -3.9145 -0.5611  1.8781
   20SAPS   O31 2559   2.752   3.519   3.580 -0.1994 -0.1386  0.4781
   20SAPS   C31 2560   2.829   3.527   3.689 -0.3338  0.4355 -0.3499
   20SAPS   O32 2561   2.949   3.550   3.694  0.7823  0.4237  0.4260
   20SAPS   C32 2562   2.753   3.479   3.815 -0.3325 -0.1056 -0.3561
   20SAPS   H2X 2563   2.707   3.379   3.803 -0.2994 -0.0962 -0.5570
   20SAPS   H2Y 2564   2.671   3.548   3.845 -1.6573 -1.2091 -1.3179
   20SAPS   C23 2565   2.682   4.019   3.812 -0.2398  0.2794  0.2369
   20SAPS   H3R 2566   2.604   4.056   3.743  0.2877 -3.2830 -2.5722
   20SAPS   H3S 2567   2.726   4.100   3.875 -0.8913 -0.6503  1.9541
   20SAPS   C24 2568   2.623   3.899   3.893 -0.0732 -0.0603 -0.2254
   20SAPS   H4R 2569   2.564   3.840   3.820  1.0206 -1.4655 -0.0056
   20SAPS   H4S 2570   2.556   3.945   3.969  2.1737  0.2145  1.7319
   20SAPS   C25 2571   2.724   3.822   3.975  0.3464  0.1004 -0.2298
   20SAPS   H5R 2572   2.796   3.763   3.917 -1.8666 -1.1007 -1.8719
   20SAPS   C26 2573   2.744   3.815   4.109 -0.6837 -0.2614 -0.0287
   20SAPS   H6R 2574   2.832   3.761   4.147 -1.1945 -0.7837  0.4224
   20SAPS   C27 2575   2.655   3.901   4.199 -0.3054 -0.2615  0.4555
   20SAPS   H7R 2576   2.565   3.845   4.231 -0.0179  0.1337  2.0688
   20SAPS   H7S 2577   2.622   3.996   4.151 -0.2419  1.1420  3.0236
   20SAPS   C28 2578   2.714   3.940   4.331  0.0639 -0.6909 -0.8706
   20SAPS   H8R 2579   2.819   3.912   4.348  0.3157  0.9826  0.5935
   20SAPS   C29 2580   2.663   4.022   4.425  0.4712 -0.3383  0.2077
   20SAPS   H9R 2581   2.715   4.042   4.520  1.1427  1.6978 -0.5469
   20SAPS  C210 2582   2.525   4.074   4.414 -0.0540 -0.5303  0.1691
   20SAPS  H10R 2583   2.475   4.038   4.321 -1.9810  0.6400  0.6941
   20SAPS  H10S 2584   2.528   4.184   4.402 -2.9049 -0.2730  1.0151
   20SAPS  C211 2585   2.425   4.041   4.525  0.4222  0.6943 -0.1578
   20SAPS  H11R 2586   2.362   3.952   4.514  0.2092  0.4525  2.3639
   20SAPS  C212 2587   2.405   4.092   4.649  0.2627 -0.0467  0.1186
   20SAPS  H12R 2588   2.323   4.051   4.709  0.1426 -3.5037 -2.1771
   20SAPS  C213 2589   2.483   4.206   4.708  0.2954  0.4642 -0.6516
   20SAPS  H13R 2590   2.418   4.269   4.773 -0.5109 -1.3177  0.3676
   20SAPS  H13S 2591   2.501   4.284   4.632 -0.9040  0.6668 -0.7510
   20SAPS  C214 2592   2.614   4.170   4.786 -0.7003 -0.4935  0.1810
   20SAPS  H14R 2593   2.693   4.114   4.734 -1.1718 -0.8717 -0.1443
   20SAPS  C215 2594   2.636   4.209   4.913 -0.2040 -0.4490  0.6792
   20SAPS  H15R 2595   2.734   4.189   4.960 -0.6973 -0.5223  1.7070
   20SAPS  C216 2596   2.538   4.289   5.005 -0.0121  0.2621 -0.6255
   20SAPS  H16R 2597   2.540   4.260   5.112 -1.8795  1.9812 -0.0524
   20SAPS  H16S 2598   2.439   4.269   4.958  0.9578 -1.8625 -1.9453
   20SAPS  C217 2599   2.569   4.441   4.990 -0.1571  0.7609 -0.0294
   20SAPS  H17R 2600   2.545   4.459   4.883 -0.8211 -4.2580 -0.9427
   20SAPS  H17S 2601   2.675   4.472   5.002  0.0094  0.1835  0.0033
   20SAPS  C218 2602   2.480   4.541   5.077  0.1053 -0.6039  0.2642
   20SAPS  H18R 2603   2.380   4.549   5.031  0.4826 -0.9343 -0.6413
   20SAPS  H18S 2604   2.540   4.633   5.064  1.3755 -1.6964 -2.2695
   20SAPS  C219 2605   2.460   4.506   5.223  0.2651 -1.0361  0.0709
   20SAPS  H19R 2606   2.553   4.504   5.284  1.6023 -1.4956 -1.8956
   20SAPS  H19S 2607   2.415   4.404   5.221  1.5281 -1.6416  1.0977
   20SAPS  C220 2608   2.358   4.596   5.292 -0.3556 -0.0481  0.3115
   20SAPS  H20R 2609   2.399   4.698   5.305 -0.0749 -0.3513  2.1771
   20SAPS  H20S 2610   2.333   4.558   5.394 -0.5067  0.7896  0.5937
   20SAPS  H20T 2611   2.263   4.614   5.238 -0.6133  2.9979  1.5869
   20SAPS   C33 2612   2.841   3.482   3.939 -0.7469  0.2490 -0.2915
   20SAPS   H3X 2613   2.890   3.581   3.949  1.7842 -0.9341 -0.1903
   20SAPS   H3Y 2614   2.924   3.408   3.935 -1.1342 -0.2077 -0.0194
   20SAPS   C34 2615   2.770   3.439   4.064 -0.2733  0.6184 -0.3213
   20SAPS   H4X 2616   2.715   3.344   4.046  1.1591 -0.7387  1.9129
   20SAPS   H4Y 2617   2.690   3.513   4.088  0.5303  0.9943  1.3732
   20SAPS   C35 2618   2.861   3.415   4.179  0.0969  0.0204  0.2400
   20SAPS   H5X 2619   2.914   3.513   4.183 -2.5111  1.5560 -0.7120
   20SAPS   H5Y 2620   2.925   3.325   4.167 -1.7334 -1.7866  3.0979
   20SAPS   C36 2621   2.791   3.404   4.318 -0.2928  0.0777  0.0891
   20SAPS   H6X 2622   2.706   3.334   4.306  0.2896 -1.0406  2.0418
   20SAPS   H6Y 2623   2.740   3.499   4.347  0.3996  0.1691  1.0649
   20SAPS   C37 2624   2.878   3.367   4.437 -0.2985 -0.1128  0.1291
   20SAPS   H7X 2625   2.955   3.299   4.396  0.0667  0.3006  0.1144
   20SAPS   H7Y 2626   2.805   3.321   4.506 -0.1114 -0.4818  0.0794
   20SAPS   C38 2627   2.930   3.489   4.513  0.6635 -0.2669 -0.4951
   20SAPS   H8X 2628   2.969   3.566   4.443  1.1231  0.4952  0.5635
   20SAPS   H8Y 2629   3.024   3.473   4.571 -0.4500 -1.8684  0.9405
   20SAPS   C39 2630   2.835   3.549   4.614 -0.4718 -0.5933 -0.4652
   20SAPS   H9X 2631   2.783   3.467   4.668  0.8895 -0.9909  0.2997
   20SAPS   H9Y 2632   2.765   3.604   4.547 -0.8354  0.7600  0.9890
   20SAPS  C310 2633   2.896   3.653   4.712 -0.2263  0.5367  0.4120
   20SAPS  H10X 2634   2.944   3.732   4.650  1.2297 -0.5777  0.0781
   20SAPS  H10Y 2635   2.981   3.613   4.770  0.0764 -1.0078 -1.0192
   20SAPS  C311 2636   2.783   3.705   4.801 -0.1000 -0.9822  0.0174
   20SAPS  H11X 2637   2.727   3.615   4.836 -0.6061 -1.2846 -1.5062
   20SAPS  H11Y 2638   2.705   3.758   4.742 -1.2196  0.9198  2.9381
   20SAPS  C312 2639   2.824   3.791   4.921  0.6566  0.2797 -0.5413
   20SAPS  H12X 2640   2.905   3.862   4.892  1.7337  0.0295  1.6163
   20SAPS  H12Y 2641   2.872   3.724   4.996 -0.1487 -0.8393 -1.0009
   20SAPS  C313 2642   2.709   3.864   4.985  0.8297 -0.1451  0.0632
   20SAPS  H13X 2643   2.632   3.785   4.983  0.5968  0.0828 -0.0436
   20SAPS  H13Y 2644   2.675   3.945   4.917 -2.0374 -1.5890 -0.3482
   20SAPS  C314 2645   2.722   3.906   5.138 -0.2297  0.2492  0.2502
   20SAPS  H14X 2646   2.713   3.809   5.190 -2.2041 -1.9423 -3.6798
   20SAPS  H14Y 2647   2.634   3.965   5.169 -0.8263 -0.5124  0.0321
   20SAPS  C315 2648   2.846   3.984   5.175  0.2659 -0.8131 -0.4406
   20SAPS  H15X 2649   2.839   4.085   5.128 -2.1078 -1.0139 -0.6254
   20SAPS  H15Y 2650   2.937   3.935   5.134 -0.7199 -1.6058 -1.7613
   20SAPS  C316 2651   2.852   4.013   5.328 -0.5042  0.3726 -0.5316
   20SAPS  H16X 2652   2.874   3.920   5.384 -2.5830 -0.0523 -0.3344
   20SAPS  H16Y 2653   2.757   4.044   5.377  0.3038 -0.6108  1.8062
   20SAPS  C317 2654   2.968   4.113   5.362 -0.1503  0.1629  0.7488
   20SAPS  H17X 2655   2.966   4.124   5.473  3.5204 -0.0220  0.9330
   20SAPS  H17Y 2656   2.944   4.208   5.310  1.0758  0.7082  1.1366
   20SAPS  C318 2657   3.111   4.077   5.319  0.0972  0.3241  1.5047
   20SAPS  H18X 2658   3.122   4.066   5.209  1.6943  0.9314  1.5734
   20SAPS  H18Y 2659   3.143   3.976   5.352  0.9595 -0.2723 -0.9224
   20SAPS  H18Z 2660   3.179   4.154   5.361  1.5371  0.3696 -0.7363
   21CHL1    C3 2661   1.994   3.065   6.707  0.1711 -0.1910 -0.5860
   21CHL1    H3 2662   2.094   3.016   6.708 -0.1287 -0.8345  0.8645
   21CHL1    O3 2663   1.953   3.088   6.844  0.1475 -0.5801 -0.0382
   21CHL1   H3' 2664   1.869   3.135   6.843  1.1148  1.2799  0.7098
   21CHL1    C4 2665   1.997   3.203   6.636 -0.2567  0.0596  0.1999
   21CHL1   H4A 2666   1.912   3.275   6.642  0.4283  1.0761 -1.4325
   21CHL1   H4B 2667   2.080   3.253   6.690 -1.3679  0.8766  1.2060
   21CHL1    C5 2668   2.024   3.190   6.490  0.3768  0.8497 -0.7909
   21CHL1    C6 2669   2.124   3.253   6.427  0.1351 -0.3209 -0.2494
   21CHL1    H6 2670   2.193   3.311   6.490  0.4598  0.7457 -1.5476
   21CHL1    C7 2671   2.153   3.257   6.283  0.5900 -0.3538 -0.2821
   21CHL1   H7A 2672   2.175   3.358   6.243  1.1549 -0.1168  0.6068
   21CHL1   H7B 2673   2.243   3.196   6.261 -2.3518 -5.6448  0.5363
   21CHL1    C8 2674   2.030   3.200   6.199  0.0014 -0.0075 -0.5919
   21CHL1    H8 2675   1.952   3.278   6.211  0.2560 -0.0334  1.6293
   21CHL1   C14 2676   2.057   3.177   6.053 -0.4423  0.8739 -0.2793
   21CHL1   H14 2677   2.136   3.099   6.049 -0.6522  0.5715  0.9985
   21CHL1   C15 2678   2.100   3.295   5.969 -0.0046 -0.0642  0.4504
   21CHL1  H15A 2679   2.032   3.383   5.972  0.8143  0.5766  0.5307
   21CHL1  H15B 2680   2.205   3.329   5.981  0.6406 -0.3507 -3.2951
   21CHL1   C16 2681   2.099   3.244   5.828  0.5063  0.4231  0.2186
   21CHL1  H16A 2682   2.063   3.328   5.765  2.1454  0.7102 -0.3768
   21CHL1  H16B 2683   2.199   3.221   5.785 -0.2976 -1.3688 -0.8365
   21CHL1   C17 2684   2.008   3.112   5.827  0.1017  0.4892  0.3268
   21CHL1   H17 2685   2.093   3.040   5.832  0.2065  0.5830 -0.1177
   21CHL1   C13 2686   1.936   3.111   5.969  0.0879 -0.1804  0.4802
   21CHL1   C18 2687   1.822   3.213   5.957  0.4956 -0.2591  0.1818
   21CHL1  H18A 2688   1.789   3.236   6.061  1.3846 -1.9513  0.8731
   21CHL1  H18B 2689   1.855   3.306   5.906  3.3437 -0.8663  0.7617
   21CHL1  H18C 2690   1.746   3.150   5.906  1.3073 -2.0145  1.0731
   21CHL1   C12 2691   1.893   2.976   6.026  0.0093  0.4947  0.1693
   21CHL1  H12A 2692   1.812   2.929   5.966  2.0882 -2.9460 -0.1812
   21CHL1  H12B 2693   1.974   2.902   6.039  1.1319  0.9489 -3.1973
   21CHL1   C11 2694   1.855   2.998   6.171  0.0124 -0.5030 -0.1643
   21CHL1  H11A 2695   1.760   3.056   6.176  1.3149  1.6404  1.0218
   21CHL1  H11B 2696   1.829   2.906   6.227  2.7071 -0.6567  0.9988
   21CHL1    C9 2697   1.969   3.073   6.264 -0.8150  0.1575  0.1851
   21CHL1    H9 2698   2.057   3.004   6.265  0.8403  2.1811 -0.1300
   21CHL1   C10 2699   1.931   3.099   6.414 -0.0783  0.6267 -0.0686
   21CHL1   C19 2700   1.795   3.163   6.419  0.4876 -0.3174 -0.2134
   21CHL1  H19A 2701   1.766   3.201   6.520  2.8380 -0.4936  0.5727
   21CHL1  H19B 2702   1.779   3.246   6.347  0.0597 -0.5004 -0.3380
   21CHL1  H19C 2703   1.709   3.098   6.393 -1.5475  2.0721  0.1277
   21CHL1    C1 2704   1.925   2.966   6.491  0.7539  0.0811 -0.2230
   21CHL1   H1A 2705   1.847   2.897   6.454  0.2401  0.9446 -0.7835
   21CHL1   H1B 2706   2.025   2.919   6.485 -0.2153 -2.5814  2.0866
   21CHL1    C2 2707   1.898   2.971   6.642  0.0966  0.0040 -0.4293
   21CHL1   H2A 2708   1.930   2.872   6.681  0.7338  0.3802  0.0297
   21CHL1   H2B 2709   1.793   2.996   6.666  0.5127  1.0366  0.4217
   21CHL1   C20 2710   1.923   3.108   5.700  0.8720  0.6469  0.7803
   21CHL1   H20 2711   1.845   3.186   5.691  0.3711  0.0265 -0.5288
   21CHL1   C21 2712   1.843   2.967   5.693  0.0532 -0.0554 -0.6425
   21CHL1  H21A 2713   1.825   2.919   5.594  1.4939 -2.5324  0.2221
   21CHL1  H21B 2714   1.747   2.971   5.748  0.7491 -0.0586  0.6101
   21CHL1  H21C 2715   1.897   2.892   5.754 -0.5177  0.5577  0.6393
   21CHL1   C22 2716   2.012   3.110   5.572  0.0555 -0.0920  0.2386
   21CHL1  H22A 2717   2.056   3.211   5.557  1.3574 -0.6452  0.1878
   21CHL1  H22B 2718   2.092   3.035   5.587 -0.4921 -0.2688  2.6558
   21CHL1   C23 2719   1.937   3.079   5.438 -0.1038  0.1047  0.0217
   21CHL1  H23A 2720   2.009   3.090   5.354  0.9771  0.6413  0.9946
   21CHL1  H23B 2721   1.917   2.970   5.433 -0.0232  0.0026  1.5854
   21CHL1   C24 2722   1.808   3.156   5.420  0.1443 -0.6055  0.4092
   21CHL1  H24A 2723   1.745   3.130   5.508 -0.8987  0.8926  0.1542
   21CHL1  H24B 2724   1.812   3.267   5.413  1.0500 -0.5317  1.6504
   21CHL1   C25 2725   1.719   3.102   5.299 -0.5781  1.5575  0.2595
   21CHL1   H25 2726   1.683   3.001   5.328  0.6943  0.7840 -0.7683
   21CHL1   C26 2727   1.587   3.184   5.295 -0.0645 -0.0619 -0.3365
   21CHL1  H26A 2728   1.527   3.157   5.206  0.5117 -0.9814 -0.4617
   21CHL1  H26B 2729   1.527   3.161   5.385 -0.2441 -2.0956 -0.9383
   21CHL1  H26C 2730   1.613   3.292   5.299  0.3521  0.0304 -3.1165
   21CHL1   C27 2731   1.801   3.100   5.171 -0.7057 -1.2286  0.5157
   21CHL1  H27A 2732   1.882   3.024   5.180  1.5360  0.8166 -1.0494
   21CHL1  H27B 2733   1.745   3.081   5.077  0.0681  1.6251 -0.6292
   21CHL1  H27C 2734   1.857   3.195   5.155 -3.0083 -0.0111 -0.8815
   22CHL1    C3 2735   6.814   1.400   6.861  0.2098  0.9013 -0.5292
   22CHL1    H3 2736   6.905   1.340   6.838 -1.0076 -1.2460 -0.0703
   22CHL1    O3 2737   6.809   1.419   7.001 -0.7930 -0.1294 -1.0173
   22CHL1   H3' 2738   6.721   1.452   7.020 -1.4385 -1.2823 -1.8706
   22CHL1    C4 2739   6.828   1.541   6.801 -0.1195 -0.1218  0.5244
   22CHL1   H4A 2740   6.734   1.593   6.831 -1.6175 -0.7562 -2.6152
   22CHL1   H4B 2741   6.919   1.585   6.847 -0.2937  0.3344  0.4400
   22CHL1    C5 2742   6.834   1.546   6.647 -0.7112 -0.4684 -0.4429
   22CHL1    C6 2743   6.936   1.603   6.588  0.7430 -0.2201 -0.4348
   22CHL1    H6 2744   7.013   1.652   6.649  0.5825 -0.9700  0.3870
   22CHL1    C7 2745   6.953   1.608   6.444 -0.1097 -0.1280 -0.0498
   22CHL1   H7A 2746   6.994   1.706   6.412  0.1171 -0.4687 -0.8350
   22CHL1   H7B 2747   7.030   1.531   6.422  1.5821  1.1770  1.0176
   22CHL1    C8 2748   6.826   1.566   6.358  0.1864  0.2096  0.8123
   22CHL1    H8 2749   6.757   1.653   6.360 -0.6525 -0.2983 -2.0203
   22CHL1   C14 2750   6.869   1.530   6.213 -0.2962  0.9965  0.1750
   22CHL1   H14 2751   6.945   1.450   6.202 -0.6929  0.5443  0.6730
   22CHL1   C15 2752   6.933   1.645   6.142  0.1340 -0.5675 -0.2565
   22CHL1  H15A 2753   6.862   1.731   6.148  1.1439  0.6148 -3.4398
   22CHL1  H15B 2754   7.028   1.681   6.186 -0.2725  2.2364 -1.4331
   22CHL1   C16 2755   6.943   1.590   6.002 -0.6520 -0.2931 -1.6101
   22CHL1  H16A 2756   6.933   1.673   5.928 -1.2444  1.5693  0.4592
   22CHL1  H16B 2757   7.041   1.545   5.974 -0.0076 -0.4076  0.6946
   22CHL1   C17 2758   6.840   1.468   5.997  1.7133 -0.6217 -0.0523
   22CHL1   H17 2759   6.904   1.377   5.999 -0.4163 -2.2428  3.2796
   22CHL1   C13 2760   6.754   1.476   6.125  0.3935 -0.4668 -0.0300
   22CHL1   C18 2761   6.633   1.572   6.114 -0.2412 -0.4868 -0.2606
   22CHL1  H18A 2762   6.593   1.595   6.215  0.4113 -1.4432  0.2311
   22CHL1  H18B 2763   6.655   1.664   6.056 -1.0509  0.7952  1.3581
   22CHL1  H18C 2764   6.547   1.532   6.055  0.2636 -0.7202 -0.8483
   22CHL1   C12 2765   6.719   1.340   6.186  0.6303 -0.0738 -0.8898
   22CHL1  H12A 2766   6.643   1.283   6.127  0.5509 -1.1504  0.2096
   22CHL1  H12B 2767   6.807   1.273   6.195 -0.0379 -1.1618 -1.9845
   22CHL1   C11 2768   6.667   1.365   6.334  0.0457  0.0161 -0.4168
   22CHL1  H11A 2769   6.569   1.417   6.333  0.3845  0.6775 -1.5028
   22CHL1  H11B 2770   6.647   1.261   6.368  2.0151 -0.4032 -0.4288
   22CHL1    C9 2771   6.768   1.443   6.424 -0.0591  0.1287 -0.3931
   22CHL1    H9 2772   6.854   1.376   6.442  0.3448  0.9012  0.6866
   22CHL1   C10 2773   6.725   1.471   6.572 -0.0077 -0.1494 -0.7456
   22CHL1   C19 2774   6.588   1.549   6.575 -0.6170 -0.2561  0.1949
   22CHL1  H19A 2775   6.494   1.490   6.568  0.0118 -1.0474 -2.3698
   22CHL1  H19B 2776   6.580   1.604   6.672 -1.3744  2.7682 -1.4455
   22CHL1  H19C 2777   6.582   1.620   6.490 -0.6008  1.2517  1.4049
   22CHL1    C1 2778   6.714   1.333   6.640  0.4350  0.2719  0.5098
   22CHL1   H1A 2779   6.622   1.287   6.597  0.6972  2.1725 -2.3342
   22CHL1   H1B 2780   6.806   1.274   6.620  0.3826  0.7747 -1.4430
   22CHL1    C2 2781   6.693   1.333   6.796  0.2995 -0.4624  0.9262
   22CHL1   H2A 2782   6.674   1.231   6.836  0.2835 -0.3828  1.1246
   22CHL1   H2B 2783   6.601   1.391   6.820  1.1136  1.5404 -0.4795
   22CHL1   C20 2784   6.772   1.470   5.857  0.1252  0.0501  0.1364
   22CHL1   H20 2785   6.716   1.566   5.848 -1.2437 -0.9397 -3.1921
   22CHL1   C21 2786   6.673   1.351   5.850  0.4831  0.2679  0.0801
   22CHL1  H21A 2787   6.617   1.334   5.755 -3.1165 -2.1360  2.3765
   22CHL1  H21B 2788   6.593   1.384   5.921 -0.2175  0.2442 -0.6762
   22CHL1  H21C 2789   6.716   1.256   5.887  2.4712  1.4262  0.8893
   22CHL1   C22 2790   6.869   1.473   5.735 -0.6050  0.1064 -0.4090
   22CHL1  H22A 2791   6.949   1.550   5.744  1.9702 -2.3103 -1.0471
   22CHL1  H22B 2792   6.916   1.373   5.739 -2.1639 -0.6238  0.7496
   22CHL1   C23 2793   6.793   1.493   5.609  1.1656 -0.2263 -0.1031
   22CHL1  H23A 2794   6.692   1.537   5.618  1.5462  0.2995  2.5434
   22CHL1  H23B 2795   6.855   1.565   5.550  0.1160  1.8296  1.1959
   22CHL1   C24 2796   6.799   1.362   5.530 -0.8994 -0.4941 -0.3881
   22CHL1  H24A 2797   6.903   1.334   5.503 -0.3361  0.9604  0.2025
   22CHL1  H24B 2798   6.771   1.277   5.596  1.5889 -0.4936  0.7856
   22CHL1   C25 2799   6.713   1.356   5.407 -0.4579 -0.0484 -0.0471
   22CHL1   H25 2800   6.608   1.348   5.441 -0.1746  0.5847  0.9931
   22CHL1   C26 2801   6.728   1.467   5.299  0.0615  0.5476  0.7023
   22CHL1  H26A 2802   6.833   1.490   5.271  0.0199  3.5156  2.4941
   22CHL1  H26B 2803   6.664   1.437   5.213  1.3520  0.3017 -0.2011
   22CHL1  H26C 2804   6.681   1.560   5.338 -0.5215  0.2465  0.7356
   22CHL1   C27 2805   6.741   1.218   5.339  0.4714  0.0159 -0.0088
   22CHL1  H27A 2806   6.666   1.204   5.258  1.5630 -0.2628 -0.9960
   22CHL1  H27B 2807   6.843   1.210   5.296  0.9591  0.1881  1.0831
   22CHL1  H27C 2808   6.736   1.139   5.417  0.7123  0.4777  0.4790
   23CHL1    C3 2809   2.775   1.467   7.083  0.2051 -0.5017 -0.6888
   23CHL1    H3 2810   2.740   1.371   7.041 -0.0087 -0.3351 -0.8903
   23CHL1    O3 2811   2.776   1.471   7.221  0.2486  0.4339 -0.0170
   23CHL1   H3' 2812   2.870   1.483   7.235  0.1532  0.0227  1.1165
   23CHL1    C4 2813   2.914   1.492   7.019  0.0191  0.8244 -0.0942
   23CHL1   H4A 2814   2.940   1.597   7.042 -2.3787  1.2317  1.0697
   23CHL1   H4B 2815   2.985   1.429   7.077 -0.4212  0.9595  0.5980
   23CHL1    C5 2816   2.908   1.471   6.869 -0.2034 -0.4731  0.4033
   23CHL1    C6 2817   2.986   1.382   6.807 -0.1949 -0.4851  0.3381
   23CHL1    H6 2818   3.056   1.328   6.871 -0.5853 -1.0046  0.3277
   23CHL1    C7 2819   2.987   1.363   6.656 -0.1649 -0.2910 -0.5424
   23CHL1   H7A 2820   3.094   1.363   6.626  0.6882  0.0620  2.2582
   23CHL1   H7B 2821   2.929   1.273   6.624 -0.9966  1.1096 -3.2903
   23CHL1    C8 2822   2.916   1.477   6.583  0.5620 -0.0649  0.3424
   23CHL1    H8 2823   2.987   1.562   6.586  0.3585  0.0849  1.4639
   23CHL1   C14 2824   2.889   1.431   6.440 -0.4446  0.2700 -0.8326
   23CHL1   H14 2825   2.829   1.337   6.441 -0.2017  0.1179 -0.0839
   23CHL1   C15 2826   3.014   1.388   6.355  0.9329 -0.0731 -0.3594
   23CHL1  H15A 2827   3.095   1.461   6.378 -0.0740  0.5906  1.2478
   23CHL1  H15B 2828   3.045   1.282   6.371 -1.1795 -1.1371 -2.6728
   23CHL1   C16 2829   2.966   1.404   6.212  0.0743  0.6167  0.0662
   23CHL1  H16A 2830   3.028   1.474   6.153  0.2868  0.1801 -0.2371
   23CHL1  H16B 2831   2.961   1.304   6.163 -2.8757  0.2717  0.8451
   23CHL1   C17 2832   2.818   1.456   6.219 -0.3724  0.3547 -0.0664
   23CHL1   H17 2833   2.749   1.369   6.215 -1.7083  1.2227  2.4775
   23CHL1   C13 2834   2.805   1.520   6.359 -0.5732  0.1603  0.1490
   23CHL1   C18 2835   2.873   1.662   6.350  0.0202  0.5535 -0.0141
   23CHL1  H18A 2836   2.964   1.652   6.287  3.0153 -1.9577  4.2152
   23CHL1  H18B 2837   2.818   1.738   6.291  2.2062  1.1287 -1.4211
   23CHL1  H18C 2838   2.890   1.713   6.447 -1.8700 -0.9682  1.2062
   23CHL1   C12 2839   2.668   1.532   6.429 -0.2255  0.0302  0.1665
   23CHL1  H12A 2840   2.614   1.618   6.384 -0.7271  0.1258  0.9270
   23CHL1  H12B 2841   2.622   1.432   6.415  1.6803 -1.1676  1.8521
   23CHL1   C11 2842   2.675   1.580   6.572  0.2591  0.3306 -0.3096
   23CHL1  H11A 2843   2.704   1.687   6.573  2.1014 -0.1152  1.6548
   23CHL1  H11B 2844   2.583   1.584   6.635  1.8160 -1.3994  2.2710
   23CHL1    C9 2845   2.785   1.499   6.655 -0.3811  0.2942 -0.3821
   23CHL1    H9 2846   2.740   1.398   6.659 -0.4712  0.3191 -0.7299
   23CHL1   C10 2847   2.796   1.558   6.801  0.3251 -0.0306  0.0854
   23CHL1   C19 2848   2.858   1.698   6.786  0.1934 -0.6392 -0.6820
   23CHL1  H19A 2849   2.781   1.773   6.758  0.8094 -0.0580 -0.8406
   23CHL1  H19B 2850   2.897   1.738   6.882  2.0996 -1.0023 -1.2637
   23CHL1  H19C 2851   2.935   1.707   6.706 -1.4661 -2.7807 -2.6620
   23CHL1    C1 2852   2.660   1.556   6.877  0.5408  0.1706 -0.8990
   23CHL1   H1A 2853   2.578   1.624   6.844 -1.7833 -1.3974  1.1839
   23CHL1   H1B 2854   2.614   1.455   6.867 -0.7306  0.3307  2.1686
   23CHL1    C2 2855   2.678   1.575   7.033  0.1907  0.1005  0.1216
   23CHL1   H2A 2856   2.573   1.563   7.067 -0.9167  0.2179 -2.9251
   23CHL1   H2B 2857   2.723   1.675   7.053 -1.4545  1.1863 -1.3519
   23CHL1   C20 2858   2.785   1.544   6.099 -0.0804 -0.1804 -0.0303
   23CHL1   H20 2859   2.848   1.636   6.100 -1.3110  0.6975 -0.3581
   23CHL1   C21 2860   2.636   1.593   6.101  0.0868 -0.0090  0.6324
   23CHL1  H21A 2861   2.600   1.630   6.199  1.6676 -0.0109  1.2574
   23CHL1  H21B 2862   2.580   1.498   6.089  2.6419 -1.5079 -0.4643
   23CHL1  H21C 2863   2.615   1.666   6.020 -0.7365  1.0565  1.7797
   23CHL1   C22 2864   2.825   1.469   5.961 -0.1277 -1.1559 -0.5583
   23CHL1  H22A 2865   2.927   1.431   5.980  0.2797  0.8222  1.7134
   23CHL1  H22B 2866   2.766   1.376   5.950 -0.9150 -0.5713 -1.4556
   23CHL1   C23 2867   2.826   1.563   5.836  0.6977 -0.4426  1.2241
   23CHL1  H23A 2868   2.736   1.627   5.846  0.7818 -0.5890  3.5483
   23CHL1  H23B 2869   2.911   1.633   5.851  0.3821  0.3589 -0.5937
   23CHL1   C24 2870   2.829   1.491   5.705 -0.7868  0.3246  0.5171
   23CHL1  H24A 2871   2.916   1.422   5.700 -0.7481  0.4777 -1.5711
   23CHL1  H24B 2872   2.735   1.433   5.694 -0.8223  0.4762 -0.0009
   23CHL1   C25 2873   2.841   1.587   5.588 -0.1622  0.4065 -0.8168
   23CHL1   H25 2874   2.927   1.652   5.612  0.2581  0.1090 -1.5029
   23CHL1   C26 2875   2.866   1.517   5.457 -0.4142 -0.0654 -0.9237
   23CHL1  H26A 2876   2.767   1.474   5.428 -1.6193  2.4700 -0.8629
   23CHL1  H26B 2877   2.903   1.592   5.385 -0.1030 -0.5240 -1.2484
   23CHL1  H26C 2878   2.941   1.435   5.460  1.6373  1.7277  2.0980
   23CHL1   C27 2879   2.715   1.685   5.585  0.0607 -0.2674  0.1174
   23CHL1  H27A 2880   2.621   1.627   5.592 -0.6440  0.6394 -1.4009
   23CHL1  H27B 2881   2.710   1.761   5.665  0.1716  1.4859 -1.4671
   23CHL1  H27C 2882   2.712   1.731   5.484 -2.2758  1.6070  0.9558
   24CHL1    C3 2883   5.488   1.312   6.884 -0.6221 -0.3219 -0.1638
   24CHL1    H3 2884   5.587   1.314   6.833  0.0467 -3.6781  0.7597
   24CHL1    O3 2885   5.498   1.394   6.998  0.0839  0.6457 -0.0149
   24CHL1   H3' 2886   5.422   1.369   7.051  1.0501 -0.4143  0.9508
   24CHL1    C4 2887   5.370   1.353   6.802  0.2238 -0.6066  0.7988
   24CHL1   H4A 2888   5.271   1.333   6.847 -0.9722  1.5447 -0.6657
   24CHL1   H4B 2889   5.368   1.464   6.791 -2.4960 -0.7985 -1.7155
   24CHL1    C5 2890   5.384   1.285   6.671  0.4514 -0.3382  0.3048
   24CHL1    C6 2891   5.389   1.349   6.555 -0.1940  0.7738  0.2480
   24CHL1    H6 2892   5.376   1.458   6.555 -0.3875  0.7590  0.9881
   24CHL1    C7 2893   5.388   1.291   6.417 -0.6404  0.1069 -0.5606
   24CHL1   H7A 2894   5.323   1.351   6.350  0.7795  1.2391 -0.9906
   24CHL1   H7B 2895   5.491   1.309   6.379 -0.8730  1.0885 -0.7601
   24CHL1    C8 2896   5.360   1.140   6.417 -1.0253  0.5137  0.9414
   24CHL1    H8 2897   5.250   1.125   6.423 -0.7974 -0.7704  2.3404
   24CHL1   C14 2898   5.425   1.072   6.290 -0.7736 -0.6750 -1.0794
   24CHL1   H14 2899   5.534   1.074   6.310 -1.0032 -3.4810  1.1080
   24CHL1   C15 2900   5.414   1.149   6.154  0.1968 -0.0627 -0.3210
   24CHL1  H15A 2901   5.313   1.196   6.145 -0.5672 -1.3988  0.9089
   24CHL1  H15B 2902   5.489   1.226   6.127  0.3765  0.3578  1.2944
   24CHL1   C16 2903   5.413   1.023   6.063 -0.6077  0.0340  0.6612
   24CHL1  H16A 2904   5.306   1.015   6.036 -1.0594 -0.6511  2.4709
   24CHL1  H16B 2905   5.473   1.049   5.973 -0.8917  0.5293  0.6104
   24CHL1   C17 2906   5.453   0.901   6.143  0.5601  0.0922 -0.1454
   24CHL1   H17 2907   5.563   0.902   6.159  0.9426  1.3191 -2.4346
   24CHL1   C13 2908   5.387   0.930   6.283 -0.2521  0.0790  0.6047
   24CHL1   C18 2909   5.229   0.900   6.270 -0.8890  0.6166  0.0246
   24CHL1  H18A 2910   5.228   0.789   6.265  0.1388  0.4639  1.9308
   24CHL1  H18B 2911   5.176   0.936   6.361 -0.0568  1.0355  0.3605
   24CHL1  H18C 2912   5.177   0.948   6.184 -0.7973 -0.6678 -0.7686
   24CHL1   C12 2913   5.446   0.845   6.397  0.5864  0.2689 -0.5850
   24CHL1  H12A 2914   5.410   0.740   6.388  1.5551 -0.1429  0.2299
   24CHL1  H12B 2915   5.556   0.843   6.382  0.2445  1.8025 -4.6567
   24CHL1   C11 2916   5.411   0.912   6.536  0.0371 -0.7905  0.7638
   24CHL1  H11A 2917   5.304   0.887   6.558  0.2951 -3.0191 -0.2135
   24CHL1  H11B 2918   5.480   0.854   6.600  2.1824 -0.2876 -0.9941
   24CHL1    C9 2919   5.427   1.068   6.539  0.1358  0.2382  0.4679
   24CHL1    H9 2920   5.535   1.092   6.533  0.0814  0.4780  0.4461
   24CHL1   C10 2921   5.384   1.130   6.678  0.3562  0.4595 -0.0162
   24CHL1   C19 2922   5.236   1.090   6.715 -0.6771  0.3835 -0.0865
   24CHL1  H19A 2923   5.226   0.983   6.744  1.7938  0.6613  2.2396
   24CHL1  H19B 2924   5.195   1.147   6.801  2.9348 -1.4795  3.1833
   24CHL1  H19C 2925   5.172   1.118   6.629 -0.6272  3.0022  0.6492
   24CHL1    C1 2926   5.479   1.079   6.794 -0.2292  0.1630  0.2734
   24CHL1   H1A 2927   5.464   0.975   6.828 -0.0966 -0.5372 -1.6586
   24CHL1   H1B 2928   5.584   1.068   6.761 -0.1946 -3.1667  1.1198
   24CHL1    C2 2929   5.477   1.170   6.923  0.6056  0.5764  0.5280
   24CHL1   H2A 2930   5.560   1.133   6.987  0.1971 -0.9349  0.2099
   24CHL1   H2B 2931   5.375   1.159   6.964  0.5758 -2.2590 -0.1222
   24CHL1   C20 2932   5.428   0.759   6.070  0.5091  0.3017  0.1654
   24CHL1   H20 2933   5.324   0.726   6.094  1.1403 -1.7372  0.3330
   24CHL1   C21 2934   5.529   0.665   6.131  0.2862  0.5659  0.3882
   24CHL1  H21A 2935   5.631   0.695   6.101  0.5748 -0.2091  0.5853
   24CHL1  H21B 2936   5.525   0.565   6.084  2.3967  0.4458  0.3976
   24CHL1  H21C 2937   5.529   0.652   6.241  0.0430 -2.9441  0.0900
   24CHL1   C22 2938   5.434   0.776   5.912  0.1685  0.8138 -0.9599
   24CHL1  H22A 2939   5.348   0.834   5.873 -1.1265 -0.5861 -0.2853
   24CHL1  H22B 2940   5.531   0.817   5.877  1.5078  0.4965  2.0447
   24CHL1   C23 2941   5.418   0.641   5.830 -0.6815  0.3714  0.6429
   24CHL1  H23A 2942   5.477   0.562   5.880  0.4939  2.0945  2.1159
   24CHL1  H23B 2943   5.311   0.611   5.838 -0.6047 -0.0512  0.1479
   24CHL1   C24 2944   5.459   0.649   5.683 -0.3673  0.0011  0.2696
   24CHL1  H24A 2945   5.411   0.742   5.646 -0.6905 -0.6440 -0.9862
   24CHL1  H24B 2946   5.569   0.655   5.664 -0.3255 -1.2866  0.0226
   24CHL1   C25 2947   5.407   0.536   5.598 -0.2067  0.4618 -0.0003
   24CHL1   H25 2948   5.298   0.551   5.612 -0.1418  1.5848 -0.5934
   24CHL1   C26 2949   5.442   0.564   5.449  0.4018  0.0755  0.2252
   24CHL1  H26A 2950   5.394   0.486   5.387 -0.5326 -1.0272  2.2491
   24CHL1  H26B 2951   5.401   0.662   5.414  1.0778  1.2305  2.4787
   24CHL1  H26C 2952   5.551   0.546   5.446  0.1137 -1.7440 -0.7889
   24CHL1   C27 2953   5.466   0.399   5.655  0.7849  0.2765  0.2129
   24CHL1  H27A 2954   5.414   0.368   5.748  0.5438  0.6426  0.2049
   24CHL1  H27B 2955   5.445   0.319   5.581  1.1147  1.6622 -1.4587
   24CHL1  H27C 2956   5.571   0.407   5.690  1.2154 -0.5849 -0.8322
   25CHL1    C3 2957   0.948   3.426   6.986 -0.8041 -0.4081 -0.2160
   25CHL1    H3 2958   1.050   3.386   6.963 -0.1655  0.0703  1.6324
   25CHL1    O3 2959   0.945   3.470   7.120 -0.0550  0.0856  0.4904
   25CHL1   H3' 2960   0.979   3.393   7.168 -2.5963 -1.3753  0.0917
   25CHL1    C4 2961   0.927   3.543   6.890 -0.3337 -0.0775  0.0455
   25CHL1   H4A 2962   0.829   3.586   6.921 -0.4411  0.5672 -1.1485
   25CHL1   H4B 2963   1.002   3.623   6.906 -0.5488  0.0485  0.4567
   25CHL1    C5 2964   0.921   3.496   6.746 -0.0730  0.1567  0.7871
   25CHL1    C6 2965   0.990   3.551   6.642  0.7834  0.0879 -0.0310
   25CHL1    H6 2966   1.047   3.643   6.664 -1.8134  1.7001  0.3989
   25CHL1    C7 2967   0.971   3.521   6.494 -0.1429  0.2218 -0.5271
   25CHL1   H7A 2968   0.978   3.616   6.437 -0.1747  0.3204 -0.3661
   25CHL1   H7B 2969   1.062   3.463   6.468  2.1589  2.9458  0.9292
   25CHL1    C8 2970   0.843   3.443   6.466 -0.1082 -1.1924 -1.0186
   25CHL1    H8 2971   0.761   3.515   6.485  0.1024 -0.3849 -2.9098
   25CHL1   C14 2972   0.833   3.389   6.331 -0.3812  0.8921  0.1589
   25CHL1   H14 2973   0.921   3.321   6.334  0.5197  2.0580  1.6914
   25CHL1   C15 2974   0.846   3.487   6.222 -0.2597  0.2883 -0.4631
   25CHL1  H15A 2975   0.779   3.570   6.256 -0.1192  0.0246  0.4941
   25CHL1  H15B 2976   0.945   3.532   6.198 -0.1262  0.9174  1.0968
   25CHL1   C16 2977   0.797   3.411   6.099  0.5580 -0.3759  0.3892
   25CHL1  H16A 2978   0.718   3.471   6.050  1.5880 -0.1508 -1.0351
   25CHL1  H16B 2979   0.874   3.389   6.022  0.3723 -0.5443  0.2521
   25CHL1   C17 2980   0.738   3.274   6.142 -0.4363 -0.5494  0.3513
   25CHL1   H17 2981   0.822   3.201   6.137  0.9790  1.1165 -3.5375
   25CHL1   C13 2982   0.717   3.294   6.299  0.0891  0.2257 -0.8120
   25CHL1   C18 2983   0.585   3.368   6.316 -0.7316  0.4284  0.3941
   25CHL1  H18A 2984   0.501   3.299   6.294 -0.3759  0.5372 -1.4460
   25CHL1  H18B 2985   0.573   3.398   6.422 -0.5483  0.6922  0.3413
   25CHL1  H18C 2986   0.581   3.453   6.245 -2.9392 -0.6229 -0.8721
   25CHL1   C12 2987   0.727   3.174   6.393  1.1134 -0.2886  0.3271
   25CHL1  H12A 2988   0.641   3.104   6.387  0.4456  0.5558 -0.0533
   25CHL1  H12B 2989   0.822   3.119   6.372  0.2687 -0.8412 -2.5858
   25CHL1   C11 2990   0.740   3.209   6.543 -0.0085 -0.3329 -0.1551
   25CHL1  H11A 2991   0.639   3.229   6.584  0.8959  1.4703  1.3642
   25CHL1  H11B 2992   0.777   3.118   6.595 -1.4300 -0.8896 -0.0802
   25CHL1    C9 2993   0.832   3.325   6.576 -0.8530  0.6946  0.0843
   25CHL1    H9 2994   0.934   3.283   6.580 -0.5092  1.0074 -2.9113
   25CHL1   C10 2995   0.812   3.383   6.720  0.1147 -0.9060 -0.2254
   25CHL1   C19 2996   0.664   3.429   6.742  0.1458  0.9797  0.7731
   25CHL1  H19A 2997   0.609   3.460   6.651 -0.9609 -3.0246 -0.0877
   25CHL1  H19B 2998   0.612   3.340   6.783 -0.5025 -0.8924 -3.6299
   25CHL1  H19C 2999   0.649   3.510   6.817  0.0713  2.5577 -0.8792
   25CHL1    C1 3000   0.848   3.270   6.821 -0.1385 -0.1823  0.9007
   25CHL1   H1A 3001   0.768   3.194   6.811  0.6165 -0.8017 -0.7489
   25CHL1   H1B 3002   0.946   3.227   6.790 -0.7738 -0.2097 -1.2435
   25CHL1    C2 3003   0.844   3.316   6.968  0.2341  0.2722  0.0372
   25CHL1   H2A 3004   0.852   3.234   7.042  0.5226  1.6755  1.6195
   25CHL1   H2B 3005   0.748   3.361   6.999  0.6484 -0.5556  2.7940
   25CHL1   C20 3006   0.611   3.223   6.059  0.4995 -0.6121 -0.4034
   25CHL1   H20 3007   0.531   3.300   6.059  0.0548 -1.0700 -0.4108
   25CHL1   C21 3008   0.564   3.082   6.103  0.1362 -0.0364  0.0175
   25CHL1  H21A 3009   0.517   3.019   6.025  0.8667  0.1792 -0.6013
   25CHL1  H21B 3010   0.490   3.100   6.184 -1.1767  1.1253 -1.3979
   25CHL1  H21C 3011   0.645   3.024   6.152 -1.2954 -1.0156  1.3500
   25CHL1   C22 3012   0.647   3.201   5.909 -0.1734  0.0708 -0.2603
   25CHL1  H22A 3013   0.731   3.264   5.874  0.7006 -0.9653 -0.0688
   25CHL1  H22B 3014   0.692   3.100   5.902  2.1445  1.0090  0.0767
   25CHL1   C23 3015   0.538   3.239   5.809 -0.3573 -0.1738 -0.0525
   25CHL1  H23A 3016   0.446   3.182   5.832  0.0235 -0.3419  1.1224
   25CHL1  H23B 3017   0.503   3.341   5.837 -0.7577 -0.2396 -0.3144
   25CHL1   C24 3018   0.583   3.226   5.662  0.7508  0.0695  0.1656
   25CHL1  H24A 3019   0.678   3.279   5.638 -0.5376  2.0625 -0.7558
   25CHL1  H24B 3020   0.594   3.119   5.634 -2.3295 -0.0357 -1.0536
   25CHL1   C25 3021   0.470   3.266   5.572  0.1078 -0.4770 -0.0858
   25CHL1   H25 3022   0.375   3.261   5.629  0.1465  0.3595  0.0719
   25CHL1   C26 3023   0.471   3.408   5.521  0.1571 -0.1320  0.1108
   25CHL1  H26A 3024   0.555   3.435   5.454  0.0021  0.4616  0.1555
   25CHL1  H26B 3025   0.382   3.423   5.457  0.4593 -1.5367 -0.6908
   25CHL1  H26C 3026   0.457   3.476   5.608  0.7275 -1.0907  0.9963
   25CHL1   C27 3027   0.457   3.172   5.455 -0.5049  0.2338 -0.0075
   25CHL1  H27A 3028   0.445   3.068   5.494 -2.6524  0.6513  0.5716
   25CHL1  H27B 3029   0.381   3.198   5.377  1.0469 -2.4274 -2.6226
   25CHL1  H27C 3030   0.552   3.172   5.398  0.5779  0.7379  1.7209
   26CHL1    C3 3031   4.667   5.944   6.917  0.4249 -0.4870 -0.2256
   26CHL1    H3 3032   4.753   5.880   6.886 -0.1500 -0.0382 -3.0395
   26CHL1    O3 3033   4.679   5.980   7.057  0.1004  0.0577  0.7754
   26CHL1   H3' 3034   4.623   6.056   7.074 -0.7685 -0.7927  1.8954
   26CHL1    C4 3035   4.677   6.080   6.831 -0.4415  0.7128  0.3121
   26CHL1   H4A 3036   4.591   6.149   6.848 -1.3724 -0.5128  0.7586
   26CHL1   H4B 3037   4.771   6.127   6.865 -0.0709  0.1183  0.1288
   26CHL1    C5 3038   4.679   6.044   6.685  0.2325 -0.3036 -0.4667
   26CHL1    C6 3039   4.785   6.069   6.606 -0.0453  0.5123 -0.3221
   26CHL1    H6 3040   4.870   6.120   6.654  0.9119 -1.3514  0.0635
   26CHL1    C7 3041   4.801   6.025   6.470 -0.2940 -0.0541 -0.2305
   26CHL1   H7A 3042   4.868   6.092   6.412  0.9229 -0.7919  0.2885
   26CHL1   H7B 3043   4.854   5.927   6.466  1.2575  0.7927 -2.1132
   26CHL1    C8 3044   4.658   6.008   6.399  0.1365 -0.4134 -0.2428
   26CHL1    H8 3045   4.623   6.113   6.400  2.2183  0.4190 -2.9146
   26CHL1   C14 3046   4.675   5.944   6.263 -0.6133  0.4279  0.5515
   26CHL1   H14 3047   4.711   5.840   6.273 -2.0204 -0.4272 -2.2490
   26CHL1   C15 3048   4.782   6.008   6.158 -0.4601  0.1352  0.3538
   26CHL1  H15A 3049   4.777   6.114   6.192  1.9112 -0.0607  1.5031
   26CHL1  H15B 3050   4.875   5.960   6.195 -0.0902  2.8891  3.4764
   26CHL1   C16 3051   4.726   5.962   6.026  0.8262  0.4607 -0.2857
   26CHL1  H16A 3052   4.740   6.040   5.948  0.0315 -0.2553 -1.1799
   26CHL1  H16B 3053   4.778   5.866   6.003  0.6481  0.1403  0.6011
   26CHL1   C17 3054   4.583   5.896   6.051  0.9144 -0.3665 -0.0293
   26CHL1   H17 3055   4.599   5.787   6.058  0.4982 -0.6590 -2.6245
   26CHL1   C13 3056   4.539   5.938   6.193 -0.6364 -0.6600 -0.4635
   26CHL1   C18 3057   4.474   6.078   6.187  0.9119 -0.1620  0.2341
   26CHL1  H18A 3058   4.547   6.161   6.173  1.3273 -0.1431  2.1744
   26CHL1  H18B 3059   4.398   6.083   6.106  1.5604 -0.5860 -0.4048
   26CHL1  H18C 3060   4.410   6.109   6.273  1.8339  0.5116  0.6897
   26CHL1   C12 3061   4.450   5.837   6.271  0.2016 -0.3001 -0.0908
   26CHL1  H12A 3062   4.349   5.849   6.227 -0.6139  1.7770  2.1072
   26CHL1  H12B 3063   4.508   5.742   6.268 -0.7911 -0.9013 -3.1442
   26CHL1   C11 3064   4.437   5.884   6.419 -0.2401  0.2607  0.5267
   26CHL1  H11A 3065   4.369   5.971   6.413  0.1535  0.5089 -0.4507
   26CHL1  H11B 3066   4.377   5.809   6.476 -0.9642  2.3892  2.7368
   26CHL1    C9 3067   4.570   5.919   6.487 -0.0750 -0.3741 -0.3433
   26CHL1    H9 3068   4.622   5.821   6.497 -2.2303 -1.8413 -2.4101
   26CHL1   C10 3069   4.554   5.969   6.639  0.0675  0.0305 -0.4632
   26CHL1   C19 3070   4.435   6.067   6.646 -0.6215  0.1143 -0.0084
   26CHL1  H19A 3071   4.416   6.098   6.752  0.2010 -1.3563  0.5912
   26CHL1  H19B 3072   4.463   6.151   6.579  1.3798 -0.8647 -0.4533
   26CHL1  H19C 3073   4.342   6.015   6.615 -1.1386  0.9590  0.0937
   26CHL1    C1 3074   4.523   5.849   6.735  0.2426  0.0526  0.3961
   26CHL1   H1A 3075   4.419   5.811   6.728  0.0924  0.7540 -1.9349
   26CHL1   H1B 3076   4.601   5.773   6.714 -1.7671 -1.9049 -0.3170
   26CHL1    C2 3077   4.541   5.881   6.888  0.6048  0.2618  0.1612
   26CHL1   H2A 3078   4.533   5.783   6.941  0.2337  0.3302  0.2328
   26CHL1   H2B 3079   4.461   5.954   6.912  0.1054 -0.0333 -0.5771
   26CHL1   C20 3080   4.486   5.907   5.928  0.0377  0.0332 -0.3793
   26CHL1   H20 3081   4.450   6.011   5.915 -0.0342  0.0420 -0.1245
   26CHL1   C21 3082   4.355   5.816   5.953  0.5268  0.0528 -0.4844
   26CHL1  H21A 3083   4.295   5.846   6.042  0.5410  0.7597 -0.7131
   26CHL1  H21B 3084   4.395   5.716   5.979 -0.6803 -0.7345 -1.4860
   26CHL1  H21C 3085   4.296   5.811   5.858 -1.1767  1.3281  0.4451
   26CHL1   C22 3086   4.555   5.872   5.794 -0.3246  0.0955 -1.0899
   26CHL1  H22A 3087   4.485   5.876   5.707 -0.4501 -1.6441 -1.0978
   26CHL1  H22B 3088   4.634   5.949   5.784 -0.7671  0.7307  0.1020
   26CHL1   C23 3089   4.615   5.733   5.781 -0.3064  0.0474  0.2132
   26CHL1  H23A 3090   4.682   5.716   5.868 -0.9066 -0.4181  0.5912
   26CHL1  H23B 3091   4.535   5.656   5.781 -2.4181  2.1190 -0.7380
   26CHL1   C24 3092   4.694   5.713   5.646 -0.0117  0.1022 -0.5345
   26CHL1  H24A 3093   4.623   5.716   5.561 -0.3013 -2.3008 -0.4446
   26CHL1  H24B 3094   4.770   5.791   5.623 -0.2400 -0.2195 -2.5284
   26CHL1   C25 3095   4.768   5.578   5.624  0.3491 -0.2241  1.2328
   26CHL1   H25 3096   4.701   5.497   5.662 -0.1956 -1.1200 -1.4155
   26CHL1   C26 3097   4.797   5.557   5.473  0.2983 -0.6872  0.9656
   26CHL1  H26A 3098   4.705   5.540   5.415  1.3293 -0.8284 -0.6959
   26CHL1  H26B 3099   4.849   5.645   5.428 -0.7249 -0.6052 -0.0773
   26CHL1  H26C 3100   4.862   5.467   5.459  0.3995 -0.3674 -0.8953
   26CHL1   C27 3101   4.895   5.555   5.714  0.2202 -0.6039 -0.0098
   26CHL1  H27A 3102   4.875   5.589   5.818 -1.1270 -1.9507  0.2092
   26CHL1  H27B 3103   4.903   5.444   5.707 -2.4894 -0.7954 -1.7246
   26CHL1  H27C 3104   4.979   5.613   5.671  0.4089 -0.6455  0.3041
   27CHL1    C3 3105   4.117   4.547   6.982 -0.3348  0.3917 -0.3827
   27CHL1    H3 3106   4.226   4.565   6.972 -0.5545  1.3712 -1.1777
   27CHL1    O3 3107   4.089   4.550   7.119 -0.1252 -0.3078 -0.8787
   27CHL1   H3' 3108   4.105   4.641   7.142 -1.5720 -0.5342  1.2786
   27CHL1    C4 3109   4.044   4.660   6.912  0.7043 -0.0829 -0.8929
   27CHL1   H4A 3110   3.939   4.645   6.945  0.7888 -0.3956 -0.7612
   27CHL1   H4B 3111   4.069   4.761   6.951 -0.1474  0.9143 -2.8038
   27CHL1    C5 3112   4.065   4.642   6.762  0.7987  0.4118 -0.1113
   27CHL1    C6 3113   4.115   4.736   6.682  0.1807 -0.6569  0.3091
   27CHL1    H6 3114   4.154   4.832   6.720 -0.8941 -0.2897  0.5328
   27CHL1    C7 3115   4.124   4.728   6.539 -0.4572 -1.0440  0.0351
   27CHL1   H7A 3116   4.083   4.820   6.494 -1.7041 -1.7929 -0.4185
   27CHL1   H7B 3117   4.226   4.718   6.496 -1.4641  2.1270 -3.6963
   27CHL1    C8 3118   4.036   4.616   6.481 -0.2723  0.3176  0.6333
   27CHL1    H8 3119   3.932   4.655   6.476 -0.7424 -1.0788 -1.9037
   27CHL1   C14 3120   4.095   4.585   6.341  0.3743 -0.0234  0.4211
   27CHL1   H14 3121   4.198   4.545   6.356  1.0989  1.0516 -1.2749
   27CHL1   C15 3122   4.097   4.704   6.235  0.6291  0.3697 -0.8361
   27CHL1  H15A 3123   4.005   4.766   6.242 -1.2239 -2.4227  2.9329
   27CHL1  H15B 3124   4.189   4.762   6.260  1.2081  0.1249 -2.3080
   27CHL1   C16 3125   4.109   4.637   6.103 -0.1761  0.1391  0.2269
   27CHL1  H16A 3126   4.028   4.683   6.042  1.5256  0.9039 -1.5391
   27CHL1  H16B 3127   4.202   4.669   6.052 -0.8100  0.1339 -0.9745
   27CHL1   C17 3128   4.101   4.482   6.133  0.4428  1.0874  0.7442
   27CHL1   H17 3129   4.209   4.461   6.149  1.0618  2.3128 -1.3505
   27CHL1   C13 3130   4.025   4.467   6.262 -0.9960 -0.3017 -0.3518
   27CHL1   C18 3131   3.881   4.498   6.247  0.1921 -0.5624  0.2624
   27CHL1  H18A 3132   3.820   4.422   6.193  1.0984  0.1522 -1.8455
   27CHL1  H18B 3133   3.827   4.523   6.341 -0.4491  0.4811 -0.3669
   27CHL1  H18C 3134   3.866   4.589   6.185 -2.0234 -1.2308 -0.2845
   27CHL1   C12 3135   4.048   4.343   6.352 -0.0814 -0.5801  0.1708
   27CHL1  H12A 3136   3.989   4.263   6.303  1.0019 -0.7586 -0.8890
   27CHL1  H12B 3137   4.156   4.318   6.360  0.4978  1.5818 -0.1493
   27CHL1   C11 3138   4.004   4.366   6.494 -0.9551  0.7077 -0.1895
   27CHL1  H11A 3139   3.893   4.372   6.498 -0.9248  2.6193 -1.2309
   27CHL1  H11B 3140   4.037   4.277   6.552 -2.9809  0.3366  0.4737
   27CHL1    C9 3141   4.055   4.489   6.561  0.5913 -0.4993 -1.0360
   27CHL1    H9 3142   4.167   4.487   6.562  0.9862  4.7860 -2.3528
   27CHL1   C10 3143   4.015   4.506   6.709  0.4851  0.6574  0.2004
   27CHL1   C19 3144   3.868   4.495   6.719 -0.7761 -0.0002 -1.1967
   27CHL1  H19A 3145   3.828   4.576   6.656  0.0133  0.8887 -0.5836
   27CHL1  H19B 3146   3.839   4.391   6.694 -0.1009 -0.7232  0.8029
   27CHL1  H19C 3147   3.828   4.519   6.820 -0.9371  0.5030 -1.3790
   27CHL1    C1 3148   4.090   4.391   6.783 -0.1231 -0.4493 -0.0371
   27CHL1   H1A 3149   4.049   4.292   6.753 -0.1565 -0.0927 -1.2178
   27CHL1   H1B 3150   4.199   4.395   6.758 -0.2027  0.6381 -0.2291
   27CHL1    C2 3151   4.076   4.407   6.934 -0.7963  0.0038 -0.4902
   27CHL1   H2A 3152   4.124   4.322   6.987 -2.7691 -1.9617 -1.6709
   27CHL1   H2B 3153   3.972   4.397   6.971 -0.3451 -1.4542  0.5048
   27CHL1   C20 3154   4.043   4.400   6.009 -0.4477 -0.1271 -1.1681
   27CHL1   H20 3155   3.937   4.429   5.995 -0.2189  0.6585 -1.2880
   27CHL1   C21 3156   4.069   4.244   6.024  0.5281 -0.2299  0.5722
   27CHL1  H21A 3157   4.174   4.237   6.059  1.1014 -0.5790 -1.1430
   27CHL1  H21B 3158   4.043   4.179   5.938  2.0839  1.2287 -1.0964
   27CHL1  H21C 3159   3.997   4.205   6.098 -1.4641  0.2738 -1.0112
   27CHL1   C22 3160   4.084   4.455   5.869  0.0693  0.1555  0.2598
   27CHL1  H22A 3161   4.032   4.553   5.856 -0.3963 -0.2168 -0.8096
   27CHL1  H22B 3162   4.195   4.467   5.866 -0.0177  0.8702 -1.7515
   27CHL1   C23 3163   4.038   4.372   5.752  0.0529  0.0381  0.3317
   27CHL1  H23A 3164   4.109   4.288   5.746 -0.0428 -0.2356  2.3727
   27CHL1  H23B 3165   3.934   4.333   5.755 -0.5804  1.6350  0.4210
   27CHL1   C24 3166   4.047   4.455   5.625 -0.5353 -0.1577  0.3372
   27CHL1  H24A 3167   3.984   4.543   5.648  1.3219  0.6189  2.9894
   27CHL1  H24B 3168   4.144   4.501   5.596 -1.3286  0.2569 -1.8150
   27CHL1   C25 3169   4.012   4.382   5.498 -0.3089 -0.3081 -0.5388
   27CHL1   H25 3170   3.918   4.324   5.511 -0.3947 -0.4408 -1.6809
   27CHL1   C26 3171   4.009   4.478   5.377  0.7722 -0.3238 -0.0242
   27CHL1  H26A 3172   3.965   4.429   5.288  0.2708 -0.8512  0.5046
   27CHL1  H26B 3173   3.937   4.556   5.409  0.4087 -0.5560 -0.2720
   27CHL1  H26C 3174   4.104   4.527   5.345  0.1948  0.5848 -0.4091
   27CHL1   C27 3175   4.103   4.264   5.466  0.2682  0.4374  0.1454
   27CHL1  H27A 3176   4.108   4.191   5.550 -0.2046  0.3148  0.0740
   27CHL1  H27B 3177   4.205   4.306   5.461  0.8843 -1.0932 -1.1203
   27CHL1  H27C 3178   4.071   4.202   5.378  0.7479 -1.7903  1.4509
   28CHL1    C3 3179   3.056   0.961   7.275 -0.0811  0.0758 -0.0642
   28CHL1    H3 3180   2.961   1.009   7.243 -2.6994 -4.1524  0.6671
   28CHL1    O3 3181   3.049   0.948   7.421 -0.5081 -0.0241  0.1250
   28CHL1   H3' 3182   3.138   0.927   7.450 -0.9131 -1.1598  0.5707
   28CHL1    C4 3183   3.059   0.821   7.214  0.3497  0.5101  0.1536
   28CHL1   H4A 3184   3.150   0.775   7.259  1.2427  0.0026 -2.0396
   28CHL1   H4B 3185   2.972   0.763   7.251  0.9296  0.0955  0.8942
   28CHL1    C5 3186   3.061   0.820   7.062  0.5304 -0.2225  0.5682
   28CHL1    C6 3187   2.952   0.770   6.990 -0.0837 -0.6357  0.2791
   28CHL1    H6 3188   2.872   0.714   7.040  0.2942 -0.4682  1.0871
   28CHL1    C7 3189   2.962   0.778   6.839  0.2605  0.0304  0.4417
   28CHL1   H7A 3190   2.955   0.674   6.799 -0.2375  0.2480 -0.0449
   28CHL1   H7B 3191   2.874   0.831   6.797 -0.2530 -0.9463  0.2547
   28CHL1    C8 3192   3.087   0.835   6.774 -0.1673 -0.6047 -0.1905
   28CHL1    H8 3193   3.162   0.753   6.777  1.2015  0.6210  0.2386
   28CHL1   C14 3194   3.060   0.879   6.634  0.4640  0.1991  0.1304
   28CHL1   H14 3195   2.988   0.963   6.640  0.3934  0.3537 -2.1560
   28CHL1   C15 3196   2.983   0.780   6.535 -0.7263  0.2972 -0.0979
   28CHL1  H15A 3197   3.007   0.675   6.565 -0.7083  0.9019  2.2566
   28CHL1  H15B 3198   2.873   0.788   6.551 -0.5564 -1.1690  2.4846
   28CHL1   C16 3199   3.028   0.819   6.387 -0.4019  0.6341  0.2354
   28CHL1  H16A 3200   3.101   0.742   6.355 -1.3645  0.3398 -1.3527
   28CHL1  H16B 3201   2.953   0.823   6.305  1.1909  1.0756 -1.2634
   28CHL1   C17 3202   3.117   0.944   6.414  0.6243  0.0623  0.7603
   28CHL1   H17 3203   3.057   1.037   6.421 -0.6379 -0.7115  0.4546
   28CHL1   C13 3204   3.181   0.926   6.554  0.2562  0.2278 -0.7536
   28CHL1   C18 3205   3.285   0.816   6.549 -0.6756  0.4202 -0.0669
   28CHL1  H18A 3206   3.378   0.850   6.497 -0.0772  0.5007  1.0264
   28CHL1  H18B 3207   3.325   0.798   6.651 -0.8083  3.6291  0.6682
   28CHL1  H18C 3208   3.274   0.725   6.486  2.3688  0.3901 -0.7043
   28CHL1   C12 3209   3.239   1.051   6.632 -0.1063 -0.0633  0.0142
   28CHL1  H12A 3210   3.331   1.091   6.584  0.6466 -1.0422  0.6022
   28CHL1  H12B 3211   3.153   1.121   6.631 -0.2572 -0.2189  1.4152
   28CHL1   C11 3212   3.274   1.019   6.780  0.1197  0.1306 -0.0042
   28CHL1  H11A 3213   3.370   0.962   6.783  2.0563  3.0954 -0.6903
   28CHL1  H11B 3214   3.298   1.113   6.836 -0.4783 -0.8819  2.0231
   28CHL1    C9 3215   3.156   0.947   6.854  0.2319 -0.0257  0.3097
   28CHL1    H9 3216   3.078   1.026   6.865 -0.0825 -0.2174 -0.4305
   28CHL1   C10 3217   3.177   0.909   7.004  0.6558 -0.2691 -1.1112
   28CHL1   C19 3218   3.306   0.833   7.020 -0.7607 -0.0797  0.5746
   28CHL1  H19A 3219   3.325   0.801   7.125 -1.1701 -0.9489  0.3923
   28CHL1  H19B 3220   3.301   0.739   6.961 -4.6404  1.9692 -2.9026
   28CHL1  H19C 3221   3.391   0.894   6.983 -4.1293  2.9819 -3.0891
   28CHL1    C1 3222   3.186   1.041   7.078  0.3937 -0.1705  0.7211
   28CHL1   H1A 3223   3.275   1.102   7.050  0.6540 -0.2432  1.3687
   28CHL1   H1B 3224   3.090   1.089   7.051  0.5391 -1.3255 -2.2406
   28CHL1    C2 3225   3.182   1.041   7.231  0.0646  0.7250 -0.5046
   28CHL1   H2A 3226   3.175   1.144   7.275  1.7859  0.4016  0.6069
   28CHL1   H2B 3227   3.273   0.987   7.262 -1.7140 -1.4724  1.2244
   28CHL1   C20 3228   3.213   0.963   6.292  0.0164 -0.4122  0.2145
   28CHL1   H20 3229   3.295   0.889   6.291 -0.9977 -1.5544  0.0573
   28CHL1   C21 3230   3.263   1.106   6.288  0.0507 -0.9800  0.5742
   28CHL1  H21A 3231   3.360   1.119   6.235 -0.6683  0.4878 -0.4302
   28CHL1  H21B 3232   3.276   1.137   6.394 -0.5494 -0.1380  0.4088
   28CHL1  H21C 3233   3.187   1.167   6.235 -0.3438 -2.4154 -0.5678
   28CHL1   C22 3234   3.139   0.924   6.158  0.0087 -0.2127  0.3514
   28CHL1  H22A 3235   3.101   0.820   6.149 -0.1569 -0.1128 -0.1423
   28CHL1  H22B 3236   3.051   0.985   6.129  2.4613  1.1628 -5.9490
   28CHL1   C23 3237   3.230   0.943   6.032 -0.1312 -0.5505 -0.5299
   28CHL1  H23A 3238   3.325   0.992   6.063  1.5177 -3.0058 -1.4223
   28CHL1  H23B 3239   3.269   0.846   5.993  2.4808 -0.1385  0.8221
   28CHL1   C24 3240   3.153   1.027   5.929  0.1531 -0.1170 -0.4157
   28CHL1  H24A 3241   3.057   0.978   5.902 -0.3025  1.7588 -2.5909
   28CHL1  H24B 3242   3.139   1.123   5.983  2.1473  0.2064 -0.4096
   28CHL1   C25 3243   3.238   1.065   5.805 -0.0836  0.1931 -0.1812
   28CHL1   H25 3244   3.263   0.962   5.772  0.1629 -0.6466  2.3342
   28CHL1   C26 3245   3.149   1.141   5.696 -0.1359  0.5496  0.3773
   28CHL1  H26A 3246   3.103   1.238   5.723  0.6791  1.7187 -2.1256
   28CHL1  H26B 3247   3.205   1.159   5.602 -0.4180  0.3725  0.1713
   28CHL1  H26C 3248   3.069   1.068   5.672  0.9032 -1.6067  2.9358
   28CHL1   C27 3249   3.360   1.141   5.839 -0.3156  0.4478  0.1948
   28CHL1  H27A 3250   3.407   1.172   5.743  0.3437 -0.2480  0.2867
   28CHL1  H27B 3251   3.335   1.240   5.884  0.4907  1.2956 -1.1504
   28CHL1  H27C 3252   3.428   1.081   5.903 -1.5842 -0.2437  0.9329
   29CHL1    C3 3253   5.627   2.640   6.932 -0.4912  0.0526 -0.0428
   29CHL1    H3 3254   5.729   2.678   6.910 -0.3436 -0.6193 -0.5427
   29CHL1    O3 3255   5.641   2.586   7.068  0.1284 -0.2766  0.0012
   29CHL1   H3' 3256   5.711   2.520   7.067  1.1709  0.7398  1.5026
   29CHL1    C4 3257   5.532   2.760   6.939  0.3672  0.8133 -0.0435
   29CHL1   H4A 3258   5.435   2.730   6.984  0.1572  1.4656 -0.0582
   29CHL1   H4B 3259   5.572   2.837   7.008 -0.9740  0.5845  1.0395
   29CHL1    C5 3260   5.515   2.819   6.803  0.0898  0.4710 -0.2855
   29CHL1    C6 3261   5.542   2.947   6.776 -0.0180  0.1418  0.0506
   29CHL1    H6 3262   5.589   3.010   6.852  0.0825  4.0179 -2.9200
   29CHL1    C7 3263   5.509   3.018   6.648 -0.0706  0.3077  0.1835
   29CHL1   H7A 3264   5.439   3.101   6.670 -2.2912 -1.2711 -0.4973
   29CHL1   H7B 3265   5.605   3.054   6.606 -0.1372  0.5812  0.2687
   29CHL1    C8 3266   5.435   2.931   6.540  0.2277 -0.5075  0.6926
   29CHL1    H8 3267   5.328   2.920   6.564 -0.0160 -0.3603 -0.2783
   29CHL1   C14 3268   5.460   2.986   6.401  0.6796  1.0770  0.0684
   29CHL1   H14 3269   5.566   2.964   6.377 -0.1483 -2.9196 -0.6483
   29CHL1   C15 3270   5.444   3.140   6.384 -0.2160 -0.0851 -0.5637
   29CHL1  H15A 3271   5.350   3.175   6.432  0.2474  0.7777 -0.2659
   29CHL1  H15B 3272   5.525   3.195   6.436 -0.8593 -0.3061  0.7166
   29CHL1   C16 3273   5.445   3.157   6.230 -0.4761 -0.0677 -0.7540
   29CHL1  H16A 3274   5.354   3.208   6.192 -0.1236  0.4785 -0.8749
   29CHL1  H16B 3275   5.530   3.217   6.192 -1.9143  0.2920 -3.6753
   29CHL1   C17 3276   5.434   3.009   6.163  0.8992 -0.4572  0.2386
   29CHL1   H17 3277   5.540   2.984   6.140  1.2100  1.4887 -0.6748
   29CHL1   C13 3278   5.386   2.919   6.285 -0.5183 -0.0250  0.7870
   29CHL1   C18 3279   5.235   2.939   6.292  0.0973 -0.1679  0.1591
   29CHL1  H18A 3280   5.197   2.917   6.394 -2.5547 -1.5265 -1.0295
   29CHL1  H18B 3281   5.208   3.044   6.268  0.2638 -0.2987 -0.6197
   29CHL1  H18C 3282   5.174   2.875   6.225  2.4949 -0.8409 -1.5217
   29CHL1   C12 3283   5.426   2.769   6.294  0.7112  0.0102 -0.0126
   29CHL1  H12A 3284   5.372   2.717   6.212  0.9233  2.1799 -1.6379
   29CHL1  H12B 3285   5.535   2.763   6.275  0.4356  0.3652 -1.9509
   29CHL1   C11 3286   5.399   2.718   6.435  0.7152 -0.0293 -0.4980
   29CHL1  H11A 3287   5.291   2.705   6.458  0.1354  0.0144 -2.8856
   29CHL1  H11B 3288   5.435   2.613   6.444  2.0784  0.5076  0.9097
   29CHL1    C9 3289   5.480   2.791   6.544 -1.1981 -0.5960 -0.5504
   29CHL1    H9 3290   5.588   2.777   6.522 -1.6408 -3.4884 -1.3295
   29CHL1   C10 3291   5.463   2.723   6.687 -0.5348  0.1473 -0.4532
   29CHL1   C19 3292   5.311   2.691   6.718  0.2746 -0.7149 -0.0501
   29CHL1  H19A 3293   5.262   2.790   6.729  0.9918 -0.2111 -1.3066
   29CHL1  H19B 3294   5.263   2.621   6.646 -1.1557  0.2429 -0.0790
   29CHL1  H19C 3295   5.295   2.642   6.817 -0.8362 -0.5669 -0.1380
   29CHL1    C1 3296   5.546   2.585   6.696  0.0240 -0.0142 -0.1238
   29CHL1   H1A 3297   5.491   2.507   6.638 -0.9431  0.6442 -0.1251
   29CHL1   H1B 3298   5.641   2.598   6.641  0.9268 -0.9660  1.1554
   29CHL1    C2 3299   5.575   2.521   6.835  0.3912 -0.8512  0.6171
   29CHL1   H2A 3300   5.657   2.446   6.834  1.3696  0.1439  2.2257
   29CHL1   H2B 3301   5.476   2.488   6.873 -1.3471  1.2671 -1.6999
   29CHL1   C20 3302   5.358   3.002   6.024  0.5990 -0.2863 -0.1729
   29CHL1   H20 3303   5.250   3.004   6.047  0.4551  0.9651 -0.8569
   29CHL1   C21 3304   5.384   2.868   5.951  0.4414 -0.6163 -0.6514
   29CHL1  H21A 3305   5.359   2.862   5.843 -0.3153 -0.1138 -0.5109
   29CHL1  H21B 3306   5.325   2.789   6.001  1.8487  0.1750  2.4973
   29CHL1  H21C 3307   5.493   2.852   5.968  0.5580 -2.1875 -2.4534
   29CHL1   C22 3308   5.385   3.122   5.932  0.6999 -0.3173  0.2634
   29CHL1  H22A 3309   5.367   3.222   5.976 -0.9881  0.1804 -1.3951
   29CHL1  H22B 3310   5.492   3.114   5.904 -0.0871  0.5320 -3.6049
   29CHL1   C23 3311   5.313   3.117   5.792 -0.2106 -0.1783  0.7167
   29CHL1  H23A 3312   5.357   3.197   5.728 -1.4907 -0.4161 -0.5036
   29CHL1  H23B 3313   5.322   3.021   5.738  0.2194  0.2142  0.0772
   29CHL1   C24 3314   5.160   3.147   5.801  0.5690  0.5061 -0.3797
   29CHL1  H24A 3315   5.113   3.059   5.850 -0.6437  1.7467  0.7689
   29CHL1  H24B 3316   5.157   3.240   5.862  4.6223 -0.9033  2.3823
   29CHL1   C25 3317   5.090   3.166   5.658 -0.0840  0.6924  0.6025
   29CHL1   H25 3318   5.139   3.249   5.604 -0.3722  0.5698  0.1514
   29CHL1   C26 3319   5.119   3.052   5.568 -0.0898  0.1791  0.5822
   29CHL1  H26A 3320   5.088   2.958   5.618  3.0445 -1.1487  0.3247
   29CHL1  H26B 3321   5.058   3.077   5.479  2.6186  1.7419 -1.0067
   29CHL1  H26C 3322   5.223   3.035   5.532  0.8327  2.0018  2.2029
   29CHL1   C27 3323   4.935   3.191   5.665 -0.3070 -0.6457  0.5508
   29CHL1  H27A 3324   4.920   3.293   5.706 -0.3542 -0.1363 -0.6842
   29CHL1  H27B 3325   4.888   3.188   5.564  1.2272 -0.7876 -0.1945
   29CHL1  H27C 3326   4.894   3.111   5.730 -2.2135  0.0173  0.2123
   30CHL1    C3 3327   5.969   1.012   3.967  0.1157 -0.3744  0.4651
   30CHL1    H3 3328   6.049   1.089   3.960  0.0690 -0.3503  0.1664
   30CHL1    O3 3329   5.858   1.035   3.880  0.1866 -0.2132  0.2458
   30CHL1   H3' 3330   5.903   1.065   3.800  0.5722 -1.3858  0.0005
   30CHL1    C4 3331   6.029   0.876   3.920  1.2766 -0.1309  0.9559
   30CHL1   H4A 3332   5.950   0.802   3.895 -1.0070  2.5580 -0.4076
   30CHL1   H4B 3333   6.069   0.892   3.817  1.8793 -0.4192  1.1389
   30CHL1    C5 3334   6.137   0.838   4.018  0.0579  0.5931 -0.0406
   30CHL1    C6 3335   6.266   0.802   3.974  0.7029 -0.1496  0.2440
   30CHL1    H6 3336   6.293   0.808   3.867 -1.5967 -0.9610 -0.4512
   30CHL1    C7 3337   6.368   0.726   4.057  0.1012 -0.0717  0.0377
   30CHL1   H7A 3338   6.390   0.629   4.007  1.2715 -0.8875  1.9955
   30CHL1   H7B 3339   6.468   0.773   4.069  0.7814 -1.7738  1.5092
   30CHL1    C8 3340   6.315   0.690   4.200 -0.4365 -0.5032  0.3770
   30CHL1    H8 3341   6.249   0.601   4.190 -1.2546  0.2303 -1.2097
   30CHL1   C14 3342   6.432   0.649   4.287 -0.9131  0.2322  0.0070
   30CHL1   H14 3343   6.499   0.737   4.286 -0.1635 -0.3170  0.7402
   30CHL1   C15 3344   6.523   0.528   4.240 -0.0559  0.1169 -0.7412
   30CHL1  H15A 3345   6.453   0.448   4.209 -0.3788 -0.2774  0.8895
   30CHL1  H15B 3346   6.586   0.562   4.155 -0.5568  0.8606 -0.8241
   30CHL1   C16 3347   6.591   0.490   4.374  0.1930  0.1866  0.2895
   30CHL1  H16A 3348   6.585   0.381   4.395  0.4099 -0.0243 -0.6817
   30CHL1  H16B 3349   6.700   0.513   4.367 -0.1859  2.0351 -0.2309
   30CHL1   C17 3350   6.525   0.567   4.492 -0.4004 -0.6502  1.1064
   30CHL1   H17 3351   6.584   0.658   4.519 -1.7002  0.8366 -0.7637
   30CHL1   C13 3352   6.393   0.617   4.434 -0.0214 -0.0745  0.5112
   30CHL1   C18 3353   6.290   0.505   4.438  0.8531  0.1203 -0.3329
   30CHL1  H18A 3354   6.189   0.544   4.411  2.3906  2.6687 -3.0265
   30CHL1  H18B 3355   6.315   0.413   4.381 -0.1609 -0.2054 -0.2727
   30CHL1  H18C 3356   6.275   0.461   4.539 -4.9714  0.5515 -0.6471
   30CHL1   C12 3357   6.336   0.750   4.489  0.9774  0.4958  0.3190
   30CHL1  H12A 3358   6.307   0.741   4.596  2.3717  1.4269  0.7954
   30CHL1  H12B 3359   6.410   0.831   4.473  2.2564 -0.6157  0.4275
   30CHL1   C11 3360   6.211   0.796   4.408 -0.1034 -0.3540  0.4852
   30CHL1  H11A 3361   6.128   0.726   4.426  1.0487 -1.0742  3.5733
   30CHL1  H11B 3362   6.186   0.900   4.438 -0.2724  0.1604 -1.3187
   30CHL1    C9 3363   6.227   0.802   4.256  0.0653 -0.4895 -0.3402
   30CHL1    H9 3364   6.284   0.894   4.231  0.3565 -1.0946 -2.0164
   30CHL1   C10 3365   6.098   0.820   4.170  0.0741  0.0577  0.6507
   30CHL1   C19 3366   6.003   0.701   4.190 -0.0823 -0.3159 -1.0749
   30CHL1  H19A 3367   5.965   0.712   4.294  2.1584 -0.5973 -0.1747
   30CHL1  H19B 3368   5.915   0.711   4.124 -0.5747  1.2320 -0.2503
   30CHL1  H19C 3369   6.059   0.605   4.184  0.1453 -0.2306 -0.4398
   30CHL1    C1 3370   6.027   0.945   4.215 -0.2061 -0.5003  0.3285
   30CHL1   H1A 3371   5.985   0.947   4.317  1.0004  0.3332  0.8361
   30CHL1   H1B 3372   6.097   1.031   4.212  0.1791 -0.8066  0.5025
   30CHL1    C2 3373   5.918   1.004   4.112  0.5102 -0.0481  0.3713
   30CHL1   H2A 3374   5.892   1.105   4.151 -0.4076 -0.4620  0.8623
   30CHL1   H2B 3375   5.823   0.947   4.109 -0.3758  1.4063 -2.1129
   30CHL1   C20 3376   6.524   0.481   4.621  0.6313 -0.4589 -0.4808
   30CHL1   H20 3377   6.484   0.382   4.589  1.0467 -1.0301  0.6923
   30CHL1   C21 3378   6.433   0.532   4.732  0.3888 -0.5577  0.3377
   30CHL1  H21A 3379   6.459   0.629   4.778 -0.4185 -1.2807  2.4095
   30CHL1  H21B 3380   6.422   0.467   4.821 -0.2609  0.1209  0.7679
   30CHL1  H21C 3381   6.326   0.540   4.703  0.5068 -1.9823 -0.6265
   30CHL1   C22 3382   6.663   0.452   4.672  0.2537  0.0344  0.1767
   30CHL1  H22A 3383   6.724   0.422   4.584 -0.6489 -1.7449  0.1060
   30CHL1  H22B 3384   6.704   0.540   4.726  1.2221  0.8201 -1.7293
   30CHL1   C23 3385   6.659   0.324   4.769 -0.1858  0.8732  0.1204
   30CHL1  H23A 3386   6.605   0.364   4.858  0.8020  3.8848 -0.5266
   30CHL1  H23B 3387   6.602   0.244   4.717 -1.3170  1.4543  0.4347
   30CHL1   C24 3388   6.803   0.272   4.798  0.5677 -0.6943  0.8129
   30CHL1  H24A 3389   6.844   0.226   4.705 -2.7782 -0.3157 -1.0155
   30CHL1  H24B 3390   6.862   0.363   4.822 -1.8157  1.2308 -0.1416
   30CHL1   C25 3391   6.814   0.166   4.905  0.4746  0.8023 -0.0086
   30CHL1   H25 3392   6.737   0.189   4.982 -0.4277 -2.3545  0.1823
   30CHL1   C26 3393   6.784   0.023   4.851 -0.3050 -0.1594  0.1065
   30CHL1  H26A 3394   6.803  -0.046   4.936 -0.3892 -0.8500 -0.4250
   30CHL1  H26B 3395   6.683   0.008   4.806 -0.8826  2.0044  0.5802
   30CHL1  H26C 3396   6.855  -0.008   4.772  0.7727  0.2964  0.8809
   30CHL1   C27 3397   6.954   0.155   4.965  0.4320  0.5561  0.0071
   30CHL1  H27A 3398   6.972   0.252   5.016 -1.1099 -0.7740  3.3720
   30CHL1  H27B 3399   6.958   0.081   5.047 -1.0505 -0.0665 -0.4613
   30CHL1  H27C 3400   7.029   0.133   4.885  1.0306  2.2972  0.0463
   31CHL1    C3 3401   6.347   6.552   7.039 -0.5974  0.7666 -0.1330
   31CHL1    H3 3402   6.242   6.562   7.073 -0.8632 -1.3114 -0.1807
   31CHL1    O3 3403   6.426   6.542   7.156 -0.2341 -0.7124  0.2312
   31CHL1   H3' 3404   6.493   6.608   7.138  0.4260 -1.0417  1.3650
   31CHL1    C4 3405   6.371   6.424   6.954 -0.8263 -0.3259  0.0038
   31CHL1   H4A 3406   6.481   6.413   6.944 -0.9261 -1.6769  0.1171
   31CHL1   H4B 3407   6.336   6.341   7.020  0.2621  0.1922  1.2887
   31CHL1    C5 3408   6.304   6.421   6.818 -0.1960 -0.2447  0.6302
   31CHL1    C6 3409   6.220   6.317   6.782  0.6529  1.4767  0.3700
   31CHL1    H6 3410   6.194   6.231   6.845 -0.0749  2.0183  0.8188
   31CHL1    C7 3411   6.161   6.318   6.646 -0.0581 -0.3117 -0.4075
   31CHL1   H7A 3412   6.157   6.220   6.593  0.7536 -1.2119  1.1172
   31CHL1   H7B 3413   6.058   6.356   6.661 -0.1684 -0.8390  0.2298
   31CHL1    C8 3414   6.219   6.416   6.536 -0.4077  0.4417  0.3508
   31CHL1    H8 3415   6.316   6.372   6.504 -1.1988 -1.7652  0.8485
   31CHL1   C14 3416   6.137   6.431   6.408  0.2321  0.3025  0.0237
   31CHL1   H14 3417   6.040   6.477   6.438 -0.6444 -1.1187 -0.4978
   31CHL1   C15 3418   6.093   6.299   6.331 -0.9385  0.0004 -0.7747
   31CHL1  H15A 3419   6.188   6.243   6.313  0.4596  1.7352  0.7967
   31CHL1  H15B 3420   6.013   6.243   6.384 -1.2897 -0.7839 -2.0859
   31CHL1   C16 3421   6.045   6.357   6.204  0.1419  0.0713 -0.5988
   31CHL1  H16A 3422   6.094   6.306   6.119  0.6909  2.6711 -1.9342
   31CHL1  H16B 3423   5.936   6.336   6.194  0.2405  0.3778 -2.7306
   31CHL1   C17 3424   6.084   6.509   6.191 -0.4776 -0.3602  0.7975
   31CHL1   H17 3425   5.997   6.572   6.220  0.7239  1.8377 -0.1564
   31CHL1   C13 3426   6.189   6.536   6.303 -0.7323  0.3883 -0.6869
   31CHL1   C18 3427   6.332   6.489   6.264 -0.3770 -0.0805  0.3175
   31CHL1  H18A 3428   6.332   6.393   6.207  1.3855 -0.3762  0.7696
   31CHL1  H18B 3429   6.378   6.571   6.205 -1.9111  0.9491  0.5018
   31CHL1  H18C 3430   6.397   6.477   6.353  2.2173  1.3052 -1.2613
   31CHL1   C12 3431   6.183   6.673   6.371 -0.2945  0.8263 -0.0884
   31CHL1  H12A 3432   6.224   6.750   6.303  0.7606  1.9518  1.7493
   31CHL1  H12B 3433   6.076   6.699   6.389 -0.2132 -0.1325  2.1745
   31CHL1   C11 3434   6.269   6.667   6.502 -0.0523  0.1269 -0.6276
   31CHL1  H11A 3435   6.374   6.672   6.468  0.4884  0.2581  1.0059
   31CHL1  H11B 3436   6.252   6.763   6.555 -3.1149  0.5562 -2.1305
   31CHL1    C9 3437   6.228   6.552   6.603  0.5845  0.4782  0.0667
   31CHL1    H9 3438   6.131   6.582   6.649  0.5182  0.3459  0.0152
   31CHL1   C10 3439   6.329   6.545   6.730 -0.6603  0.4050 -0.1078
   31CHL1   C19 3440   6.473   6.540   6.683 -0.7262 -0.6517  0.0239
   31CHL1  H19A 3441   6.498   6.642   6.648 -0.3646 -0.2377  1.4197
   31CHL1  H19B 3442   6.541   6.519   6.769 -0.9202 -1.3583  0.0135
   31CHL1  H19C 3443   6.497   6.469   6.601  0.2679  0.4957 -0.7024
   31CHL1    C1 3444   6.308   6.664   6.821 -0.9382 -0.2818 -0.5457
   31CHL1   H1A 3445   6.335   6.750   6.756 -0.0677 -1.1266 -1.3423
   31CHL1   H1B 3446   6.203   6.685   6.851 -0.4624 -0.3447  1.3042
   31CHL1    C2 3447   6.395   6.669   6.951 -0.0658  0.6311  0.1915
   31CHL1   H2A 3448   6.389   6.764   7.009  0.4482  0.3781  0.6731
   31CHL1   H2B 3449   6.505   6.662   6.940  0.1070  2.4323  0.5229
   31CHL1   C20 3450   6.123   6.552   6.045  0.1430 -0.3757  0.5185
   31CHL1   H20 3451   6.211   6.493   6.012 -0.3998 -2.1480  2.0441
   31CHL1   C21 3452   6.155   6.704   6.038  0.2576  0.3220  0.4752
   31CHL1  H21A 3453   6.180   6.723   5.931 -1.2998 -1.6444 -0.2862
   31CHL1  H21B 3454   6.247   6.738   6.091 -0.7462  2.3732  1.0259
   31CHL1  H21C 3455   6.059   6.749   6.071 -1.3639 -2.2376 -0.4663
   31CHL1   C22 3456   6.014   6.509   5.931  0.4539  0.4052  0.0464
   31CHL1  H22A 3457   6.001   6.399   5.940  0.4782  0.0502 -3.0235
   31CHL1  H22B 3458   5.917   6.552   5.962  0.0618 -0.0920 -0.4678
   31CHL1   C23 3459   6.039   6.537   5.784  0.5898 -0.2600 -0.4347
   31CHL1  H23A 3460   6.034   6.648   5.777 -0.9561 -0.2315  0.7490
   31CHL1  H23B 3461   6.145   6.520   5.756  1.6225  1.8516  1.7506
   31CHL1   C24 3462   5.941   6.484   5.679  0.8102  0.0906  0.5928
   31CHL1  H24A 3463   5.846   6.532   5.708  0.2662 -0.4931 -0.1776
   31CHL1  H24B 3464   5.985   6.511   5.580 -2.7267  1.1916 -0.8155
   31CHL1   C25 3465   5.925   6.331   5.684  0.1026  0.4367 -0.3787
   31CHL1   H25 3466   5.879   6.313   5.784  1.2419  1.5831  0.3744
   31CHL1   C26 3467   5.840   6.280   5.571 -0.0899  0.2235 -0.6752
   31CHL1  H26A 3468   5.815   6.173   5.590  1.3130  0.3742  2.8537
   31CHL1  H26B 3469   5.745   6.337   5.564  0.6980  1.6490 -0.2767
   31CHL1  H26C 3470   5.900   6.279   5.478  1.6563  0.8005  0.3965
   31CHL1   C27 3471   6.063   6.262   5.693  0.1351 -0.1049  0.4984
   31CHL1  H27A 3472   6.127   6.311   5.769  1.4342 -1.2615  0.2031
   31CHL1  H27B 3473   6.049   6.157   5.727 -0.7291 -0.5506 -1.1391
   31CHL1  H27C 3474   6.119   6.276   5.598  0.1376  0.4717  0.5817
   32CHL1    C3 3475   1.457   5.634   6.817  0.7653 -0.2811 -0.7150
   32CHL1    H3 3476   1.420   5.554   6.750 -0.2034 -0.9385  0.5760
   32CHL1    O3 3477   1.429   5.595   6.950  0.2251 -0.1764 -0.5626
   32CHL1   H3' 3478   1.496   5.630   7.010 -0.8529 -1.1679  1.3265
   32CHL1    C4 3479   1.610   5.649   6.812 -0.4869 -0.5969  0.3902
   32CHL1   H4A 3480   1.636   5.727   6.886  0.0695 -0.4677  0.0694
   32CHL1   H4B 3481   1.647   5.548   6.841 -0.1339 -0.8827 -0.9758
   32CHL1    C5 3482   1.652   5.697   6.671  0.3270  0.5967 -0.0597
   32CHL1    C6 3483   1.743   5.626   6.600 -0.4563 -0.5668  0.0872
   32CHL1    H6 3484   1.794   5.545   6.655  1.9209  2.0051  1.9380
   32CHL1    C7 3485   1.792   5.653   6.466  0.5257  0.3169 -0.8796
   32CHL1   H7A 3486   1.903   5.647   6.469  0.4511 -2.3712 -0.9804
   32CHL1   H7B 3487   1.757   5.572   6.399  0.6553 -0.7131  0.2733
   32CHL1    C8 3488   1.741   5.788   6.408 -0.2373  0.4278  0.2857
   32CHL1    H8 3489   1.804   5.873   6.443  1.9805 -1.3831  0.9498
   32CHL1   C14 3490   1.752   5.787   6.256  0.3189 -0.3888  0.0583
   32CHL1   H14 3491   1.673   5.712   6.231  0.7484 -0.8825  0.1727
   32CHL1   C15 3492   1.874   5.743   6.180 -0.0079 -0.0972 -0.2072
   32CHL1  H15A 3493   1.962   5.801   6.215 -0.5323  0.4120  0.3035
   32CHL1  H15B 3494   1.883   5.634   6.201 -0.1255  0.2443  1.8903
   32CHL1   C16 3495   1.831   5.771   6.026  0.2492 -0.0369 -0.4673
   32CHL1  H16A 3496   1.921   5.808   5.973 -1.6294  0.1222 -3.8177
   32CHL1  H16B 3497   1.788   5.674   5.994 -0.0188  0.0989 -0.5267
   32CHL1   C17 3498   1.715   5.871   6.033  0.2959  0.4315 -0.1662
   32CHL1   H17 3499   1.625   5.816   5.998  0.3026 -0.2250  0.8135
   32CHL1   C13 3500   1.700   5.914   6.180 -0.6379 -0.1084  0.0066
   32CHL1   C18 3501   1.795   6.028   6.208 -0.3137  0.2969 -0.2567
   32CHL1  H18A 3502   1.798   6.040   6.319  3.0985  2.9377 -0.4646
   32CHL1  H18B 3503   1.899   6.010   6.173  0.5643  1.2586  1.6611
   32CHL1  H18C 3504   1.753   6.125   6.172 -1.2290 -0.4334 -1.2182
   32CHL1   C12 3505   1.555   5.952   6.231 -0.1225  1.3284  0.2806
   32CHL1  H12A 3506   1.520   6.053   6.198 -0.9551  1.4263  1.3932
   32CHL1  H12B 3507   1.480   5.880   6.190  1.3774  0.3610 -0.8325
   32CHL1   C11 3508   1.547   5.945   6.387 -0.1968 -0.1861  0.6492
   32CHL1  H11A 3509   1.598   6.031   6.433 -2.1502  1.3034  0.1686
   32CHL1  H11B 3510   1.439   5.956   6.410  0.2005 -0.8973  3.1070
   32CHL1    C9 3511   1.599   5.814   6.452  0.5972 -0.7374  0.7170
   32CHL1    H9 3512   1.541   5.727   6.414  1.7112 -1.8459  1.5083
   32CHL1   C10 3513   1.568   5.813   6.602 -0.0491  0.8016 -0.0453
   32CHL1   C19 3514   1.621   5.939   6.677 -0.2931 -0.1581  0.0628
   32CHL1  H19A 3515   1.612   5.934   6.788 -0.0958  1.0908  0.1527
   32CHL1  H19B 3516   1.724   5.963   6.642  0.9991 -2.5313  1.9184
   32CHL1  H19C 3517   1.562   6.028   6.648  1.3060 -0.0128 -3.2332
   32CHL1    C1 3518   1.421   5.795   6.622  0.5368  0.3058  0.7895
   32CHL1   H1A 3519   1.362   5.875   6.571  0.8421 -0.3285 -0.6127
   32CHL1   H1B 3520   1.385   5.706   6.567  2.6123 -1.0398  1.5055
   32CHL1    C2 3521   1.380   5.767   6.771  0.0196  0.5630 -0.3599
   32CHL1   H2A 3522   1.271   5.748   6.779  0.3987 -1.2836  1.3170
   32CHL1   H2B 3523   1.412   5.850   6.839  1.0284  2.3816 -2.8824
   32CHL1   C20 3524   1.723   5.981   5.924  0.9742  0.3217  0.3603
   32CHL1   H20 3525   1.815   6.042   5.932  0.6851  0.8539 -0.2661
   32CHL1   C21 3526   1.599   6.079   5.932 -0.6846 -0.2140  0.5711
   32CHL1  H21A 3527   1.619   6.149   6.016  0.9540 -0.7627  0.6618
   32CHL1  H21B 3528   1.501   6.026   5.942 -1.4765  1.3859  1.7751
   32CHL1  H21C 3529   1.614   6.126   5.832 -1.0697 -0.0070  0.6065
   32CHL1   C22 3530   1.733   5.913   5.784 -0.1893  0.6506 -0.1349
   32CHL1  H22A 3531   1.747   5.996   5.712  3.4928  0.9612  0.7234
   32CHL1  H22B 3532   1.831   5.862   5.778 -1.0313 -0.8818 -2.7347
   32CHL1   C23 3533   1.607   5.821   5.746 -0.4207  1.0396 -0.0100
   32CHL1  H23A 3534   1.605   5.726   5.804  0.7000  1.0750  0.1101
   32CHL1  H23B 3535   1.515   5.872   5.782 -0.2701  0.0044  1.9501
   32CHL1   C24 3536   1.589   5.791   5.600 -0.7422  0.3667  0.1159
   32CHL1  H24A 3537   1.500   5.729   5.576 -1.3407  0.6608  1.4698
   32CHL1  H24B 3538   1.580   5.884   5.541  1.5658  1.1428  0.8807
   32CHL1   C25 3539   1.706   5.707   5.543 -0.5940  0.8439  0.4549
   32CHL1   H25 3540   1.802   5.754   5.575 -0.6079  0.8559  0.4787
   32CHL1   C26 3541   1.699   5.565   5.612  0.1891 -0.1289  0.1036
   32CHL1  H26A 3542   1.719   5.573   5.721 -0.6790 -2.4197  0.4945
   32CHL1  H26B 3543   1.598   5.518   5.605 -0.0012  0.4795 -1.3885
   32CHL1  H26C 3544   1.774   5.502   5.560  1.0437  0.9729 -0.0141
   32CHL1   C27 3545   1.705   5.698   5.391  0.3993 -0.2721 -0.5062
   32CHL1  H27A 3546   1.605   5.662   5.358 -1.6328  3.1275  1.2892
   32CHL1  H27B 3547   1.727   5.796   5.343 -1.7842  0.6856  0.3057
   32CHL1  H27C 3548   1.783   5.621   5.374 -0.6768 -1.5413  0.0523
   33CHL1    C3 3549   3.609   1.031   7.310 -0.2438  0.1756  0.5874
   33CHL1    H3 3550   3.515   0.976   7.290 -0.0148 -0.5998  1.5593
   33CHL1    O3 3551   3.624   1.035   7.452  0.2360  0.0926  0.1520
   33CHL1   H3' 3552   3.688   1.103   7.471  1.6611 -1.3828  0.7906
   33CHL1    C4 3553   3.734   0.957   7.250  0.6697 -0.2526 -0.1337
   33CHL1   H4A 3554   3.823   1.018   7.278 -0.3644  2.0690 -1.5544
   33CHL1   H4B 3555   3.732   0.855   7.292 -0.0283 -0.3332 -0.3511
   33CHL1    C5 3556   3.716   0.957   7.100  0.4717  0.2558 -0.0684
   33CHL1    C6 3557   3.704   0.839   7.030 -0.2112 -0.0425  0.9693
   33CHL1    H6 3558   3.728   0.744   7.080  3.3750  0.8351  1.1457
   33CHL1    C7 3559   3.693   0.835   6.878  0.8351 -0.0902  0.3488
   33CHL1   H7A 3560   3.754   0.755   6.831 -1.6507 -2.2904  0.6297
   33CHL1   H7B 3561   3.591   0.803   6.849  1.2324  0.1991 -1.4724
   33CHL1    C8 3562   3.731   0.966   6.814 -0.6767  0.1425  0.4568
   33CHL1    H8 3563   3.840   0.983   6.815 -0.6647  0.3802 -1.4454
   33CHL1   C14 3564   3.679   0.965   6.661 -0.3501  0.5312 -0.0421
   33CHL1   H14 3565   3.569   0.952   6.669 -0.8620  3.5473 -0.8622
   33CHL1   C15 3566   3.733   0.859   6.573 -0.5616 -0.0346  0.6237
   33CHL1  H15A 3567   3.841   0.845   6.590 -0.3200  1.3038  0.2874
   33CHL1  H15B 3568   3.690   0.757   6.587 -2.0612  0.4517 -0.1958
   33CHL1   C16 3569   3.707   0.897   6.430  0.3531  0.2375  0.1967
   33CHL1  H16A 3570   3.799   0.873   6.372  0.3063 -0.5940  0.4470
   33CHL1  H16B 3571   3.622   0.836   6.392  1.8432 -1.0698 -1.1861
   33CHL1   C17 3572   3.652   1.047   6.439 -0.4559 -0.1846  0.6935
   33CHL1   H17 3573   3.541   1.045   6.448 -0.7294 -0.7881 -2.0009
   33CHL1   C13 3574   3.704   1.093   6.576 -0.1240 -0.2214 -0.5885
   33CHL1   C18 3575   3.855   1.123   6.561 -0.2533 -0.5853 -0.6326
   33CHL1  H18A 3576   3.875   1.220   6.510 -1.2798 -0.2424 -0.4172
   33CHL1  H18B 3577   3.902   1.152   6.657  0.7719  2.0190 -1.8296
   33CHL1  H18C 3578   3.920   1.044   6.520 -0.5143 -0.3683 -1.4842
   33CHL1   C12 3579   3.629   1.212   6.649 -0.6663  0.4788  1.0815
   33CHL1  H12A 3580   3.664   1.311   6.613 -0.1286 -0.2491 -0.5213
   33CHL1  H12B 3581   3.522   1.213   6.621 -0.8370 -3.2334  1.1229
   33CHL1   C11 3582   3.665   1.221   6.803  0.2706 -0.4167  0.4417
   33CHL1  H11A 3583   3.770   1.256   6.798  0.2617 -0.5452 -1.2244
   33CHL1  H11B 3584   3.599   1.292   6.858  0.3759 -0.5759  0.7760
   33CHL1    C9 3585   3.657   1.081   6.881 -0.4362  0.5884  0.1893
   33CHL1    H9 3586   3.549   1.053   6.884 -0.3449  0.2486  0.3037
   33CHL1   C10 3587   3.691   1.096   7.036  0.4242  0.1789 -0.1247
   33CHL1   C19 3588   3.821   1.185   7.055  0.5858 -0.3747  0.9039
   33CHL1  H19A 3589   3.906   1.144   6.995 -0.4214 -0.3403 -0.5969
   33CHL1  H19B 3590   3.808   1.288   7.016 -1.7086 -0.7380  0.6154
   33CHL1  H19C 3591   3.858   1.196   7.159  0.9353 -1.4835  0.9113
   33CHL1    C1 3592   3.580   1.168   7.107  0.2148 -0.2533 -0.0605
   33CHL1   H1A 3593   3.562   1.271   7.070 -0.4160  0.0699  1.0856
   33CHL1   H1B 3594   3.482   1.119   7.089 -0.1021 -0.0900  1.0912
   33CHL1    C2 3595   3.596   1.170   7.262 -0.6627 -0.5043 -0.4414
   33CHL1   H2A 3596   3.501   1.211   7.301 -0.1866 -0.6641  0.9391
   33CHL1   H2B 3597   3.681   1.232   7.297 -0.1725 -0.8171 -1.0666
   33CHL1   C20 3598   3.694   1.130   6.306 -0.0737  0.1129 -0.6950
   33CHL1   H20 3599   3.802   1.155   6.313 -0.1703  0.7037 -1.2838
   33CHL1   C21 3600   3.617   1.261   6.308  0.3555  1.0691 -0.1642
   33CHL1  H21A 3601   3.650   1.329   6.226  0.6087 -0.7807 -1.6785
   33CHL1  H21B 3602   3.646   1.309   6.404 -0.3626 -0.7138  0.9727
   33CHL1  H21C 3603   3.508   1.243   6.308  0.4341  0.4809  1.4749
   33CHL1   C22 3604   3.668   1.058   6.172  0.1735 -0.6453  0.2951
   33CHL1  H22A 3605   3.719   0.960   6.177  1.5492  0.1215  3.1794
   33CHL1  H22B 3606   3.560   1.032   6.161  0.3292 -0.5463 -1.8676
   33CHL1   C23 3607   3.724   1.137   6.052  0.1206 -0.2289  0.1742
   33CHL1  H23A 3608   3.677   1.085   5.966  1.6888 -1.2798 -0.0678
   33CHL1  H23B 3609   3.678   1.238   6.064  1.8232  0.6275 -0.1642
   33CHL1   C24 3610   3.881   1.154   6.036 -0.2325  0.1871 -0.0198
   33CHL1  H24A 3611   3.898   1.202   5.937  1.6293  1.0872  0.7031
   33CHL1  H24B 3612   3.899   1.234   6.111  0.3057  1.6816 -1.6818
   33CHL1   C25 3613   3.969   1.025   6.037  0.6125 -0.1694 -0.5915
   33CHL1   H25 3614   3.933   0.954   6.114 -0.0730 -0.0349 -0.7800
   33CHL1   C26 3615   3.973   0.944   5.909  0.9676 -0.8342 -1.0444
   33CHL1  H26A 3616   4.043   0.859   5.915  1.1161 -0.9580 -3.5987
   33CHL1  H26B 3617   3.870   0.902   5.901 -1.0866  3.7287 -2.2677
   33CHL1  H26C 3618   3.984   1.003   5.816  0.7742 -0.2317 -0.6940
   33CHL1   C27 3619   4.111   1.064   6.079  0.7780 -0.1752 -0.8505
   33CHL1  H27A 3620   4.183   0.979   6.084  0.2205 -0.5768  1.9385
   33CHL1  H27B 3621   4.146   1.134   6.000  2.1851 -0.4655 -0.5207
   33CHL1  H27C 3622   4.118   1.104   6.182  0.3607  1.3683 -1.4084
   34CHL1    C3 3623   1.663   1.619   7.162  0.0188  0.3798 -0.1605
   34CHL1    H3 3624   1.562   1.665   7.154  0.2118  1.0746  1.1342
   34CHL1    O3 3625   1.675   1.586   7.297 -0.2865 -0.1657 -0.0746
   34CHL1   H3' 3626   1.768   1.592   7.320 -0.0071 -1.5316 -0.7231
   34CHL1    C4 3627   1.660   1.493   7.076 -0.0665 -0.0287  0.6825
   34CHL1   H4A 3628   1.754   1.434   7.085  0.4942  0.5139 -1.0501
   34CHL1   H4B 3629   1.575   1.435   7.117 -0.4938  0.5945  0.6979
   34CHL1    C5 3630   1.656   1.533   6.928  0.1624 -0.1895  0.4373
   34CHL1    C6 3631   1.557   1.489   6.848 -0.8467  0.3178 -0.1087
   34CHL1    H6 3632   1.489   1.410   6.883 -0.3886 -0.2252 -0.4252
   34CHL1    C7 3633   1.548   1.526   6.700  0.6839  0.3178  0.1633
   34CHL1   H7A 3634   1.512   1.440   6.639 -0.3448  0.1480  0.9982
   34CHL1   H7B 3635   1.475   1.608   6.688 -2.3643 -2.1575  0.4997
   34CHL1    C8 3636   1.685   1.582   6.643 -0.1186  0.3894  0.8568
   34CHL1    H8 3637   1.756   1.497   6.636  0.5880  0.9758  0.7267
   34CHL1   C14 3638   1.669   1.629   6.500 -0.2379 -0.8675 -0.4720
   34CHL1   H14 3639   1.600   1.716   6.498  0.0553 -0.5780  0.9825
   34CHL1   C15 3640   1.628   1.530   6.391  0.0488  0.1595 -0.2888
   34CHL1  H15A 3641   1.685   1.439   6.418  0.1318  0.5247  0.8605
   34CHL1  H15B 3642   1.523   1.502   6.369 -0.5912  0.5562  1.9861
   34CHL1   C16 3643   1.676   1.581   6.257 -0.4107 -1.0109  0.2200
   34CHL1  H16A 3644   1.757   1.518   6.214  0.2100 -0.5703  0.7224
   34CHL1  H16B 3645   1.590   1.595   6.188 -1.6560 -0.0298  1.8900
   34CHL1   C17 3646   1.740   1.723   6.296  0.6079  0.0899 -0.5828
   34CHL1   H17 3647   1.656   1.795   6.299  0.0612 -0.5572  0.9750
   34CHL1   C13 3648   1.787   1.704   6.440 -0.0367 -0.7485 -0.7299
   34CHL1   C18 3649   1.906   1.612   6.447  0.6748  0.3374  0.6935
   34CHL1  H18A 3650   1.888   1.513   6.400 -0.1273  0.7316  0.1382
   34CHL1  H18B 3651   1.986   1.656   6.384 -0.2833  1.9687  0.5617
   34CHL1  H18C 3652   1.954   1.599   6.546  0.6596  0.1165  0.6719
   34CHL1   C12 3653   1.815   1.832   6.529 -0.4623  0.2961 -0.5284
   34CHL1  H12A 3654   1.907   1.883   6.492 -1.1348  1.2994 -0.8646
   34CHL1  H12B 3655   1.729   1.903   6.534 -0.9269 -0.3528  2.3414
   34CHL1   C11 3656   1.841   1.793   6.680 -0.2483  0.1299  0.3687
   34CHL1  H11A 3657   1.946   1.759   6.676  0.8225  3.2559 -1.0157
   34CHL1  H11B 3658   1.846   1.890   6.733 -1.1288  1.1388 -1.3103
   34CHL1    C9 3659   1.729   1.700   6.734  0.8388  0.0417  0.0150
   34CHL1    H9 3660   1.640   1.766   6.748 -0.6179 -1.1742 -2.8084
   34CHL1   C10 3661   1.753   1.644   6.881 -0.6637 -0.4307 -0.4019
   34CHL1   C19 3662   1.893   1.587   6.890 -0.0590 -0.6389  0.3247
   34CHL1  H19A 3663   1.930   1.550   6.988 -0.4042 -1.2011  0.2505
   34CHL1  H19B 3664   1.899   1.499   6.822  2.5550 -1.0606  0.9656
   34CHL1  H19C 3665   1.967   1.663   6.857 -0.3476  0.5140  2.1417
   34CHL1    C1 3666   1.762   1.767   6.984  0.2299 -0.1827 -0.8874
   34CHL1   H1A 3667   1.839   1.843   6.958  0.2579 -0.1915 -0.8307
   34CHL1   H1B 3668   1.660   1.812   6.985 -0.3810 -1.5145 -1.2097
   34CHL1    C2 3669   1.773   1.721   7.132 -0.1179 -0.3748  0.8478
   34CHL1   H2A 3670   1.765   1.809   7.199  0.1321  1.3761 -1.2947
   34CHL1   H2B 3671   1.874   1.676   7.142 -1.1738 -3.0316  0.3745
   34CHL1   C20 3672   1.844   1.770   6.193 -0.0698  0.1511  0.2841
   34CHL1   H20 3673   1.941   1.721   6.217  1.9259  2.5432 -2.1976
   34CHL1   C21 3674   1.864   1.924   6.196  0.0722 -0.7659 -0.1492
   34CHL1  H21A 3675   1.850   1.956   6.302  2.7839 -2.8891  0.9800
   34CHL1  H21B 3676   1.791   1.984   6.138 -0.0233 -1.3249 -0.6082
   34CHL1  H21C 3677   1.968   1.959   6.175 -0.6776  1.4990 -0.4094
   34CHL1   C22 3678   1.813   1.723   6.045 -0.5507 -0.2879 -0.1050
   34CHL1  H22A 3679   1.792   1.615   6.032 -1.3062 -0.1622  0.0217
   34CHL1  H22B 3680   1.725   1.779   6.007  0.7650  2.0914  0.1636
   34CHL1   C23 3681   1.940   1.751   5.960 -0.0880  0.6346 -0.0552
   34CHL1  H23A 3682   1.951   1.861   5.954 -0.0889  0.9974  4.0944
   34CHL1  H23B 3683   2.035   1.715   6.004 -0.4438 -1.8728 -1.1433
   34CHL1   C24 3684   1.939   1.700   5.815 -0.0309  1.1161  0.4212
   34CHL1  H24A 3685   2.039   1.704   5.767 -0.0822  1.1410  0.3156
   34CHL1  H24B 3686   1.905   1.594   5.808  0.4323  1.0853 -3.8995
   34CHL1   C25 3687   1.856   1.780   5.718  0.0459 -0.0313  0.2858
   34CHL1   H25 3688   1.761   1.812   5.768 -0.2252  0.3362 -0.4534
   34CHL1   C26 3689   1.935   1.894   5.666 -0.3546 -0.4115 -0.5430
   34CHL1  H26A 3690   1.889   1.951   5.582  3.3327  2.5769 -0.8261
   34CHL1  H26B 3691   1.981   1.967   5.736 -0.7274  0.6707 -1.3931
   34CHL1  H26C 3692   2.028   1.854   5.621 -0.0492 -0.4107  0.0736
   34CHL1   C27 3693   1.802   1.690   5.606 -0.3519 -0.0410 -0.5536
   34CHL1  H27A 3694   1.884   1.658   5.537 -0.5616 -0.9119 -0.4213
   34CHL1  H27B 3695   1.758   1.599   5.652  1.5064 -1.2551 -1.0299
   34CHL1  H27C 3696   1.719   1.738   5.551 -1.9614 -0.4790  1.4110
   35CHL1    C3 3697   6.402   4.684   6.899 -0.0213  0.9727  0.3506
   35CHL1    H3 3698   6.350   4.780   6.879 -1.0127  0.4944  0.5301
   35CHL1    O3 3699   6.385   4.650   7.036  0.2064  0.0924  0.3069
   35CHL1   H3' 3700   6.441   4.575   7.057 -1.0221 -0.9614 -0.0642
   35CHL1    C4 3701   6.351   4.563   6.813 -0.2164 -0.4256  0.2833
   35CHL1   H4A 3702   6.404   4.473   6.850  1.5648  0.3305 -0.3239
   35CHL1   H4B 3703   6.244   4.547   6.839 -0.4605 -0.4417 -0.6973
   35CHL1    C5 3704   6.368   4.575   6.663  0.0115 -0.1053 -0.0035
   35CHL1    C6 3705   6.267   4.576   6.570 -0.1348 -0.4192  0.1951
   35CHL1    H6 3706   6.165   4.549   6.601 -0.8550 -0.2515 -1.8573
   35CHL1    C7 3707   6.283   4.609   6.421  0.7917 -0.6506  0.1638
   35CHL1   H7A 3708   6.223   4.529   6.373 -1.3034 -0.7073  2.6903
   35CHL1   H7B 3709   6.244   4.711   6.400 -0.5700 -1.5646 -2.0908
   35CHL1    C8 3710   6.428   4.598   6.375  0.1366  0.6086 -0.1228
   35CHL1    H8 3711   6.457   4.491   6.377  1.3961  0.9381  0.9816
   35CHL1   C14 3712   6.441   4.658   6.240  0.2112 -0.0416 -0.6830
   35CHL1   H14 3713   6.417   4.767   6.239  2.3125  0.4616 -0.3929
   35CHL1   C15 3714   6.348   4.600   6.135  0.6164 -0.0302  0.8969
   35CHL1  H15A 3715   6.350   4.489   6.149 -2.2007 -0.5663 -1.9443
   35CHL1  H15B 3716   6.238   4.613   6.141  0.9030  1.9437  3.3878
   35CHL1   C16 3717   6.415   4.640   6.007 -0.1916 -0.6402  0.2052
   35CHL1  H16A 3718   6.440   4.548   5.948 -0.5775 -0.3471 -0.4321
   35CHL1  H16B 3719   6.342   4.705   5.955 -0.4121 -0.7095  0.4301
   35CHL1   C17 3720   6.551   4.714   6.043  0.4603 -0.0496  0.1717
   35CHL1   H17 3721   6.529   4.821   6.061  1.9466  0.3675 -0.3619
   35CHL1   C13 3722   6.582   4.645   6.183  0.5782  0.2682  0.2775
   35CHL1   C18 3723   6.627   4.502   6.153  1.2870  0.0218 -0.4148
   35CHL1  H18A 3724   6.591   4.457   6.058 -0.3602 -3.5082  1.6598
   35CHL1  H18B 3725   6.738   4.499   6.145  1.2142 -1.5583 -1.4949
   35CHL1  H18C 3726   6.591   4.436   6.234 -0.2541 -0.5071 -1.4955
   35CHL1   C12 3727   6.676   4.720   6.275 -0.5162 -0.1238  0.2411
   35CHL1  H12A 3728   6.777   4.718   6.228 -0.7321  0.9324 -0.2766
   35CHL1  H12B 3729   6.645   4.824   6.299  0.7951 -0.2730  3.0659
   35CHL1   C11 3730   6.677   4.666   6.417 -0.3534  0.1255  0.1922
   35CHL1  H11A 3731   6.723   4.566   6.432  1.0669  0.8949  1.2757
   35CHL1  H11B 3732   6.740   4.732   6.481 -0.1592 -0.2388  0.3790
   35CHL1    C9 3733   6.533   4.657   6.475 -0.4397 -0.9482  0.4845
   35CHL1    H9 3734   6.491   4.759   6.490 -0.4217 -1.1684  2.3052
   35CHL1   C10 3735   6.516   4.610   6.624 -0.6385  0.7534 -0.0995
   35CHL1   C19 3736   6.596   4.485   6.641 -0.3835 -0.0112  0.1322
   35CHL1  H19A 3737   6.593   4.448   6.746  1.2530  1.2977  0.6822
   35CHL1  H19B 3738   6.555   4.401   6.581  1.8232 -1.0205 -0.0551
   35CHL1  H19C 3739   6.702   4.504   6.615 -0.3904 -1.5643 -1.2242
   35CHL1    C1 3740   6.571   4.717   6.722  0.7128 -0.1464 -0.6478
   35CHL1   H1A 3741   6.681   4.715   6.708  1.0515  1.6594  1.1076
   35CHL1   H1B 3742   6.541   4.818   6.686 -1.3646 -0.3252  0.4274
   35CHL1    C2 3743   6.553   4.692   6.873  0.2845 -0.1156 -0.3102
   35CHL1   H2A 3744   6.598   4.773   6.935 -0.7804  0.4793 -0.2929
   35CHL1   H2B 3745   6.592   4.595   6.911 -2.9890 -1.3440  0.1954
   35CHL1   C20 3746   6.648   4.705   5.929 -1.2706 -0.0913 -0.8773
   35CHL1   H20 3747   6.700   4.608   5.917 -2.1554 -0.7411  0.3099
   35CHL1   C21 3748   6.765   4.805   5.958  0.0892 -0.2220 -0.1598
   35CHL1  H21A 3749   6.734   4.911   5.946 -0.4624 -0.2144  1.1330
   35CHL1  H21B 3750   6.844   4.798   5.881 -1.3399 -0.0007 -1.7180
   35CHL1  H21C 3751   6.822   4.793   6.052  1.6331 -1.3652 -1.1772
   35CHL1   C22 3752   6.581   4.731   5.793  0.4343  0.8944 -0.5405
   35CHL1  H22A 3753   6.513   4.649   5.760  0.7343  0.0116  0.9431
   35CHL1  H22B 3754   6.521   4.824   5.798  0.8720  1.1033  2.0503
   35CHL1   C23 3755   6.682   4.738   5.674 -0.9476 -0.5432 -0.1310
   35CHL1  H23A 3756   6.733   4.836   5.676 -1.4565 -0.2759  0.0920
   35CHL1  H23B 3757   6.743   4.650   5.702 -3.6513 -2.8072 -0.8174
   35CHL1   C24 3758   6.612   4.714   5.544 -0.3609 -0.3102 -0.1139
   35CHL1  H24A 3759   6.569   4.612   5.532 -1.4290 -0.1132  1.6067
   35CHL1  H24B 3760   6.531   4.789   5.534  2.1771  2.3056 -3.1723
   35CHL1   C25 3761   6.689   4.745   5.417 -0.5329  0.1570  0.6197
   35CHL1   H25 3762   6.769   4.669   5.408 -1.5663 -1.4430  3.5462
   35CHL1   C26 3763   6.586   4.713   5.304 -0.8241  0.4826  0.7100
   35CHL1  H26A 3764   6.567   4.605   5.319  0.7258  0.3309  1.9509
   35CHL1  H26B 3765   6.496   4.774   5.325 -2.4569 -0.7999 -2.0622
   35CHL1  H26C 3766   6.629   4.731   5.203 -1.5175  2.3634  0.7033
   35CHL1   C27 3767   6.740   4.892   5.403  0.1047  0.1938  0.1462
   35CHL1  H27A 3768   6.812   4.920   5.483  0.0063 -0.2042  0.3740
   35CHL1  H27B 3769   6.808   4.899   5.315 -0.3072 -1.9072 -0.3944
   35CHL1  H27C 3770   6.654   4.962   5.392 -0.6702 -0.7811 -0.1187
   36CHL1    C3 3771   3.409   4.525   3.638 -0.0290 -0.1479 -0.3573
   36CHL1    H3 3772   3.478   4.453   3.688 -0.4506  0.3654  1.0248
   36CHL1    O3 3773   3.387   4.486   3.504  0.0364 -0.7750  0.7011
   36CHL1   H3' 3774   3.468   4.519   3.463  0.1500 -0.3392  1.2598
   36CHL1    C4 3775   3.270   4.515   3.705 -0.0295  0.0312  0.5753
   36CHL1   H4A 3776   3.194   4.573   3.648 -0.8252 -0.5304  1.0333
   36CHL1   H4B 3777   3.239   4.409   3.690  1.6428 -0.5995  1.3809
   36CHL1    C5 3778   3.286   4.566   3.853  0.0942 -0.4412  0.4622
   36CHL1    C6 3779   3.241   4.479   3.948 -0.3362  0.0979  0.1058
   36CHL1    H6 3780   3.193   4.385   3.918  2.7339 -1.4452 -0.3354
   36CHL1    C7 3781   3.232   4.499   4.099  0.0757  0.5979  0.3231
   36CHL1   H7A 3782   3.141   4.468   4.154  0.9924 -2.1918  0.4325
   36CHL1   H7B 3783   3.312   4.441   4.151 -0.0864 -1.6307 -1.7624
   36CHL1    C8 3784   3.265   4.645   4.128 -0.9945 -0.1347  0.0803
   36CHL1    H8 3785   3.169   4.697   4.110 -0.9013 -0.6721 -2.3423
   36CHL1   C14 3786   3.293   4.652   4.278 -0.1743  1.0106 -0.0889
   36CHL1   H14 3787   3.380   4.585   4.294 -1.5362 -0.6631  0.5924
   36CHL1   C15 3788   3.181   4.600   4.373  0.1566  1.1000  0.1814
   36CHL1  H15A 3789   3.082   4.628   4.331 -0.4631 -3.6344 -2.2955
   36CHL1  H15B 3790   3.185   4.489   4.384  0.8899  1.1735  0.7224
   36CHL1   C16 3791   3.220   4.670   4.501  0.6076 -0.3284 -0.4946
   36CHL1  H16A 3792   3.147   4.751   4.521  0.5731  0.0782 -2.1122
   36CHL1  H16B 3793   3.223   4.592   4.580  0.8501  0.2644  0.0814
   36CHL1   C17 3794   3.352   4.742   4.476 -0.0995 -0.4442 -0.1991
   36CHL1   H17 3795   3.440   4.674   4.477 -0.0431 -0.5366 -2.9341
   36CHL1   C13 3796   3.338   4.790   4.326  0.3241  0.9319 -0.0923
   36CHL1   C18 3797   3.233   4.901   4.322 -0.2030  0.3670 -0.6375
   36CHL1  H18A 3798   3.132   4.873   4.361  0.4111 -2.9661 -1.1385
   36CHL1  H18B 3799   3.254   4.997   4.373 -2.3861  0.7159 -0.2827
   36CHL1  H18C 3800   3.221   4.911   4.212  2.9047 -1.6764 -1.2778
   36CHL1   C12 3801   3.464   4.834   4.240 -0.5583  0.1856 -0.2711
   36CHL1  H12A 3802   3.512   4.932   4.262  1.8561 -0.4469 -2.2273
   36CHL1  H12B 3803   3.539   4.754   4.258 -1.0556 -0.1880  0.1658
   36CHL1   C11 3804   3.427   4.839   4.092  0.4258 -0.0799  0.6453
   36CHL1  H11A 3805   3.361   4.922   4.059  1.4425  1.1655  1.6402
   36CHL1  H11B 3806   3.520   4.876   4.044 -0.3939  1.6365  0.2965
   36CHL1    C9 3807   3.382   4.703   4.034  0.2942  0.0710 -0.8842
   36CHL1    H9 3808   3.473   4.643   4.054 -0.3594 -1.1343 -1.3716
   36CHL1   C10 3809   3.349   4.701   3.888 -0.7392 -0.0261 -0.2176
   36CHL1   C19 3810   3.245   4.802   3.847  0.5149  0.3919  0.3338
   36CHL1  H19A 3811   3.153   4.811   3.908  1.4709  2.4089  1.5619
   36CHL1  H19B 3812   3.294   4.900   3.833  0.1069  0.2271 -3.2527
   36CHL1  H19C 3813   3.202   4.785   3.746  0.7249  0.9914  0.1423
   36CHL1    C1 3814   3.478   4.710   3.797  0.1469  0.1215  0.0588
   36CHL1   H1A 3815   3.511   4.815   3.806 -2.1072  0.7876  1.4646
   36CHL1   H1B 3816   3.543   4.633   3.844 -0.1181 -0.0322  0.1808
   36CHL1    C2 3817   3.458   4.672   3.650 -0.1512 -0.0773 -0.1578
   36CHL1   H2A 3818   3.559   4.680   3.604 -0.3515  0.6958 -0.4804
   36CHL1   H2B 3819   3.392   4.735   3.586 -0.6488 -0.4213  0.0130
   36CHL1   C20 3820   3.378   4.863   4.572 -0.5458  1.1528  0.1082
   36CHL1   H20 3821   3.292   4.933   4.574 -0.2395  1.5209  0.4566
   36CHL1   C21 3822   3.499   4.952   4.539  0.8123 -0.1456 -0.5170
   36CHL1  H21A 3823   3.472   5.003   4.445  0.6787  1.3297  0.2907
   36CHL1  H21B 3824   3.594   4.895   4.526 -0.4037 -2.2914 -0.5839
   36CHL1  H21C 3825   3.519   5.026   4.620  1.4836 -0.1638 -0.6557
   36CHL1   C22 3826   3.388   4.807   4.720 -0.3444  0.2124  0.1210
   36CHL1  H22A 3827   3.298   4.742   4.734  0.6393 -1.0820  0.6610
   36CHL1  H22B 3828   3.479   4.744   4.727 -1.0542 -0.8064  0.5533
   36CHL1   C23 3829   3.374   4.913   4.825  0.4864 -0.1788  0.5619
   36CHL1  H23A 3830   3.460   4.982   4.827 -0.4110  1.0022  0.0537
   36CHL1  H23B 3831   3.291   4.978   4.791 -0.6549 -0.7084  2.1962
   36CHL1   C24 3832   3.336   4.860   4.970 -0.2213 -0.2623  0.8676
   36CHL1  H24A 3833   3.238   4.810   4.967 -0.7365  0.7196  0.8576
   36CHL1  H24B 3834   3.421   4.793   4.995  0.6287  0.3360 -0.3231
   36CHL1   C25 3835   3.345   4.965   5.080 -0.1679 -0.7569  0.0918
   36CHL1   H25 3836   3.296   5.063   5.060  0.5829 -0.4618 -0.3422
   36CHL1   C26 3837   3.253   4.913   5.191 -0.6732 -0.5039  0.1229
   36CHL1  H26A 3838   3.151   4.882   5.158 -1.8016  0.7019  2.2169
   36CHL1  H26B 3839   3.295   4.825   5.244 -0.9747 -0.5851  0.2315
   36CHL1  H26C 3840   3.234   5.000   5.258 -0.5275  1.5117 -2.2851
   36CHL1   C27 3841   3.488   4.995   5.116 -0.1316  0.1441  0.2816
   36CHL1  H27A 3842   3.499   5.073   5.194  0.5666 -1.2755  1.6489
   36CHL1  H27B 3843   3.533   4.903   5.158  0.8547  0.9676  1.0886
   36CHL1  H27C 3844   3.547   5.048   5.038 -0.9945 -0.6736 -0.9566
   37CHL1    C3 3845   6.577   5.126   6.933  0.2376  0.1486  0.1321
   37CHL1    H3 3846   6.506   5.051   6.891 -0.4004 -0.2669  1.8913
   37CHL1    O3 3847   6.544   5.120   7.071 -0.0112  0.2174 -0.2877
   37CHL1   H3' 3848   6.613   5.168   7.117 -0.5889  0.8645 -0.0782
   37CHL1    C4 3849   6.723   5.084   6.911  0.3319  0.2736 -0.3810
   37CHL1   H4A 3850   6.778   5.165   6.962 -2.4606  0.5760  2.4072
   37CHL1   H4B 3851   6.741   4.990   6.968  0.3193 -0.1405 -1.0485
   37CHL1    C5 3852   6.762   5.105   6.764  0.5840 -0.1006 -0.3559
   37CHL1    C6 3853   6.817   5.005   6.696 -0.1004 -0.0267  0.1351
   37CHL1    H6 3854   6.839   4.909   6.744 -1.3366 -1.3156 -1.7093
   37CHL1    C7 3855   6.849   5.014   6.552  0.3072 -0.1481  0.4777
   37CHL1   H7A 3856   6.950   4.967   6.555  0.5579  0.4583  2.6456
   37CHL1   H7B 3857   6.767   4.963   6.498  0.6323  1.9121 -2.2137
   37CHL1    C8 3858   6.850   5.154   6.494 -0.3997 -0.0295 -0.7500
   37CHL1    H8 3859   6.949   5.195   6.524 -0.9789  0.9501 -0.1089
   37CHL1   C14 3860   6.832   5.158   6.339  0.0549  0.1134 -0.2329
   37CHL1   H14 3861   6.729   5.125   6.311 -0.6087  1.4552  0.5378
   37CHL1   C15 3862   6.924   5.067   6.253  0.2228  0.6202  0.4310
   37CHL1  H15A 3863   7.028   5.057   6.291  0.4552  0.8591 -0.1377
   37CHL1  H15B 3864   6.884   4.963   6.253  1.3209  0.1563  1.9756
   37CHL1   C16 3865   6.916   5.127   6.113 -0.0142  0.3381 -0.1924
   37CHL1  H16A 3866   7.013   5.133   6.059  0.5264 -0.6883  0.6131
   37CHL1  H16B 3867   6.848   5.060   6.056  0.2517  1.2052 -1.5520
   37CHL1   C17 3868   6.852   5.269   6.129  0.3643  0.0933  0.2333
   37CHL1   H17 3869   6.743   5.263   6.107 -0.0870  0.7548  2.0750
   37CHL1   C13 3870   6.852   5.299   6.286 -0.3358 -0.0945  0.0884
   37CHL1   C18 3871   6.986   5.361   6.320  0.1757 -0.2211  0.2664
   37CHL1  H18A 3872   7.063   5.293   6.279  1.8890  0.3781  2.3115
   37CHL1  H18B 3873   7.013   5.460   6.277  1.1975 -0.5923  0.0132
   37CHL1  H18C 3874   7.008   5.369   6.428 -0.6278  0.4503  0.3867
   37CHL1   C12 3875   6.743   5.390   6.338 -0.0021 -0.1634  0.4388
   37CHL1  H12A 3876   6.747   5.499   6.319 -0.1144 -0.5577 -2.1011
   37CHL1  H12B 3877   6.645   5.351   6.302  0.1712 -1.2998  1.1385
   37CHL1   C11 3878   6.737   5.386   6.491  0.2750 -0.2311 -0.0764
   37CHL1  H11A 3879   6.825   5.438   6.535  0.9297 -2.2191  1.1034
   37CHL1  H11B 3880   6.642   5.435   6.520 -0.0620 -1.2417  0.5692
   37CHL1    C9 3881   6.735   5.243   6.549 -0.1936  0.0508  0.5468
   37CHL1    H9 3882   6.645   5.192   6.509  0.0813  0.4272 -0.5777
   37CHL1   C10 3883   6.732   5.242   6.701 -0.2212 -0.4877 -0.2048
   37CHL1   C19 3884   6.826   5.356   6.763  0.6251  0.4703 -0.4457
   37CHL1  H19A 3885   6.839   5.352   6.873 -0.4301  3.6700 -0.1176
   37CHL1  H19B 3886   6.924   5.348   6.711  1.9311  0.8998  1.8550
   37CHL1  H19C 3887   6.790   5.460   6.746 -0.7823 -0.0380 -0.7726
   37CHL1    C1 3888   6.590   5.282   6.742 -0.0705 -0.2727  0.0633
   37CHL1   H1A 3889   6.577   5.390   6.721  1.7584  0.2635  1.4143
   37CHL1   H1B 3890   6.520   5.231   6.672  0.9549  1.0634 -2.0196
   37CHL1    C2 3891   6.543   5.265   6.883 -0.2987  0.4049 -0.1552
   37CHL1   H2A 3892   6.434   5.285   6.887  0.0475  2.3127  1.0577
   37CHL1   H2B 3893   6.592   5.346   6.942  1.8100 -0.7341 -0.2536
   37CHL1   C20 3894   6.917   5.372   6.034 -1.3620  0.3719  0.2354
   37CHL1   H20 3895   7.019   5.391   6.075 -1.2331 -0.0760  0.1281
   37CHL1   C21 3896   6.852   5.517   6.035  0.0227  1.0571  0.8264
   37CHL1  H21A 3897   6.857   5.565   6.135  1.0470  1.0203  0.8046
   37CHL1  H21B 3898   6.743   5.513   6.016  0.1962  2.4193 -0.7076
   37CHL1  H21C 3899   6.904   5.581   5.960  1.1151  0.2540  0.8654
   37CHL1   C22 3900   6.955   5.314   5.894 -0.4487 -0.4600 -0.1506
   37CHL1  H22A 3901   7.040   5.243   5.898 -1.0468 -1.1403  1.4413
   37CHL1  H22B 3902   6.878   5.244   5.855  0.8218 -0.9119 -1.9734
   37CHL1   C23 3903   6.983   5.420   5.790 -0.5792 -0.3500  0.6631
   37CHL1  H23A 3904   6.889   5.478   5.774  1.0292  1.4612 -3.7609
   37CHL1  H23B 3905   7.062   5.492   5.821  0.2136 -0.7882 -0.2692
   37CHL1   C24 3906   7.026   5.354   5.655  0.2167 -0.0947 -0.0976
   37CHL1  H24A 3907   7.087   5.262   5.670 -1.8497 -1.3800  0.9841
   37CHL1  H24B 3908   6.931   5.328   5.603  0.6335 -1.1156 -0.3781
   37CHL1   C25 3909   7.111   5.448   5.571 -0.2099  0.3063  0.1394
   37CHL1   H25 3910   7.186   5.491   5.640  1.4627  1.4222 -2.2409
   37CHL1   C26 3911   7.189   5.377   5.460  0.3442  0.3547  0.6441
   37CHL1  H26A 3912   7.272   5.439   5.420  0.1002 -0.4588 -1.2174
   37CHL1  H26B 3913   7.234   5.282   5.497  0.4041 -0.2203 -0.8165
   37CHL1  H26C 3914   7.114   5.358   5.380 -0.6398 -0.6950  1.7705
   37CHL1   C27 3915   7.036   5.576   5.520  0.3889  0.1870 -0.4109
   37CHL1  H27A 3916   7.106   5.657   5.490  0.1453  0.2156 -0.9120
   37CHL1  H27B 3917   6.974   5.550   5.432  0.7739 -0.3407 -0.5318
   37CHL1  H27C 3918   6.977   5.629   5.598  1.3846  1.4866 -0.5175
   38CHL1    C3 3919   6.489   2.461   6.965 -1.0816 -0.1036  0.0730
   38CHL1    H3 3920   6.484   2.572   6.962  0.3074 -0.0128  0.6380
   38CHL1    O3 3921   6.506   2.415   7.100  0.2235 -0.2433 -0.8016
   38CHL1   H3' 3922   6.486   2.322   7.105  1.3300 -0.5016 -0.9885
   38CHL1    C4 3923   6.353   2.403   6.911  0.2976  0.1936  0.0772
   38CHL1   H4A 3924   6.351   2.292   6.920 -1.3793  0.2415  0.7705
   38CHL1   H4B 3925   6.274   2.443   6.979 -0.9567 -0.9844 -0.6286
   38CHL1    C5 3926   6.342   2.434   6.762 -0.9018 -0.1855 -0.5744
   38CHL1    C6 3927   6.235   2.480   6.703  0.2214  0.7748 -0.5462
   38CHL1    H6 3928   6.144   2.493   6.765  0.7849 -0.0631  0.4993
   38CHL1    C7 3929   6.223   2.493   6.557 -0.1851  0.0846  0.1728
   38CHL1   H7A 3930   6.130   2.441   6.526  0.4817 -0.1105 -1.6170
   38CHL1   H7B 3931   6.221   2.600   6.528 -2.5076  0.0543  0.0192
   38CHL1    C8 3932   6.345   2.435   6.473 -0.0121 -0.9750  0.1546
   38CHL1    H8 3933   6.331   2.326   6.464 -1.3975 -0.9408  1.4473
   38CHL1   C14 3934   6.332   2.495   6.333 -0.0946 -0.1096 -0.1037
   38CHL1   H14 3935   6.334   2.605   6.339 -2.1984 -0.1169  1.8913
   38CHL1   C15 3936   6.208   2.460   6.246  0.0767  0.0921 -0.5081
   38CHL1  H15A 3937   6.189   2.353   6.270 -2.9082  0.5534 -0.4430
   38CHL1  H15B 3938   6.128   2.528   6.280  3.3487  1.5672  5.7602
   38CHL1   C16 3939   6.248   2.486   6.103 -0.2399  0.2945  0.0397
   38CHL1  H16A 3940   6.229   2.397   6.041 -0.2571  1.2981 -1.4407
   38CHL1  H16B 3941   6.191   2.569   6.056  1.8330  0.6252 -2.0556
   38CHL1   C17 3942   6.401   2.500   6.101  0.0676 -0.1494 -0.6286
   38CHL1   H17 3943   6.422   2.609   6.099  0.2867 -0.1625  0.3634
   38CHL1   C13 3944   6.442   2.443   6.240 -0.2868  0.3518  0.4010
   38CHL1   C18 3945   6.446   2.289   6.225  0.6641  0.0571 -0.4135
   38CHL1  H18A 3946   6.365   2.261   6.154 -0.6005  0.5599  0.7792
   38CHL1  H18B 3947   6.543   2.249   6.190  1.2736 -0.3640  1.6215
   38CHL1  H18C 3948   6.432   2.228   6.317 -1.9457 -0.3964 -1.0214
   38CHL1   C12 3949   6.580   2.488   6.302 -0.5921 -0.5713 -0.3124
   38CHL1  H12A 3950   6.669   2.462   6.241 -0.8051  0.2904 -1.0113
   38CHL1  H12B 3951   6.579   2.599   6.307  1.6046 -0.4086 -1.8989
   38CHL1   C11 3952   6.589   2.432   6.446 -0.7650 -0.3916 -0.3076
   38CHL1  H11A 3953   6.614   2.324   6.455  2.0678  0.2794  1.1822
   38CHL1  H11B 3954   6.674   2.488   6.492 -1.6913  0.0605  0.9130
   38CHL1    C9 3955   6.471   2.473   6.539  0.3227  0.0189  0.0037
   38CHL1    H9 3956   6.478   2.583   6.545  1.7435 -0.0849  0.8837
   38CHL1   C10 3957   6.476   2.405   6.683 -0.1880 -0.4788 -0.2300
   38CHL1   C19 3958   6.481   2.250   6.677 -0.3589 -0.0930  0.2996
   38CHL1  H19A 3959   6.570   2.205   6.628 -0.6393 -1.4858  1.0224
   38CHL1  H19B 3960   6.472   2.194   6.773 -0.2800 -0.8800 -0.1467
   38CHL1  H19C 3961   6.395   2.219   6.615  1.0660 -0.6708 -1.4580
   38CHL1    C1 3962   6.599   2.465   6.755  0.4419  0.7733 -0.1089
   38CHL1   H1A 3963   6.691   2.442   6.697  0.0087  0.4444 -0.6691
   38CHL1   H1B 3964   6.598   2.576   6.767  2.0316  0.8916 -0.8609
   38CHL1    C2 3965   6.617   2.421   6.897  0.3664  0.0372  0.3710
   38CHL1   H2A 3966   6.700   2.480   6.940  2.9992 -2.8272 -0.4141
   38CHL1   H2B 3967   6.632   2.313   6.915  0.5150  0.1772  1.1095
   38CHL1   C20 3968   6.467   2.443   5.970 -0.2114  0.1936 -0.6667
   38CHL1   H20 3969   6.452   2.333   5.969 -2.0089  0.4086 -0.8661
   38CHL1   C21 3970   6.615   2.481   5.957 -0.0246 -0.2113  0.7715
   38CHL1  H21A 3971   6.643   2.451   5.854 -0.5810 -1.8747  1.0712
   38CHL1  H21B 3972   6.673   2.425   6.033 -0.5345  0.6525  1.8204
   38CHL1  H21C 3973   6.622   2.591   5.970 -1.8922  0.2385 -1.3759
   38CHL1   C22 3974   6.387   2.493   5.850 -0.1397 -0.3691 -0.5569
   38CHL1  H22A 3975   6.436   2.459   5.756  0.9428  0.4603 -0.3202
   38CHL1  H22B 3976   6.286   2.447   5.845 -0.0347 -0.4943 -2.3298
   38CHL1   C23 3977   6.380   2.646   5.837 -0.1787 -0.6455  0.0892
   38CHL1  H23A 3978   6.339   2.690   5.930 -1.9303  0.7097 -1.2670
   38CHL1  H23B 3979   6.481   2.683   5.811  0.3523 -1.3410  1.0795
   38CHL1   C24 3980   6.275   2.702   5.735  0.1285  0.3543 -0.0808
   38CHL1  H24A 3981   6.175   2.673   5.773 -0.2945  2.2544  0.3518
   38CHL1  H24B 3982   6.269   2.812   5.748  1.7059  0.5930 -1.1490
   38CHL1   C25 3983   6.289   2.661   5.588  0.5365 -0.1175  0.1145
   38CHL1   H25 3984   6.280   2.551   5.574  4.9593 -0.5413 -1.2243
   38CHL1   C26 3985   6.170   2.716   5.502  0.0824  0.5975 -0.7714
   38CHL1  H26A 3986   6.197   2.814   5.457  0.6953 -0.2323 -2.3023
   38CHL1  H26B 3987   6.157   2.648   5.415  1.5224  1.4055 -1.6523
   38CHL1  H26C 3988   6.079   2.718   5.567  2.1515 -1.5178  2.4669
   38CHL1   C27 3989   6.421   2.704   5.514  0.5656 -0.7192 -1.3131
   38CHL1  H27A 3990   6.417   2.680   5.405  1.2840 -0.8116 -1.3212
   38CHL1  H27B 3991   6.445   2.810   5.537 -0.1039 -0.9359  0.5502
   38CHL1  H27C 3992   6.507   2.646   5.554  1.1557  1.3576  0.6329
   39CHL1    C3 3993   4.730   0.761   7.254 -0.3503 -0.3462 -0.1302
   39CHL1    H3 3994   4.804   0.680   7.239  0.1857 -0.2371  1.6128
   39CHL1    O3 3995   4.728   0.797   7.391 -0.0481  0.0421  0.3095
   39CHL1   H3' 3996   4.669   0.872   7.401  0.5136  0.7030 -1.0425
   39CHL1    C4 3997   4.762   0.881   7.174 -0.4631 -0.3068 -0.0553
   39CHL1   H4A 3998   4.680   0.953   7.200 -2.2557 -1.9757 -0.8351
   39CHL1   H4B 3999   4.852   0.933   7.213  0.4592 -1.9967  0.1328
   39CHL1    C5 4000   4.774   0.845   7.027  0.4666  0.5292  0.7544
   39CHL1    C6 4001   4.890   0.860   6.963  0.2458  0.4243  0.1616
   39CHL1    H6 4002   4.978   0.891   7.020 -0.2046 -2.0894  2.4616
   39CHL1    C7 4003   4.916   0.803   6.823  0.0065  0.0310  0.9679
   39CHL1   H7A 4004   4.986   0.871   6.771 -1.0069 -0.0449 -0.5566
   39CHL1   H7B 4005   4.958   0.701   6.839  1.5192  0.2843 -1.0595
   39CHL1    C8 4006   4.781   0.777   6.750 -0.4364 -0.9221 -0.3020
   39CHL1    H8 4007   4.742   0.878   6.725  0.3720  0.2305  2.6561
   39CHL1   C14 4008   4.813   0.690   6.636  0.4182  0.0346  0.3423
   39CHL1   H14 4009   4.840   0.590   6.677 -1.9174 -0.7166  0.2091
   39CHL1   C15 4010   4.935   0.715   6.544 -0.4722 -0.7865  0.1835
   39CHL1  H15A 4011   4.934   0.825   6.529  1.4657 -0.5037  1.8037
   39CHL1  H15B 4012   5.022   0.679   6.602  0.2457 -0.3498 -0.6032
   39CHL1   C16 4013   4.912   0.632   6.413  0.1858  0.1623  0.1318
   39CHL1  H16A 4014   4.921   0.697   6.323  1.3625 -0.4311 -0.2060
   39CHL1  H16B 4015   4.982   0.546   6.405 -1.1607 -1.0196  0.5143
   39CHL1   C17 4016   4.766   0.578   6.429  0.2576 -0.0650 -1.1056
   39CHL1   H17 4017   4.785   0.476   6.470  0.5592  0.3555 -0.1706
   39CHL1   C13 4018   4.696   0.658   6.544  0.0107  0.2580 -0.0407
   39CHL1   C18 4019   4.637   0.797   6.491  0.9290 -0.1226  0.1634
   39CHL1  H18A 4020   4.560   0.775   6.414  0.9454  0.5795 -0.0644
   39CHL1  H18B 4021   4.597   0.865   6.569  0.6471  0.0604 -0.1336
   39CHL1  H18C 4022   4.712   0.856   6.433  0.5054 -0.2168 -0.4960
   39CHL1   C12 4023   4.594   0.579   6.628  0.4092 -1.0777 -0.6675
   39CHL1  H12A 4024   4.504   0.564   6.565  0.5084  0.5767 -1.2697
   39CHL1  H12B 4025   4.636   0.484   6.667  1.2433  0.4069  2.3608
   39CHL1   C11 4026   4.551   0.655   6.759  0.3153 -0.5691  0.3748
   39CHL1  H11A 4027   4.491   0.744   6.730 -0.9869 -0.6313  2.7143
   39CHL1  H11B 4028   4.488   0.586   6.819  1.4948 -1.2123  0.8994
   39CHL1    C9 4029   4.674   0.705   6.837 -0.2271 -0.5184  0.2525
   39CHL1    H9 4030   4.723   0.609   6.865  1.2535 -0.1039 -0.8170
   39CHL1   C10 4031   4.648   0.777   6.974 -0.3910  0.8834  0.1211
   39CHL1   C19 4032   4.548   0.901   6.960  0.3649  0.0808 -0.2712
   39CHL1  H19A 4033   4.538   0.961   7.053  0.2471 -0.3014 -0.0351
   39CHL1  H19B 4034   4.577   0.970   6.878  0.3798 -1.1329 -1.3267
   39CHL1  H19C 4035   4.447   0.866   6.930  0.3924  0.3377 -0.6706
   39CHL1    C1 4036   4.586   0.674   7.072  0.9733 -0.3470  0.0405
   39CHL1   H1A 4037   4.478   0.666   7.044  0.9497 -0.1506  0.0731
   39CHL1   H1B 4038   4.639   0.577   7.061 -0.4533 -1.1116 -0.3607
   39CHL1    C2 4039   4.592   0.713   7.221  0.3949 -0.1325  0.4466
   39CHL1   H2A 4040   4.573   0.615   7.272 -2.9076  0.3254  0.3292
   39CHL1   H2B 4041   4.509   0.782   7.247 -0.4320 -0.3923 -1.3705
   39CHL1   C20 4042   4.694   0.567   6.290  0.3673 -0.5424 -1.6281
   39CHL1   H20 4043   4.675   0.668   6.248 -0.5275  0.2603  0.5863
   39CHL1   C21 4044   4.557   0.497   6.311 -0.6598 -0.4509  0.7890
   39CHL1  H21A 4045   4.570   0.412   6.380  1.8123  0.6272  1.7698
   39CHL1  H21B 4046   4.521   0.454   6.215 -3.1644  0.3317  1.3161
   39CHL1  H21C 4047   4.484   0.577   6.335 -1.0518  0.1683 -2.0146
   39CHL1   C22 4048   4.768   0.480   6.190  0.4663 -0.1257  0.3963
   39CHL1  H22A 4049   4.877   0.498   6.205  0.5290  0.4493 -0.6454
   39CHL1  H22B 4050   4.755   0.372   6.213 -3.2818 -0.1628 -1.1887
   39CHL1   C23 4051   4.728   0.503   6.040  0.2114  0.8856 -0.2194
   39CHL1  H23A 4052   4.664   0.418   6.009 -1.5049  1.4578  1.5109
   39CHL1  H23B 4053   4.679   0.603   6.036  2.7310  2.2130 -0.2323
   39CHL1   C24 4054   4.860   0.517   5.949 -0.0677 -0.6101 -0.5113
   39CHL1  H24A 4055   4.915   0.608   5.982  2.4701 -2.3024  0.1341
   39CHL1  H24B 4056   4.918   0.425   5.969 -0.0545 -0.2813  1.0590
   39CHL1   C25 4057   4.839   0.535   5.797 -0.8237 -0.7950  0.4113
   39CHL1   H25 4058   4.798   0.439   5.759  0.0301 -1.5002  1.2293
   39CHL1   C26 4059   4.748   0.651   5.754  0.4600 -0.3780  0.6972
   39CHL1  H26A 4060   4.792   0.748   5.785 -2.2732  2.2242 -2.8151
   39CHL1  H26B 4061   4.742   0.675   5.646  1.1846  1.9739  1.1149
   39CHL1  H26C 4062   4.652   0.642   5.810  0.5138  0.6477  0.9711
   39CHL1   C27 4063   4.971   0.555   5.727 -0.1779 -0.5720 -0.2652
   39CHL1  H27A 4064   4.964   0.559   5.616  0.1631 -2.4429 -0.3921
   39CHL1  H27B 4065   5.012   0.650   5.766 -2.1171  0.6081 -0.9679
   39CHL1  H27C 4066   5.044   0.476   5.755 -0.3223 -0.4495  0.4666
   40CHL1    C3 4067   1.949   6.310   7.184 -0.4975  0.0366 -0.0558
   40CHL1    H3 4068   1.848   6.352   7.161 -1.9654 -2.7629  0.8424
   40CHL1    O3 4069   1.943   6.245   7.308  0.2531  0.5116 -0.4093
   40CHL1   H3' 4070   1.927   6.310   7.376 -0.0280 -1.0633  1.1000
   40CHL1    C4 4071   1.983   6.207   7.078  0.1237 -0.2276 -0.6017
   40CHL1   H4A 4072   2.084   6.171   7.105  0.1998  2.4072  3.3253
   40CHL1   H4B 4073   1.912   6.122   7.091 -0.5133  0.3339 -0.3434
   40CHL1    C5 4074   1.964   6.269   6.937 -0.2151 -0.4750  0.1435
   40CHL1    C6 4075   1.879   6.221   6.848 -0.8172 -0.0055  0.2396
   40CHL1    H6 4076   1.828   6.125   6.865 -0.5032 -0.4391 -1.1202
   40CHL1    C7 4077   1.873   6.274   6.705 -0.5120  0.0950 -0.3122
   40CHL1   H7A 4078   1.877   6.183   6.641  0.3845  0.3598 -0.6405
   40CHL1   H7B 4079   1.771   6.315   6.692 -1.2527 -1.9295 -1.3533
   40CHL1    C8 4080   1.978   6.389   6.673  0.0085 -0.4709  0.1849
   40CHL1    H8 4081   2.079   6.346   6.656  0.9095  1.0727  1.4098
   40CHL1   C14 4082   1.941   6.465   6.543  0.0029  0.5748 -0.1332
   40CHL1   H14 4083   1.842   6.511   6.565 -0.3597 -0.2979  0.0738
   40CHL1   C15 4084   1.918   6.380   6.418 -0.9313  0.1852  0.1413
   40CHL1  H15A 4085   1.989   6.295   6.403  1.7250  2.3673 -0.3976
   40CHL1  H15B 4086   1.812   6.348   6.406 -1.4856  1.8709  0.3126
   40CHL1   C16 4087   1.942   6.486   6.305  0.5133  0.3077 -0.2776
   40CHL1  H16A 4088   2.012   6.440   6.232 -0.4848 -2.8856  0.5679
   40CHL1  H16B 4089   1.856   6.511   6.240  0.2903  1.4290  0.4276
   40CHL1   C17 4090   1.996   6.616   6.368  1.0084 -0.2059  0.0166
   40CHL1   H17 4091   1.908   6.683   6.381 -0.0915 -1.2961 -1.5483
   40CHL1   C13 4092   2.044   6.582   6.513  0.1099  1.3474  0.9717
   40CHL1   C18 4093   2.186   6.525   6.496 -0.0176  0.5994  0.1752
   40CHL1  H18A 4094   2.190   6.447   6.417 -0.3387 -0.0989  0.8408
   40CHL1  H18B 4095   2.246   6.618   6.481 -1.3966  2.1310  3.2163
   40CHL1  H18C 4096   2.215   6.478   6.592 -0.8367  1.2940  0.7763
   40CHL1   C12 4097   2.031   6.678   6.632 -0.2799 -0.3950 -0.2937
   40CHL1  H12A 4098   2.103   6.761   6.620 -0.7498  0.4130  1.9071
   40CHL1  H12B 4099   1.927   6.717   6.640 -0.4815 -1.0411  0.3616
   40CHL1   C11 4100   2.051   6.612   6.768 -0.1883 -0.0441  0.4578
   40CHL1  H11A 4101   2.162   6.604   6.764 -0.0919  0.7529  1.2762
   40CHL1  H11B 4102   2.024   6.685   6.847 -0.1590 -0.1153  0.5340
   40CHL1    C9 4103   1.982   6.479   6.796  0.8159 -0.9545 -0.1896
   40CHL1    H9 4104   1.876   6.512   6.809  0.4567 -0.8221 -2.7941
   40CHL1   C10 4105   2.044   6.403   6.921  0.3371 -0.2735  0.6889
   40CHL1   C19 4106   2.196   6.363   6.890  0.0494  0.1395  0.4201
   40CHL1  H19A 4107   2.230   6.304   6.977  0.7623 -0.9731 -0.5729
   40CHL1  H19B 4108   2.213   6.301   6.799  1.7738  0.5585  0.4054
   40CHL1  H19C 4109   2.259   6.455   6.882 -0.5739  0.4291 -2.2331
   40CHL1    C1 4110   2.043   6.491   7.049 -0.1656  0.2812 -0.4190
   40CHL1   H1A 4111   2.122   6.568   7.043  2.5128 -2.0999  1.4766
   40CHL1   H1B 4112   1.945   6.543   7.046 -2.0969 -2.6950  2.9149
   40CHL1    C2 4113   2.046   6.421   7.188  0.6072 -0.6928 -0.4349
   40CHL1   H2A 4114   2.010   6.501   7.256 -1.0524 -0.5558 -1.4375
   40CHL1   H2B 4115   2.148   6.389   7.221  0.5883 -1.1729 -0.8377
   40CHL1   C20 4116   2.092   6.697   6.280 -0.1246  0.5681  0.2619
   40CHL1   H20 4117   2.172   6.628   6.246  0.1816  1.3263 -0.5979
   40CHL1   C21 4118   2.144   6.820   6.356  0.3438 -0.0473  0.7237
   40CHL1  H21A 4119   2.190   6.888   6.282 -0.0550  0.9039  1.3363
   40CHL1  H21B 4120   2.221   6.798   6.434  1.9666 -1.8618 -1.2515
   40CHL1  H21C 4121   2.060   6.878   6.399 -0.8634  1.5718 -3.3905
   40CHL1   C22 4122   2.015   6.743   6.154  0.5063  0.2446 -0.2488
   40CHL1  H22A 4123   1.954   6.661   6.111 -0.2084  0.1252  0.9336
   40CHL1  H22B 4124   1.944   6.824   6.182  0.4426 -0.0812  0.5584
   40CHL1   C23 4125   2.096   6.794   6.037 -0.2377 -0.5150 -0.2992
   40CHL1  H23A 4126   2.113   6.902   6.058  0.1742 -0.3333 -1.4842
   40CHL1  H23B 4127   2.197   6.747   6.042  0.5840  1.2047 -0.1584
   40CHL1   C24 4128   2.035   6.774   5.897  0.0848  0.5095 -0.3476
   40CHL1  H24A 4129   2.126   6.776   5.834  0.5770  0.5613  0.3606
   40CHL1  H24B 4130   1.989   6.673   5.902 -0.8244  0.9447  0.5645
   40CHL1   C25 4131   1.926   6.871   5.840  0.1195 -0.0030 -0.6772
   40CHL1   H25 4132   1.966   6.974   5.830 -1.5246  0.7198 -0.2497
   40CHL1   C26 4133   1.882   6.826   5.704  0.6630  0.1791 -0.7216
   40CHL1  H26A 4134   1.972   6.797   5.646  0.3977 -2.2003 -0.0565
   40CHL1  H26B 4135   1.807   6.746   5.725 -1.2392  2.8083  4.2028
   40CHL1  H26C 4136   1.822   6.909   5.661  0.2965  0.4776  0.3233
   40CHL1   C27 4137   1.805   6.879   5.930  0.1825  0.1519  0.7209
   40CHL1  H27A 4138   1.832   6.932   6.023  0.8148 -1.2282  1.3517
   40CHL1  H27B 4139   1.725   6.933   5.874  0.3571 -1.0479 -0.7730
   40CHL1  H27C 4140   1.771   6.776   5.952  1.3982 -0.2439  0.8213
   41CHL1    C3 4141   1.868   2.279   6.941 -0.5700  0.5281 -0.1528
   41CHL1    H3 4142   1.977   2.276   6.920 -0.5575  1.2579 -0.2439
   41CHL1    O3 4143   1.844   2.258   7.078 -0.3718  0.4230  0.4410
   41CHL1   H3' 4144   1.857   2.346   7.114 -1.6603  0.4026  1.0055
   41CHL1    C4 4145   1.798   2.412   6.897  0.2641 -0.6569 -1.0073
   41CHL1   H4A 4146   1.688   2.404   6.911  0.1600  0.4274 -1.1097
   41CHL1   H4B 4147   1.832   2.495   6.963  0.8417 -3.2123  2.1873
   41CHL1    C5 4148   1.816   2.435   6.748  0.6238 -0.4247  0.5523
   41CHL1    C6 4149   1.877   2.547   6.699 -0.7868  0.6189 -0.4698
   41CHL1    H6 4150   1.919   2.623   6.766  2.8811 -1.1532 -0.5554
   41CHL1    C7 4151   1.896   2.576   6.552 -0.0569 -0.4342 -0.0301
   41CHL1   H7A 4152   1.875   2.683   6.535  0.5629  0.1938  2.7144
   41CHL1   H7B 4153   2.005   2.564   6.530  0.3900 -4.0999  3.0643
   41CHL1    C8 4154   1.809   2.491   6.459  0.2478 -0.2483  0.5786
   41CHL1    H8 4155   1.702   2.521   6.461 -0.1449 -1.2564 -1.6407
   41CHL1   C14 4156   1.861   2.498   6.319 -0.0698  0.6051 -0.1841
   41CHL1   H14 4157   1.961   2.457   6.342 -0.2279  0.3319  0.0307
   41CHL1   C15 4158   1.875   2.632   6.259 -0.2318 -0.0034  0.7864
   41CHL1  H15A 4159   1.798   2.704   6.295  1.0162  0.3038  3.0804
   41CHL1  H15B 4160   1.978   2.665   6.289 -0.9038  1.3927  1.7013
   41CHL1   C16 4161   1.870   2.608   6.102 -0.3978 -0.4636 -0.7176
   41CHL1  H16A 4162   1.773   2.657   6.079 -0.8105 -0.5612  0.7291
   41CHL1  H16B 4163   1.939   2.674   6.044  1.5735 -0.4707  1.4626
   41CHL1   C17 4164   1.859   2.459   6.077 -0.1046 -0.2820 -0.5838
   41CHL1   H17 4165   1.961   2.415   6.088  0.0973  0.5538  1.3170
   41CHL1   C13 4166   1.788   2.416   6.213 -0.1099  1.3252 -0.2055
   41CHL1   C18 4167   1.634   2.452   6.203 -0.2462  0.0764 -0.2246
   41CHL1  H18A 4168   1.585   2.396   6.121 -0.8156  0.0368  0.1368
   41CHL1  H18B 4169   1.586   2.425   6.299  2.3820 -0.7445  0.9389
   41CHL1  H18C 4170   1.610   2.561   6.201 -1.1498 -0.1191 -1.6817
   41CHL1   C12 4171   1.796   2.264   6.258  0.3418 -0.3443  0.1196
   41CHL1  H12A 4172   1.730   2.207   6.189  1.7865 -2.2025  0.1831
   41CHL1  H12B 4173   1.899   2.224   6.267  0.4083  0.2051  2.1108
   41CHL1   C11 4174   1.746   2.247   6.400  0.1350 -0.3809  0.0957
   41CHL1  H11A 4175   1.635   2.257   6.408  0.3409  1.8147  0.9713
   41CHL1  H11B 4176   1.777   2.146   6.433 -2.0321 -0.9485  0.5755
   41CHL1    C9 4177   1.808   2.340   6.504 -0.7753  0.0513 -0.2235
   41CHL1    H9 4178   1.917   2.324   6.511 -0.8085 -0.3321 -0.5551
   41CHL1   C10 4179   1.763   2.324   6.656 -0.0522 -0.2575  0.7422
   41CHL1   C19 4180   1.604   2.323   6.652 -0.8956 -0.4983  0.3951
   41CHL1  H19A 4181   1.576   2.224   6.611 -0.5014 -0.8656  0.9895
   41CHL1  H19B 4182   1.558   2.325   6.754  1.2003  1.1959  1.3728
   41CHL1  H19C 4183   1.559   2.403   6.590 -1.1540 -0.8116  0.1730
   41CHL1    C1 4184   1.821   2.193   6.706  0.9446  0.7852  0.0289
   41CHL1   H1A 4185   1.778   2.107   6.650 -1.8411  3.1217 -1.7056
   41CHL1   H1B 4186   1.932   2.188   6.695  0.9679 -0.0812  0.6060
   41CHL1    C2 4187   1.797   2.172   6.858 -0.2188  0.2515  0.5155
   41CHL1   H2A 4188   1.825   2.069   6.889  0.6613 -0.0866 -1.2437
   41CHL1   H2B 4189   1.688   2.173   6.882 -0.2197 -0.9967  0.6368
   41CHL1   C20 4190   1.792   2.425   5.944  0.0586 -0.2480 -1.1932
   41CHL1   H20 4191   1.685   2.452   5.956  0.5159  0.7618  1.3982
   41CHL1   C21 4192   1.811   2.275   5.929  0.2491  0.1504  0.3611
   41CHL1  H21A 4193   1.738   2.221   5.994 -2.0629  2.4781 -0.1196
   41CHL1  H21B 4194   1.916   2.248   5.951  0.3584  0.1382 -0.1749
   41CHL1  H21C 4195   1.798   2.244   5.823 -0.7029 -1.3374  0.8773
   41CHL1   C22 4196   1.853   2.502   5.817 -0.3171 -0.0199 -1.1446
   41CHL1  H22A 4197   1.846   2.613   5.821 -1.8432 -0.1312  0.1850
   41CHL1  H22B 4198   1.958   2.468   5.807 -0.2791 -0.7216  1.0880
   41CHL1   C23 4199   1.781   2.474   5.677 -0.8711 -0.6711  0.4921
   41CHL1  H23A 4200   1.799   2.370   5.642 -0.5636 -0.4956  0.1225
   41CHL1  H23B 4201   1.672   2.489   5.694 -0.5076  0.2578  2.2378
   41CHL1   C24 4202   1.830   2.569   5.572 -0.4538 -0.1424  0.1560
   41CHL1  H24A 4203   1.809   2.673   5.603  2.6771  0.2142  1.4601
   41CHL1  H24B 4204   1.939   2.569   5.550 -0.4158  2.1520  0.1647
   41CHL1   C25 4205   1.748   2.553   5.441  0.2115  0.0310 -0.7877
   41CHL1   H25 4206   1.640   2.548   5.464  0.8610 -0.7435  2.5200
   41CHL1   C26 4207   1.775   2.666   5.336 -0.1615 -0.7403  0.5279
   41CHL1  H26A 4208   1.746   2.765   5.379  0.4720  0.0988 -0.9097
   41CHL1  H26B 4209   1.882   2.677   5.308 -0.3047  1.5859  0.6239
   41CHL1  H26C 4210   1.717   2.660   5.242  2.3960  1.8229 -1.3905
   41CHL1   C27 4211   1.765   2.415   5.373 -0.1478 -0.4009 -0.1341
   41CHL1  H27A 4212   1.695   2.407   5.287 -1.6905 -0.6040  1.0898
   41CHL1  H27B 4213   1.870   2.402   5.338 -0.2677  0.2038 -0.7392
   41CHL1  H27C 4214   1.742   2.337   5.448  0.9927  2.1660  3.1443
   42CHL1    C3 4215   3.364   5.472   6.751  0.0340 -0.4164  0.2347
   42CHL1    H3 4216   3.425   5.564   6.761  0.0120 -0.1468 -1.7536
   42CHL1    O3 4217   3.357   5.412   6.875  0.0592 -0.0897  0.4481
   42CHL1   H3' 4218   3.267   5.408   6.909  0.8152  0.9823  2.7757
   42CHL1    C4 4219   3.221   5.499   6.695 -0.0851  0.2016  0.1556
   42CHL1   H4A 4220   3.146   5.418   6.692 -0.9086  0.9689 -2.4773
   42CHL1   H4B 4221   3.175   5.576   6.761 -0.3528 -0.4371  0.7325
   42CHL1    C5 4222   3.234   5.554   6.551  0.1354 -0.9479  0.0090
   42CHL1    C6 4223   3.174   5.670   6.519  0.3668 -0.4211 -0.8931
   42CHL1    H6 4224   3.119   5.720   6.600  1.6950 -0.9028  0.3411
   42CHL1    C7 4225   3.164   5.738   6.385 -0.5590 -0.1949 -0.2919
   42CHL1   H7A 4226   3.066   5.787   6.366 -0.4321 -0.1278 -0.7866
   42CHL1   H7B 4227   3.239   5.819   6.375  0.8910 -1.5321 -0.7224
   42CHL1    C8 4228   3.204   5.636   6.279 -0.0322 -0.0220  0.6630
   42CHL1    H8 4229   3.127   5.558   6.261 -0.5632  0.7863 -0.7975
   42CHL1   C14 4230   3.223   5.703   6.143  0.1348 -0.4858 -0.3779
   42CHL1   H14 4231   3.315   5.765   6.153  1.5144 -2.2460 -1.6896
   42CHL1   C15 4232   3.113   5.793   6.092 -0.1673  0.4711  0.2680
   42CHL1  H15A 4233   3.017   5.745   6.121 -0.0807 -0.7426 -1.2875
   42CHL1  H15B 4234   3.118   5.897   6.129 -0.0009  0.3838  0.4917
   42CHL1   C16 4235   3.133   5.786   5.942 -0.0959 -0.2466 -0.6006
   42CHL1  H16A 4236   3.050   5.737   5.888  0.3013 -2.0479  0.3513
   42CHL1  H16B 4237   3.150   5.893   5.917 -0.7493  0.2288  0.8470
   42CHL1   C17 4238   3.265   5.705   5.912 -0.1199 -0.3376 -0.8223
   42CHL1   H17 4239   3.339   5.788   5.918 -1.5023  0.9550 -1.1407
   42CHL1   C13 4240   3.275   5.612   6.030  0.1456  0.4078 -0.4911
   42CHL1   C18 4241   3.176   5.495   6.005 -0.2339  0.1381  0.3025
   42CHL1  H18A 4242   3.088   5.533   5.947 -0.4239  0.2620  0.6683
   42CHL1  H18B 4243   3.230   5.414   5.952  0.0806  1.0853 -0.8816
   42CHL1  H18C 4244   3.136   5.452   6.099 -0.8057  0.8467  0.4000
   42CHL1   C12 4245   3.413   5.561   6.077  0.1459  0.6541  0.5113
   42CHL1  H12A 4246   3.456   5.487   6.006 -2.0348  1.8809 -2.2886
   42CHL1  H12B 4247   3.485   5.643   6.095 -0.1083  0.7576  1.0815
   42CHL1   C11 4248   3.400   5.478   6.204  0.0608  0.7640  0.1524
   42CHL1  H11A 4249   3.338   5.388   6.185  2.5386 -1.7075  2.7521
   42CHL1  H11B 4250   3.501   5.444   6.235 -0.7404  0.6695  2.9653
   42CHL1    C9 4251   3.330   5.558   6.322  0.5943 -0.0319  0.4297
   42CHL1    H9 4252   3.406   5.639   6.329 -0.6612  1.7691 -3.4302
   42CHL1   C10 4253   3.317   5.478   6.448  0.1082  0.3945  0.2754
   42CHL1   C19 4254   3.239   5.353   6.417  0.0693  0.4077 -0.3525
   42CHL1  H19A 4255   3.199   5.302   6.508  2.2732 -1.8599 -0.5285
   42CHL1  H19B 4256   3.144   5.380   6.366  0.7695  2.7338 -0.5259
   42CHL1  H19C 4257   3.306   5.281   6.366 -0.6048 -1.7085  1.5375
   42CHL1    C1 4258   3.448   5.439   6.512  0.2210  0.0197 -0.4236
   42CHL1   H1A 4259   3.491   5.360   6.447 -1.4174 -1.3587  0.1184
   42CHL1   H1B 4260   3.511   5.530   6.502 -1.8817  1.7801  1.3982
   42CHL1    C2 4261   3.445   5.380   6.653 -1.0082  0.1025 -0.2491
   42CHL1   H2A 4262   3.545   5.367   6.699 -1.5175 -2.0302  0.4163
   42CHL1   H2B 4263   3.404   5.277   6.660 -0.3656 -0.0408  3.3141
   42CHL1   C20 4264   3.286   5.657   5.774  1.0135 -0.5412  0.5014
   42CHL1   H20 4265   3.234   5.559   5.770  1.0302 -0.6838  2.7344
   42CHL1   C21 4266   3.437   5.620   5.749  0.2375  0.0735  0.0797
   42CHL1  H21A 4267   3.467   5.608   5.643  2.6207 -0.3487  0.7576
   42CHL1  H21B 4268   3.450   5.527   5.809 -1.5876  0.8198  1.7660
   42CHL1  H21C 4269   3.503   5.698   5.794 -1.1990 -0.3921  3.2950
   42CHL1   C22 4270   3.230   5.747   5.654  0.4170  0.1208  0.0200
   42CHL1  H22A 4271   3.248   5.691   5.560 -0.8383 -1.1542  0.5196
   42CHL1  H22B 4272   3.121   5.764   5.667  0.1214 -1.4077 -0.2637
   42CHL1   C23 4273   3.305   5.882   5.637  0.5957 -0.3262 -0.2140
   42CHL1  H23A 4274   3.340   5.928   5.732 -0.3689  0.8312 -0.3968
   42CHL1  H23B 4275   3.403   5.865   5.588  0.8131  1.1156 -0.3030
   42CHL1   C24 4276   3.218   5.975   5.555 -0.1615  0.5496 -0.2452
   42CHL1  H24A 4277   3.171   5.930   5.465 -4.7679  2.7237  0.7454
   42CHL1  H24B 4278   3.122   6.003   5.604 -1.0816  1.7954 -2.5624
   42CHL1   C25 4279   3.275   6.116   5.525 -0.1007 -0.4917  0.1601
   42CHL1   H25 4280   3.298   6.159   5.625 -1.4598 -0.6313  0.5538
   42CHL1   C26 4281   3.396   6.104   5.432  0.4432  0.3761 -0.2512
   42CHL1  H26A 4282   3.488   6.064   5.479 -0.1827 -3.3292 -1.8371
   42CHL1  H26B 4283   3.368   6.049   5.339  0.9149  0.2822 -0.3393
   42CHL1  H26C 4284   3.436   6.200   5.391  0.4257  1.5303  2.2389
   42CHL1   C27 4285   3.166   6.211   5.473  0.1040 -0.5057  0.5307
   42CHL1  H27A 4286   3.081   6.221   5.544 -0.3367 -0.7059  0.0406
   42CHL1  H27B 4287   3.196   6.316   5.453 -4.3077  0.6925 -1.0080
   42CHL1  H27C 4288   3.127   6.179   5.373 -0.0268  0.0346  0.4083
   43CHL1    C3 4289   3.076   6.181   6.605 -0.6905  0.3600  0.5851
   43CHL1    H3 4290   2.967   6.160   6.615 -0.1612 -1.9271  2.6990
   43CHL1    O3 4291   3.144   6.128   6.715  0.1801 -0.3901  0.0126
   43CHL1   H3' 4292   3.116   6.170   6.797  0.2467 -0.5075  0.0966
   43CHL1    C4 4293   3.132   6.111   6.479 -0.7761 -0.1482 -0.2099
   43CHL1   H4A 4294   3.243   6.114   6.476 -0.7841 -0.1657 -0.6504
   43CHL1   H4B 4295   3.093   6.007   6.478  1.0552 -0.9115  1.4766
   43CHL1    C5 4296   3.084   6.178   6.347  0.1042 -0.3297  0.2111
   43CHL1    C6 4297   3.017   6.108   6.253  0.6284  0.8008 -0.6775
   43CHL1    H6 4298   3.014   5.999   6.266  0.7706  0.4865 -2.8440
   43CHL1    C7 4299   2.977   6.166   6.119 -0.3431 -0.0889  0.4565
   43CHL1   H7A 4300   3.017   6.113   6.030  2.3920  0.6470  1.1507
   43CHL1   H7B 4301   2.866   6.171   6.119 -0.4474 -1.7028  0.2752
   43CHL1    C8 4302   3.036   6.309   6.098  0.1683  0.4137 -1.1227
   43CHL1    H8 4303   3.143   6.309   6.069  0.0781  0.0710 -1.4654
   43CHL1   C14 4304   2.962   6.377   5.985 -0.6347 -0.1064  0.2828
   43CHL1   H14 4305   2.863   6.411   6.022 -0.7225 -0.8331  0.7225
   43CHL1   C15 4306   2.919   6.296   5.866 -0.3683  0.7121 -0.3089
   43CHL1  H15A 4307   3.000   6.233   5.823  0.9428  2.4417 -0.4864
   43CHL1  H15B 4308   2.831   6.233   5.890 -1.6142  2.2920 -0.5665
   43CHL1   C16 4309   2.885   6.396   5.760 -0.8032 -1.1342  0.7629
   43CHL1  H16A 4310   2.945   6.387   5.667 -0.3031  2.0679  0.6392
   43CHL1  H16B 4311   2.778   6.385   5.732 -0.6804  0.5387 -0.5644
   43CHL1   C17 4312   2.912   6.539   5.824  0.7056  0.0081  0.7800
   43CHL1   H17 4313   2.820   6.564   5.881  0.8303 -1.8342  1.8638
   43CHL1   C13 4314   3.016   6.514   5.938 -0.2487  0.3095  0.6302
   43CHL1   C18 4315   3.157   6.509   5.878  0.1939 -0.0355  0.4166
   43CHL1  H18A 4316   3.231   6.466   5.949  1.8390 -0.9015 -1.7080
   43CHL1  H18B 4317   3.174   6.445   5.789  1.4256  0.1535  0.5010
   43CHL1  H18C 4318   3.193   6.610   5.851  0.6292  0.0196  1.1970
   43CHL1   C12 4319   3.013   6.608   6.056  0.0109  0.1890 -0.5895
   43CHL1  H12A 4320   3.067   6.704   6.040  0.7641 -0.3408 -1.3093
   43CHL1  H12B 4321   2.907   6.635   6.074  0.6890  2.1700  0.8956
   43CHL1   C11 4322   3.048   6.551   6.205  0.2605 -0.3112 -0.0032
   43CHL1  H11A 4323   3.157   6.571   6.216  1.3835 -5.6476  2.1445
   43CHL1  H11B 4324   2.992   6.606   6.283 -1.6007 -1.4157 -0.5033
   43CHL1    C9 4325   3.024   6.400   6.225 -0.6225  0.6856 -0.6573
   43CHL1    H9 4326   2.920   6.392   6.264  0.0515  0.9173  1.3044
   43CHL1   C10 4327   3.108   6.338   6.349  0.3428 -0.3122  0.4684
   43CHL1   C19 4328   3.264   6.358   6.328  0.7281 -0.1024 -0.3607
   43CHL1  H19A 4329   3.313   6.317   6.237  2.0018  1.6288 -0.5173
   43CHL1  H19B 4330   3.297   6.464   6.321  0.2840 -0.0710 -3.1542
   43CHL1  H19C 4331   3.312   6.304   6.412  0.2094  0.9852  0.6550
   43CHL1    C1 4332   3.057   6.401   6.489  0.2535 -0.2446  0.2577
   43CHL1   H1A 4333   3.091   6.507   6.490 -0.4072 -0.0149  1.9965
   43CHL1   H1B 4334   2.946   6.398   6.497 -0.1265 -0.1738 -3.2532
   43CHL1    C2 4335   3.115   6.327   6.602 -0.0956  0.4019 -0.4738
   43CHL1   H2A 4336   3.073   6.373   6.695  1.4061 -3.6257  2.4734
   43CHL1   H2B 4337   3.224   6.348   6.610 -0.4556  2.0347  0.8049
   43CHL1   C20 4338   2.926   6.648   5.715 -0.1000  0.1634 -0.0117
   43CHL1   H20 4339   3.003   6.602   5.648  0.5610 -1.7114  1.9077
   43CHL1   C21 4340   2.982   6.771   5.771 -0.0230  0.3375 -0.0617
   43CHL1  H21A 4341   2.937   6.793   5.870 -0.9255  0.9494 -0.5904
   43CHL1  H21B 4342   2.951   6.858   5.710 -1.1943 -2.4423 -3.7740
   43CHL1  H21C 4343   3.093   6.773   5.780  0.0568  1.2683 -1.0392
   43CHL1   C22 4344   2.797   6.669   5.641  0.2645 -0.2472  0.4996
   43CHL1  H22A 4345   2.746   6.572   5.619  0.2318 -0.7231  2.4533
   43CHL1  H22B 4346   2.726   6.722   5.708 -1.4745  0.6476 -1.9211
   43CHL1   C23 4347   2.807   6.739   5.504  0.0506 -0.0483 -0.5234
   43CHL1  H23A 4348   2.863   6.835   5.514 -1.2608  0.5302  3.1235
   43CHL1  H23B 4349   2.862   6.680   5.428  1.8969  1.2539 -0.2712
   43CHL1   C24 4350   2.669   6.768   5.457  0.0317 -0.5556  0.0662
   43CHL1  H24A 4351   2.624   6.678   5.410 -3.4652  1.8920 -1.7309
   43CHL1  H24B 4352   2.594   6.801   5.532 -1.8062  1.0267 -2.3362
   43CHL1   C25 4353   2.666   6.879   5.349 -0.0930  0.7892  0.2526
   43CHL1   H25 4354   2.733   6.959   5.387  1.3291 -0.7582  1.1847
   43CHL1   C26 4355   2.724   6.840   5.209 -0.2783  0.2721 -0.2527
   43CHL1  H26A 4356   2.661   6.754   5.177  0.0932 -1.4059  3.0540
   43CHL1  H26B 4357   2.713   6.932   5.149 -0.1112 -0.2353 -1.0758
   43CHL1  H26C 4358   2.832   6.813   5.216 -0.4309 -0.8233 -1.7514
   43CHL1   C27 4359   2.532   6.946   5.352  0.0927 -0.1963 -0.3217
   43CHL1  H27A 4360   2.493   6.970   5.454  0.8313 -0.9125  0.1478
   43CHL1  H27B 4361   2.531   7.043   5.298  1.1945 -1.1633 -2.1822
   43CHL1  H27C 4362   2.452   6.881   5.311 -1.3299  1.4098 -0.2056
   44CHL1    C3 4363   3.198   2.047   7.057 -0.6619 -0.2669  0.6317
   44CHL1    H3 4364   3.291   1.994   7.030 -1.2815  0.1765 -2.9442
   44CHL1    O3 4365   3.160   2.021   7.188 -0.1824 -0.3942  0.1747
   44CHL1   H3' 4366   3.214   2.074   7.247 -1.2089  0.0831  0.7154
   44CHL1    C4 4367   3.235   2.203   7.039  0.5618  0.7823 -0.0128
   44CHL1   H4A 4368   3.141   2.255   7.070 -0.2550 -1.6107  1.8873
   44CHL1   H4B 4369   3.304   2.229   7.122  0.0762  0.2459  0.5696
   44CHL1    C5 4370   3.267   2.231   6.894 -0.0228  0.0509 -0.1873
   44CHL1    C6 4371   3.383   2.296   6.867 -0.2328 -0.5354  0.2260
   44CHL1    H6 4372   3.467   2.313   6.937  0.4624 -0.0899 -0.7099
   44CHL1    C7 4373   3.432   2.332   6.728  0.9265  1.1423  0.5058
   44CHL1   H7A 4374   3.466   2.438   6.728 -0.2639  1.5484 -0.3242
   44CHL1   H7B 4375   3.523   2.273   6.705 -1.7323 -2.4706 -1.7969
   44CHL1    C8 4376   3.325   2.322   6.624 -0.4387 -0.7030  0.2115
   44CHL1    H8 4377   3.262   2.413   6.634  1.9815  0.9602  1.3208
   44CHL1   C14 4378   3.377   2.311   6.478  0.0062  0.6697  0.2009
   44CHL1   H14 4379   3.431   2.215   6.467 -1.9736 -0.3982 -0.5746
   44CHL1   C15 4380   3.486   2.412   6.433  0.0958  0.3040  0.0770
   44CHL1  H15A 4381   3.447   2.515   6.445  2.2487  1.0888  0.8735
   44CHL1  H15B 4382   3.592   2.403   6.465 -0.5166 -0.6051  1.9747
   44CHL1   C16 4383   3.491   2.378   6.283  0.0520 -0.0806  0.5877
   44CHL1  H16A 4384   3.513   2.466   6.219 -1.5624  0.2779  0.4683
   44CHL1  H16B 4385   3.578   2.311   6.267 -0.9223 -1.5946  1.3256
   44CHL1   C17 4386   3.374   2.287   6.243 -0.2374 -1.1793 -0.3464
   44CHL1   H17 4387   3.421   2.186   6.241  1.3445 -0.4867 -0.1174
   44CHL1   C13 4388   3.277   2.290   6.366  0.0611 -0.4061  0.1266
   44CHL1   C18 4389   3.187   2.416   6.341  0.0615  0.1082 -0.2076
   44CHL1  H18A 4390   3.121   2.392   6.255 -0.1611 -1.9422  0.4870
   44CHL1  H18B 4391   3.119   2.439   6.425  3.2361  1.9255  2.0844
   44CHL1  H18C 4392   3.250   2.505   6.316 -1.4460  0.5454 -2.8826
   44CHL1   C12 4393   3.186   2.167   6.394  0.7746  0.1069  0.7426
   44CHL1  H12A 4394   3.096   2.168   6.330 -1.3568  0.7046  3.5484
   44CHL1  H12B 4395   3.238   2.072   6.368 -2.8902 -1.6739 -0.8373
   44CHL1   C11 4396   3.133   2.183   6.535  0.6871 -0.4619 -0.3316
   44CHL1  H11A 4397   3.055   2.263   6.530 -0.6254 -1.7442 -1.2079
   44CHL1  H11B 4398   3.064   2.101   6.562  0.8996  0.2720  2.7443
   44CHL1    C9 4399   3.236   2.196   6.645  0.7540 -0.3938  0.0036
   44CHL1    H9 4400   3.295   2.102   6.644 -1.2396 -1.7433 -1.3747
   44CHL1   C10 4401   3.167   2.188   6.783 -0.3185 -0.6497 -0.7676
   44CHL1   C19 4402   3.045   2.285   6.797  0.1035 -0.4569 -0.5197
   44CHL1  H19A 4403   2.964   2.266   6.724  0.1513 -0.5495 -0.5480
   44CHL1  H19B 4404   2.997   2.286   6.897 -1.6948  0.5673 -1.3478
   44CHL1  H19C 4405   3.081   2.389   6.780 -0.7133 -0.1608 -0.4922
   44CHL1    C1 4406   3.128   2.045   6.811 -0.5196 -0.2723  0.1182
   44CHL1   H1A 4407   3.052   2.014   6.737  0.2548 -0.1240 -0.7517
   44CHL1   H1B 4408   3.224   1.993   6.790  0.6846  1.5055  0.9614
   44CHL1    C2 4409   3.089   2.017   6.959  1.0023 -0.0415  0.1806
   44CHL1   H2A 4410   3.082   1.907   6.976  2.5133 -0.3833 -1.0825
   44CHL1   H2B 4411   2.999   2.066   6.999  1.9559  0.3999  1.8813
   44CHL1   C20 4412   3.318   2.312   6.100  0.4695 -0.3061  0.0093
   44CHL1   H20 4413   3.291   2.419   6.094 -0.4212 -0.5943 -1.6647
   44CHL1   C21 4414   3.199   2.215   6.056 -0.3270 -0.1980 -0.0497
   44CHL1  H21A 4415   3.243   2.118   6.025 -1.0015 -0.6081  0.2460
   44CHL1  H21B 4416   3.149   2.261   5.968 -1.1250  1.1449  1.0621
   44CHL1  H21C 4417   3.121   2.197   6.133 -2.7232 -1.0802 -2.4960
   44CHL1   C22 4418   3.426   2.311   5.986 -0.1444  0.0781  0.2361
   44CHL1  H22A 4419   3.511   2.374   6.020  0.5822 -0.4091 -0.6260
   44CHL1  H22B 4420   3.475   2.214   5.963 -0.4843 -0.2243  0.7577
   44CHL1   C23 4421   3.378   2.377   5.852  0.7393  0.1018  0.3436
   44CHL1  H23A 4422   3.306   2.308   5.802 -1.0812  1.2183  1.3015
   44CHL1  H23B 4423   3.327   2.475   5.856  0.4961 -0.0193  0.2582
   44CHL1   C24 4424   3.499   2.397   5.762  0.6804  0.3341 -0.7005
   44CHL1  H24A 4425   3.570   2.474   5.798  1.4259 -0.3999 -0.5702
   44CHL1  H24B 4426   3.542   2.294   5.756 -1.5088 -0.7295  0.5061
   44CHL1   C25 4427   3.464   2.431   5.606  0.4181  0.0999 -0.7264
   44CHL1   H25 4428   3.378   2.369   5.573 -2.0722  1.6419  2.3115
   44CHL1   C26 4429   3.438   2.586   5.585  0.0653  0.0914 -0.3386
   44CHL1  H26A 4430   3.524   2.652   5.608  1.1698 -1.1220 -0.8807
   44CHL1  H26B 4431   3.398   2.606   5.483  2.5782  0.1037 -1.3742
   44CHL1  H26C 4432   3.362   2.616   5.661  1.3540 -0.9830  1.4390
   44CHL1   C27 4433   3.575   2.387   5.509  0.5572 -0.5874  0.2846
   44CHL1  H27A 4434   3.536   2.402   5.406  0.3091  0.4547  0.5123
   44CHL1  H27B 4435   3.677   2.425   5.530  0.3113 -0.3101  0.9922
   44CHL1  H27C 4436   3.577   2.279   5.534  0.4963 -0.1864  2.1312
   45CHL1    C3 4437   3.675   2.512   7.023 -0.5115 -0.2936  0.6262
   45CHL1    H3 4438   3.589   2.472   6.965  0.6505  0.6218 -1.8798
   45CHL1    O3 4439   3.672   2.475   7.157  0.2473 -0.1620  0.0667
   45CHL1   H3' 4440   3.761   2.489   7.190 -0.3742  0.3144  1.6474
   45CHL1    C4 4441   3.802   2.457   6.955 -0.6498  0.1529 -0.4786
   45CHL1   H4A 4442   3.886   2.497   7.016  0.3876 -0.1546 -1.6675
   45CHL1   H4B 4443   3.803   2.347   6.968  0.4560  0.1936 -0.1446
   45CHL1    C5 4444   3.820   2.489   6.813  0.0225  0.3075  0.2809
   45CHL1    C6 4445   3.847   2.395   6.724 -0.5990 -0.2558  0.5518
   45CHL1    H6 4446   3.864   2.293   6.762  1.5008  0.1597  0.8872
   45CHL1    C7 4447   3.874   2.406   6.576  0.6587 -0.3377 -0.2756
   45CHL1   H7A 4448   3.968   2.354   6.549  0.4150 -0.6474 -0.5297
   45CHL1   H7B 4449   3.796   2.361   6.511 -1.0641  1.9560  0.0740
   45CHL1    C8 4450   3.881   2.551   6.532  0.4490 -0.4741  0.0464
   45CHL1    H8 4451   3.989   2.578   6.530 -0.0183  1.6271 -1.6748
   45CHL1   C14 4452   3.850   2.576   6.386 -0.1280  0.7980  0.0434
   45CHL1   H14 4453   3.746   2.541   6.367 -0.7748  2.7643 -0.2218
   45CHL1   C15 4454   3.928   2.486   6.287 -0.3260  0.4449 -0.0004
   45CHL1  H15A 4455   4.038   2.499   6.302  0.0053  2.7151 -3.2596
   45CHL1  H15B 4456   3.898   2.379   6.293  0.1354  0.3753  1.6141
   45CHL1   C16 4457   3.899   2.551   6.155  0.4044  0.0733 -1.0337
   45CHL1  H16A 4458   3.994   2.553   6.097 -0.3788 -1.1310 -2.4404
   45CHL1  H16B 4459   3.819   2.491   6.104 -0.2928  1.3987 -1.5453
   45CHL1   C17 4460   3.835   2.688   6.189  0.1262 -0.3664 -0.2154
   45CHL1   H17 4461   3.726   2.673   6.181 -0.2828  2.1137 -0.1785
   45CHL1   C13 4462   3.863   2.716   6.339 -0.2398  0.0435 -0.1199
   45CHL1   C18 4463   4.011   2.775   6.347  0.5459  0.0852 -0.0802
   45CHL1  H18A 4464   4.087   2.722   6.285  1.3450  1.3519 -0.2321
   45CHL1  H18B 4465   4.008   2.877   6.302  0.5837 -0.4935 -1.4539
   45CHL1  H18C 4466   4.051   2.782   6.450 -0.6656 -0.2998  0.4311
   45CHL1   C12 4467   3.760   2.799   6.413 -0.0064 -0.1320 -0.1728
   45CHL1  H12A 4468   3.734   2.902   6.382 -0.5536 -0.1685  0.1462
   45CHL1  H12B 4469   3.661   2.749   6.407 -0.0860 -0.1259  0.8618
   45CHL1   C11 4470   3.778   2.794   6.567 -0.2219  0.3847  0.3628
   45CHL1  H11A 4471   3.874   2.845   6.592 -0.9561  0.7221  2.8249
   45CHL1  H11B 4472   3.686   2.834   6.614 -1.6955 -1.5306 -0.7815
   45CHL1    C9 4473   3.788   2.645   6.613  0.4341 -0.2210  0.4475
   45CHL1    H9 4474   3.687   2.607   6.588  0.9844 -1.3022 -0.2105
   45CHL1   C10 4475   3.802   2.637   6.770  0.3556  0.5471  0.4093
   45CHL1   C19 4476   3.923   2.720   6.815  0.2766 -0.2083 -0.1096
   45CHL1  H19A 4477   4.014   2.673   6.771 -0.3431  0.3395 -2.0539
   45CHL1  H19B 4478   3.915   2.829   6.798  2.0704 -0.1289 -0.6734
   45CHL1  H19C 4479   3.948   2.708   6.923  1.0555  0.1677 -0.2428
   45CHL1    C1 4480   3.679   2.687   6.852 -0.5230 -0.0108 -0.1731
   45CHL1   H1A 4481   3.658   2.794   6.835  1.5892 -0.0112 -3.8703
   45CHL1   H1B 4482   3.590   2.643   6.803 -0.0339 -0.5049 -0.6381
   45CHL1    C2 4483   3.680   2.656   7.002  0.3727 -1.1205  0.3215
   45CHL1   H2A 4484   3.604   2.699   7.070 -0.1607 -1.9075  0.2367
   45CHL1   H2B 4485   3.772   2.707   7.039 -0.1364 -0.0144  0.1062
   45CHL1   C20 4486   3.858   2.789   6.072  0.0968 -0.4947  0.2328
   45CHL1   H20 4487   3.967   2.807   6.080 -0.2598  1.1436  2.5193
   45CHL1   C21 4488   3.799   2.928   6.112  0.2202  0.3999 -1.0338
   45CHL1  H21A 4489   3.695   2.922   6.151  1.0158  1.3394  1.4425
   45CHL1  H21B 4490   3.809   3.000   6.028  1.8565  1.7988  0.3007
   45CHL1  H21C 4491   3.852   2.971   6.200  0.0122  1.8574 -1.6018
   45CHL1   C22 4492   3.823   2.732   5.932  0.0978 -0.2055 -0.2656
   45CHL1  H22A 4493   3.897   2.652   5.908 -0.3784 -1.1517  1.2980
   45CHL1  H22B 4494   3.723   2.683   5.939  0.7785 -1.5596  0.5807
   45CHL1   C23 4495   3.838   2.828   5.809  0.0464 -0.6571 -0.2971
   45CHL1  H23A 4496   3.801   2.775   5.719  1.0122 -1.9579  0.0415
   45CHL1  H23B 4497   3.773   2.915   5.832  2.3086  0.6264  1.7245
   45CHL1   C24 4498   3.984   2.860   5.776  0.2605  0.1033 -0.1149
   45CHL1  H24A 4499   4.046   2.874   5.867  2.2024 -0.4380 -1.2762
   45CHL1  H24B 4500   4.026   2.769   5.728  0.7802  0.9543 -1.3282
   45CHL1   C25 4501   3.998   2.983   5.684  0.6744  0.0269  0.1884
   45CHL1   H25 4502   3.944   3.069   5.729 -0.4735 -0.4594 -0.2242
   45CHL1   C26 4503   4.148   3.018   5.665  0.6373  0.1997  0.2464
   45CHL1  H26A 4504   4.147   3.122   5.627 -0.8766 -0.2594 -1.1349
   45CHL1  H26B 4505   4.218   3.012   5.751  1.1482 -1.0916 -0.2223
   45CHL1  H26C 4506   4.190   2.955   5.583  2.6747 -0.1321  1.4781
   45CHL1   C27 4507   3.933   2.964   5.543  0.0949 -1.1736 -0.0737
   45CHL1  H27A 4508   3.940   3.058   5.484 -2.1341 -0.8128  0.1816
   45CHL1  H27B 4509   3.984   2.883   5.487  0.8933 -1.1763  0.6195
   45CHL1  H27C 4510   3.826   2.938   5.557  0.4110 -1.3606  2.3790
   46CHL1    C3 4511   5.946   0.049   6.965 -0.1702 -0.5895  0.1911
   46CHL1    H3 4512   6.033  -0.015   6.937  1.0734  0.9914  0.2986
   46CHL1    O3 4513   5.957   0.072   7.103 -0.2246  0.5487 -0.3076
   46CHL1   H3' 4514   5.982  -0.008   7.149 -2.3088 -0.1762 -0.3417
   46CHL1    C4 4515   5.938   0.182   6.888 -0.2729 -0.1207  0.1569
   46CHL1   H4A 4516   5.846   0.240   6.912  0.3361  1.2130 -0.6538
   46CHL1   H4B 4517   6.018   0.253   6.918  1.1841 -0.3410 -2.8983
   46CHL1    C5 4518   5.931   0.147   6.742 -0.1815 -0.2320  0.5089
   46CHL1    C6 4519   6.022   0.187   6.651 -0.7300  0.3333  0.1053
   46CHL1    H6 4520   6.105   0.250   6.687 -0.4313 -1.4486  2.7266
   46CHL1    C7 4521   6.003   0.155   6.503 -0.5250 -0.5949 -0.1574
   46CHL1   H7A 4522   6.031   0.243   6.441 -2.0782 -0.8388 -1.2609
   46CHL1   H7B 4523   6.082   0.081   6.478  0.0978  0.0381 -0.1140
   46CHL1    C8 4524   5.856   0.111   6.465  0.4665  0.0292  0.0139
   46CHL1    H8 4525   5.787   0.196   6.486 -2.5402 -2.2617  0.2441
   46CHL1   C14 4526   5.860   0.062   6.323 -0.1711  0.1025  0.5805
   46CHL1   H14 4527   5.934  -0.021   6.328 -0.7816 -0.4099  1.5365
   46CHL1   C15 4528   5.902   0.161   6.215 -0.0255 -0.1287  0.2176
   46CHL1  H15A 4529   5.852   0.258   6.234  0.9842  0.1701  1.5124
   46CHL1  H15B 4530   6.013   0.168   6.207  0.1273 -2.1304 -0.0297
   46CHL1   C16 4531   5.841   0.093   6.089  0.6204 -0.0766 -0.4899
   46CHL1  H16A 4532   5.776   0.170   6.042  1.9048  0.9095 -0.6866
   46CHL1  H16B 4533   5.925   0.055   6.027  1.0178 -0.3877  0.2233
   46CHL1   C17 4534   5.754  -0.029   6.136  0.4312 -0.2271  0.1956
   46CHL1   H17 4535   5.824  -0.115   6.132 -2.8808 -3.1095 -1.0144
   46CHL1   C13 4536   5.725  -0.004   6.281  0.3664  0.0574 -0.1385
   46CHL1   C18 4537   5.607   0.095   6.283  0.2466 -0.6685  0.3156
   46CHL1  H18A 4538   5.634   0.189   6.230 -0.4954 -0.2314  0.6946
   46CHL1  H18B 4539   5.520   0.036   6.246 -1.9951  1.5476  1.7278
   46CHL1  H18C 4540   5.585   0.127   6.387  0.2126 -1.6213  0.6053
   46CHL1   C12 4541   5.695  -0.127   6.370  0.0533 -0.5462  0.5951
   46CHL1  H12A 4542   5.590  -0.164   6.362 -0.3485  0.4372  1.1123
   46CHL1  H12B 4543   5.761  -0.216   6.361  0.0851 -0.4540 -0.2050
   46CHL1   C11 4544   5.699  -0.081   6.518  0.0276  0.6441 -0.7843
   46CHL1  H11A 4545   5.602  -0.029   6.532 -0.0843  0.1136  0.5873
   46CHL1  H11B 4546   5.679  -0.166   6.586  0.3238  1.9597  1.0246
   46CHL1    C9 4547   5.819  -0.000   6.560  0.6808 -0.2296 -0.0711
   46CHL1    H9 4548   5.905  -0.070   6.561 -0.1712 -1.3155  1.4236
   46CHL1   C10 4549   5.807   0.057   6.704 -0.1778 -0.4131  0.2783
   46CHL1   C19 4550   5.672   0.139   6.724 -0.3581  0.4151 -0.0570
   46CHL1  H19A 4551   5.650   0.173   6.828 -0.1294  1.5000 -0.3469
   46CHL1  H19B 4552   5.670   0.235   6.668 -0.5771  1.0069  0.9363
   46CHL1  H19C 4553   5.585   0.081   6.687  1.5743 -1.1953 -2.2688
   46CHL1    C1 4554   5.803  -0.068   6.794  1.2169  0.1630 -0.9839
   46CHL1   H1A 4555   5.700  -0.109   6.789  0.4613  1.5672  1.1626
   46CHL1   H1B 4556   5.892  -0.131   6.774  1.9567  1.4903 -2.0199
   46CHL1    C2 4557   5.817  -0.029   6.942  0.3519 -0.1183 -0.3957
   46CHL1   H2A 4558   5.816  -0.122   7.002 -1.4066  0.4702  0.5536
   46CHL1   H2B 4559   5.719   0.014   6.971 -0.7642 -2.2933 -0.7553
   46CHL1   C20 4560   5.642  -0.071   6.040  0.4714 -0.2059 -0.6679
   46CHL1   H20 4561   5.557   0.000   6.049  0.4168 -0.4613  1.1666
   46CHL1   C21 4562   5.587  -0.210   6.075 -0.0147  0.4715  0.7072
   46CHL1  H21A 4563   5.548  -0.264   5.986  0.4877 -0.7920  1.2251
   46CHL1  H21B 4564   5.506  -0.197   6.151 -0.3230  0.0827  0.4518
   46CHL1  H21C 4565   5.656  -0.285   6.119 -2.5623 -1.9614  0.8726
   46CHL1   C22 4566   5.686  -0.067   5.896  0.3369 -0.0116 -0.4710
   46CHL1  H22A 4567   5.720   0.037   5.877  0.1444  0.0768 -0.3340
   46CHL1  H22B 4568   5.772  -0.137   5.889 -1.0797 -1.8616 -0.3308
   46CHL1   C23 4569   5.593  -0.096   5.779 -0.1898 -0.0348  0.4994
   46CHL1  H23A 4570   5.566  -0.203   5.768 -0.8164 -0.1790  2.8603
   46CHL1  H23B 4571   5.502  -0.038   5.806 -1.2859 -2.0277  1.2387
   46CHL1   C24 4572   5.664  -0.048   5.650 -0.2855  0.5339 -0.4535
   46CHL1  H24A 4573   5.670   0.062   5.649 -2.5251  0.7319  0.9034
   46CHL1  H24B 4574   5.768  -0.085   5.637 -1.1088 -2.4443  0.4653
   46CHL1   C25 4575   5.598  -0.095   5.513 -0.0706 -0.3427 -0.2217
   46CHL1   H25 4576   5.562  -0.198   5.534  2.2047 -1.0504  0.4566
   46CHL1   C26 4577   5.483  -0.002   5.474  0.0776  0.2899 -0.0734
   46CHL1  H26A 4578   5.516   0.104   5.469  0.1324  0.2660 -0.2103
   46CHL1  H26B 4579   5.438  -0.025   5.375  0.7941  2.1988 -0.8857
   46CHL1  H26C 4580   5.403  -0.002   5.552  0.2295  0.4080  0.0835
   46CHL1   C27 4581   5.697  -0.102   5.395 -0.3092 -0.7819  0.1284
   46CHL1  H27A 4582   5.787  -0.156   5.432  0.7348  1.6067  1.3156
   46CHL1  H27B 4583   5.652  -0.129   5.298 -4.0892  0.3445  1.3971
   46CHL1  H27C 4584   5.741  -0.000   5.393  1.4707 -1.4608  1.5144
   47CHL1    C3 4585   0.953   5.370   6.718  0.0995 -0.6983 -0.0891
   47CHL1    H3 4586   0.948   5.287   6.645 -0.5405 -0.7168 -0.0298
   47CHL1    O3 4587   0.927   5.338   6.853  0.1709 -0.3967 -0.4415
   47CHL1   H3' 4588   0.922   5.419   6.904 -1.5001 -0.2092 -0.8203
   47CHL1    C4 4589   1.099   5.434   6.702  0.2962  0.1836 -0.0677
   47CHL1   H4A 4590   1.120   5.516   6.774 -0.2890 -0.3106  0.6804
   47CHL1   H4B 4591   1.161   5.349   6.738  2.1029  1.5324  0.1629
   47CHL1    C5 4592   1.142   5.468   6.561 -0.7965 -0.3081 -0.3583
   47CHL1    C6 4593   1.253   5.416   6.500  0.1560  0.1726 -0.1943
   47CHL1    H6 4594   1.322   5.353   6.557  2.4735  3.6732  1.1174
   47CHL1    C7 4595   1.291   5.440   6.356  0.5300  0.2755  0.1839
   47CHL1   H7A 4596   1.398   5.469   6.356  0.8226 -0.7172  1.5778
   47CHL1   H7B 4597   1.280   5.350   6.291 -1.2604  0.0022  0.8158
   47CHL1    C8 4598   1.206   5.565   6.299 -0.4282  0.8334 -0.2538
   47CHL1    H8 4599   1.259   5.657   6.334 -1.3329  0.8680  1.1180
   47CHL1   C14 4600   1.215   5.573   6.146 -0.8165 -0.2805  1.2148
   47CHL1   H14 4601   1.171   5.479   6.106 -0.0007  0.3977 -1.4999
   47CHL1   C15 4602   1.349   5.567   6.073 -0.6786  0.4631  0.5046
   47CHL1  H15A 4603   1.416   5.645   6.116  2.1098 -1.0736 -0.7464
   47CHL1  H15B 4604   1.411   5.475   6.074 -0.9902  0.2551  0.7562
   47CHL1   C16 4605   1.311   5.601   5.926  0.1020 -0.2286 -0.6279
   47CHL1  H16A 4606   1.379   5.682   5.891  0.5935 -1.1224 -1.8240
   47CHL1  H16B 4607   1.320   5.521   5.849  0.7793  1.0241 -1.9038
   47CHL1   C17 4608   1.161   5.651   5.922 -0.2329 -0.1621 -0.3741
   47CHL1   H17 4609   1.099   5.566   5.887  0.4790 -1.1670  0.7338
   47CHL1   C13 4610   1.138   5.676   6.071  0.1919  0.0020 -0.6874
   47CHL1   C18 4611   1.191   5.819   6.109 -0.1666 -0.2937  0.0164
   47CHL1  H18A 4612   1.187   5.825   6.220  1.0303 -1.8175  0.1691
   47CHL1  H18B 4613   1.295   5.832   6.073 -0.4125 -0.9867 -0.9711
   47CHL1  H18C 4614   1.130   5.902   6.066 -0.9321 -1.0469 -0.3915
   47CHL1   C12 4615   0.984   5.650   6.107  0.0062  0.2504 -0.1615
   47CHL1  H12A 4616   0.924   5.724   6.049  3.0478  0.8866 -2.8064
   47CHL1  H12B 4617   0.959   5.554   6.058 -0.0993  1.2599 -2.2176
   47CHL1   C11 4618   0.966   5.662   6.260  0.7562  0.2604 -0.2403
   47CHL1  H11A 4619   0.978   5.766   6.295  0.8480 -0.2943  1.4706
   47CHL1  H11B 4620   0.867   5.617   6.283  0.3374  0.1658 -2.1159
   47CHL1    C9 4621   1.057   5.567   6.341 -0.2921 -0.0918  0.8541
   47CHL1    H9 4622   1.037   5.461   6.318  0.5836 -0.1713  0.3989
   47CHL1   C10 4623   1.032   5.568   6.491 -0.4895 -0.0525 -0.5762
   47CHL1   C19 4624   1.048   5.710   6.546  0.3395  0.2179 -0.3715
   47CHL1  H19A 4625   0.974   5.777   6.498  2.3581  1.3006 -2.1020
   47CHL1  H19B 4626   1.018   5.712   6.654 -1.9411 -2.5228 -0.8402
   47CHL1  H19C 4627   1.147   5.758   6.532  0.5640 -0.6302 -1.8537
   47CHL1    C1 4628   0.892   5.503   6.516 -0.5154  0.2187  0.8460
   47CHL1   H1A 4629   0.808   5.564   6.478  1.1512  3.4358  1.9188
   47CHL1   H1B 4630   0.893   5.406   6.461 -0.2249  0.6926  0.0047
   47CHL1    C2 4631   0.850   5.473   6.663 -0.1242  0.3512  0.2879
   47CHL1   H2A 4632   0.750   5.426   6.660  0.4180 -0.9122  1.3491
   47CHL1   H2B 4633   0.853   5.565   6.726  2.1430  0.6308 -0.1571
   47CHL1   C20 4634   1.138   5.769   5.820  0.0699 -0.5807 -0.5634
   47CHL1   H20 4635   1.185   5.865   5.848 -3.9666  2.0565 -1.8667
   47CHL1   C21 4636   0.988   5.797   5.802  0.1541 -0.0526 -0.2188
   47CHL1  H21A 4637   0.952   5.861   5.886  2.7119  0.7085  0.3901
   47CHL1  H21B 4638   0.936   5.699   5.806 -0.2551  0.1375 -0.7740
   47CHL1  H21C 4639   0.968   5.853   5.708  1.7591  0.1732 -0.4647
   47CHL1   C22 4640   1.191   5.734   5.679 -0.0547 -0.8041  0.8080
   47CHL1  H22A 4641   1.292   5.688   5.677 -0.3543 -1.4290 -0.8833
   47CHL1  H22B 4642   1.120   5.658   5.640 -0.9328  0.2386  0.3033
   47CHL1   C23 4643   1.199   5.856   5.577 -0.7938  0.4458  0.0179
   47CHL1  H23A 4644   1.119   5.932   5.592 -1.2427  0.4845 -2.1647
   47CHL1  H23B 4645   1.290   5.918   5.590  0.1543 -0.5903 -1.3545
   47CHL1   C24 4646   1.176   5.816   5.432 -0.0520  0.0346 -0.1384
   47CHL1  H24A 4647   1.254   5.748   5.391  0.5169  1.8984 -2.4053
   47CHL1  H24B 4648   1.085   5.758   5.406 -0.5022  1.1192 -1.0491
   47CHL1   C25 4649   1.186   5.936   5.334 -0.0630 -0.1409  0.3109
   47CHL1   H25 4650   1.115   6.016   5.366 -1.0055 -1.1141  0.6882
   47CHL1   C26 4651   1.333   5.994   5.336  0.1483 -0.1220  0.1236
   47CHL1  H26A 4652   1.348   6.061   5.249 -0.3285 -0.3722 -0.1607
   47CHL1  H26B 4653   1.351   6.055   5.426  0.6504 -1.9981  1.3579
   47CHL1  H26C 4654   1.409   5.913   5.335 -0.7313 -0.9657 -0.9201
   47CHL1   C27 4655   1.139   5.892   5.194  0.0738 -0.1144 -0.0012
   47CHL1  H27A 4656   1.032   5.862   5.197  0.2470 -0.8606 -0.8249
   47CHL1  H27B 4657   1.150   5.965   5.111 -0.3400 -0.2761 -0.2018
   47CHL1  H27C 4658   1.202   5.809   5.155  0.0498  0.9980 -2.6875
   48CHL1    C3 4659   2.097   5.139   6.650  0.0125  0.2305  0.9562
   48CHL1    H3 4660   2.141   5.229   6.602 -1.0460  0.2061 -0.1228
   48CHL1    O3 4661   2.150   5.116   6.777  0.2756  0.4361  0.0483
   48CHL1   H3' 4662   2.076   5.073   6.822  0.7908  0.0833  0.5677
   48CHL1    C4 4663   1.945   5.158   6.647  0.4279  0.1769  0.4361
   48CHL1   H4A 4664   1.894   5.066   6.683  1.9751 -0.2438  1.6460
   48CHL1   H4B 4665   1.926   5.249   6.708 -1.5544 -0.5023  0.8937
   48CHL1    C5 4666   1.907   5.171   6.497  0.2904 -0.2571 -0.0320
   48CHL1    C6 4667   1.829   5.276   6.455 -0.9071  0.0031  0.0555
   48CHL1    H6 4668   1.794   5.352   6.527 -0.9452  0.1297 -0.0957
   48CHL1    C7 4669   1.787   5.299   6.311  0.4587  0.3342 -0.5981
   48CHL1   H7A 4670   1.682   5.336   6.316  0.4066  0.2263 -0.8784
   48CHL1   H7B 4671   1.849   5.375   6.259  0.4544  0.6583 -0.1294
   48CHL1    C8 4672   1.799   5.162   6.232 -0.3856 -1.1836 -0.3632
   48CHL1    H8 4673   1.721   5.085   6.251  0.0303 -1.4824  0.1772
   48CHL1   C14 4674   1.784   5.207   6.087  0.1711  0.4580 -0.7452
   48CHL1   H14 4675   1.870   5.274   6.067  1.6671 -1.1062  0.0996
   48CHL1   C15 4676   1.659   5.286   6.049 -0.2866  0.0862 -0.4307
   48CHL1  H15A 4677   1.579   5.226   6.096  0.1514 -0.1153  0.0634
   48CHL1  H15B 4678   1.663   5.394   6.076 -1.3309  0.1958 -0.6700
   48CHL1   C16 4679   1.658   5.277   5.892  0.3062 -0.1112  0.6190
   48CHL1  H16A 4680   1.564   5.224   5.865  0.3495  0.1134  0.0012
   48CHL1  H16B 4681   1.671   5.376   5.844 -1.5888 -0.4823 -0.7746
   48CHL1   C17 4682   1.772   5.179   5.847 -0.2854  0.4499  0.0187
   48CHL1   H17 4683   1.856   5.251   5.842 -0.4702  0.7903  1.4072
   48CHL1   C13 4684   1.796   5.097   5.974 -0.1205  0.1012 -0.1581
   48CHL1   C18 4685   1.694   4.983   5.974  0.6604  0.5060  0.0651
   48CHL1  H18A 4686   1.673   4.936   6.073 -0.3325  1.1783  0.1911
   48CHL1  H18B 4687   1.591   5.010   5.944  0.4445 -1.3966 -1.0548
   48CHL1  H18C 4688   1.710   4.899   5.904  1.1981  1.8450 -1.4731
   48CHL1   C12 4689   1.940   5.037   6.001 -0.3782  0.2086 -0.2764
   48CHL1  H12A 4690   1.954   4.955   5.927 -0.0731  2.0588 -2.3698
   48CHL1  H12B 4691   2.012   5.114   5.966  1.4374 -2.6216 -3.3290
   48CHL1   C11 4692   1.952   4.988   6.145  0.0576 -0.3276 -0.4752
   48CHL1  H11A 4693   1.875   4.910   6.162 -0.3792  0.7122  3.0776
   48CHL1  H11B 4694   2.051   4.940   6.161  0.8730  1.5297  0.2774
   48CHL1    C9 4695   1.934   5.096   6.249 -0.3429  0.1254  0.0441
   48CHL1    H9 4696   2.016   5.166   6.223  0.7612 -1.5512 -1.2046
   48CHL1   C10 4697   1.955   5.057   6.399  0.6545 -0.3746  0.2454
   48CHL1   C19 4698   1.881   4.922   6.430 -0.2203  0.2855  0.1329
   48CHL1  H19A 4699   1.914   4.882   6.529  2.1281  0.3166 -0.5631
   48CHL1  H19B 4700   1.771   4.931   6.418 -0.6170  1.5315  3.5848
   48CHL1  H19C 4701   1.919   4.849   6.356 -0.3479  1.2102 -0.8714
   48CHL1    C1 4702   2.105   5.036   6.421  0.5459  0.5595  0.1622
   48CHL1   H1A 4703   2.129   4.942   6.368 -0.3041  0.0143  0.7288
   48CHL1   H1B 4704   2.164   5.124   6.386 -0.4052  1.4015  0.6113
   48CHL1    C2 4705   2.144   5.023   6.566 -0.1171  1.3705  0.1661
   48CHL1   H2A 4706   2.254   5.013   6.578 -0.2346 -0.8117 -0.1747
   48CHL1   H2B 4707   2.097   4.933   6.613 -2.7872  2.0440 -1.0365
   48CHL1   C20 4708   1.737   5.112   5.715 -0.0030 -0.6664  0.5365
   48CHL1   H20 4709   1.656   5.037   5.729 -0.2063 -0.9414 -1.6639
   48CHL1   C21 4710   1.865   5.030   5.676  0.9281 -0.4141 -0.0617
   48CHL1  H21A 4711   1.878   4.989   5.573 -2.6084 -1.3850 -0.2451
   48CHL1  H21B 4712   1.959   5.084   5.699  0.8920 -0.1755 -0.4628
   48CHL1  H21C 4713   1.867   4.939   5.739  2.1716 -1.5068 -1.5821
   48CHL1   C22 4714   1.696   5.213   5.601  0.2518  0.4479 -0.7058
   48CHL1  H22A 4715   1.599   5.258   5.631  0.0679 -0.1840 -0.3313
   48CHL1  H22B 4716   1.774   5.292   5.591  1.4531 -0.9287 -2.8519
   48CHL1   C23 4717   1.673   5.156   5.462 -0.0844  0.8570  0.2674
   48CHL1  H23A 4718   1.766   5.104   5.430 -0.4141  0.7327 -0.5115
   48CHL1  H23B 4719   1.604   5.069   5.464  0.4839  0.3917  0.0905
   48CHL1   C24 4720   1.628   5.262   5.359 -0.2160  0.4087 -0.5412
   48CHL1  H24A 4721   1.521   5.285   5.377 -0.1175 -1.6087  3.9191
   48CHL1  H24B 4722   1.688   5.353   5.381  1.3906 -1.3174  3.0963
   48CHL1   C25 4723   1.649   5.223   5.219  0.0913  0.1007 -0.5418
   48CHL1   H25 4724   1.756   5.194   5.223 -0.0559 -0.4241 -0.2964
   48CHL1   C26 4725   1.575   5.093   5.178  0.2111 -0.7608 -0.1655
   48CHL1  H26A 4726   1.593   5.016   5.257 -0.1940 -0.9073 -0.2109
   48CHL1  H26B 4727   1.465   5.109   5.173  0.4942  0.9950 -1.6306
   48CHL1  H26C 4728   1.602   5.047   5.081  0.0542  0.5972 -0.8796
   48CHL1   C27 4729   1.634   5.332   5.116 -0.1552 -0.8525  0.0574
   48CHL1  H27A 4730   1.535   5.382   5.110 -0.4659 -1.5931 -1.6420
   48CHL1  H27B 4731   1.699   5.419   5.137 -1.5603  0.5215 -1.0633
   48CHL1  H27C 4732   1.669   5.302   5.015 -0.0020  1.4532 -0.6245
   49CHL1    C3 4733   0.711   2.691   3.891 -0.2165 -0.3766  0.0688
   49CHL1    H3 4734   0.622   2.634   3.855  0.2122 -0.0612 -1.5820
   49CHL1    O3 4735   0.795   2.697   3.777 -0.2262  0.3466 -0.4461
   49CHL1   H3' 4736   0.743   2.708   3.698 -0.8898  1.1357  0.0807
   49CHL1    C4 4737   0.661   2.837   3.940 -0.5234  0.5489  0.3605
   49CHL1   H4A 4738   0.745   2.909   3.933  0.1472 -0.3105 -0.9834
   49CHL1   H4B 4739   0.592   2.853   3.854 -1.7638  0.8479  1.3898
   49CHL1    C5 4740   0.601   2.828   4.078  0.1042  0.5582 -0.6286
   49CHL1    C6 4741   0.480   2.875   4.105 -0.0658 -1.0107 -0.1262
   49CHL1    H6 4742   0.428   2.919   4.018  1.4638  0.2343 -0.4622
   49CHL1    C7 4743   0.400   2.884   4.232 -0.6325 -0.1301 -0.4167
   49CHL1   H7A 4744   0.364   2.989   4.238 -1.8186 -0.4584 -1.3914
   49CHL1   H7B 4745   0.317   2.811   4.222 -1.2955  0.5568  0.0361
   49CHL1    C8 4746   0.490   2.849   4.352  0.1668 -0.4148  0.3931
   49CHL1    H8 4747   0.548   2.941   4.377  0.7013 -1.0771  1.6763
   49CHL1   C14 4748   0.400   2.812   4.475  0.3193  0.2674  0.5577
   49CHL1   H14 4749   0.346   2.723   4.436 -1.5523  1.2552  0.8136
   49CHL1   C15 4750   0.297   2.920   4.524  0.3447  0.1194  0.2462
   49CHL1  H15A 4751   0.350   3.018   4.516  1.7894 -0.7883 -2.9064
   49CHL1  H15B 4752   0.199   2.919   4.471  0.5844 -0.9814 -0.1991
   49CHL1   C16 4753   0.271   2.880   4.673  0.2984 -1.1850  0.3672
   49CHL1  H16A 4754   0.289   2.973   4.731  0.4873 -1.6904  1.1448
   49CHL1  H16B 4755   0.162   2.864   4.688 -0.2634 -0.0747 -2.1250
   49CHL1   C17 4756   0.367   2.760   4.707 -0.2360 -0.2836 -0.1650
   49CHL1   H17 4757   0.312   2.668   4.679 -1.0271  0.2440 -0.3843
   49CHL1   C13 4758   0.482   2.769   4.600 -0.8468 -0.4587 -0.3814
   49CHL1   C18 4759   0.573   2.891   4.654 -0.2079  0.2880  0.0701
   49CHL1  H18A 4760   0.646   2.861   4.733 -0.0653  0.5372  0.0328
   49CHL1  H18B 4761   0.643   2.921   4.574  3.6081  0.0958  3.0324
   49CHL1  H18C 4762   0.516   2.979   4.690  0.2406  0.8147 -0.4813
   49CHL1   C12 4763   0.570   2.652   4.560 -0.7271  0.0854  0.6364
   49CHL1  H12A 4764   0.622   2.614   4.650  0.8957  1.5468  0.3733
   49CHL1  H12B 4765   0.498   2.575   4.526 -0.3810  0.1099 -0.1992
   49CHL1   C11 4766   0.661   2.671   4.442 -0.0531  0.0525  0.3189
   49CHL1  H11A 4767   0.742   2.736   4.481 -0.9758  2.6822 -1.7519
   49CHL1  H11B 4768   0.716   2.578   4.419  1.0069  1.2998 -2.7214
   49CHL1    C9 4769   0.579   2.724   4.318 -0.4395 -0.6709  0.6772
   49CHL1    H9 4770   0.507   2.643   4.292 -0.5793 -0.8946  1.6952
   49CHL1   C10 4771   0.672   2.749   4.190 -0.0291 -0.2890  0.3102
   49CHL1   C19 4772   0.801   2.827   4.230  0.4319  0.1940  0.0688
   49CHL1  H19A 4773   0.862   2.867   4.146  0.5073 -0.2884 -0.1113
   49CHL1  H19B 4774   0.771   2.904   4.304 -1.8362 -2.2642  1.8879
   49CHL1  H19C 4775   0.873   2.756   4.276 -0.7654 -2.3995 -1.7678
   49CHL1    C1 4776   0.706   2.605   4.126  0.4265 -0.0721 -0.4505
   49CHL1   H1A 4777   0.770   2.546   4.195  0.4846  1.9316  1.3279
   49CHL1   H1B 4778   0.613   2.551   4.101 -0.7850  2.4161 -1.6807
   49CHL1    C2 4779   0.789   2.624   3.996  0.2380  0.4932  0.3708
   49CHL1   H2A 4780   0.821   2.524   3.961  2.5821  0.6927  1.7468
   49CHL1   H2B 4781   0.883   2.675   4.024  1.4740 -2.4216  1.9515
   49CHL1   C20 4782   0.395   2.760   4.857 -0.2299  0.3599  0.6402
   49CHL1   H20 4783   0.463   2.843   4.886 -0.4570 -0.2025  3.0420
   49CHL1   C21 4784   0.478   2.634   4.893  0.9598  0.0285 -0.1911
   49CHL1  H21A 4785   0.508   2.639   5.000  2.1317  1.1729 -0.5479
   49CHL1  H21B 4786   0.582   2.639   4.852  1.4295  0.1284  0.9661
   49CHL1  H21C 4787   0.420   2.544   4.864  0.9649  0.5021 -1.7917
   49CHL1   C22 4788   0.269   2.767   4.947 -1.2442  0.1730  0.6796
   49CHL1  H22A 4789   0.304   2.782   5.051  2.7716  0.6535 -0.5615
   49CHL1  H22B 4790   0.208   2.857   4.922 -1.5025 -0.2387 -0.2306
   49CHL1   C23 4791   0.170   2.647   4.941  0.0982 -0.7232  0.3717
   49CHL1  H23A 4792   0.125   2.656   4.840 -1.2109  0.8163  1.0489
   49CHL1  H23B 4793   0.212   2.547   4.966  0.7050 -0.1166  1.8611
   49CHL1   C24 4794   0.051   2.669   5.035  0.3731 -0.0990 -0.3628
   49CHL1  H24A 4795   0.083   2.689   5.140  0.3552 -0.8389 -0.2151
   49CHL1  H24B 4796   0.014   2.767   4.998 -3.2404 -1.6792 -1.3553
   49CHL1   C25 4797  -0.072   2.579   5.048 -0.2394 -0.3312  0.2089
   49CHL1   H25 4798  -0.117   2.578   5.150 -0.2867 -1.0361  0.1888
   49CHL1   C26 4799  -0.176   2.622   4.941  0.0267 -0.5829 -0.1937
   49CHL1  H26A 4800  -0.233   2.717   4.958  0.8955  0.0880 -0.9205
   49CHL1  H26B 4801  -0.125   2.622   4.842 -1.1816 -3.1426 -0.8829
   49CHL1  H26C 4802  -0.259   2.549   4.936 -2.5178  1.8468  2.2436
   49CHL1   C27 4803  -0.028   2.433   5.020  0.3238 -0.1547 -0.6544
   49CHL1  H27A 4804  -0.116   2.365   5.022  0.7515 -0.7098 -0.1049
   49CHL1  H27B 4805   0.018   2.416   4.921  0.0991  0.5878 -0.8896
   49CHL1  H27C 4806   0.045   2.395   5.094  0.3112 -0.6445 -0.8929
   50CHL1    C3 4807   0.388   4.634   3.765  0.4442  0.4382  0.0381
   50CHL1    H3 4808   0.364   4.740   3.788  0.1960  0.1586  1.1425
   50CHL1    O3 4809   0.429   4.616   3.625 -0.2925 -0.2952  0.4273
   50CHL1   H3' 4810   0.375   4.550   3.580 -1.5277  0.6381  0.4926
   50CHL1    C4 4811   0.493   4.582   3.861 -0.3160  0.1109  0.3445
   50CHL1   H4A 4812   0.538   4.493   3.812  1.3119  1.8347 -1.4686
   50CHL1   H4B 4813   0.576   4.655   3.875  0.3609 -0.7290  0.8619
   50CHL1    C5 4814   0.444   4.556   4.006  0.2569  0.0259  1.2069
   50CHL1    C6 4815   0.509   4.613   4.110 -1.1090  0.3412 -0.2590
   50CHL1    H6 4816   0.600   4.673   4.096 -1.6922  1.5002  0.7904
   50CHL1    C7 4817   0.467   4.603   4.253 -0.6238 -1.8228 -0.3133
   50CHL1   H7A 4818   0.543   4.625   4.331 -0.1557 -0.0234 -1.2162
   50CHL1   H7B 4819   0.401   4.692   4.264 -0.4001 -1.8417  1.4278
   50CHL1    C8 4820   0.372   4.474   4.269 -0.5304  0.3657 -0.1628
   50CHL1    H8 4821   0.437   4.384   4.262 -1.7953 -0.6411  0.5013
   50CHL1   C14 4822   0.311   4.479   4.403  0.5653 -0.2109 -0.0341
   50CHL1   H14 4823   0.249   4.571   4.410  0.6220 -0.1410 -0.4227
   50CHL1   C15 4824   0.409   4.486   4.520 -0.0022 -0.1820 -0.3526
   50CHL1  H15A 4825   0.505   4.431   4.515  0.4553  0.2016  2.4559
   50CHL1  H15B 4826   0.424   4.595   4.534 -2.0404  0.1160 -0.1829
   50CHL1   C16 4827   0.328   4.427   4.638  0.0149 -0.2817 -0.4864
   50CHL1  H16A 4828   0.378   4.339   4.684  3.1012  1.2502 -0.6255
   50CHL1  H16B 4829   0.314   4.501   4.720  0.5283 -0.4556 -0.2360
   50CHL1   C17 4830   0.184   4.386   4.584  0.5917 -0.7804  0.1750
   50CHL1   H17 4831   0.124   4.479   4.592 -0.1772 -1.1871 -0.6902
   50CHL1   C13 4832   0.206   4.372   4.429 -0.5573  0.0086 -0.3055
   50CHL1   C18 4833   0.270   4.237   4.411 -0.9289 -0.1525 -0.1371
   50CHL1  H18A 4834   0.361   4.228   4.474 -0.6027  0.5488 -0.4973
   50CHL1  H18B 4835   0.223   4.150   4.463  2.6113 -0.3106  3.2096
   50CHL1  H18C 4836   0.306   4.212   4.309 -1.7109  0.3190 -0.5450
   50CHL1   C12 4837   0.096   4.391   4.329  0.4211 -0.1661 -0.2385
   50CHL1  H12A 4838   0.021   4.309   4.328  0.7411 -0.4775 -2.2362
   50CHL1  H12B 4839   0.041   4.487   4.345 -1.1961 -1.1988  0.7251
   50CHL1   C11 4840   0.145   4.387   4.185 -0.6072 -0.8387 -0.4306
   50CHL1  H11A 4841   0.168   4.280   4.162  0.2266 -0.6761 -0.3885
   50CHL1  H11B 4842   0.063   4.411   4.113 -2.1145 -0.7818  1.2322
   50CHL1    C9 4843   0.267   4.483   4.156  0.5608 -0.6218  0.2744
   50CHL1    H9 4844   0.225   4.585   4.168  0.6007 -0.6166  0.3651
   50CHL1   C10 4845   0.316   4.475   4.009 -0.2815 -0.2272 -0.2165
   50CHL1   C19 4846   0.337   4.332   3.976  0.3958  0.6003 -0.2479
   50CHL1  H19A 4847   0.385   4.279   4.061 -3.3306 -2.2273  0.3623
   50CHL1  H19B 4848   0.242   4.280   3.951  0.5820  0.3247 -0.3898
   50CHL1  H19C 4849   0.404   4.305   3.892 -1.5901 -2.2684 -1.0360
   50CHL1    C1 4850   0.213   4.540   3.909  0.7314 -0.1738  0.0821
   50CHL1   H1A 4851   0.113   4.491   3.907  0.6580 -0.3801  3.4112
   50CHL1   H1B 4852   0.190   4.640   3.952 -0.5581  0.3473 -1.6969
   50CHL1    C2 4853   0.254   4.564   3.767  0.2783  0.2627 -0.4249
   50CHL1   H2A 4854   0.178   4.620   3.709  0.2294  2.4725  1.6197
   50CHL1   H2B 4855   0.273   4.470   3.710 -1.2127  0.6826 -1.6778
   50CHL1   C20 4856   0.122   4.280   4.674  0.3437  0.7696  0.1678
   50CHL1   H20 4857   0.182   4.187   4.668 -0.9368 -0.1657  1.2706
   50CHL1   C21 4858  -0.018   4.264   4.627  0.0217 -0.2352  0.0718
   50CHL1  H21A 4859  -0.064   4.362   4.601  1.2085  0.7111  1.4040
   50CHL1  H21B 4860  -0.086   4.203   4.689 -1.6614 -1.7187 -2.9957
   50CHL1  H21C 4861  -0.015   4.195   4.541  1.0039 -0.5978  0.3877
   50CHL1   C22 4862   0.121   4.325   4.822  0.3230 -0.2944 -0.3208
   50CHL1  H22A 4863   0.217   4.363   4.863 -1.6245  3.4756  1.2568
   50CHL1  H22B 4864   0.056   4.415   4.824  4.0993  2.6771 -0.0996
   50CHL1   C23 4865   0.060   4.228   4.924  0.9130 -0.0695  0.2732
   50CHL1  H23A 4866  -0.034   4.190   4.879 -0.2951  2.8286  0.1015
   50CHL1  H23B 4867   0.127   4.140   4.934  1.4527  0.4696  1.7440
   50CHL1   C24 4868   0.021   4.284   5.058  0.0292  0.7813 -0.2180
   50CHL1  H24A 4869  -0.029   4.384   5.052  0.5489  1.0625  0.0273
   50CHL1  H24B 4870  -0.057   4.219   5.104  0.4690  1.0504  0.9551
   50CHL1   C25 4871   0.139   4.282   5.157 -0.1613  0.1496  0.4573
   50CHL1   H25 4872   0.230   4.312   5.101 -2.9872  2.3741 -3.5284
   50CHL1   C26 4873   0.119   4.392   5.266  0.1313 -0.2978  0.8441
   50CHL1  H26A 4874   0.195   4.397   5.348 -1.2190 -0.0268  2.1318
   50CHL1  H26B 4875   0.128   4.487   5.209  1.4431  0.4044  2.1257
   50CHL1  H26C 4876   0.015   4.375   5.299 -1.2891  0.6475 -2.6832
   50CHL1   C27 4877   0.178   4.145   5.225 -0.0568  0.2531 -0.1653
   50CHL1  H27A 4878   0.275   4.166   5.276 -0.0508  2.7427 -1.0932
   50CHL1  H27B 4879   0.107   4.119   5.307  0.8246  1.3442  0.9833
   50CHL1  H27C 4880   0.187   4.073   5.141 -0.3575  0.9325 -0.7900
   51CHL1    C3 4881   5.849   1.415   3.711 -0.2272  0.4157  0.0392
   51CHL1    H3 4882   5.788   1.323   3.721  0.2861  0.0506 -0.1570
   51CHL1    O3 4883   5.902   1.414   3.578 -0.7594  0.2660  0.5475
   51CHL1   H3' 4884   5.955   1.490   3.555 -0.9597 -0.0149 -0.9642
   51CHL1    C4 4885   5.766   1.541   3.738 -0.5081 -0.2880 -0.3945
   51CHL1   H4A 4886   5.833   1.627   3.718 -0.4600  0.5799  2.8981
   51CHL1   H4B 4887   5.683   1.534   3.665  0.4105 -0.0979 -1.4768
   51CHL1    C5 4888   5.722   1.571   3.879  0.8514  0.0880  1.0820
   51CHL1    C6 4889   5.599   1.590   3.911  0.3082  0.1240  0.1557
   51CHL1    H6 4890   5.532   1.584   3.824 -1.6143  0.5234  1.5522
   51CHL1    C7 4891   5.546   1.623   4.046  0.2708 -0.8727 -0.1428
   51CHL1   H7A 4892   5.473   1.703   4.021  0.5446 -0.7633 -0.6159
   51CHL1   H7B 4893   5.480   1.542   4.081 -0.4611 -0.4116 -0.4299
   51CHL1    C8 4894   5.657   1.660   4.149  0.2773 -0.0403  0.8564
   51CHL1    H8 4895   5.667   1.769   4.129 -0.6178 -0.1841 -0.5968
   51CHL1   C14 4896   5.610   1.643   4.291  0.1126 -0.4748  0.0209
   51CHL1   H14 4897   5.589   1.535   4.305 -3.0037  0.2830  2.4339
   51CHL1   C15 4898   5.475   1.707   4.329 -0.5280 -0.0014  0.4007
   51CHL1  H15A 4899   5.482   1.808   4.283  0.1705  0.2416  1.0211
   51CHL1  H15B 4900   5.400   1.636   4.288  0.3508 -1.5149  1.3406
   51CHL1   C16 4901   5.474   1.714   4.479  0.7273 -0.6705  0.6242
   51CHL1  H16A 4902   5.476   1.821   4.509 -3.4980 -0.2977  0.1440
   51CHL1  H16B 4903   5.382   1.672   4.527 -1.1105 -0.2041 -2.2316
   51CHL1   C17 4904   5.610   1.661   4.526  0.9998  0.7392 -1.1084
   51CHL1   H17 4905   5.593   1.552   4.544 -0.2355  1.3905  2.5948
   51CHL1   C13 4906   5.708   1.677   4.400 -0.4633  0.0898  0.2925
   51CHL1   C18 4907   5.762   1.829   4.402 -0.1295 -0.3391 -0.1467
   51CHL1  H18A 4908   5.675   1.898   4.389  0.4800  0.4802  0.0159
   51CHL1  H18B 4909   5.816   1.862   4.492  1.5745  1.9353 -1.8738
   51CHL1  H18C 4910   5.827   1.836   4.312 -0.8281 -3.1771 -0.9747
   51CHL1   C12 4911   5.828   1.580   4.390  1.6047  0.2048 -0.2713
   51CHL1  H12A 4912   5.907   1.595   4.468  2.7486  0.8733 -1.5130
   51CHL1  H12B 4913   5.775   1.483   4.392  2.0959 -0.0565  1.0433
   51CHL1   C11 4914   5.889   1.577   4.252 -0.3047  0.2421  0.6474
   51CHL1  H11A 4915   5.950   1.670   4.244 -0.6738  0.4901  0.6950
   51CHL1  H11B 4916   5.947   1.482   4.244 -2.0427 -0.8447  0.3439
   51CHL1    C9 4917   5.785   1.578   4.130  0.4822  0.6905  0.1545
   51CHL1    H9 4918   5.735   1.479   4.142 -0.6396  1.3060  0.7207
   51CHL1   C10 4919   5.838   1.580   3.985 -0.1627  0.2865  0.2274
   51CHL1   C19 4920   5.908   1.714   3.972 -0.3125 -0.7418 -0.7489
   51CHL1  H19A 4921   5.865   1.790   4.041 -0.3123 -1.4522  0.0479
   51CHL1  H19B 4922   6.018   1.708   3.987 -0.3958  0.2302  0.5231
   51CHL1  H19C 4923   5.894   1.754   3.869 -2.8453 -1.5979 -0.7929
   51CHL1    C1 4924   5.925   1.448   3.959  0.2309  0.0759  0.4394
   51CHL1   H1A 4925   6.016   1.455   4.022  0.1671  0.6418  0.4706
   51CHL1   H1B 4926   5.861   1.365   3.997 -1.9912  0.6861 -1.6974
   51CHL1    C2 4927   5.967   1.420   3.812 -1.0989  0.4315 -0.3210
   51CHL1   H2A 4928   6.031   1.329   3.805 -0.0024  1.2040 -0.5686
   51CHL1   H2B 4929   6.036   1.502   3.781 -1.2389  1.0212  0.8667
   51CHL1   C20 4930   5.647   1.705   4.669  0.4051 -0.4050  0.4393
   51CHL1   H20 4931   5.692   1.806   4.662 -0.8345  0.0363 -3.6462
   51CHL1   C21 4932   5.755   1.608   4.722  0.2165  0.3055  0.4098
   51CHL1  H21A 4933   5.725   1.501   4.715  3.4720 -0.6752 -0.2346
   51CHL1  H21B 4934   5.784   1.626   4.828  1.8387  0.6666 -0.0708
   51CHL1  H21C 4935   5.841   1.623   4.653 -0.3853 -0.3895 -0.5047
   51CHL1   C22 4936   5.522   1.716   4.764  0.8459 -0.0265 -0.1251
   51CHL1  H22A 4937   5.456   1.798   4.726  0.7956 -0.0820 -0.1572
   51CHL1  H22B 4938   5.466   1.621   4.755  0.8331 -0.4111  3.0120
   51CHL1   C23 4939   5.549   1.744   4.911  0.1365 -0.5901  0.7126
   51CHL1  H23A 4940   5.574   1.652   4.968 -0.9851 -2.2197 -1.3412
   51CHL1  H23B 4941   5.643   1.803   4.922  0.2553 -0.9637  1.8584
   51CHL1   C24 4942   5.429   1.803   4.988  0.1168 -0.0485 -0.6588
   51CHL1  H24A 4943   5.401   1.896   4.933  0.5662  0.5246  0.0657
   51CHL1  H24B 4944   5.341   1.736   4.979  0.3733 -0.5449  0.3986
   51CHL1   C25 4945   5.473   1.834   5.134  0.2197 -0.0707  0.2284
   51CHL1   H25 4946   5.506   1.735   5.172 -2.3155 -2.6471 -3.6350
   51CHL1   C26 4947   5.584   1.942   5.145 -0.4053  0.0749  0.5599
   51CHL1  H26A 4948   5.553   2.045   5.118 -0.7219 -0.0064  0.6090
   51CHL1  H26B 4949   5.625   1.937   5.248 -0.6424 -1.2871  0.6075
   51CHL1  H26C 4950   5.672   1.918   5.081 -0.3997 -1.0090  0.9444
   51CHL1   C27 4951   5.359   1.891   5.210  0.1213 -0.1430  0.2568
   51CHL1  H27A 4952   5.385   1.953   5.299 -0.6242 -0.4619  0.7072
   51CHL1  H27B 4953   5.308   1.973   5.154  0.0759  1.8165  2.9312
   51CHL1  H27C 4954   5.289   1.808   5.233  1.6990 -2.0887 -1.6229
   52CHL1    C3 4955   3.930   0.317   3.500  0.0961 -0.0248  0.4709
   52CHL1    H3 4956   3.825   0.349   3.518  0.0039  0.5767 -1.0150
   52CHL1    O3 4957   3.946   0.338   3.358 -0.0128  0.0437  0.1308
   52CHL1   H3' 4958   4.030   0.304   3.326  0.0094  0.7056 -0.5442
   52CHL1    C4 4959   4.028   0.401   3.576  0.4633 -0.1045  0.2221
   52CHL1   H4A 4960   4.129   0.378   3.536  0.3361 -0.6950  0.2346
   52CHL1   H4B 4961   4.000   0.506   3.553  1.4312  0.1464  0.1328
   52CHL1    C5 4962   4.016   0.385   3.729  1.1682  0.0056  0.4576
   52CHL1    C6 4963   3.987   0.483   3.810 -0.0480 -0.4883  0.6975
   52CHL1    H6 4964   3.954   0.576   3.761 -0.7085 -0.0422  1.9260
   52CHL1    C7 4965   3.988   0.469   3.957 -0.0272  0.2289  0.2450
   52CHL1   H7A 4966   4.049   0.554   3.994  1.6260 -0.1520 -1.4793
   52CHL1   H7B 4967   3.885   0.494   3.989 -0.3561 -0.9961  0.2009
   52CHL1    C8 4968   4.045   0.333   4.010  0.8959 -0.2647  0.6240
   52CHL1    H8 4969   4.153   0.325   3.988  0.3857  0.1982 -2.4464
   52CHL1   C14 4970   4.011   0.303   4.151  0.3834 -0.1756 -0.6247
   52CHL1   H14 4971   3.901   0.283   4.158  0.5162 -1.3423 -1.5349
   52CHL1   C15 4972   4.044   0.414   4.256  0.1046 -0.1006 -0.0545
   52CHL1  H15A 4973   4.146   0.444   4.224 -0.6820  1.3073 -1.3893
   52CHL1  H15B 4974   3.985   0.507   4.246  0.6129  0.3084  0.6597
   52CHL1   C16 4975   4.040   0.344   4.391  0.0800  0.1184  0.0911
   52CHL1  H16A 4976   4.134   0.360   4.447 -0.7814 -1.8415  2.3112
   52CHL1  H16B 4977   3.955   0.370   4.458 -0.9287 -1.3772 -0.5448
   52CHL1   C17 4978   4.034   0.190   4.360  0.1334  0.6970 -0.3388
   52CHL1   H17 4979   3.928   0.167   4.380  0.1061  0.8923 -0.2580
   52CHL1   C13 4980   4.076   0.178   4.211  0.3615 -0.1235  0.0320
   52CHL1   C18 4981   4.226   0.183   4.195 -0.5580  0.3977 -0.4814
   52CHL1  H18A 4982   4.251   0.170   4.087 -1.2109 -1.2699 -0.4653
   52CHL1  H18B 4983   4.276   0.272   4.238  1.4805 -0.8447 -0.1715
   52CHL1  H18C 4984   4.266   0.095   4.250 -0.2733  0.6687 -0.2577
   52CHL1   C12 4985   4.019   0.059   4.137 -0.2956  0.4261  0.4818
   52CHL1  H12A 4986   4.057  -0.043   4.159  1.4546  1.2767  1.6639
   52CHL1  H12B 4987   3.912   0.055   4.167 -0.8361 -0.9977 -1.4055
   52CHL1   C11 4988   4.028   0.072   3.980  1.0415 -0.5235 -0.4371
   52CHL1  H11A 4989   4.135   0.055   3.953  0.7465 -0.7606 -1.4680
   52CHL1  H11B 4990   3.980  -0.008   3.921  0.0120  1.0610 -1.8375
   52CHL1    C9 4991   3.990   0.221   3.927  0.8758  0.1095 -0.9956
   52CHL1    H9 4992   3.880   0.231   3.940  1.2501  0.6483  3.0703
   52CHL1   C10 4993   4.025   0.242   3.773 -0.3851 -0.0672  0.0917
   52CHL1   C19 4994   4.166   0.182   3.740  0.1285  0.7392  0.4739
   52CHL1  H19A 4995   4.205   0.215   3.641 -1.6292  1.0694 -0.1533
   52CHL1  H19B 4996   4.247   0.196   3.814  0.8840 -1.0542  0.0307
   52CHL1  H19C 4997   4.156   0.072   3.728  3.0205  0.5031 -0.5354
   52CHL1    C1 4998   3.920   0.159   3.693 -0.2490 -0.3370 -0.1353
   52CHL1   H1A 4999   3.923   0.049   3.711 -1.8356 -0.1525  1.4961
   52CHL1   H1B 5000   3.819   0.202   3.708 -1.7450 -2.8818 -2.0784
   52CHL1    C2 5001   3.938   0.169   3.541  0.3783  0.3380 -0.3117
   52CHL1   H2A 5002   3.848   0.121   3.497 -0.7538  0.9461  1.2202
   52CHL1   H2B 5003   4.029   0.119   3.503  0.2326  0.5580 -0.9603
   52CHL1   C20 5004   4.105   0.095   4.464 -0.2158  0.0811 -0.3575
   52CHL1   H20 5005   4.213   0.119   4.464 -0.6499  2.3379  0.8906
   52CHL1   C21 5006   4.083  -0.053   4.432  0.3213  0.1885  0.4261
   52CHL1  H21A 5007   4.145  -0.102   4.354 -0.1135  0.4240 -0.0804
   52CHL1  H21B 5008   3.977  -0.079   4.410  0.2234  0.4542  0.5698
   52CHL1  H21C 5009   4.108  -0.117   4.519 -1.1007  0.2669  0.9140
   52CHL1   C22 5010   4.051   0.101   4.609 -0.1371  0.0761 -0.1540
   52CHL1  H22A 5011   4.023   0.208   4.621  1.3793  0.4533  0.1856
   52CHL1  H22B 5012   3.958   0.042   4.626  1.2133 -2.3134 -0.6331
   52CHL1   C23 5013   4.150   0.060   4.724  0.0123  0.1313 -0.2655
   52CHL1  H23A 5014   4.170  -0.049   4.724 -1.8372 -0.2507 -0.9692
   52CHL1  H23B 5015   4.247   0.113   4.713 -0.3936  0.5280 -2.3583
   52CHL1   C24 5016   4.080   0.097   4.852  0.3126 -0.4965 -0.0988
   52CHL1  H24A 5017   4.016   0.186   4.832 -0.6977 -1.1729  0.0376
   52CHL1  H24B 5018   4.002   0.019   4.862 -3.0408  1.8652 -4.2088
   52CHL1   C25 5019   4.161   0.114   4.977 -0.1991 -0.3604 -0.0560
   52CHL1   H25 5020   4.237   0.194   4.968  1.1572 -1.6027 -0.0434
   52CHL1   C26 5021   4.073   0.135   5.102 -0.0514 -0.2612 -0.3157
   52CHL1  H26A 5022   3.995   0.058   5.121 -0.7439  0.1065 -1.5636
   52CHL1  H26B 5023   4.132   0.135   5.196  1.2372 -1.6834 -1.0642
   52CHL1  H26C 5024   4.006   0.222   5.087 -0.7411 -0.8443 -0.6840
   52CHL1   C27 5025   4.229  -0.021   4.997 -0.8371  0.5668  0.6221
   52CHL1  H27A 5026   4.285  -0.023   5.094  0.6314 -0.6117 -0.2080
   52CHL1  H27B 5027   4.161  -0.108   4.989  0.0169  0.0063 -0.8833
   52CHL1  H27C 5028   4.312  -0.029   4.923 -1.4929 -0.6555 -0.0044
   53CHL1    C3 5029   5.414   4.171   3.631  0.4501 -0.2077  0.4334
   53CHL1    H3 5030   5.519   4.141   3.617  0.4904  0.5977 -1.1598
   53CHL1    O3 5031   5.364   4.183   3.495  0.6059 -0.0450 -0.3881
   53CHL1   H3' 5032   5.375   4.097   3.454 -0.7037 -0.0287 -0.8057
   53CHL1    C4 5033   5.347   4.045   3.683 -0.3947  0.5070 -0.7003
   53CHL1   H4A 5034   5.237   4.055   3.671 -0.6250 -1.1422 -0.2220
   53CHL1   H4B 5035   5.378   3.950   3.635  0.4975  1.1626 -1.4615
   53CHL1    C5 5036   5.383   4.039   3.836 -0.0587  0.0643  0.7295
   53CHL1    C6 5037   5.449   3.938   3.890  0.9547 -0.2334  0.5389
   53CHL1    H6 5038   5.491   3.859   3.827  0.3306 -0.7660  0.7820
   53CHL1    C7 5039   5.468   3.919   4.040  0.1910 -0.2554 -0.5410
   53CHL1   H7A 5040   5.448   3.814   4.069  2.0528 -0.5603 -0.2714
   53CHL1   H7B 5041   5.572   3.934   4.076 -1.4785  1.7128  4.2775
   53CHL1    C8 5042   5.375   4.007   4.125 -0.2590 -0.5325 -0.4153
   53CHL1    H8 5043   5.274   3.962   4.110 -0.5003 -1.4243  3.1079
   53CHL1   C14 5044   5.417   4.003   4.274 -0.1777 -0.4076 -0.2651
   53CHL1   H14 5045   5.514   4.054   4.287 -0.7221  0.2274  1.5916
   53CHL1   C15 5046   5.445   3.863   4.340  0.3134 -0.2130 -0.1731
   53CHL1  H15A 5047   5.382   3.787   4.289  1.2971 -0.5744 -0.8721
   53CHL1  H15B 5048   5.552   3.838   4.323 -0.1825 -0.9154 -2.6282
   53CHL1   C16 5049   5.407   3.874   4.486  0.4285 -0.1160  0.0972
   53CHL1  H16A 5050   5.317   3.812   4.509 -1.2296  1.4867 -1.6536
   53CHL1  H16B 5051   5.487   3.835   4.551  0.7100  1.8419  1.0085
   53CHL1   C17 5052   5.370   4.031   4.502  0.1245 -0.2582 -0.3593
   53CHL1   H17 5053   5.468   4.083   4.504  0.5352 -1.0546  0.6218
   53CHL1   C13 5054   5.320   4.067   4.365  0.1973  0.5615  0.4103
   53CHL1   C18 5055   5.175   4.009   4.332  0.0888 -0.6509 -0.4608
   53CHL1  H18A 5056   5.139   4.045   4.233 -2.8627 -2.5096 -0.1925
   53CHL1  H18B 5057   5.175   3.898   4.343  1.2026 -0.6987 -0.8331
   53CHL1  H18C 5058   5.102   4.055   4.402  0.1769 -2.4092  0.8499
   53CHL1   C12 5059   5.336   4.213   4.329 -0.2451 -0.4606  0.5210
   53CHL1  H12A 5060   5.261   4.263   4.394  0.2972 -0.7499  1.3847
   53CHL1  H12B 5061   5.434   4.259   4.356 -1.6512  2.5748  0.8614
   53CHL1   C11 5062   5.300   4.246   4.180 -0.4547 -0.0430 -1.0592
   53CHL1  H11A 5063   5.189   4.248   4.180 -0.4718  2.2829  0.2477
   53CHL1  H11B 5064   5.327   4.351   4.155  1.5899 -0.5589 -1.2033
   53CHL1    C9 5065   5.374   4.154   4.073  0.6173  0.2030 -0.1875
   53CHL1    H9 5066   5.482   4.182   4.079  0.8610 -0.6426 -0.5075
   53CHL1   C10 5067   5.334   4.164   3.922  0.0999 -0.1190  0.5339
   53CHL1   C19 5068   5.179   4.170   3.915 -0.7919  0.4518 -0.4617
   53CHL1  H19A 5069   5.132   4.243   3.984 -0.0785 -0.0862  0.6171
   53CHL1  H19B 5070   5.136   4.192   3.815  0.3569  3.9205 -0.3118
   53CHL1  H19C 5071   5.149   4.068   3.950 -1.5025 -0.0174 -2.2913
   53CHL1    C1 5072   5.396   4.295   3.857  0.0965 -0.4606  0.6125
   53CHL1   H1A 5073   5.360   4.386   3.909  0.2370 -0.7355  1.2087
   53CHL1   H1B 5074   5.504   4.291   3.882  0.5038  1.0982 -0.7306
   53CHL1    C2 5075   5.376   4.300   3.708  0.1620 -0.4161 -0.2634
   53CHL1   H2A 5076   5.448   4.373   3.665  0.4814  0.7499  2.1244
   53CHL1   H2B 5077   5.275   4.335   3.681  0.4942  0.3804 -0.5051
   53CHL1   C20 5078   5.293   4.069   4.627  0.2588  0.5331  0.1601
   53CHL1   H20 5079   5.260   4.175   4.625  0.5083  0.5973 -1.4408
   53CHL1   C21 5080   5.396   4.075   4.743 -0.0473 -0.4744 -0.0034
   53CHL1  H21A 5081   5.491   4.130   4.726 -0.0203  0.4037  2.5737
   53CHL1  H21B 5082   5.418   3.973   4.780 -1.6635 -0.5996  0.7069
   53CHL1  H21C 5083   5.355   4.129   4.831  0.8107 -0.8475  0.6254
   53CHL1   C22 5084   5.165   3.988   4.675  0.0093 -0.2391 -0.2758
   53CHL1  H22A 5085   5.096   3.999   4.588  0.2289  0.7820 -0.3248
   53CHL1  H22B 5086   5.188   3.881   4.694 -0.0759 -0.1865  0.1324
   53CHL1   C23 5087   5.092   4.045   4.804 -0.1761  0.6295 -0.2482
   53CHL1  H23A 5088   5.006   3.975   4.804 -0.5525  0.9866  2.5764
   53CHL1  H23B 5089   5.143   4.024   4.900 -1.7157 -1.5679  0.1726
   53CHL1   C24 5090   5.052   4.191   4.781 -0.3002  0.0316  0.8120
   53CHL1  H24A 5091   5.144   4.253   4.779 -0.6598  0.5628 -0.4078
   53CHL1  H24B 5092   4.998   4.191   4.683 -0.7691 -0.1425  1.0683
   53CHL1   C25 5093   4.961   4.248   4.887 -0.4041  0.3279  0.8903
   53CHL1   H25 5094   4.878   4.175   4.901 -2.9028  2.6494 -0.9343
   53CHL1   C26 5095   5.032   4.258   5.019 -0.2753 -0.9133 -0.1849
   53CHL1  H26A 5096   4.965   4.308   5.092  1.2839 -0.3449  0.8870
   53CHL1  H26B 5097   5.044   4.157   5.063 -0.0192 -1.1615 -0.8081
   53CHL1  H26C 5098   5.123   4.321   5.013 -1.2117  1.0710  3.4912
   53CHL1   C27 5099   4.918   4.384   4.844 -0.2486  0.0485  0.1158
   53CHL1  H27A 5100   5.009   4.446   4.833  0.3401 -0.7824  0.1508
   53CHL1  H27B 5101   4.876   4.385   4.741 -0.7036  1.6471  0.2854
   53CHL1  H27C 5102   4.846   4.430   4.915 -1.6907 -1.1894 -0.4789
   54CHL1    C3 5103   5.074   2.159   3.846 -0.1489 -0.4704 -0.4093
   54CHL1    H3 5104   5.185   2.154   3.854 -0.1279  0.7160  0.3842
   54CHL1    O3 5105   5.028   2.203   3.716 -0.0273  0.1882 -0.0768
   54CHL1   H3' 5106   5.053   2.129   3.661 -1.5024 -1.2163  1.0258
   54CHL1    C4 5107   5.011   2.018   3.868 -0.3810 -0.1088 -0.3379
   54CHL1   H4A 5108   4.902   2.021   3.845 -0.1067 -0.3862 -1.8237
   54CHL1   H4B 5109   5.040   1.948   3.787 -0.7429 -1.1155  0.3890
   54CHL1    C5 5110   5.042   1.975   4.013 -0.4520 -0.4413 -0.1163
   54CHL1    C6 5111   5.113   1.866   4.029  0.0741  0.2597  0.1186
   54CHL1    H6 5112   5.153   1.820   3.938 -1.0963  1.9975 -1.3420
   54CHL1    C7 5113   5.143   1.800   4.162  0.6862  0.4111 -0.6561
   54CHL1   H7A 5114   5.123   1.691   4.157 -0.6687  0.6029  0.1720
   54CHL1   H7B 5115   5.251   1.809   4.186  0.7383 -0.9785 -0.2562
   54CHL1    C8 5116   5.035   1.852   4.267 -0.2998  0.9968  0.1213
   54CHL1    H8 5117   4.937   1.805   4.246  0.5316 -0.3523 -0.9807
   54CHL1   C14 5118   5.079   1.796   4.409 -0.5190  0.2066 -0.4065
   54CHL1   H14 5119   5.186   1.824   4.420 -0.2079 -0.7192 -0.9551
   54CHL1   C15 5120   5.079   1.643   4.421  0.9762 -0.9701  0.4677
   54CHL1  H15A 5121   4.988   1.592   4.382  1.1497 -1.2382  0.4082
   54CHL1  H15B 5122   5.168   1.598   4.372  0.7116 -1.2341  0.2217
   54CHL1   C16 5123   5.085   1.627   4.576 -0.0294  0.6819 -0.2712
   54CHL1  H16A 5124   5.007   1.555   4.611 -0.0103 -0.3191 -2.1459
   54CHL1  H16B 5125   5.180   1.588   4.618 -0.0532  1.8729  0.9332
   54CHL1   C17 5126   5.070   1.771   4.641  0.4558  0.2394  0.5416
   54CHL1   H17 5127   5.170   1.818   4.649 -0.3753  2.2458 -0.1431
   54CHL1   C13 5128   4.999   1.853   4.527 -0.0157  0.5431  0.3285
   54CHL1   C18 5129   4.852   1.804   4.514  0.2811  0.4813 -0.0680
   54CHL1  H18A 5130   4.849   1.695   4.538  2.5090  0.3134 -0.3240
   54CHL1  H18B 5131   4.787   1.856   4.587  0.7790  1.0518 -0.0226
   54CHL1  H18C 5132   4.805   1.821   4.415  2.0823 -0.0861 -1.0744
   54CHL1   C12 5133   5.016   2.003   4.523 -0.1605  0.3053  0.4915
   54CHL1  H12A 5134   4.954   2.057   4.598 -0.1338  2.8011 -1.1719
   54CHL1  H12B 5135   5.124   2.026   4.528  0.4693 -1.8209 -1.4627
   54CHL1   C11 5136   4.970   2.065   4.389  0.3188  0.6451 -0.1899
   54CHL1  H11A 5137   4.860   2.066   4.373 -0.0527 -0.9477  1.9488
   54CHL1  H11B 5138   4.991   2.175   4.391 -0.6102  0.8576 -1.1285
   54CHL1    C9 5139   5.048   2.006   4.261  0.5638  0.1508  0.7566
   54CHL1    H9 5140   5.155   2.033   4.271  0.4756  1.4722 -1.2810
   54CHL1   C10 5141   4.994   2.061   4.123  0.2408 -0.4460  0.7335
   54CHL1   C19 5142   4.843   2.057   4.114  0.4072 -0.7337  0.7531
   54CHL1  H19A 5143   4.807   2.089   4.014 -0.5597  1.0111  1.6189
   54CHL1  H19B 5144   4.809   1.953   4.131  0.8713 -1.3229 -1.6208
   54CHL1  H19C 5145   4.804   2.139   4.179  1.6105 -0.1124  0.7248
   54CHL1    C1 5146   5.044   2.211   4.095 -0.0535  0.5387 -0.4975
   54CHL1   H1A 5147   4.974   2.278   4.150 -0.9190  0.8170 -1.8649
   54CHL1   H1B 5148   5.152   2.215   4.119  0.5963 -1.1047 -2.7606
   54CHL1    C2 5149   5.026   2.256   3.946 -1.1605 -0.8261 -0.2369
   54CHL1   H2A 5150   5.084   2.351   3.946 -1.0343 -0.8950  0.4614
   54CHL1   H2B 5151   4.924   2.295   3.926 -0.0165  1.0856 -3.0752
   54CHL1   C20 5152   5.021   1.792   4.787 -0.0773 -0.4211  0.5579
   54CHL1   H20 5153   4.911   1.804   4.791 -0.3124 -1.1770 -1.8646
   54CHL1   C21 5154   5.083   1.920   4.846 -0.3512 -0.3398 -0.9239
   54CHL1  H21A 5155   5.094   2.003   4.773 -0.8672  1.2018  0.6801
   54CHL1  H21B 5156   5.188   1.907   4.879 -0.3279  1.2564 -0.2542
   54CHL1  H21C 5157   5.030   1.955   4.938  3.3857 -0.1066  1.3683
   54CHL1   C22 5158   5.050   1.674   4.877 -0.3582 -0.1224 -0.1400
   54CHL1  H22A 5159   5.014   1.577   4.837 -1.8467 -0.8399  2.6879
   54CHL1  H22B 5160   5.161   1.665   4.884 -0.3582 -0.0764 -0.0636
   54CHL1   C23 5161   4.991   1.688   5.016 -0.7576 -0.0045  0.0600
   54CHL1  H23A 5162   5.031   1.780   5.063  0.5745  1.7545 -4.0354
   54CHL1  H23B 5163   4.880   1.684   5.015 -0.7948 -0.7085  2.4406
   54CHL1   C24 5164   5.033   1.577   5.112  0.4396 -0.1260  0.6635
   54CHL1  H24A 5165   5.000   1.494   5.046  1.0175 -0.3028  0.5919
   54CHL1  H24B 5166   5.142   1.579   5.132  0.5960  1.1417 -0.1542
   54CHL1   C25 5167   4.944   1.565   5.244  0.4406  0.1833  0.2519
   54CHL1   H25 5168   4.973   1.640   5.322  0.1928 -1.6822  2.2463
   54CHL1   C26 5169   4.793   1.569   5.235 -0.6575 -0.6782  0.1029
   54CHL1  H26A 5170   4.758   1.479   5.181 -0.7903  0.8459 -2.4841
   54CHL1  H26B 5171   4.750   1.579   5.337 -1.2846  2.0650 -0.3311
   54CHL1  H26C 5172   4.751   1.662   5.189  1.1493 -1.4648 -3.4944
   54CHL1   C27 5173   4.984   1.435   5.320 -0.2907  0.0170 -0.1687
   54CHL1  H27A 5174   4.932   1.436   5.419  0.7238 -0.1857  0.3847
   54CHL1  H27B 5175   4.938   1.341   5.281 -0.9297 -0.3378  1.3403
   54CHL1  H27C 5176   5.092   1.437   5.344  0.0210  0.4748 -1.5664
   55CHL1    C3 5177   1.334   3.281   3.489 -0.2049  0.4454 -0.2726
   55CHL1    H3 5178   1.322   3.173   3.511  0.0376  0.3172 -0.7570
   55CHL1    O3 5179   1.305   3.291   3.353  0.6373 -0.2230 -0.5743
   55CHL1   H3' 5180   1.385   3.263   3.307  1.6854  1.5353  0.0465
   55CHL1    C4 5181   1.228   3.364   3.561 -0.8583 -1.1541 -0.5029
   55CHL1   H4A 5182   1.236   3.467   3.520 -0.7864  0.3626  2.9652
   55CHL1   H4B 5183   1.129   3.321   3.538 -2.2951  1.2537  0.7460
   55CHL1    C5 5184   1.261   3.365   3.716  0.5163 -0.6325  0.1931
   55CHL1    C6 5185   1.176   3.320   3.809  0.1127 -0.6231 -0.8227
   55CHL1    H6 5186   1.075   3.288   3.782 -0.4869  0.3190  0.2209
   55CHL1    C7 5187   1.209   3.339   3.958 -0.2255  0.3527  0.0344
   55CHL1   H7A 5188   1.123   3.387   4.009 -1.9136 -1.2175 -1.1697
   55CHL1   H7B 5189   1.227   3.239   4.004  0.6051 -0.8093 -2.5987
   55CHL1    C8 5190   1.328   3.437   3.986 -0.2419 -0.3943 -0.3252
   55CHL1    H8 5191   1.290   3.541   3.973 -1.2037 -0.1518  3.4183
   55CHL1   C14 5192   1.373   3.421   4.127  0.3049  0.0452 -1.2932
   55CHL1   H14 5193   1.410   3.316   4.129 -1.2250 -0.5659  2.6179
   55CHL1   C15 5194   1.266   3.435   4.236  0.9664 -0.6376 -0.9131
   55CHL1  H15A 5195   1.194   3.515   4.208 -0.1817 -1.6455 -0.9163
   55CHL1  H15B 5196   1.207   3.346   4.264  0.1762  0.6217  1.7919
   55CHL1   C16 5197   1.350   3.479   4.363 -0.1711 -0.0118  0.5262
   55CHL1  H16A 5198   1.341   3.584   4.400  0.2747 -0.3556  1.6396
   55CHL1  H16B 5199   1.323   3.415   4.449 -0.7486  1.0168  1.1328
   55CHL1   C17 5200   1.502   3.474   4.322  0.4216  0.1208 -1.0082
   55CHL1   H17 5201   1.534   3.367   4.319  1.5117  0.4475 -1.3485
   55CHL1   C13 5202   1.493   3.505   4.170 -0.2601  0.1057 -0.1822
   55CHL1   C18 5203   1.470   3.650   4.144 -0.0425 -0.8452  0.3598
   55CHL1  H18A 5204   1.374   3.676   4.194  0.4265 -0.5258  1.0994
   55CHL1  H18B 5205   1.559   3.710   4.170  1.2479 -2.3809 -0.3305
   55CHL1  H18C 5206   1.442   3.666   4.037 -0.6199 -4.2239 -0.1247
   55CHL1   C12 5207   1.615   3.462   4.090  0.4110  0.1428 -0.1966
   55CHL1  H12A 5208   1.697   3.525   4.130  0.7431  0.4245 -1.3070
   55CHL1  H12B 5209   1.636   3.355   4.113 -1.6110 -0.6691 -1.7607
   55CHL1   C11 5210   1.582   3.475   3.942  0.0306  0.4022  0.7429
   55CHL1  H11A 5211   1.577   3.584   3.923 -1.6496  0.4224  1.1424
   55CHL1  H11B 5212   1.665   3.428   3.885 -2.6906 -3.1135 -0.7684
   55CHL1    C9 5213   1.448   3.405   3.894  0.0651 -0.4924  0.8509
   55CHL1    H9 5214   1.461   3.295   3.906  1.1748 -0.4022  0.5937
   55CHL1   C10 5215   1.403   3.411   3.742 -0.2178 -0.0878  0.0054
   55CHL1   C19 5216   1.418   3.559   3.702  0.4322 -0.1982  0.4204
   55CHL1  H19A 5217   1.510   3.604   3.745 -0.1580  0.5960  0.8881
   55CHL1  H19B 5218   1.416   3.572   3.591 -0.0728  0.3235  0.4868
   55CHL1  H19C 5219   1.335   3.620   3.745 -1.7456 -1.6007 -1.5240
   55CHL1    C1 5220   1.513   3.340   3.657  0.1006  0.3988  1.0099
   55CHL1   H1A 5221   1.613   3.388   3.661  0.0777  0.3888  2.0905
   55CHL1   H1B 5222   1.524   3.238   3.701  0.4506  1.1568  2.7491
   55CHL1    C2 5223   1.472   3.323   3.501 -0.0259 -0.1434 -0.8180
   55CHL1   H2A 5224   1.542   3.244   3.466  0.3897 -0.5272  0.7830
   55CHL1   H2B 5225   1.489   3.419   3.446 -1.5293  0.2683 -0.6119
   55CHL1   C20 5226   1.595   3.553   4.413 -0.0768  0.9733 -0.1915
   55CHL1   H20 5227   1.591   3.659   4.380  3.5778  1.5624  0.7053
   55CHL1   C21 5228   1.742   3.504   4.392  0.2908  0.2344 -0.4126
   55CHL1  H21A 5229   1.791   3.538   4.298 -1.8458  1.8842 -1.0126
   55CHL1  H21B 5230   1.752   3.393   4.389  0.3805  0.2605 -2.6728
   55CHL1  H21C 5231   1.798   3.535   4.482 -0.0816  2.1582 -0.7893
   55CHL1   C22 5232   1.562   3.544   4.565 -0.1844 -0.5168  0.1790
   55CHL1  H22A 5233   1.626   3.611   4.627 -0.4775  1.7493 -1.8517
   55CHL1  H22B 5234   1.459   3.584   4.577 -0.3174 -0.4452 -1.1160
   55CHL1   C23 5235   1.562   3.404   4.625 -0.0926  0.1798 -0.0779
   55CHL1  H23A 5236   1.494   3.335   4.570 -1.1010 -1.1346  2.6235
   55CHL1  H23B 5237   1.668   3.371   4.622  0.0566  0.4293  1.5226
   55CHL1   C24 5238   1.524   3.404   4.778  0.5711 -0.4852  0.4074
   55CHL1  H24A 5239   1.605   3.444   4.843 -1.1501  1.1388  1.6531
   55CHL1  H24B 5240   1.432   3.465   4.790  0.0337 -1.0745 -0.5768
   55CHL1   C25 5241   1.496   3.256   4.829 -0.4069  0.5385 -0.6643
   55CHL1   H25 5242   1.412   3.215   4.770 -0.3915  0.6765 -0.7832
   55CHL1   C26 5243   1.617   3.157   4.813  0.2245  0.5999 -0.0641
   55CHL1  H26A 5244   1.579   3.055   4.838 -1.1254  1.4713  1.6650
   55CHL1  H26B 5245   1.645   3.136   4.708  0.8830  0.0950  0.2026
   55CHL1  H26C 5246   1.703   3.180   4.879 -0.2606  0.2057  0.7275
   55CHL1   C27 5247   1.446   3.263   4.977 -0.4123 -0.5343 -0.1992
   55CHL1  H27A 5248   1.430   3.158   5.008 -1.5978 -0.5758 -0.9095
   55CHL1  H27B 5249   1.517   3.317   5.043 -3.1647  0.3129  2.2523
   55CHL1  H27C 5250   1.346   3.309   4.987  0.1567  0.4789  1.0783
   56CHL1    C3 5251   2.894   4.531   3.733 -0.1706 -0.0922 -0.3931
   56CHL1    H3 5252   2.993   4.503   3.776  0.2487  0.0793 -1.2372
   56CHL1    O3 5253   2.883   4.509   3.589 -0.7796 -0.6959 -0.1764
   56CHL1   H3' 5254   2.796   4.545   3.571 -0.8370 -0.3676  0.7296
   56CHL1    C4 5255   2.787   4.445   3.808 -0.2360  0.4776  0.9606
   56CHL1   H4A 5256   2.691   4.469   3.758  0.1918 -1.6028 -0.9910
   56CHL1   H4B 5257   2.808   4.339   3.785  1.7994  1.5239 -2.8596
   56CHL1    C5 5258   2.783   4.468   3.951  0.0135  0.3934 -0.3333
   56CHL1    C6 5259   2.803   4.369   4.032 -0.3837  0.7120  0.1524
   56CHL1    H6 5260   2.821   4.268   3.992  1.9524  1.3444 -0.5416
   56CHL1    C7 5261   2.789   4.384   4.181  0.2815 -0.0109  0.1758
   56CHL1   H7A 5262   2.730   4.298   4.219  0.3482 -0.3825 -0.5344
   56CHL1   H7B 5263   2.894   4.363   4.212  0.5929  0.6399 -0.4039
   56CHL1    C8 5264   2.734   4.521   4.227 -0.1155 -0.0521 -0.5617
   56CHL1    H8 5265   2.624   4.515   4.225 -0.1258 -1.7409  1.5885
   56CHL1   C14 5266   2.772   4.537   4.370 -0.9243 -0.2103  0.2381
   56CHL1   H14 5267   2.882   4.540   4.382 -0.8590 -0.2961 -0.3195
   56CHL1   C15 5268   2.721   4.432   4.471  0.1112  0.5932  0.4312
   56CHL1  H15A 5269   2.612   4.419   4.453 -0.3852  2.1326  2.0663
   56CHL1  H15B 5270   2.776   4.336   4.466 -2.5622 -1.0574  0.9740
   56CHL1   C16 5271   2.722   4.503   4.603 -0.2530 -0.1500  0.0992
   56CHL1  H16A 5272   2.628   4.483   4.659  0.7381 -0.8486  1.5542
   56CHL1  H16B 5273   2.797   4.451   4.666 -2.9750 -2.2236  1.8626
   56CHL1   C17 5274   2.770   4.651   4.576  0.2845  0.0959 -0.3824
   56CHL1   H17 5275   2.880   4.642   4.563  0.2187 -2.0375  0.2082
   56CHL1   C13 5276   2.729   4.679   4.425 -0.4633  0.1108 -0.3549
   56CHL1   C18 5277   2.576   4.695   4.428  0.3879  0.2305 -0.0151
   56CHL1  H18A 5278   2.540   4.776   4.494  0.7155 -0.2867  0.8221
   56CHL1  H18B 5279   2.551   4.715   4.322  3.2781  0.1792 -0.8137
   56CHL1  H18C 5280   2.523   4.603   4.459  0.5375  0.1267 -0.0618
   56CHL1   C12 5281   2.810   4.783   4.353 -0.2726 -0.1953  0.0648
   56CHL1  H12A 5282   2.800   4.887   4.392  0.3042  0.1283 -0.6170
   56CHL1  H12B 5283   2.920   4.763   4.351 -0.5716 -2.1802  1.0197
   56CHL1   C11 5284   2.780   4.775   4.205 -0.0069  0.2367 -0.3047
   56CHL1  H11A 5285   2.675   4.813   4.199 -0.1249 -0.0327  0.0341
   56CHL1  H11B 5286   2.851   4.847   4.160  1.2642 -0.9977 -0.3344
   56CHL1    C9 5287   2.802   4.630   4.146  0.2751  0.6110 -0.2492
   56CHL1    H9 5288   2.910   4.620   4.169  0.0320 -0.4022  0.5408
   56CHL1   C10 5289   2.765   4.616   3.997 -0.4852  0.7356 -0.1496
   56CHL1   C19 5290   2.621   4.661   3.973  0.1200 -0.1242 -0.2788
   56CHL1  H19A 5291   2.598   4.677   3.866 -2.6431 -1.4149  0.0377
   56CHL1  H19B 5292   2.561   4.578   4.015 -0.0996  1.0072  1.7817
   56CHL1  H19C 5293   2.596   4.757   4.023  0.8984  0.9177 -1.8188
   56CHL1    C1 5294   2.861   4.711   3.919 -0.0077 -1.0731  0.2266
   56CHL1   H1A 5295   2.834   4.817   3.939 -2.2785 -1.5329 -0.0713
   56CHL1   H1B 5296   2.968   4.722   3.948  0.2390  3.4347 -1.5987
   56CHL1    C2 5297   2.864   4.683   3.762  0.0505 -0.2365  0.2584
   56CHL1   H2A 5298   2.950   4.734   3.712 -1.4493  0.2121 -2.0135
   56CHL1   H2B 5299   2.772   4.709   3.706  0.7448  2.7548  0.3220
   56CHL1   C20 5300   2.743   4.752   4.683  0.4989 -0.5590  0.3171
   56CHL1   H20 5301   2.754   4.851   4.633  0.7199 -0.5961  0.2904
   56CHL1   C21 5302   2.854   4.735   4.785  0.9273  0.3946  0.0455
   56CHL1  H21A 5303   2.837   4.636   4.832  1.2829 -0.6954 -2.0173
   56CHL1  H21B 5304   2.857   4.818   4.860 -2.0352  1.6471 -1.0493
   56CHL1  H21C 5305   2.959   4.728   4.750  1.7074  0.9605  2.0927
   56CHL1   C22 5306   2.601   4.748   4.750 -1.0258 -0.5701  0.8207
   56CHL1  H22A 5307   2.525   4.718   4.675  0.5308  0.3887 -1.2410
   56CHL1  H22B 5308   2.607   4.655   4.811  0.6215 -0.9258  0.1864
   56CHL1   C23 5309   2.558   4.874   4.829  0.0650 -0.0468  0.1644
   56CHL1  H23A 5310   2.624   4.880   4.918  0.0939 -0.2553  0.1584
   56CHL1  H23B 5311   2.566   4.971   4.776 -1.8192  0.4694  0.7273
   56CHL1   C24 5312   2.408   4.862   4.867 -0.1974 -0.5009 -0.4549
   56CHL1  H24A 5313   2.358   4.875   4.769 -0.3555  0.2311 -0.2784
   56CHL1  H24B 5314   2.387   4.758   4.902 -1.8539  0.2165  0.8308
   56CHL1   C25 5315   2.352   4.955   4.981  0.1537 -0.1686 -0.1450
   56CHL1   H25 5316   2.246   4.928   5.002  0.4806 -1.0570  0.4084
   56CHL1   C26 5317   2.429   4.946   5.110  0.2747  0.7228  0.1218
   56CHL1  H26A 5318   2.405   4.844   5.146 -1.8430  0.2487 -2.3096
   56CHL1  H26B 5319   2.538   4.967   5.105  0.2780  0.8840  0.7672
   56CHL1  H26C 5320   2.381   5.015   5.182 -1.4599 -1.8136  1.5210
   56CHL1   C27 5321   2.357   5.103   4.942 -0.0208  0.0499 -0.3514
   56CHL1  H27A 5322   2.325   5.118   4.837  2.6343 -0.3346 -1.3080
   56CHL1  H27B 5323   2.296   5.163   5.012 -0.3084 -1.2619  0.5617
   56CHL1  H27C 5324   2.460   5.142   4.961  0.0262  0.1543 -0.8206
   57CHL1    C3 5325   1.143   2.895   3.486 -0.4129 -0.3891  0.2838
   57CHL1    H3 5326   1.194   2.993   3.473 -1.3606  0.2666  1.2405
   57CHL1    O3 5327   1.101   2.854   3.357 -0.7874  0.5025  0.0453
   57CHL1   H3' 5328   1.041   2.781   3.368  1.3274 -1.6996 -1.8076
   57CHL1    C4 5329   1.256   2.801   3.535 -0.4880 -0.1468 -0.0714
   57CHL1   H4A 5330   1.224   2.695   3.538 -1.5667 -0.0312 -3.3063
   57CHL1   H4B 5331   1.329   2.818   3.453  0.2435  2.2712  0.9782
   57CHL1    C5 5332   1.307   2.854   3.667 -0.0001 -0.3549  0.2829
   57CHL1    C6 5333   1.425   2.902   3.689 -0.0453 -0.0944 -0.6451
   57CHL1    H6 5334   1.498   2.890   3.608  1.1237  1.3144  0.1624
   57CHL1    C7 5335   1.477   2.931   3.828  0.2335 -0.1655 -0.2302
   57CHL1   H7A 5336   1.577   2.890   3.853  1.8620  1.8911 -2.7865
   57CHL1   H7B 5337   1.482   3.041   3.832  1.2332 -0.1610 -1.0806
   57CHL1    C8 5338   1.384   2.893   3.946  0.2326 -0.6399 -0.1250
   57CHL1    H8 5339   1.384   2.782   3.959 -1.5827 -0.6551 -0.0213
   57CHL1   C14 5340   1.426   2.950   4.080 -0.2628  0.7550 -0.1307
   57CHL1   H14 5341   1.421   3.059   4.060 -0.3072  0.6602 -0.6583
   57CHL1   C15 5342   1.567   2.934   4.135 -0.2383  0.1759 -0.0942
   57CHL1  H15A 5343   1.592   2.826   4.125  2.6871  0.7353  0.2220
   57CHL1  H15B 5344   1.654   2.984   4.086  2.1478 -4.1324 -0.7775
   57CHL1   C16 5345   1.568   2.966   4.286  0.0883 -0.3110 -0.0469
   57CHL1  H16A 5346   1.622   2.890   4.347  1.0688  0.4680  0.0925
   57CHL1  H16B 5347   1.611   3.068   4.300 -1.2764  0.2865 -0.0173
   57CHL1   C17 5348   1.420   2.976   4.311  0.6159 -0.3067 -0.2498
   57CHL1   H17 5349   1.392   3.082   4.294  0.2483 -0.3825 -0.1312
   57CHL1   C13 5350   1.339   2.904   4.198 -0.4747  0.0792 -0.1669
   57CHL1   C18 5351   1.353   2.752   4.222 -0.4080  0.4339 -0.2376
   57CHL1  H18A 5352   1.460   2.726   4.236 -0.7136  0.1151  1.6847
   57CHL1  H18B 5353   1.300   2.717   4.313  0.8999 -5.3723 -1.3682
   57CHL1  H18C 5354   1.317   2.688   4.139 -0.5703  0.6808 -0.3623
   57CHL1   C12 5355   1.196   2.952   4.160 -0.1256 -0.3142  0.2533
   57CHL1  H12A 5356   1.128   2.927   4.244 -0.1965 -0.4104  0.1671
   57CHL1  H12B 5357   1.204   3.062   4.145  6.0349 -0.3856  0.2382
   57CHL1   C11 5358   1.142   2.899   4.032 -0.1774 -0.0577  0.1020
   57CHL1  H11A 5359   1.138   2.790   4.053  2.0004 -0.7341 -2.3160
   57CHL1  H11B 5360   1.039   2.937   4.015 -0.3428 -1.1721 -1.7927
   57CHL1    C9 5361   1.236   2.927   3.912 -0.3752  0.2473 -0.1263
   57CHL1    H9 5362   1.238   3.034   3.883  1.1569 -0.4849 -3.1271
   57CHL1   C10 5363   1.193   2.854   3.779  0.3773  0.3099  0.3452
   57CHL1   C19 5364   1.150   2.710   3.809  0.1558 -0.2766  0.6775
   57CHL1  H19A 5365   1.231   2.655   3.861  1.5880  0.7521 -0.3918
   57CHL1  H19B 5366   1.058   2.696   3.869 -1.3187 -1.5413 -1.7147
   57CHL1  H19C 5367   1.120   2.653   3.719  0.7537 -2.2635  1.6769
   57CHL1    C1 5368   1.067   2.931   3.722  0.3141  0.0977 -0.0281
   57CHL1   H1A 5369   0.983   2.915   3.794  0.2319 -0.0820 -0.1635
   57CHL1   H1B 5370   1.092   3.039   3.719  2.0515 -0.2805 -0.4178
   57CHL1    C2 5371   1.025   2.892   3.577  0.4259  0.2403 -0.1656
   57CHL1   H2A 5372   0.950   2.969   3.549 -0.1242  0.3690  1.5639
   57CHL1   H2B 5373   0.984   2.789   3.590  1.8126 -0.2532  0.5711
   57CHL1   C20 5374   1.368   2.959   4.459 -0.8222 -0.3108 -0.0564
   57CHL1   H20 5375   1.264   2.921   4.469 -1.2000  0.5109 -0.7951
   57CHL1   C21 5376   1.363   3.102   4.514  0.7861 -0.4902 -0.2185
   57CHL1  H21A 5377   1.470   3.128   4.507  0.4022  0.8718 -1.6790
   57CHL1  H21B 5378   1.322   3.104   4.617  0.8480 -1.1888 -0.1751
   57CHL1  H21C 5379   1.304   3.180   4.461  0.5765  0.8006  1.8290
   57CHL1   C22 5380   1.457   2.874   4.550 -0.8495 -0.4977 -0.9188
   57CHL1  H22A 5381   1.488   2.781   4.499  0.0156 -0.1315 -1.0912
   57CHL1  H22B 5382   1.553   2.930   4.561 -0.5988 -0.9852 -0.6237
   57CHL1   C23 5383   1.390   2.844   4.689  0.7362  0.5833  1.1579
   57CHL1  H23A 5384   1.374   2.936   4.749  0.4249  2.4576 -1.6047
   57CHL1  H23B 5385   1.286   2.813   4.666 -0.0726  3.1030  1.1176
   57CHL1   C24 5386   1.456   2.729   4.770 -0.4731  0.0927  0.3292
   57CHL1  H24A 5387   1.434   2.635   4.714 -2.5539 -0.4725  1.9504
   57CHL1  H24B 5388   1.566   2.747   4.774 -0.8500  2.4330  2.4103
   57CHL1   C25 5389   1.422   2.710   4.919 -0.2476  0.2040 -0.3055
   57CHL1   H25 5390   1.314   2.687   4.915 -0.9007  3.0825 -2.0291
   57CHL1   C26 5391   1.507   2.590   4.968 -0.1180  0.5875 -0.3833
   57CHL1  H26A 5392   1.616   2.603   4.952 -0.1784 -1.5012 -3.2197
   57CHL1  H26B 5393   1.491   2.578   5.077  0.9800 -0.1674 -0.2910
   57CHL1  H26C 5394   1.478   2.496   4.917 -0.8861  1.0110 -0.7541
   57CHL1   C27 5395   1.453   2.837   4.995 -0.8210 -0.3329  0.1969
   57CHL1  H27A 5396   1.472   2.818   5.103 -0.5362  0.7923  0.3626
   57CHL1  H27B 5397   1.536   2.895   4.950  0.5615 -2.3701 -0.0231
   57CHL1  H27C 5398   1.362   2.900   4.989 -1.3604 -1.2264 -1.8864
   58CHL1    C3 5399   1.568   4.755   3.447 -0.3551  0.0772  0.7476
   58CHL1    H3 5400   1.495   4.838   3.451 -1.0545 -0.2982 -2.0359
   58CHL1    O3 5401   1.617   4.761   3.310 -0.1734  0.7074  0.0295
   58CHL1   H3' 5402   1.672   4.683   3.298 -2.9960 -1.3364 -0.8197
   58CHL1    C4 5403   1.685   4.783   3.545  0.4444  0.0880 -0.6553
   58CHL1   H4A 5404   1.765   4.721   3.499 -0.2250  0.9815 -3.1754
   58CHL1   H4B 5405   1.716   4.889   3.537 -0.2726  0.2327 -1.7203
   58CHL1    C5 5406   1.649   4.746   3.687 -0.4333 -0.0735 -1.0833
   58CHL1    C6 5407   1.677   4.835   3.789  0.5769 -0.1852 -0.6300
   58CHL1    H6 5408   1.717   4.932   3.755  0.9940 -0.8005 -1.9744
   58CHL1    C7 5409   1.666   4.804   3.934  0.0141 -0.0763 -0.5293
   58CHL1   H7A 5410   1.765   4.824   3.981  0.2958  0.9024 -1.5029
   58CHL1   H7B 5411   1.598   4.874   3.986  0.3161  0.1864 -0.4795
   58CHL1    C8 5412   1.626   4.658   3.960  0.2476  0.2014  0.2306
   58CHL1    H8 5413   1.708   4.584   3.944  0.8719  0.4281  2.1387
   58CHL1   C14 5414   1.577   4.637   4.105 -1.1046 -0.3355  0.1707
   58CHL1   H14 5415   1.491   4.707   4.113 -2.1733 -1.4357 -1.2282
   58CHL1   C15 5416   1.681   4.680   4.202  0.2668 -0.4365 -0.6194
   58CHL1  H15A 5417   1.778   4.628   4.184  0.9368  0.9005 -0.9692
   58CHL1  H15B 5418   1.690   4.790   4.212  1.4015 -0.7291  3.7984
   58CHL1   C16 5419   1.632   4.628   4.338  0.2556  0.1051 -0.2699
   58CHL1  H16A 5420   1.705   4.579   4.405 -1.7992  0.8292  2.6821
   58CHL1  H16B 5421   1.589   4.710   4.401 -2.6057 -1.1891 -0.3825
   58CHL1   C17 5422   1.514   4.530   4.300 -0.9330  0.3353 -0.0049
   58CHL1   H17 5423   1.417   4.583   4.309 -0.9418  0.3085  0.0650
   58CHL1   C13 5424   1.523   4.504   4.145  1.1241  0.1369 -1.2100
   58CHL1   C18 5425   1.615   4.392   4.119 -0.1395 -0.0067  0.0479
   58CHL1  H18A 5426   1.648   4.398   4.013 -0.8794  1.7489 -0.1295
   58CHL1  H18B 5427   1.711   4.410   4.172  0.6131 -0.0468 -1.2557
   58CHL1  H18C 5428   1.575   4.290   4.139  0.3947 -0.6499 -1.9164
   58CHL1   C12 5429   1.399   4.487   4.056  0.6501 -0.2526  0.8411
   58CHL1  H12A 5430   1.355   4.388   4.083 -2.3543  0.0929 -2.1616
   58CHL1  H12B 5431   1.318   4.558   4.081  0.4240  0.0620 -0.7201
   58CHL1   C11 5432   1.430   4.489   3.905 -0.4459 -0.1202  0.5416
   58CHL1  H11A 5433   1.489   4.398   3.880  0.6080  0.6734  0.0980
   58CHL1  H11B 5434   1.340   4.481   3.840  0.8339 -2.1225 -1.1038
   58CHL1    C9 5435   1.515   4.619   3.864 -0.6280  0.4653  0.1292
   58CHL1    H9 5436   1.440   4.698   3.881 -1.3874  0.0144 -0.9638
   58CHL1   C10 5437   1.567   4.620   3.719 -0.0374  0.2503 -0.5025
   58CHL1   C19 5438   1.651   4.488   3.693 -0.2234  0.3554 -0.1532
   58CHL1  H19A 5439   1.698   4.474   3.593 -0.6469 -1.8330 -0.0981
   58CHL1  H19B 5440   1.724   4.470   3.774  1.4628  0.2652 -1.6262
   58CHL1  H19C 5441   1.574   4.408   3.698 -0.9904  1.1106  0.4054
   58CHL1    C1 5442   1.450   4.622   3.616 -0.1853 -0.3927 -0.4818
   58CHL1   H1A 5443   1.379   4.538   3.626  1.4720 -1.5387  3.5019
   58CHL1   H1B 5444   1.392   4.717   3.616  0.4636  0.0505 -2.0410
   58CHL1    C2 5445   1.504   4.618   3.472  0.3788  0.5305  0.3053
   58CHL1   H2A 5446   1.422   4.618   3.397 -0.2845 -0.8266  0.9968
   58CHL1   H2B 5447   1.571   4.533   3.446  1.1829  2.0863 -3.4657
   58CHL1   C20 5448   1.503   4.411   4.395 -0.0317  0.3014  0.1998
   58CHL1   H20 5449   1.584   4.338   4.377 -1.3223 -0.5897 -2.6185
   58CHL1   C21 5450   1.378   4.328   4.364 -0.4369 -0.5014 -0.5847
   58CHL1  H21A 5451   1.340   4.283   4.458 -1.1297 -2.1939 -1.6358
   58CHL1  H21B 5452   1.399   4.249   4.289  1.1453 -0.2757 -0.4199
   58CHL1  H21C 5453   1.293   4.393   4.333  0.7340  0.0275 -2.9513
   58CHL1   C22 5454   1.500   4.448   4.546  0.2764 -0.9471 -0.0488
   58CHL1  H22A 5455   1.517   4.364   4.617  2.7999 -0.5122 -0.0656
   58CHL1  H22B 5456   1.593   4.506   4.561 -0.6326  0.8011 -0.9346
   58CHL1   C23 5457   1.379   4.530   4.588  0.0547 -0.0981  0.2960
   58CHL1  H23A 5458   1.380   4.626   4.532  1.0028  0.7850  1.7559
   58CHL1  H23B 5459   1.291   4.478   4.546  0.1162 -1.5762  1.8669
   58CHL1   C24 5460   1.362   4.558   4.739  0.5311  0.0451 -0.3201
   58CHL1  H24A 5461   1.252   4.574   4.748  0.2610 -0.8111 -1.9237
   58CHL1  H24B 5462   1.383   4.465   4.796  0.0937  0.1450  0.0107
   58CHL1   C25 5463   1.455   4.665   4.789 -0.2198 -0.3858  0.3353
   58CHL1   H25 5464   1.557   4.628   4.764  1.2933  2.3261  1.9885
   58CHL1   C26 5465   1.425   4.804   4.721  0.2022 -0.7906  0.1688
   58CHL1  H26A 5466   1.497   4.883   4.752 -0.6596  0.0415  0.0692
   58CHL1  H26B 5467   1.441   4.791   4.612  0.7089 -0.4939  0.2050
   58CHL1  H26C 5468   1.331   4.850   4.756  1.4871 -0.1711  3.1463
   58CHL1   C27 5469   1.449   4.661   4.943 -0.1244  0.1736 -0.2103
   58CHL1  H27A 5470   1.479   4.560   4.977 -2.1206 -0.2734  0.3381
   58CHL1  H27B 5471   1.515   4.736   4.991 -0.0507  0.7191 -1.1267
   58CHL1  H27C 5472   1.344   4.682   4.974  0.0188  0.8869 -0.2099
   59CHL1    C3 5473   0.164   3.012   3.615 -0.0157  0.4883 -1.1212
   59CHL1    H3 5474   0.184   2.908   3.651 -1.1137  0.7743  0.4022
   59CHL1    O3 5475   0.117   3.004   3.482 -0.0834  0.2454 -0.0218
   59CHL1   H3' 5476   0.066   2.923   3.478 -0.8792  0.7822 -1.6290
   59CHL1    C4 5477   0.051   3.069   3.707  0.2367  0.2216 -0.4175
   59CHL1   H4A 5478   0.009   3.162   3.662  1.0942  0.7330 -0.1838
   59CHL1   H4B 5479  -0.033   2.997   3.711  0.0338  0.4902  0.5738
   59CHL1    C5 5480   0.093   3.105   3.847 -0.5154  0.7442 -0.3876
   59CHL1    C6 5481   0.021   3.053   3.952 -0.3988 -0.1267 -0.5431
   59CHL1    H6 5482  -0.069   2.992   3.936 -0.3208 -0.7209  1.1122
   59CHL1    C7 5483   0.045   3.094   4.099  0.0116 -0.1499  0.2146
   59CHL1   H7A 5484  -0.055   3.116   4.141 -0.3315 -2.9454  1.0212
   59CHL1   H7B 5485   0.102   3.012   4.147  0.3831 -1.4023 -2.2002
   59CHL1    C8 5486   0.131   3.222   4.103  0.3983 -0.3373  0.1099
   59CHL1    H8 5487   0.070   3.308   4.068  0.2380  0.2076  1.6379
   59CHL1   C14 5488   0.179   3.247   4.244 -0.5468  0.5164  0.2140
   59CHL1   H14 5489   0.245   3.161   4.270  0.0912  1.5756  2.4066
   59CHL1   C15 5490   0.074   3.254   4.351  0.0837 -0.7643  0.1113
   59CHL1  H15A 5491  -0.007   3.325   4.324  1.6465  1.7048  1.5155
   59CHL1  H15B 5492   0.024   3.160   4.383 -0.9315 -0.5330 -0.7622
   59CHL1   C16 5493   0.146   3.317   4.468  0.4885 -0.2558 -0.5793
   59CHL1  H16A 5494   0.075   3.394   4.505  1.1123 -0.3930  0.9631
   59CHL1  H16B 5495   0.160   3.243   4.549  0.2516 -0.0560 -0.3543
   59CHL1   C17 5496   0.285   3.360   4.414  0.3607  0.3134 -0.1344
   59CHL1   H17 5497   0.354   3.275   4.429  0.2919  0.3217  0.2505
   59CHL1   C13 5498   0.267   3.372   4.258 -0.1178 -0.7531  0.2505
   59CHL1   C18 5499   0.181   3.502   4.226 -0.3580 -0.1822 -0.2520
   59CHL1  H18A 5500   0.113   3.521   4.312  0.4159 -0.7154  0.4961
   59CHL1  H18B 5501   0.242   3.594   4.220  0.5227 -0.4867  2.5292
   59CHL1  H18C 5502   0.127   3.495   4.129  0.4338 -2.5740 -0.5938
   59CHL1   C12 5503   0.393   3.348   4.167  0.2026  0.9187 -0.1393
   59CHL1  H12A 5504   0.473   3.422   4.188  0.2697  0.9723 -0.5762
   59CHL1  H12B 5505   0.437   3.249   4.194 -2.8597 -0.8010 -0.9743
   59CHL1   C11 5506   0.355   3.334   4.021 -0.4638  0.7987  0.4944
   59CHL1  H11A 5507   0.321   3.435   3.989 -2.2418  0.3782  0.9638
   59CHL1  H11B 5508   0.451   3.309   3.972 -0.2974 -0.2003  1.3072
   59CHL1    C9 5509   0.250   3.223   4.004 -0.7139  0.1976  0.0118
   59CHL1    H9 5510   0.308   3.131   4.025 -0.3573  0.3620 -0.2427
   59CHL1   C10 5511   0.206   3.198   3.855 -1.2671  0.0359 -0.2198
   59CHL1   C19 5512   0.189   3.340   3.797 -0.8602 -0.0872 -0.2306
   59CHL1  H19A 5513   0.290   3.384   3.779  0.1684 -1.3205  2.0381
   59CHL1  H19B 5514   0.133   3.345   3.702  3.2500  0.6196 -2.8824
   59CHL1  H19C 5515   0.140   3.406   3.872 -1.5624 -1.4840  0.5791
   59CHL1    C1 5516   0.320   3.132   3.777  0.7651 -0.3730 -0.3353
   59CHL1   H1A 5517   0.415   3.190   3.773  1.4082 -1.4103 -0.3920
   59CHL1   H1B 5518   0.348   3.033   3.819  0.6558 -0.7523 -1.1328
   59CHL1    C2 5519   0.288   3.103   3.631  0.4432  0.0795  0.4119
   59CHL1   H2A 5520   0.382   3.065   3.587  0.5083  0.2339  0.4201
   59CHL1   H2B 5521   0.267   3.198   3.578  0.5945  0.6604  1.3846
   59CHL1   C20 5522   0.339   3.480   4.491  0.3369 -0.4102  0.7781
   59CHL1   H20 5523   0.266   3.561   4.469 -1.0264 -1.4821  1.1943
   59CHL1   C21 5524   0.472   3.527   4.433 -0.7835 -0.5857  0.1980
   59CHL1  H21A 5525   0.546   3.444   4.436  0.2830  0.2703 -0.8513
   59CHL1  H21B 5526   0.510   3.614   4.491  1.5257  1.1387 -3.4736
   59CHL1  H21C 5527   0.462   3.560   4.327  0.8751  1.8799  0.7047
   59CHL1   C22 5528   0.338   3.469   4.646 -0.0068  0.9290  0.0414
   59CHL1  H22A 5529   0.347   3.572   4.687 -2.2404  0.3038  2.3985
   59CHL1  H22B 5530   0.242   3.427   4.682  0.9669 -0.8299  0.6890
   59CHL1   C23 5531   0.448   3.376   4.699 -0.4419  0.4635  0.2261
   59CHL1  H23A 5532   0.430   3.268   4.682 -2.2756  0.6824  0.4876
   59CHL1  H23B 5533   0.543   3.401   4.647 -1.0647  0.0878 -1.1260
   59CHL1   C24 5534   0.475   3.379   4.852 -0.4450  0.7944 -0.6477
   59CHL1  H24A 5535   0.528   3.475   4.870  1.2591 -0.4278  1.2428
   59CHL1  H24B 5536   0.371   3.378   4.893 -0.5160 -0.2169 -0.8190
   59CHL1   C25 5537   0.569   3.281   4.915  0.6105 -0.6386  0.2911
   59CHL1   H25 5538   0.524   3.182   4.891 -0.8271 -0.3434  1.6014
   59CHL1   C26 5539   0.715   3.300   4.867  1.0159 -0.3439 -0.0790
   59CHL1  H26A 5540   0.788   3.242   4.927  3.3177  2.9081  0.5301
   59CHL1  H26B 5541   0.724   3.284   4.758 -2.1073  0.5911 -0.5745
   59CHL1  H26C 5542   0.741   3.408   4.878  2.4686 -0.7247  0.4165
   59CHL1   C27 5543   0.571   3.305   5.066  0.3067 -0.3623  0.3482
   59CHL1  H27A 5544   0.474   3.277   5.112 -0.3661 -1.6029 -1.6849
   59CHL1  H27B 5545   0.652   3.244   5.113  0.5991  0.3925  0.8421
   59CHL1  H27C 5546   0.589   3.412   5.090 -0.5120 -0.2284  0.4105
   60CHL1    C3 5547   1.958   4.028   6.550  0.2705 -0.1781 -0.6929
   60CHL1    H3 5548   2.057   3.978   6.545  0.0732 -0.5387 -1.0251
   60CHL1    O3 5549   1.915   4.056   6.682 -0.6736  0.2966  0.4850
   60CHL1   H3' 5550   1.937   3.977   6.731  1.6945  1.1874  1.0080
   60CHL1    C4 5551   1.957   4.170   6.481 -0.4442  0.5178 -0.1132
   60CHL1   H4A 5552   1.857   4.216   6.496  0.3782  2.2051  0.5750
   60CHL1   H4B 5553   2.023   4.244   6.533 -1.8466  1.0799  0.9184
   60CHL1    C5 5554   1.979   4.154   6.330  0.0161  0.6835  0.3274
   60CHL1    C6 5555   2.087   4.205   6.274 -0.4563 -0.4838  0.2823
   60CHL1    H6 5556   2.159   4.262   6.334  0.1206  1.2015 -1.9181
   60CHL1    C7 5557   2.125   4.203   6.129 -0.3812  0.8765  0.3248
   60CHL1   H7A 5558   2.171   4.294   6.085 -0.6309  0.9402  0.1902
   60CHL1   H7B 5559   2.197   4.121   6.108 -1.5396 -0.1066  0.0975
   60CHL1    C8 5560   1.999   4.158   6.051  0.5849  0.2294  0.0716
   60CHL1    H8 5561   1.928   4.244   6.047  0.3103  0.1076  1.5994
   60CHL1   C14 5562   2.046   4.117   5.912 -0.2643 -1.0813 -0.5294
   60CHL1   H14 5563   2.114   4.030   5.925  0.0772 -0.7916 -0.3425
   60CHL1   C15 5564   2.137   4.208   5.825 -0.5149  0.9368 -0.2533
   60CHL1  H15A 5565   2.102   4.314   5.827  0.3574  1.2365 -0.2010
   60CHL1  H15B 5566   2.246   4.199   5.847 -0.1508  2.4875 -1.2270
   60CHL1   C16 5567   2.114   4.165   5.681  0.3067  0.3137  0.5699
   60CHL1  H16A 5568   2.080   4.259   5.633  4.1504  3.3942  3.2881
   60CHL1  H16B 5569   2.203   4.132   5.623  0.9092  3.5518 -0.5650
   60CHL1   C17 5570   2.001   4.065   5.666  0.7509  0.7713 -0.0204
   60CHL1   H17 5571   2.050   3.966   5.673 -0.1007  0.3810  0.7040
   60CHL1   C13 5572   1.932   4.081   5.811 -0.5930  0.5718  0.7792
   60CHL1   C18 5573   1.828   4.194   5.796 -0.6304  0.6358 -0.6690
   60CHL1  H18A 5574   1.752   4.158   5.723  0.3273  0.1563 -1.4469
   60CHL1  H18B 5575   1.782   4.204   5.897 -0.3258 -1.0148 -0.3524
   60CHL1  H18C 5576   1.888   4.283   5.766  0.8636  0.4095  1.4285
   60CHL1   C12 5577   1.866   3.948   5.872 -0.2829 -0.1941 -0.0436
   60CHL1  H12A 5578   1.782   3.915   5.808  0.7685 -0.1524 -1.4942
   60CHL1  H12B 5579   1.953   3.879   5.877 -0.1961 -0.0132  1.3372
   60CHL1   C11 5580   1.818   3.977   6.016 -0.0281  0.0501  0.1510
   60CHL1  H11A 5581   1.727   4.038   6.004  1.1856  1.6664 -1.3191
   60CHL1  H11B 5582   1.786   3.876   6.048 -1.9330  0.5166 -0.1905
   60CHL1    C9 5583   1.925   4.037   6.111  0.3116  0.0132 -0.5729
   60CHL1    H9 5584   2.012   3.969   6.119  1.0231  0.7919 -1.4544
   60CHL1   C10 5585   1.880   4.062   6.256 -0.1647  0.3621 -0.3308
   60CHL1   C19 5586   1.736   4.127   6.262 -0.2809  0.3503 -0.2020
   60CHL1  H19A 5587   1.658   4.060   6.221  0.1241  0.0034 -0.4052
   60CHL1  H19B 5588   1.713   4.127   6.371 -1.2600  0.5449 -0.4044
   60CHL1  H19C 5589   1.717   4.224   6.211 -1.0376  0.6559  0.6425
   60CHL1    C1 5590   1.877   3.927   6.326 -0.7157  0.4766 -0.4380
   60CHL1   H1A 5591   1.801   3.859   6.282 -0.4802  1.7672 -3.0605
   60CHL1   H1B 5592   1.978   3.879   6.323 -1.5709 -1.3896 -1.4637
   60CHL1    C2 5593   1.858   3.934   6.483 -0.4261  0.2306 -0.1709
   60CHL1   H2A 5594   1.877   3.833   6.527  0.4280  1.1659  1.7205
   60CHL1   H2B 5595   1.758   3.961   6.521 -0.4364  0.7749 -0.5782
   60CHL1   C20 5596   1.912   4.086   5.543  0.6994 -0.6062  0.5667
   60CHL1   H20 5597   1.850   4.177   5.554  0.8693 -0.5354  0.9573
   60CHL1   C21 5598   1.825   3.957   5.514  0.0697  0.4014 -0.0699
   60CHL1  H21A 5599   1.883   3.863   5.526 -3.6316 -2.1778 -0.7364
   60CHL1  H21B 5600   1.771   3.972   5.418  0.5629  0.9805 -0.2596
   60CHL1  H21C 5601   1.745   3.957   5.592 -0.1876  1.7874 -0.3081
   60CHL1   C22 5602   1.993   4.108   5.411  0.3863  0.0897  0.5064
   60CHL1  H22A 5603   1.924   4.140   5.330  3.1291  2.8475 -0.9563
   60CHL1  H22B 5604   2.060   4.196   5.426  1.7184 -0.2389 -2.6632
   60CHL1   C23 5605   2.091   3.998   5.372 -0.6914 -0.4892  0.3936
   60CHL1  H23A 5606   2.162   3.973   5.454 -0.3344  0.8965  0.5387
   60CHL1  H23B 5607   2.034   3.906   5.350 -0.1760 -1.2135  1.9443
   60CHL1   C24 5608   2.173   4.048   5.250 -0.6061  0.0296 -0.2831
   60CHL1  H24A 5609   2.098   4.095   5.182 -1.1280  0.6751  0.7100
   60CHL1  H24B 5610   2.242   4.134   5.265 -0.2120 -0.1505 -1.0161
   60CHL1   C25 5611   2.242   3.936   5.176  0.1480 -0.6904 -0.1174
   60CHL1   H25 5612   2.175   3.848   5.167 -0.2578 -0.5332  1.1476
   60CHL1   C26 5613   2.296   3.984   5.041 -0.5594 -0.2356  0.4493
   60CHL1  H26A 5614   2.374   4.063   5.045 -1.6920  1.2718 -3.2529
   60CHL1  H26B 5615   2.350   3.899   4.993  1.6292  1.0612  0.4862
   60CHL1  H26C 5616   2.219   4.014   4.968  1.7006  0.0421 -1.9585
   60CHL1   C27 5617   2.365   3.892   5.269  0.1658 -0.4285  0.1320
   60CHL1  H27A 5618   2.412   3.988   5.300  0.4337 -0.4745 -0.1256
   60CHL1  H27B 5619   2.328   3.855   5.367  1.1377 -0.2227  0.5914
   60CHL1  H27C 5620   2.440   3.825   5.221  2.8988  2.4574  0.0321
   61CHL1    C3 5621   4.266   4.055   3.667  0.4872 -0.6189 -0.7465
   61CHL1    H3 5622   4.238   3.969   3.731  1.0125 -0.2447  0.0092
   61CHL1    O3 5623   4.253   4.005   3.534 -0.4438  0.6143 -0.0537
   61CHL1   H3' 5624   4.296   4.079   3.490  0.8345  0.1782  0.4166
   61CHL1    C4 5625   4.164   4.176   3.682 -0.5579  0.9487 -0.7027
   61CHL1   H4A 5626   4.195   4.256   3.611  0.3519 -0.2446 -1.7197
   61CHL1   H4B 5627   4.069   4.129   3.647 -0.0975 -0.9104  0.4535
   61CHL1    C5 5628   4.177   4.221   3.825 -0.0452  0.4228 -1.2476
   61CHL1    C6 5629   4.069   4.218   3.899 -0.1208  0.1064 -0.5602
   61CHL1    H6 5630   3.968   4.183   3.875 -1.1594  1.7061  1.2028
   61CHL1    C7 5631   4.068   4.250   4.048 -0.0703 -0.2945 -0.4796
   61CHL1   H7A 5632   3.973   4.297   4.080  0.1760  0.8957 -1.4186
   61CHL1   H7B 5633   4.082   4.151   4.096 -0.3106  0.1459  0.5340
   61CHL1    C8 5634   4.189   4.341   4.088  0.3423  0.0754  0.8152
   61CHL1    H8 5635   4.175   4.445   4.051 -2.4592 -0.7427 -0.6951
   61CHL1   C14 5636   4.203   4.353   4.241  0.6098 -0.5830 -0.0612
   61CHL1   H14 5637   4.228   4.251   4.276  1.4574 -0.5672 -0.6156
   61CHL1   C15 5638   4.076   4.381   4.335 -0.4656 -0.1155  0.6455
   61CHL1  H15A 5639   4.019   4.461   4.282 -0.4959 -0.2280  0.5073
   61CHL1  H15B 5640   4.019   4.287   4.347 -1.7589  0.7595  1.6104
   61CHL1   C16 5641   4.134   4.440   4.466  0.4457 -0.0131  0.6697
   61CHL1  H16A 5642   4.092   4.541   4.488 -0.1576 -0.3881  1.3016
   61CHL1  H16B 5643   4.109   4.372   4.550 -1.9814  0.9406  0.8003
   61CHL1   C17 5644   4.281   4.435   4.442 -0.0576 -1.0286 -0.2540
   61CHL1   H17 5645   4.309   4.330   4.468  1.8967 -0.3677  0.5273
   61CHL1   C13 5646   4.317   4.438   4.290 -0.7164  0.3504  0.1237
   61CHL1   C18 5647   4.303   4.580   4.237  0.5178  0.2989 -0.4970
   61CHL1  H18A 5648   4.376   4.654   4.277  0.8105  0.0760 -0.6166
   61CHL1  H18B 5649   4.318   4.592   4.128  1.6716  1.0367 -0.2751
   61CHL1  H18C 5650   4.205   4.624   4.264  0.2818 -0.9696  0.9086
   61CHL1   C12 5651   4.445   4.372   4.234 -0.3246 -0.0803  0.5136
   61CHL1  H12A 5652   4.536   4.434   4.252 -1.6435  1.8563  0.7524
   61CHL1  H12B 5653   4.450   4.267   4.271  0.9454 -0.5991 -1.0036
   61CHL1   C11 5654   4.444   4.371   4.077  0.1286  0.4677  0.2370
   61CHL1  H11A 5655   4.442   4.473   4.035  1.0128  0.9572  1.3293
   61CHL1  H11B 5656   4.535   4.321   4.039 -0.6576 -0.9613  0.1544
   61CHL1    C9 5657   4.320   4.286   4.028  0.2375 -0.4523 -0.9367
   61CHL1    H9 5658   4.322   4.186   4.076  0.6197  0.6382  1.4462
   61CHL1   C10 5659   4.320   4.262   3.875 -1.1378 -0.0627  0.1967
   61CHL1   C19 5660   4.355   4.395   3.793  0.4349 -0.4535 -0.1369
   61CHL1  H19A 5661   4.286   4.477   3.822 -0.1828 -1.0454  0.0912
   61CHL1  H19B 5662   4.460   4.427   3.811  1.0013 -2.0051 -0.5666
   61CHL1  H19C 5663   4.350   4.374   3.684  2.5486  1.6028 -0.7191
   61CHL1    C1 5664   4.415   4.148   3.839 -0.2315 -0.5242  0.3646
   61CHL1   H1A 5665   4.516   4.193   3.853 -0.2916  0.6627 -2.4333
   61CHL1   H1B 5666   4.401   4.058   3.902 -0.1973 -0.0754  1.0232
   61CHL1    C2 5667   4.406   4.100   3.696 -0.6225  0.0641 -0.1139
   61CHL1   H2A 5668   4.480   4.024   3.664 -1.4005 -0.8114  0.1287
   61CHL1   H2B 5669   4.424   4.184   3.626  1.7511  0.3805  0.7890
   61CHL1   C20 5670   4.359   4.524   4.546 -0.6804 -0.2134 -0.1215
   61CHL1   H20 5671   4.316   4.626   4.552 -1.7326 -0.5588 -1.5532
   61CHL1   C21 5672   4.510   4.546   4.504 -0.0514  0.4849 -0.1202
   61CHL1  H21A 5673   4.557   4.446   4.518 -0.7892 -0.5067 -3.5704
   61CHL1  H21B 5674   4.549   4.626   4.570  0.5307 -0.4615  0.7095
   61CHL1  H21C 5675   4.520   4.579   4.398  0.8201  2.3401  0.5107
   61CHL1   C22 5676   4.376   4.459   4.696  0.4944  0.8167 -0.1501
   61CHL1  H22A 5677   4.273   4.419   4.709  0.7506  0.2027  0.0115
   61CHL1  H22B 5678   4.451   4.378   4.694  0.7839  1.0967 -0.8103
   61CHL1   C23 5679   4.412   4.565   4.800 -0.0995 -0.3787  1.1041
   61CHL1  H23A 5680   4.512   4.605   4.774 -0.5963  0.4223  0.3898
   61CHL1  H23B 5681   4.341   4.649   4.786  1.1775  0.3394 -1.9640
   61CHL1   C24 5682   4.409   4.509   4.940 -0.5797 -0.7426 -0.2168
   61CHL1  H24A 5683   4.303   4.477   4.954 -0.5290 -0.2668  1.3747
   61CHL1  H24B 5684   4.482   4.428   4.957 -0.4472 -1.0443 -2.0463
   61CHL1   C25 5685   4.443   4.618   5.048 -0.0409 -0.7231 -0.1508
   61CHL1   H25 5686   4.405   4.718   5.018  2.1155  0.2339  0.0884
   61CHL1   C26 5687   4.384   4.581   5.189  0.1239  0.4386  0.4002
   61CHL1  H26A 5688   4.441   4.646   5.258 -0.0754 -0.4506  1.4323
   61CHL1  H26B 5689   4.274   4.574   5.203  0.1527  0.1383  0.4927
   61CHL1  H26C 5690   4.420   4.482   5.223 -0.3032  0.5611  1.2281
   61CHL1   C27 5691   4.598   4.651   5.060  0.0573 -0.1814 -0.2994
   61CHL1  H27A 5692   4.637   4.691   4.964 -0.7351 -0.8644 -0.9195
   61CHL1  H27B 5693   4.622   4.735   5.129 -1.2567 -0.2075  0.2135
   61CHL1  H27C 5694   4.653   4.561   5.095 -1.1297 -0.2455  1.5474
   62CHL1    C3 5695   5.880   4.415   3.528 -0.0394 -0.9793  0.6887
   62CHL1    H3 5696   5.965   4.344   3.515  0.0224 -0.9247  0.7921
   62CHL1    O3 5697   5.828   4.464   3.406  0.2175  0.0607  0.7008
   62CHL1   H3' 5698   5.906   4.494   3.358 -0.8612  0.5955 -0.8201
   62CHL1    C4 5699   5.764   4.348   3.611 -0.5680  0.0672  0.3826
   62CHL1   H4A 5700   5.684   4.426   3.616  0.7550  1.5558 -0.4435
   62CHL1   H4B 5701   5.740   4.256   3.554  2.2887 -0.9964  0.7329
   62CHL1    C5 5702   5.815   4.313   3.746  0.7076  0.4874  0.1778
   62CHL1    C6 5703   5.824   4.188   3.790  0.4986 -0.7847 -0.1572
   62CHL1    H6 5704   5.793   4.101   3.729  0.9465 -1.3945  0.4690
   62CHL1    C7 5705   5.862   4.153   3.935 -0.7424 -0.0814 -0.8036
   62CHL1   H7A 5706   5.800   4.080   3.991 -1.5438  3.0387  2.8330
   62CHL1   H7B 5707   5.967   4.116   3.936 -0.2529  1.2379  0.1512
   62CHL1    C8 5708   5.844   4.275   4.031  0.3443  0.2411 -0.4455
   62CHL1    H8 5709   5.737   4.304   4.036  0.4466  0.6344 -0.5246
   62CHL1   C14 5710   5.884   4.235   4.170  0.4793 -0.3888  0.7672
   62CHL1   H14 5711   5.986   4.197   4.146  1.8578  3.4922 -0.2192
   62CHL1   C15 5712   5.812   4.117   4.243  0.3414  0.7001 -0.1275
   62CHL1  H15A 5713   5.704   4.139   4.231  0.7955  3.1061 -0.4671
   62CHL1  H15B 5714   5.843   4.017   4.205  0.2812  1.3498 -2.0077
   62CHL1   C16 5715   5.851   4.137   4.385  0.6271 -0.2202 -0.0632
   62CHL1  H16A 5716   5.761   4.156   4.448  0.1751  0.3016 -0.8500
   62CHL1  H16B 5717   5.908   4.054   4.431  1.9750 -0.1808 -1.5947
   62CHL1   C17 5718   5.935   4.268   4.390  0.3151 -0.8661  0.2075
   62CHL1   H17 5719   6.034   4.227   4.365  0.6309 -1.2613  1.9476
   62CHL1   C13 5720   5.893   4.356   4.269  0.3665  0.3737  0.4897
   62CHL1   C18 5721   5.757   4.421   4.298  0.1424  0.3114 -0.6317
   62CHL1  H18A 5722   5.717   4.464   4.204  0.1793 -0.5217 -1.0418
   62CHL1  H18B 5723   5.696   4.338   4.338  0.6404 -0.3830 -1.2652
   62CHL1  H18C 5724   5.767   4.500   4.376  1.4672 -1.1695  0.7791
   62CHL1   C12 5725   5.997   4.444   4.209  0.0088  0.2115  0.5376
   62CHL1  H12A 5726   6.031   4.521   4.282 -1.8592 -0.2514  1.9898
   62CHL1  H12B 5727   6.082   4.379   4.181 -1.5134 -1.0884 -1.3465
   62CHL1   C11 5728   5.950   4.503   4.079 -0.4087  0.1954  0.0771
   62CHL1  H11A 5729   5.860   4.567   4.099 -1.9501 -1.5166 -1.0189
   62CHL1  H11B 5730   6.031   4.569   4.039 -0.2949 -1.0549 -1.9129
   62CHL1    C9 5731   5.926   4.390   3.974  0.0239  0.1175 -0.5396
   62CHL1    H9 5732   6.028   4.349   3.958 -0.2682 -1.2393  0.8255
   62CHL1   C10 5733   5.870   4.428   3.832 -0.0714  0.2580 -0.4716
   62CHL1   C19 5734   5.752   4.531   3.855 -0.4018 -0.2593 -0.1027
   62CHL1  H19A 5735   5.691   4.475   3.929 -1.7554 -0.5911 -1.4255
   62CHL1  H19B 5736   5.788   4.626   3.901 -2.2282 -0.1312  1.1658
   62CHL1  H19C 5737   5.687   4.562   3.770 -1.2391  1.4440  1.0998
   62CHL1    C1 5738   5.987   4.492   3.747 -0.6004  0.0952 -0.3574
   62CHL1   H1A 5739   6.003   4.590   3.797 -1.8537  0.1451 -0.0062
   62CHL1   H1B 5740   6.088   4.446   3.752 -1.3327 -1.4956  0.6684
   62CHL1    C2 5741   5.947   4.536   3.604  0.9428 -0.1023  0.6484
   62CHL1   H2A 5742   6.038   4.566   3.549  1.0841 -1.5592  0.0509
   62CHL1   H2B 5743   5.877   4.621   3.621 -1.3332 -1.7557  0.1295
   62CHL1   C20 5744   5.952   4.336   4.523  0.0570 -0.3915 -0.3112
   62CHL1   H20 5745   5.924   4.443   4.510  0.2389 -0.0707  1.5826
   62CHL1   C21 5746   6.090   4.330   4.587  0.2537  0.1670  1.1248
   62CHL1  H21A 5747   6.101   4.231   4.636  0.1503 -1.0122 -1.1155
   62CHL1  H21B 5748   6.098   4.411   4.663  4.2866  0.3028  0.7874
   62CHL1  H21C 5749   6.177   4.330   4.517  0.3038  1.2220  1.1676
   62CHL1   C22 5750   5.847   4.289   4.628  0.7788 -0.4314 -0.2801
   62CHL1  H22A 5751   5.744   4.298   4.587 -0.0887  0.1838  1.8890
   62CHL1  H22B 5752   5.862   4.182   4.653  1.8533  0.2140  2.1154
   62CHL1   C23 5753   5.863   4.371   4.758 -0.1833  0.8636  0.5838
   62CHL1  H23A 5754   5.950   4.339   4.820 -1.3942 -1.3111  1.2641
   62CHL1  H23B 5755   5.878   4.476   4.727 -0.3653  0.9115  0.6590
   62CHL1   C24 5756   5.743   4.359   4.855 -0.4765 -0.4018 -0.7723
   62CHL1  H24A 5757   5.653   4.392   4.800 -0.4889 -0.3230 -0.7034
   62CHL1  H24B 5758   5.719   4.258   4.895  0.1250  0.0734  0.8665
   62CHL1   C25 5759   5.755   4.441   4.990  0.0485  0.0165  0.2530
   62CHL1   H25 5760   5.848   4.404   5.038  0.7975  2.9492  1.2616
   62CHL1   C26 5761   5.776   4.589   4.967  0.9873 -0.6527 -0.3207
   62CHL1  H26A 5762   5.690   4.649   4.932  1.4957  0.4891  0.3192
   62CHL1  H26B 5763   5.804   4.637   5.063 -1.7307 -1.5935  1.0373
   62CHL1  H26C 5764   5.851   4.605   4.886 -0.3958 -4.4931 -2.6142
   62CHL1   C27 5765   5.637   4.415   5.082 -0.2674  0.5426 -0.5147
   62CHL1  H27A 5766   5.540   4.456   5.046 -0.6866 -0.0544 -0.0754
   62CHL1  H27B 5767   5.630   4.308   5.110 -0.4131  0.7620  0.3142
   62CHL1  H27C 5768   5.653   4.485   5.166  2.2280  0.5922 -0.9663
   63CHL1    C3 5769   1.272   0.756   4.014  0.6312  0.0202 -0.6420
   63CHL1    H3 5770   1.319   0.661   4.048 -2.1229 -1.3031 -0.2430
   63CHL1    O3 5771   1.289   0.777   3.872  0.2608  0.0825 -0.3036
   63CHL1   H3' 5772   1.216   0.822   3.830  0.9028 -0.7041 -2.4037
   63CHL1    C4 5773   1.121   0.758   4.050  0.0717 -0.1333  0.7345
   63CHL1   H4A 5774   1.082   0.851   4.001  5.5388  2.3727  0.4019
   63CHL1   H4B 5775   1.076   0.670   4.001  1.6249 -0.1759 -0.7027
   63CHL1    C5 5776   1.108   0.764   4.203 -0.9167 -0.1614 -0.3021
   63CHL1    C6 5777   1.049   0.653   4.262  0.5212 -0.4900 -0.7928
   63CHL1    H6 5778   1.012   0.573   4.196  0.0298  0.6187 -1.8915
   63CHL1    C7 5779   1.026   0.641   4.411 -0.4669  0.0902 -0.2797
   63CHL1   H7A 5780   0.922   0.611   4.436 -0.8541  1.8568  0.3446
   63CHL1   H7B 5781   1.092   0.568   4.461 -0.6203  1.0830  1.4373
   63CHL1    C8 5782   1.057   0.766   4.497  0.5346 -0.0697 -0.6860
   63CHL1    H8 5783   0.965   0.826   4.480  0.9634  0.8170  0.0496
   63CHL1   C14 5784   1.086   0.730   4.639  0.4962  0.0145 -0.0084
   63CHL1   H14 5785   1.172   0.659   4.633 -0.1378 -0.6627 -3.2580
   63CHL1   C15 5786   0.988   0.639   4.716  0.0059 -0.0251 -0.4886
   63CHL1  H15A 5787   0.882   0.664   4.695 -0.8744 -1.8102  1.4685
   63CHL1  H15B 5788   1.009   0.537   4.678 -0.1014  0.1654 -1.0829
   63CHL1   C16 5789   1.026   0.652   4.861  0.1192 -0.6272  0.1651
   63CHL1  H16A 5790   0.940   0.697   4.915  1.4333 -0.3678  2.1397
   63CHL1  H16B 5791   1.065   0.563   4.915 -0.5424  0.1870  2.0656
   63CHL1   C17 5792   1.148   0.761   4.868 -0.2615 -0.3429  0.3911
   63CHL1   H17 5793   1.248   0.713   4.860  0.3070  0.8589  0.1457
   63CHL1   C13 5794   1.126   0.844   4.737  0.3994  0.5733 -0.4966
   63CHL1   C18 5795   1.008   0.938   4.746  0.1251 -0.3273  1.0938
   63CHL1  H18A 5796   0.981   0.983   4.648 -1.9621 -3.1048  0.2638
   63CHL1  H18B 5797   0.923   0.873   4.778 -0.4819 -0.3477 -0.4616
   63CHL1  H18C 5798   1.017   1.021   4.820  0.4969  0.9219 -0.3039
   63CHL1   C12 5799   1.249   0.915   4.671 -0.4417  0.0591 -0.6250
   63CHL1  H12A 5800   1.262   1.006   4.734  0.9817  0.0546 -0.8792
   63CHL1  H12B 5801   1.337   0.847   4.671 -0.0338  0.4727  2.0210
   63CHL1   C11 5802   1.221   0.958   4.523 -0.5711 -0.4024 -0.4244
   63CHL1  H11A 5803   1.135   1.028   4.517 -1.6340 -1.5985  0.3372
   63CHL1  H11B 5804   1.310   1.014   4.486  0.7928 -1.2387  1.4187
   63CHL1    C9 5805   1.178   0.839   4.438  0.4783 -0.2738 -0.6162
   63CHL1    H9 5806   1.266   0.771   4.445  1.4506  1.0677  0.6963
   63CHL1   C10 5807   1.174   0.875   4.281 -0.1284 -0.2632 -0.8133
   63CHL1   C19 5808   1.105   1.010   4.253 -0.4901  0.4401  0.1285
   63CHL1  H19A 5809   1.178   1.077   4.302  0.2354 -1.7343  2.2633
   63CHL1  H19B 5810   1.103   1.027   4.143 -2.1971 -0.1604  0.0253
   63CHL1  H19C 5811   1.005   1.005   4.301 -0.8765 -0.9186 -0.7503
   63CHL1    C1 5812   1.327   0.880   4.228 -1.1584 -0.3009 -0.0342
   63CHL1   H1A 5813   1.385   0.970   4.257  0.3793 -1.5691  0.9982
   63CHL1   H1B 5814   1.376   0.786   4.262 -1.9782 -0.6443  0.2241
   63CHL1    C2 5815   1.341   0.883   4.077 -0.1042  0.2700 -0.0732
   63CHL1   H2A 5816   1.448   0.874   4.051 -0.6181 -0.6706 -2.0625
   63CHL1   H2B 5817   1.298   0.975   4.032 -1.4940  1.4689  3.3503
   63CHL1   C20 5818   1.152   0.832   5.003 -0.5509 -0.1298  0.5672
   63CHL1   H20 5819   1.062   0.894   5.022 -1.6594 -1.0704 -1.4021
   63CHL1   C21 5820   1.265   0.941   4.998  0.5163 -0.5369 -0.3384
   63CHL1  H21A 5821   1.218   1.038   4.972  0.6839 -0.1992  0.6031
   63CHL1  H21B 5822   1.340   0.910   4.922  0.9686  0.6513 -0.3915
   63CHL1  H21C 5823   1.313   0.960   5.096 -1.7920  1.1295  0.5503
   63CHL1   C22 5824   1.167   0.736   5.127 -0.9165  0.3116  0.3424
   63CHL1  H22A 5825   1.085   0.662   5.129 -2.1243  1.6180  1.4557
   63CHL1  H22B 5826   1.262   0.681   5.110  0.3609  2.7036 -0.7745
   63CHL1   C23 5827   1.156   0.795   5.271 -0.4114 -0.0350  0.6722
   63CHL1  H23A 5828   1.236   0.872   5.281 -0.5488 -0.0324  1.9418
   63CHL1  H23B 5829   1.058   0.846   5.268 -0.4251 -0.0389 -2.9352
   63CHL1   C24 5830   1.173   0.687   5.379 -0.5503 -0.1283  0.3004
   63CHL1  H24A 5831   1.129   0.598   5.327 -1.4868 -1.2412  2.8447
   63CHL1  H24B 5832   1.275   0.670   5.418  0.7568  4.5663 -0.5108
   63CHL1   C25 5833   1.081   0.715   5.498 -0.7928  0.2855 -0.1301
   63CHL1   H25 5834   1.087   0.822   5.527 -1.6732  0.3739 -0.2559
   63CHL1   C26 5835   0.935   0.681   5.474 -0.1377 -0.9705 -0.0898
   63CHL1  H26A 5836   0.913   0.573   5.483 -3.2980 -0.4004  0.0496
   63CHL1  H26B 5837   0.873   0.732   5.551  1.1867 -0.5397  0.7242
   63CHL1  H26C 5838   0.898   0.700   5.371  0.8955 -0.9860 -0.4745
   63CHL1   C27 5839   1.149   0.644   5.624  0.3984 -0.2932  0.2018
   63CHL1  H27A 5840   1.156   0.536   5.599 -0.9159 -0.1349 -0.9776
   63CHL1  H27B 5841   1.246   0.693   5.647  0.1986 -0.8068  2.3706
   63CHL1  H27C 5842   1.088   0.659   5.716  1.2832 -3.0570  1.3336
   64CHL1    C3 5843   4.979   0.294   3.847  0.0684 -0.0121  0.5549
   64CHL1    H3 5844   4.892   0.225   3.841 -1.9890  2.5372 -2.5292
   64CHL1    O3 5845   5.013   0.348   3.720 -0.0241  0.1566  0.4063
   64CHL1   H3' 5846   5.054   0.275   3.672  2.1216 -1.4180  4.1263
   64CHL1    C4 5847   4.947   0.412   3.933 -0.3091  0.1548 -0.3981
   64CHL1   H4A 5848   5.034   0.481   3.922  1.5360 -1.6715  1.8835
   64CHL1   H4B 5849   4.855   0.456   3.889 -0.6331 -0.6132 -0.5031
   64CHL1    C5 5850   4.936   0.372   4.076  0.1093  0.5850 -0.2364
   64CHL1    C6 5851   4.829   0.412   4.149 -0.0132  0.5127  0.4107
   64CHL1    H6 5852   4.743   0.469   4.112 -1.3516 -0.5944  1.6799
   64CHL1    C7 5853   4.807   0.385   4.293 -0.5266 -0.1384  0.2205
   64CHL1   H7A 5854   4.763   0.463   4.358 -0.7366 -2.9351  3.7053
   64CHL1   H7B 5855   4.731   0.304   4.297 -1.7331  0.7312 -2.5174
   64CHL1    C8 5856   4.940   0.333   4.357 -0.7258 -0.0981 -0.8815
   64CHL1    H8 5857   5.005   0.422   4.367 -0.1890 -0.7650  2.9201
   64CHL1   C14 5858   4.916   0.279   4.496 -0.2767 -0.0458 -0.2117
   64CHL1   H14 5859   4.857   0.187   4.474 -0.7140  0.6930 -2.4471
   64CHL1   C15 5860   4.837   0.366   4.596 -0.0355 -0.1263  0.5962
   64CHL1  H15A 5861   4.875   0.470   4.590 -1.1605  0.2373 -1.0350
   64CHL1  H15B 5862   4.728   0.365   4.576 -0.0750  1.9463  0.5103
   64CHL1   C16 5863   4.866   0.296   4.731  0.1630  0.1390  0.7856
   64CHL1  H16A 5864   4.884   0.378   4.803  0.1218 -0.1032  1.0730
   64CHL1  H16B 5865   4.779   0.244   4.777  0.9969 -0.5306  1.6383
   64CHL1   C17 5866   4.980   0.198   4.712  0.2014 -0.6808  0.3029
   64CHL1   H17 5867   4.930   0.099   4.704 -0.6730 -0.1885 -0.5292
   64CHL1   C13 5868   5.044   0.231   4.574  0.3534 -0.9931 -0.1310
   64CHL1   C18 5869   5.153   0.334   4.584 -0.2834  0.5365  0.0071
   64CHL1  H18A 5870   5.238   0.301   4.648 -0.6156  1.7368  1.1277
   64CHL1  H18B 5871   5.191   0.359   4.483  2.7199  0.1648  0.9532
   64CHL1  H18C 5872   5.119   0.429   4.631 -1.0111  0.0929  0.3992
   64CHL1   C12 5873   5.098   0.115   4.493  0.0653  0.3947  0.1356
   64CHL1  H12A 5874   5.199   0.108   4.540 -0.5182  3.5793  2.1256
   64CHL1  H12B 5875   5.036   0.023   4.502  1.1709 -0.1980  2.5567
   64CHL1   C11 5876   5.123   0.150   4.344  0.8490 -0.8646  0.1916
   64CHL1  H11A 5877   5.215   0.212   4.336  1.2871 -1.6420 -1.2581
   64CHL1  H11B 5878   5.128   0.053   4.289 -1.7502 -1.4051  0.7635
   64CHL1    C9 5879   5.008   0.225   4.268  0.5081  0.3648 -0.1381
   64CHL1    H9 5880   4.925   0.152   4.259 -1.3748  1.7022  3.9432
   64CHL1   C10 5881   5.049   0.284   4.131  0.7879 -0.1626  0.1718
   64CHL1   C19 5882   5.166   0.388   4.144 -0.2218  0.2825  0.6720
   64CHL1  H19A 5883   5.254   0.327   4.176  0.0550  0.5536  0.4378
   64CHL1  H19B 5884   5.193   0.430   4.045  0.5625 -1.2219  0.2175
   64CHL1  H19C 5885   5.155   0.478   4.208 -1.5394  2.7260 -2.7057
   64CHL1    C1 5886   5.087   0.166   4.033  0.2452 -0.6123  0.6941
   64CHL1   H1A 5887   5.171   0.106   4.075  0.4561  0.0862  1.2864
   64CHL1   H1B 5888   5.000   0.097   4.028  0.0891 -0.3844  0.2953
   64CHL1    C2 5889   5.104   0.221   3.891 -0.3718  0.3091 -0.6732
   64CHL1   H2A 5890   5.142   0.142   3.823 -0.7528 -0.8641  0.4506
   64CHL1   H2B 5891   5.195   0.286   3.895 -0.9605  1.1166 -0.1702
   64CHL1   C20 5892   5.076   0.207   4.828  0.6040  0.4983 -1.0834
   64CHL1   H20 5893   5.108   0.312   4.841 -0.4682  0.7103  0.0532
   64CHL1   C21 5894   5.183   0.098   4.822  0.2394 -0.5786  0.2006
   64CHL1  H21A 5895   5.251   0.114   4.909  0.6641  2.2778 -0.5615
   64CHL1  H21B 5896   5.244   0.099   4.729 -0.2819 -2.2708 -0.2025
   64CHL1  H21C 5897   5.138  -0.002   4.842 -0.2007 -0.6494 -1.0757
   64CHL1   C22 5898   4.996   0.175   4.956  0.7973  0.1366  0.3064
   64CHL1  H22A 5899   4.922   0.258   4.960  0.7206  0.2244 -1.7695
   64CHL1  H22B 5900   4.938   0.081   4.950 -3.4593  2.4966  0.3526
   64CHL1   C23 5901   5.084   0.186   5.087  0.1437 -0.7763 -0.0256
   64CHL1  H23A 5902   5.160   0.106   5.099  0.7355 -0.3285 -0.7150
   64CHL1  H23B 5903   5.137   0.284   5.077 -0.7457 -0.3108 -0.2803
   64CHL1   C24 5904   4.999   0.207   5.210 -0.6029  0.6241 -0.4164
   64CHL1  H24A 5905   4.933   0.294   5.187  2.0635  2.2018 -2.8689
   64CHL1  H24B 5906   4.934   0.121   5.236  0.4461 -0.5713 -1.5373
   64CHL1   C25 5907   5.085   0.244   5.330  1.0484 -0.3890 -0.4345
   64CHL1   H25 5908   5.125   0.345   5.306 -0.6345  0.2391 -0.7453
   64CHL1   C26 5909   4.990   0.268   5.454  1.1339 -0.0055  0.0262
   64CHL1  H26A 5910   5.045   0.294   5.547  0.5702 -2.7721  1.2246
   64CHL1  H26B 5911   4.924   0.347   5.412  1.3389 -0.7844 -1.8698
   64CHL1  H26C 5912   4.907   0.195   5.465 -2.2961  3.4849 -0.2591
   64CHL1   C27 5913   5.201   0.148   5.376 -0.4305  0.5624 -0.1391
   64CHL1  H27A 5914   5.258   0.119   5.285  1.6962  0.2206  1.2476
   64CHL1  H27B 5915   5.269   0.195   5.451  1.7458 -3.0089  0.3306
   64CHL1  H27C 5916   5.165   0.061   5.434 -0.4297  1.9567  2.0963
   65CHL1    C3 5917   4.489   3.596   4.002 -0.2906 -0.4909  0.0017
   65CHL1    H3 5918   4.546   3.529   4.069  1.4708 -0.3801 -1.3216
   65CHL1    O3 5919   4.528   3.588   3.863  0.2716 -0.5832  0.2699
   65CHL1   H3' 5920   4.449   3.609   3.813  0.0526 -1.3485  0.2804
   65CHL1    C4 5921   4.343   3.564   4.017 -0.2964 -0.9173 -0.6552
   65CHL1   H4A 5922   4.294   3.610   3.929  0.5418  2.1587  0.3508
   65CHL1   H4B 5923   4.333   3.457   3.990  1.5402 -1.1031 -0.6731
   65CHL1    C5 5924   4.291   3.603   4.157 -0.0441 -0.3158  0.5568
   65CHL1    C6 5925   4.220   3.519   4.238  0.7206  0.0206 -0.9161
   65CHL1    H6 5926   4.208   3.414   4.207  4.1127 -1.1938  1.3749
   65CHL1    C7 5927   4.146   3.554   4.369 -0.2463  0.6082  0.0401
   65CHL1   H7A 5928   4.043   3.515   4.381 -0.3155  0.4871 -0.9135
   65CHL1   H7B 5929   4.207   3.518   4.456 -0.5025  0.6757  0.2476
   65CHL1    C8 5930   4.138   3.713   4.383 -1.1311  0.9123  0.1102
   65CHL1    H8 5931   4.056   3.746   4.316 -1.3888 -0.4068 -0.2519
   65CHL1   C14 5932   4.098   3.745   4.526 -0.6806  0.3853 -0.2708
   65CHL1   H14 5933   4.191   3.712   4.577 -1.0760 -0.6407 -0.2052
   65CHL1   C15 5934   3.976   3.676   4.589 -0.7161 -0.5501 -0.2609
   65CHL1  H15A 5935   3.895   3.663   4.514  1.2109 -1.4300 -2.3144
   65CHL1  H15B 5936   3.995   3.571   4.620 -0.0548 -0.2021  0.5554
   65CHL1   C16 5937   3.949   3.760   4.713  0.7676 -0.5732  0.2261
   65CHL1  H16A 5938   3.846   3.799   4.697 -0.3854 -3.9376 -1.6156
   65CHL1  H16B 5939   3.947   3.696   4.804  0.6657 -0.6433  0.1753
   65CHL1   C17 5940   4.054   3.877   4.709  0.0358  0.1990  0.3630
   65CHL1   H17 5941   4.145   3.840   4.760  0.1531  0.7937  0.5838
   65CHL1   C13 5942   4.091   3.887   4.563 -0.3192  0.2531 -0.0083
   65CHL1   C18 5943   3.978   3.954   4.488 -0.3292  0.0003  0.0527
   65CHL1  H18A 5944   3.877   3.915   4.513 -0.5327  1.6170  2.0128
   65CHL1  H18B 5945   3.989   4.064   4.502  2.1898 -0.0764 -0.6993
   65CHL1  H18C 5946   3.989   3.947   4.377  0.9426 -0.4025  0.1891
   65CHL1   C12 5947   4.234   3.955   4.540 -0.0607  0.4436 -0.4242
   65CHL1  H12A 5948   4.226   4.065   4.556  0.7299  0.5226 -0.5388
   65CHL1  H12B 5949   4.314   3.897   4.591 -1.1175 -0.9256 -0.2642
   65CHL1   C11 5950   4.276   3.929   4.390  0.0312  0.5932 -0.1167
   65CHL1  H11A 5951   4.201   3.985   4.330  0.6776  0.8648 -0.6801
   65CHL1  H11B 5952   4.377   3.971   4.371  1.6203 -3.5455 -2.1145
   65CHL1    C9 5953   4.272   3.778   4.349 -0.2881  0.3321  0.3670
   65CHL1    H9 5954   4.349   3.728   4.412  1.4425  0.8207 -1.2747
   65CHL1   C10 5955   4.322   3.751   4.198 -0.0375  0.8169 -0.0410
   65CHL1   C19 5956   4.255   3.857   4.104  0.3408  0.9752 -0.1032
   65CHL1  H19A 5957   4.259   3.826   3.998 -0.1593  0.9694 -0.1196
   65CHL1  H19B 5958   4.151   3.880   4.133 -0.8420 -2.7900 -0.8247
   65CHL1  H19C 5959   4.315   3.951   4.107  0.4257  0.9113  0.4209
   65CHL1    C1 5960   4.474   3.763   4.199 -0.0647 -0.2821 -0.0003
   65CHL1   H1A 5961   4.505   3.861   4.243 -0.1323 -1.1873  2.1940
   65CHL1   H1B 5962   4.515   3.694   4.275 -2.8020 -0.3055  1.5857
   65CHL1    C2 5963   4.535   3.740   4.055  0.1879 -0.2842 -0.7472
   65CHL1   H2A 5964   4.646   3.741   4.048  0.1944  0.3515 -0.5972
   65CHL1   H2B 5965   4.499   3.822   3.989 -2.1394 -0.7721 -0.1854
   65CHL1   C20 5966   4.005   4.010   4.785  0.1777  0.2525 -0.3471
   65CHL1   H20 5967   3.931   4.058   4.718 -0.2697 -1.1447 -0.8773
   65CHL1   C21 5968   4.116   4.111   4.797  0.0159 -0.1973 -0.0370
   65CHL1  H21A 5969   4.095   4.182   4.880 -4.0238  2.3422 -2.8889
   65CHL1  H21B 5970   4.134   4.162   4.701 -1.2969  2.5397  1.0662
   65CHL1  H21C 5971   4.209   4.056   4.822  0.0851  0.6894  1.8298
   65CHL1   C22 5972   3.927   3.979   4.920  0.6369  0.1189 -0.7140
   65CHL1  H22A 5973   3.863   4.062   4.957  0.0464 -0.8004  0.3978
   65CHL1  H22B 5974   3.841   3.915   4.890 -0.4645  0.9400  0.5740
   65CHL1   C23 5975   4.013   3.918   5.031 -0.5788 -0.3836 -0.4291
   65CHL1  H23A 5976   4.036   3.815   4.997 -1.1336 -0.6549  0.0086
   65CHL1  H23B 5977   4.105   3.979   5.037 -1.5020  1.0223 -0.1307
   65CHL1   C24 5978   3.926   3.895   5.157  0.5090 -0.4909 -0.0498
   65CHL1  H24A 5979   3.934   3.989   5.216  1.3813  0.6714 -1.9103
   65CHL1  H24B 5980   3.828   3.870   5.112  0.0501  1.5484 -0.2897
   65CHL1   C25 5981   3.974   3.783   5.250 -0.4600  0.1758  0.1367
   65CHL1   H25 5982   3.982   3.694   5.184  1.9527  0.4287 -0.0318
   65CHL1   C26 5983   4.120   3.802   5.320  0.5751 -0.6927 -0.4986
   65CHL1  H26A 5984   4.135   3.719   5.392 -0.9554 -0.2306  0.4050
   65CHL1  H26B 5985   4.197   3.798   5.240  0.0185 -0.7718 -1.0469
   65CHL1  H26C 5986   4.113   3.896   5.379  0.8426 -0.4423 -0.8644
   65CHL1   C27 5987   3.871   3.754   5.361  1.0184 -0.4194 -0.0552
   65CHL1  H27A 5988   3.918   3.677   5.425  0.2844 -1.9775 -1.3291
   65CHL1  H27B 5989   3.846   3.843   5.423  0.1657  0.5903 -1.7606
   65CHL1  H27C 5990   3.773   3.724   5.318 -0.7648 -0.7050  3.8279
   66CHL1    C3 5991   3.518   6.117   3.356  0.0594 -0.2909  0.8885
   66CHL1    H3 5992   3.566   6.216   3.350  0.1059 -0.3665 -0.1948
   66CHL1    O3 5993   3.526   6.055   3.227  0.4945 -0.1293 -0.5452
   66CHL1   H3' 5994   3.570   5.971   3.236  2.2005  0.9106  1.9530
   66CHL1    C4 5995   3.607   6.035   3.454  0.1682  0.7068 -0.2423
   66CHL1   H4A 5996   3.584   5.927   3.452 -0.4260  0.8337 -0.8228
   66CHL1   H4B 5997   3.708   6.058   3.413 -0.4957  0.7878 -1.9356
   66CHL1    C5 5998   3.595   6.082   3.594 -0.1510  0.1447 -0.1293
   66CHL1    C6 5999   3.706   6.104   3.664  0.0487 -0.1415 -0.0794
   66CHL1    H6 6000   3.799   6.077   3.612  0.1958 -0.0770  0.1519
   66CHL1    C7 6001   3.709   6.138   3.807  0.2553  0.4505 -0.1996
   66CHL1   H7A 6002   3.782   6.077   3.863 -1.0893 -0.3174  0.7714
   66CHL1   H7B 6003   3.737   6.244   3.827  2.4520 -0.4090  1.7343
   66CHL1    C8 6004   3.563   6.123   3.874  0.8029 -0.0823  0.6807
   66CHL1    H8 6005   3.541   6.016   3.895 -0.2321 -0.2615 -1.1890
   66CHL1   C14 6006   3.554   6.208   4.009  1.1483  0.2440 -0.3158
   66CHL1   H14 6007   3.595   6.309   3.983 -0.7794  0.7920 -1.3763
   66CHL1   C15 6008   3.648   6.151   4.122 -0.4610 -0.0470  0.2992
   66CHL1  H15A 6009   3.626   6.044   4.145  1.4474 -0.1711  1.8160
   66CHL1  H15B 6010   3.756   6.155   4.094  0.3936  2.8522  3.3639
   66CHL1   C16 6011   3.607   6.240   4.238  0.3857  0.4676 -0.1576
   66CHL1  H16A 6012   3.619   6.177   4.328 -3.1027 -2.3662 -1.4027
   66CHL1  H16B 6013   3.665   6.334   4.256  0.2335  0.8387 -1.4413
   66CHL1   C17 6014   3.461   6.287   4.214 -0.0113  0.2299  0.4003
   66CHL1   H17 6015   3.465   6.394   4.184 -1.0853 -0.3505 -2.0851
   66CHL1   C13 6016   3.419   6.212   4.078 -0.5873  0.3982 -0.5896
   66CHL1   C18 6017   3.376   6.065   4.115  0.5069  0.2540  0.1846
   66CHL1  H18A 6018   3.379   6.008   4.020  0.4247  0.5260  0.0170
   66CHL1  H18B 6019   3.437   6.022   4.198  0.7092  2.2351  1.1307
   66CHL1  H18C 6020   3.268   6.069   4.141 -0.0420  0.1877 -1.9376
   66CHL1   C12 6021   3.316   6.273   3.980 -0.2902 -0.9430 -0.4690
   66CHL1  H12A 6022   3.215   6.277   4.025 -0.5754  1.1251 -1.1723
   66CHL1  H12B 6023   3.353   6.374   3.951  0.2587 -0.8651  0.4647
   66CHL1   C11 6024   3.317   6.187   3.849  0.4847 -1.1055 -0.2327
   66CHL1  H11A 6025   3.271   6.087   3.864 -0.6492 -0.6429 -0.5523
   66CHL1  H11B 6026   3.246   6.241   3.783  0.1733 -1.8172 -0.4964
   66CHL1    C9 6027   3.457   6.176   3.784  0.2367  0.7291 -0.2585
   66CHL1    H9 6028   3.490   6.277   3.752 -1.4736  1.3940 -0.0093
   66CHL1   C10 6029   3.451   6.105   3.643 -0.3208 -0.2465  0.3453
   66CHL1   C19 6030   3.401   5.964   3.662  0.2755  0.7653 -0.3890
   66CHL1  H19A 6031   3.478   5.907   3.718 -0.1737  2.3839  2.0044
   66CHL1  H19B 6032   3.304   5.963   3.717  0.0160  2.0340 -0.7816
   66CHL1  H19C 6033   3.379   5.909   3.567  0.3947 -0.0851  0.0675
   66CHL1    C1 6034   3.371   6.182   3.540 -0.9261  0.0483 -0.4671
   66CHL1   H1A 6035   3.264   6.177   3.569 -1.8587 -0.3651 -3.6042
   66CHL1   H1B 6036   3.401   6.289   3.542 -2.7738  0.5998 -0.3579
   66CHL1    C2 6037   3.376   6.122   3.396  0.2304  0.2140 -0.1169
   66CHL1   H2A 6038   3.317   6.184   3.325  1.0942  0.6512 -0.4804
   66CHL1   H2B 6039   3.330   6.021   3.400  1.4620 -0.3286  1.8825
   66CHL1   C20 6040   3.363   6.280   4.334  0.8803  0.3645 -0.2468
   66CHL1   H20 6041   3.356   6.171   4.355  1.4244 -0.2593 -2.8897
   66CHL1   C21 6042   3.212   6.327   4.302  0.0751 -0.2769 -0.0713
   66CHL1  H21A 6043   3.207   6.433   4.271 -0.9558  0.1629  1.4839
   66CHL1  H21B 6044   3.143   6.329   4.388  2.7436  0.5525  2.2129
   66CHL1  H21C 6045   3.158   6.269   4.224 -2.5061  0.3406  1.1544
   66CHL1   C22 6046   3.417   6.344   4.466 -0.3002 -0.2797  0.0094
   66CHL1  H22A 6047   3.526   6.337   4.486  0.2671  5.1494  0.2968
   66CHL1  H22B 6048   3.406   6.454   4.450  0.1602  0.0550  1.8516
   66CHL1   C23 6049   3.355   6.286   4.595  0.5175 -0.0914 -0.1494
   66CHL1  H23A 6050   3.256   6.336   4.601  1.0126  0.8755  0.1488
   66CHL1  H23B 6051   3.357   6.175   4.590 -0.5283 -0.0665 -2.1895
   66CHL1   C24 6052   3.435   6.333   4.716  0.2141 -0.7241  0.4509
   66CHL1  H24A 6053   3.534   6.285   4.704  0.9455  0.3992  1.7502
   66CHL1  H24B 6054   3.448   6.443   4.719  5.1236 -1.0137 -1.1990
   66CHL1   C25 6055   3.359   6.278   4.846 -0.5407  0.0609 -0.1193
   66CHL1   H25 6056   3.342   6.170   4.823 -0.1112 -0.4563  1.7908
   66CHL1   C26 6057   3.456   6.301   4.967  0.3806 -0.2012 -0.7843
   66CHL1  H26A 6058   3.492   6.405   4.979  0.0401 -0.0975 -0.6656
   66CHL1  H26B 6059   3.408   6.269   5.062  0.6103  2.0617  0.1387
   66CHL1  H26C 6060   3.552   6.248   4.947  0.8500 -0.4113  1.7051
   66CHL1   C27 6061   3.236   6.363   4.877  0.7846  0.0865 -0.4187
   66CHL1  H27A 6062   3.255   6.459   4.930  1.8020 -0.7155  0.7347
   66CHL1  H27B 6063   3.180   6.310   4.958  2.7387  0.7607  1.4632
   66CHL1  H27C 6064   3.172   6.377   4.788 -0.4683  0.8045  0.5546
   67CHL1    C3 6065   3.519   4.235   3.851  0.1623  0.6588  0.3393
   67CHL1    H3 6066   3.465   4.332   3.855 -1.6102 -0.2727 -0.3946
   67CHL1    O3 6067   3.533   4.183   3.722 -0.5864  0.1481 -0.1480
   67CHL1   H3' 6068   3.455   4.130   3.704  0.0786 -0.4138 -1.4737
   67CHL1    C4 6069   3.664   4.249   3.906  1.1753  0.0552 -0.3519
   67CHL1   H4A 6070   3.704   4.146   3.889  0.7391 -0.2817  0.5978
   67CHL1   H4B 6071   3.715   4.321   3.838  2.0603 -1.9682 -1.9513
   67CHL1    C5 6072   3.663   4.291   4.048  0.5310 -0.4573 -0.5809
   67CHL1    C6 6073   3.712   4.407   4.092 -0.2010 -0.3754 -0.0596
   67CHL1    H6 6074   3.766   4.480   4.030 -0.2350  1.3684  1.8394
   67CHL1    C7 6075   3.728   4.436   4.237  0.3942 -0.2778 -0.6029
   67CHL1   H7A 6076   3.834   4.466   4.250  0.5495 -1.1429  0.3015
   67CHL1   H7B 6077   3.665   4.524   4.262 -1.0454 -1.4596  0.1249
   67CHL1    C8 6078   3.697   4.325   4.338 -0.3049  0.0585  1.0784
   67CHL1    H8 6079   3.793   4.269   4.344  1.7065  3.1184  0.0082
   67CHL1   C14 6080   3.660   4.376   4.477 -0.5503  0.1394  0.1791
   67CHL1   H14 6081   3.575   4.443   4.452  1.5061  1.8822 -2.8107
   67CHL1   C15 6082   3.756   4.483   4.538  0.2241 -0.1087  0.1249
   67CHL1  H15A 6083   3.856   4.435   4.534 -0.3190 -1.1719 -1.2501
   67CHL1  H15B 6084   3.761   4.578   4.480 -0.8134 -0.3939 -0.4596
   67CHL1   C16 6085   3.696   4.490   4.679  0.6137 -0.1738 -0.2551
   67CHL1  H16A 6086   3.777   4.486   4.756  1.6517  0.4066 -1.2881
   67CHL1  H16B 6087   3.647   4.590   4.684 -1.5072 -1.2119  1.8167
   67CHL1   C17 6088   3.590   4.380   4.701 -0.3585 -0.9316  0.2344
   67CHL1   H17 6089   3.488   4.418   4.681  0.0593 -0.7284 -1.8380
   67CHL1   C13 6090   3.616   4.274   4.582 -0.1791  1.0192  0.0055
   67CHL1   C18 6091   3.724   4.172   4.617 -0.1483  0.1946 -0.2440
   67CHL1  H18A 6092   3.763   4.132   4.521  0.5253  2.0259 -0.7815
   67CHL1  H18B 6093   3.807   4.230   4.663  0.5888 -0.7202 -0.3894
   67CHL1  H18C 6094   3.670   4.103   4.685 -0.2859  0.8698  0.3455
   67CHL1   C12 6095   3.493   4.201   4.528 -0.6012 -0.0218 -0.7172
   67CHL1  H12A 6096   3.473   4.121   4.602  0.5829 -0.4320 -0.8106
   67CHL1  H12B 6097   3.401   4.263   4.525 -0.0367  0.8076 -1.4292
   67CHL1   C11 6098   3.520   4.143   4.394 -0.8579  0.1971  0.3584
   67CHL1  H11A 6099   3.593   4.060   4.408 -1.4130 -0.2314  0.8050
   67CHL1  H11B 6100   3.418   4.118   4.358 -1.5714 -1.2466  3.0783
   67CHL1    C9 6101   3.576   4.243   4.289 -0.2295 -0.5209  0.2873
   67CHL1    H9 6102   3.496   4.320   4.287 -0.6412 -0.9256  0.8239
   67CHL1   C10 6103   3.599   4.192   4.144  0.0853  0.6345 -0.0186
   67CHL1   C19 6104   3.693   4.069   4.146 -0.0945  0.1378  0.3671
   67CHL1  H19A 6105   3.791   4.097   4.191 -0.1739 -1.0465  1.3026
   67CHL1  H19B 6106   3.648   3.995   4.215  0.3349  0.3736  0.9069
   67CHL1  H19C 6107   3.709   4.017   4.049 -4.2569 -3.2383  1.2038
   67CHL1    C1 6108   3.461   4.146   4.085  0.3779  0.4830  0.1672
   67CHL1   H1A 6109   3.440   4.046   4.128  0.5975  0.5140  0.3476
   67CHL1   H1B 6110   3.390   4.221   4.126 -0.0327 -0.1575  0.6514
   67CHL1    C2 6111   3.449   4.125   3.935 -0.3318 -0.0734  0.5379
   67CHL1   H2A 6112   3.341   4.130   3.908 -0.7023 -0.3316  1.8654
   67CHL1   H2B 6113   3.485   4.027   3.897  0.0376  0.3463 -0.2111
   67CHL1   C20 6114   3.599   4.336   4.854 -0.5271 -0.2286  0.3932
   67CHL1   H20 6115   3.704   4.301   4.869 -0.2424  1.3209  2.5447
   67CHL1   C21 6116   3.498   4.215   4.879  0.7357 -0.2531  0.6180
   67CHL1  H21A 6117   3.513   4.131   4.808  0.7433 -1.0102  1.4827
   67CHL1  H21B 6118   3.396   4.257   4.872  0.5832 -0.4242  1.6368
   67CHL1  H21C 6119   3.508   4.173   4.982  0.2043 -1.4788  0.1879
   67CHL1   C22 6120   3.581   4.448   4.950  0.1444 -0.0707 -0.2641
   67CHL1  H22A 6121   3.658   4.527   4.931 -2.3830  3.2084  2.0472
   67CHL1  H22B 6122   3.483   4.499   4.934 -0.6024 -1.2510  0.4650
   67CHL1   C23 6123   3.592   4.412   5.100 -0.4643  0.1210 -0.6676
   67CHL1  H23A 6124   3.526   4.327   5.130  0.4483  0.4933  2.8514
   67CHL1  H23B 6125   3.693   4.368   5.116 -0.0941  0.1351 -2.7158
   67CHL1   C24 6126   3.574   4.532   5.199  0.0464 -0.0323  0.5723
   67CHL1  H24A 6127   3.662   4.594   5.175  0.2369 -1.0228 -1.5231
   67CHL1  H24B 6128   3.480   4.584   5.173 -0.0524  0.1361  1.2574
   67CHL1   C25 6129   3.591   4.494   5.349 -0.1201  0.1891  0.0834
   67CHL1   H25 6130   3.679   4.426   5.355 -0.0668  0.3497  1.1925
   67CHL1   C26 6131   3.625   4.611   5.446  0.2534 -0.4791  0.2212
   67CHL1  H26A 6132   3.543   4.687   5.439  0.3588 -0.4135 -0.3835
   67CHL1  H26B 6133   3.632   4.565   5.547 -0.0503  1.4705  1.1732
   67CHL1  H26C 6134   3.712   4.669   5.409 -0.3320  0.2920  0.0184
   67CHL1   C27 6135   3.473   4.399   5.391  0.1295  0.0559 -0.1029
   67CHL1  H27A 6136   3.379   4.452   5.367  0.0286 -0.1394 -0.1376
   67CHL1  H27B 6137   3.469   4.298   5.346 -1.8255 -0.0399  0.2212
   67CHL1  H27C 6138   3.467   4.381   5.501  2.4486  0.0975  0.0816
   68CHL1    C3 6139   6.156   2.286   4.062 -0.3397  0.1118 -0.3651
   68CHL1    H3 6140   6.089   2.374   4.048 -1.9680 -0.6414  2.0385
   68CHL1    O3 6141   6.158   2.218   3.937  0.6385 -0.2761 -0.0205
   68CHL1   H3' 6142   6.201   2.280   3.877 -2.6289 -0.6293 -3.1170
   68CHL1    C4 6143   6.291   2.326   4.108 -0.3513  0.4945 -0.0326
   68CHL1   H4A 6144   6.347   2.231   4.119 -2.4852 -0.9784 -1.1304
   68CHL1   H4B 6145   6.344   2.383   4.028 -1.8127  0.3322 -1.1567
   68CHL1    C5 6146   6.290   2.407   4.236  0.7153  0.2306  0.8699
   68CHL1    C6 6147   6.351   2.528   4.242 -0.2958 -0.3412  0.3873
   68CHL1    H6 6148   6.412   2.563   4.157 -1.0835  1.8716  0.6569
   68CHL1    C7 6149   6.353   2.620   4.360 -0.2565 -0.3379  0.8149
   68CHL1   H7A 6150   6.456   2.655   4.383 -0.7708  0.4315  2.0209
   68CHL1   H7B 6151   6.289   2.707   4.335  0.1795 -0.3396 -0.3623
   68CHL1    C8 6152   6.294   2.555   4.487  0.5983 -0.2842  0.1886
   68CHL1    H8 6153   6.373   2.489   4.530 -0.6481 -1.8702  0.1138
   68CHL1   C14 6154   6.248   2.657   4.587 -0.1878  0.0685 -0.3717
   68CHL1   H14 6155   6.160   2.709   4.544 -1.1272 -0.6012  0.6802
   68CHL1   C15 6156   6.340   2.767   4.621  0.8892  0.5848  0.6716
   68CHL1  H15A 6157   6.445   2.730   4.618  1.1419  1.2911  0.4871
   68CHL1  H15B 6158   6.339   2.849   4.546  0.2870 -0.4268 -0.4660
   68CHL1   C16 6159   6.282   2.822   4.757  0.7442 -0.0518  0.1965
   68CHL1  H16A 6160   6.361   2.825   4.834  0.8698 -1.5796  0.1538
   68CHL1  H16B 6161   6.240   2.921   4.729 -3.5772 -2.2410 -2.2194
   68CHL1   C17 6162   6.167   2.726   4.797 -0.3035  0.1024 -0.4958
   68CHL1   H17 6163   6.080   2.768   4.742 -0.8153 -2.4574 -1.7940
   68CHL1   C13 6164   6.204   2.597   4.721  0.0468  0.3125 -0.4139
   68CHL1   C18 6165   6.314   2.525   4.798 -0.6282  0.2324 -0.1224
   68CHL1  H18A 6166   6.357   2.448   4.732  0.1855 -1.3911  2.1746
   68CHL1  H18B 6167   6.395   2.597   4.821 -0.9310  1.2061 -1.9372
   68CHL1  H18C 6168   6.291   2.473   4.894  0.7579 -0.7850 -0.3235
   68CHL1   C12 6169   6.094   2.495   4.692  0.3011  0.0810 -0.3010
   68CHL1  H12A 6170   6.082   2.439   4.787  3.3271  1.8774  1.2864
   68CHL1  H12B 6171   6.004   2.550   4.658 -0.3135  0.1351  1.3145
   68CHL1   C11 6172   6.120   2.393   4.583  0.3430  1.1912 -0.0984
   68CHL1  H11A 6173   6.183   2.316   4.633 -0.3689  1.6419  1.5702
   68CHL1  H11B 6174   6.020   2.351   4.560  0.0256  1.4586  0.7822
   68CHL1    C9 6175   6.182   2.451   4.454 -0.0138 -0.3094 -0.4867
   68CHL1    H9 6176   6.106   2.510   4.398  0.4059  0.7644  0.0474
   68CHL1   C10 6177   6.212   2.345   4.348 -0.8221  0.0868  0.1153
   68CHL1   C19 6178   6.308   2.246   4.417  0.5289  0.0225 -0.7314
   68CHL1  H19A 6179   6.258   2.182   4.493 -0.0129 -0.2973 -1.3362
   68CHL1  H19B 6180   6.351   2.179   4.339  1.4715 -1.5216  1.0428
   68CHL1  H19C 6181   6.397   2.295   4.460 -0.9137  2.0659  0.0789
   68CHL1    C1 6182   6.081   2.276   4.296  0.6715  0.1499  0.5693
   68CHL1   H1A 6183   6.050   2.198   4.367  1.9643 -2.9525 -2.0268
   68CHL1   H1B 6184   6.005   2.356   4.300  2.1143  1.6481 -0.2457
   68CHL1    C2 6185   6.092   2.198   4.166  0.0656  0.4197  0.4200
   68CHL1   H2A 6186   5.992   2.165   4.131 -0.1130  2.4017 -1.1022
   68CHL1   H2B 6187   6.139   2.098   4.178 -0.5356 -0.2277 -2.1492
   68CHL1   C20 6188   6.136   2.732   4.947  0.4347  0.0084  0.2446
   68CHL1   H20 6189   6.228   2.719   5.007 -1.5490 -3.9409  2.8905
   68CHL1   C21 6190   6.039   2.625   4.984 -0.4730  0.0226 -0.9771
   68CHL1  H21A 6191   6.013   2.640   5.091  1.8106 -0.1236 -0.3544
   68CHL1  H21B 6192   6.077   2.521   4.982 -1.0115 -0.1639 -2.0897
   68CHL1  H21C 6193   5.946   2.626   4.923 -1.6154 -2.3202  0.5939
   68CHL1   C22 6194   6.086   2.882   4.992 -0.4267 -0.2879  0.7851
   68CHL1  H22A 6195   6.149   2.965   4.954 -3.7613  2.7665  1.4387
   68CHL1  H22B 6196   5.987   2.900   4.946  0.1832 -1.4698 -1.1307
   68CHL1   C23 6197   6.078   2.905   5.140 -0.1811 -0.6828 -0.3333
   68CHL1  H23A 6198   6.001   2.836   5.179 -0.3468 -0.0714  0.4372
   68CHL1  H23B 6199   6.178   2.892   5.187 -0.5064  1.7146  1.1519
   68CHL1   C24 6200   6.031   3.049   5.167  0.0187 -0.0241  0.2311
   68CHL1  H24A 6201   6.098   3.126   5.123 -3.3387  3.3174  0.4044
   68CHL1  H24B 6202   5.932   3.065   5.119  0.1255  0.0526  0.0373
   68CHL1   C25 6203   6.013   3.076   5.320 -0.3915  0.4864 -0.3753
   68CHL1   H25 6204   5.951   3.000   5.373 -1.3850  0.7097 -1.1740
   68CHL1   C26 6205   6.149   3.079   5.398 -0.7921 -0.2251  0.1057
   68CHL1  H26A 6206   6.125   3.027   5.493  1.1812 -1.8691 -0.2318
   68CHL1  H26B 6207   6.234   3.031   5.346 -0.2923 -1.6116  2.1017
   68CHL1  H26C 6208   6.183   3.185   5.408 -1.0038 -0.1141 -0.3254
   68CHL1   C27 6209   5.929   3.209   5.350 -0.4708  0.1301 -0.9287
   68CHL1  H27A 6210   5.984   3.303   5.324 -0.2508  1.9878  4.9286
   68CHL1  H27B 6211   5.834   3.202   5.292 -0.7163 -0.6703 -0.4296
   68CHL1  H27C 6212   5.903   3.226   5.456 -0.2657 -0.4955 -0.7766
   69CHL1    C3 6213   4.969   4.206   6.785  0.5639  0.3364  0.1164
   69CHL1    H3 6214   4.892   4.165   6.716  0.3683  2.9829 -1.3641
   69CHL1    O3 6215   4.970   4.151   6.913 -0.0764 -0.0707 -0.6098
   69CHL1   H3' 6216   5.047   4.191   6.954 -1.2159  1.1041  0.4718
   69CHL1    C4 6217   5.107   4.192   6.727 -0.7321  0.1294  1.2128
   69CHL1   H4A 6218   5.186   4.237   6.790  2.3256 -0.6291 -1.7610
   69CHL1   H4B 6219   5.128   4.083   6.723 -1.1684  0.0607  0.5846
   69CHL1    C5 6220   5.118   4.252   6.589 -0.4122 -0.2658  0.3677
   69CHL1    C6 6221   5.171   4.175   6.492 -0.4885 -0.3229 -0.6663
   69CHL1    H6 6222   5.211   4.072   6.500  0.5323  0.0721 -0.4995
   69CHL1    C7 6223   5.179   4.214   6.343 -0.7656  0.4044 -0.0458
   69CHL1   H7A 6224   5.273   4.187   6.292 -1.4572 -2.0935 -0.1321
   69CHL1   H7B 6225   5.105   4.143   6.299  0.5138 -0.1502 -1.3503
   69CHL1    C8 6226   5.148   4.362   6.318  0.7708 -0.2544  0.0008
   69CHL1    H8 6227   5.241   4.422   6.332 -0.3287  1.1930  1.5845
   69CHL1   C14 6228   5.098   4.385   6.171 -0.2476  0.3646  0.3300
   69CHL1   H14 6229   5.001   4.333   6.159 -0.8906  0.9976  2.3025
   69CHL1   C15 6230   5.192   4.325   6.056  0.0862  0.7072 -0.3207
   69CHL1  H15A 6231   5.297   4.361   6.063  0.0309  0.6811  0.8314
   69CHL1  H15B 6232   5.191   4.214   6.058 -0.0756  0.7134  0.4272
   69CHL1   C16 6233   5.117   4.386   5.937 -0.1716 -0.1055  0.2736
   69CHL1  H16A 6234   5.193   4.420   5.863 -2.3259  0.9643 -1.5725
   69CHL1  H16B 6235   5.057   4.306   5.888 -0.6810  1.0295 -1.0288
   69CHL1   C17 6236   5.024   4.510   5.988  0.4584 -0.0140  0.1594
   69CHL1   H17 6237   4.926   4.459   5.996 -0.6140  1.9639  0.2105
   69CHL1   C13 6238   5.071   4.533   6.131 -0.4523  0.1917  0.2751
   69CHL1   C18 6239   5.193   4.628   6.136  0.3854 -0.3219  0.3870
   69CHL1  H18A 6240   5.253   4.610   6.228  0.1139  1.6673  0.9878
   69CHL1  H18B 6241   5.269   4.601   6.060 -2.0316 -0.4674 -2.1166
   69CHL1  H18C 6242   5.167   4.736   6.140 -1.8043 -0.7661 -0.5560
   69CHL1   C12 6243   4.968   4.587   6.234 -0.2411 -0.0975  0.0371
   69CHL1  H12A 6244   4.951   4.696   6.219  2.0112  0.2376 -0.3566
   69CHL1  H12B 6245   4.869   4.537   6.228 -1.3893  2.1122 -0.5657
   69CHL1   C11 6246   5.012   4.569   6.382 -0.3101 -0.3532  0.3490
   69CHL1  H11A 6247   5.094   4.641   6.400 -1.4206  0.9726  0.2197
   69CHL1  H11B 6248   4.933   4.608   6.449 -0.5314 -1.6297  0.8687
   69CHL1    C9 6249   5.043   4.425   6.420  0.6796  0.1885  0.0196
   69CHL1    H9 6250   4.947   4.377   6.388  1.4670 -0.2106 -1.8688
   69CHL1   C10 6251   5.058   4.397   6.575 -0.2912  0.0263 -0.6306
   69CHL1   C19 6252   5.168   4.487   6.635 -0.3385  0.1288  0.0007
   69CHL1  H19A 6253   5.270   4.480   6.591 -0.0764 -2.1972  0.8416
   69CHL1  H19B 6254   5.123   4.587   6.617 -3.4790 -1.1940 -0.1388
   69CHL1  H19C 6255   5.175   4.460   6.742 -1.0746 -0.3087 -0.0528
   69CHL1    C1 6256   4.926   4.422   6.649  0.2805  0.2408  0.3716
   69CHL1   H1A 6257   4.884   4.525   6.652 -1.8851 -0.5911  0.4202
   69CHL1   H1B 6258   4.838   4.382   6.594  0.1503  1.1683 -0.1083
   69CHL1    C2 6259   4.931   4.352   6.785  0.8602 -0.6911  0.0718
   69CHL1   H2A 6260   4.833   4.374   6.833 -1.4690 -0.8204 -4.1239
   69CHL1   H2B 6261   5.004   4.406   6.849 -0.9867 -0.3635  1.9792
   69CHL1   C20 6262   5.008   4.632   5.893  0.6386 -0.2504 -0.7048
   69CHL1   H20 6263   5.108   4.681   5.886  0.2144  0.6028 -0.9079
   69CHL1   C21 6264   4.912   4.741   5.960 -0.3586 -0.0129  0.6774
   69CHL1  H21A 6265   4.892   4.820   5.885  0.4166  1.4987  2.0044
   69CHL1  H21B 6266   4.963   4.791   6.045  2.1058 -0.8668 -0.1954
   69CHL1  H21C 6267   4.816   4.692   5.988 -2.4520  2.7691 -1.0652
   69CHL1   C22 6268   4.971   4.587   5.749  0.1337  0.0148 -0.3343
   69CHL1  H22A 6269   5.028   4.501   5.710 -2.2774 -0.9495 -2.0124
   69CHL1  H22B 6270   4.879   4.529   5.773  0.2794  0.6036  1.8825
   69CHL1   C23 6271   4.941   4.693   5.642  0.1439  0.6623  0.3166
   69CHL1  H23A 6272   4.853   4.757   5.665  0.3313  1.8774 -2.0752
   69CHL1  H23B 6273   5.029   4.761   5.634  1.1873 -0.5841  0.6494
   69CHL1   C24 6274   4.924   4.626   5.506 -0.6122  0.5272 -0.2785
   69CHL1  H24A 6275   5.024   4.582   5.484  0.3574  1.3977  2.1158
   69CHL1  H24B 6276   4.851   4.542   5.510 -0.5536  0.4944  0.0666
   69CHL1   C25 6277   4.889   4.728   5.398 -0.9078  0.7865  1.0135
   69CHL1   H25 6278   4.952   4.818   5.417 -0.1222  0.2272  1.1022
   69CHL1   C26 6279   4.922   4.686   5.250  1.0323  0.4506 -0.5432
   69CHL1  H26A 6280   5.021   4.637   5.234 -0.4133 -2.0126 -2.8007
   69CHL1  H26B 6281   4.846   4.616   5.208  0.1122 -0.3999  2.3041
   69CHL1  H26C 6282   4.933   4.775   5.186 -2.2864  1.2793 -0.1330
   69CHL1   C27 6283   4.743   4.758   5.399  0.1457 -0.6967  0.1137
   69CHL1  H27A 6284   4.720   4.829   5.316 -1.0109 -0.5542  0.5378
   69CHL1  H27B 6285   4.684   4.663   5.393 -2.0944  0.4768  2.0600
   69CHL1  H27C 6286   4.720   4.795   5.501 -2.1583 -1.3136 -0.1082
   70CHL1    C3 6287   5.237   2.718   3.929 -0.1438  0.3904  0.0228
   70CHL1    H3 6288   5.133   2.699   3.896  0.8154 -3.1287 -1.5068
   70CHL1    O3 6289   5.322   2.748   3.823  0.1661  0.3594 -0.2682
   70CHL1   H3' 6290   5.327   2.843   3.826 -2.4443  0.5321  0.1456
   70CHL1    C4 6291   5.263   2.824   4.042 -0.1053 -0.0450 -0.5596
   70CHL1   H4A 6292   5.371   2.848   4.055 -0.3733  0.5220  0.7821
   70CHL1   H4B 6293   5.210   2.909   3.993  0.8782 -0.5168 -2.5833
   70CHL1    C5 6294   5.191   2.788   4.173 -1.0151 -0.3864 -0.1463
   70CHL1    C6 6295   5.096   2.870   4.221 -0.1915  0.5646  0.6632
   70CHL1    H6 6296   5.084   2.968   4.174  1.8585  0.2781 -0.5910
   70CHL1    C7 6297   5.023   2.840   4.346 -0.0636  0.0163  0.9461
   70CHL1   H7A 6298   5.029   2.931   4.410 -0.3363 -0.1837  1.2577
   70CHL1   H7B 6299   4.913   2.832   4.335 -0.2141 -0.1433  2.3205
   70CHL1    C8 6300   5.085   2.726   4.428 -0.5815  0.2777  0.1139
   70CHL1    H8 6301   5.171   2.763   4.488  0.9736 -1.5431 -0.8876
   70CHL1   C14 6302   4.983   2.680   4.533 -0.5886  0.0199 -0.1727
   70CHL1   H14 6303   4.898   2.633   4.480 -0.8911  0.8828 -0.4835
   70CHL1   C15 6304   4.916   2.782   4.629  0.7082  0.4103  0.0809
   70CHL1  H15A 6305   4.983   2.870   4.642 -0.5374  1.2826  0.6906
   70CHL1  H15B 6306   4.822   2.826   4.591  0.3923 -0.9923 -0.8388
   70CHL1   C16 6307   4.896   2.703   4.764  0.1731  0.1359  0.5241
   70CHL1  H16A 6308   4.977   2.739   4.831  0.4762  0.1207  0.1679
   70CHL1  H16B 6309   4.796   2.725   4.808 -0.4385  0.0215 -0.7896
   70CHL1   C17 6310   4.913   2.552   4.717 -0.0634 -0.4696 -0.1428
   70CHL1   H17 6311   4.825   2.518   4.659 -0.4753  1.1025 -0.4948
   70CHL1   C13 6312   5.033   2.560   4.616 -0.4573  0.2928 -0.5458
   70CHL1   C18 6313   5.166   2.602   4.688 -0.5978  0.5240 -1.2187
   70CHL1  H18A 6314   5.256   2.632   4.630  0.3487 -0.5032 -0.3331
   70CHL1  H18B 6315   5.155   2.671   4.774 -0.7593 -1.3208  0.3243
   70CHL1  H18C 6316   5.204   2.509   4.736 -1.3479  0.0583 -1.4971
   70CHL1   C12 6317   5.052   2.443   4.521  0.0425 -0.6695 -0.2894
   70CHL1  H12A 6318   5.096   2.359   4.580  1.4668  0.4007  0.2313
   70CHL1  H12B 6319   4.955   2.404   4.484 -0.4801 -1.0247  1.3987
   70CHL1   C11 6320   5.158   2.484   4.414  0.2687  0.2085  0.4764
   70CHL1  H11A 6321   5.260   2.482   4.458  0.7275 -2.4512 -0.4793
   70CHL1  H11B 6322   5.170   2.404   4.337  1.0898 -1.5176  2.3019
   70CHL1    C9 6323   5.117   2.611   4.338  1.0623 -0.0026  0.0977
   70CHL1    H9 6324   5.023   2.586   4.282  0.3674  0.1804  1.1597
   70CHL1   C10 6325   5.211   2.651   4.230 -0.0123  0.3995  0.0154
   70CHL1   C19 6326   5.354   2.650   4.280 -0.7080 -0.0047 -0.9136
   70CHL1  H19A 6327   5.366   2.682   4.385  0.4223 -0.1373 -0.9810
   70CHL1  H19B 6328   5.403   2.550   4.275  1.5664  1.0876 -3.3878
   70CHL1  H19C 6329   5.420   2.712   4.215 -0.9734 -0.6339 -1.8125
   70CHL1    C1 6330   5.196   2.545   4.114  1.2340  0.9532  0.5416
   70CHL1   H1A 6331   5.208   2.443   4.155 -3.0800  0.7034  1.6304
   70CHL1   H1B 6332   5.090   2.547   4.082  1.7047  0.6701 -1.1521
   70CHL1    C2 6333   5.286   2.583   3.987  0.2417 -0.3622 -0.8667
   70CHL1   H2A 6334   5.270   2.510   3.905 -2.8282 -1.4762  0.5545
   70CHL1   H2B 6335   5.393   2.584   4.015  0.7616  0.0291 -2.7660
   70CHL1   C20 6336   4.923   2.452   4.835 -0.5644 -0.1896  0.1286
   70CHL1   H20 6337   5.031   2.444   4.859 -0.3707  2.5447  0.4918
   70CHL1   C21 6338   4.877   2.313   4.787  0.1928  0.4119 -0.4990
   70CHL1  H21A 6339   4.956   2.275   4.720  1.3581  0.8164  0.6101
   70CHL1  H21B 6340   4.783   2.314   4.728  0.2446  0.8866 -0.5773
   70CHL1  H21C 6341   4.858   2.239   4.868 -0.2307  0.4155 -0.5918
   70CHL1   C22 6342   4.859   2.495   4.969 -0.4830 -0.6557 -0.3863
   70CHL1  H22A 6343   4.915   2.587   4.996 -1.5813  0.4326 -1.6560
   70CHL1  H22B 6344   4.753   2.507   4.940  0.2656  0.4447 -3.0434
   70CHL1   C23 6345   4.893   2.404   5.084 -0.6708  0.0100 -1.3531
   70CHL1  H23A 6346   4.873   2.301   5.048 -2.7530  0.1108 -0.6297
   70CHL1  H23B 6347   5.000   2.410   5.113 -1.1640 -0.2408  0.6740
   70CHL1   C24 6348   4.811   2.440   5.213  0.4584  0.6753 -0.2865
   70CHL1  H24A 6349   4.705   2.410   5.200  0.3267  0.6870  0.7148
   70CHL1  H24B 6350   4.846   2.367   5.289  0.4787 -1.4620 -2.2348
   70CHL1   C25 6351   4.816   2.582   5.269 -0.2831  0.1157  0.4556
   70CHL1   H25 6352   4.801   2.640   5.176  0.3816 -0.4564 -0.0216
   70CHL1   C26 6353   4.704   2.603   5.369  0.7776  0.1533 -0.3189
   70CHL1  H26A 6354   4.724   2.691   5.435 -1.2374 -0.1559  0.7686
   70CHL1  H26B 6355   4.615   2.631   5.309 -0.3342 -3.5165 -0.5964
   70CHL1  H26C 6356   4.681   2.513   5.429 -0.3997 -0.1735 -1.2365
   70CHL1   C27 6357   4.950   2.598   5.337 -0.4283  0.3456 -0.6717
   70CHL1  H27A 6358   4.963   2.704   5.369 -0.2001  0.9565 -2.6524
   70CHL1  H27B 6359   4.950   2.548   5.436  0.5480  2.2799  0.3654
   70CHL1  H27C 6360   5.039   2.582   5.273 -0.1229 -2.7628  0.4012
   71CHL1    C3 6361   2.235   4.175   3.409  0.5206  0.7007  0.0176
   71CHL1    H3 6362   2.214   4.280   3.378  0.2910  0.6292 -0.0746
   71CHL1    O3 6363   2.273   4.113   3.287  0.5119 -0.4596  0.0785
   71CHL1   H3' 6364   2.366   4.091   3.297  0.8569 -0.2813 -2.1495
   71CHL1    C4 6365   2.362   4.162   3.501  0.9698  0.1850  0.0555
   71CHL1   H4A 6366   2.392   4.055   3.512  0.3298  0.1525  1.7350
   71CHL1   H4B 6367   2.450   4.209   3.451 -0.8033  0.9356 -2.5572
   71CHL1    C5 6368   2.336   4.213   3.643 -0.6265 -0.2176 -0.1930
   71CHL1    C6 6369   2.418   4.305   3.701 -0.0219  0.8485  0.6062
   71CHL1    H6 6370   2.509   4.331   3.645 -0.3247  0.4518 -0.0789
   71CHL1    C7 6371   2.403   4.348   3.840  0.2204  0.0091 -0.6678
   71CHL1   H7A 6372   2.501   4.333   3.890  0.6873  0.0516 -1.5586
   71CHL1   H7B 6373   2.384   4.457   3.842  2.7395  0.5189 -0.9800
   71CHL1    C8 6374   2.293   4.273   3.918 -0.0864 -0.1552  0.0949
   71CHL1    H8 6375   2.336   4.173   3.941 -1.2682 -0.7853 -0.3040
   71CHL1   C14 6376   2.262   4.337   4.055  0.5205 -0.0006 -0.4147
   71CHL1   H14 6377   2.220   4.437   4.031  0.4144 -0.0457 -0.4173
   71CHL1   C15 6378   2.372   4.359   4.152 -0.0643  1.0632  0.0249
   71CHL1  H15A 6379   2.444   4.275   4.154  0.2678  1.3543  1.0715
   71CHL1  H15B 6380   2.438   4.447   4.139  1.0326  0.5050  1.4786
   71CHL1   C16 6381   2.310   4.373   4.295 -0.4100  0.1240 -0.1265
   71CHL1  H16A 6382   2.353   4.284   4.347  0.0780  0.2900 -0.2376
   71CHL1  H16B 6383   2.346   4.463   4.349  2.2822 -1.0009  0.1247
   71CHL1   C17 6384   2.163   4.349   4.268 -0.1601 -0.4906  0.4345
   71CHL1   H17 6385   2.123   4.450   4.244 -2.2319 -1.6066 -1.0627
   71CHL1   C13 6386   2.157   4.263   4.136  0.2145 -0.3872  0.3503
   71CHL1   C18 6387   2.192   4.115   4.168 -0.3209  0.0064 -0.0873
   71CHL1  H18A 6388   2.105   4.079   4.226 -0.3777 -0.9665 -0.7604
   71CHL1  H18B 6389   2.205   4.053   4.077 -2.0098  1.9316 -1.7487
   71CHL1  H18C 6390   2.288   4.112   4.225 -0.0152  1.7343 -0.4440
   71CHL1   C12 6391   2.028   4.273   4.057 -0.6018  0.1311  0.0700
   71CHL1  H12A 6392   1.955   4.214   4.117  0.9098 -0.5606  1.3016
   71CHL1  H12B 6393   1.990   4.377   4.059  0.9617  0.7898  3.7557
   71CHL1   C11 6394   2.043   4.205   3.919 -0.3259  0.5478  0.2454
   71CHL1  H11A 6395   2.046   4.096   3.943 -0.9721  0.2593 -0.8987
   71CHL1  H11B 6396   1.961   4.222   3.847 -0.5459  1.5268  0.7128
   71CHL1    C9 6397   2.167   4.252   3.833 -0.0417  0.5232  0.1492
   71CHL1    H9 6398   2.152   4.353   3.790  0.6666  0.8732  0.7277
   71CHL1   C10 6399   2.203   4.163   3.711  0.0639  0.4990 -0.2048
   71CHL1   C19 6400   2.226   4.013   3.750 -0.6460  0.7391 -0.0300
   71CHL1  H19A 6401   2.303   4.006   3.830 -1.3119 -0.4568  0.5381
   71CHL1  H19B 6402   2.139   3.961   3.793 -0.6433 -0.2130 -1.1472
   71CHL1  H19C 6403   2.263   3.959   3.660 -0.5484 -1.5159  1.2922
   71CHL1    C1 6404   2.086   4.169   3.615 -0.3957  0.3848  0.1413
   71CHL1   H1A 6405   2.000   4.116   3.661 -1.1252 -0.2753 -1.8745
   71CHL1   H1B 6406   2.060   4.276   3.601 -2.8813  0.0203  1.3279
   71CHL1    C2 6407   2.111   4.104   3.474 -0.0667  0.1910 -0.3173
   71CHL1   H2A 6408   2.021   4.122   3.413 -1.7345 -0.6884  1.7506
   71CHL1   H2B 6409   2.126   3.995   3.493  0.5638  0.3145 -0.0573
   71CHL1   C20 6410   2.078   4.307   4.394  0.3682  0.1940  0.9242
   71CHL1   H20 6411   2.084   4.197   4.400 -1.1562  0.1401  1.7747
   71CHL1   C21 6412   1.932   4.341   4.381  0.8781  0.0802 -0.2011
   71CHL1  H21A 6413   1.915   4.450   4.375 -1.1969 -0.1532  0.6338
   71CHL1  H21B 6414   1.878   4.307   4.473  0.4065  0.7086 -0.2428
   71CHL1  H21C 6415   1.883   4.286   4.298 -1.0730 -1.7461  1.9942
   71CHL1   C22 6416   2.135   4.361   4.526  0.8315  0.1964 -0.4585
   71CHL1  H22A 6417   2.214   4.288   4.552  0.2834 -0.4244 -0.5250
   71CHL1  H22B 6418   2.186   4.458   4.509  0.6671  0.0267 -1.9873
   71CHL1   C23 6419   2.038   4.380   4.648 -0.0878 -0.2985  0.5707
   71CHL1  H23A 6420   1.962   4.458   4.623 -0.4393 -0.9423 -0.4427
   71CHL1  H23B 6421   1.976   4.288   4.652 -1.1422  0.3230 -0.6485
   71CHL1   C24 6422   2.100   4.386   4.784 -0.5211 -0.0241 -0.3504
   71CHL1  H24A 6423   2.180   4.313   4.806 -0.6611  0.5052  2.2807
   71CHL1  H24B 6424   2.165   4.475   4.766  1.4965 -1.4458 -0.3924
   71CHL1   C25 6425   2.004   4.403   4.903  0.6484 -0.1448  0.6527
   71CHL1   H25 6426   1.941   4.311   4.904  2.0145 -1.0993  1.8681
   71CHL1   C26 6427   2.082   4.421   5.034  0.1547  0.1534  0.4988
   71CHL1  H26A 6428   2.014   4.435   5.120 -2.1712  1.4058 -1.4258
   71CHL1  H26B 6429   2.143   4.329   5.044  0.4259 -0.0265 -2.1280
   71CHL1  H26C 6430   2.159   4.501   5.026  3.3924 -2.6500  1.0143
   71CHL1   C27 6431   1.920   4.536   4.884 -0.5184  0.0742  0.6790
   71CHL1  H27A 6432   1.991   4.601   4.829  0.5445 -2.3127 -0.9183
   71CHL1  H27B 6433   1.831   4.522   4.819  0.9841  2.3537 -2.1439
   71CHL1  H27C 6434   1.884   4.577   4.981  1.1717 -1.5110  2.0483
   72CHL1    C3 6435   5.268   6.256   3.649  0.0113  0.4991  0.6531
   72CHL1    H3 6436   5.375   6.235   3.668 -0.5475 -2.7586  0.7988
   72CHL1    O3 6437   5.253   6.307   3.519 -0.7041  0.6974 -0.4743
   72CHL1   H3' 6438   5.160   6.308   3.496 -1.1503  2.0542  1.2248
   72CHL1    C4 6439   5.197   6.119   3.657 -0.0984  1.1081 -0.5548
   72CHL1   H4A 6440   5.093   6.127   3.619 -1.1581 -1.3491  1.5003
   72CHL1   H4B 6441   5.237   6.049   3.581  0.7857  1.8197 -0.7589
   72CHL1    C5 6442   5.199   6.062   3.801  0.5104 -0.4794  0.1953
   72CHL1    C6 6443   5.250   5.944   3.835 -0.3498  0.8316  0.1559
   72CHL1    H6 6444   5.283   5.877   3.754  2.4142 -0.4566  2.1807
   72CHL1    C7 6445   5.245   5.881   3.973 -0.8329  0.3577 -0.0847
   72CHL1   H7A 6446   5.201   5.780   3.966 -4.1000  1.5342  1.5512
   72CHL1   H7B 6447   5.347   5.872   4.017 -0.7585 -1.8421 -0.5936
   72CHL1    C8 6448   5.144   5.946   4.065 -0.0768 -0.1026  1.0113
   72CHL1    H8 6449   5.044   5.923   4.020  0.1770 -0.9838  0.8809
   72CHL1   C14 6450   5.157   5.889   4.201 -0.2948 -0.0603  0.3189
   72CHL1   H14 6451   5.259   5.918   4.234 -0.5490  0.8907  0.3124
   72CHL1   C15 6452   5.131   5.738   4.221 -0.2515  0.2624 -0.6939
   72CHL1  H15A 6453   5.056   5.699   4.149 -0.2623  0.4047 -0.7624
   72CHL1  H15B 6454   5.224   5.676   4.219 -1.3290 -1.4772  0.9453
   72CHL1   C16 6455   5.084   5.724   4.368  0.0039  0.3654  0.2476
   72CHL1  H16A 6456   4.983   5.678   4.369 -0.6655  1.5049 -3.2497
   72CHL1  H16B 6457   5.156   5.667   4.431  0.1389 -1.3104 -1.3257
   72CHL1   C17 6458   5.066   5.870   4.426 -0.3981  0.3206 -0.4617
   72CHL1   H17 6459   5.164   5.889   4.476 -0.8775 -0.1178  0.6801
   72CHL1   C13 6460   5.060   5.955   4.294 -0.7633 -0.0816  0.0060
   72CHL1   C18 6461   4.913   5.936   4.244  0.3215 -0.0523  0.1359
   72CHL1  H18A 6462   4.873   5.833   4.248  0.1321 -0.2690 -3.6181
   72CHL1  H18B 6463   4.857   6.003   4.313 -0.7427 -0.6036 -0.1786
   72CHL1  H18C 6464   4.898   5.982   4.144  0.8827  0.7399  0.4076
   72CHL1   C12 6465   5.099   6.105   4.308 -0.2729 -0.0172 -0.0071
   72CHL1  H12A 6466   5.042   6.159   4.386  1.2490 -0.4944  1.4777
   72CHL1  H12B 6467   5.204   6.109   4.343  0.5738 -2.1975 -2.0385
   72CHL1   C11 6468   5.091   6.180   4.166 -0.5781  1.0490 -0.3180
   72CHL1  H11A 6469   4.985   6.197   4.140 -0.4916  0.2664 -1.2791
   72CHL1  H11B 6470   5.142   6.278   4.173 -0.5209  1.0767 -1.0130
   72CHL1    C9 6471   5.169   6.102   4.062  0.4459 -0.2320  0.5055
   72CHL1    H9 6472   5.279   6.101   4.079  0.5002 -2.5635  0.3990
   72CHL1   C10 6473   5.142   6.155   3.913  0.1325 -0.2360  0.6072
   72CHL1   C19 6474   4.989   6.183   3.901  0.2987  0.3519  0.5909
   72CHL1  H19A 6475   4.930   6.095   3.933 -0.0277 -0.2446 -1.4889
   72CHL1  H19B 6476   4.967   6.271   3.965  1.1951  0.8050  0.3084
   72CHL1  H19C 6477   4.958   6.219   3.800  1.5375 -0.6758 -0.1889
   72CHL1    C1 6478   5.210   6.294   3.893 -0.0594 -0.5016  0.2920
   72CHL1   H1A 6479   5.164   6.359   3.970  0.2695 -0.2418  0.2759
   72CHL1   H1B 6480   5.318   6.278   3.914  0.3482  1.3804 -0.1605
   72CHL1    C2 6481   5.207   6.354   3.749 -0.3396 -0.4948 -0.0441
   72CHL1   H2A 6482   5.259   6.451   3.760  0.0940 -0.8176  0.8313
   72CHL1   H2B 6483   5.101   6.382   3.732  0.1308  1.5997  0.2269
   72CHL1   C20 6484   4.960   5.883   4.535 -0.1531 -0.8198 -0.6018
   72CHL1   H20 6485   4.858   5.860   4.498 -0.9319  1.9286 -0.3664
   72CHL1   C21 6486   4.971   6.023   4.596  0.2266  0.4047 -0.0676
   72CHL1  H21A 6487   5.073   6.065   4.609 -0.9219  3.4798 -0.1960
   72CHL1  H21B 6488   4.925   6.023   4.698  0.5025 -0.5270  0.0669
   72CHL1  H21C 6489   4.914   6.100   4.540  1.3005  1.2311 -0.0529
   72CHL1   C22 6490   4.979   5.778   4.642 -0.2371  0.4130 -0.2036
   72CHL1  H22A 6491   4.990   5.679   4.594 -1.3417  1.9762 -4.0921
   72CHL1  H22B 6492   5.060   5.793   4.717 -1.6926  1.4275  1.2324
   72CHL1   C23 6493   4.844   5.763   4.731 -0.1856  0.0256  0.0000
   72CHL1  H23A 6494   4.830   5.847   4.802 -0.7517  1.4431 -1.7158
   72CHL1  H23B 6495   4.751   5.757   4.670 -0.6210  3.5765  0.1177
   72CHL1   C24 6496   4.852   5.625   4.807 -0.7670 -0.0463  0.0978
   72CHL1  H24A 6497   4.863   5.539   4.737  1.3812  1.1548 -1.1428
   72CHL1  H24B 6498   4.938   5.619   4.877 -0.1869  1.0004 -0.5055
   72CHL1   C25 6499   4.731   5.584   4.899 -0.2885  0.5459 -0.5138
   72CHL1   H25 6500   4.655   5.662   4.878  3.4406  4.8853  0.4878
   72CHL1   C26 6501   4.674   5.449   4.850  0.7369  0.1688  0.5570
   72CHL1  H26A 6502   4.649   5.459   4.743  2.0078 -1.3600  0.0810
   72CHL1  H26B 6503   4.739   5.360   4.864  1.6672  0.8714  0.7756
   72CHL1  H26C 6504   4.581   5.428   4.907  1.5461 -0.0202  1.8655
   72CHL1   C27 6505   4.779   5.572   5.048 -0.8254 -0.4030  0.7319
   72CHL1  H27A 6506   4.819   5.471   5.072  0.6618 -0.7074 -2.4843
   72CHL1  H27B 6507   4.857   5.645   5.075  0.5408 -1.9895  1.2606
   72CHL1  H27C 6508   4.694   5.604   5.112 -0.4568  2.6328 -0.1544
   73CHL1    C3 6509   4.612   2.448   3.954 -0.0515  0.2391 -0.2815
   73CHL1    H3 6510   4.516   2.402   3.922 -0.2856  0.2281  0.4203
   73CHL1    O3 6511   4.683   2.467   3.833 -0.2801 -0.5516 -0.3372
   73CHL1   H3' 6512   4.644   2.548   3.799 -1.6686 -1.2651 -0.5360
   73CHL1    C4 6513   4.602   2.587   4.013  0.1990  0.1072  0.5359
   73CHL1   H4A 6514   4.697   2.641   4.034  1.8091 -1.9663 -0.9945
   73CHL1   H4B 6515   4.546   2.643   3.936 -1.6279 -1.6552  0.5016
   73CHL1    C5 6516   4.531   2.584   4.144 -1.0446 -0.5139  0.6046
   73CHL1    C6 6517   4.416   2.654   4.172  0.1143 -0.1481 -0.3828
   73CHL1    H6 6518   4.373   2.718   4.093 -1.6213 -1.8128 -0.8511
   73CHL1    C7 6519   4.344   2.649   4.307 -0.0606 -0.5439  0.5907
   73CHL1   H7A 6520   4.301   2.742   4.349 -0.2157 -1.1973  1.9451
   73CHL1   H7B 6521   4.258   2.579   4.304 -1.0915  0.6870  0.5363
   73CHL1    C8 6522   4.431   2.594   4.426  0.6929  0.3215  0.4224
   73CHL1    H8 6523   4.492   2.680   4.462  0.2796  1.7412 -2.0467
   73CHL1   C14 6524   4.341   2.552   4.546 -0.2823  0.0279 -0.1239
   73CHL1   H14 6525   4.285   2.465   4.506  0.5377 -0.3837 -0.3915
   73CHL1   C15 6526   4.230   2.645   4.600  0.3982 -0.1226  0.0693
   73CHL1  H15A 6527   4.273   2.741   4.636 -0.7810  0.0916  0.9676
   73CHL1  H15B 6528   4.152   2.656   4.522  2.4714  1.0117 -1.9967
   73CHL1   C16 6529   4.191   2.577   4.736  0.4348  0.6821  0.0877
   73CHL1  H16A 6530   4.180   2.649   4.820 -2.4327 -0.0414  0.4460
   73CHL1  H16B 6531   4.090   2.531   4.733  0.1630  1.3043 -0.5842
   73CHL1   C17 6532   4.298   2.470   4.767  0.0944  0.3613 -0.5882
   73CHL1   H17 6533   4.258   2.369   4.745  1.5397 -0.7789  1.6309
   73CHL1   C13 6534   4.417   2.498   4.669  0.1222 -0.0835  0.9969
   73CHL1   C18 6535   4.509   2.607   4.719 -0.9576 -0.4010 -0.9805
   73CHL1  H18A 6536   4.451   2.702   4.716 -1.1049 -0.4266  0.4327
   73CHL1  H18B 6537   4.546   2.601   4.824 -4.5259 -0.1721  0.4384
   73CHL1  H18C 6538   4.590   2.619   4.644 -0.2464 -2.2831 -0.5640
   73CHL1   C12 6539   4.497   2.373   4.627  0.1999 -0.4509 -0.4760
   73CHL1  H12A 6540   4.563   2.327   4.703 -0.6475 -2.4373 -0.8889
   73CHL1  H12B 6541   4.428   2.292   4.593  1.3998 -1.7207  0.0187
   73CHL1   C11 6542   4.578   2.399   4.501 -0.9626  0.0438 -0.4403
   73CHL1  H11A 6543   4.666   2.460   4.532 -0.3005 -1.0860 -0.0135
   73CHL1  H11B 6544   4.624   2.304   4.464 -0.2747 -0.5089  1.6931
   73CHL1    C9 6545   4.512   2.468   4.380  0.2595 -0.1997  0.1459
   73CHL1    H9 6546   4.439   2.391   4.347  0.7044 -0.9090  0.7936
   73CHL1   C10 6547   4.594   2.489   4.250 -0.3974 -1.1550 -0.5616
   73CHL1   C19 6548   4.727   2.556   4.289  0.7899  0.1590  0.4055
   73CHL1  H19A 6549   4.694   2.641   4.353  2.1365 -0.2342  1.6762
   73CHL1  H19B 6550   4.787   2.500   4.364 -0.2022 -0.4093  0.7895
   73CHL1  H19C 6551   4.797   2.593   4.211  2.1954  2.0482  2.4513
   73CHL1    C1 6552   4.607   2.352   4.180  0.6415 -0.5530  0.2926
   73CHL1   H1A 6553   4.653   2.279   4.250 -2.2193 -2.9717 -0.1804
   73CHL1   H1B 6554   4.504   2.316   4.161  0.4165  0.4678 -0.5004
   73CHL1    C2 6555   4.694   2.361   4.052  0.0007 -0.4494  0.1412
   73CHL1   H2A 6556   4.692   2.258   4.010 -1.1382  0.2112 -1.5346
   73CHL1   H2B 6557   4.794   2.408   4.062 -0.7891  1.7086 -1.4322
   73CHL1   C20 6558   4.328   2.459   4.919 -0.0593  0.5694 -0.3690
   73CHL1   H20 6559   4.351   2.560   4.959  2.7217  0.2643 -1.0106
   73CHL1   C21 6560   4.442   2.365   4.954 -0.1200 -1.1284  0.2909
   73CHL1  H21A 6561   4.449   2.334   5.060 -1.4369 -0.8413  0.4800
   73CHL1  H21B 6562   4.535   2.418   4.925 -1.4405  1.0078 -0.2494
   73CHL1  H21C 6563   4.430   2.273   4.893 -0.6854 -0.5818 -0.4452
   73CHL1   C22 6564   4.210   2.392   4.996 -0.0544  0.1615 -0.5175
   73CHL1  H22A 6565   4.126   2.463   4.981 -0.2352  0.2188  0.6830
   73CHL1  H22B 6566   4.180   2.301   4.940  1.1869  1.4404 -3.4433
   73CHL1   C23 6567   4.215   2.398   5.146  0.1207 -0.2700  0.3796
   73CHL1  H23A 6568   4.290   2.337   5.200  1.7004  1.6196  0.4139
   73CHL1  H23B 6569   4.236   2.505   5.167 -2.2167  0.8121 -2.1831
   73CHL1   C24 6570   4.077   2.385   5.205 -0.1751  0.0404 -0.0563
   73CHL1  H24A 6571   4.008   2.467   5.178 -1.4852  0.4050  3.8240
   73CHL1  H24B 6572   4.020   2.299   5.162  0.3776 -0.2597 -0.1996
   73CHL1   C25 6573   4.080   2.371   5.356 -0.1541 -0.0897 -1.6729
   73CHL1   H25 6574   4.154   2.294   5.389 -0.5594  0.4868  0.7826
   73CHL1   C26 6575   4.111   2.499   5.438  0.7768 -0.0748 -0.1965
   73CHL1  H26A 6576   4.041   2.585   5.423  0.7697  0.1945  1.2292
   73CHL1  H26B 6577   4.123   2.470   5.545  2.7401  0.9734 -0.0887
   73CHL1  H26C 6578   4.214   2.538   5.424  1.3656 -0.6471  2.0363
   73CHL1   C27 6579   3.942   2.313   5.401  0.7351  0.3568 -0.0409
   73CHL1  H27A 6580   3.953   2.285   5.508  0.0826  0.9660  0.1880
   73CHL1  H27B 6581   3.867   2.394   5.406  1.6668  1.3445 -1.5192
   73CHL1  H27C 6582   3.908   2.231   5.334  0.0400  1.1342 -0.6527
   74CHL1    C3 6583   2.976   0.448   3.853  0.1899  0.0569 -0.3218
   74CHL1    H3 6584   2.871   0.468   3.884  0.2033 -0.9860  0.4503
   74CHL1    O3 6585   2.984   0.432   3.717  0.5330  0.0477  0.8543
   74CHL1   H3' 6586   3.044   0.359   3.700  2.5425  1.7875  0.1312
   74CHL1    C4 6587   3.062   0.578   3.880  0.3569  0.3281  0.1511
   74CHL1   H4A 6588   3.162   0.555   3.837  0.4634  1.0059  0.0346
   74CHL1   H4B 6589   3.014   0.664   3.829 -0.5443  0.1744  0.7218
   74CHL1    C5 6590   3.083   0.609   4.027 -0.0345  0.0484  0.8689
   74CHL1    C6 6591   3.052   0.730   4.070 -0.3089 -0.7072  0.1739
   74CHL1    H6 6592   3.034   0.805   3.991  0.0840 -1.3832 -0.5756
   74CHL1    C7 6593   3.079   0.778   4.212 -0.2310  0.3383  0.3298
   74CHL1   H7A 6594   3.148   0.865   4.214 -2.2925  2.1145 -0.7728
   74CHL1   H7B 6595   2.987   0.809   4.266  1.4246  0.6181  3.1914
   74CHL1    C8 6596   3.148   0.666   4.293 -0.0772 -0.1941 -0.2454
   74CHL1    H8 6597   3.255   0.664   4.264 -0.4334 -3.3151 -1.8360
   74CHL1   C14 6598   3.121   0.691   4.447  0.6037 -0.4297  0.7119
   74CHL1   H14 6599   3.012   0.695   4.463  0.7025 -1.2168  1.6400
   74CHL1   C15 6600   3.171   0.831   4.502  1.0730  0.5511  0.1375
   74CHL1  H15A 6601   3.273   0.846   4.460  1.6452 -1.4381  0.6934
   74CHL1  H15B 6602   3.110   0.920   4.477 -0.3650 -0.7783 -1.2656
   74CHL1   C16 6603   3.177   0.808   4.656  0.0781 -0.6002 -0.1086
   74CHL1  H16A 6604   3.285   0.826   4.676 -0.0555  1.4899 -1.0432
   74CHL1  H16B 6605   3.107   0.875   4.711  0.6340 -0.4385  0.4218
   74CHL1   C17 6606   3.146   0.657   4.683 -0.3450  1.0616 -0.2090
   74CHL1   H17 6607   3.038   0.638   4.702 -0.4848  1.7103 -0.3479
   74CHL1   C13 6608   3.174   0.591   4.545 -0.3544 -0.0337 -0.2357
   74CHL1   C18 6609   3.328   0.584   4.532 -0.3765 -0.1449  0.1085
   74CHL1  H18A 6610   3.366   0.596   4.428 -1.3125 -2.4790 -0.5590
   74CHL1  H18B 6611   3.392   0.656   4.586  0.3257 -1.3602  0.9236
   74CHL1  H18C 6612   3.360   0.484   4.567 -2.0938 -0.8118 -0.1406
   74CHL1   C12 6613   3.087   0.462   4.520 -0.3412  0.8810 -0.5026
   74CHL1  H12A 6614   3.098   0.374   4.587  0.3345  1.5376  0.2755
   74CHL1  H12B 6615   2.987   0.505   4.538 -0.9303 -0.9808  1.0897
   74CHL1   C11 6616   3.113   0.415   4.370 -0.2046 -0.5791 -0.2579
   74CHL1  H11A 6617   3.216   0.374   4.359  0.3113  0.8004 -0.8574
   74CHL1  H11B 6618   3.050   0.325   4.358 -0.6070 -0.1702 -1.3092
   74CHL1    C9 6619   3.081   0.527   4.263 -0.1175  0.3775 -0.3165
   74CHL1    H9 6620   2.971   0.533   4.277 -0.2249 -1.9423  0.2834
   74CHL1   C10 6621   3.113   0.490   4.121  0.5216 -0.4447  0.1350
   74CHL1   C19 6622   3.264   0.453   4.107  0.2276  0.5296  0.1260
   74CHL1  H19A 6623   3.289   0.354   4.150  0.9501  0.6428 -0.0219
   74CHL1  H19B 6624   3.290   0.436   4.000 -0.7793 -0.1101 -0.0272
   74CHL1  H19C 6625   3.337   0.528   4.146  1.7696  0.2269 -1.9731
   74CHL1    C1 6626   3.028   0.365   4.089 -0.7680  0.5296 -0.0189
   74CHL1   H1A 6627   3.071   0.280   4.145 -0.7287 -1.0651 -2.3441
   74CHL1   H1B 6628   2.926   0.379   4.130 -0.3778  0.3196  1.0611
   74CHL1    C2 6629   3.022   0.327   3.937  0.2114  0.5096  0.7265
   74CHL1   H2A 6630   2.945   0.247   3.929 -0.1056  0.5373  2.8823
   74CHL1   H2B 6631   3.125   0.301   3.907 -0.4492 -0.2670 -1.0010
   74CHL1   C20 6632   3.234   0.608   4.804 -0.4060 -0.0625  0.8458
   74CHL1   H20 6633   3.339   0.624   4.771 -1.0931 -0.4417 -1.7248
   74CHL1   C21 6634   3.214   0.455   4.821  0.1317 -0.1613 -0.3818
   74CHL1  H21A 6635   3.285   0.393   4.763 -0.6525 -1.5419  0.1037
   74CHL1  H21B 6636   3.111   0.430   4.789  0.6226  0.1259 -2.2777
   74CHL1  H21C 6637   3.221   0.424   4.927 -0.1043 -0.1363 -0.3570
   74CHL1   C22 6638   3.200   0.690   4.927  0.2393 -0.0204  0.1162
   74CHL1  H22A 6639   3.150   0.789   4.926 -0.5645 -0.3591  2.0234
   74CHL1  H22B 6640   3.121   0.622   4.965 -0.3572  1.1195  0.9868
   74CHL1   C23 6641   3.293   0.683   5.047 -0.4539 -0.3768 -0.7915
   74CHL1  H23A 6642   3.331   0.579   5.058  0.3329 -0.1567 -1.3800
   74CHL1  H23B 6643   3.382   0.739   5.011 -0.5742 -0.2823 -0.9464
   74CHL1   C24 6644   3.221   0.754   5.167 -0.2171 -0.8259  0.0975
   74CHL1  H24A 6645   3.173   0.854   5.161  0.6615 -0.4485 -0.9959
   74CHL1  H24B 6646   3.148   0.675   5.197 -0.7030 -0.9767 -1.3928
   74CHL1   C25 6647   3.320   0.780   5.282  0.1378 -0.4765 -0.2543
   74CHL1   H25 6648   3.388   0.862   5.251  2.6652 -1.0920  3.0307
   74CHL1   C26 6649   3.256   0.845   5.405  0.4529  0.0226  0.4327
   74CHL1  H26A 6650   3.331   0.845   5.487 -1.7053 -0.0210  2.5001
   74CHL1  H26B 6651   3.206   0.943   5.389 -1.0317 -0.9781 -1.5490
   74CHL1  H26C 6652   3.178   0.771   5.433 -0.0806  1.3843  2.8121
   74CHL1   C27 6653   3.404   0.654   5.312  0.4559 -0.1532 -0.1249
   74CHL1  H27A 6654   3.481   0.642   5.232  0.3478 -2.0155  0.0238
   74CHL1  H27B 6655   3.462   0.658   5.407  0.4061  0.2344 -0.1091
   74CHL1  H27C 6656   3.339   0.567   5.332 -0.4173  0.5467  0.1243
   75CHL1    C3 6657   4.028   1.018   3.837  0.3769 -0.8095 -0.7980
   75CHL1    H3 6658   4.066   1.121   3.851 -1.8386 -0.1926  1.2609
   75CHL1    O3 6659   4.004   0.997   3.698 -0.2547  0.9252  0.0422
   75CHL1   H3' 6660   3.946   0.921   3.692  2.3689 -1.5203  2.1284
   75CHL1    C4 6661   4.133   0.916   3.882 -0.6256  0.7171 -0.1404
   75CHL1   H4A 6662   4.094   0.814   3.860  1.8269 -0.0023 -1.5840
   75CHL1   H4B 6663   4.228   0.908   3.825 -0.3880  0.1517  0.3235
   75CHL1    C5 6664   4.173   0.939   4.029 -0.2608 -0.5100  0.5346
   75CHL1    C6 6665   4.300   0.969   4.067  0.1622 -0.1891 -0.2772
   75CHL1    H6 6666   4.371   0.967   3.983  0.5534  2.1593 -0.0777
   75CHL1    C7 6667   4.340   1.007   4.205 -0.1265  0.1420 -0.6323
   75CHL1   H7A 6668   4.440   0.966   4.232  0.0026  0.5208 -0.5366
   75CHL1   H7B 6669   4.340   1.117   4.214 -1.4528  0.0935  0.2903
   75CHL1    C8 6670   4.235   0.957   4.313 -0.6069 -0.3018  0.6873
   75CHL1    H8 6671   4.236   0.846   4.311 -0.2932 -0.3382 -3.1804
   75CHL1   C14 6672   4.268   1.019   4.446  0.5000 -0.0915  0.3798
   75CHL1   H14 6673   4.242   1.126   4.434  0.2578 -0.2125 -0.2344
   75CHL1   C15 6674   4.414   1.015   4.488  0.2200  0.6086  0.7671
   75CHL1  H15A 6675   4.447   0.911   4.464  0.6887  1.0336 -0.4631
   75CHL1  H15B 6676   4.476   1.088   4.432  0.0637 -0.8514 -1.4309
   75CHL1   C16 6677   4.417   1.045   4.638  0.0044  0.2382  0.6050
   75CHL1  H16A 6678   4.483   0.980   4.700  0.2642  0.8518  0.9767
   75CHL1  H16B 6679   4.440   1.152   4.654 -0.1315  0.2408  0.7870
   75CHL1   C17 6680   4.266   1.036   4.682  0.5849  0.1105  0.3155
   75CHL1   H17 6681   4.227   1.140   4.690 -1.7333 -0.7584  1.4347
   75CHL1   C13 6682   4.185   0.973   4.569 -0.1235 -0.4705 -0.6177
   75CHL1   C18 6683   4.195   0.820   4.581  0.0704 -0.2876 -0.1913
   75CHL1  H18A 6684   4.130   0.772   4.658  0.9135 -0.9939  0.1043
   75CHL1  H18B 6685   4.161   0.777   4.484 -1.4452  0.1182  0.1420
   75CHL1  H18C 6686   4.297   0.785   4.608 -0.1098 -1.2213 -0.6755
   75CHL1   C12 6687   4.044   1.015   4.529 -0.0517  0.2279  0.0588
   75CHL1  H12A 6688   3.982   0.959   4.603  0.9540  0.4554  1.1090
   75CHL1  H12B 6689   4.021   1.123   4.543 -0.3147  0.2961 -0.8505
   75CHL1   C11 6690   3.992   0.969   4.395  0.0149  0.2491 -0.2065
   75CHL1  H11A 6691   3.979   0.859   4.402  1.2470 -0.0125 -1.4384
   75CHL1  H11B 6692   3.895   1.018   4.375 -0.0545 -0.0227 -0.5533
   75CHL1    C9 6693   4.092   0.991   4.275  0.6796 -0.1779  1.0867
   75CHL1    H9 6694   4.088   1.102   4.275 -0.8466 -0.1690  3.1680
   75CHL1   C10 6695   4.059   0.943   4.125 -0.0687  0.5622  0.5543
   75CHL1   C19 6696   4.017   0.800   4.151  0.2948  0.0603  0.6161
   75CHL1  H19A 6697   4.098   0.746   4.205  0.6301  0.4788  0.5325
   75CHL1  H19B 6698   3.924   0.818   4.209 -1.5331  0.1950 -2.1580
   75CHL1  H19C 6699   3.993   0.747   4.056 -0.3579 -1.5159  1.6087
   75CHL1    C1 6700   3.947   1.035   4.068  0.2212  0.1723  0.8578
   75CHL1   H1A 6701   3.852   1.023   4.124 -0.7989 -1.7630 -1.1359
   75CHL1   H1B 6702   3.985   1.139   4.071  3.3763 -0.8311 -0.1459
   75CHL1    C2 6703   3.908   1.000   3.919  0.2487 -0.4586 -0.0523
   75CHL1   H2A 6704   3.831   1.074   3.888 -1.1689 -1.5738  0.6820
   75CHL1   H2B 6705   3.872   0.895   3.920  2.3614 -1.2600  2.2527
   75CHL1   C20 6706   4.244   0.989   4.828  0.1252  0.6670  0.4622
   75CHL1   H20 6707   4.277   0.883   4.826 -0.0433  0.6237 -0.6604
   75CHL1   C21 6708   4.089   0.985   4.856 -0.0742  0.3010  0.3829
   75CHL1  H21A 6709   4.063   0.959   4.961 -0.9562  1.1572  0.3880
   75CHL1  H21B 6710   4.057   0.908   4.782  0.3617  1.6626 -1.2689
   75CHL1  H21C 6711   4.041   1.083   4.836  1.3411  0.9887  0.2843
   75CHL1   C22 6712   4.320   1.067   4.937 -1.5488 -0.4200 -0.1703
   75CHL1  H22A 6713   4.429   1.052   4.920 -1.3420 -0.8496  1.3546
   75CHL1  H22B 6714   4.298   1.175   4.942 -0.2905  0.0596 -2.9036
   75CHL1   C23 6715   4.298   1.020   5.078  0.3204  0.3906 -0.5625
   75CHL1  H23A 6716   4.206   1.062   5.124  0.7271 -1.7891  2.5830
   75CHL1  H23B 6717   4.294   0.909   5.073 -0.3758  0.3833  0.0154
   75CHL1   C24 6718   4.417   1.055   5.172 -0.2016 -0.4757  0.2146
   75CHL1  H24A 6719   4.502   0.989   5.148  2.1684  2.4484  0.0073
   75CHL1  H24B 6720   4.446   1.162   5.160  0.5953 -0.4252  2.2355
   75CHL1   C25 6721   4.383   1.037   5.324  0.3186 -0.0456 -0.1425
   75CHL1   H25 6722   4.300   1.108   5.349 -2.0050 -1.6252 -2.8082
   75CHL1   C26 6723   4.331   0.903   5.348  0.6030  0.8599  0.2648
   75CHL1  H26A 6724   4.313   0.890   5.457  1.7969  0.6757  0.4591
   75CHL1  H26B 6725   4.237   0.882   5.293  1.6675  1.9905 -2.1508
   75CHL1  H26C 6726   4.409   0.826   5.328 -0.9668 -1.2255  1.8298
   75CHL1   C27 6727   4.495   1.075   5.414 -0.3303 -0.5563 -0.1162
   75CHL1  H27A 6728   4.456   1.060   5.517 -0.2873 -0.8068 -0.1350
   75CHL1  H27B 6729   4.585   1.014   5.392 -1.6399 -2.9515  0.7607
   75CHL1  H27C 6730   4.515   1.184   5.405  1.3901 -0.6868  1.5045
   76CHL1    C3 6731   2.127   0.223   3.824  0.3086 -0.0437 -0.1283
   76CHL1    H3 6732   2.106   0.115   3.840  3.1491 -0.4429  1.5380
   76CHL1    O3 6733   2.143   0.252   3.688 -0.1343  0.3440 -0.1921
   76CHL1   H3' 6734   2.075   0.198   3.646 -0.3799 -0.2343  0.9004
   76CHL1    C4 6735   2.011   0.306   3.888  0.5633 -0.5214 -0.1222
   76CHL1   H4A 6736   2.028   0.415   3.872 -0.4836  0.1133  2.6425
   76CHL1   H4B 6737   1.923   0.273   3.829 -0.3764  2.0978 -0.3013
   76CHL1    C5 6738   1.986   0.290   4.033 -0.3552  0.8673 -0.1463
   76CHL1    C6 6739   1.867   0.259   4.084 -0.6138 -0.1629  0.1920
   76CHL1    H6 6740   1.778   0.252   4.020 -1.0623 -1.9674  0.9424
   76CHL1    C7 6741   1.835   0.245   4.232 -0.6118  0.1924 -0.0037
   76CHL1   H7A 6742   1.755   0.313   4.266  1.5091  1.2934  3.3101
   76CHL1   H7B 6743   1.817   0.138   4.255  1.0179 -0.1858 -0.3309
   76CHL1    C8 6744   1.955   0.281   4.327  0.5397  0.1791  0.5422
   76CHL1    H8 6745   1.959   0.390   4.349  0.7381 -0.0124  1.4865
   76CHL1   C14 6746   1.940   0.210   4.460 -0.1926  0.4395 -0.1582
   76CHL1   H14 6747   1.953   0.102   4.436 -2.0462  0.0555  0.4248
   76CHL1   C15 6748   1.803   0.214   4.530 -0.0284  0.7397  0.3120
   76CHL1  H15A 6749   1.749   0.309   4.507  0.2112  0.5574 -1.0981
   76CHL1  H15B 6750   1.740   0.125   4.511 -0.8286  1.4615 -0.5484
   76CHL1   C16 6751   1.836   0.205   4.681  0.0822 -0.5726 -0.2145
   76CHL1  H16A 6752   1.818   0.304   4.727  0.0575  0.6244 -2.6451
   76CHL1  H16B 6753   1.770   0.134   4.735 -2.4449  0.1113 -2.2266
   76CHL1   C17 6754   1.982   0.164   4.679 -0.0906  0.5249  0.2293
   76CHL1   H17 6755   1.980   0.057   4.650  1.8015 -0.1650  2.3197
   76CHL1   C13 6756   2.041   0.242   4.563  0.5667 -0.1229  0.5309
   76CHL1   C18 6757   2.040   0.393   4.597 -0.1577 -1.0528 -1.1457
   76CHL1  H18A 6758   1.936   0.420   4.625  0.6855  0.1763  1.0310
   76CHL1  H18B 6759   2.106   0.422   4.682 -1.9516 -1.7104  0.5433
   76CHL1  H18C 6760   2.074   0.452   4.509  0.1720 -1.2209 -1.1330
   76CHL1   C12 6761   2.173   0.202   4.508  0.5999  0.4485 -0.6562
   76CHL1  H12A 6762   2.255   0.212   4.583 -0.2326 -1.0024  0.5168
   76CHL1  H12B 6763   2.170   0.092   4.491  0.8374  0.2729  0.3896
   76CHL1   C11 6764   2.205   0.267   4.371 -0.3178  0.6590 -0.2147
   76CHL1  H11A 6765   2.212   0.377   4.383  1.0807  0.6609 -0.8149
   76CHL1  H11B 6766   2.298   0.224   4.328 -0.7559 -3.3999  2.3358
   76CHL1    C9 6767   2.090   0.243   4.265  0.4579 -0.9045  0.6296
   76CHL1    H9 6768   2.080   0.133   4.249  2.5880 -1.0594  0.0070
   76CHL1   C10 6769   2.118   0.297   4.118 -0.1579  0.3804  0.7238
   76CHL1   C19 6770   2.152   0.449   4.133 -0.2777 -0.4519  0.3903
   76CHL1  H19A 6771   2.067   0.507   4.174  1.8248  0.6629  3.5423
   76CHL1  H19B 6772   2.240   0.474   4.196 -0.4546  1.9278 -0.2178
   76CHL1  H19C 6773   2.174   0.494   4.033  1.0564  2.0855  1.7410
   76CHL1    C1 6774   2.245   0.231   4.046  0.0005  0.3180  0.2771
   76CHL1   H1A 6775   2.334   0.257   4.108  1.2934 -1.5972 -0.6649
   76CHL1   H1B 6776   2.234   0.121   4.055 -2.0873  0.5323  0.7764
   76CHL1    C2 6777   2.255   0.257   3.900 -0.2410  0.2980 -0.3140
   76CHL1   H2A 6778   2.346   0.205   3.865 -0.6648  0.0579 -1.0916
   76CHL1   H2B 6779   2.273   0.366   3.887 -1.1138  0.5631  0.5516
   76CHL1   C20 6780   2.066   0.167   4.811 -0.7758  0.4479  0.7038
   76CHL1   H20 6781   2.116   0.266   4.824 -0.4706  0.3270  0.4550
   76CHL1   C21 6782   2.177   0.057   4.799  0.1006 -0.0071 -0.1800
   76CHL1  H21A 6783   2.259   0.074   4.871  1.8060 -0.4130 -1.9536
   76CHL1  H21B 6784   2.213   0.047   4.694 -1.3999  0.2954 -0.7550
   76CHL1  H21C 6785   2.133  -0.041   4.826 -0.4969  0.4150  0.4199
   76CHL1   C22 6786   1.984   0.149   4.946 -0.3155  0.6224 -0.7106
   76CHL1  H22A 6787   1.901   0.223   4.954 -0.9927 -0.3108  1.5739
   76CHL1  H22B 6788   1.936   0.051   4.966 -1.7648  1.3711 -0.3515
   76CHL1   C23 6789   2.072   0.172   5.070  0.6353 -0.3075 -0.3513
   76CHL1  H23A 6790   2.142   0.088   5.090  1.6842  0.9660  1.7219
   76CHL1  H23B 6791   2.135   0.264   5.066 -1.4364  1.1867 -0.0399
   76CHL1   C24 6792   1.980   0.181   5.198 -0.3244 -0.0476  0.0816
   76CHL1  H24A 6793   1.897   0.254   5.185  3.4679  4.3833 -2.1376
   76CHL1  H24B 6794   1.954   0.078   5.230 -0.1438  0.1432  0.8566
   76CHL1   C25 6795   2.055   0.216   5.334  0.0567  0.1201  0.1218
   76CHL1   H25 6796   2.116   0.125   5.353  1.1151  1.2416  2.3728
   76CHL1   C26 6797   2.148   0.337   5.323 -0.0783  0.0383 -0.0008
   76CHL1  H26A 6798   2.087   0.422   5.286  0.2428 -0.1651 -1.0320
   76CHL1  H26B 6799   2.205   0.361   5.415  0.9126 -1.3981 -0.2032
   76CHL1  H26C 6800   2.223   0.317   5.242 -1.5618 -2.1174 -0.9468
   76CHL1   C27 6801   1.953   0.242   5.445 -0.3270  0.2926 -0.1428
   76CHL1  H27A 6802   2.012   0.273   5.534 -1.5413  2.2200  0.0619
   76CHL1  H27B 6803   1.878   0.320   5.419  2.7801  3.2628 -0.9361
   76CHL1  H27C 6804   1.911   0.143   5.475  0.8950 -0.4980 -0.9765
   77SOPE     N 6805   0.452   6.713   7.457 -0.0401  0.4042  0.1012
   77SOPE   HN1 6806   0.504   6.703   7.546  1.0495 -2.9249 -0.7559
   77SOPE   HN2 6807   0.416   6.810   7.460 -0.5108  0.2026  1.6189
   77SOPE   HN3 6808   0.369   6.651   7.463 -1.0432  1.5106 -1.6518
   77SOPE   C12 6809   0.531   6.684   7.334  0.3974 -0.0782  0.6992
   77SOPE  H12A 6810   0.476   6.726   7.248  0.8913 -0.5219  0.1603
   77SOPE  H12B 6811   0.537   6.573   7.328  2.5043 -0.1664  2.6542
   77SOPE   C11 6812   0.672   6.744   7.333 -0.5604 -0.5227  0.1691
   77SOPE  H11A 6813   0.650   6.853   7.340  0.0797 -0.3877  0.1326
   77SOPE  H11B 6814   0.722   6.724   7.236 -0.6288  0.5941 -0.1113
   77SOPE     P 6815   0.896   6.747   7.455 -0.1431  0.2629  0.1071
   77SOPE   O13 6816   0.952   6.676   7.572  0.0324  0.6710 -0.1947
   77SOPE   O14 6817   0.904   6.896   7.450  0.2763  0.0300  0.2995
   77SOPE   O12 6818   0.749   6.702   7.443 -0.7319  0.0464 -0.5456
   77SOPE   O11 6819   0.971   6.687   7.321  0.7781 -0.1285 -1.1863
   77SOPE    C1 6820   0.964   6.537   7.327 -0.1538 -0.2791  0.1678
   77SOPE    HA 6821   0.861   6.505   7.354 -0.3979  2.4852  3.0964
   77SOPE    HB 6822   1.038   6.491   7.395  0.1676 -0.4235 -0.2761
   77SOPE    C2 6823   0.993   6.482   7.177  0.6821  0.8312 -0.1393
   77SOPE    HS 6824   1.104   6.480   7.173  0.7365 -3.9143 -2.7594
   77SOPE   O21 6825   0.934   6.566   7.080  0.5893 -0.1178 -0.0957
   77SOPE   C21 6826   1.003   6.572   6.967  0.4455  0.0822  1.0448
   77SOPE   O22 6827   1.118   6.527   6.946 -0.0721  0.0950  0.1601
   77SOPE   C22 6828   0.916   6.641   6.866  0.8042  0.7741  0.1198
   77SOPE   H2R 6829   0.927   6.751   6.878  1.3247  0.6933  0.4098
   77SOPE   H2S 6830   0.808   6.616   6.879  1.1286  0.3609  2.3998
   77SOPE    C3 6831   0.956   6.335   7.162  0.9122  0.0790 -0.4063
   77SOPE    HX 6832   0.856   6.318   7.208  1.8981 -4.0983  0.5534
   77SOPE    HY 6833   1.017   6.284   7.239 -0.3187  0.9312  1.1995
   77SOPE   O31 6834   0.949   6.286   7.025  0.1578  0.0783 -0.3186
   77SOPE   C31 6835   1.064   6.226   6.981  0.4112 -0.4766  0.4487
   77SOPE   O32 6836   1.150   6.183   7.055 -0.7590  0.0147  0.1407
   77SOPE   C32 6837   1.059   6.217   6.824 -0.4812 -0.2686 -0.0721
   77SOPE   H2X 6838   1.149   6.278   6.799 -0.0643 -0.5694  0.6797
   77SOPE   H2Y 6839   0.973   6.277   6.786  0.0842  1.5246  1.3189
   77SOPE   C23 6840   0.969   6.611   6.723  0.2658  0.0979  0.2937
   77SOPE   H3R 6841   0.882   6.650   6.665  0.3165  0.4993  0.4858
   77SOPE   H3S 6842   0.962   6.502   6.699  2.0103 -0.3039  1.4441
   77SOPE   C24 6843   1.089   6.683   6.671 -0.0764  0.4000 -0.1075
   77SOPE   H4R 6844   1.096   6.790   6.700 -0.6234  0.5551 -0.5159
   77SOPE   H4S 6845   1.180   6.635   6.711 -1.1038 -2.8756 -1.3485
   77SOPE   C25 6846   1.092   6.664   6.519 -0.1310 -0.0709 -0.2468
   77SOPE   H5R 6847   1.112   6.557   6.495  0.3259  0.0644 -0.4758
   77SOPE   H5S 6848   0.990   6.689   6.485 -1.2284  0.4229  3.0751
   77SOPE   C26 6849   1.201   6.743   6.453 -0.3945 -0.6228 -0.5091
   77SOPE   H6R 6850   1.179   6.849   6.477 -0.8793 -0.9060  0.3446
   77SOPE   H6S 6851   1.295   6.714   6.504 -0.7616  0.0907  0.6158
   77SOPE   C27 6852   1.209   6.722   6.306 -0.7976 -0.4167 -0.2431
   77SOPE   H7R 6853   1.294   6.773   6.256 -0.8889  0.8497  0.8502
   77SOPE   H7S 6854   1.231   6.614   6.294  1.8991 -0.0647  0.9377
   77SOPE   C28 6855   1.078   6.767   6.230  0.0395  0.2153  0.2670
   77SOPE   H8R 6856   1.015   6.684   6.271  1.2448 -0.6585  0.3983
   77SOPE   H8S 6857   1.051   6.864   6.276  2.0708  1.1256 -0.3450
   77SOPE   C29 6858   1.083   6.778   6.074 -0.3337 -0.2563 -0.6956
   77SOPE   H91 6859   1.112   6.687   6.019 -0.1240  0.0676 -1.1239
   77SOPE  C210 6860   1.028   6.872   5.995  0.1047 -0.2488 -0.1024
   77SOPE  H101 6861   1.041   6.854   5.887 -1.4865 -0.3617 -0.2969
   77SOPE  C211 6862   0.966   7.003   6.038  0.3446  0.0587 -0.2637
   77SOPE  H11R 6863   1.051   7.075   6.037 -0.6126  1.2242  0.0894
   77SOPE  H11S 6864   0.935   6.999   6.145  1.4898 -0.6518  0.0670
   77SOPE  C212 6865   0.852   7.056   5.952 -0.0269 -0.6437 -0.1134
   77SOPE  H12R 6866   0.867   7.012   5.852 -0.2588 -0.6228 -0.1588
   77SOPE  H12S 6867   0.865   7.167   5.951 -2.8097 -0.2277 -1.9008
   77SOPE  C213 6868   0.716   7.016   6.017  0.2637  0.0820  0.5444
   77SOPE  H13R 6869   0.743   6.992   6.122  1.1438  0.8723  0.5039
   77SOPE  H13S 6870   0.679   6.918   5.979  1.3476 -0.1972  0.1789
   77SOPE  C214 6871   0.613   7.127   6.003  0.2751  0.2535  0.8079
   77SOPE  H14R 6872   0.515   7.080   5.979  0.2645  0.8242 -0.3268
   77SOPE  H14S 6873   0.634   7.192   5.916 -1.7306 -2.7182 -2.1086
   77SOPE  C215 6874   0.603   7.213   6.128 -0.6642  0.5935 -0.9469
   77SOPE  H15R 6875   0.697   7.271   6.131  0.1073 -0.6460  0.6311
   77SOPE  H15S 6876   0.584   7.149   6.217 -1.9298  0.2950 -1.4077
   77SOPE  C216 6877   0.481   7.303   6.114  0.3215 -0.3904 -0.2767
   77SOPE  H16R 6878   0.393   7.236   6.106  1.6591 -2.1657 -0.8114
   77SOPE  H16S 6879   0.486   7.354   6.015  1.4912 -2.1781 -1.1999
   77SOPE  C217 6880   0.453   7.413   6.220  0.5850 -0.6737 -0.2849
   77SOPE  H17R 6881   0.536   7.487   6.213  0.0939 -0.0734  0.1249
   77SOPE  H17S 6882   0.459   7.368   6.321  1.2701 -1.1116 -0.5167
   77SOPE  C218 6883   0.308   7.462   6.195 -0.4449  0.4780 -0.6145
   77SOPE  H18R 6884   0.284   7.532   6.278  1.3267  1.7310 -1.1203
   77SOPE  H18S 6885   0.243   7.372   6.204  1.3469 -1.5752 -5.2466
   77SOPE  H18T 6886   0.287   7.513   6.099  0.2136 -0.7517 -1.4411
   77SOPE   C33 6887   1.078   6.074   6.774 -0.8627 -0.1356  0.4451
   77SOPE   H3X 6888   0.997   6.009   6.813 -0.1489  0.2483  2.7181
   77SOPE   H3Y 6889   1.175   6.022   6.791  0.2098  0.9356 -1.9106
   77SOPE   C34 6890   1.042   6.072   6.621 -0.6469  0.9963 -0.1701
   77SOPE   H4X 6891   0.948   6.117   6.584 -0.2933  2.0630  0.1969
   77SOPE   H4Y 6892   1.038   5.963   6.603 -1.6755  0.9152  0.4921
   77SOPE   C35 6893   1.157   6.130   6.535  0.7741 -0.5473 -0.1218
   77SOPE   H5X 6894   1.256   6.111   6.582  1.5082  1.6106 -0.6742
   77SOPE   H5Y 6895   1.153   6.241   6.524 -0.3729 -0.6995 -1.3432
   77SOPE   C36 6896   1.169   6.070   6.394  0.0647  0.2217 -0.1012
   77SOPE   H6X 6897   1.151   5.961   6.403  2.3341 -0.0125  3.3273
   77SOPE   H6Y 6898   1.272   6.082   6.355  0.9593 -1.2126  1.6994
   77SOPE   C37 6899   1.074   6.127   6.286  0.4817  0.9344 -0.1276
   77SOPE   H7X 6900   0.966   6.124   6.312  0.4180  1.5784 -0.2882
   77SOPE   H7Y 6901   1.085   6.072   6.191 -1.9111 -0.6531  0.4457
   77SOPE   C38 6902   1.111   6.277   6.257 -0.1570  0.3999 -0.0325
   77SOPE   H8X 6903   1.220   6.293   6.253 -0.3606  2.2051  0.6009
   77SOPE   H8Y 6904   1.078   6.331   6.348 -1.1800  0.7394 -0.5851
   77SOPE   C39 6905   1.046   6.346   6.139 -0.1089  0.6269  0.2001
   77SOPE   H9X 6906   1.069   6.455   6.139  0.0029  0.6433 -2.0066
   77SOPE   H9Y 6907   0.936   6.333   6.139 -0.1047  0.4779 -0.8080
   77SOPE  C310 6908   1.111   6.290   6.008 -0.0885  0.6452  0.5741
   77SOPE  H10X 6909   1.095   6.180   6.000 -0.7934  0.7638  0.3179
   77SOPE  H10Y 6910   1.221   6.308   6.007 -0.2027  1.3569  0.2426
   77SOPE  C311 6911   1.044   6.358   5.885 -0.0626 -0.4519  0.2821
   77SOPE  H11X 6912   1.049   6.468   5.904  1.7039 -0.5984  0.8939
   77SOPE  H11Y 6913   0.935   6.338   5.887 -0.4928  1.4149 -1.3592
   77SOPE  C312 6914   1.096   6.323   5.741 -0.2772 -0.7841 -0.1456
   77SOPE  H12X 6915   1.072   6.217   5.718  0.1508 -0.7483 -0.7713
   77SOPE  H12Y 6916   1.207   6.335   5.738 -0.3169 -0.5289 -0.6426
   77SOPE  C313 6917   1.046   6.406   5.621  0.5664  0.1570  0.1008
   77SOPE  H13X 6918   1.058   6.513   5.648  1.5970 -0.0632  0.5569
   77SOPE  H13Y 6919   0.936   6.390   5.613  0.7251 -0.7892 -0.3030
   77SOPE  C314 6920   1.117   6.382   5.488 -0.1841 -0.6555 -0.0291
   77SOPE  H14X 6921   1.112   6.279   5.446  0.7373 -0.5931 -0.3226
   77SOPE  H14Y 6922   1.224   6.411   5.499 -0.6101  1.2562 -0.6578
   77SOPE  C315 6923   1.043   6.480   5.392  0.1853  0.2687 -0.9388
   77SOPE  H15X 6924   1.031   6.575   5.449  0.3335 -0.0943 -0.2824
   77SOPE  H15Y 6925   0.940   6.441   5.374 -0.8582 -0.1773  4.2217
   77SOPE  C316 6926   1.128   6.509   5.269  0.0296 -0.6754  0.6484
   77SOPE  H16X 6927   1.130   6.412   5.215  1.9031  1.5572 -3.8044
   77SOPE  H16Y 6928   1.230   6.544   5.295 -0.7855  0.5466  2.4635
   77SOPE  C317 6929   1.072   6.614   5.182  0.1139 -0.0047 -0.2021
   77SOPE  H17X 6930   1.074   6.712   5.232  0.1950  0.8862 -1.8616
   77SOPE  H17Y 6931   0.967   6.583   5.161  0.2345 -1.1313  0.7509
   77SOPE  C318 6932   1.154   6.648   5.055 -0.1684 -0.0834 -0.0639
   77SOPE  H18X 6933   1.238   6.711   5.089  0.8571 -0.5842 -1.5509
   77SOPE  H18Y 6934   1.100   6.718   4.988 -0.8692 -0.5910 -0.0459
   77SOPE  H18Z 6935   1.186   6.556   5.002 -1.9397  0.1775 -1.6960
   78SOPE     N 6936   4.746   3.320   7.447  0.0641  0.1531 -0.0426
   78SOPE   HN1 6937   4.767   3.319   7.549  0.0735 -3.0075  0.0389
   78SOPE   HN2 6938   4.722   3.414   7.412 -0.8838 -0.5024 -1.2216
   78SOPE   HN3 6939   4.658   3.265   7.444  0.0119  0.0374  2.0201
   78SOPE   C12 6940   4.858   3.262   7.367 -0.1436  0.0119  0.0668
   78SOPE  H12A 6941   4.933   3.343   7.370  0.0188  0.0196 -2.3064
   78SOPE  H12B 6942   4.829   3.261   7.260  0.3717 -1.1298 -0.0760
   78SOPE   C11 6943   4.924   3.124   7.410  0.0526  0.2670 -0.4110
   78SOPE  H11A 6944   5.025   3.116   7.364 -0.0044  0.1660 -0.5195
   78SOPE  H11B 6945   4.869   3.038   7.367 -0.1588  1.0674 -1.8344
   78SOPE     P 6946   4.862   3.014   7.631 -0.0841 -0.2487 -0.2127
   78SOPE   O13 6947   4.720   3.033   7.594  0.1351 -0.0560  0.3633
   78SOPE   O14 6948   4.893   3.023   7.769  0.3170 -1.2909  0.0803
   78SOPE   O12 6949   4.946   3.120   7.555  0.6654  0.2267  0.0357
   78SOPE   O11 6950   4.912   2.878   7.576 -0.3658  0.6529  0.9222
   78SOPE    C1 6951   5.049   2.840   7.616 -0.4952  0.1140  0.2281
   78SOPE    HA 6952   5.049   2.838   7.727  1.0177  0.0166  0.2473
   78SOPE    HB 6953   5.121   2.920   7.589 -0.8295  0.7686  1.2188
   78SOPE    C2 6954   5.090   2.697   7.569  0.0957  0.2650 -0.0337
   78SOPE    HS 6955   5.190   2.689   7.616 -0.6134 -0.5149  1.3953
   78SOPE   O21 6956   5.108   2.686   7.428  0.1016 -0.2097 -0.5940
   78SOPE   C21 6957   5.205   2.749   7.364  0.2771  0.4376  0.8263
   78SOPE   O22 6958   5.297   2.805   7.414  0.2577 -0.0952 -0.4146
   78SOPE   C22 6959   5.190   2.714   7.216  0.0457 -0.2477 -0.0651
   78SOPE   H2R 6960   5.283   2.746   7.163  0.7083 -0.6596  0.8155
   78SOPE   H2S 6961   5.110   2.774   7.169 -0.7807 -0.6801  0.7392
   78SOPE    C3 6962   4.998   2.579   7.616  0.8076 -0.2967 -0.9513
   78SOPE    HX 6963   4.893   2.605   7.595  0.2381 -1.9524 -0.3561
   78SOPE    HY 6964   5.005   2.577   7.727 -1.5041  0.9867 -0.7158
   78SOPE   O31 6965   5.033   2.450   7.554  0.0289 -0.4977  0.3902
   78SOPE   C31 6966   4.939   2.366   7.543  0.1078 -0.1124  0.7100
   78SOPE   O32 6967   4.827   2.367   7.588 -0.2440 -0.2586 -0.1639
   78SOPE   C32 6968   4.976   2.241   7.462 -0.0299 -0.5274  0.0032
   78SOPE   H2X 6969   4.948   2.149   7.518 -0.6496 -0.3703 -0.0399
   78SOPE   H2Y 6970   5.086   2.239   7.451 -0.0569 -1.7180 -0.1967
   78SOPE   C23 6971   5.159   2.563   7.184  0.2049  0.7674 -0.3684
   78SOPE   H3R 6972   5.146   2.560   7.074 -0.8321  1.7571 -0.2983
   78SOPE   H3S 6973   5.064   2.537   7.235 -0.3681  0.2356 -1.6642
   78SOPE   C24 6974   5.283   2.479   7.218  0.2078  0.1851 -0.5196
   78SOPE   H4R 6975   5.376   2.525   7.178  2.0313 -0.6513  2.4544
   78SOPE   H4S 6976   5.291   2.471   7.329  0.3997 -0.6191 -0.5836
   78SOPE   C25 6977   5.276   2.335   7.161 -1.0834  0.3012  0.3260
   78SOPE   H5R 6978   5.356   2.275   7.210 -0.9512  0.6875  0.5902
   78SOPE   H5S 6979   5.179   2.287   7.188 -1.5191  0.1711 -1.3571
   78SOPE   C26 6980   5.318   2.333   7.014  0.0284  0.4748 -0.6588
   78SOPE   H6R 6981   5.242   2.401   6.970 -0.7191  0.7069  0.9184
   78SOPE   H6S 6982   5.424   2.367   7.010  0.6853 -1.0585  1.8475
   78SOPE   C27 6983   5.305   2.191   6.963 -0.8309  0.4089 -0.2846
   78SOPE   H7R 6984   5.382   2.131   7.015  0.0835  1.5611 -0.2736
   78SOPE   H7S 6985   5.205   2.148   6.989 -0.2245 -0.1228  1.3256
   78SOPE   C28 6986   5.333   2.170   6.816  0.2982  0.3256 -0.2219
   78SOPE   H8R 6987   5.438   2.195   6.791 -0.3518  0.2963 -3.3233
   78SOPE   H8S 6988   5.324   2.062   6.792 -0.0757  0.5110 -0.9226
   78SOPE   C29 6989   5.243   2.260   6.733 -0.2306 -0.3933  0.4111
   78SOPE   H91 6990   5.263   2.364   6.762  0.3832 -0.6379  0.8814
   78SOPE  C210 6991   5.161   2.223   6.628  0.2240  0.6174 -0.3734
   78SOPE  H101 6992   5.102   2.300   6.576 -0.4269  0.9726  0.8583
   78SOPE  C211 6993   5.149   2.085   6.574  0.2410  0.4561  0.4823
   78SOPE  H11R 6994   5.146   2.004   6.650 -1.5367 -0.5045 -0.5427
   78SOPE  H11S 6995   5.244   2.070   6.518  0.2793 -0.2063  0.7175
   78SOPE  C212 6996   5.034   2.050   6.476 -0.2567  0.4473  0.2676
   78SOPE  H12R 6997   4.939   2.078   6.528 -1.8695 -0.0460 -2.2675
   78SOPE  H12S 6998   5.038   1.943   6.450 -3.8485  0.7350 -2.2825
   78SOPE  C213 6999   5.021   2.127   6.348  0.3848  0.0235  0.0325
   78SOPE  H13R 7000   5.118   2.142   6.296 -0.2607 -0.2001 -1.3096
   78SOPE  H13S 7001   4.998   2.234   6.368 -0.2411 -0.2556  0.8492
   78SOPE  C214 7002   4.923   2.066   6.246  0.1114 -0.0844  0.7240
   78SOPE  H14R 7003   4.826   2.059   6.300  0.4835 -2.6098  1.2009
   78SOPE  H14S 7004   4.955   1.963   6.222  0.6966  0.3250 -0.2941
   78SOPE  C215 7005   4.921   2.151   6.118  0.2578 -0.5356 -0.4215
   78SOPE  H15R 7006   5.025   2.137   6.082  0.2940 -1.9368  0.1770
   78SOPE  H15S 7007   4.908   2.260   6.135 -1.3383 -0.7697  0.0621
   78SOPE  C216 7008   4.828   2.111   6.000 -1.0136 -0.0473  0.0593
   78SOPE  H16R 7009   4.720   2.126   6.020 -0.9612 -1.5537  1.7454
   78SOPE  H16S 7010   4.838   2.000   5.995  2.4954  0.1512  0.3220
   78SOPE  C217 7011   4.863   2.184   5.874 -0.2350 -0.2852  0.4186
   78SOPE  H17R 7012   4.812   2.142   5.785 -1.6040  2.6322 -0.2951
   78SOPE  H17S 7013   4.969   2.173   5.843 -0.3943  0.5846 -0.5053
   78SOPE  C218 7014   4.815   2.325   5.877  0.5357  0.1002 -0.3718
   78SOPE  H18R 7015   4.855   2.383   5.964 -0.3187 -1.0501  0.8224
   78SOPE  H18S 7016   4.707   2.340   5.857  0.9721  0.5140 -2.6335
   78SOPE  H18T 7017   4.848   2.380   5.786 -1.4020  3.0157  0.5564
   78SOPE   C33 7018   4.896   2.238   7.332 -0.2387  0.4039 -0.6294
   78SOPE   H3X 7019   4.922   2.323   7.265  0.6716  0.6178 -0.0290
   78SOPE   H3Y 7020   4.791   2.230   7.366 -0.3301 -1.3487 -1.2583
   78SOPE   C34 7021   4.923   2.114   7.255  0.9135  0.2260 -0.0879
   78SOPE   H4X 7022   4.900   2.025   7.318  0.9210  1.1053  1.2054
   78SOPE   H4Y 7023   5.033   2.107   7.243  1.1130  1.6048  0.7228
   78SOPE   C35 7024   4.853   2.121   7.118 -0.5876  0.2461  0.0826
   78SOPE   H5X 7025   4.880   2.222   7.080  1.2588  0.3305  1.4993
   78SOPE   H5Y 7026   4.743   2.108   7.114 -0.7078  1.2469 -0.0453
   78SOPE   C36 7027   4.913   2.014   7.017  0.5594 -0.0556 -0.3274
   78SOPE   H6X 7028   4.916   1.921   7.077 -1.3854  0.3474  0.4883
   78SOPE   H6Y 7029   5.018   2.040   6.992  1.1394 -2.7357 -0.9964
   78SOPE   C37 7030   4.827   1.982   6.892 -0.4047 -0.2648 -0.6365
   78SOPE   H7X 7031   4.726   1.941   6.913 -1.1969  0.3209 -3.0183
   78SOPE   H7Y 7032   4.879   1.897   6.843 -2.2999 -2.0453  0.3038
   78SOPE   C38 7033   4.803   2.094   6.794 -1.1571 -0.2324 -0.2087
   78SOPE   H8X 7034   4.901   2.129   6.755  0.0813 -1.3594  1.6548
   78SOPE   H8Y 7035   4.762   2.184   6.844  1.5893  1.4007 -0.6702
   78SOPE   C39 7036   4.707   2.059   6.676  0.2313 -0.5612 -0.3245
   78SOPE   H9X 7037   4.611   2.030   6.724  1.2764 -1.0953  1.5492
   78SOPE   H9Y 7038   4.754   1.976   6.619  0.7392 -0.1816 -0.4734
   78SOPE  C310 7039   4.678   2.181   6.599 -0.2521 -1.5074  0.4705
   78SOPE  H10X 7040   4.774   2.218   6.556 -0.9661  0.9179  0.8033
   78SOPE  H10Y 7041   4.630   2.257   6.664 -0.2485 -2.5797  1.7680
   78SOPE  C311 7042   4.578   2.152   6.486 -0.7133  0.2025 -0.8190
   78SOPE  H11X 7043   4.496   2.101   6.540 -0.3239  1.7802  1.3946
   78SOPE  H11Y 7044   4.635   2.088   6.415  1.2711  0.3906  0.4938
   78SOPE  C312 7045   4.513   2.266   6.414 -0.5077 -0.2730  0.3837
   78SOPE  H12X 7046   4.585   2.348   6.393 -1.4428  0.8086  1.2558
   78SOPE  H12Y 7047   4.439   2.306   6.486 -0.2338  2.6548 -0.8254
   78SOPE  C313 7048   4.452   2.208   6.289 -0.1628 -0.1874 -0.4195
   78SOPE  H13X 7049   4.437   2.099   6.305 -0.6920 -0.0814 -0.1731
   78SOPE  H13Y 7050   4.523   2.200   6.204  1.6745 -0.0647  1.0393
   78SOPE  C314 7051   4.336   2.300   6.244 -1.2715  0.0431 -0.6974
   78SOPE  H14X 7052   4.269   2.324   6.329 -1.6438 -0.6387 -0.7911
   78SOPE  H14Y 7053   4.291   2.239   6.163  0.3043 -1.2238 -0.6800
   78SOPE  C315 7054   4.391   2.423   6.170  0.3935  0.3901 -0.7936
   78SOPE  H15X 7055   4.468   2.396   6.094  1.2183  1.7976 -0.5043
   78SOPE  H15Y 7056   4.448   2.488   6.240  0.2394 -1.1623  0.8253
   78SOPE  C316 7057   4.285   2.510   6.098  0.4615 -0.3308  0.1995
   78SOPE  H16X 7058   4.209   2.547   6.170  1.8906  0.1927  1.4929
   78SOPE  H16Y 7059   4.233   2.441   6.028 -1.4868 -0.0811  1.3292
   78SOPE  C317 7060   4.346   2.626   6.021 -0.0347 -0.8668  0.1055
   78SOPE  H17X 7061   4.439   2.592   5.970  1.6044  1.2159  1.4809
   78SOPE  H17Y 7062   4.382   2.694   6.102  0.2400 -1.3735  0.4146
   78SOPE  C318 7063   4.248   2.706   5.937 -0.1448  0.3834 -0.7799
   78SOPE  H18X 7064   4.179   2.759   6.006  0.9514 -0.9277  1.4469
   78SOPE  H18Y 7065   4.198   2.649   5.856  0.5779 -0.1559 -0.8540
   78SOPE  H18Z 7066   4.297   2.792   5.887 -1.6445  1.5069 -0.3923
   79SOPE     N 7067   2.808   0.310   8.073 -0.2959  0.5322 -0.4582
   79SOPE   HN1 7068   2.839   0.344   8.166 -1.4231 -2.2072  1.0602
   79SOPE   HN2 7069   2.760   0.219   8.089 -2.8869  1.8432 -0.2625
   79SOPE   HN3 7070   2.893   0.311   8.014 -0.6661  1.6524 -1.0049
   79SOPE   C12 7071   2.730   0.426   8.024 -0.3015 -0.4848  0.7593
   79SOPE  H12A 7072   2.760   0.517   8.080  1.6809 -0.6100 -0.0312
   79SOPE  H12B 7073   2.624   0.395   8.039 -0.6893  0.3746 -0.0658
   79SOPE   C11 7074   2.751   0.451   7.875  0.5086  0.4895  0.3477
   79SOPE  H11A 7075   2.670   0.519   7.842  0.5535 -0.1784 -1.2519
   79SOPE  H11B 7076   2.735   0.358   7.817  1.1787  1.1133 -0.8830
   79SOPE     P 7077   2.998   0.445   7.798  0.0954  0.0713 -0.0349
   79SOPE   O13 7078   3.029   0.358   7.916 -0.9701 -0.1697  0.3607
   79SOPE   O14 7079   3.097   0.540   7.750 -0.1619 -0.0400  0.4002
   79SOPE   O12 7080   2.873   0.524   7.841 -0.0897  0.0485 -0.3428
   79SOPE   O11 7081   2.943   0.363   7.675  0.9691  0.0547 -0.2613
   79SOPE    C1 7082   2.867   0.409   7.562 -0.6371 -0.2979  0.0512
   79SOPE    HA 7083   2.843   0.518   7.568 -2.0943 -0.5325 -1.1775
   79SOPE    HB 7084   2.766   0.363   7.561  0.1181 -2.1026  1.1603
   79SOPE    C2 7085   2.937   0.374   7.433  0.6718  0.3615  0.4740
   79SOPE    HS 7086   2.878   0.411   7.346 -1.0177  1.5505  2.0645
   79SOPE   O21 7087   2.974   0.231   7.432 -0.3331 -0.0307  1.0520
   79SOPE   C21 7088   2.875   0.150   7.384  0.0960 -1.3842 -0.8859
   79SOPE   O22 7089   2.762   0.191   7.351 -0.3292  0.0021  0.1746
   79SOPE   C22 7090   2.914   0.002   7.376  0.6826  0.2402  0.4939
   79SOPE   H2R 7091   2.829  -0.046   7.428 -1.2543 -1.8875 -4.0717
   79SOPE   H2S 7092   3.012   0.000   7.428  0.2585  0.9146  1.3361
   79SOPE    C3 7093   3.075   0.446   7.426  0.0287 -0.0392  0.1424
   79SOPE    HX 7094   3.135   0.399   7.506  0.2951 -2.7015 -1.5176
   79SOPE    HY 7095   3.068   0.555   7.449  1.5853  0.1127  0.0062
   79SOPE   O31 7096   3.127   0.421   7.293 -0.4433  0.3266  0.0857
   79SOPE   C31 7097   3.244   0.479   7.265 -0.5246  1.1684  0.5922
   79SOPE   O32 7098   3.308   0.551   7.333 -0.2153  0.4424 -0.7402
   79SOPE   C32 7099   3.289   0.443   7.125 -0.2117  0.1050 -0.0495
   79SOPE   H2X 7100   3.316   0.335   7.122 -0.1320  0.1250 -2.3487
   79SOPE   H2Y 7101   3.371   0.512   7.095 -1.3616  0.1472 -3.5658
   79SOPE   C23 7102   2.921  -0.047   7.232  0.0659  0.6802  0.1415
   79SOPE   H3R 7103   2.825  -0.026   7.180  0.7571  0.0231 -1.4555
   79SOPE   H3S 7104   2.928  -0.157   7.243  0.6440  0.1657 -3.8987
   79SOPE   C24 7105   3.030   0.017   7.151  0.6733  1.2946  0.0147
   79SOPE   H4R 7106   3.004   0.124   7.144 -2.1564  0.6666 -0.3670
   79SOPE   H4S 7107   3.122  -0.001   7.211 -0.2365 -1.2141  0.7938
   79SOPE   C25 7108   3.048  -0.035   7.009 -0.1473  0.0099 -0.1354
   79SOPE   H5R 7109   2.970   0.011   6.945  0.2046  2.0757  0.8621
   79SOPE   H5S 7110   3.147  -0.013   6.963  1.2081 -1.7782  1.6999
   79SOPE   C26 7111   3.025  -0.186   7.000 -0.2163  0.0423 -0.3133
   79SOPE   H6R 7112   3.084  -0.228   7.085  1.7574 -0.0250 -1.6608
   79SOPE   H6S 7113   2.918  -0.215   7.005  0.0237 -0.7846  0.4162
   79SOPE   C27 7114   3.087  -0.245   6.874 -0.1669  0.3448  0.4054
   79SOPE   H7R 7115   3.193  -0.210   6.873 -0.3610  1.0585  1.7952
   79SOPE   H7S 7116   3.076  -0.355   6.876 -0.8430  0.4100  0.2585
   79SOPE   C28 7117   3.018  -0.188   6.752  0.5455  0.6993  0.1060
   79SOPE   H8R 7118   3.035  -0.078   6.760  2.2282  0.3559  2.0513
   79SOPE   H8S 7119   3.078  -0.214   6.662  1.3822  0.5130  0.7017
   79SOPE   C29 7120   2.883  -0.225   6.725  0.7207  0.0741  0.5891
   79SOPE   H91 7121   2.869  -0.322   6.776 -2.6275  0.1647  0.1028
   79SOPE  C210 7122   2.797  -0.167   6.637 -0.3998  0.4719  0.2749
   79SOPE  H101 7123   2.701  -0.221   6.633  0.4480 -1.0139 -0.9105
   79SOPE  C211 7124   2.821  -0.056   6.544 -0.9377  0.1601 -0.2122
   79SOPE  H11R 7125   2.733  -0.052   6.476  0.0362 -1.3963 -1.6295
   79SOPE  H11S 7126   2.911  -0.086   6.485 -0.1486  1.3604  0.3356
   79SOPE  C212 7127   2.834   0.085   6.597  0.6996 -0.2785  0.9787
   79SOPE  H12R 7128   2.915   0.080   6.673  1.5659  0.4607  0.1379
   79SOPE  H12S 7129   2.738   0.124   6.637  1.2454 -0.0103  2.0560
   79SOPE  C213 7130   2.868   0.186   6.485 -0.2303 -0.1872  0.1932
   79SOPE  H13R 7131   2.977   0.169   6.473 -0.3292  0.2671 -1.8852
   79SOPE  H13S 7132   2.862   0.293   6.516 -2.3740  0.2189 -1.3945
   79SOPE  C214 7133   2.807   0.171   6.346  0.5978 -0.9240  0.0409
   79SOPE  H14R 7134   2.702   0.206   6.356  1.3171  0.7670  3.1440
   79SOPE  H14S 7135   2.797   0.065   6.314  1.0222 -0.8028 -0.5045
   79SOPE  C215 7136   2.890   0.231   6.232 -0.0613  0.1512  0.3601
   79SOPE  H15R 7137   2.947   0.317   6.273  0.0452  1.2667 -1.9662
   79SOPE  H15S 7138   2.823   0.254   6.147 -0.9031  0.6938  1.1458
   79SOPE  C216 7139   3.007   0.137   6.188  0.1401  0.3604  0.1155
   79SOPE  H16R 7140   2.954   0.048   6.147  2.2646 -0.5627 -0.8099
   79SOPE  H16S 7141   3.049   0.095   6.282 -1.9517 -1.7374  0.1819
   79SOPE  C217 7142   3.113   0.199   6.092 -0.1039  0.3271  0.4206
   79SOPE  H17R 7143   3.176   0.114   6.058  0.2085  0.3811  0.8529
   79SOPE  H17S 7144   3.185   0.267   6.141  1.8382 -2.2734  1.3945
   79SOPE  C218 7145   3.052   0.293   5.983  0.0576  0.4636  0.3517
   79SOPE  H18R 7146   3.124   0.343   5.915  0.7164  1.0782  1.4832
   79SOPE  H18S 7147   2.996   0.373   6.036 -1.7215 -0.8960  0.6508
   79SOPE  H18T 7148   2.983   0.224   5.929  1.2967 -0.6858  0.1774
   79SOPE   C33 7149   3.178   0.467   7.011 -0.3623 -0.9527 -0.2121
   79SOPE   H3X 7150   3.141   0.571   7.019 -0.1410 -0.9506  0.9640
   79SOPE   H3Y 7151   3.095   0.397   7.038 -2.3268  1.9646  1.9234
   79SOPE   C34 7152   3.234   0.442   6.866 -0.0847  0.3177 -0.6244
   79SOPE   H4X 7153   3.295   0.349   6.877 -1.3109 -0.2142  4.0038
   79SOPE   H4Y 7154   3.310   0.517   6.834  0.9226 -0.2778  0.2767
   79SOPE   C35 7155   3.130   0.434   6.756  0.2860 -0.2215 -0.4538
   79SOPE   H5X 7156   3.092   0.533   6.724 -0.6267 -1.2810 -2.8988
   79SOPE   H5Y 7157   3.051   0.384   6.816  0.3834  1.1778  0.8879
   79SOPE   C36 7158   3.167   0.355   6.631  0.1599 -0.3113 -0.2805
   79SOPE   H6X 7159   3.081   0.351   6.560 -0.1431 -0.1547  0.0782
   79SOPE   H6Y 7160   3.187   0.249   6.657 -1.2795 -0.4520  0.2983
   79SOPE   C37 7161   3.285   0.414   6.567  0.0169 -0.3532  0.1721
   79SOPE   H7X 7162   3.378   0.394   6.625  1.3805  2.9520 -0.6698
   79SOPE   H7Y 7163   3.266   0.522   6.551 -1.6220 -0.5303  0.7760
   79SOPE   C38 7164   3.306   0.366   6.418 -0.1428 -0.8163  0.2867
   79SOPE   H8X 7165   3.226   0.421   6.364  1.3810  1.1214 -0.1039
   79SOPE   H8Y 7166   3.296   0.256   6.406  1.8550 -0.9677 -0.5152
   79SOPE   C39 7167   3.438   0.417   6.361  0.1547  0.1924  0.4596
   79SOPE   H9X 7168   3.465   0.383   6.259 -0.9835 -1.7361  0.7483
   79SOPE   H9Y 7169   3.527   0.374   6.410 -0.2342 -1.8617 -0.5461
   79SOPE  C310 7170   3.445   0.571   6.348  0.4853 -0.4991 -0.0951
   79SOPE  H10X 7171   3.478   0.618   6.443 -1.0572  0.5964 -0.0819
   79SOPE  H10Y 7172   3.349   0.615   6.317  0.2825  0.7640  2.0825
   79SOPE  C311 7173   3.550   0.631   6.244  0.2569  0.5707  0.1012
   79SOPE  H11X 7174   3.645   0.576   6.259 -1.5569 -2.2339  2.2897
   79SOPE  H11Y 7175   3.566   0.741   6.246  0.2903  0.5685 -0.0298
   79SOPE  C312 7176   3.487   0.612   6.105  0.1802 -0.1003  0.5402
   79SOPE  H12X 7177   3.393   0.670   6.099  0.6568  0.6161 -0.2278
   79SOPE  H12Y 7178   3.458   0.507   6.084 -3.4399  0.4654  1.9362
   79SOPE  C313 7179   3.582   0.666   6.000 -0.2248 -0.1355  0.2932
   79SOPE  H13X 7180   3.677   0.608   6.007 -0.1758 -0.0389  0.4316
   79SOPE  H13Y 7181   3.595   0.775   6.017 -0.9826 -0.0487  0.3376
   79SOPE  C314 7182   3.512   0.655   5.857  0.2085  0.1417  0.0268
   79SOPE  H14X 7183   3.408   0.692   5.869  0.4340  0.0811  3.0105
   79SOPE  H14Y 7184   3.497   0.546   5.840  1.4268 -0.2075  1.0542
   79SOPE  C315 7185   3.592   0.726   5.739  0.2719 -0.2459 -0.0873
   79SOPE  H15X 7186   3.593   0.835   5.761 -1.9719  0.0584 -1.2353
   79SOPE  H15Y 7187   3.527   0.719   5.649 -1.9623 -0.7414  1.4767
   79SOPE  C316 7188   3.734   0.669   5.715 -0.2271 -0.5826  0.1009
   79SOPE  H16X 7189   3.726   0.558   5.705  0.3370 -0.6538  0.4290
   79SOPE  H16Y 7190   3.802   0.691   5.800 -0.5594 -1.9406  0.7511
   79SOPE  C317 7191   3.799   0.723   5.591  0.1600  0.7020 -0.1163
   79SOPE  H17X 7192   3.818   0.833   5.595 -3.5778  1.4546  0.8050
   79SOPE  H17Y 7193   3.725   0.705   5.511  0.1099 -0.8006  0.2291
   79SOPE  C318 7194   3.931   0.661   5.557  0.0194 -0.1107 -1.2575
   79SOPE  H18X 7195   4.006   0.697   5.630  0.5589 -2.5288 -0.5353
   79SOPE  H18Y 7196   3.959   0.687   5.452  2.0777 -0.5730 -0.8606
   79SOPE  H18Z 7197   3.917   0.551   5.560 -3.3011  0.2529  0.9625
   80SOPE     N 7198   5.537   1.690   7.598  0.0592  0.5981  0.2292
   80SOPE   HN1 7199   5.634   1.702   7.632 -0.9227  1.7992  2.8801
   80SOPE   HN2 7200   5.489   1.782   7.611  0.6177  0.9605 -0.2233
   80SOPE   HN3 7201   5.499   1.614   7.658  0.8813 -0.3488 -0.4261
   80SOPE   C12 7202   5.514   1.648   7.455 -0.2101 -0.0997  0.9094
   80SOPE  H12A 7203   5.573   1.556   7.436  1.9289  1.4862 -0.5197
   80SOPE  H12B 7204   5.558   1.729   7.393 -3.8021  0.5491 -1.0465
   80SOPE   C11 7205   5.366   1.654   7.409 -0.7054  0.3523  0.8871
   80SOPE  H11A 7206   5.354   1.617   7.305 -1.6026  1.6568  0.5042
   80SOPE  H11B 7207   5.341   1.762   7.402 -1.2818  0.4807  3.7050
   80SOPE     P 7208   5.169   1.649   7.588 -0.2231  0.0238 -0.2450
   80SOPE   O13 7209   5.215   1.724   7.713 -0.5065  0.9073  0.0526
   80SOPE   O14 7210   5.069   1.540   7.614  0.2893  0.4085 -0.3513
   80SOPE   O12 7211   5.289   1.586   7.509 -0.0919  0.4143 -0.1365
   80SOPE   O11 7212   5.107   1.748   7.493  0.0669 -0.8357 -0.7803
   80SOPE    C1 7213   4.969   1.757   7.460  0.1633 -0.3031  0.2101
   80SOPE    HA 7214   4.948   1.861   7.427 -0.5521 -1.1062 -2.0259
   80SOPE    HB 7215   4.903   1.737   7.548  1.0900 -1.2701  0.7062
   80SOPE    C2 7216   4.927   1.661   7.359  0.0538  0.1603  0.6450
   80SOPE    HS 7217   4.957   1.559   7.392 -0.5358  0.4033  2.0051
   80SOPE   O21 7218   4.969   1.711   7.224  0.6137  0.0968 -0.3076
   80SOPE   C21 7219   5.060   1.633   7.174 -0.1457 -0.1727  0.1431
   80SOPE   O22 7220   5.084   1.514   7.201  0.3542  0.1495 -0.2719
   80SOPE   C22 7221   5.152   1.727   7.086  0.0897  0.0771 -0.5761
   80SOPE   H2R 7222   5.250   1.718   7.138 -0.3919  0.2536  0.3950
   80SOPE   H2S 7223   5.109   1.828   7.101 -1.3369 -0.9161  3.3479
   80SOPE    C3 7224   4.775   1.644   7.341 -0.9523 -0.9880 -0.2643
   80SOPE    HX 7225   4.726   1.740   7.316  0.2979 -0.1763  0.3341
   80SOPE    HY 7226   4.736   1.618   7.442  1.6930 -1.1211  0.8058
   80SOPE   O31 7227   4.733   1.544   7.247 -0.3047  0.1322 -0.1852
   80SOPE   C31 7228   4.735   1.418   7.280 -0.0299  0.4999  0.1023
   80SOPE   O32 7229   4.771   1.369   7.388  0.2851 -0.5184 -0.0097
   80SOPE   C32 7230   4.694   1.326   7.167 -0.0226 -0.4049  0.3576
   80SOPE   H2X 7231   4.673   1.377   7.071 -0.8745 -0.6065  0.4240
   80SOPE   H2Y 7232   4.596   1.280   7.193  0.5876 -1.9521  0.0605
   80SOPE   C23 7233   5.176   1.671   6.945 -0.5544  0.2584 -0.0552
   80SOPE   H3R 7234   5.176   1.560   6.951 -3.8810  0.1876  0.1539
   80SOPE   H3S 7235   5.274   1.704   6.904  0.7976 -0.8091  2.1102
   80SOPE   C24 7236   5.067   1.701   6.840  0.5652  0.1388  0.3198
   80SOPE   H4R 7237   4.961   1.675   6.864  1.0247 -0.7913  1.4158
   80SOPE   H4S 7238   5.079   1.808   6.812 -0.1063  0.2858  0.5712
   80SOPE   C25 7239   5.087   1.626   6.711 -0.3313 -0.5732  0.2812
   80SOPE   H5R 7240   5.109   1.520   6.735  0.9120 -0.9359 -2.1766
   80SOPE   H5S 7241   4.988   1.625   6.660 -0.7203 -1.4570  1.0335
   80SOPE   C26 7242   5.191   1.698   6.627  0.3105  0.2873 -0.4308
   80SOPE   H6R 7243   5.162   1.805   6.617 -1.3174 -0.2103 -1.6779
   80SOPE   H6S 7244   5.288   1.690   6.679 -1.9376  1.0938  4.4086
   80SOPE   C27 7245   5.189   1.645   6.477 -0.3657 -0.1747 -0.3917
   80SOPE   H7R 7246   5.190   1.534   6.475 -3.2538 -0.2824 -3.0200
   80SOPE   H7S 7247   5.090   1.673   6.437 -0.3974  0.2043 -0.0640
   80SOPE   C28 7248   5.297   1.714   6.389 -0.1335 -0.4330  0.2921
   80SOPE   H8R 7249   5.274   1.823   6.385 -0.2755 -0.3271  2.5745
   80SOPE   H8S 7250   5.387   1.695   6.450  0.3100 -0.6915 -0.4311
   80SOPE   C29 7251   5.305   1.662   6.244  0.3416 -0.1031  0.2917
   80SOPE   H91 7252   5.323   1.554   6.236  2.4698  0.0956  1.7483
   80SOPE  C210 7253   5.290   1.737   6.133  0.3230 -0.0647 -0.2702
   80SOPE  H101 7254   5.297   1.687   6.036 -0.6546  2.5193 -1.7611
   80SOPE  C211 7255   5.255   1.882   6.116  0.6028 -0.3043  1.1643
   80SOPE  H11R 7256   5.266   1.931   6.215 -0.8040 -1.6805  2.0430
   80SOPE  H11S 7257   5.149   1.897   6.086  1.3087  2.1290 -0.4311
   80SOPE  C212 7258   5.354   1.964   6.030 -0.0013  0.3645 -0.7150
   80SOPE  H12R 7259   5.456   1.943   6.066 -0.5351  0.4533  0.9258
   80SOPE  H12S 7260   5.332   2.069   6.061 -0.2564  0.0085  0.3639
   80SOPE  C213 7261   5.358   1.927   5.882 -0.1677 -0.2560  0.0311
   80SOPE  H13R 7262   5.362   1.817   5.865  0.4707 -0.0010 -1.6804
   80SOPE  H13S 7263   5.441   1.968   5.821 -1.7710  1.6675 -0.9689
   80SOPE  C214 7264   5.229   1.982   5.817 -0.5603 -0.1021  0.8007
   80SOPE  H14R 7265   5.218   2.089   5.846 -0.5790  0.3508 -0.7757
   80SOPE  H14S 7266   5.144   1.925   5.860  0.2944 -1.1048  1.1923
   80SOPE  C215 7267   5.235   1.969   5.668  0.2787 -0.0327  0.7883
   80SOPE  H15R 7268   5.266   1.871   5.627 -1.2614  0.4506 -1.7134
   80SOPE  H15S 7269   5.299   2.044   5.617 -1.3716 -0.5738 -2.2961
   80SOPE  C216 7270   5.091   1.987   5.614 -0.0696 -0.0561 -0.3102
   80SOPE  H16R 7271   5.078   2.095   5.592  1.8556  0.7473  2.1232
   80SOPE  H16S 7272   5.025   1.956   5.698 -0.3189 -1.0440 -0.8483
   80SOPE  C217 7273   5.058   1.897   5.495  0.3964  0.4235 -0.0008
   80SOPE  H17R 7274   5.051   1.790   5.524  1.2542  0.7069  1.3903
   80SOPE  H17S 7275   5.130   1.906   5.410  0.5565 -1.2357 -0.0701
   80SOPE  C218 7276   4.917   1.932   5.421 -0.0856  0.4119 -0.3152
   80SOPE  H18R 7277   4.843   1.911   5.501  2.0211  0.3747  1.7361
   80SOPE  H18S 7278   4.897   1.868   5.333 -0.5044 -0.5789  0.4752
   80SOPE  H18T 7279   4.905   2.039   5.392 -0.4848  0.8198  1.2542
   80SOPE   C33 7280   4.775   1.203   7.156 -0.1117 -0.2315  0.0741
   80SOPE   H3X 7281   4.726   1.139   7.081  0.6573 -1.1367  0.3267
   80SOPE   H3Y 7282   4.766   1.147   7.251 -0.9579 -1.5301 -0.7493
   80SOPE   C34 7283   4.917   1.223   7.115 -0.6235  0.2222  0.7220
   80SOPE   H4X 7284   4.971   1.126   7.106 -0.7607  0.1474  0.7077
   80SOPE   H4Y 7285   4.971   1.292   7.183  0.8959  0.6157 -0.8163
   80SOPE   C35 7286   4.937   1.302   6.982  0.0895 -0.2917  0.6210
   80SOPE   H5X 7287   5.045   1.317   6.964 -0.4888  2.5672 -1.2608
   80SOPE   H5Y 7288   4.897   1.406   6.982  0.9477  0.0519 -0.2539
   80SOPE   C36 7289   4.877   1.220   6.864 -0.2709 -0.1339 -0.4104
   80SOPE   H6X 7290   4.766   1.234   6.860 -0.2415  0.0385 -0.6596
   80SOPE   H6Y 7291   4.907   1.114   6.872  0.8427  0.0149 -2.1472
   80SOPE   C37 7292   4.923   1.277   6.730 -0.6271 -0.5993  0.5509
   80SOPE   H7X 7293   5.031   1.305   6.724 -1.6260  3.7281 -0.9448
   80SOPE   H7Y 7294   4.871   1.374   6.713  0.2305 -0.0996  0.6917
   80SOPE   C38 7295   4.908   1.188   6.604  0.5771  0.1354 -0.3667
   80SOPE   H8X 7296   4.803   1.152   6.604  0.5714  0.1397 -1.3426
   80SOPE   H8Y 7297   4.966   1.094   6.617 -0.5309 -0.3983  0.9472
   80SOPE   C39 7298   4.954   1.257   6.473  0.7467 -0.7259  0.4491
   80SOPE   H9X 7299   5.062   1.282   6.477  1.0873 -2.0399  4.6249
   80SOPE   H9Y 7300   4.897   1.350   6.452 -0.7242 -1.8059 -0.6090
   80SOPE  C310 7301   4.907   1.170   6.356  0.1525  0.3414  1.0622
   80SOPE  H10X 7302   4.797   1.168   6.368  0.1422  1.0950  1.0886
   80SOPE  H10Y 7303   4.946   1.066   6.366  3.4122  1.1654 -1.1602
   80SOPE  C311 7304   4.943   1.229   6.216  0.9312  0.3936 -0.2971
   80SOPE  H11X 7305   5.054   1.240   6.213  0.9855  0.0710  0.3068
   80SOPE  H11Y 7306   4.909   1.334   6.203  0.5114  0.1765 -0.9868
   80SOPE  C312 7307   4.894   1.143   6.099 -0.1388 -0.1349  0.3387
   80SOPE  H12X 7308   4.866   1.039   6.128 -2.4969  0.5663  0.7842
   80SOPE  H12Y 7309   4.977   1.136   6.026  0.0675 -0.4428  0.5972
   80SOPE  C313 7310   4.768   1.200   6.044 -0.3734 -0.2400 -0.7422
   80SOPE  H13X 7311   4.800   1.284   5.977 -2.1832  0.7155 -0.4700
   80SOPE  H13Y 7312   4.709   1.227   6.134  0.3398 -4.6729  1.3406
   80SOPE  C314 7313   4.674   1.113   5.962  0.1478  0.2435  0.1174
   80SOPE  H14X 7314   4.729   1.070   5.876  0.5407 -3.4239  2.0114
   80SOPE  H14Y 7315   4.593   1.183   5.931  0.0025  0.4053  0.8374
   80SOPE  C315 7316   4.602   0.993   6.032 -0.2980  0.6195  0.4619
   80SOPE  H15X 7317   4.554   1.034   6.123  1.5006 -0.4807  1.9728
   80SOPE  H15Y 7318   4.689   0.925   6.046 -1.0270 -0.6520 -0.8874
   80SOPE  C316 7319   4.503   0.926   5.936  0.1274 -0.3647 -0.1383
   80SOPE  H16X 7320   4.538   0.917   5.831  0.6755 -1.2037  0.1026
   80SOPE  H16Y 7321   4.414   0.991   5.922 -0.4400 -0.9356  0.7258
   80SOPE  C317 7322   4.445   0.799   5.986  0.5766  0.0766 -0.4956
   80SOPE  H17X 7323   4.400   0.814   6.087  0.7582  0.0663 -0.4126
   80SOPE  H17Y 7324   4.517   0.714   5.997  0.7756  0.3480  0.4544
   80SOPE  C318 7325   4.325   0.743   5.908 -0.0479 -0.0243 -0.5045
   80SOPE  H18X 7326   4.344   0.720   5.801 -1.5584  1.4622 -1.1421
   80SOPE  H18Y 7327   4.240   0.815   5.914  0.3244  0.4948 -1.3440
   80SOPE  H18Z 7328   4.272   0.658   5.958 -0.4547 -0.7816 -2.1498
   81SOPE     N 7329   1.061   3.206   7.800  0.1894 -0.0408 -0.2041
   81SOPE   HN1 7330   1.005   3.247   7.876  2.3750 -0.5035  1.7773
   81SOPE   HN2 7331   1.139   3.157   7.849  0.7854 -0.9771 -1.9863
   81SOPE   HN3 7332   1.102   3.285   7.747 -2.7260  0.8226 -1.3551
   81SOPE   C12 7333   0.979   3.115   7.710 -0.8273  0.1747 -0.1164
   81SOPE  H12A 7334   0.877   3.157   7.696 -0.8975 -0.1625 -0.6624
   81SOPE  H12B 7335   0.960   3.019   7.763 -0.0513  0.3753  0.5366
   81SOPE   C11 7336   1.050   3.082   7.577 -0.0144 -0.0836  0.0957
   81SOPE  H11A 7337   0.989   3.022   7.506 -0.1741 -1.5996  1.4365
   81SOPE  H11B 7338   1.142   3.020   7.590  0.1515 -0.9309 -3.7822
   81SOPE     P 7339   0.999   3.292   7.435 -0.1168 -0.1977 -0.2976
   81SOPE   O13 7340   1.040   3.299   7.290  0.6795 -0.3867 -0.1115
   81SOPE   O14 7341   0.990   3.422   7.506  0.0128  0.1277  0.2760
   81SOPE   O12 7342   1.104   3.196   7.505  0.0778  0.4784 -0.0494
   81SOPE   O11 7343   0.862   3.212   7.437 -0.4207  0.1334 -0.1335
   81SOPE    C1 7344   0.738   3.281   7.403 -0.2008  0.1424 -0.3244
   81SOPE    HA 7345   0.755   3.342   7.312  0.6445 -1.3045 -1.1674
   81SOPE    HB 7346   0.704   3.354   7.479  2.6954  0.2425  0.9808
   81SOPE    C2 7347   0.625   3.177   7.385  0.6833  0.3244  0.0197
   81SOPE    HS 7348   0.647   3.104   7.465  1.8369  0.2856 -0.3089
   81SOPE   O21 7349   0.648   3.122   7.253  0.4296  0.1952  0.6459
   81SOPE   C21 7350   0.566   3.023   7.218  1.6816 -0.1954 -0.0740
   81SOPE   O22 7351   0.500   2.961   7.300  0.0598  0.7889 -0.6827
   81SOPE   C22 7352   0.562   3.018   7.071  0.3039  0.1381 -0.1015
   81SOPE   H2R 7353   0.667   2.997   7.040  0.1528 -1.4569  0.3706
   81SOPE   H2S 7354   0.529   3.110   7.017 -3.1647  0.6591  2.5555
   81SOPE    C3 7355   0.482   3.234   7.397  0.6716 -0.1565  0.5500
   81SOPE    HX 7356   0.468   3.302   7.484 -0.9933  0.1598  0.0811
   81SOPE    HY 7357   0.409   3.156   7.427 -0.2385  0.6072  0.3665
   81SOPE   O31 7358   0.425   3.303   7.277 -0.3398 -0.5351  0.0500
   81SOPE   C31 7359   0.447   3.438   7.274  0.3467  1.0333  0.0649
   81SOPE   O32 7360   0.503   3.500   7.359 -0.3765 -0.9356 -0.1266
   81SOPE   C32 7361   0.406   3.501   7.138 -0.3570 -0.3729 -0.2331
   81SOPE   H2X 7362   0.299   3.527   7.150 -0.8238 -1.8400 -0.8510
   81SOPE   H2Y 7363   0.415   3.420   7.061  1.1620 -0.7277  0.2861
   81SOPE   C23 7364   0.480   2.898   7.022 -0.0166  0.7353  0.0380
   81SOPE   H3R 7365   0.374   2.931   7.016 -0.3283 -0.3466 -0.8707
   81SOPE   H3S 7366   0.481   2.809   7.088 -1.4450 -1.5648 -2.7682
   81SOPE   C24 7367   0.538   2.837   6.884 -0.1757 -0.3587  0.6380
   81SOPE   H4R 7368   0.648   2.827   6.881  0.2060  2.2263  2.3603
   81SOPE   H4S 7369   0.483   2.741   6.871 -0.3431 -0.0901 -0.7936
   81SOPE   C25 7370   0.489   2.945   6.780 -0.2641  0.4691 -0.2176
   81SOPE   H5R 7371   0.378   2.949   6.787 -0.1712  1.1673  1.6255
   81SOPE   H5S 7372   0.527   3.046   6.807 -0.4721  0.7835 -1.0679
   81SOPE   C26 7373   0.539   2.916   6.638  0.4509  1.1323 -0.2113
   81SOPE   H6R 7374   0.521   3.004   6.572  1.5002  2.4830  1.2302
   81SOPE   H6S 7375   0.648   2.892   6.639  0.1389 -0.8315 -2.8079
   81SOPE   C27 7376   0.468   2.789   6.571 -0.1403 -0.2832 -0.2724
   81SOPE   H7R 7377   0.503   2.691   6.610  2.4365  1.1385  1.2767
   81SOPE   H7S 7378   0.358   2.798   6.584  0.0681 -0.4919  2.0991
   81SOPE   C28 7379   0.507   2.786   6.429 -0.4984 -0.3291 -0.6998
   81SOPE   H8R 7380   0.614   2.813   6.419  0.1530 -1.4286  2.2909
   81SOPE   H8S 7381   0.500   2.679   6.400 -0.4145 -0.2740 -0.9263
   81SOPE   C29 7382   0.425   2.867   6.342  0.3875  0.1804  0.8811
   81SOPE   H91 7383   0.399   2.966   6.381 -1.6175 -0.2806  0.8099
   81SOPE  C210 7384   0.383   2.828   6.221  0.0338 -0.4572 -0.1350
   81SOPE  H101 7385   0.318   2.895   6.162  0.3402  0.2973  0.3711
   81SOPE  C211 7386   0.416   2.701   6.139  0.6880  0.9219 -0.1183
   81SOPE  H11R 7387   0.333   2.633   6.111  1.1456 -0.2710  1.2621
   81SOPE  H11S 7388   0.478   2.635   6.204  1.2406  1.4514 -0.0968
   81SOPE  C212 7389   0.499   2.711   6.009 -0.4080 -0.7195 -0.3289
   81SOPE  H12R 7390   0.539   2.609   5.992 -1.1497 -1.4546  1.9585
   81SOPE  H12S 7391   0.588   2.774   6.030 -0.2514 -0.9945 -0.1674
   81SOPE  C213 7392   0.426   2.761   5.885 -0.0184  0.3134 -0.5323
   81SOPE  H13R 7393   0.402   2.870   5.888 -1.9650 -0.0990  0.5293
   81SOPE  H13S 7394   0.323   2.722   5.874  0.4101 -0.2822 -2.9027
   81SOPE  C214 7395   0.506   2.733   5.755  0.2833  0.4109  0.2179
   81SOPE  H14R 7396   0.541   2.628   5.753 -0.1206  0.2811 -0.2227
   81SOPE  H14S 7397   0.595   2.800   5.751  0.3709  0.2474 -1.0494
   81SOPE  C215 7398   0.438   2.760   5.618 -0.3005  0.4247 -0.2205
   81SOPE  H15R 7399   0.400   2.864   5.627 -1.2264 -0.0679  2.9419
   81SOPE  H15S 7400   0.348   2.698   5.595 -0.2334  1.1688 -2.7890
   81SOPE  C216 7401   0.535   2.747   5.499  0.3462 -0.3485  0.1698
   81SOPE  H16R 7402   0.618   2.675   5.518  1.1662  0.9481  1.8097
   81SOPE  H16S 7403   0.586   2.845   5.505 -0.3597  0.1268 -1.3031
   81SOPE  C217 7404   0.473   2.744   5.352 -0.3124  0.3662 -0.3966
   81SOPE  H17R 7405   0.546   2.710   5.276 -0.0240  0.3931 -0.1300
   81SOPE  H17S 7406   0.428   2.843   5.330 -1.0801  0.2904  0.7160
   81SOPE  C218 7407   0.365   2.631   5.336  0.3219 -0.5879  0.6453
   81SOPE  H18R 7408   0.273   2.669   5.386  0.5695  1.0256 -0.0406
   81SOPE  H18S 7409   0.384   2.535   5.387 -1.5317 -0.4630  1.6742
   81SOPE  H18T 7410   0.338   2.604   5.232  1.2493 -1.6054  0.6594
   81SOPE   C33 7411   0.498   3.613   7.090 -0.5394 -0.1857 -1.1983
   81SOPE   H3X 7412   0.606   3.588   7.076  0.2899  0.7973  2.4491
   81SOPE   H3Y 7413   0.491   3.701   7.156  0.9994 -0.5639 -0.4680
   81SOPE   C34 7414   0.451   3.674   6.961  0.5984 -0.0030 -0.0991
   81SOPE   H4X 7415   0.347   3.711   6.979  0.8578 -0.1028  1.8643
   81SOPE   H4Y 7416   0.430   3.600   6.882 -0.7957 -0.1689  0.3881
   81SOPE   C35 7417   0.538   3.779   6.908  0.2726 -0.8291  0.4990
   81SOPE   H5X 7418   0.638   3.733   6.888  0.6258  0.4932 -1.0091
   81SOPE   H5Y 7419   0.558   3.858   6.983 -0.4845 -1.0161  0.8978
   81SOPE   C36 7420   0.505   3.842   6.767 -0.3665 -0.0018 -0.5700
   81SOPE   H6X 7421   0.574   3.928   6.762 -0.4286  0.1402  0.6971
   81SOPE   H6Y 7422   0.399   3.873   6.753 -0.6584 -0.5140  0.3983
   81SOPE   C37 7423   0.527   3.750   6.643 -0.1380 -0.4976  0.3057
   81SOPE   H7X 7424   0.439   3.682   6.640  0.6661 -1.5378 -0.0520
   81SOPE   H7Y 7425   0.620   3.691   6.654 -1.1681 -2.3484 -0.4746
   81SOPE   C38 7426   0.509   3.824   6.509 -0.0120  0.1813 -0.1433
   81SOPE   H8X 7427   0.586   3.901   6.489  1.3041 -0.7636  1.0671
   81SOPE   H8Y 7428   0.414   3.877   6.531  0.1332  0.8715 -1.0995
   81SOPE   C39 7429   0.502   3.732   6.384  0.3067  0.1725 -0.6435
   81SOPE   H9X 7430   0.418   3.667   6.416  1.0559  0.3747  1.9223
   81SOPE   H9Y 7431   0.599   3.682   6.363  0.4137  0.6561 -1.3256
   81SOPE  C310 7432   0.465   3.807   6.260 -0.1890  0.2773  0.3888
   81SOPE  H10X 7433   0.537   3.890   6.273 -0.0517 -0.0499  2.0258
   81SOPE  H10Y 7434   0.360   3.842   6.270 -0.2724 -0.2327  1.4701
   81SOPE  C311 7435   0.489   3.726   6.131  0.8593 -0.7096  0.2978
   81SOPE  H11X 7436   0.415   3.644   6.125  0.5022 -0.4280  0.7840
   81SOPE  H11Y 7437   0.591   3.684   6.144  1.1583  0.1309  0.7465
   81SOPE  C312 7438   0.482   3.808   5.999 -0.1249 -0.4284 -0.2507
   81SOPE  H12X 7439   0.516   3.910   6.027 -0.7677 -0.1283 -0.5269
   81SOPE  H12Y 7440   0.377   3.825   5.966 -0.4439 -0.3855  0.7738
   81SOPE  C313 7441   0.575   3.754   5.886 -0.5298 -0.3415  0.2258
   81SOPE  H13X 7442   0.543   3.652   5.856 -4.1675  0.0947  2.1253
   81SOPE  H13Y 7443   0.674   3.753   5.936  0.0283  0.1243 -0.8221
   81SOPE  C314 7444   0.581   3.845   5.764  0.0606 -0.2728 -0.0220
   81SOPE  H14X 7445   0.631   3.937   5.801  1.4755 -1.1135  0.2172
   81SOPE  H14Y 7446   0.480   3.869   5.726  1.6792  0.5266 -4.3797
   81SOPE  C315 7447   0.667   3.771   5.653  0.1999 -0.0361 -0.1907
   81SOPE  H15X 7448   0.615   3.686   5.604 -1.8185  1.2342 -0.4079
   81SOPE  H15Y 7449   0.743   3.713   5.708 -0.5981 -0.2030  0.7773
   81SOPE  C316 7450   0.734   3.866   5.556 -0.0886 -0.3364  0.3354
   81SOPE  H16X 7451   0.787   3.800   5.483  1.3011  1.3035 -0.2023
   81SOPE  H16Y 7452   0.803   3.935   5.607 -0.3196 -1.2684  1.9679
   81SOPE  C317 7453   0.634   3.952   5.484  0.2915  0.9297  0.0868
   81SOPE  H17X 7454   0.602   4.024   5.562 -2.5588 -2.7219  2.5913
   81SOPE  H17Y 7455   0.546   3.893   5.450  2.0678 -2.1491  0.4520
   81SOPE  C318 7456   0.694   4.033   5.359 -0.4246 -0.0614  0.1101
   81SOPE  H18X 7457   0.650   4.132   5.337  0.2338  0.4994  1.1910
   81SOPE  H18Y 7458   0.690   3.974   5.265  0.5863  0.0001  0.0191
   81SOPE  H18Z 7459   0.803   4.050   5.370 -0.7895  1.7690  1.3613
   82SOPE     N 7460   5.459   4.713   7.377 -0.5107  0.1111 -0.3234
   82SOPE   HN1 7461   5.520   4.652   7.435 -0.3430 -0.4045 -1.0253
   82SOPE   HN2 7462   5.521   4.796   7.375 -1.0720  0.5772 -3.7274
   82SOPE   HN3 7463   5.372   4.734   7.431  0.7024 -2.3416  2.9562
   82SOPE   C12 7464   5.437   4.647   7.246 -0.4620 -0.5600  0.1957
   82SOPE  H12A 7465   5.367   4.705   7.183 -0.9494 -1.0379  0.2953
   82SOPE  H12B 7466   5.379   4.555   7.269  0.3561 -1.2582 -0.4753
   82SOPE   C11 7467   5.576   4.600   7.178 -0.3114 -0.7795  0.1407
   82SOPE  H11A 7468   5.629   4.696   7.156 -0.5896  0.2060  3.2848
   82SOPE  H11B 7469   5.550   4.556   7.079  0.5255 -2.3916  0.6108
   82SOPE     P 7470   5.799   4.482   7.199 -0.1983 -0.0658 -0.3508
   82SOPE   O13 7471   5.863   4.377   7.283 -0.1667  0.1419  0.2824
   82SOPE   O14 7472   5.861   4.617   7.194 -0.5157  0.1827  0.4126
   82SOPE   O12 7473   5.649   4.504   7.257  0.1871 -0.0173 -0.2760
   82SOPE   O11 7474   5.770   4.432   7.057  0.0072  0.2104  0.3843
   82SOPE    C1 7475   5.746   4.293   7.037 -0.2458 -0.5842 -0.1084
   82SOPE    HA 7476   5.667   4.266   7.109  0.2422  1.6831  1.3948
   82SOPE    HB 7477   5.835   4.232   7.064 -0.8509 -1.3831  0.0956
   82SOPE    C2 7478   5.709   4.272   6.888  0.5062 -0.4921  0.1900
   82SOPE    HS 7479   5.677   4.167   6.871  0.7377 -0.5961  0.3856
   82SOPE   O21 7480   5.823   4.307   6.806  0.2408  0.3025  0.6069
   82SOPE   C21 7481   5.917   4.212   6.806  0.5396  0.2469 -0.1492
   82SOPE   O22 7482   5.909   4.106   6.866 -0.4116  0.0829 -0.0158
   82SOPE   C22 7483   6.034   4.261   6.730  0.4093  0.2810  0.0239
   82SOPE   H2R 7484   6.121   4.197   6.757 -0.1350 -0.2835  0.4634
   82SOPE   H2S 7485   6.063   4.362   6.766  2.2571 -0.2731  0.2299
   82SOPE    C3 7486   5.590   4.366   6.849 -0.1295  0.2181 -0.3133
   82SOPE    HX 7487   5.617   4.472   6.866  2.0698 -0.4479  0.7876
   82SOPE    HY 7488   5.506   4.341   6.917 -1.1656  0.7839 -1.3343
   82SOPE   O31 7489   5.551   4.335   6.711  0.0441 -0.0467 -0.3435
   82SOPE   C31 7490   5.604   4.402   6.615  0.1508  0.7699 -0.4447
   82SOPE   O32 7491   5.674   4.497   6.626 -0.0909 -0.5731 -0.4023
   82SOPE   C32 7492   5.543   4.349   6.479  0.3283  1.1749 -0.7360
   82SOPE   H2X 7493   5.436   4.344   6.507  1.2102  0.8037  3.1962
   82SOPE   H2Y 7494   5.566   4.241   6.462 -0.6634  0.6026  1.2300
   82SOPE   C23 7495   6.007   4.262   6.574 -0.3100  0.5195 -0.6933
   82SOPE   H3R 7496   6.089   4.307   6.515  1.3568 -0.1817  0.9912
   82SOPE   H3S 7497   5.913   4.316   6.550 -0.0609  1.5186  0.4956
   82SOPE   C24 7498   6.008   4.118   6.521  0.5242 -0.6754  0.4209
   82SOPE   H4R 7499   6.104   4.067   6.499  0.2580 -0.7642 -0.6079
   82SOPE   H4S 7500   5.950   4.046   6.583  0.2204 -1.0176 -0.2414
   82SOPE   C25 7501   5.942   4.129   6.379 -0.1622  0.5905  0.2528
   82SOPE   H5R 7502   5.832   4.140   6.383 -0.1669  0.5841  0.1438
   82SOPE   H5S 7503   5.984   4.209   6.313 -1.3857  1.8533  0.9548
   82SOPE   C26 7504   5.977   4.007   6.294  0.9633 -0.4598 -0.0571
   82SOPE   H6R 7505   6.087   4.007   6.285  1.0540 -1.4221  0.8273
   82SOPE   H6S 7506   5.960   3.913   6.350  1.5760 -0.4804  0.1035
   82SOPE   C27 7507   5.916   4.012   6.161 -0.0125 -0.6513 -0.3606
   82SOPE   H7R 7508   5.809   3.996   6.187  0.7439 -0.2027  3.6671
   82SOPE   H7S 7509   5.926   4.109   6.108 -2.1583 -1.4368 -2.3434
   82SOPE   C28 7510   5.968   3.908   6.063 -0.7276  0.2069  0.1062
   82SOPE   H8R 7511   6.072   3.938   6.035 -0.4263 -1.3364 -0.5530
   82SOPE   H8S 7512   5.977   3.816   6.126 -1.0168  0.1252  0.0265
   82SOPE   C29 7513   5.884   3.898   5.944 -0.0589 -0.6500  0.8219
   82SOPE   H91 7514   5.798   3.833   5.966  0.1589 -0.6893  1.5815
   82SOPE  C210 7515   5.900   3.962   5.833 -0.0451 -0.9243  0.1107
   82SOPE  H101 7516   5.825   3.957   5.753  0.9417  0.0747 -0.9260
   82SOPE  C211 7517   6.012   4.058   5.792 -0.5729  0.3602  0.3443
   82SOPE  H11R 7518   6.075   4.092   5.877 -0.7951  1.6275  0.0304
   82SOPE  H11S 7519   5.975   4.155   5.751 -0.5587 -0.2796 -1.2456
   82SOPE  C212 7520   6.096   3.992   5.681  0.3456  0.4100  0.1676
   82SOPE  H12R 7521   6.155   4.074   5.633 -0.7166 -0.8274 -3.5674
   82SOPE  H12S 7522   6.028   3.953   5.602  1.6284 -2.2093  0.2680
   82SOPE  C213 7523   6.195   3.884   5.725 -0.3577 -0.1678  0.3639
   82SOPE  H13R 7524   6.131   3.805   5.769 -0.5579 -0.7001 -0.8347
   82SOPE  H13S 7525   6.243   3.928   5.815 -2.5092 -1.1116  2.0436
   82SOPE  C214 7526   6.276   3.826   5.606  0.7849  0.4583  0.4162
   82SOPE  H14R 7527   6.320   3.913   5.553 -0.5505 -0.0086 -1.5609
   82SOPE  H14S 7528   6.209   3.778   5.531 -0.9683 -0.3616  2.3953
   82SOPE  C215 7529   6.376   3.724   5.650 -0.0411 -0.1523 -0.3949
   82SOPE  H15R 7530   6.325   3.644   5.708  2.8279 -1.2963  0.7511
   82SOPE  H15S 7531   6.457   3.766   5.713  1.2375  0.7612 -2.5513
   82SOPE  C216 7532   6.459   3.648   5.541  0.0412  0.3717  0.7308
   82SOPE  H16R 7533   6.528   3.570   5.579  0.2497 -0.2930 -0.9463
   82SOPE  H16S 7534   6.530   3.724   5.501  0.9476 -1.6799 -1.8048
   82SOPE  C217 7535   6.392   3.608   5.413  0.9802  0.4089  0.0630
   82SOPE  H17R 7536   6.342   3.699   5.374 -0.7699 -1.2209 -1.7039
   82SOPE  H17S 7537   6.301   3.547   5.427  0.4807  0.3534 -2.9062
   82SOPE  C218 7538   6.463   3.524   5.307 -0.1333 -0.2426 -0.7650
   82SOPE  H18R 7539   6.506   3.432   5.353  1.8498  0.3801 -1.2758
   82SOPE  H18S 7540   6.559   3.566   5.269 -0.8163  0.8709 -1.2895
   82SOPE  H18T 7541   6.397   3.506   5.219 -1.1993 -1.0048  0.1637
   82SOPE   C33 7542   5.570   4.449   6.363  0.2959  0.3030 -0.5268
   82SOPE   H3X 7543   5.553   4.556   6.387 -0.2436 -0.0466  0.7532
   82SOPE   H3Y 7544   5.498   4.425   6.282  1.8508 -1.5403 -1.4446
   82SOPE   C34 7545   5.715   4.444   6.318  0.5570 -0.2130  0.5087
   82SOPE   H4X 7546   5.746   4.341   6.288 -0.1441  0.6040 -3.5719
   82SOPE   H4Y 7547   5.779   4.471   6.405  0.5662  0.8715  0.1728
   82SOPE   C35 7548   5.753   4.537   6.201  0.4294 -0.9905 -0.2618
   82SOPE   H5X 7549   5.862   4.554   6.197  0.2899 -0.2219 -1.1348
   82SOPE   H5Y 7550   5.704   4.635   6.224 -0.8898 -1.2374 -1.8742
   82SOPE   C36 7551   5.700   4.491   6.069 -0.1604 -0.2060  0.2869
   82SOPE   H6X 7552   5.728   4.562   5.988 -0.4858  0.6453  0.9039
   82SOPE   H6Y 7553   5.589   4.500   6.066 -0.2551 -1.0204  1.0071
   82SOPE   C37 7554   5.723   4.340   6.036  0.5827 -0.6809 -0.1410
   82SOPE   H7X 7555   5.684   4.282   6.123 -1.2151 -0.8037 -0.9862
   82SOPE   H7Y 7556   5.832   4.333   6.017  0.6637  1.0369 -0.4903
   82SOPE   C38 7557   5.658   4.279   5.914 -0.3826  0.1384 -0.7535
   82SOPE   H8X 7558   5.549   4.285   5.936 -0.2497  0.4556 -0.1649
   82SOPE   H8Y 7559   5.680   4.170   5.915  0.0102  0.2060  0.9084
   82SOPE   C39 7560   5.689   4.352   5.784 -0.1814 -0.0937  0.1215
   82SOPE   H9X 7561   5.800   4.362   5.779 -0.1772 -0.2049 -0.0196
   82SOPE   H9Y 7562   5.644   4.453   5.788 -0.0744 -0.0453  4.3793
   82SOPE  C310 7563   5.638   4.291   5.651 -0.6075  0.0277  0.5575
   82SOPE  H10X 7564   5.648   4.375   5.578 -1.2506  0.0256  0.4605
   82SOPE  H10Y 7565   5.532   4.259   5.643 -0.2264 -0.9677 -1.1512
   82SOPE  C311 7566   5.718   4.169   5.601  0.1439 -0.6461 -0.3477
   82SOPE  H11X 7567   5.683   4.078   5.655 -2.0333 -0.4413 -1.2898
   82SOPE  H11Y 7568   5.827   4.186   5.602  0.0743 -0.1464  0.9427
   82SOPE  C312 7569   5.671   4.137   5.455 -0.1327 -0.2525 -0.3909
   82SOPE  H12X 7570   5.715   4.222   5.398  0.1928  0.2935  0.6450
   82SOPE  H12Y 7571   5.560   4.130   5.453 -0.2170 -0.8861  2.3861
   82SOPE  C313 7572   5.728   4.003   5.407 -0.0454  0.4321  1.0960
   82SOPE  H13X 7573   5.837   4.013   5.423 -0.1183  0.7588  1.3807
   82SOPE  H13Y 7574   5.718   3.984   5.298 -0.5986  1.8094  0.8851
   82SOPE  C314 7575   5.687   3.869   5.475  1.3434  0.2947 -0.2383
   82SOPE  H14X 7576   5.720   3.880   5.580 -0.5567  0.7880  0.3452
   82SOPE  H14Y 7577   5.737   3.786   5.422  0.0085 -0.3608 -0.5212
   82SOPE  C315 7578   5.540   3.831   5.475 -0.0494 -0.6204  0.5183
   82SOPE  H15X 7579   5.477   3.920   5.498 -2.3216 -1.8451 -0.5980
   82SOPE  H15Y 7580   5.510   3.756   5.550  3.6006 -3.4101 -0.5319
   82SOPE  C316 7581   5.501   3.785   5.336  0.1340  0.2377 -1.0926
   82SOPE  H16X 7582   5.553   3.687   5.331 -2.5039 -1.5684  2.4413
   82SOPE  H16Y 7583   5.539   3.846   5.251 -0.3055  1.2168 -0.5974
   82SOPE  C317 7584   5.351   3.752   5.322  0.0876  0.2368  0.1612
   82SOPE  H17X 7585   5.296   3.847   5.335  1.7863  1.3921 -0.6705
   82SOPE  H17Y 7586   5.321   3.685   5.405  0.2828 -1.1163 -0.8024
   82SOPE  C318 7587   5.319   3.695   5.185  0.2301  0.1778 -0.1907
   82SOPE  H18X 7588   5.382   3.604   5.181  0.2620  0.1642  0.4830
   82SOPE  H18Y 7589   5.344   3.766   5.103 -0.3450  2.0583  1.1798
   82SOPE  H18Z 7590   5.212   3.672   5.169 -0.3951  1.6684  1.4979
   83SOPE     N 7591   3.092   1.480   3.368  0.1372 -0.0919  0.4633
   83SOPE   HN1 7592   3.128   1.483   3.270 -1.2192 -0.6385 -0.0886
   83SOPE   HN2 7593   3.033   1.565   3.384 -0.9040 -0.7178  0.0790
   83SOPE   HN3 7594   3.172   1.484   3.433  0.4069 -0.5218  0.1630
   83SOPE   C12 7595   3.022   1.350   3.397 -0.3633  0.4491 -0.1373
   83SOPE  H12A 7596   3.012   1.288   3.305  0.7868 -1.4611  0.9417
   83SOPE  H12B 7597   2.924   1.369   3.447 -0.0719 -2.4466  1.7999
   83SOPE   C11 7598   3.096   1.267   3.498 -0.1193 -1.1230  0.2596
   83SOPE  H11A 7599   3.045   1.173   3.529 -1.3589 -0.2854  0.8170
   83SOPE  H11B 7600   3.093   1.327   3.591  1.4475  1.4495 -1.2363
   83SOPE     P 7601   3.316   1.133   3.528  0.3349  0.1668 -0.2504
   83SOPE   O13 7602   3.458   1.161   3.500  0.5259 -0.0528  0.1004
   83SOPE   O14 7603   3.274   0.996   3.474  0.3666 -0.4235 -0.3902
   83SOPE   O12 7604   3.227   1.251   3.463 -0.0490 -0.1542 -0.0671
   83SOPE   O11 7605   3.288   1.136   3.688 -0.4395 -0.0926 -0.1439
   83SOPE    C1 7606   3.389   1.148   3.788  0.5043 -0.5435  0.4086
   83SOPE    HA 7607   3.384   1.246   3.840 -1.4105 -1.0085  1.1736
   83SOPE    HB 7608   3.496   1.128   3.764  0.8758  0.9911  0.7037
   83SOPE    C2 7609   3.373   1.037   3.897 -0.3544 -0.2182 -0.3483
   83SOPE    HS 7610   3.450   1.034   3.977 -0.7695 -1.4737  0.0367
   83SOPE   O21 7611   3.377   0.907   3.832  0.2422  0.4292 -0.8962
   83SOPE   C21 7612   3.495   0.858   3.789 -0.1942 -0.3228 -0.1381
   83SOPE   O22 7613   3.599   0.921   3.802 -0.3881  0.0311  0.1906
   83SOPE   C22 7614   3.491   0.729   3.725 -0.1104  0.5259  0.1052
   83SOPE   H2R 7615   3.586   0.706   3.671 -0.6479  0.3917 -0.7855
   83SOPE   H2S 7616   3.407   0.737   3.654  1.8351 -0.6244 -2.4897
   83SOPE    C3 7617   3.239   1.049   3.965 -0.2979  0.0610  0.3939
   83SOPE    HX 7618   3.233   0.959   4.030 -1.4476  0.5296  0.9704
   83SOPE    HY 7619   3.168   1.051   3.879 -1.8934 -1.8631  1.5777
   83SOPE   O31 7620   3.226   1.164   4.051  0.2766  0.0592 -0.0560
   83SOPE   C31 7621   3.132   1.247   4.006  0.6028  0.3853 -1.3949
   83SOPE   O32 7622   3.054   1.234   3.914 -0.3576  0.0700 -0.1983
   83SOPE   C32 7623   3.153   1.376   4.083 -0.7834 -0.5631 -0.4538
   83SOPE   H2X 7624   3.170   1.456   4.007 -0.4768 -0.6330 -0.4572
   83SOPE   H2Y 7625   3.235   1.377   4.158 -1.3896 -1.2536  0.2346
   83SOPE   C23 7626   3.460   0.621   3.831 -0.1666 -0.4509 -0.1752
   83SOPE   H3R 7627   3.454   0.527   3.772 -2.3694 -0.6370  0.2540
   83SOPE   H3S 7628   3.360   0.644   3.875 -0.4497  0.5493 -1.2706
   83SOPE   C24 7629   3.557   0.588   3.950  0.8811 -0.1239 -0.4870
   83SOPE   H4R 7630   3.527   0.484   3.972 -0.5883  0.3293 -0.2413
   83SOPE   H4S 7631   3.663   0.598   3.917  0.5142 -2.4138 -2.6626
   83SOPE   C25 7632   3.535   0.684   4.065 -0.6303  0.0861  0.0777
   83SOPE   H5R 7633   3.578   0.779   4.027 -0.1899 -0.4130 -0.7019
   83SOPE   H5S 7634   3.430   0.711   4.090 -0.0592  1.0998  1.5339
   83SOPE   C26 7635   3.611   0.643   4.196  0.4407  0.0384 -0.1479
   83SOPE   H6R 7636   3.573   0.542   4.225 -0.3531  1.1310  2.9958
   83SOPE   H6S 7637   3.719   0.633   4.174  0.5377  0.0672  0.3103
   83SOPE   C27 7638   3.594   0.746   4.310  0.9443 -0.3035  0.3416
   83SOPE   H7R 7639   3.620   0.844   4.266  0.6679  0.1990  1.2697
   83SOPE   H7S 7640   3.490   0.759   4.347  0.6594  0.9289 -0.8159
   83SOPE   C28 7641   3.686   0.703   4.425  0.2864 -0.2585 -0.7123
   83SOPE   H8R 7642   3.657   0.603   4.464  2.8827 -0.3350  1.2655
   83SOPE   H8S 7643   3.789   0.701   4.382  0.0727 -0.6631 -1.2182
   83SOPE   C29 7644   3.683   0.789   4.544 -0.9780  0.1387 -0.1960
   83SOPE   H91 7645   3.643   0.890   4.531  0.5574  0.9127  0.7319
   83SOPE  C210 7646   3.756   0.769   4.658 -0.1511  0.6434 -0.0749
   83SOPE  H101 7647   3.748   0.846   4.735 -1.3244  0.0717  0.4114
   83SOPE  C211 7648   3.830   0.644   4.689  0.2455  0.1582  0.1569
   83SOPE  H11R 7649   3.914   0.664   4.759  0.9340 -0.4826 -0.4781
   83SOPE  H11S 7650   3.883   0.617   4.595 -0.2767  1.5419 -0.5720
   83SOPE  C212 7651   3.749   0.536   4.750  0.2709  0.4215  1.0420
   83SOPE  H12R 7652   3.808   0.441   4.748 -0.8706 -0.3481  2.1214
   83SOPE  H12S 7653   3.658   0.510   4.692  1.0780  1.8091 -0.9431
   83SOPE  C213 7654   3.732   0.561   4.905  0.0288  0.5826  0.3801
   83SOPE  H13R 7655   3.678   0.657   4.922  0.5423  1.1790 -1.1131
   83SOPE  H13S 7656   3.833   0.576   4.947 -0.0177 -1.9220  1.5495
   83SOPE  C214 7657   3.675   0.455   4.987  0.5297 -0.4381 -0.2512
   83SOPE  H14R 7658   3.708   0.355   4.951  4.4817 -0.2913  2.3595
   83SOPE  H14S 7659   3.564   0.456   4.991  0.5623 -0.3996  1.7981
   83SOPE  C215 7660   3.722   0.468   5.137  0.4715  0.0589  0.0189
   83SOPE  H15R 7661   3.655   0.542   5.186 -0.4977 -0.3261 -0.6885
   83SOPE  H15S 7662   3.827   0.504   5.140  0.6807 -0.5779  1.1980
   83SOPE  C216 7663   3.698   0.336   5.213 -0.4211 -0.8237 -0.2216
   83SOPE  H16R 7664   3.730   0.251   5.149 -0.5414 -0.2160 -1.1106
   83SOPE  H16S 7665   3.590   0.331   5.236 -0.7062  1.8581 -0.6561
   83SOPE  C217 7666   3.769   0.338   5.355  0.2559  0.0166 -0.0360
   83SOPE  H17R 7667   3.743   0.429   5.413 -2.8532 -1.3403  0.9342
   83SOPE  H17S 7668   3.879   0.332   5.345  0.2271 -1.6153  0.3344
   83SOPE  C218 7669   3.735   0.217   5.443  0.3131 -0.3090  0.0127
   83SOPE  H18R 7670   3.765   0.132   5.379 -0.7312  0.2000 -1.1826
   83SOPE  H18S 7671   3.626   0.199   5.451  0.1325 -0.8236 -2.8346
   83SOPE  H18T 7672   3.796   0.200   5.535 -1.4616  0.3776  1.3729
   83SOPE   C33 7673   3.026   1.429   4.154 -0.7346  0.5342 -0.9361
   83SOPE   H3X 7674   2.938   1.426   4.085 -1.5225  1.7764 -0.0187
   83SOPE   H3Y 7675   3.050   1.535   4.177 -1.3400  0.0277  2.6275
   83SOPE   C34 7676   2.996   1.357   4.288 -0.4635  0.1227 -0.8709
   83SOPE   H4X 7677   2.992   1.248   4.271 -1.1749  0.1040 -0.6051
   83SOPE   H4Y 7678   2.895   1.392   4.320  0.4887  1.3093  1.0337
   83SOPE   C35 7679   3.092   1.386   4.410  0.3303  0.3627  0.1271
   83SOPE   H5X 7680   3.074   1.494   4.422 -1.0999 -0.0564  2.2420
   83SOPE   H5Y 7681   3.192   1.342   4.393 -0.9790 -2.2258 -1.7136
   83SOPE   C36 7682   3.042   1.316   4.541  0.5835  0.8281  0.0530
   83SOPE   H6X 7683   3.077   1.211   4.541  0.1494  0.6796 -1.0811
   83SOPE   H6Y 7684   2.932   1.307   4.534  0.8429 -1.1179 -3.7842
   83SOPE   C37 7685   3.077   1.384   4.675 -0.2978  0.1076  0.3422
   83SOPE   H7X 7686   3.034   1.484   4.653  0.1729  0.1462 -0.4559
   83SOPE   H7Y 7687   3.187   1.386   4.686 -0.0640 -1.8619 -1.0119
   83SOPE   C38 7688   3.013   1.303   4.792 -0.0169  0.2175 -0.5113
   83SOPE   H8X 7689   3.017   1.194   4.771  1.7760  0.7038 -3.0200
   83SOPE   H8Y 7690   2.907   1.337   4.798 -0.1348  0.0579 -1.5703
   83SOPE   C39 7691   3.099   1.318   4.922  0.5960 -0.5547  0.6471
   83SOPE   H9X 7692   3.110   1.424   4.953 -0.3030 -0.0758 -0.6201
   83SOPE   H9Y 7693   3.199   1.277   4.898  0.2132 -1.1486  0.0361
   83SOPE  C310 7694   3.043   1.240   5.044  0.0047  0.2742  0.2210
   83SOPE  H10X 7695   3.044   1.134   5.014 -1.1110  0.1421  0.6003
   83SOPE  H10Y 7696   2.936   1.264   5.061 -0.4695 -2.2220  1.2357
   83SOPE  C311 7697   3.117   1.254   5.183  0.6385  0.3618  0.1940
   83SOPE  H11X 7698   3.087   1.159   5.232 -0.1417  0.4409 -0.1312
   83SOPE  H11Y 7699   3.090   1.342   5.246  0.5661  0.4463  0.0438
   83SOPE  C312 7700   3.270   1.248   5.165 -0.0570 -0.4644 -0.2932
   83SOPE  H12X 7701   3.304   1.348   5.131 -0.9077  0.0851  0.4247
   83SOPE  H12Y 7702   3.314   1.173   5.095 -0.9747 -2.1459  0.8511
   83SOPE  C313 7703   3.345   1.238   5.299 -0.5410 -0.5100 -0.4169
   83SOPE  H13X 7704   3.328   1.145   5.357  1.4087 -0.6160  0.0468
   83SOPE  H13Y 7705   3.307   1.325   5.357  0.4805  0.9953 -1.9166
   83SOPE  C314 7706   3.503   1.255   5.293  0.7545 -0.3715  0.2188
   83SOPE  H14X 7707   3.530   1.333   5.218  1.5259 -0.5603  0.2919
   83SOPE  H14Y 7708   3.540   1.158   5.254  0.5471 -0.3364 -0.0680
   83SOPE  C315 7709   3.565   1.290   5.431 -0.1418  0.0720  0.0409
   83SOPE  H15X 7710   3.507   1.233   5.506 -0.1624  1.3774  1.0558
   83SOPE  H15Y 7711   3.549   1.397   5.456 -0.0292 -0.3669  2.1881
   83SOPE  C316 7712   3.710   1.256   5.431 -0.6685  0.0529  0.6260
   83SOPE  H16X 7713   3.758   1.301   5.342 -0.4107  0.2637  0.8684
   83SOPE  H16Y 7714   3.716   1.146   5.413 -1.9525  0.4117 -2.7180
   83SOPE  C317 7715   3.793   1.284   5.545 -0.3352  0.5003  0.0219
   83SOPE  H17X 7716   3.893   1.237   5.535 -0.4725  0.2637 -0.2633
   83SOPE  H17Y 7717   3.745   1.246   5.638 -0.3921  0.5261  0.0029
   83SOPE  C318 7718   3.834   1.433   5.566 -0.1237  1.6619 -0.5155
   83SOPE  H18X 7719   3.861   1.475   5.467  0.0653  0.8392 -0.8200
   83SOPE  H18Y 7720   3.921   1.429   5.635  0.0788  0.5632 -0.8191
   83SOPE  H18Z 7721   3.762   1.500   5.618 -0.2435  0.8582  0.3913
   84SOPE     N 7722   6.728   5.978   2.830 -0.2550 -0.2986 -0.5988
   84SOPE   HN1 7723   6.661   6.032   2.889 -0.1051  0.6747 -1.2885
   84SOPE   HN2 7724   6.778   5.904   2.882  1.7892  2.7825  2.2966
   84SOPE   HN3 7725   6.798   6.046   2.793  1.6804 -1.2528  1.1017
   84SOPE   C12 7726   6.664   5.917   2.711  0.2980  0.1573 -0.5089
   84SOPE  H12A 7727   6.743   5.916   2.633  0.9545 -1.0984  0.1337
   84SOPE  H12B 7728   6.577   5.980   2.683 -0.5185  0.4650  2.4434
   84SOPE   C11 7729   6.597   5.781   2.743 -0.8466 -0.3761 -0.1345
   84SOPE  H11A 7730   6.555   5.730   2.654 -0.8862 -0.7379  0.0920
   84SOPE  H11B 7731   6.509   5.795   2.809  0.0100 -1.7140  1.3388
   84SOPE     P 7732   6.687   5.547   2.826  0.0779 -0.4234  0.2739
   84SOPE   O13 7733   6.809   5.504   2.896 -0.2466 -0.3679 -0.2675
   84SOPE   O14 7734   6.674   5.488   2.688 -0.3562  0.4054 -0.4969
   84SOPE   O12 7735   6.700   5.709   2.807  0.1989  0.6120  0.6410
   84SOPE   O11 7736   6.559   5.529   2.912  0.0894  0.5256 -0.3673
   84SOPE    C1 7737   6.543   5.588   3.037  0.7689 -0.2609  0.4250
   84SOPE    HA 7738   6.439   5.628   3.039  0.2159 -1.6422  2.3927
   84SOPE    HB 7739   6.608   5.676   3.051  0.4488  0.6228 -2.8429
   84SOPE    C2 7740   6.538   5.473   3.144  0.3300  0.1017  0.3707
   84SOPE    HS 7741   6.497   5.510   3.241 -3.5243 -1.1238 -0.6048
   84SOPE   O21 7742   6.666   5.430   3.166 -0.4623  0.5895 -0.2113
   84SOPE   C21 7743   6.743   5.517   3.228 -0.4042  0.1717  0.4018
   84SOPE   O22 7744   6.705   5.624   3.275 -0.0025  0.4196 -0.6557
   84SOPE   C22 7745   6.876   5.457   3.236 -0.3659  0.3080 -0.0879
   84SOPE   H2R 7746   6.942   5.479   3.149 -0.5383 -2.3593 -0.9896
   84SOPE   H2S 7747   6.883   5.346   3.229  3.2063  0.4647 -1.2704
   84SOPE    C3 7748   6.450   5.353   3.110 -0.6096 -0.2483  0.3536
   84SOPE    HX 7749   6.511   5.298   3.036 -0.1448 -1.1164  1.3555
   84SOPE    HY 7750   6.356   5.381   3.059 -0.8382 -1.8988 -0.1666
   84SOPE   O31 7751   6.423   5.280   3.227 -0.5543 -0.4234 -0.4848
   84SOPE   C31 7752   6.518   5.198   3.266  0.8593  0.0445  0.4465
   84SOPE   O32 7753   6.612   5.153   3.203 -0.2848 -0.0287  0.4544
   84SOPE   C32 7754   6.493   5.176   3.413 -0.2655  0.0344  0.2617
   84SOPE   H2X 7755   6.578   5.117   3.454  0.3013  0.4027 -0.3536
   84SOPE   H2Y 7756   6.408   5.105   3.418  0.8681 -1.3126  1.2732
   84SOPE   C23 7757   6.950   5.497   3.365 -0.3562 -0.2427 -0.6495
   84SOPE   H3R 7758   6.956   5.608   3.366 -2.8815 -0.0507  0.1210
   84SOPE   H3S 7759   7.055   5.462   3.370 -0.9119 -1.8685  0.6060
   84SOPE   C24 7760   6.878   5.438   3.486 -0.0896 -0.2174  0.8227
   84SOPE   H4R 7761   6.785   5.498   3.499  1.3280  2.7554 -1.4047
   84SOPE   H4S 7762   6.850   5.332   3.467  3.3414 -1.4657  1.9755
   84SOPE   C25 7763   6.961   5.450   3.616  0.4594  0.7242  0.3133
   84SOPE   H5R 7764   7.049   5.386   3.594  0.4666  1.2659 -1.4370
   84SOPE   H5S 7765   6.991   5.556   3.629 -3.0798  1.9547 -0.5460
   84SOPE   C26 7766   6.879   5.395   3.738 -0.7108 -0.5371  0.0715
   84SOPE   H6R 7767   6.818   5.311   3.696 -0.9563  0.7665 -2.3825
   84SOPE   H6S 7768   6.949   5.349   3.811  0.9411 -0.6464 -1.4833
   84SOPE   C27 7769   6.797   5.504   3.798  0.3793 -0.7255 -0.3692
   84SOPE   H7R 7770   6.864   5.590   3.821 -1.3662  0.9897 -1.4476
   84SOPE   H7S 7771   6.737   5.542   3.713  0.9208  1.3365  0.1309
   84SOPE   C28 7772   6.711   5.454   3.918  0.6087  0.3049 -0.6034
   84SOPE   H8R 7773   6.635   5.380   3.887  1.1091 -0.4134 -0.1615
   84SOPE   H8S 7774   6.778   5.404   3.992  0.7039  0.6049 -0.4850
   84SOPE   C29 7775   6.640   5.567   3.989 -0.1802  0.1715  0.1912
   84SOPE   H91 7776   6.549   5.603   3.938 -0.6692 -0.3578  0.6752
   84SOPE  C210 7777   6.655   5.594   4.121 -1.0792 -0.1101 -0.7191
   84SOPE  H101 7778   6.602   5.675   4.174  0.9548  1.0403 -0.3546
   84SOPE  C211 7779   6.769   5.544   4.213 -0.0595  0.2484 -0.5747
   84SOPE  H11R 7780   6.812   5.629   4.271 -0.7317  0.5251 -0.4717
   84SOPE  H11S 7781   6.845   5.500   4.145 -1.8298 -0.4605 -2.1648
   84SOPE  C212 7782   6.716   5.438   4.311  0.7196 -0.0252 -0.2439
   84SOPE  H12R 7783   6.686   5.343   4.262 -0.3648  0.3488 -0.3255
   84SOPE  H12S 7784   6.624   5.474   4.362  1.3097  0.0760  0.7714
   84SOPE  C213 7785   6.817   5.412   4.427  0.9022  0.3413  0.4528
   84SOPE  H13R 7786   6.859   5.509   4.459  1.4745  0.2511 -0.0210
   84SOPE  H13S 7787   6.903   5.347   4.399  0.4540 -0.4707  0.9207
   84SOPE  C214 7788   6.756   5.346   4.554  0.6281 -0.1372 -0.3339
   84SOPE  H14R 7789   6.692   5.265   4.512 -1.9717  1.3891  0.5217
   84SOPE  H14S 7790   6.700   5.418   4.616 -1.4274 -2.1114  0.2118
   84SOPE  C215 7791   6.860   5.292   4.651  0.2637  0.5504 -0.2094
   84SOPE  H15R 7792   6.904   5.205   4.597  1.5793  1.7967 -1.2307
   84SOPE  H15S 7793   6.802   5.244   4.732  0.6329 -3.1395 -1.9191
   84SOPE  C216 7794   6.967   5.388   4.706  0.7542 -0.3380 -0.3347
   84SOPE  H16R 7795   6.916   5.470   4.760 -0.2646 -1.9856  1.2839
   84SOPE  H16S 7796   7.028   5.427   4.621 -0.2194 -1.6054 -1.6723
   84SOPE  C217 7797   7.071   5.331   4.797 -0.2625  0.1065  0.4810
   84SOPE  H17R 7798   7.026   5.286   4.888 -0.7005  0.5846  0.5100
   84SOPE  H17S 7799   7.138   5.409   4.840  0.0152 -0.9303  2.0329
   84SOPE  C218 7800   7.144   5.218   4.731 -0.1411 -0.6389  0.0085
   84SOPE  H18R 7801   7.064   5.144   4.709 -2.5002  0.8226  2.9976
   84SOPE  H18S 7802   7.224   5.159   4.780 -0.7454 -1.7160 -0.2500
   84SOPE  H18T 7803   7.188   5.255   4.636 -0.1886  1.5043  0.7784
   84SOPE   C33 7804   6.497   5.313   3.491  0.6834  0.6791  0.0981
   84SOPE   H3X 7805   6.414   5.375   3.452 -0.8928 -1.6519 -0.4859
   84SOPE   H3Y 7806   6.588   5.374   3.475 -0.5559  2.4598 -0.4325
   84SOPE   C34 7807   6.458   5.299   3.639  0.3547  0.3574 -0.0355
   84SOPE   H4X 7808   6.463   5.403   3.676  0.6249  0.6216 -0.7913
   84SOPE   H4Y 7809   6.545   5.243   3.678  0.1774 -0.4748 -0.7960
   84SOPE   C35 7810   6.318   5.236   3.665 -0.1835  0.2858 -0.7035
   84SOPE   H5X 7811   6.300   5.249   3.774 -2.3908 -0.2119 -0.9647
   84SOPE   H5Y 7812   6.312   5.132   3.628 -1.1656  0.8165 -2.1155
   84SOPE   C36 7813   6.210   5.317   3.600  0.3037  0.1320  0.5760
   84SOPE   H6X 7814   6.217   5.304   3.490 -0.0168 -0.7025  0.6531
   84SOPE   H6Y 7815   6.231   5.423   3.627  1.6660 -0.5711  2.4980
   84SOPE   C37 7816   6.074   5.291   3.661 -0.7024  0.7214  0.3066
   84SOPE   H7X 7817   6.075   5.309   3.771 -1.3804 -1.1639  0.6502
   84SOPE   H7Y 7818   6.046   5.184   3.651 -2.2240  1.0930  0.3367
   84SOPE   C38 7819   5.960   5.378   3.602  0.0554 -0.6048 -0.4184
   84SOPE   H8X 7820   5.937   5.356   3.496  2.6845  0.9067 -1.4038
   84SOPE   H8Y 7821   6.000   5.482   3.595  0.5303 -0.5799  1.8126
   84SOPE   C39 7822   5.836   5.375   3.680  0.2189 -0.4318 -0.0842
   84SOPE   H9X 7823   5.826   5.283   3.741 -0.3514 -0.9851 -0.9926
   84SOPE   H9Y 7824   5.741   5.394   3.627 -0.6298  3.1952  2.3290
   84SOPE  C310 7825   5.839   5.489   3.792  1.4455 -0.1347  0.1788
   84SOPE  H10X 7826   5.814   5.587   3.745  0.6113 -0.9006 -1.0329
   84SOPE  H10Y 7827   5.932   5.500   3.851  1.2749 -0.3656  0.4904
   84SOPE  C311 7828   5.725   5.454   3.883 -0.1948 -0.1735 -0.5228
   84SOPE  H11X 7829   5.701   5.347   3.902  0.6675 -0.2478  0.2067
   84SOPE  H11Y 7830   5.640   5.502   3.828 -0.0592 -0.8643 -1.3618
   84SOPE  C312 7831   5.743   5.521   4.018  0.1327  0.0731 -0.2267
   84SOPE  H12X 7832   5.789   5.619   3.994  1.6232 -0.7772 -0.9954
   84SOPE  H12Y 7833   5.804   5.457   4.086 -0.2434 -0.8909 -0.7748
   84SOPE  C313 7834   5.616   5.565   4.092  0.0200  0.0202  0.3055
   84SOPE  H13X 7835   5.524   5.509   4.064 -1.1124  1.8591  0.1779
   84SOPE  H13Y 7836   5.592   5.670   4.068  2.0023  1.1608  2.8304
   84SOPE  C314 7837   5.642   5.563   4.249 -0.0323  0.2399 -0.2295
   84SOPE  H14X 7838   5.712   5.642   4.283 -2.7473  2.2703  1.0105
   84SOPE  H14Y 7839   5.678   5.459   4.267 -2.0839 -1.2217 -3.7363
   84SOPE  C315 7840   5.515   5.596   4.324  0.2755 -0.9937  0.1540
   84SOPE  H15X 7841   5.441   5.517   4.299  0.1606 -1.5882  2.1896
   84SOPE  H15Y 7842   5.462   5.685   4.284 -1.5138 -0.6938  2.9163
   84SOPE  C316 7843   5.544   5.606   4.475 -0.0361  0.6683  0.5216
   84SOPE  H16X 7844   5.615   5.685   4.506  0.1668 -0.0872  2.1013
   84SOPE  H16Y 7845   5.593   5.510   4.502  2.1955  1.1777 -1.4840
   84SOPE  C317 7846   5.415   5.626   4.558  0.5593 -0.4445  0.1421
   84SOPE  H17X 7847   5.348   5.547   4.516  0.2578 -0.5866  0.8864
   84SOPE  H17Y 7848   5.350   5.711   4.532 -0.4470 -1.8950 -2.5516
   84SOPE  C318 7849   5.426   5.611   4.709 -0.0906  0.1853 -0.1255
   84SOPE  H18X 7850   5.489   5.689   4.756 -1.9416  2.7258 -1.5877
   84SOPE  H18Y 7851   5.463   5.508   4.727 -1.3409 -0.3354 -0.4013
   84SOPE  H18Z 7852   5.328   5.616   4.760  0.0589  0.2209  0.1595
   85SOPE     N 7853   6.052   1.260   2.900  0.3389  0.0078 -0.1933
   85SOPE   HN1 7854   6.064   1.341   2.836 -1.0123  1.4683  1.2968
   85SOPE   HN2 7855   6.039   1.176   2.840 -2.5363  0.1240  0.1321
   85SOPE   HN3 7856   5.969   1.277   2.960  0.7362 -0.5071  0.5314
   85SOPE   C12 7857   6.166   1.238   2.991  0.0135  0.5691 -0.6719
   85SOPE  H12A 7858   6.255   1.210   2.931 -0.7873  2.7709 -3.1355
   85SOPE  H12B 7859   6.125   1.166   3.065 -1.5402  1.7237 -0.3441
   85SOPE   C11 7860   6.200   1.371   3.064 -0.1438  0.1078  0.2936
   85SOPE  H11A 7861   6.258   1.338   3.152  1.3662 -2.9755 -1.6983
   85SOPE  H11B 7862   6.101   1.417   3.087 -0.7166 -0.9751  0.0689
   85SOPE     P 7863   6.331   1.598   3.023 -0.1274  0.1604  0.0355
   85SOPE   O13 7864   6.228   1.691   2.982  0.0131 -0.0610  0.5736
   85SOPE   O14 7865   6.469   1.613   2.959 -0.0554 -0.0826 -0.9723
   85SOPE   O12 7866   6.279   1.456   2.976  0.1587 -0.4190 -0.1394
   85SOPE   O11 7867   6.332   1.577   3.182  0.1663 -0.1485  0.0259
   85SOPE    C1 7868   6.451   1.633   3.242 -0.2178  0.4655 -0.1143
   85SOPE    HA 7869   6.463   1.740   3.215  0.1419  0.8349  1.4063
   85SOPE    HB 7870   6.540   1.569   3.221 -1.8159 -3.1026  2.7499
   85SOPE    C2 7871   6.458   1.610   3.403  0.1694 -1.2171 -0.0602
   85SOPE    HS 7872   6.554   1.561   3.428  0.8080  0.4439  0.8949
   85SOPE   O21 7873   6.354   1.519   3.442 -0.1667 -0.4494  0.2024
   85SOPE   C21 7874   6.374   1.392   3.419 -0.9452 -0.3064 -0.9688
   85SOPE   O22 7875   6.471   1.346   3.358  0.5281  0.2634 -0.3698
   85SOPE   C22 7876   6.256   1.321   3.481 -0.8692 -0.9764  0.6284
   85SOPE   H2R 7877   6.221   1.255   3.399 -1.3047  0.4947 -0.4258
   85SOPE   H2S 7878   6.179   1.401   3.487  0.9874  1.0419 -0.7106
   85SOPE    C3 7879   6.448   1.750   3.466 -0.3767  0.3270  0.2612
   85SOPE    HX 7880   6.345   1.783   3.442 -0.7464 -2.4557 -2.6933
   85SOPE    HY 7881   6.519   1.813   3.409  0.3692  0.3448  1.1770
   85SOPE   O31 7882   6.477   1.746   3.606 -0.1863 -0.0833 -0.5989
   85SOPE   C31 7883   6.438   1.856   3.669 -0.3081 -0.9834 -0.5078
   85SOPE   O32 7884   6.388   1.954   3.619 -0.3592  0.0332  0.1039
   85SOPE   C32 7885   6.481   1.849   3.815  0.2320 -0.3005  0.9027
   85SOPE   H2X 7886   6.534   1.944   3.835 -1.1881  0.7210 -0.0034
   85SOPE   H2Y 7887   6.543   1.757   3.824  0.2891 -0.2518  1.0182
   85SOPE   C23 7888   6.290   1.230   3.604 -0.6405 -1.2019 -0.4022
   85SOPE   H3R 7889   6.385   1.176   3.584  0.4786  0.2253  0.8780
   85SOPE   H3S 7890   6.211   1.157   3.631 -2.7721  1.4468  1.0556
   85SOPE   C24 7891   6.335   1.317   3.728  0.1216  0.7253 -0.7000
   85SOPE   H4R 7892   6.444   1.340   3.720  0.9007 -2.2120  0.1169
   85SOPE   H4S 7893   6.267   1.404   3.720 -2.9232 -1.5763 -2.0671
   85SOPE   C25 7894   6.314   1.238   3.862 -0.0252 -0.7856 -0.2085
   85SOPE   H5R 7895   6.209   1.202   3.869  0.4092 -2.0957 -0.1548
   85SOPE   H5S 7896   6.377   1.146   3.860  0.1403 -0.6722 -0.1680
   85SOPE   C26 7897   6.362   1.305   3.991  0.3956  0.2297 -0.1073
   85SOPE   H6R 7898   6.472   1.287   3.990  0.1606 -1.5243  0.9896
   85SOPE   H6S 7899   6.345   1.414   3.998 -0.1839  0.2018 -0.8878
   85SOPE   C27 7900   6.320   1.222   4.111  0.1468  0.1680  0.0167
   85SOPE   H7R 7901   6.209   1.224   4.109  0.1003 -0.7377  1.0560
   85SOPE   H7S 7902   6.359   1.120   4.091 -1.0345 -0.9021  2.7645
   85SOPE   C28 7903   6.380   1.279   4.240  0.0300 -0.1845 -0.7527
   85SOPE   H8R 7904   6.491   1.285   4.242 -0.0073  1.1741  1.8934
   85SOPE   H8S 7905   6.340   1.382   4.250 -1.2409 -0.7906  0.6596
   85SOPE   C29 7906   6.323   1.188   4.353  0.4144  0.0357 -0.2421
   85SOPE   H91 7907   6.362   1.086   4.342 -0.5742 -0.4026  0.0989
   85SOPE  C210 7908   6.219   1.216   4.432  0.6985  0.6694 -0.2278
   85SOPE  H101 7909   6.205   1.146   4.516  0.3145  2.6663  1.4621
   85SOPE  C211 7910   6.140   1.349   4.441 -0.3319  0.0976 -0.1860
   85SOPE  H11R 7911   6.039   1.319   4.474 -0.3374 -2.2550 -2.0499
   85SOPE  H11S 7912   6.130   1.389   4.338  2.6084 -2.1482 -1.5019
   85SOPE  C212 7913   6.188   1.470   4.530  0.7877  0.2721  0.5022
   85SOPE  H12R 7914   6.113   1.545   4.496 -0.9230 -1.5012  0.1574
   85SOPE  H12S 7915   6.291   1.498   4.499  0.7167  0.6733  0.6216
   85SOPE  C213 7916   6.194   1.443   4.686  0.0535 -0.1154  0.0885
   85SOPE  H13R 7917   6.204   1.538   4.742 -2.3924 -0.4034  1.1460
   85SOPE  H13S 7918   6.277   1.372   4.705  1.2730  0.4277 -2.6736
   85SOPE  C214 7919   6.078   1.369   4.754 -0.3097  0.2608  1.0500
   85SOPE  H14R 7920   6.081   1.267   4.709  1.2145  0.0222  1.6307
   85SOPE  H14S 7921   5.989   1.431   4.733 -2.0283 -2.6847 -1.1743
   85SOPE  C215 7922   6.091   1.363   4.906  0.8283  0.5536  0.4257
   85SOPE  H15R 7923   6.114   1.460   4.955  2.4365 -0.4796  1.8383
   85SOPE  H15S 7924   6.171   1.291   4.933  0.2681 -0.9706 -1.7424
   85SOPE  C216 7925   5.953   1.304   4.956  0.5496  0.2080  0.0263
   85SOPE  H16R 7926   5.931   1.214   4.895  1.4402 -0.2402  0.3488
   85SOPE  H16S 7927   5.872   1.378   4.938  0.6896  1.6425  4.1990
   85SOPE  C217 7928   5.964   1.261   5.100 -0.5636  0.0856 -0.5417
   85SOPE  H17R 7929   5.978   1.354   5.159  2.1578  0.7305 -2.0447
   85SOPE  H17S 7930   6.055   1.198   5.115  1.0102  2.1365 -1.0077
   85SOPE  C218 7931   5.830   1.197   5.155 -0.1236 -0.6742 -0.0166
   85SOPE  H18R 7932   5.769   1.284   5.190 -2.6157 -1.0741 -2.9856
   85SOPE  H18S 7933   5.844   1.134   5.246  3.5353  0.2258  0.2075
   85SOPE  H18T 7934   5.771   1.157   5.071  0.2306 -0.6651 -0.2718
   85SOPE   C33 7935   6.373   1.841   3.922  0.0601  0.3306 -0.6917
   85SOPE   H3X 7936   6.289   1.781   3.880  0.1114  1.5280 -2.6363
   85SOPE   H3Y 7937   6.326   1.941   3.931 -1.8050 -0.5038 -0.5957
   85SOPE   C34 7938   6.417   1.788   4.062 -0.0348  0.1948  0.1572
   85SOPE   H4X 7939   6.523   1.809   4.090  1.2105 -3.2834 -1.4214
   85SOPE   H4Y 7940   6.415   1.677   4.059  3.5471  0.0162 -0.6798
   85SOPE   C35 7941   6.327   1.835   4.178  0.1845  0.3189  0.5462
   85SOPE   H5X 7942   6.235   1.779   4.150  0.3738 -0.2312  1.0130
   85SOPE   H5Y 7943   6.298   1.942   4.165 -0.6849  0.0413  0.1015
   85SOPE   C36 7944   6.379   1.808   4.323  0.3047  0.0724  0.0722
   85SOPE   H6X 7945   6.473   1.866   4.336  0.8755 -0.4217 -1.5533
   85SOPE   H6Y 7946   6.404   1.701   4.333 -1.9335 -0.5919 -0.6758
   85SOPE   C37 7947   6.270   1.848   4.423  0.5863  0.3159 -0.3080
   85SOPE   H7X 7948   6.191   1.771   4.409  2.2895 -1.5791  0.0022
   85SOPE   H7Y 7949   6.226   1.947   4.400  0.9875  0.8541  1.1373
   85SOPE   C38 7950   6.307   1.828   4.574 -0.2264 -0.0654  0.0499
   85SOPE   H8X 7951   6.383   1.904   4.601 -1.0304  2.1586 -3.3539
   85SOPE   H8Y 7952   6.349   1.725   4.581  1.1252  0.4361 -0.4681
   85SOPE   C39 7953   6.190   1.827   4.671 -0.6180 -0.5729  0.5752
   85SOPE   H9X 7954   6.218   1.802   4.775  1.2479  0.0389  0.2451
   85SOPE   H9Y 7955   6.117   1.749   4.642 -1.0145  0.6770 -2.0818
   85SOPE  C310 7956   6.103   1.959   4.665 -0.9787  0.1966 -0.0968
   85SOPE  H10X 7957   6.035   1.936   4.580  0.2088  1.0456 -1.3264
   85SOPE  H10Y 7958   6.170   2.045   4.642  0.3409 -0.7634  0.0184
   85SOPE  C311 7959   6.032   1.976   4.800 -0.0441  0.4853  0.0247
   85SOPE  H11X 7960   6.121   1.961   4.865  1.4721  0.3833 -1.9753
   85SOPE  H11Y 7961   5.964   1.888   4.809  0.9131 -0.2536  0.2311
   85SOPE  C312 7962   5.957   2.108   4.811  0.5788 -0.6042 -0.1234
   85SOPE  H12X 7963   5.881   2.129   4.733  0.7225  1.4472  0.2376
   85SOPE  H12Y 7964   6.032   2.190   4.816 -0.2826  0.2537 -0.9091
   85SOPE  C313 7965   5.898   2.128   4.949  0.3190  0.0469  0.0103
   85SOPE  H13X 7966   5.984   2.111   5.017  0.3962  0.5124  0.0331
   85SOPE  H13Y 7967   5.817   2.056   4.975  0.4200 -0.0212  0.1366
   85SOPE  C314 7968   5.836   2.265   4.973  0.9635  0.5471  0.1274
   85SOPE  H14X 7969   5.744   2.269   4.910  1.0190  1.0393  0.0785
   85SOPE  H14Y 7970   5.896   2.330   4.906 -2.8310  2.0436 -2.2034
   85SOPE  C315 7971   5.816   2.305   5.114 -0.1929 -0.7520  0.0234
   85SOPE  H15X 7972   5.913   2.294   5.166 -0.6108 -0.7838  0.8093
   85SOPE  H15Y 7973   5.740   2.232   5.151 -1.2293  0.2902  0.0228
   85SOPE  C316 7974   5.772   2.452   5.131 -0.5000 -0.0821  0.0491
   85SOPE  H16X 7975   5.668   2.479   5.105 -0.6456  3.9623  3.6487
   85SOPE  H16Y 7976   5.831   2.518   5.063 -1.1635  0.1344 -0.3206
   85SOPE  C317 7977   5.805   2.500   5.276 -0.0176  0.3207  0.8060
   85SOPE  H17X 7978   5.915   2.486   5.282 -0.2246 -3.0899 -0.9153
   85SOPE  H17Y 7979   5.766   2.429   5.352 -1.6434  0.2977  0.0072
   85SOPE  C318 7980   5.751   2.641   5.304  0.1458  0.2120  0.2060
   85SOPE  H18X 7981   5.641   2.642   5.289  0.5123 -1.4270 -3.7386
   85SOPE  H18Y 7982   5.797   2.701   5.223  0.2898 -0.1472  0.0193
   85SOPE  H18Z 7983   5.758   2.683   5.406 -1.6360  1.7918 -0.2578
   86SOPE     N 7984   0.157   2.664   3.146 -0.1297 -0.1398 -0.1141
   86SOPE   HN1 7985   0.064   2.709   3.160 -0.6145 -1.0125 -0.4714
   86SOPE   HN2 7986   0.177   2.689   3.047  0.9413 -1.8590 -0.3630
   86SOPE   HN3 7987   0.138   2.563   3.164 -0.1668 -0.0112  0.6122
   86SOPE   C12 7988   0.265   2.738   3.227 -0.1321  0.0170  0.1196
   86SOPE  H12A 7989   0.362   2.688   3.204 -0.2183 -0.5858  1.0435
   86SOPE  H12B 7990   0.240   2.714   3.332  2.9435 -0.1548  0.9146
   86SOPE   C11 7991   0.267   2.886   3.174  0.7060  0.0915 -1.2456
   86SOPE  H11A 7992   0.370   2.924   3.187  1.1607 -0.0076 -4.0139
   86SOPE  H11B 7993   0.193   2.941   3.237  3.0744 -0.0285  1.8698
   86SOPE     P 7994   0.294   3.014   2.942  0.3065 -0.1449 -0.0827
   86SOPE   O13 7995   0.189   3.111   2.906 -0.4122 -0.3606  0.6135
   86SOPE   O14 7996   0.359   2.947   2.827  0.5188 -0.4537  0.2850
   86SOPE   O12 7997   0.238   2.897   3.036 -0.2183 -0.0256 -0.3933
   86SOPE   O11 7998   0.409   3.079   3.035 -0.4044  0.6114  0.0450
   86SOPE    C1 7999   0.532   3.123   2.974  0.2431  0.4022  0.0359
   86SOPE    HA 8000   0.529   3.139   2.864  0.0853  0.1173 -0.0027
   86SOPE    HB 8001   0.610   3.046   2.993  0.8209  0.8461 -0.4782
   86SOPE    C2 8002   0.574   3.248   3.046 -0.2043  0.2750 -0.8532
   86SOPE    HS 8003   0.683   3.262   3.035 -0.1068 -0.5259 -0.9307
   86SOPE   O21 8004   0.542   3.249   3.189 -0.1209 -0.2301 -0.0484
   86SOPE   C21 8005   0.611   3.165   3.260 -0.2785 -0.5115 -0.0129
   86SOPE   O22 8006   0.696   3.087   3.225 -0.1734 -0.0228 -0.3657
   86SOPE   C22 8007   0.573   3.168   3.411  0.6868  0.5991  0.1349
   86SOPE   H2R 8008   0.512   3.076   3.416 -1.2078  1.4651 -3.6106
   86SOPE   H2S 8009   0.509   3.254   3.439  0.4167  0.2373  0.6220
   86SOPE    C3 8010   0.508   3.380   2.995  0.4493 -0.3006  0.0633
   86SOPE    HX 8011   0.397   3.381   2.997  0.3059 -1.9493 -2.7569
   86SOPE    HY 8012   0.525   3.384   2.886 -3.1800 -0.2204 -0.6207
   86SOPE   O31 8013   0.566   3.500   3.046 -0.3657 -0.2110  0.0156
   86SOPE   C31 8014   0.515   3.544   3.157  0.4733 -0.2691 -0.3270
   86SOPE   O32 8015   0.406   3.526   3.205  0.1956 -0.3060  0.3711
   86SOPE   C32 8016   0.614   3.640   3.223  0.1224 -0.1917 -0.1357
   86SOPE   H2X 8017   0.610   3.736   3.168 -1.7665  0.1675  0.5567
   86SOPE   H2Y 8018   0.709   3.586   3.203 -0.9981 -3.1407  1.7513
   86SOPE   C23 8019   0.697   3.190   3.508 -0.3583  0.1432  0.2453
   86SOPE   H3R 8020   0.745   3.286   3.481 -1.3226  1.5048  3.0015
   86SOPE   H3S 8021   0.775   3.115   3.482 -0.7058  0.4400 -1.8207
   86SOPE   C24 8022   0.674   3.198   3.666  0.4289 -0.3229  0.1742
   86SOPE   H4R 8023   0.587   3.264   3.685  0.5205 -0.3363  0.6586
   86SOPE   H4S 8024   0.659   3.097   3.710 -1.0654 -0.1186  0.1668
   86SOPE   C25 8025   0.791   3.275   3.720  0.4567 -0.5092  0.4689
   86SOPE   H5R 8026   0.876   3.206   3.702 -0.0529 -0.8284 -0.7679
   86SOPE   H5S 8027   0.810   3.368   3.661  0.5551 -0.8556 -0.0480
   86SOPE   C26 8028   0.794   3.304   3.873 -0.2530 -0.4127 -0.3109
   86SOPE   H6R 8029   0.894   3.343   3.902 -0.5479  1.4440 -1.6220
   86SOPE   H6S 8030   0.729   3.388   3.904  1.6455  0.8442  0.4453
   86SOPE   C27 8031   0.752   3.191   3.960  0.1773  0.1207  0.2525
   86SOPE   H7R 8032   0.657   3.143   3.930 -0.3870  0.5763  1.2503
   86SOPE   H7S 8033   0.824   3.106   3.955 -0.6868 -0.5577 -1.8611
   86SOPE   C28 8034   0.727   3.227   4.110 -1.6103 -0.2967 -0.0627
   86SOPE   H8R 8035   0.658   3.313   4.120 -1.6859 -0.5110  1.5139
   86SOPE   H8S 8036   0.675   3.138   4.151 -0.7483 -0.4795  0.6855
   86SOPE   C29 8037   0.861   3.241   4.176 -0.3644  0.2891 -0.3836
   86SOPE   H91 8038   0.947   3.268   4.113 -1.6446  2.8159 -1.1601
   86SOPE  C210 8039   0.884   3.225   4.310 -0.1575  0.3085  0.1562
   86SOPE  H101 8040   0.988   3.232   4.346 -0.1678 -0.1209  0.2783
   86SOPE  C211 8041   0.775   3.184   4.398 -0.3008 -0.0975  0.5034
   86SOPE  H11R 8042   0.713   3.100   4.361 -1.7479  0.7121  0.9960
   86SOPE  H11S 8043   0.709   3.272   4.416  0.0634  0.4914 -0.8598
   86SOPE  C212 8044   0.844   3.138   4.531 -0.2852  0.1140  0.0715
   86SOPE  H12R 8045   0.765   3.116   4.606 -1.6507 -0.0503 -1.3683
   86SOPE  H12S 8046   0.905   3.222   4.572 -0.4974  0.2184  0.1798
   86SOPE  C213 8047   0.933   3.012   4.520  0.6312  0.2053 -0.2043
   86SOPE  H13R 8048   1.006   3.025   4.437  0.1724  0.5548 -0.5616
   86SOPE  H13S 8049   0.864   2.927   4.500 -0.1393  0.8016 -0.1811
   86SOPE  C214 8050   1.014   2.993   4.648 -0.3405 -0.2722  0.8047
   86SOPE  H14R 8051   1.083   3.080   4.656 -0.9164  0.4091 -1.1483
   86SOPE  H14S 8052   1.086   2.910   4.627 -1.7321 -1.0924 -1.0021
   86SOPE  C215 8053   0.944   2.973   4.784 -0.1115 -0.1529  0.5108
   86SOPE  H15R 8054   0.891   2.876   4.786  0.9278 -0.7851  4.0072
   86SOPE  H15S 8055   0.890   3.066   4.813  0.9609 -0.1487  2.7317
   86SOPE  C216 8056   1.053   2.962   4.893  0.0728 -0.2456 -0.2363
   86SOPE  H16R 8057   1.119   3.051   4.900  1.6689 -1.3774 -0.1095
   86SOPE  H16S 8058   1.123   2.878   4.872 -0.0543 -0.5348  0.4601
   86SOPE  C217 8059   1.002   2.955   5.045 -0.3297  0.0889  0.0393
   86SOPE  H17R 8060   0.931   2.870   5.044  0.7797 -0.8551  0.4751
   86SOPE  H17S 8061   0.955   3.055   5.061 -2.0198 -0.8256  1.0114
   86SOPE  C218 8062   1.121   2.929   5.137 -0.6089  0.7035  0.0617
   86SOPE  H18R 8063   1.190   2.850   5.101 -2.2212 -1.5513  1.6078
   86SOPE  H18S 8064   1.079   2.896   5.235 -0.5993 -2.7238 -0.9717
   86SOPE  H18T 8065   1.190   3.014   5.156  0.8667 -0.3269 -0.5204
   86SOPE   C33 8066   0.593   3.671   3.371 -0.3698  0.3149 -0.3475
   86SOPE   H3X 8067   0.483   3.689   3.378 -0.1599  1.1783  0.9744
   86SOPE   H3Y 8068   0.636   3.770   3.396 -0.4842 -0.4889  3.6704
   86SOPE   C34 8069   0.634   3.554   3.461 -0.3788 -0.3280  0.2874
   86SOPE   H4X 8070   0.741   3.549   3.490 -0.8437 -0.4475  2.1289
   86SOPE   H4Y 8071   0.621   3.455   3.412  1.8429 -1.0887  1.0942
   86SOPE   C35 8072   0.545   3.565   3.590 -0.0906 -0.0001 -0.0511
   86SOPE   H5X 8073   0.559   3.468   3.644  3.7901 -0.9533 -2.4032
   86SOPE   H5Y 8074   0.435   3.569   3.571 -0.3828  2.0608  1.6963
   86SOPE   C36 8075   0.585   3.678   3.686  0.1961 -0.7143 -0.4070
   86SOPE   H6X 8076   0.572   3.771   3.626 -0.8330 -1.2205 -0.9887
   86SOPE   H6Y 8077   0.692   3.658   3.709  0.0305  0.7676  1.9509
   86SOPE   C37 8078   0.490   3.698   3.804  0.5155 -0.1274  0.1110
   86SOPE   H7X 8079   0.497   3.603   3.861  2.4836 -0.4548 -0.5838
   86SOPE   H7Y 8080   0.385   3.712   3.773  0.6682 -1.6088 -1.2075
   86SOPE   C38 8081   0.530   3.805   3.898 -0.7206 -0.2740 -0.6777
   86SOPE   H8X 8082   0.537   3.906   3.850 -1.5593 -1.1357 -2.7382
   86SOPE   H8Y 8083   0.636   3.780   3.920 -0.8421 -1.7732 -1.6745
   86SOPE   C39 8084   0.452   3.801   4.034 -0.2910  0.7158 -0.0326
   86SOPE   H9X 8085   0.447   3.693   4.060 -0.4357  1.1715  2.0457
   86SOPE   H9Y 8086   0.348   3.829   4.007  0.0805  0.6985 -1.5646
   86SOPE  C310 8087   0.512   3.888   4.151 -0.5956  0.5818 -0.4103
   86SOPE  H10X 8088   0.529   3.990   4.109 -0.2354 -0.4323 -2.9356
   86SOPE  H10Y 8089   0.615   3.863   4.185 -0.1812 -0.1384 -2.0971
   86SOPE  C311 8090   0.433   3.896   4.282 -0.3885  0.2154 -0.5138
   86SOPE  H11X 8091   0.369   3.806   4.296  1.4577 -1.1041 -0.1561
   86SOPE  H11Y 8092   0.360   3.979   4.284 -0.6135  0.0143  0.3194
   86SOPE  C312 8093   0.532   3.911   4.399 -0.3704 -0.4593  0.1908
   86SOPE  H12X 8094   0.601   3.995   4.378 -2.3559  1.4200  0.7169
   86SOPE  H12Y 8095   0.597   3.822   4.412 -0.1328 -0.6521 -2.0451
   86SOPE  C313 8096   0.461   3.964   4.522 -0.0587 -0.4283 -0.3973
   86SOPE  H13X 8097   0.399   3.875   4.547 -0.4928 -0.3548 -1.1892
   86SOPE  H13Y 8098   0.407   4.055   4.488  0.9823  0.7384  0.9476
   86SOPE  C314 8099   0.558   4.007   4.634 -0.0239 -0.8105  0.6888
   86SOPE  H14X 8100   0.506   4.089   4.687  0.4844 -1.1661  1.7772
   86SOPE  H14Y 8101   0.643   4.053   4.579 -1.7690  0.9404 -0.6934
   86SOPE  C315 8102   0.610   3.890   4.729  0.2890  0.0972  0.0185
   86SOPE  H15X 8103   0.676   3.836   4.658 -1.6083 -0.2787 -1.5639
   86SOPE  H15Y 8104   0.525   3.826   4.762  1.0065 -0.3343  1.0495
   86SOPE  C316 8105   0.690   3.950   4.848  0.4270  0.2401  0.4287
   86SOPE  H16X 8106   0.640   4.046   4.877 -0.0015 -0.0030  0.5076
   86SOPE  H16Y 8107   0.787   3.980   4.802  0.2473  2.1449  1.1901
   86SOPE  C317 8108   0.712   3.859   4.968  0.5321  0.3080  0.7610
   86SOPE  H17X 8109   0.621   3.838   5.028  1.3491 -3.2398  0.9885
   86SOPE  H17Y 8110   0.789   3.911   5.028 -0.7097  0.2817  2.4624
   86SOPE  C318 8111   0.773   3.727   4.932  0.2616 -0.0392 -0.1840
   86SOPE  H18X 8112   0.709   3.658   4.873 -0.1715  1.8935 -2.1153
   86SOPE  H18Y 8113   0.801   3.666   5.020 -1.7148 -0.7474 -0.0000
   86SOPE  H18Z 8114   0.861   3.749   4.868  0.7773  1.1139  0.8888
   87SOPE     N 8115   2.057   1.405   3.184  0.3881  0.0221  0.4456
   87SOPE   HN1 8116   2.079   1.305   3.166  0.2049 -0.3349  2.0512
   87SOPE   HN2 8117   2.032   1.419   3.284 -1.1031  1.5583 -0.1043
   87SOPE   HN3 8118   1.971   1.436   3.135  1.5825  0.5283 -1.4526
   87SOPE   C12 8119   2.173   1.493   3.137  0.1728  0.1179 -0.9126
   87SOPE  H12A 8120   2.176   1.579   3.208 -0.0083  0.4553 -1.3127
   87SOPE  H12B 8121   2.147   1.530   3.036 -0.8528 -0.6369 -0.9364
   87SOPE   C11 8122   2.309   1.417   3.135  0.0191 -0.1878  0.1926
   87SOPE  H11A 8123   2.394   1.488   3.133  0.7197 -1.0165 -1.0385
   87SOPE  H11B 8124   2.324   1.364   3.039  1.4515 -0.5424  0.5879
   87SOPE     P 8125   2.380   1.361   3.385  0.0251  0.1481  0.2909
   87SOPE   O13 8126   2.355   1.503   3.417  0.3314 -0.7957 -0.0615
   87SOPE   O14 8127   2.520   1.340   3.351 -0.6273  0.3477  0.4334
   87SOPE   O12 8128   2.307   1.327   3.248  0.1092  0.1516  0.6636
   87SOPE   O11 8129   2.325   1.273   3.501 -0.0730 -0.0775  0.5452
   87SOPE    C1 8130   2.240   1.165   3.486  0.8203 -0.0598  0.1756
   87SOPE    HA 8131   2.242   1.126   3.383 -3.5080  0.8654 -0.4677
   87SOPE    HB 8132   2.135   1.197   3.500  1.2384  1.1276  0.7896
   87SOPE    C2 8133   2.263   1.047   3.582 -0.8532 -0.2224  0.3761
   87SOPE    HS 8134   2.224   0.954   3.536 -0.7466  0.7118 -1.6777
   87SOPE   O21 8135   2.209   1.079   3.715 -0.0823 -0.4710  0.2545
   87SOPE   C21 8136   2.105   1.002   3.751  1.2707 -0.2536 -0.6632
   87SOPE   O22 8137   2.044   0.933   3.672  0.1147 -0.3584  0.1320
   87SOPE   C22 8138   2.066   1.038   3.899  0.2608  0.6423  1.3879
   87SOPE   H2R 8139   1.961   1.075   3.889 -0.9349 -2.7788 -0.1365
   87SOPE   H2S 8140   2.137   1.117   3.932 -1.5205  2.6340  0.6785
   87SOPE    C3 8141   2.416   1.025   3.594  0.8428 -0.0885  0.0421
   87SOPE    HX 8142   2.468   1.121   3.613  1.1661 -0.5111  1.4829
   87SOPE    HY 8143   2.454   0.987   3.497  1.3661  1.3200 -0.3312
   87SOPE   O31 8144   2.462   0.935   3.691  0.0320  0.2272 -0.3988
   87SOPE   C31 8145   2.456   0.806   3.673 -0.2427 -0.3760  0.5916
   87SOPE   O32 8146   2.415   0.747   3.578 -0.0342  0.3416 -0.0375
   87SOPE   C32 8147   2.474   0.738   3.810  0.1505 -0.3558 -0.0306
   87SOPE   H2X 8148   2.472   0.628   3.797  1.7968 -0.5003  0.6711
   87SOPE   H2Y 8149   2.389   0.771   3.873  0.4363 -1.9322  1.2340
   87SOPE   C23 8150   2.058   0.923   4.000 -0.6664  0.3483 -0.1158
   87SOPE   H3R 8151   2.136   0.851   3.968 -0.9699 -0.0131 -0.0518
   87SOPE   H3S 8152   1.961   0.869   3.997 -1.0536  1.0517 -3.1030
   87SOPE   C24 8153   2.093   0.970   4.146  0.3064  0.1927 -0.5993
   87SOPE   H4R 8154   2.191   1.021   4.160 -0.4689  1.4554  0.5642
   87SOPE   H4S 8155   2.003   1.028   4.177 -0.3166 -0.3077 -1.4159
   87SOPE   C25 8156   2.095   0.853   4.240  0.1982  0.2801  0.0711
   87SOPE   H5R 8157   1.996   0.804   4.244  0.3744 -0.2314 -1.1584
   87SOPE   H5S 8158   2.154   0.770   4.195 -0.9928  0.1956 -1.4348
   87SOPE   C26 8159   2.158   0.885   4.377 -0.1099 -0.4237 -0.4111
   87SOPE   H6R 8160   2.267   0.903   4.372  0.0474 -1.6284 -1.8307
   87SOPE   H6S 8161   2.101   0.977   4.404  2.3679  1.0864 -0.0427
   87SOPE   C27 8162   2.134   0.768   4.472 -0.3337 -0.1525 -0.7329
   87SOPE   H7R 8163   2.027   0.751   4.496  0.1654  0.6535  2.5764
   87SOPE   H7S 8164   2.172   0.673   4.428 -1.1620 -0.1586 -1.4604
   87SOPE   C28 8165   2.202   0.794   4.604  0.0769 -0.1693 -0.1937
   87SOPE   H8R 8166   2.228   0.699   4.655 -0.9687 -0.0697  0.5716
   87SOPE   H8S 8167   2.300   0.847   4.605 -0.4210  0.7820 -0.5889
   87SOPE   C29 8168   2.114   0.873   4.703 -1.0978 -0.3046 -0.3671
   87SOPE   H91 8169   2.124   0.976   4.667  1.6162 -0.4560 -0.2621
   87SOPE  C210 8170   2.047   0.833   4.813  0.3452 -0.0851 -0.0300
   87SOPE  H101 8171   1.997   0.904   4.880 -0.3170  0.7910 -1.3857
   87SOPE  C211 8172   2.035   0.684   4.858 -0.4371  0.5090  0.1108
   87SOPE  H11R 8173   2.078   0.613   4.784 -0.1624 -0.0683  0.8174
   87SOPE  H11S 8174   1.929   0.654   4.872  0.9719 -4.4945  2.1742
   87SOPE  C212 8175   2.109   0.656   4.990  0.1908 -0.8154  0.2731
   87SOPE  H12R 8176   2.218   0.672   4.976 -0.1302 -0.1065 -1.7589
   87SOPE  H12S 8177   2.089   0.550   5.014  0.5292 -1.0904 -0.6168
   87SOPE  C213 8178   2.048   0.747   5.102  0.4830  0.0953 -0.3617
   87SOPE  H13R 8179   1.937   0.741   5.107  0.4569 -2.1834 -2.0289
   87SOPE  H13S 8180   2.078   0.853   5.089  1.0673  0.2531  1.9048
   87SOPE  C214 8181   2.116   0.717   5.239 -0.0090  0.0892  0.1099
   87SOPE  H14R 8182   2.223   0.694   5.222 -0.2568 -1.2761  0.3130
   87SOPE  H14S 8183   2.069   0.624   5.277  1.9341 -0.3181  1.6842
   87SOPE  C215 8184   2.087   0.824   5.344  0.5586  0.5365  0.2848
   87SOPE  H15R 8185   1.977   0.830   5.349  0.6873  2.4083  2.1073
   87SOPE  H15S 8186   2.138   0.916   5.309 -0.7207  1.3660  0.5825
   87SOPE  C216 8187   2.136   0.791   5.490 -0.1501  0.2325 -0.2922
   87SOPE  H16R 8188   2.090   0.696   5.526 -2.7852  1.7591  0.6761
   87SOPE  H16S 8189   2.099   0.871   5.558 -1.2113 -0.1960 -0.3465
   87SOPE  C217 8190   2.289   0.779   5.503  0.2568 -0.1737  0.1311
   87SOPE  H17R 8191   2.329   0.865   5.446 -0.8729  0.1687 -0.1745
   87SOPE  H17S 8192   2.320   0.685   5.453 -1.8041 -0.2052 -1.2054
   87SOPE  C218 8193   2.326   0.776   5.652 -0.5814 -1.1410  0.0550
   87SOPE  H18R 8194   2.233   0.753   5.708 -1.1181  0.3787 -0.1621
   87SOPE  H18S 8195   2.347   0.881   5.679 -0.4190 -0.4955 -2.3692
   87SOPE  H18T 8196   2.416   0.713   5.666  1.6743  1.8242 -0.1500
   87SOPE   C33 8197   2.619   0.772   3.857 -0.9654  1.3474 -0.1219
   87SOPE   H3X 8198   2.616   0.872   3.905  2.5843  1.3705  0.2811
   87SOPE   H3Y 8199   2.683   0.782   3.767  0.1562 -0.8169  0.3597
   87SOPE   C34 8200   2.673   0.668   3.962 -0.1457 -0.1662 -0.4955
   87SOPE   H4X 8201   2.781   0.667   3.988 -0.3671 -3.9907  0.9301
   87SOPE   H4Y 8202   2.665   0.567   3.915  0.8330  0.2688 -1.6612
   87SOPE   C35 8203   2.591   0.680   4.097 -0.1604 -0.2770  0.5947
   87SOPE   H5X 8204   2.484   0.653   4.084 -0.2158  0.3283 -0.2708
   87SOPE   H5Y 8205   2.598   0.781   4.143 -0.0362 -0.8814  1.9667
   87SOPE   C36 8206   2.644   0.580   4.200  0.7534 -0.0187 -0.7752
   87SOPE   H6X 8207   2.745   0.612   4.234  1.3374 -1.2011 -1.3187
   87SOPE   H6Y 8208   2.654   0.478   4.157 -0.7416  0.0532 -1.3427
   87SOPE   C37 8209   2.542   0.578   4.320  0.0487  0.4349  0.1119
   87SOPE   H7X 8210   2.451   0.522   4.289  0.0598  0.8029 -0.6145
   87SOPE   H7Y 8211   2.517   0.682   4.351 -1.3752  0.6465 -1.5804
   87SOPE   C38 8212   2.595   0.496   4.450  0.8070 -0.0152  0.2545
   87SOPE   H8X 8213   2.698   0.533   4.471  0.9002  1.5718 -2.4699
   87SOPE   H8Y 8214   2.588   0.386   4.436  0.1450 -0.5640  3.8667
   87SOPE   C39 8215   2.500   0.537   4.565 -0.6027  0.0089 -1.4134
   87SOPE   H9X 8216   2.394   0.520   4.536 -1.2726  0.8075  0.3917
   87SOPE   H9Y 8217   2.505   0.645   4.589  2.1559 -0.6010  1.5389
   87SOPE  C310 8218   2.539   0.453   4.694  0.7436 -0.6825 -0.5498
   87SOPE  H10X 8219   2.624   0.489   4.755 -0.0935 -0.4700  0.5242
   87SOPE  H10Y 8220   2.552   0.346   4.668 -1.0246 -0.8927 -0.7086
   87SOPE  C311 8221   2.417   0.449   4.785  0.3777  0.3528  0.7983
   87SOPE  H11X 8222   2.349   0.376   4.737  1.5808 -0.9579  1.0384
   87SOPE  H11Y 8223   2.372   0.550   4.800 -2.4497 -0.7779  0.6219
   87SOPE  C312 8224   2.434   0.396   4.928  0.1290 -0.0678 -0.7995
   87SOPE  H12X 8225   2.488   0.300   4.944  2.1240  0.9556 -1.0775
   87SOPE  H12Y 8226   2.333   0.377   4.969  0.0216  0.8859 -0.6225
   87SOPE  C313 8227   2.506   0.496   5.022  0.0821 -0.1350  0.4724
   87SOPE  H13X 8228   2.438   0.584   5.018  0.5750  0.2091 -0.7679
   87SOPE  H13Y 8229   2.604   0.525   4.978 -0.5561 -0.1553 -1.0179
   87SOPE  C314 8230   2.515   0.466   5.167  0.7854 -0.3735 -0.6966
   87SOPE  H14X 8231   2.548   0.360   5.177  0.8987 -0.1268  2.9154
   87SOPE  H14Y 8232   2.414   0.461   5.212 -0.2348  1.1764 -2.6378
   87SOPE  C315 8233   2.612   0.551   5.248 -0.2722 -1.2432  0.0613
   87SOPE  H15X 8234   2.590   0.660   5.243 -2.1509 -1.6323 -2.4478
   87SOPE  H15Y 8235   2.714   0.530   5.209 -1.0529 -1.2750 -2.1482
   87SOPE  C316 8236   2.608   0.507   5.395  0.3359  0.6327  0.0721
   87SOPE  H16X 8237   2.662   0.411   5.406 -1.0054 -0.3844 -1.6190
   87SOPE  H16Y 8238   2.505   0.492   5.436  0.8377  1.6954  1.8180
   87SOPE  C317 8239   2.677   0.613   5.482 -0.4826 -0.0463  0.0703
   87SOPE  H17X 8240   2.628   0.711   5.469 -0.0375  0.2672  0.7129
   87SOPE  H17Y 8241   2.776   0.619   5.431 -0.3092 -2.2844  0.0203
   87SOPE  C318 8242   2.709   0.564   5.625 -0.5557  0.1422 -0.0444
   87SOPE  H18X 8243   2.775   0.476   5.610  1.5396  1.6630 -0.3194
   87SOPE  H18Y 8244   2.616   0.534   5.678 -1.3849  0.7239 -1.1281
   87SOPE  H18Z 8245   2.770   0.641   5.678 -0.5766 -1.0098  1.7127
   88SOPE     N 8246   3.280   4.286   3.163 -0.0600 -0.1808  0.5538
   88SOPE   HN1 8247   3.367   4.343   3.157  0.1503 -0.5700 -0.2698
   88SOPE   HN2 8248   3.312   4.196   3.122  0.1264  0.7698 -1.5657
   88SOPE   HN3 8249   3.207   4.321   3.098  0.1218  1.3036  1.1102
   88SOPE   C12 8250   3.240   4.255   3.306  0.0376 -0.2287  0.2145
   88SOPE  H12A 8251   3.138   4.212   3.298  0.2716 -0.5701 -1.5845
   88SOPE  H12B 8252   3.226   4.352   3.357  0.7579  0.5415 -0.9875
   88SOPE   C11 8253   3.339   4.159   3.365 -0.1609  0.0778  0.2807
   88SOPE  H11A 8254   3.317   4.153   3.474 -0.5399  0.9076  0.2575
   88SOPE  H11B 8255   3.440   4.205   3.355 -1.1815  2.0570 -1.8227
   88SOPE     P 8256   3.473   3.947   3.282  0.1282 -0.1340 -0.2397
   88SOPE   O13 8257   3.568   4.033   3.213 -0.4828  0.2662 -0.0982
   88SOPE   O14 8258   3.446   3.817   3.221  0.0935 -0.4389 -0.2179
   88SOPE   O12 8259   3.334   4.023   3.309  0.3399 -0.0492 -0.0487
   88SOPE   O11 8260   3.527   3.919   3.428  0.2788 -0.0792 -0.0029
   88SOPE    C1 8261   3.639   3.979   3.487 -0.6610 -0.5276  0.3416
   88SOPE    HA 8262   3.608   4.073   3.537 -0.7906 -0.6417  0.4760
   88SOPE    HB 8263   3.713   4.005   3.408 -1.2639 -0.0654 -0.0806
   88SOPE    C2 8264   3.708   3.881   3.586 -0.7136 -0.0508  0.3343
   88SOPE    HS 8265   3.742   3.789   3.532 -3.0979 -1.7293  1.5114
   88SOPE   O21 8266   3.610   3.849   3.687  0.1476 -0.3372  0.6384
   88SOPE   C21 8267   3.558   3.729   3.684  0.8071  0.2470 -0.8086
   88SOPE   O22 8268   3.591   3.633   3.615 -0.1882  0.3190  0.4518
   88SOPE   C22 8269   3.450   3.728   3.797 -0.7241 -0.0165 -0.1081
   88SOPE   H2R 8270   3.359   3.781   3.761 -0.2759  1.2794  0.6071
   88SOPE   H2S 8271   3.497   3.782   3.882  0.8695  0.0622 -0.9923
   88SOPE    C3 8272   3.839   3.947   3.643 -0.2490 -0.2830 -0.6606
   88SOPE    HX 8273   3.813   4.040   3.698  1.6880  1.4311 -2.4923
   88SOPE    HY 8274   3.902   3.978   3.557  0.8514  1.3649  0.6875
   88SOPE   O31 8275   3.905   3.864   3.740  0.4858 -0.2545 -0.0650
   88SOPE   C31 8276   3.974   3.775   3.680 -1.0147 -0.3707  0.4710
   88SOPE   O32 8277   3.995   3.758   3.561  0.7152 -0.5682 -0.1757
   88SOPE   C32 8278   4.033   3.671   3.780  0.2641 -0.1601  0.0834
   88SOPE   H2X 8279   4.121   3.726   3.817  0.2069 -0.2535  0.3637
   88SOPE   H2Y 8280   4.059   3.574   3.731 -0.1791 -1.6818  2.6567
   88SOPE   C23 8281   3.406   3.590   3.832  0.0010  0.0436 -0.4367
   88SOPE   H3R 8282   3.491   3.530   3.870  0.3561  0.7668 -0.0690
   88SOPE   H3S 8283   3.386   3.544   3.732  1.1099 -3.0878  0.6723
   88SOPE   C24 8284   3.275   3.586   3.925  0.3406  0.4851  0.7067
   88SOPE   H4R 8285   3.194   3.638   3.869  0.9312  0.2568 -0.4038
   88SOPE   H4S 8286   3.248   3.479   3.937 -1.9321  0.4140 -3.3034
   88SOPE   C25 8287   3.293   3.659   4.054  0.2494 -0.2470  0.1300
   88SOPE   H5R 8288   3.373   3.613   4.115  0.7930  0.7917  0.2161
   88SOPE   H5S 8289   3.322   3.765   4.039 -1.4955  0.6928  2.6755
   88SOPE   C26 8290   3.171   3.658   4.147  0.2292  0.6688  0.9700
   88SOPE   H6R 8291   3.083   3.682   4.085  0.6867  0.4466  0.2168
   88SOPE   H6S 8292   3.165   3.550   4.174  0.5564  0.7845  1.5328
   88SOPE   C27 8293   3.183   3.738   4.273 -0.0164 -0.3107  0.5093
   88SOPE   H7R 8294   3.102   3.717   4.347 -1.3255  1.5150 -0.3354
   88SOPE   H7S 8295   3.285   3.709   4.307  0.7478  0.1435 -1.2812
   88SOPE   C28 8296   3.207   3.885   4.257 -0.7371  0.0949  0.0898
   88SOPE   H8R 8297   3.245   3.920   4.355  1.7408 -1.3664 -0.2629
   88SOPE   H8S 8298   3.283   3.905   4.179  0.9811 -2.3026  1.0313
   88SOPE   C29 8299   3.086   3.951   4.210  0.2738  0.0098  0.2762
   88SOPE   H91 8300   3.040   3.920   4.115 -0.6932  0.0031  0.7417
   88SOPE  C210 8301   3.034   4.059   4.263  0.4148  0.8188 -0.2042
   88SOPE  H101 8302   2.939   4.099   4.224  0.0078 -0.0722 -0.1590
   88SOPE  C211 8303   3.096   4.147   4.368 -0.3118 -0.1183  0.4461
   88SOPE  H11R 8304   3.087   4.255   4.346 -0.0689  0.3084  2.3122
   88SOPE  H11S 8305   3.205   4.132   4.382 -0.2807  0.8636  1.3689
   88SOPE  C212 8306   3.025   4.133   4.501 -0.5314 -0.3003 -0.1752
   88SOPE  H12R 8307   3.037   4.028   4.535 -0.3253  0.5364  2.5466
   88SOPE  H12S 8308   2.915   4.151   4.497 -0.7039 -0.6061  1.8975
   88SOPE  C213 8309   3.070   4.224   4.605 -0.1228  0.2684 -0.8239
   88SOPE  H13R 8310   3.060   4.329   4.573  0.4565  0.4294 -0.4924
   88SOPE  H13S 8311   3.174   4.200   4.637 -0.3519  0.6652  0.2472
   88SOPE  C214 8312   2.993   4.218   4.735  0.5780 -0.4070 -0.0053
   88SOPE  H14R 8313   3.014   4.121   4.786  1.9862 -0.9640 -1.5432
   88SOPE  H14S 8314   2.884   4.230   4.720  0.8852  1.9077 -0.7274
   88SOPE  C215 8315   3.058   4.324   4.827 -0.3740  0.8524  0.3113
   88SOPE  H15R 8316   3.004   4.419   4.806 -1.4940  0.4014  1.0534
   88SOPE  H15S 8317   3.164   4.338   4.797 -0.4112  0.3955 -0.0548
   88SOPE  C216 8318   3.043   4.304   4.979 -0.9889  0.4585 -0.1704
   88SOPE  H16R 8319   3.103   4.217   5.014  2.8310  2.9498  0.0124
   88SOPE  H16S 8320   2.936   4.275   4.991 -0.0588 -2.7796  1.2758
   88SOPE  C217 8321   3.069   4.428   5.069 -0.1419  0.3680 -0.1598
   88SOPE  H17R 8322   3.022   4.418   5.169  0.8461  0.2928  0.3180
   88SOPE  H17S 8323   3.032   4.520   5.020  0.4276  0.2883 -0.7613
   88SOPE  C218 8324   3.221   4.436   5.096 -0.6934  0.8915 -0.0977
   88SOPE  H18R 8325   3.279   4.455   5.004  2.2885 -1.0460  1.2006
   88SOPE  H18S 8326   3.249   4.344   5.152  0.6892 -0.4349 -2.8096
   88SOPE  H18T 8327   3.234   4.517   5.171 -0.2124 -0.1427  0.9723
   88SOPE   C33 8328   3.926   3.629   3.891 -0.0688 -1.0228 -0.4123
   88SOPE   H3X 8329   3.933   3.525   3.929 -0.5067 -0.6528  0.7004
   88SOPE   H3Y 8330   3.820   3.642   3.861 -0.7757  2.5470  2.8456
   88SOPE   C34 8331   3.947   3.716   4.014  0.4896  0.4823  0.4365
   88SOPE   H4X 8332   4.003   3.809   3.991  1.3820  0.5386  2.6033
   88SOPE   H4Y 8333   4.008   3.655   4.085 -0.2781 -0.6731  0.1217
   88SOPE   C35 8334   3.817   3.753   4.089 -0.4415  0.2133 -0.1014
   88SOPE   H5X 8335   3.739   3.788   4.019 -1.2323  0.6537  0.9821
   88SOPE   H5Y 8336   3.851   3.833   4.158  0.1281  0.8070 -1.0392
   88SOPE   C36 8337   3.765   3.634   4.166  0.5839 -0.5191 -0.4742
   88SOPE   H6X 8338   3.847   3.576   4.213 -0.0996 -1.2133 -0.0965
   88SOPE   H6Y 8339   3.710   3.557   4.108  1.4315 -1.1527 -0.4540
   88SOPE   C37 8340   3.668   3.683   4.283  0.0065  0.4382 -0.1482
   88SOPE   H7X 8341   3.591   3.747   4.236 -3.0634 -1.7255  1.6260
   88SOPE   H7Y 8342   3.724   3.759   4.342  2.5883 -0.2486 -1.5468
   88SOPE   C38 8343   3.605   3.572   4.367 -1.3566  0.9955 -0.5169
   88SOPE   H8X 8344   3.689   3.512   4.406 -1.7701  0.8161  0.1140
   88SOPE   H8Y 8345   3.557   3.499   4.298  4.0022 -3.8231  0.2031
   88SOPE   C39 8346   3.528   3.621   4.490  0.4828 -0.1443 -0.7594
   88SOPE   H9X 8347   3.489   3.524   4.529  2.8594 -1.4282 -1.3895
   88SOPE   H9Y 8348   3.447   3.683   4.447 -0.4297 -1.6075 -1.2019
   88SOPE  C310 8349   3.601   3.708   4.594  0.7616  0.2081  0.4648
   88SOPE  H10X 8350   3.643   3.800   4.549 -2.0901  1.9867  1.1958
   88SOPE  H10Y 8351   3.673   3.642   4.648  1.6064  1.6072  1.1116
   88SOPE  C311 8352   3.497   3.742   4.704  0.7979 -0.5135 -0.8160
   88SOPE  H11X 8353   3.549   3.795   4.787  0.3602  0.9192 -1.4202
   88SOPE  H11Y 8354   3.448   3.657   4.755 -3.0447  1.2193 -1.2618
   88SOPE  C312 8355   3.373   3.822   4.655 -0.0559 -0.0739 -0.0018
   88SOPE  H12X 8356   3.329   3.767   4.570  1.5028  2.1855 -2.4623
   88SOPE  H12Y 8357   3.403   3.926   4.628  0.3948  0.7136  3.0962
   88SOPE  C313 8358   3.254   3.837   4.753  0.2530  0.3411 -0.1896
   88SOPE  H13X 8359   3.235   3.739   4.801 -0.7546  0.0593 -1.1262
   88SOPE  H13Y 8360   3.154   3.871   4.718 -0.1118 -1.1528 -0.6387
   88SOPE  C314 8361   3.296   3.937   4.869  0.1686  0.1736 -0.4214
   88SOPE  H14X 8362   3.304   4.041   4.831  0.3964  0.4033  0.2468
   88SOPE  H14Y 8363   3.398   3.928   4.910 -0.5486 -0.4503  1.3035
   88SOPE  C315 8364   3.216   3.913   4.998 -0.3155  0.3919  0.9214
   88SOPE  H15X 8365   3.113   3.953   4.980  0.3826  1.7347 -0.2857
   88SOPE  H15Y 8366   3.264   3.983   5.070  1.5807  3.2929 -2.8306
   88SOPE  C316 8367   3.210   3.766   5.044 -0.5984 -0.5783 -0.1651
   88SOPE  H16X 8368   3.306   3.710   5.048  1.6664  3.0401  0.2455
   88SOPE  H16Y 8369   3.138   3.722   4.971  1.1654 -0.8548 -1.7980
   88SOPE  C317 8370   3.144   3.743   5.184 -0.3659  0.3917 -0.4607
   88SOPE  H17X 8371   3.047   3.796   5.195 -0.5815 -0.4304  2.5946
   88SOPE  H17Y 8372   3.216   3.775   5.263  0.1838  0.0404 -0.8136
   88SOPE  C318 8373   3.136   3.591   5.201  0.3843  0.1958  0.3407
   88SOPE  H18X 8374   3.240   3.554   5.193  0.0106 -0.9813  0.6960
   88SOPE  H18Y 8375   3.076   3.535   5.127 -1.9227  0.7512  1.6801
   88SOPE  H18Z 8376   3.093   3.565   5.301 -0.0886  1.1551  0.3993
   89SAPC     N 8377   2.263   3.394   7.617 -0.2778 -0.2879  0.1439
   89SAPC   C12 8378   2.359   3.446   7.518  0.2512 -0.1840  0.8562
   89SAPC  H12A 8379   2.432   3.518   7.553 -0.0503  0.4279  0.2370
   89SAPC  H12B 8380   2.300   3.493   7.441  1.5708  1.6848  0.8937
   89SAPC   C13 8381   2.175   3.289   7.551  0.7150 -0.4962 -0.2616
   89SAPC  H13A 8382   2.241   3.210   7.518  1.3647 -1.0794  2.1923
   89SAPC  H13B 8383   2.118   3.255   7.637  0.8735  0.0358  0.0589
   89SAPC  H13C 8384   2.108   3.332   7.479 -0.9473 -3.0906 -0.4022
   89SAPC   C14 8385   2.338   3.343   7.732 -0.4501 -0.0384 -0.0735
   89SAPC  H14A 8386   2.267   3.298   7.800  0.1078  1.9658  1.9396
   89SAPC  H14B 8387   2.418   3.272   7.713 -1.1710 -0.7493 -0.4989
   89SAPC  H14C 8388   2.377   3.426   7.789 -1.0892  0.4760 -0.3746
   89SAPC   C15 8389   2.183   3.506   7.672  0.3839 -0.9867 -0.0451
   89SAPC  H15A 8390   2.113   3.545   7.600  0.4304 -0.9840 -0.0894
   89SAPC  H15B 8391   2.121   3.479   7.756 -2.0154  1.7101 -0.7986
   89SAPC  H15C 8392   2.254   3.580   7.704  2.6111 -2.3791 -1.4538
   89SAPC   C11 8393   2.458   3.343   7.440  1.0083  0.1667 -0.9085
   89SAPC  H11A 8394   2.502   3.410   7.362  0.5519  1.4113 -0.1176
   89SAPC  H11B 8395   2.390   3.266   7.399  0.2174 -0.8382  2.0446
   89SAPC     P 8396   2.666   3.369   7.596  0.4053 -0.0739  0.0120
   89SAPC   O13 8397   2.667   3.505   7.540 -0.7879 -0.1621  0.0607
   89SAPC   O14 8398   2.638   3.356   7.741 -0.2973  0.1365  0.2958
   89SAPC   O12 8399   2.557   3.286   7.527  0.1346  0.3340  0.2907
   89SAPC   O11 8400   2.811   3.313   7.574  0.2133 -0.0718 -0.5554
   89SAPC    C1 8401   2.839   3.228   7.464 -0.1384  0.1881  0.2610
   89SAPC    HA 8402   2.916   3.159   7.504 -2.1123 -1.7320  0.9282
   89SAPC    HB 8403   2.758   3.156   7.443 -0.3248  0.5044 -0.1195
   89SAPC    C2 8404   2.890   3.299   7.335  0.0493  0.1527 -0.1549
   89SAPC    HS 8405   2.968   3.367   7.375  0.6909 -0.0400 -1.0526
   89SAPC   O21 8406   2.785   3.361   7.264 -0.2948  0.7877 -0.4067
   89SAPC   C21 8407   2.826   3.467   7.196  0.1273 -0.6385 -0.1441
   89SAPC   O22 8408   2.935   3.521   7.212  0.5005 -0.2671  0.2070
   89SAPC   C22 8409   2.716   3.508   7.102  0.2698  0.8240 -0.0562
   89SAPC   H2R 8410   2.681   3.423   7.039  1.0690 -0.8590  1.6894
   89SAPC   H2S 8411   2.629   3.537   7.165  0.2471 -0.1674  0.3889
   89SAPC    C3 8412   2.970   3.201   7.246 -0.3933  0.0410 -0.4096
   89SAPC    HX 8413   2.897   3.138   7.192  0.7972 -1.0296 -0.8267
   89SAPC    HY 8414   3.021   3.138   7.322 -2.2082  0.3488  1.1146
   89SAPC   O31 8415   3.047   3.270   7.146  0.1495 -0.2345  0.2010
   89SAPC   C31 8416   3.182   3.286   7.177 -0.0780  0.0255  0.0223
   89SAPC   O32 8417   3.231   3.257   7.284  0.4258  0.3522  0.3021
   89SAPC   C32 8418   3.245   3.351   7.058  0.6641  0.3942 -0.2806
   89SAPC   H2X 8419   3.191   3.447   7.044 -0.9244 -0.6228 -1.6262
   89SAPC   H2Y 8420   3.224   3.297   6.963  2.0816  0.8579 -0.8948
   89SAPC   C23 8421   2.745   3.632   7.012  0.3702  0.1013 -0.0802
   89SAPC   H3R 8422   2.772   3.711   7.085  3.3395 -1.6966  0.9226
   89SAPC   H3S 8423   2.646   3.662   6.972  0.7353  0.5803 -0.6372
   89SAPC   C24 8424   2.834   3.617   6.894 -0.2953  0.1131  0.0014
   89SAPC   H4R 8425   2.933   3.590   6.937 -0.1533  2.3391  1.1799
   89SAPC   H4S 8426   2.848   3.715   6.844 -0.1827 -0.4738 -1.1415
   89SAPC   C25 8427   2.777   3.505   6.797  0.2865 -0.0098  0.2470
   89SAPC   H5R 8428   2.687   3.540   6.743  0.4205 -0.6345 -0.3999
   89SAPC   C26 8429   2.830   3.386   6.760 -0.7870 -0.1132 -0.3341
   89SAPC   H6R 8430   2.782   3.318   6.689 -2.0383  0.0024  0.3809
   89SAPC   C27 8431   2.954   3.342   6.823 -0.4578 -0.6254 -0.0900
   89SAPC   H7R 8432   2.953   3.349   6.934 -1.9043  0.4083 -0.1364
   89SAPC   H7S 8433   3.028   3.416   6.786 -1.8708  1.4464  1.0131
   89SAPC   C28 8434   2.990   3.203   6.784  0.2893 -0.4996  0.1010
   89SAPC   H8R 8435   2.974   3.137   6.871 -1.3405 -1.1909 -0.6813
   89SAPC   C29 8436   3.034   3.154   6.665 -0.0196 -0.2683 -0.0074
   89SAPC   H9R 8437   3.051   3.046   6.651  1.2832 -0.0705 -0.0983
   89SAPC  C210 8438   3.075   3.227   6.541  0.3051 -0.7825 -0.2547
   89SAPC  H10R 8439   3.097   3.153   6.461 -0.1119 -0.5187 -0.6181
   89SAPC  H10S 8440   3.158   3.297   6.566  1.2777 -1.1134 -2.3072
   89SAPC  C211 8441   2.983   3.312   6.456 -0.1497 -0.2338 -0.4373
   89SAPC  H11R 8442   2.879   3.315   6.492 -0.1710  1.1200 -0.5667
   89SAPC  C212 8443   3.022   3.388   6.355  0.3180 -0.5470 -0.4909
   89SAPC  H12R 8444   2.954   3.458   6.305 -0.7142  0.0743  1.6503
   89SAPC  C213 8445   3.157   3.389   6.296 -0.2411 -0.1434  0.7606
   89SAPC  H13R 8446   3.229   3.334   6.360  0.8133 -2.7747 -2.4477
   89SAPC  H13S 8447   3.183   3.496   6.277  1.5025 -0.7628 -0.5854
   89SAPC  C214 8448   3.162   3.324   6.162 -0.2506  0.6015  0.1660
   89SAPC  H14R 8449   3.228   3.235   6.168  0.1817  0.9965  2.8055
   89SAPC  C215 8450   3.131   3.366   6.036 -0.2209 -0.0911 -0.9277
   89SAPC  H15R 8451   3.129   3.300   5.949  2.4248  0.4790 -1.5025
   89SAPC  C216 8452   3.058   3.492   6.014  0.4995 -0.3478  0.3571
   89SAPC  H16R 8453   3.130   3.576   6.004  0.2646 -0.0204  1.2641
   89SAPC  H16S 8454   3.000   3.505   6.108 -0.7375  0.8718 -0.5238
   89SAPC  C217 8455   2.961   3.491   5.889  0.0791 -0.0362  0.4738
   89SAPC  H17R 8456   2.874   3.428   5.919  1.1029 -2.3529 -1.1558
   89SAPC  H17S 8457   3.010   3.432   5.809  0.7955 -0.8948  1.5183
   89SAPC  C218 8458   2.905   3.628   5.840 -0.5578  0.0160  0.0817
   89SAPC  H18R 8459   2.985   3.702   5.817  1.1614 -0.3407  4.0181
   89SAPC  H18S 8460   2.878   3.670   5.939 -1.2465  0.2844 -0.2159
   89SAPC  C219 8461   2.803   3.625   5.724  0.0686 -0.5089  0.4479
   89SAPC  H19R 8462   2.739   3.715   5.715 -2.5379 -2.3520 -0.7675
   89SAPC  H19S 8463   2.728   3.547   5.748  1.7648 -1.7338  2.0065
   89SAPC  C220 8464   2.858   3.610   5.579  0.0096 -0.1188  0.3202
   89SAPC  H20R 8465   2.919   3.696   5.543  1.8618 -1.4825  0.0417
   89SAPC  H20S 8466   2.770   3.584   5.517  0.4415  1.6438 -1.1224
   89SAPC  H20T 8467   2.916   3.517   5.562 -0.5868 -0.5458  0.5790
   89SAPC   C33 8468   3.399   3.388   7.073  0.4671 -0.5491  0.7735
   89SAPC   H3X 8469   3.426   3.448   7.162  0.0776  1.3622 -0.3502
   89SAPC   H3Y 8470   3.422   3.457   6.989 -0.0832 -0.5019  0.6571
   89SAPC   C34 8471   3.491   3.271   7.049  0.7667  0.6377 -0.2516
   89SAPC   H4X 8472   3.484   3.183   7.117  2.6616 -0.9116 -1.9227
   89SAPC   H4Y 8473   3.600   3.294   7.060  0.9398  0.2735 -1.1198
   89SAPC   C35 8474   3.491   3.196   6.913  0.5376 -0.4021 -0.1464
   89SAPC   H5X 8475   3.388   3.156   6.897  0.7124 -0.7020 -0.5604
   89SAPC   H5Y 8476   3.563   3.112   6.905  0.3893 -0.3804 -2.6221
   89SAPC   C36 8477   3.519   3.281   6.786  0.0493 -0.2844 -0.2471
   89SAPC   H6X 8478   3.627   3.307   6.787  0.1602 -0.5412  2.6193
   89SAPC   H6Y 8479   3.459   3.374   6.791 -0.7048 -0.6521 -1.7790
   89SAPC   C37 8480   3.481   3.217   6.651  0.0823 -0.1746 -0.2589
   89SAPC   H7X 8481   3.380   3.175   6.667  0.4951 -0.5986  1.5478
   89SAPC   H7Y 8482   3.544   3.127   6.633  0.3622  0.4467 -2.6837
   89SAPC   C38 8483   3.503   3.314   6.531  0.3297 -0.5573 -0.1635
   89SAPC   H8X 8484   3.597   3.365   6.558 -0.6595  0.8316  0.8344
   89SAPC   H8Y 8485   3.427   3.395   6.521 -2.2065 -2.8759 -1.1972
   89SAPC   C39 8486   3.521   3.248   6.395 -1.2033 -0.3316 -0.0203
   89SAPC   H9X 8487   3.430   3.191   6.367 -0.5160 -1.5812  0.2433
   89SAPC   H9Y 8488   3.607   3.182   6.418  1.8254  2.5645 -2.0673
   89SAPC  C310 8489   3.571   3.344   6.280 -0.7395  0.3917  0.6470
   89SAPC  H10X 8490   3.676   3.373   6.302  0.3150 -1.5634 -1.3584
   89SAPC  H10Y 8491   3.507   3.433   6.267 -2.4381 -0.9257 -0.5513
   89SAPC  C311 8492   3.585   3.257   6.156 -0.0531  0.4619 -0.0069
   89SAPC  H11X 8493   3.496   3.245   6.090  1.9165 -0.5302 -2.7072
   89SAPC  H11Y 8494   3.625   3.157   6.181  1.0654  0.0106 -3.1091
   89SAPC  C312 8495   3.676   3.332   6.056  0.3966  0.1819  0.5792
   89SAPC  H12X 8496   3.771   3.363   6.104 -0.7498  4.5600  0.4595
   89SAPC  H12Y 8497   3.629   3.429   6.027  1.0682  0.6894  1.1669
   89SAPC  C313 8498   3.703   3.255   5.921 -0.5574 -0.2471 -0.2777
   89SAPC  H13X 8499   3.607   3.211   5.885 -1.3092 -0.5232  1.9005
   89SAPC  H13Y 8500   3.773   3.172   5.946 -0.8646 -0.1062  1.1406
   89SAPC  C314 8501   3.770   3.336   5.812 -0.9222 -0.1166  0.6393
   89SAPC  H14X 8502   3.720   3.432   5.786 -1.2687 -1.1813 -3.1804
   89SAPC  H14Y 8503   3.750   3.291   5.712 -0.4727 -2.7521  1.6768
   89SAPC  C315 8504   3.921   3.348   5.833 -0.4992  0.2004  0.5655
   89SAPC  H15X 8505   3.960   3.251   5.874 -0.9941 -0.5441 -0.6855
   89SAPC  H15Y 8506   3.929   3.420   5.917 -1.3420  3.1902 -1.7813
   89SAPC  C316 8507   3.997   3.391   5.708  0.0832 -0.2001 -0.4289
   89SAPC  H16X 8508   3.977   3.496   5.677  0.0890 -0.5410 -1.6395
   89SAPC  H16Y 8509   3.980   3.324   5.621 -0.4779  0.6683 -1.0013
   89SAPC  C317 8510   4.151   3.392   5.737  0.7230  0.0164  0.9014
   89SAPC  H17X 8511   4.187   3.287   5.742 -1.8359 -0.8680  2.5181
   89SAPC  H17Y 8512   4.160   3.431   5.841  1.4586  0.6205  0.6234
   89SAPC  C318 8513   4.235   3.471   5.634 -0.5189  0.4366  0.3345
   89SAPC  H18X 8514   4.216   3.579   5.648 -2.0396  0.4310 -1.3568
   89SAPC  H18Y 8515   4.208   3.454   5.527  0.0905  1.6668 -0.0330
   89SAPC  H18Z 8516   4.343   3.447   5.641 -0.5423 -0.0744 -0.7937
   90SAPC     N 8517   6.627   6.519   7.580 -0.0025  0.1715 -0.1101
   90SAPC   C12 8518   6.720   6.524   7.455  0.7160 -0.5675 -0.0869
   90SAPC  H12A 8519   6.822   6.539   7.490  0.7960  2.0689 -1.2233
   90SAPC  H12B 8520   6.696   6.613   7.399  1.3199 -0.7734 -0.6855
   90SAPC   C13 8521   6.613   6.646   7.657  0.2875 -0.1152  0.3663
   90SAPC  H13A 8522   6.553   6.718   7.603  1.0112 -1.1277 -1.8896
   90SAPC  H13B 8523   6.560   6.631   7.751  0.1959  0.2277  0.3725
   90SAPC  H13C 8524   6.711   6.682   7.685 -0.9847  3.4978  0.8381
   90SAPC   C14 8525   6.499   6.467   7.529  0.4081  0.2490 -0.5084
   90SAPC  H14A 8526   6.515   6.374   7.477  1.0778  0.9230 -1.5477
   90SAPC  H14B 8527   6.437   6.444   7.614  0.8996  1.9462  0.3506
   90SAPC  H14C 8528   6.452   6.530   7.456  1.4464  1.5650 -0.0842
   90SAPC   C15 8529   6.675   6.412   7.675 -0.2501  0.6964  0.0590
   90SAPC  H15A 8530   6.776   6.433   7.707  1.5106  0.1218 -4.5157
   90SAPC  H15B 8531   6.623   6.400   7.770 -0.5340 -3.8930 -0.4642
   90SAPC  H15C 8532   6.678   6.314   7.630  0.8583 -0.0567  1.6571
   90SAPC   C11 8533   6.719   6.407   7.351 -0.6283 -0.7569  0.0254
   90SAPC  H11A 8534   6.795   6.437   7.276 -3.5468  1.0643 -2.4350
   90SAPC  H11B 8535   6.626   6.404   7.289  1.0224 -2.7236 -2.5551
   90SAPC     P 8536   6.891   6.230   7.452  0.2866 -0.6102  0.3571
   90SAPC   O13 8537   6.951   6.335   7.540 -0.3944 -0.5537 -0.3220
   90SAPC   O14 8538   6.873   6.093   7.507  0.0297 -0.7794  0.1843
   90SAPC   O12 8539   6.754   6.281   7.410  0.3251 -0.0746  0.4213
   90SAPC   O11 8540   6.971   6.234   7.311  0.3239 -0.0016 -0.1888
   90SAPC    C1 8541   6.939   6.136   7.209 -0.0941 -0.1574  1.1596
   90SAPC    HA 8542   6.993   6.040   7.220  0.7208  0.2066  0.4654
   90SAPC    HB 8543   6.829   6.124   7.206 -0.2581  1.3460 -0.7017
   90SAPC    C2 8544   6.967   6.185   7.073 -0.6539 -0.5148  0.7435
   90SAPC    HS 8545   7.074   6.215   7.075 -1.0781  1.2486 -0.5468
   90SAPC   O21 8546   6.884   6.300   7.055  0.1490 -0.1891  0.3159
   90SAPC   C21 8547   6.931   6.398   6.985 -0.0258  0.0774 -0.0469
   90SAPC   O22 8548   7.030   6.389   6.914 -0.6107  0.1349 -0.4163
   90SAPC   C22 8549   6.843   6.526   6.985 -0.8221 -0.9115 -0.7656
   90SAPC   H2R 8550   6.735   6.501   6.995 -1.2196  1.3848  3.0352
   90SAPC   H2S 8551   6.861   6.577   7.083  0.4892 -0.5085 -1.1955
   90SAPC    C3 8552   6.942   6.081   6.966  0.1907  0.0681  0.0774
   90SAPC    HX 8553   6.846   6.029   6.987  0.8400 -0.3712  2.2218
   90SAPC    HY 8554   7.030   6.014   6.969  0.4908  0.3868 -1.3460
   90SAPC   O31 8555   6.924   6.147   6.835 -0.0778 -0.3533  0.2151
   90SAPC   C31 8556   7.038   6.148   6.761 -0.7338  0.6046 -0.6479
   90SAPC   O32 8557   7.142   6.087   6.783 -0.4248  0.3664  0.4209
   90SAPC   C32 8558   7.025   6.253   6.648 -0.2266 -0.2893 -0.1903
   90SAPC   H2X 8559   7.082   6.343   6.679 -0.7925  0.0931 -0.2525
   90SAPC   H2Y 8560   6.920   6.289   6.646  0.4909  2.1665  1.9936
   90SAPC   C23 8561   6.888   6.635   6.882 -0.4451 -0.2297 -0.0793
   90SAPC   H3R 8562   6.999   6.633   6.875 -0.5511 -1.3165 -2.4243
   90SAPC   H3S 8563   6.852   6.734   6.917 -2.5129 -0.8420 -0.2856
   90SAPC   C24 8564   6.841   6.606   6.739  0.4648  0.5047 -0.2868
   90SAPC   H4R 8565   6.732   6.584   6.742  0.6706 -0.5743 -0.3124
   90SAPC   H4S 8566   6.891   6.514   6.700  0.1914 -0.9390  2.5550
   90SAPC   C25 8567   6.853   6.712   6.637  0.1658 -0.2604  0.4671
   90SAPC   H5R 8568   6.866   6.817   6.667 -1.0889  1.1681 -3.3942
   90SAPC   C26 8569   6.834   6.708   6.502  0.7243  0.2096 -0.5540
   90SAPC   H6R 8570   6.855   6.802   6.449  1.5947  0.6141  0.4821
   90SAPC   C27 8571   6.790   6.596   6.413  0.3309  0.5240  0.2993
   90SAPC   H7R 8572   6.793   6.496   6.461  0.8941  0.7696  0.7962
   90SAPC   H7S 8573   6.854   6.601   6.322  0.9490  1.8399  0.7829
   90SAPC   C28 8574   6.654   6.639   6.373 -0.1342  0.1782 -0.3638
   90SAPC   H8R 8575   6.576   6.613   6.446 -0.4069  3.8626  0.8526
   90SAPC   C29 8576   6.613   6.704   6.264  0.7098  0.3781 -0.2767
   90SAPC   H9R 8577   6.506   6.725   6.249  0.5190 -0.7225 -0.6188
   90SAPC  C210 8578   6.691   6.750   6.147 -0.1629 -0.3247 -0.6757
   90SAPC  H10R 8579   6.787   6.797   6.177 -1.6279  4.1370 -2.1993
   90SAPC  H10S 8580   6.645   6.845   6.113  1.4045 -1.0216 -5.6183
   90SAPC  C211 8581   6.725   6.647   6.040  0.3237 -0.1310  0.1411
   90SAPC  H11R 8582   6.807   6.580   6.071  1.2887  0.5549 -0.8543
   90SAPC  C212 8583   6.669   6.624   5.923  0.3831 -0.7395 -0.8747
   90SAPC  H12R 8584   6.705   6.550   5.850  0.0890 -0.6614 -1.1010
   90SAPC  C213 8585   6.549   6.699   5.871  0.0143  0.2508  0.0419
   90SAPC  H13R 8586   6.520   6.785   5.936 -0.9767  1.9702 -2.4929
   90SAPC  H13S 8587   6.459   6.635   5.864 -0.8944  1.5557 -0.7464
   90SAPC  C214 8588   6.578   6.767   5.737 -0.2730  0.9409 -0.4268
   90SAPC  H14R 8589   6.642   6.856   5.749  1.4749 -0.4558  1.1444
   90SAPC  C215 8590   6.554   6.718   5.615  0.0674  0.2814  0.0090
   90SAPC  H15R 8591   6.587   6.770   5.524  1.3667 -2.6930 -1.3334
   90SAPC  C216 8592   6.489   6.582   5.586 -0.2041 -0.5386  0.5146
   90SAPC  H16R 8593   6.409   6.588   5.509  0.8006 -2.7067 -0.7942
   90SAPC  H16S 8594   6.440   6.528   5.669  3.6084 -2.2376  1.8740
   90SAPC  C217 8595   6.590   6.489   5.536  0.1056  0.0860  0.1222
   90SAPC  H17R 8596   6.682   6.497   5.598  0.4352  3.2260 -0.5938
   90SAPC  H17S 8597   6.617   6.514   5.432 -0.1235 -1.0081 -0.2139
   90SAPC  C218 8598   6.551   6.342   5.537  0.1778  0.2758 -0.0667
   90SAPC  H18R 8599   6.557   6.299   5.639  1.2128 -0.1967 -0.3142
   90SAPC  H18S 8600   6.621   6.292   5.466  2.8534 -1.9956  3.8060
   90SAPC  C219 8601   6.408   6.318   5.487  0.1045 -0.0199  0.0963
   90SAPC  H19R 8602   6.382   6.391   5.407 -1.1447 -0.8288 -0.2512
   90SAPC  H19S 8603   6.346   6.360   5.569  0.4509  0.5282  0.0862
   90SAPC  C220 8604   6.386   6.165   5.455 -0.2074  0.0267 -0.4474
   90SAPC  H20R 8605   6.463   6.128   5.384  1.1638  2.8453 -0.5487
   90SAPC  H20S 8606   6.284   6.139   5.422 -0.9065  0.3921  1.2920
   90SAPC  H20T 8607   6.402   6.114   5.553  1.1597 -1.6885 -1.5142
   90SAPC   C33 8608   7.069   6.207   6.510  0.6000  0.2919  0.0276
   90SAPC   H3X 8609   7.003   6.123   6.480  2.8395 -1.3892 -0.5316
   90SAPC   H3Y 8610   7.172   6.165   6.512  0.1201 -0.9700 -0.5837
   90SAPC   C34 8611   7.069   6.323   6.411 -0.0274  0.5984 -0.1464
   90SAPC   H4X 8612   7.141   6.402   6.442  1.7268 -1.0018  0.0308
   90SAPC   H4Y 8613   6.962   6.353   6.414 -0.8853 -2.2134  2.1227
   90SAPC   C35 8614   7.084   6.274   6.269 -0.2311  0.4116 -0.2418
   90SAPC   H5X 8615   7.021   6.185   6.251 -1.6691  1.2503  0.3776
   90SAPC   H5Y 8616   7.186   6.233   6.255 -1.0731 -2.7683  1.9037
   90SAPC   C36 8617   7.038   6.368   6.166  0.5125  0.0309  0.4538
   90SAPC   H6X 8618   7.062   6.473   6.192 -0.5483  0.3490  0.2144
   90SAPC   H6Y 8619   6.927   6.372   6.155  0.6510 -0.8536 -2.0129
   90SAPC   C37 8620   7.084   6.335   6.020 -0.0920  0.4030  0.5237
   90SAPC   H7X 8621   7.069   6.227   5.998 -1.6556  0.7547 -0.2789
   90SAPC   H7Y 8622   7.194   6.338   6.031  0.0867  0.3560 -1.0770
   90SAPC   C38 8623   7.028   6.426   5.909 -0.1017  0.7481  0.0258
   90SAPC   H8X 8624   7.064   6.529   5.927  0.0620  0.9512 -1.3941
   90SAPC   H8Y 8625   6.917   6.427   5.923  0.0142 -3.8089  3.5622
   90SAPC   C39 8626   7.087   6.409   5.764 -0.4124 -0.2590 -0.1316
   90SAPC   H9X 8627   7.137   6.310   5.754 -1.1204 -0.4816 -1.8739
   90SAPC   H9Y 8628   7.167   6.485   5.756 -1.4449  1.4443  3.5323
   90SAPC  C310 8629   6.991   6.438   5.645  0.6780 -0.3993 -0.7142
   90SAPC  H10X 8630   6.951   6.540   5.659 -1.3456 -1.1051 -1.0759
   90SAPC  H10Y 8631   6.906   6.367   5.652  1.1563 -0.8853  0.5146
   90SAPC  C311 8632   7.049   6.422   5.505  0.6342  0.2119 -0.1804
   90SAPC  H11X 8633   7.099   6.323   5.504 -2.2837 -1.3954 -0.6031
   90SAPC  H11Y 8634   7.132   6.495   5.497  0.8092  0.2725  1.8038
   90SAPC  C312 8635   6.940   6.424   5.390 -1.2991 -0.3615 -0.2029
   90SAPC  H12X 8636   6.920   6.529   5.358  1.3023  0.9766  2.1796
   90SAPC  H12Y 8637   6.849   6.377   5.431 -1.0683  1.2748  2.3939
   90SAPC  C313 8638   6.991   6.351   5.270 -0.5648  0.7407  0.1271
   90SAPC  H13X 8639   7.014   6.248   5.304 -0.2626  1.0260  0.8217
   90SAPC  H13Y 8640   7.090   6.391   5.239 -0.3938 -1.2120 -2.1548
   90SAPC  C314 8641   6.893   6.327   5.152  0.2821 -0.1218 -0.4693
   90SAPC  H14X 8642   6.934   6.255   5.078  0.1341  0.2285 -0.8946
   90SAPC  H14Y 8643   6.868   6.416   5.090 -1.2296  0.4873  0.9396
   90SAPC  C315 8644   6.763   6.264   5.197  0.4233  0.8312  0.2243
   90SAPC  H15X 8645   6.703   6.339   5.253  0.6306  1.0471  0.1596
   90SAPC  H15Y 8646   6.776   6.177   5.265  0.3531  1.1728  0.6787
   90SAPC  C316 8647   6.672   6.207   5.085 -0.0403  0.0229 -0.1542
   90SAPC  H16X 8648   6.726   6.126   5.031  1.3179  1.1491 -0.5185
   90SAPC  H16Y 8649   6.655   6.286   5.009  0.0544 -0.6311 -0.8739
   90SAPC  C317 8650   6.539   6.164   5.139 -0.2071 -0.0502  0.0848
   90SAPC  H17X 8651   6.498   6.244   5.204  2.5507  0.9585  0.7498
   90SAPC  H17Y 8652   6.563   6.082   5.210 -2.6137 -0.5712  0.3652
   90SAPC  C318 8653   6.450   6.109   5.032  0.7922 -0.3689 -0.4292
   90SAPC  H18X 8654   6.438   6.185   4.952  2.8869  0.3232 -0.1539
   90SAPC  H18Y 8655   6.349   6.087   5.072  0.5578 -1.7644 -1.7200
   90SAPC  H18Z 8656   6.493   6.014   4.996 -0.8369 -1.8350  1.2906
   91SAPC     N 8657   6.359   3.857   7.681 -0.7057  0.4099  0.7859
   91SAPC   C12 8658   6.442   3.782   7.580 -0.9180 -0.4534 -0.2016
   91SAPC  H12A 8659   6.432   3.832   7.485  0.2035 -1.4529 -0.8794
   91SAPC  H12B 8660   6.397   3.685   7.563  1.5676 -1.5689 -0.8760
   91SAPC   C13 8661   6.219   3.860   7.650  0.1787 -0.3917  0.2208
   91SAPC  H13A 8662   6.170   3.861   7.747  0.5708 -0.8310  0.4277
   91SAPC  H13B 8663   6.197   3.948   7.592  2.1300  1.4354  2.0634
   91SAPC  H13C 8664   6.193   3.768   7.599 -1.3368 -0.6660  1.3962
   91SAPC   C14 8665   6.379   3.803   7.819  0.4766 -0.2631 -0.5318
   91SAPC  H14A 8666   6.324   3.856   7.896  0.3362 -1.9125  0.5591
   91SAPC  H14B 8667   6.335   3.704   7.821  1.0130 -0.5321  2.0841
   91SAPC  H14C 8668   6.483   3.798   7.846  0.3672  3.0714  0.9980
   91SAPC   C15 8669   6.406   3.999   7.687  0.1479 -0.0500 -0.8309
   91SAPC  H15A 8670   6.396   4.055   7.596 -0.5290 -0.3056 -0.9161
   91SAPC  H15B 8671   6.341   4.059   7.750  2.4544 -0.0774  1.7593
   91SAPC  H15C 8672   6.502   4.017   7.734  0.6717 -2.6786 -0.7740
   91SAPC   C11 8673   6.596   3.763   7.601 -0.1102 -0.0549 -0.2911
   91SAPC  H11A 8674   6.637   3.866   7.609 -0.8880  0.3106 -0.8887
   91SAPC  H11B 8675   6.631   3.714   7.508  1.4754 -0.4319  0.4709
   91SAPC     P 8676   6.633   3.528   7.713  0.2591  0.2021 -0.6354
   91SAPC   O13 8677   6.700   3.480   7.833 -0.2200  0.3999 -0.0513
   91SAPC   O14 8678   6.501   3.476   7.686  0.4183 -0.5158 -0.0625
   91SAPC   O12 8679   6.625   3.683   7.717 -0.2663 -0.1776  0.4346
   91SAPC   O11 8680   6.713   3.489   7.581  0.3154  0.0382 -0.3994
   91SAPC    C1 8681   6.837   3.542   7.554  1.0110  0.2908 -0.1960
   91SAPC    HA 8682   6.837   3.654   7.555  0.4625  0.3151  2.2759
   91SAPC    HB 8683   6.911   3.499   7.625  2.3519  0.3266 -1.5198
   91SAPC    C2 8684   6.892   3.477   7.422 -0.4879 -0.2928  0.0091
   91SAPC    HS 8685   6.998   3.509   7.414 -0.6138 -0.0887 -0.9235
   91SAPC   O21 8686   6.817   3.517   7.304 -0.9287  0.1904  0.2916
   91SAPC   C21 8687   6.856   3.627   7.237 -0.0396 -0.1303 -0.5244
   91SAPC   O22 8688   6.934   3.707   7.283 -0.1802  0.0971 -0.0667
   91SAPC   C22 8689   6.773   3.635   7.115  0.1781  0.5174 -0.2908
   91SAPC   H2R 8690   6.763   3.533   7.071  0.4472  1.6824 -3.2961
   91SAPC   H2S 8691   6.671   3.665   7.147 -1.0088 -2.6123 -0.7584
   91SAPC    C3 8692   6.901   3.324   7.427 -0.3947  0.6324 -0.9359
   91SAPC    HX 8693   6.801   3.277   7.442 -0.6476  0.7712 -2.0288
   91SAPC    HY 8694   6.968   3.310   7.514  0.4289 -0.6130 -1.7495
   91SAPC   O31 8695   6.977   3.276   7.314  0.6002  0.1612  0.2242
   91SAPC   C31 8696   6.914   3.193   7.229 -0.1885  0.3859 -1.1915
   91SAPC   O32 8697   6.792   3.171   7.233 -0.6149  0.2679  0.2101
   91SAPC   C32 8698   7.015   3.159   7.117 -0.4482 -0.4880 -0.0710
   91SAPC   H2X 8699   7.042   3.051   7.111  0.4227 -0.2550 -0.3024
   91SAPC   H2Y 8700   7.106   3.220   7.132  0.6307 -1.3152 -2.8191
   91SAPC   C23 8701   6.829   3.723   7.001  0.1980 -0.3195  0.1403
   91SAPC   H3R 8702   6.882   3.812   7.042  0.6475 -1.1668  1.4471
   91SAPC   H3S 8703   6.744   3.768   6.945  1.1615  3.3165  1.3084
   91SAPC   C24 8704   6.917   3.635   6.904  0.6178 -0.2356  0.2787
   91SAPC   H4R 8705   6.846   3.564   6.856  1.6013 -0.1348 -1.3894
   91SAPC   H4S 8706   6.994   3.578   6.960  0.5076  0.0073  0.6844
   91SAPC   C25 8707   6.993   3.706   6.794  0.2131  0.8187  0.3217
   91SAPC   H5R 8708   7.064   3.779   6.837  2.7074 -1.4219  0.2496
   91SAPC   C26 8709   6.974   3.689   6.661 -0.5688  0.3241  0.1366
   91SAPC   H6R 8710   7.037   3.743   6.589  0.3706 -2.1716 -1.0460
   91SAPC   C27 8711   6.882   3.599   6.589  0.1288  0.3233  0.1691
   91SAPC   H7R 8712   6.872   3.502   6.644 -0.7812  1.1052  1.4395
   91SAPC   H7S 8713   6.927   3.573   6.491 -0.3726  2.3752 -0.6540
   91SAPC   C28 8714   6.744   3.665   6.569  0.7039 -0.6138  0.2189
   91SAPC   H8R 8715   6.683   3.685   6.658  0.7219  0.7408 -0.0562
   91SAPC   C29 8716   6.696   3.699   6.444  0.3585 -0.2613 -0.3811
   91SAPC   H9R 8717   6.595   3.743   6.445  0.3611 -0.2205  1.5977
   91SAPC  C210 8718   6.753   3.679   6.306  0.2141 -0.2469  0.3386
   91SAPC  H10R 8719   6.666   3.663   6.239  0.5906 -1.4437  0.1182
   91SAPC  H10S 8720   6.826   3.598   6.286  0.4018  0.2239 -0.9345
   91SAPC  C211 8721   6.823   3.815   6.279 -0.6928 -0.1800 -0.3207
   91SAPC  H11R 8722   6.842   3.883   6.363  1.0566  1.0143 -1.6033
   91SAPC  C212 8723   6.870   3.853   6.162  0.4115 -0.2170 -0.0230
   91SAPC  H12R 8724   6.903   3.956   6.138 -0.4329 -0.0944 -0.6843
   91SAPC  C213 8725   6.861   3.758   6.041 -0.3028 -1.0433 -0.0643
   91SAPC  H13R 8726   6.814   3.659   6.059  0.5886 -1.3068  0.9583
   91SAPC  H13S 8727   6.967   3.745   6.014 -0.1400  1.6957 -0.9975
   91SAPC  C214 8728   6.770   3.813   5.931 -0.3196 -0.6324  0.1072
   91SAPC  H14R 8729   6.667   3.776   5.946 -0.1552 -0.8625  0.6687
   91SAPC  C215 8730   6.810   3.886   5.820 -0.0271 -0.7374 -0.1883
   91SAPC  H15R 8731   6.738   3.927   5.748  0.8746  0.7464 -0.2803
   91SAPC  C216 8732   6.947   3.946   5.813  0.4029 -0.3104  0.2277
   91SAPC  H16R 8733   7.020   3.916   5.891  1.5834  1.7583  0.0102
   91SAPC  H16S 8734   6.929   4.056   5.823 -4.0972 -0.8296  0.0652
   91SAPC  C217 8735   7.014   3.925   5.677  0.5134 -0.6460 -0.3985
   91SAPC  H17R 8736   7.117   3.966   5.685 -0.1286  0.7291  1.4862
   91SAPC  H17S 8737   6.958   3.974   5.594 -2.2525  1.4028  2.3989
   91SAPC  C218 8738   7.041   3.775   5.637  0.6723 -0.1982 -0.4729
   91SAPC  H18R 8739   6.942   3.726   5.624  1.2158 -1.1364 -1.1405
   91SAPC  H18S 8740   7.097   3.719   5.715  0.7976  1.7254  0.8822
   91SAPC  C219 8741   7.119   3.755   5.503 -0.0928 -1.0134 -0.2151
   91SAPC  H19R 8742   7.130   3.650   5.469 -3.6865 -1.3026 -0.9133
   91SAPC  H19S 8743   7.223   3.791   5.516 -0.7904  0.8997  0.5222
   91SAPC  C220 8744   7.076   3.834   5.374  0.0429 -0.5262  1.0871
   91SAPC  H20R 8745   7.164   3.827   5.305 -0.7653 -0.0973 -0.0113
   91SAPC  H20S 8746   7.061   3.941   5.400  0.5376 -0.0573 -0.4503
   91SAPC  H20T 8747   6.987   3.789   5.325  1.0405  0.3206 -1.6775
   91SAPC   C33 8748   6.965   3.222   6.983  0.0522 -0.1381 -0.0896
   91SAPC   H3X 8749   6.976   3.332   6.995 -0.5041  0.0543 -1.2250
   91SAPC   H3Y 8750   6.867   3.192   6.941  0.2131 -0.9139  0.0708
   91SAPC   C34 8751   7.068   3.185   6.880  0.0840 -0.1226  0.7087
   91SAPC   H4X 8752   7.069   3.074   6.875 -0.2575 -0.0794 -1.8831
   91SAPC   H4Y 8753   7.168   3.224   6.908  0.5379 -1.0972  0.4856
   91SAPC   C35 8754   7.027   3.236   6.742 -0.3468 -0.3162 -0.2454
   91SAPC   H5X 8755   6.990   3.341   6.749 -0.3758 -0.1710 -2.0997
   91SAPC   H5Y 8756   6.942   3.180   6.698 -1.6903  2.0717 -0.8732
   91SAPC   C36 8757   7.143   3.232   6.643 -0.2223  0.3606 -0.2272
   91SAPC   H6X 8758   7.140   3.127   6.605  1.2776  0.7706 -1.6051
   91SAPC   H6Y 8759   7.237   3.239   6.701  0.6303  2.8478 -1.7497
   91SAPC   C37 8760   7.145   3.335   6.532  0.0335  0.2350 -0.0775
   91SAPC   H7X 8761   7.252   3.351   6.504 -0.5129  3.3585 -0.7871
   91SAPC   H7Y 8762   7.114   3.435   6.570  1.5149  1.9505 -2.9861
   91SAPC   C38 8763   7.059   3.296   6.412 -0.1264 -1.1013 -0.6234
   91SAPC   H8X 8764   6.953   3.302   6.443 -0.1553  0.1109 -0.9045
   91SAPC   H8Y 8765   7.063   3.189   6.380 -2.2139 -1.9127  1.5445
   91SAPC   C39 8766   7.068   3.390   6.291  0.4420  0.3464  0.0598
   91SAPC   H9X 8767   7.175   3.417   6.280  0.2200  0.9699 -0.6655
   91SAPC   H9Y 8768   7.015   3.487   6.299  0.5456  0.5841 -1.8285
   91SAPC  C310 8769   7.008   3.333   6.156 -0.1829 -0.5898 -0.5179
   91SAPC  H10X 8770   6.901   3.319   6.182 -0.2002 -0.7896 -0.7022
   91SAPC  H10Y 8771   7.044   3.230   6.135  0.1023 -0.5082 -0.4467
   91SAPC  C311 8772   7.033   3.419   6.033  0.6480  0.8791 -0.7620
   91SAPC  H11X 8773   7.140   3.410   6.004  0.5828 -3.2613 -0.3964
   91SAPC  H11Y 8774   7.007   3.522   6.064 -0.9931  0.3212 -0.1349
   91SAPC  C312 8775   6.947   3.366   5.913 -0.0446 -0.1926  0.3400
   91SAPC  H12X 8776   6.845   3.340   5.949 -1.7195  3.7989 -0.9320
   91SAPC  H12Y 8777   6.993   3.276   5.866  0.7214  0.8067 -0.8808
   91SAPC  C313 8778   6.936   3.462   5.802  0.8504 -0.4261  0.0699
   91SAPC  H13X 8779   7.038   3.494   5.774  0.4130  2.1406  1.1750
   91SAPC  H13Y 8780   6.874   3.551   5.826  1.0594 -0.1509 -0.3984
   91SAPC  C314 8781   6.863   3.390   5.684  0.3441 -0.8008 -0.4597
   91SAPC  H14X 8782   6.764   3.344   5.707 -1.9569  2.6644 -2.4900
   91SAPC  H14Y 8783   6.922   3.299   5.661 -1.5690 -2.2489  0.1435
   91SAPC  C315 8784   6.853   3.471   5.555  0.2323  0.1409  0.0823
   91SAPC  H15X 8785   6.960   3.489   5.531  0.1527 -2.0980 -2.4697
   91SAPC  H15Y 8786   6.796   3.564   5.574  2.0890  1.2138  0.6110
   91SAPC  C316 8787   6.804   3.385   5.438  0.2574  0.2821  0.0777
   91SAPC  H16X 8788   6.693   3.389   5.440  0.2350 -0.4378  0.5409
   91SAPC  H16Y 8789   6.816   3.275   5.449 -1.7280 -0.1473 -1.4459
   91SAPC  C317 8790   6.866   3.428   5.302 -0.3181 -0.3669 -0.3021
   91SAPC  H17X 8791   6.975   3.405   5.300  0.5873  3.2054 -0.0072
   91SAPC  H17Y 8792   6.869   3.537   5.282 -0.0719 -0.0077  1.5158
   91SAPC  C318 8793   6.796   3.361   5.184  0.2850  0.2902 -0.1293
   91SAPC  H18X 8794   6.687   3.381   5.183  0.1835 -0.2150 -1.8428
   91SAPC  H18Y 8795   6.806   3.250   5.178  1.4111  0.3961 -0.4159
   91SAPC  H18Z 8796   6.848   3.400   5.094  3.3399  1.4449  1.9632
   92SAPC     N 8797   2.863   4.478   7.869 -0.4710  0.3281  0.4897
   92SAPC   C12 8798   2.736   4.529   7.811 -0.0348 -0.3598  0.1847
   92SAPC  H12A 8799   2.718   4.483   7.715 -2.0078  1.3027 -0.3302
   92SAPC  H12B 8800   2.753   4.634   7.792  0.5616  0.1085  2.9001
   92SAPC   C13 8801   2.877   4.335   7.861 -0.1686  0.8581  0.2655
   92SAPC  H13A 8802   2.882   4.305   7.758 -1.0512 -0.1587  0.4967
   92SAPC  H13B 8803   2.974   4.305   7.897 -0.3950 -1.7431 -1.0848
   92SAPC  H13C 8804   2.794   4.280   7.904  1.0293 -0.8584  0.4804
   92SAPC   C14 8805   2.984   4.527   7.789 -0.1849  0.1880 -0.4224
   92SAPC  H14A 8806   2.979   4.634   7.773 -0.6687  0.3144  0.5639
   92SAPC  H14B 8807   3.078   4.494   7.831 -0.3221 -1.8732 -1.6050
   92SAPC  H14C 8808   2.985   4.477   7.693 -2.7392  0.0129 -0.4208
   92SAPC   C15 8809   2.883   4.518   8.018  0.9757  0.1414  0.4345
   92SAPC  H15A 8810   2.889   4.625   8.027  1.0867  0.3205 -1.3254
   92SAPC  H15B 8811   2.797   4.485   8.073 -0.7597 -1.7188 -3.0520
   92SAPC  H15C 8812   2.968   4.463   8.057 -0.8385 -1.7062  1.9783
   92SAPC   C11 8813   2.611   4.499   7.880 -0.1836  0.0556 -0.2313
   92SAPC  H11A 8814   2.530   4.559   7.834  0.3146 -0.3766 -1.7213
   92SAPC  H11B 8815   2.618   4.532   7.986  0.0352 -1.8811  0.4126
   92SAPC     P 8816   2.516   4.301   7.746  0.2919 -0.3965 -0.2215
   92SAPC   O13 8817   2.547   4.158   7.724 -0.6805  0.1683 -0.0657
   92SAPC   O14 8818   2.376   4.338   7.751  0.2404 -0.3709  0.2686
   92SAPC   O12 8819   2.583   4.359   7.880 -0.3665 -0.3643  0.3605
   92SAPC   O11 8820   2.580   4.378   7.626 -0.5827 -0.0741 -0.6611
   92SAPC    C1 8821   2.682   4.327   7.541 -0.0543  0.2196 -0.5957
   92SAPC    HA 8822   2.779   4.379   7.556  0.1293 -0.0665 -0.7754
   92SAPC    HB 8823   2.703   4.218   7.555 -0.6104  0.1243 -0.4833
   92SAPC    C2 8824   2.633   4.355   7.394 -0.1375  0.3448  0.2052
   92SAPC    HS 8825   2.555   4.434   7.396  0.3333  0.8326 -0.6919
   92SAPC   O21 8826   2.591   4.234   7.332  0.0887 -0.2732 -0.3811
   92SAPC   C21 8827   2.486   4.242   7.258  0.3207  0.3011 -0.4910
   92SAPC   O22 8828   2.409   4.336   7.248 -0.3440  0.5234  0.3725
   92SAPC   C22 8829   2.457   4.107   7.187  0.0550  0.7296 -0.2591
   92SAPC   H2R 8830   2.558   4.082   7.149 -0.8061  3.3559 -5.1703
   92SAPC   H2S 8831   2.423   4.037   7.265 -0.0454  1.1318  0.0606
   92SAPC    C3 8832   2.752   4.415   7.312  0.5894 -0.6178  0.7277
   92SAPC    HX 8833   2.842   4.359   7.347  1.6603  0.1383 -0.6682
   92SAPC    HY 8834   2.772   4.521   7.340  0.2819 -1.1074  2.9919
   92SAPC   O31 8835   2.731   4.389   7.172  0.4868  0.1105  0.6614
   92SAPC   C31 8836   2.717   4.495   7.084 -0.6375 -0.8063  0.1305
   92SAPC   O32 8837   2.734   4.612   7.122  0.4022  0.1231  0.1796
   92SAPC   C32 8838   2.667   4.440   6.955  0.2284  0.0659  0.0065
   92SAPC   H2X 8839   2.561   4.471   6.950  0.3694  1.2698  2.6920
   92SAPC   H2Y 8840   2.684   4.332   6.938  2.4562  0.5431 -1.2542
   92SAPC   C23 8841   2.354   4.115   7.079  0.3559 -0.5117  0.4131
   92SAPC   H3R 8842   2.374   4.212   7.028 -1.7733 -0.2686 -0.0561
   92SAPC   H3S 8843   2.252   4.124   7.121 -0.0903  0.7364 -0.8471
   92SAPC   C24 8844   2.360   4.003   6.975  0.3104 -0.6964  1.0153
   92SAPC   H4R 8845   2.338   3.904   7.019 -1.2634 -0.1693  1.5076
   92SAPC   H4S 8846   2.464   3.996   6.937 -0.7474  0.3274 -2.4694
   92SAPC   C25 8847   2.255   4.037   6.870 -0.6693  0.1243 -0.4549
   92SAPC   H5R 8848   2.150   4.016   6.895 -0.2947 -0.7982  0.3844
   92SAPC   C26 8849   2.282   4.092   6.751 -0.4419  0.2912 -0.4275
   92SAPC   H6R 8850   2.203   4.089   6.675  1.3500  1.9382 -2.4758
   92SAPC   C27 8851   2.416   4.131   6.704  0.2474 -0.3925  0.0166
   92SAPC   H7R 8852   2.486   4.153   6.787 -1.4182  2.3656  0.8070
   92SAPC   H7S 8853   2.418   4.227   6.646 -0.1542 -0.0256  0.6028
   92SAPC   C28 8854   2.482   4.018   6.620  0.1692 -0.2744 -0.3653
   92SAPC   H8R 8855   2.476   3.927   6.681  1.4547  0.0062  0.2064
   92SAPC   C29 8856   2.538   4.010   6.496  0.1971 -0.1128 -0.3563
   92SAPC   H9R 8857   2.578   3.912   6.463 -0.4899 -0.5469  0.0783
   92SAPC  C210 8858   2.573   4.128   6.407  0.1128 -0.2894  0.0461
   92SAPC  H10R 8859   2.681   4.112   6.387 -0.0049 -0.8130 -0.1728
   92SAPC  H10S 8860   2.569   4.222   6.467 -3.0802  0.1458 -0.6267
   92SAPC  C211 8861   2.499   4.142   6.277 -0.3934 -1.0315  0.5289
   92SAPC  H11R 8862   2.391   4.123   6.283 -0.4480 -1.4191 -1.1947
   92SAPC  C212 8863   2.545   4.158   6.148 -0.3120  0.1339 -0.8174
   92SAPC  H12R 8864   2.468   4.175   6.072 -2.3658  1.3153  1.4184
   92SAPC  C213 8865   2.687   4.163   6.098 -0.2070 -0.1266 -0.3815
   92SAPC  H13R 8866   2.761   4.187   6.177  0.1174 -3.3203  0.4151
   92SAPC  H13S 8867   2.678   4.250   6.030 -2.0411 -0.6673 -0.9008
   92SAPC  C214 8868   2.730   4.052   6.004 -0.6575  0.8368 -0.1340
   92SAPC  H14R 8869   2.749   4.082   5.900 -2.0331  1.2673 -0.2771
   92SAPC  C215 8870   2.753   3.923   6.035  0.2563  0.4701  0.3360
   92SAPC  H15R 8871   2.789   3.858   5.954 -1.0495  1.5550 -1.1869
   92SAPC  C216 8872   2.730   3.867   6.169  0.1754  0.4214  0.4656
   92SAPC  H16R 8873   2.623   3.851   6.193  0.1017 -1.4679 -0.8990
   92SAPC  H16S 8874   2.779   3.939   6.239 -1.7496  1.7526  0.4986
   92SAPC  C217 8875   2.787   3.724   6.186  0.4661  0.0361 -0.1679
   92SAPC  H17R 8876   2.893   3.726   6.153 -0.1503 -0.0899 -2.3075
   92SAPC  H17S 8877   2.734   3.652   6.121  0.0190 -0.8046  1.1014
   92SAPC  C218 8878   2.765   3.675   6.327 -0.3864  0.0090 -0.3980
   92SAPC  H18R 8879   2.773   3.564   6.330 -0.5009 -0.0163 -0.9457
   92SAPC  H18S 8880   2.660   3.694   6.358 -0.1584  0.5524  0.0514
   92SAPC  C219 8881   2.866   3.712   6.438 -0.3845  0.3665 -0.0444
   92SAPC  H19R 8882   2.968   3.716   6.393  0.0090 -0.5693  0.7214
   92SAPC  H19S 8883   2.868   3.621   6.502 -0.7915  1.5985  1.7876
   92SAPC  C220 8884   2.834   3.832   6.519 -0.1215 -0.5143 -0.2136
   92SAPC  H20R 8885   2.915   3.855   6.591 -0.8674 -2.9619  1.5152
   92SAPC  H20S 8886   2.740   3.809   6.574 -1.3105  1.5655 -1.2054
   92SAPC  H20T 8887   2.812   3.926   6.462  2.3459  1.4319  1.8190
   92SAPC   C33 8888   2.735   4.513   6.840 -0.1514  0.7446 -0.7989
   92SAPC   H3X 8889   2.842   4.484   6.849 -0.7249 -0.8654  2.1817
   92SAPC   H3Y 8890   2.727   4.623   6.853  0.1013  0.5570  1.4759
   92SAPC   C34 8891   2.693   4.462   6.700  0.0436  0.1480  0.6642
   92SAPC   H4X 8892   2.588   4.491   6.681 -0.6095 -1.8022  1.1777
   92SAPC   H4Y 8893   2.693   4.352   6.688  1.3972  0.3542 -1.8510
   92SAPC   C35 8894   2.780   4.517   6.590 -0.9901 -0.5370 -0.5188
   92SAPC   H5X 8895   2.888   4.508   6.614 -1.3350 -1.8890  0.6797
   92SAPC   H5Y 8896   2.757   4.625   6.594 -0.4065 -0.4405  0.5329
   92SAPC   C36 8897   2.748   4.473   6.453 -0.0752  0.2379  0.8115
   92SAPC   H6X 8898   2.640   4.487   6.428  0.0716 -2.4415 -1.9681
   92SAPC   H6Y 8899   2.767   4.372   6.411  0.4428  1.0315 -0.9644
   92SAPC   C37 8900   2.813   4.567   6.350 -0.4849  0.4461 -0.1051
   92SAPC   H7X 8901   2.919   4.560   6.383 -0.5476 -3.1694 -0.3710
   92SAPC   H7Y 8902   2.768   4.669   6.350 -0.7220  0.3426 -0.9125
   92SAPC   C38 8903   2.819   4.506   6.208  0.4493 -0.0222 -1.0371
   92SAPC   H8X 8904   2.723   4.477   6.161 -1.8184  2.6597  1.5410
   92SAPC   H8Y 8905   2.890   4.421   6.212 -0.3877 -0.7461 -1.4538
   92SAPC   C39 8906   2.890   4.611   6.122  0.1082  1.0771 -0.3187
   92SAPC   H9X 8907   2.986   4.635   6.171 -1.0592  2.0902  1.5882
   92SAPC   H9Y 8908   2.838   4.709   6.126  0.5228  1.2657  0.7262
   92SAPC  C310 8909   2.914   4.563   5.976 -0.3680  0.4411  1.1945
   92SAPC  H10X 8910   2.821   4.553   5.915 -1.2778  1.0518  2.4362
   92SAPC  H10Y 8911   2.951   4.458   5.981  1.4050  1.0687  1.6262
   92SAPC  C311 8912   3.021   4.647   5.902  0.4926 -0.0616  0.1756
   92SAPC  H11X 8913   3.107   4.663   5.972 -0.3500 -0.4952  1.3421
   92SAPC  H11Y 8914   2.978   4.743   5.866 -0.4788 -0.5813 -0.0650
   92SAPC  C312 8915   3.084   4.577   5.775  0.5025  0.2916 -0.0753
   92SAPC  H12X 8916   3.013   4.624   5.704 -0.9522  1.5863  2.0904
   92SAPC  H12Y 8917   3.081   4.466   5.767  0.2420  0.2512  0.5152
   92SAPC  C313 8918   3.226   4.626   5.741  0.2314 -0.1102  1.0242
   92SAPC  H13X 8919   3.286   4.567   5.814  1.6804 -0.5526 -0.4620
   92SAPC  H13Y 8920   3.240   4.736   5.751  0.5876 -0.1738  1.2355
   92SAPC  C314 8921   3.258   4.587   5.603 -0.2095 -0.4865 -0.0127
   92SAPC  H14X 8922   3.246   4.478   5.586 -1.4844 -0.1770 -1.3008
   92SAPC  H14Y 8923   3.366   4.609   5.596 -0.4107  0.8191  0.7319
   92SAPC  C315 8924   3.185   4.675   5.496  0.5420 -1.1261 -0.2712
   92SAPC  H15X 8925   3.259   4.685   5.414  0.0872 -1.1438 -0.6874
   92SAPC  H15Y 8926   3.155   4.777   5.528  2.0256 -0.5498 -0.6771
   92SAPC  C316 8927   3.054   4.618   5.441 -0.3136 -0.9072  0.1473
   92SAPC  H16X 8928   2.965   4.632   5.506 -0.6645  2.7090 -0.8801
   92SAPC  H16Y 8929   3.052   4.509   5.417  3.7557 -1.0555 -0.2311
   92SAPC  C317 8930   3.007   4.698   5.318 -0.6909  0.7881  0.0277
   92SAPC  H17X 8931   3.077   4.679   5.234 -0.8659  1.4297 -0.2615
   92SAPC  H17Y 8932   3.007   4.807   5.338 -1.2373  0.9815 -0.9970
   92SAPC  C318 8933   2.866   4.663   5.270 -0.0752 -0.3719 -0.3208
   92SAPC  H18X 8934   2.853   4.556   5.244  1.7382 -0.9822  1.1081
   92SAPC  H18Y 8935   2.848   4.706   5.169  0.2653  0.0503 -0.2029
   92SAPC  H18Z 8936   2.787   4.709   5.332 -0.2078 -0.3847 -0.4788
   93SAPC     N 8937   5.148   5.089   7.692 -0.0461 -0.3766  0.1063
   93SAPC   C12 8938   5.279   5.090   7.616 -0.0306 -0.2670  0.3967
   93SAPC  H12A 8939   5.364   5.052   7.671  0.1192  1.0059  1.0937
   93SAPC  H12B 8940   5.299   5.194   7.596 -2.6130  0.0359 -0.9901
   93SAPC   C13 8941   5.119   4.942   7.723  0.5365 -0.7653 -0.1856
   93SAPC  H13A 8942   5.101   4.891   7.629  1.6065  1.7244 -1.8469
   93SAPC  H13B 8943   5.203   4.898   7.773  1.0487 -0.0632 -0.4113
   93SAPC  H13C 8944   5.031   4.937   7.785  0.9272  0.1523  0.4510
   93SAPC   C14 8945   5.165   5.162   7.818  0.3838 -0.5809 -0.1582
   93SAPC  H14A 8946   5.188   5.267   7.803  1.7317 -1.1813 -2.8256
   93SAPC  H14B 8947   5.072   5.140   7.868  1.6602 -2.3598  1.6015
   93SAPC  H14C 8948   5.241   5.117   7.881 -0.9597 -2.4492  0.2092
   93SAPC   C15 8949   5.035   5.145   7.624 -0.2380 -0.1072 -0.0983
   93SAPC  H15A 8950   4.948   5.144   7.688  0.0780  2.2023  0.4686
   93SAPC  H15B 8951   5.054   5.242   7.579 -1.0108 -1.0179 -2.5471
   93SAPC  H15C 8952   5.017   5.092   7.532 -1.2372 -0.9219  0.5484
   93SAPC   C11 8953   5.279   5.013   7.475 -0.5355  0.3924  0.6244
   93SAPC  H11A 8954   5.251   4.908   7.499  0.2657 -0.3508 -1.4861
   93SAPC  H11B 8955   5.384   5.007   7.440 -0.2677 -1.4238  1.6408
   93SAPC     P 8956   5.223   5.207   7.322 -0.2771 -0.1851 -0.1635
   93SAPC   O13 8957   5.191   5.192   7.183 -0.0769  0.1925 -0.6238
   93SAPC   O14 8958   5.159   5.319   7.389 -0.1270 -0.5749 -0.3641
   93SAPC   O12 8959   5.185   5.071   7.395 -0.5649  0.1114  0.4400
   93SAPC   O11 8960   5.376   5.210   7.343 -0.3294 -0.1264 -0.3213
   93SAPC    C1 8961   5.452   5.331   7.342 -0.4613 -0.5335  0.9671
   93SAPC    HA 8962   5.412   5.397   7.422 -1.0986  0.2578  0.0205
   93SAPC    HB 8963   5.559   5.312   7.367 -0.4257  0.1975  1.4197
   93SAPC    C2 8964   5.441   5.405   7.207  0.3654 -0.6529 -0.0014
   93SAPC    HS 8965   5.343   5.456   7.215 -0.2707 -1.8378 -0.0216
   93SAPC   O21 8966   5.448   5.316   7.097 -0.1073 -0.5615 -0.1617
   93SAPC   C21 8967   5.368   5.355   6.990  0.5392  0.4128  0.9826
   93SAPC   O22 8968   5.295   5.452   6.988 -0.3574 -0.3839  0.1820
   93SAPC   C22 8969   5.389   5.260   6.872  0.9558 -0.0925 -0.2166
   93SAPC   H2R 8970   5.497   5.246   6.850  0.5546  1.8283 -4.2497
   93SAPC   H2S 8971   5.334   5.167   6.899  0.6907 -0.1554 -0.9733
   93SAPC    C3 8972   5.563   5.509   7.183  1.2932 -0.0253 -0.3815
   93SAPC    HX 8973   5.651   5.448   7.154  1.1163 -1.8457  2.4683
   93SAPC    HY 8974   5.590   5.550   7.283  1.6619 -1.3008  0.0703
   93SAPC   O31 8975   5.521   5.615   7.097  0.5749  0.2349  0.4845
   93SAPC   C31 8976   5.569   5.613   6.974  0.4226 -0.0367  0.4813
   93SAPC   O32 8977   5.661   5.541   6.936 -0.4448 -0.5521 -0.0779
   93SAPC   C32 8978   5.487   5.716   6.892 -0.0357  0.1772  0.6911
   93SAPC   H2X 8979   5.418   5.767   6.962  1.0324  2.8307 -0.0676
   93SAPC   H2Y 8980   5.428   5.661   6.816 -1.0437  1.9033  0.1713
   93SAPC   C23 8981   5.314   5.314   6.746 -0.5598  1.0661  0.4766
   93SAPC   H3R 8982   5.332   5.423   6.741 -0.7044  1.0452 -0.5700
   93SAPC   H3S 8983   5.206   5.302   6.771 -0.1385 -1.2603  1.5290
   93SAPC   C24 8984   5.352   5.237   6.619  1.6315  0.4949  0.8135
   93SAPC   H4R 8985   5.450   5.276   6.584  0.5350  0.6797 -2.3678
   93SAPC   H4S 8986   5.277   5.274   6.545  2.0376 -0.9572 -0.3745
   93SAPC   C25 8987   5.341   5.085   6.629 -0.3746  0.6678  0.2737
   93SAPC   H5R 8988   5.259   5.037   6.685  1.6976 -1.6317  1.5608
   93SAPC   C26 8989   5.425   4.994   6.570  0.1701  0.3032 -1.1568
   93SAPC   H6R 8990   5.414   4.891   6.605  2.6446  0.4313  0.2481
   93SAPC   C27 8991   5.555   5.020   6.501 -0.0235  0.1868 -0.4490
   93SAPC   H7R 8992   5.637   4.993   6.571 -0.2042 -0.2963 -0.4206
   93SAPC   H7S 8993   5.560   5.125   6.464 -1.0708 -0.4182 -2.4802
   93SAPC   C28 8994   5.563   4.920   6.390 -0.0093  0.2088 -0.6749
   93SAPC   H8R 8995   5.555   4.814   6.418  0.4744  0.6979  1.4134
   93SAPC   C29 8996   5.586   4.957   6.262  0.1578 -0.1203  0.4877
   93SAPC   H9R 8997   5.596   4.878   6.186  2.0025  0.3432  0.1880
   93SAPC  C210 8998   5.599   5.100   6.207  0.2650  0.2475 -1.1302
   93SAPC  H10R 8999   5.623   5.167   6.293 -0.6156  0.4308 -1.0185
   93SAPC  H10S 9000   5.495   5.121   6.174  0.2574  1.2834 -0.4803
   93SAPC  C211 9001   5.680   5.145   6.089 -0.0986 -1.2069 -0.5520
   93SAPC  H11R 9002   5.752   5.226   6.113  0.8734 -1.8627 -1.1948
   93SAPC  C212 9003   5.672   5.094   5.963 -0.7203  0.6150 -0.3495
   93SAPC  H12R 9004   5.738   5.136   5.886 -0.5375 -0.3759 -0.7468
   93SAPC  C213 9005   5.565   5.003   5.909  0.3167  0.1307 -0.5950
   93SAPC  H13R 9006   5.518   5.039   5.815  0.5263  0.0454 -0.7324
   93SAPC  H13S 9007   5.475   5.005   5.974 -0.1523 -0.1206 -1.2200
   93SAPC  C214 9008   5.611   4.863   5.883  0.3171  0.1125 -0.0042
   93SAPC  H14R 9009   5.715   4.842   5.914 -0.1334  0.3502  1.8290
   93SAPC  C215 9010   5.532   4.768   5.831 -0.0739 -0.4742  0.1652
   93SAPC  H15R 9011   5.576   4.667   5.827  0.7569 -0.1585  1.0771
   93SAPC  C216 9012   5.385   4.775   5.794  0.3524  0.6483 -0.2788
   93SAPC  H16R 9013   5.348   4.877   5.816  4.7625  2.6278 -1.1219
   93SAPC  H16S 9014   5.322   4.699   5.845 -0.5136 -0.2032 -2.5058
   93SAPC  C217 9015   5.363   4.741   5.641  0.0876  0.0624  0.0093
   93SAPC  H17R 9016   5.406   4.819   5.574  0.9682  0.1042  0.5991
   93SAPC  H17S 9017   5.252   4.741   5.636  0.0835 -1.3864 -0.0990
   93SAPC  C218 9018   5.409   4.596   5.604  0.1301  0.6213 -0.0180
   93SAPC  H18R 9019   5.355   4.531   5.677  0.1224  3.0685  2.3286
   93SAPC  H18S 9020   5.519   4.592   5.619 -0.0942 -0.9652  1.6902
   93SAPC  C219 9021   5.368   4.561   5.459 -0.5392 -0.2382 -0.3893
   93SAPC  H19R 9022   5.383   4.651   5.395 -0.4500  0.6771  0.8702
   93SAPC  H19S 9023   5.259   4.541   5.459 -0.2929 -1.9270  1.7681
   93SAPC  C220 9024   5.443   4.439   5.398 -0.8015 -0.0430  0.8885
   93SAPC  H20R 9025   5.553   4.450   5.397 -0.8533  0.9516 -1.6632
   93SAPC  H20S 9026   5.402   4.433   5.295  0.8560  0.1417  0.1870
   93SAPC  H20T 9027   5.421   4.343   5.448  0.2928  0.4315  2.3508
   93SAPC   C33 9028   5.576   5.827   6.830  0.3163  0.9079  0.2174
   93SAPC   H3X 9029   5.651   5.865   6.903  1.0885 -0.3816  0.1195
   93SAPC   H3Y 9030   5.509   5.914   6.809  1.7935  2.0566  0.0513
   93SAPC   C34 9031   5.658   5.784   6.705  0.2174 -0.4591  0.9189
   93SAPC   H4X 9032   5.599   5.775   6.611  2.8388  1.2669 -1.0069
   93SAPC   H4Y 9033   5.706   5.685   6.725  0.0998 -0.7046  0.0214
   93SAPC   C35 9034   5.775   5.884   6.675 -0.0453  0.4403  0.0396
   93SAPC   H5X 9035   5.829   5.898   6.772  0.2565 -0.7948  0.0665
   93SAPC   H5Y 9036   5.736   5.985   6.653  0.5543  1.0413  1.5623
   93SAPC   C36 9037   5.875   5.836   6.562 -0.9040 -0.5267 -0.3176
   93SAPC   H6X 9038   5.915   5.734   6.584 -0.6513 -0.6358 -1.2367
   93SAPC   H6Y 9039   5.955   5.912   6.556  0.0179 -1.5203 -1.0388
   93SAPC   C37 9040   5.812   5.847   6.424 -0.3956  0.4077  0.2572
   93SAPC   H7X 9041   5.763   5.946   6.415  0.3529  1.1519  3.2731
   93SAPC   H7Y 9042   5.725   5.778   6.415  1.3684 -2.1737  1.6509
   93SAPC   C38 9043   5.916   5.828   6.314  0.1307  0.0580  0.8195
   93SAPC   H8X 9044   5.869   5.785   6.222  1.6161  0.2203 -0.0445
   93SAPC   H8Y 9045   6.008   5.770   6.336  0.4248 -0.1658 -0.8493
   93SAPC   C39 9046   5.965   5.963   6.257  0.0861 -0.0653 -0.1767
   93SAPC   H9X 9047   6.014   6.028   6.333  0.7446  1.1437 -1.5889
   93SAPC   H9Y 9048   5.876   6.021   6.223  0.6783  0.8716 -0.1510
   93SAPC  C310 9049   6.075   5.941   6.145  0.4965 -0.1742 -0.0786
   93SAPC  H10X 9050   6.146   5.865   6.184  0.3127 -0.5125 -0.3932
   93SAPC  H10Y 9051   6.119   6.043   6.141  1.3163 -0.5555 -1.4296
   93SAPC  C311 9052   6.015   5.890   6.010  0.2770  0.2023 -0.8368
   93SAPC  H11X 9053   5.926   5.951   5.985 -1.4641 -1.6503  0.4792
   93SAPC  H11Y 9054   5.983   5.784   6.022  2.1505 -0.7667 -3.4919
   93SAPC  C312 9055   6.125   5.901   5.903 -0.0577  0.1083 -0.7606
   93SAPC  H12X 9056   6.194   5.815   5.914 -0.5647 -0.1344  0.7868
   93SAPC  H12Y 9057   6.181   5.997   5.913  2.0925 -1.0130 -1.4084
   93SAPC  C313 9058   6.059   5.895   5.771  0.1760 -0.4610  0.3072
   93SAPC  H13X 9059   5.985   5.975   5.752  2.0436  1.1794 -0.3806
   93SAPC  H13Y 9060   6.016   5.792   5.771  1.4756 -1.0285 -0.2273
   93SAPC  C314 9061   6.163   5.902   5.656  0.1492 -0.5487  0.3650
   93SAPC  H14X 9062   6.244   5.832   5.684  0.9077  0.8763  1.9154
   93SAPC  H14Y 9063   6.210   6.003   5.658  1.8536 -1.1633 -2.4450
   93SAPC  C315 9064   6.107   5.863   5.511  0.0523  0.1815 -0.1189
   93SAPC  H15X 9065   6.074   5.757   5.509 -1.0303  0.4447 -3.6475
   93SAPC  H15Y 9066   6.187   5.887   5.437 -1.4685  4.3640 -0.6664
   93SAPC  C316 9067   5.978   5.933   5.482  0.5826 -0.3173 -0.8123
   93SAPC  H16X 9068   5.994   6.042   5.470  0.5592 -0.3247 -0.9145
   93SAPC  H16Y 9069   5.898   5.915   5.557 -0.3162 -0.6029 -1.8227
   93SAPC  C317 9070   5.928   5.895   5.340  0.2334  0.0530  0.2885
   93SAPC  H17X 9071   5.916   5.785   5.342  0.7549 -0.1662 -2.9143
   93SAPC  H17Y 9072   6.001   5.915   5.258 -0.2052 -0.8087 -0.3314
   93SAPC  C318 9073   5.784   5.942   5.322 -0.2892  0.4972  0.6022
   93SAPC  H18X 9074   5.783   6.053   5.309  0.1803  0.2049 -3.0200
   93SAPC  H18Y 9075   5.732   5.910   5.415 -2.1192 -1.8997 -1.1220
   93SAPC  H18Z 9076   5.743   5.897   5.229  0.1192 -0.6470  0.9592
   94SAPC     N 9077   3.846   2.405   7.758 -0.1557  0.0762 -0.1890
   94SAPC   C12 9078   3.781   2.520   7.835  0.0188  0.5528 -0.1744
   94SAPC  H12A 9079   3.811   2.615   7.794  0.1496  1.0792  1.1076
   94SAPC  H12B 9080   3.816   2.534   7.936 -0.6590 -0.8036  0.2806
   94SAPC   C13 9081   3.795   2.278   7.813  0.2089  0.3495 -0.3169
   94SAPC  H13A 9082   3.835   2.249   7.909 -0.1891  2.9954  0.7508
   94SAPC  H13B 9083   3.692   2.281   7.845 -0.0443  2.2933 -1.1499
   94SAPC  H13C 9084   3.818   2.200   7.743  0.8746  0.4191 -0.1810
   94SAPC   C14 9085   3.826   2.416   7.613  0.3805 -0.1523 -0.0504
   94SAPC  H14A 9086   3.875   2.339   7.556  1.7939  0.2244  0.6280
   94SAPC  H14B 9087   3.721   2.412   7.588  0.0780 -3.1344  1.2808
   94SAPC  H14C 9088   3.866   2.509   7.575 -0.2360  0.0964 -0.1113
   94SAPC   C15 9089   3.986   2.415   7.782  0.4438  0.1117  0.2580
   94SAPC  H15A 9090   4.044   2.331   7.745  0.9848  0.5014  0.2168
   94SAPC  H15B 9091   4.037   2.486   7.719 -0.1478 -0.2806 -0.6871
   94SAPC  H15C 9092   4.005   2.423   7.888  0.5447 -1.6614  0.4150
   94SAPC   C11 9093   3.625   2.531   7.843  0.3411  0.0250  0.1221
   94SAPC  H11A 9094   3.603   2.622   7.903 -2.7894  0.3681 -1.3101
   94SAPC  H11B 9095   3.588   2.445   7.903  1.8018  1.6923  3.7233
   94SAPC     P 9096   3.532   2.656   7.640 -0.4524  0.0532 -0.6736
   94SAPC   O13 9097   3.424   2.727   7.705  0.4436  0.2088 -0.1833
   94SAPC   O14 9098   3.659   2.730   7.638  0.3520  0.6768  0.2160
   94SAPC   O12 9099   3.560   2.519   7.713  0.0461  0.8011 -0.2211
   94SAPC   O11 9100   3.486   2.618   7.495  0.1795  0.1650  0.3941
   94SAPC    C1 9101   3.495   2.719   7.388  0.2651 -0.0960 -0.0340
   94SAPC    HA 9102   3.575   2.795   7.399 -1.0341  1.3469 -0.2510
   94SAPC    HB 9103   3.515   2.676   7.287  3.1011 -1.6262  1.0535
   94SAPC    C2 9104   3.353   2.788   7.367  0.2828  0.3111  0.1067
   94SAPC    HS 9105   3.310   2.812   7.466  1.2811  1.5661  0.2522
   94SAPC   O21 9106   3.273   2.693   7.297 -0.0643  0.5331 -0.2828
   94SAPC   C21 9107   3.150   2.733   7.280 -0.4683 -0.4072  0.0593
   94SAPC   O22 9108   3.097   2.828   7.341 -0.2104  0.0869 -0.5325
   94SAPC   C22 9109   3.083   2.628   7.192 -0.3137  1.1753  0.3551
   94SAPC   H2R 9110   3.160   2.567   7.140 -1.0945  1.0336 -0.6610
   94SAPC   H2S 9111   3.022   2.565   7.261 -0.0351 -0.1948 -0.6009
   94SAPC    C3 9112   3.365   2.920   7.288 -0.4146 -0.0849 -0.2164
   94SAPC    HX 9113   3.445   2.976   7.342  0.7782  0.7093 -2.6599
   94SAPC    HY 9114   3.277   2.985   7.305 -0.2984 -0.5116  2.5196
   94SAPC   O31 9115   3.407   2.900   7.154 -0.0760 -0.3951  0.2370
   94SAPC   C31 9116   3.320   2.919   7.061 -0.5146  0.7807 -0.1871
   94SAPC   O32 9117   3.203   2.944   7.067 -0.2790  0.0259 -0.0886
   94SAPC   C32 9118   3.386   2.867   6.932  0.2589  0.0974  0.1711
   94SAPC   H2X 9119   3.390   2.758   6.952  0.6521 -0.0178 -0.5252
   94SAPC   H2Y 9120   3.485   2.915   6.918  0.5317  1.0831  4.1743
   94SAPC   C23 9121   2.985   2.706   7.092 -0.2366 -0.0117 -0.3845
   94SAPC   H3R 9122   3.056   2.754   7.022  0.8546  1.2668  1.5071
   94SAPC   H3S 9123   2.939   2.782   7.159 -1.2917 -0.3893 -0.6639
   94SAPC   C24 9124   2.881   2.610   7.024 -0.1716  0.1141 -1.1095
   94SAPC   H4R 9125   2.939   2.530   6.972  0.4580  0.2285 -0.6026
   94SAPC   H4S 9126   2.834   2.666   6.940 -2.0790 -0.5373 -0.5326
   94SAPC   C25 9127   2.778   2.541   7.112 -0.2738 -0.0700  0.1978
   94SAPC   H5R 9128   2.808   2.530   7.218  1.1525  1.0590 -0.0579
   94SAPC   C26 9129   2.654   2.522   7.077 -0.0614 -0.7065 -0.0285
   94SAPC   H6R 9130   2.578   2.471   7.137 -0.5540  1.0767  0.9469
   94SAPC   C27 9131   2.598   2.543   6.939  0.7845  0.4174  0.3043
   94SAPC   H7R 9132   2.623   2.645   6.901 -0.5099  1.1812  1.4345
   94SAPC   H7S 9133   2.489   2.539   6.958  0.9282 -1.4828  0.9673
   94SAPC   C28 9134   2.638   2.439   6.834  0.3096 -0.0204  0.1501
   94SAPC   H8R 9135   2.621   2.334   6.863  0.3858 -1.7937 -5.2411
   94SAPC   C29 9136   2.694   2.460   6.714 -1.0749 -0.4165 -0.4021
   94SAPC   H9R 9137   2.716   2.370   6.655 -0.3484  1.1885 -2.7325
   94SAPC  C210 9138   2.738   2.583   6.642  0.0472 -0.3547 -0.3087
   94SAPC  H10R 9139   2.703   2.669   6.703  0.6566  0.7898 -1.5242
   94SAPC  H10S 9140   2.688   2.586   6.543 -0.7126 -2.0035 -0.0156
   94SAPC  C211 9141   2.894   2.608   6.628 -0.1621  0.5556  0.4357
   94SAPC  H11R 9142   2.962   2.589   6.712  0.0587 -0.2055  0.0860
   94SAPC  C212 9143   2.955   2.649   6.517 -0.1646  0.4178 -0.6641
   94SAPC  H12R 9144   3.064   2.666   6.518 -0.0605 -0.2137 -0.6300
   94SAPC  C213 9145   2.891   2.678   6.384 -0.2078  0.9573 -0.2664
   94SAPC  H13R 9146   2.795   2.623   6.378  0.0400  0.4309  0.5005
   94SAPC  H13S 9147   2.955   2.650   6.297 -1.7952  1.5646 -1.6909
   94SAPC  C214 9148   2.868   2.826   6.372  0.6015  0.2845  0.1263
   94SAPC  H14R 9149   2.899   2.881   6.463  1.4901  0.9478 -0.5616
   94SAPC  C215 9150   2.831   2.902   6.266  0.8301 -0.0500  0.1492
   94SAPC  H15R 9151   2.829   3.011   6.283 -0.9158 -0.0661  0.2063
   94SAPC  C216 9152   2.786   2.844   6.136 -0.7368 -0.6680  0.0044
   94SAPC  H16R 9153   2.714   2.921   6.102 -1.4047 -1.6923 -0.9787
   94SAPC  H16S 9154   2.741   2.742   6.142 -1.7362 -0.2566 -0.3431
   94SAPC  C217 9155   2.894   2.851   6.023  1.3679  0.2163 -0.1959
   94SAPC  H17R 9156   2.861   2.795   5.933 -0.4591  1.2576 -0.2321
   94SAPC  H17S 9157   2.987   2.794   6.044  3.0700  2.8723 -0.1578
   94SAPC  C218 9158   2.932   2.990   5.967 -0.5482 -0.1191 -0.0490
   94SAPC  H18R 9159   3.015   3.017   6.036  1.1816 -2.9490 -0.8557
   94SAPC  H18S 9160   2.855   3.070   5.975  1.7959  2.2152  0.4819
   94SAPC  C219 9161   2.985   2.973   5.821  0.4060 -0.2214 -0.0162
   94SAPC  H19R 9162   2.899   2.934   5.762 -0.9877  2.4572  0.0774
   94SAPC  H19S 9163   3.059   2.891   5.808 -0.2754 -1.1523  1.7224
   94SAPC  C220 9164   3.038   3.103   5.750  0.2337  0.0330 -0.3529
   94SAPC  H20R 9165   2.970   3.191   5.757  2.0064  1.5569 -1.4374
   94SAPC  H20S 9166   3.046   3.084   5.641 -0.5247  0.9391 -0.5888
   94SAPC  H20T 9167   3.134   3.136   5.795  0.3323 -1.1334  0.3393
   94SAPC   C33 9168   3.297   2.880   6.814  0.1734 -0.3135  0.8721
   94SAPC   H3X 9169   3.256   2.983   6.812 -1.0552 -0.7769 -1.0202
   94SAPC   H3Y 9170   3.211   2.811   6.826 -2.4150  1.0983 -5.3765
   94SAPC   C34 9171   3.363   2.830   6.685 -0.3777  0.0946 -0.3006
   94SAPC   H4X 9172   3.348   2.721   6.671  0.7051 -0.0755 -0.1906
   94SAPC   H4Y 9173   3.467   2.867   6.678 -0.0418 -0.9828 -1.1212
   94SAPC   C35 9174   3.297   2.882   6.561  0.5032  0.2263 -0.1364
   94SAPC   H5X 9175   3.320   2.990   6.567  1.5137  0.1310 -1.6433
   94SAPC   H5Y 9176   3.193   2.846   6.579  0.9643 -0.7254  0.6678
   94SAPC   C36 9177   3.355   2.822   6.429 -0.3983 -0.3603 -0.4433
   94SAPC   H6X 9178   3.366   2.711   6.427 -0.2393 -0.3387 -0.9321
   94SAPC   H6Y 9179   3.459   2.860   6.426 -1.5905  3.2828 -1.3016
   94SAPC   C37 9180   3.282   2.868   6.298 -0.7289 -0.5063 -0.6769
   94SAPC   H7X 9181   3.232   2.966   6.309 -0.0690 -0.2347 -0.0938
   94SAPC   H7Y 9182   3.199   2.796   6.278 -3.1359  2.0170 -0.4036
   94SAPC   C38 9183   3.381   2.855   6.181 -0.1179  0.0752  1.1151
   94SAPC   H8X 9184   3.405   2.748   6.168  1.1057  0.5531 -0.9353
   94SAPC   H8Y 9185   3.472   2.913   6.206 -0.0167  0.0840  0.7387
   94SAPC   C39 9186   3.334   2.911   6.046 -0.5277  0.7417  0.3246
   94SAPC   H9X 9187   3.294   3.014   6.038 -0.4888  0.6150 -2.4229
   94SAPC   H9Y 9188   3.261   2.836   6.009  0.3247  0.3728 -0.6830
   94SAPC  C310 9189   3.444   2.905   5.932 -0.1076 -0.1060  0.3221
   94SAPC  H10X 9190   3.461   2.799   5.904  1.5052  0.4138 -0.7724
   94SAPC  H10Y 9191   3.544   2.941   5.963 -0.2447 -0.6619  1.4435
   94SAPC  C311 9192   3.403   2.985   5.809 -0.1971 -0.6248 -0.0292
   94SAPC  H11X 9193   3.395   3.085   5.857 -0.9298 -0.4939 -0.4167
   94SAPC  H11Y 9194   3.306   2.955   5.764 -0.0860  0.7595 -1.2428
   94SAPC  C312 9195   3.511   2.985   5.701 -0.0020 -0.1431 -0.3083
   94SAPC  H12X 9196   3.535   2.880   5.677  0.3457 -0.4364  1.2241
   94SAPC  H12Y 9197   3.603   3.033   5.739 -0.3056 -0.3443  0.7092
   94SAPC  C313 9198   3.464   3.066   5.580  0.4629  0.4109 -0.1352
   94SAPC  H13X 9199   3.503   3.170   5.584  0.0454  0.6012 -0.8689
   94SAPC  H13Y 9200   3.354   3.068   5.588  0.3536 -1.6844 -0.5850
   94SAPC  C314 9201   3.495   3.018   5.438  0.2799 -0.8131 -0.0398
   94SAPC  H14X 9202   3.451   2.919   5.413 -1.9756 -0.1258  0.9411
   94SAPC  H14Y 9203   3.604   3.010   5.418  0.3675  0.3082 -0.0632
   94SAPC  C315 9204   3.436   3.123   5.332 -0.0617 -0.1526  0.0793
   94SAPC  H15X 9205   3.477   3.223   5.359  0.3586 -0.6878  1.5606
   94SAPC  H15Y 9206   3.326   3.117   5.346 -0.6977  2.7729 -2.5876
   94SAPC  C316 9207   3.471   3.089   5.186  0.7051  0.6289  0.2995
   94SAPC  H16X 9208   3.432   3.177   5.130  0.0708  2.0236  2.7768
   94SAPC  H16Y 9209   3.419   2.998   5.150  1.1453  0.4438  0.1158
   94SAPC  C317 9210   3.618   3.067   5.156  0.1036 -0.0249 -0.1166
   94SAPC  H17X 9211   3.649   2.967   5.194 -1.2236 -0.2035  0.5691
   94SAPC  H17Y 9212   3.673   3.150   5.206  1.3184 -2.0795  2.2280
   94SAPC  C318 9213   3.662   3.071   5.009 -0.6336 -0.2114 -0.1002
   94SAPC  H18X 9214   3.609   2.995   4.948  1.8675 -0.9042 -1.5911
   94SAPC  H18Y 9215   3.771   3.054   4.991 -0.2818  0.2876  1.4508
   94SAPC  H18Z 9216   3.639   3.171   4.965  2.1010  0.9261  0.8202
   95SAPC     N 9217   1.305   5.452   2.911  0.1683 -0.0205 -0.2040
   95SAPC   C12 9218   1.191   5.442   3.020  0.0819  0.1022  0.2296
   95SAPC  H12A 9219   1.107   5.403   2.964 -0.0628 -0.0080  0.5223
   95SAPC  H12B 9220   1.169   5.546   3.037 -1.6998 -0.2527  0.2890
   95SAPC   C13 9221   1.269   5.569   2.822 -0.1451 -0.2320 -0.3448
   95SAPC  H13A 9222   1.185   5.546   2.758  0.6806 -0.2841 -1.4542
   95SAPC  H13B 9223   1.246   5.662   2.872  0.6120 -0.7099  0.9252
   95SAPC  H13C 9224   1.347   5.596   2.752 -1.2068  2.5260 -0.5742
   95SAPC   C14 9225   1.434   5.468   2.989  0.0935  0.1748  0.7260
   95SAPC  H14A 9226   1.442   5.564   3.037  0.1200  0.2728  0.5262
   95SAPC  H14B 9227   1.440   5.388   3.062 -2.7118  0.6948  1.6431
   95SAPC  H14C 9228   1.524   5.467   2.928 -0.8460 -1.9890 -0.7379
   95SAPC   C15 9229   1.313   5.322   2.836  0.2191 -0.2315 -0.4550
   95SAPC  H15A 9230   1.398   5.334   2.770  0.3348  1.0531 -0.0915
   95SAPC  H15B 9231   1.330   5.236   2.900 -1.1922 -0.0618  0.1825
   95SAPC  H15C 9232   1.228   5.304   2.772 -0.7205  1.0748  0.3882
   95SAPC   C11 9233   1.215   5.372   3.158 -0.2571 -0.3590  0.2479
   95SAPC  H11A 9234   1.120   5.394   3.211 -0.6140 -1.1176 -0.0698
   95SAPC  H11B 9235   1.300   5.424   3.208  0.1710 -1.1140  0.3086
   95SAPC     P 9236   1.107   5.152   3.091  0.1776 -0.1986 -0.3127
   95SAPC   O13 9237   0.989   5.238   3.060  0.1227 -0.9352 -0.2841
   95SAPC   O14 9238   1.148   5.052   2.987  0.3301  0.3342  0.0053
   95SAPC   O12 9239   1.234   5.235   3.131 -0.2786 -0.0039  0.1860
   95SAPC   O11 9240   1.071   5.076   3.223 -0.0866 -0.0440 -0.3592
   95SAPC    C1 9241   1.166   5.013   3.307  0.9807 -0.1711 -0.3264
   95SAPC    HA 9242   1.243   4.978   3.234  2.1078  1.9865 -0.2471
   95SAPC    HB 9243   1.203   5.084   3.383 -0.2110  1.2975 -1.0720
   95SAPC    C2 9244   1.092   4.889   3.358 -0.6762  0.2907 -0.3563
   95SAPC    HS 9245   1.054   4.829   3.273  1.1162 -0.4359 -0.7017
   95SAPC   O21 9246   0.997   4.928   3.459 -0.0509 -0.1351  0.2812
   95SAPC   C21 9247   0.891   4.847   3.458  0.5884  0.0905 -0.3550
   95SAPC   O22 9248   0.880   4.756   3.379  0.6251 -0.3808  0.4868
   95SAPC   C22 9249   0.797   4.863   3.580 -0.2521  0.1345  0.2732
   95SAPC   H2R 9250   0.803   4.964   3.625  2.1266  1.1152 -2.0122
   95SAPC   H2S 9251   0.694   4.848   3.542 -0.0524 -1.8363  0.3824
   95SAPC    C3 9252   1.204   4.795   3.430 -0.4129  0.3700  0.3333
   95SAPC    HX 9253   1.256   4.850   3.512 -0.5355 -1.6305  1.8451
   95SAPC    HY 9254   1.283   4.779   3.354 -0.5597  0.6359  0.1233
   95SAPC   O31 9255   1.149   4.667   3.491  0.7408 -0.4540 -0.0957
   95SAPC   C31 9256   1.145   4.573   3.408  0.8210  1.0323 -0.9465
   95SAPC   O32 9257   1.171   4.568   3.289 -0.1596 -0.3296 -0.1383
   95SAPC   C32 9258   1.077   4.448   3.481 -0.2175  0.3266 -0.0002
   95SAPC   H2X 9259   0.988   4.412   3.425  0.0846 -0.5460  0.0748
   95SAPC   H2Y 9260   1.047   4.476   3.584  1.0112 -0.2120  0.5226
   95SAPC   C23 9261   0.809   4.746   3.680  0.0682 -0.1869  0.7513
   95SAPC   H3R 9262   0.808   4.651   3.622 -0.2828  0.8883 -1.1041
   95SAPC   H3S 9263   0.719   4.735   3.744 -1.6576  0.1110 -1.5159
   95SAPC   C24 9264   0.940   4.756   3.763  0.2338 -0.3985  0.0454
   95SAPC   H4R 9265   0.924   4.847   3.825  0.2462 -0.5290  0.2403
   95SAPC   H4S 9266   1.027   4.774   3.697 -0.2487  3.6536  0.2978
   95SAPC   C25 9267   0.969   4.630   3.844  0.7767  0.1215  0.3732
   95SAPC   H5R 9268   0.949   4.541   3.782 -1.6508  1.6522 -1.1906
   95SAPC   C26 9269   1.009   4.608   3.971 -0.1240  0.2732 -0.3206
   95SAPC   H6R 9270   1.021   4.510   4.020  0.8196  1.6174  2.2914
   95SAPC   C27 9271   1.033   4.716   4.070 -0.0669  0.0533 -1.1330
   95SAPC   H7R 9272   1.099   4.795   4.027  0.0710  0.1321 -0.7831
   95SAPC   H7S 9273   1.101   4.679   4.150  0.1364  2.3659 -0.1709
   95SAPC   C28 9274   0.920   4.800   4.131 -0.9410  0.5714  0.2107
   95SAPC   H8R 9275   0.904   4.897   4.080  0.3483 -0.0697 -1.4987
   95SAPC   C29 9276   0.842   4.776   4.233  0.4785  0.7404 -0.5255
   95SAPC   H9R 9277   0.780   4.860   4.270  1.0461  1.4446 -1.1358
   95SAPC  C210 9278   0.852   4.653   4.323 -0.2499  0.8467 -0.4224
   95SAPC  H10R 9279   0.950   4.602   4.321 -0.6101  0.1633 -0.8399
   95SAPC  H10S 9280   0.780   4.573   4.299  2.1837 -1.4619 -0.4354
   95SAPC  C211 9281   0.840   4.689   4.468  1.0260 -0.7569 -0.5210
   95SAPC  H11R 9282   0.739   4.666   4.506  0.7996 -0.9194 -1.2060
   95SAPC  C212 9283   0.944   4.731   4.551  0.7709 -0.1847  0.3852
   95SAPC  H12R 9284   0.927   4.766   4.654  0.3519  0.0502  0.2428
   95SAPC  C213 9285   1.084   4.748   4.497  0.4435  0.2349  0.2234
   95SAPC  H13R 9286   1.097   4.745   4.387  1.8352  0.9472  0.3387
   95SAPC  H13S 9287   1.146   4.668   4.543  0.6502  1.6645  2.6325
   95SAPC  C214 9288   1.135   4.880   4.556 -0.2448 -0.4474 -0.3022
   95SAPC  H14R 9289   1.104   4.898   4.660  1.7578  0.2073  0.2424
   95SAPC  C215 9290   1.214   4.972   4.491  0.0589  0.8076 -0.2989
   95SAPC  H15R 9291   1.236   5.067   4.542  1.3918  1.4244 -1.9381
   95SAPC  C216 9292   1.271   4.959   4.355 -0.0184 -0.2687  0.1885
   95SAPC  H16R 9293   1.217   5.033   4.292 -3.2610 -1.4689  1.3292
   95SAPC  H16S 9294   1.253   4.858   4.313 -0.5072 -1.4449  2.9961
   95SAPC  C217 9295   1.421   4.989   4.345 -0.3994  0.3963  0.4408
   95SAPC  H17R 9296   1.448   4.966   4.239  0.6679  2.2105  0.2893
   95SAPC  H17S 9297   1.464   4.911   4.411  0.6793  0.0516 -0.6239
   95SAPC  C218 9298   1.470   5.126   4.366 -0.1662 -0.9588 -0.4698
   95SAPC  H18R 9299   1.425   5.168   4.458 -2.1815 -1.1052 -1.3532
   95SAPC  H18S 9300   1.437   5.204   4.295  1.0826  0.0512  0.0134
   95SAPC  C219 9301   1.624   5.137   4.374 -0.2416  0.1649  0.2643
   95SAPC  H19R 9302   1.674   5.085   4.290 -3.3230 -1.2064 -0.8969
   95SAPC  H19S 9303   1.647   5.079   4.466 -0.1632  0.6276  0.5386
   95SAPC  C220 9304   1.685   5.268   4.391 -0.0329 -0.4391  0.6164
   95SAPC  H20R 9305   1.620   5.339   4.447  0.8767  0.2986  0.7621
   95SAPC  H20S 9306   1.696   5.326   4.297  0.0911  0.1928  1.0193
   95SAPC  H20T 9307   1.781   5.265   4.447  1.4716  0.9675 -1.7154
   95SAPC   C33 9308   1.184   4.333   3.484 -0.0417  0.4248  0.5998
   95SAPC   H3X 9309   1.259   4.353   3.563 -0.6701 -0.7780  1.5346
   95SAPC   H3Y 9310   1.238   4.331   3.387 -0.7605  1.4169  0.1582
   95SAPC   C34 9311   1.137   4.192   3.509 -0.3015  0.7455  0.1457
   95SAPC   H4X 9312   1.092   4.146   3.419  0.7106 -0.7347  0.3630
   95SAPC   H4Y 9313   1.056   4.196   3.584 -0.8241  0.5815 -0.4003
   95SAPC   C35 9314   1.249   4.092   3.552 -0.0197 -0.2223  0.5861
   95SAPC   H5X 9315   1.340   4.099   3.490 -0.2872 -0.7563  0.1221
   95SAPC   H5Y 9316   1.212   3.987   3.546 -3.0151  0.8238 -3.2825
   95SAPC   C36 9317   1.300   4.119   3.693  0.1637  0.9446  0.3546
   95SAPC   H6X 9318   1.211   4.135   3.757  1.4518 -0.5527  2.6701
   95SAPC   H6Y 9319   1.360   4.212   3.695  1.0752  0.3712  0.4843
   95SAPC   C37 9320   1.391   3.999   3.746  0.0579 -0.0730 -0.3805
   95SAPC   H7X 9321   1.483   3.999   3.684  2.1514 -2.8541  2.3922
   95SAPC   H7Y 9322   1.350   3.896   3.733 -1.2481  0.3318  0.3675
   95SAPC   C38 9323   1.419   4.022   3.898  0.3265 -0.5120  0.4216
   95SAPC   H8X 9324   1.459   4.123   3.921 -0.3193 -0.4050  1.1136
   95SAPC   H8Y 9325   1.498   3.949   3.927  0.2146 -0.4582  0.8733
   95SAPC   C39 9326   1.288   4.005   3.982  0.7240 -0.1072 -0.5710
   95SAPC   H9X 9327   1.236   3.908   3.963  0.9739 -1.1992  3.3561
   95SAPC   H9Y 9328   1.215   4.085   3.962 -0.7935 -0.9180  1.3934
   95SAPC  C310 9329   1.333   4.000   4.135  0.0410 -0.2939 -0.3263
   95SAPC  H10X 9330   1.373   4.098   4.168  1.1928 -0.7284 -0.4087
   95SAPC  H10Y 9331   1.410   3.920   4.139 -1.4080 -1.7145  0.5775
   95SAPC  C311 9332   1.222   3.972   4.233  0.7228  0.5949  1.1972
   95SAPC  H11X 9333   1.203   3.866   4.207  1.9514  0.8125 -0.8102
   95SAPC  H11Y 9334   1.130   4.029   4.207  0.2059  0.1010  1.9243
   95SAPC  C312 9335   1.238   3.991   4.379 -1.0171  0.5487  0.0809
   95SAPC  H12X 9336   1.187   4.086   4.402 -3.2429 -1.0773  2.3526
   95SAPC  H12Y 9337   1.346   3.991   4.405 -1.1966 -0.0723  0.8725
   95SAPC  C313 9338   1.170   3.878   4.459 -0.0558 -0.2373 -0.2500
   95SAPC  H13X 9339   1.216   3.780   4.437 -1.7208 -0.7020 -1.9752
   95SAPC  H13Y 9340   1.069   3.869   4.413 -0.5874  0.5634  0.7273
   95SAPC  C314 9341   1.157   3.892   4.611  0.4493 -0.2597 -0.0160
   95SAPC  H14X 9342   1.249   3.941   4.648 -0.3592  0.4532  1.1438
   95SAPC  H14Y 9343   1.152   3.791   4.657 -0.1443 -1.3673 -2.3382
   95SAPC  C315 9344   1.038   3.974   4.674  0.4086 -0.1725  1.0544
   95SAPC  H15X 9345   1.006   3.934   4.773 -1.2337  1.6330  1.3332
   95SAPC  H15Y 9346   0.946   3.985   4.611  1.8653  2.9813 -0.7830
   95SAPC  C316 9347   1.081   4.127   4.686 -0.1249  0.4051  1.1161
   95SAPC  H16X 9348   1.096   4.160   4.581  0.5260 -2.4030  0.2458
   95SAPC  H16Y 9349   1.177   4.131   4.740  1.0741 -0.5053 -0.8326
   95SAPC  C317 9350   0.978   4.224   4.741 -0.2845  0.1317  0.2124
   95SAPC  H17X 9351   0.970   4.197   4.849 -0.7791  1.6444  0.5797
   95SAPC  H17Y 9352   0.884   4.203   4.685  1.1526 -1.1736 -1.8692
   95SAPC  C318 9353   1.015   4.370   4.723  0.2034 -0.2270  0.7486
   95SAPC  H18X 9354   0.930   4.429   4.763  1.5614  1.6805  0.9533
   95SAPC  H18Y 9355   1.047   4.397   4.620 -0.1599 -0.7934  0.4805
   95SAPC  H18Z 9356   1.099   4.386   4.793  0.2110  4.1273  0.0113
   96SAPC     N 9357   6.830   0.791   2.757  0.4027 -0.2456  0.5205
   96SAPC   C12 9358   6.745   0.904   2.814 -0.4894 -0.3970 -0.0044
   96SAPC  H12A 9359   6.806   0.992   2.809  1.4153 -1.5235  1.8726
   96SAPC  H12B 9360   6.744   0.899   2.922  2.5267 -1.1029  0.0754
   96SAPC   C13 9361   6.883   0.830   2.623 -0.0021 -0.6905  0.2501
   96SAPC  H13A 9362   6.959   0.906   2.635  0.1953 -0.7832 -0.3911
   96SAPC  H13B 9363   6.909   0.742   2.566  2.1049  2.5855 -4.5579
   96SAPC  H13C 9364   6.802   0.871   2.563  0.0625  1.0287  1.2722
   96SAPC   C14 9365   6.943   0.766   2.848  0.1666 -0.2728 -0.1187
   96SAPC  H14A 9366   6.998   0.682   2.808  2.1640  0.2164  1.4431
   96SAPC  H14B 9367   7.011   0.850   2.861 -3.1064  2.4994  0.4159
   96SAPC  H14C 9368   6.908   0.751   2.949 -0.0219  2.3190  0.2796
   96SAPC   C15 9369   6.747   0.660   2.749  0.6488  0.4895 -0.4654
   96SAPC  H15A 9370   6.738   0.628   2.851 -0.0871  2.4632  0.1444
   96SAPC  H15B 9371   6.649   0.686   2.712 -0.5235 -1.1717  1.3098
   96SAPC  H15C 9372   6.799   0.590   2.686  0.7213 -1.0680  1.2477
   96SAPC   C11 9373   6.602   0.925   2.765  0.6287 -0.2589  0.4346
   96SAPC  H11A 9374   6.582   0.861   2.676 -0.3840  0.8808 -0.1927
   96SAPC  H11B 9375   6.580   1.026   2.724 -0.8283 -0.6797  0.0995
   96SAPC     P 9376   6.498   0.952   3.009 -0.2461  0.0370 -0.2915
   96SAPC   O13 9377   6.506   1.097   2.991  0.3580 -0.2057 -0.2074
   96SAPC   O14 9378   6.382   0.891   3.079 -0.0395 -0.0750 -0.1909
   96SAPC   O12 9379   6.504   0.893   2.865 -0.1125  0.0354  0.0059
   96SAPC   O11 9380   6.631   0.901   3.078  0.2866 -0.0260 -0.3298
   96SAPC    C1 9381   6.639   0.772   3.141  0.0400 -0.1032 -0.1499
   96SAPC    HA 9382   6.578   0.697   3.087  0.5822 -0.4531 -0.2825
   96SAPC    HB 9383   6.744   0.733   3.139 -0.0170 -0.2404 -1.9439
   96SAPC    C2 9384   6.605   0.779   3.295 -0.0387  1.0338  0.0526
   96SAPC    HS 9385   6.500   0.813   3.286 -1.4448 -3.2109 -2.9653
   96SAPC   O21 9386   6.698   0.874   3.355 -0.2801 -0.2355  0.5200
   96SAPC   C21 9387   6.649   0.945   3.458  0.5064  0.2888 -0.1622
   96SAPC   O22 9388   6.537   0.939   3.506  0.1833 -0.1220  0.7520
   96SAPC   C22 9389   6.753   1.030   3.512  0.0199  0.8832 -0.2985
   96SAPC   H2R 9390   6.840   0.963   3.530  1.3985  2.1257 -2.0235
   96SAPC   H2S 9391   6.780   1.102   3.433 -0.8026  2.5990  0.9138
   96SAPC    C3 9392   6.606   0.634   3.359 -0.3153  0.0810  0.4251
   96SAPC    HX 9393   6.699   0.582   3.326 -0.6280 -0.8573  0.9912
   96SAPC    HY 9394   6.519   0.585   3.311  1.0485 -2.4673  0.3493
   96SAPC   O31 9395   6.583   0.640   3.504 -0.1982 -0.1946 -0.0706
   96SAPC   C31 9396   6.620   0.529   3.570 -0.6254  0.1466  0.2420
   96SAPC   O32 9397   6.670   0.432   3.519 -0.1365  0.1830 -0.0925
   96SAPC   C32 9398   6.602   0.553   3.719 -0.7732  0.0236 -0.5879
   96SAPC   H2X 9399   6.499   0.589   3.741 -0.5313  1.6306 -1.8657
   96SAPC   H2Y 9400   6.667   0.637   3.749  1.1269 -1.3450 -0.6823
   96SAPC   C23 9401   6.716   1.105   3.644  0.5557 -0.3756  0.1910
   96SAPC   H3R 9402   6.665   1.034   3.713 -0.7469  0.2333 -0.1143
   96SAPC   H3S 9403   6.647   1.191   3.627  0.8532  0.3201  2.1819
   96SAPC   C24 9404   6.834   1.163   3.726 -0.5671  0.7645 -0.3715
   96SAPC   H4R 9405   6.906   1.219   3.663 -0.6160  0.3864 -0.7709
   96SAPC   H4S 9406   6.904   1.085   3.762  2.2359  3.1391 -0.3435
   96SAPC   C25 9407   6.802   1.238   3.855 -0.1313  0.3863 -0.3684
   96SAPC   H5R 9408   6.770   1.342   3.839  1.3094  0.9212  0.1133
   96SAPC   C26 9409   6.793   1.181   3.981 -0.4596  0.5720  0.6132
   96SAPC   H6R 9410   6.780   1.251   4.065  0.7351 -1.7522  2.9033
   96SAPC   C27 9411   6.804   1.033   4.020  0.5263  0.1836 -0.1110
   96SAPC   H7R 9412   6.875   1.013   4.103  1.1368 -2.0062 -1.1099
   96SAPC   H7S 9413   6.850   0.979   3.935  0.0044 -2.5485  1.2162
   96SAPC   C28 9414   6.671   0.971   4.064 -0.3932 -0.0834 -0.3672
   96SAPC   H8R 9415   6.619   0.900   3.999 -1.6567 -2.4987  2.9867
   96SAPC   C29 9416   6.611   0.988   4.185 -1.1557  0.0385  0.3868
   96SAPC   H9R 9417   6.510   0.946   4.197 -0.8207 -1.1320 -0.6685
   96SAPC  C210 9418   6.664   1.067   4.293 -0.5082 -0.3079 -0.5103
   96SAPC  H10R 9419   6.575   1.107   4.346 -1.5293  0.4603 -2.7124
   96SAPC  H10S 9420   6.730   1.150   4.264  1.5049 -1.1399  1.3996
   96SAPC  C211 9421   6.741   0.961   4.372  0.4495 -0.4576 -0.3391
   96SAPC  H11R 9422   6.797   0.889   4.312 -0.0067 -2.2417  1.2710
   96SAPC  C212 9423   6.768   0.956   4.502  0.2041 -0.1495  0.4006
   96SAPC  H12R 9424   6.804   0.860   4.542 -0.3514  0.6149  2.9211
   96SAPC  C213 9425   6.709   1.057   4.602 -0.4090  0.4890 -0.4059
   96SAPC  H13R 9426   6.601   1.071   4.579  0.1713  1.5402 -2.7889
   96SAPC  H13S 9427   6.748   1.160   4.588 -1.1621  0.9406  0.6635
   96SAPC  C214 9428   6.744   1.017   4.743 -0.1368  0.0169  0.2731
   96SAPC  H14R 9429   6.835   0.958   4.763 -1.4910 -1.6339  1.9471
   96SAPC  C215 9430   6.644   1.011   4.838 -0.4584 -0.4144 -0.0505
   96SAPC  H15R 9431   6.665   0.992   4.944  0.0703  0.5153  0.0240
   96SAPC  C216 9432   6.498   1.057   4.828 -0.1646  0.8305  0.6823
   96SAPC  H16R 9433   6.478   1.120   4.739  2.4842 -0.2972 -0.8444
   96SAPC  H16S 9434   6.472   1.120   4.915 -1.7532 -1.4865  1.9904
   96SAPC  C217 9435   6.401   0.938   4.821 -0.0528  0.6509  1.5799
   96SAPC  H17R 9436   6.403   0.881   4.917  0.0972 -2.8766 -0.3447
   96SAPC  H17S 9437   6.432   0.866   4.743 -2.8529 -0.3812  1.2893
   96SAPC  C218 9438   6.259   0.991   4.802  0.2848  0.2362 -0.0382
   96SAPC  H18R 9439   6.253   1.029   4.697 -0.1989 -0.0649 -0.1237
   96SAPC  H18S 9440   6.240   1.080   4.866  1.4810 -0.1745  0.9284
   96SAPC  C219 9441   6.142   0.897   4.806  0.5293 -0.0559  0.0406
   96SAPC  H19R 9442   6.119   0.881   4.914 -1.9872 -3.6302 -0.8311
   96SAPC  H19S 9443   6.153   0.802   4.750 -0.4571 -0.3385  0.2913
   96SAPC  C220 9444   6.005   0.960   4.767 -0.1493  0.8583  0.1200
   96SAPC  H20R 9445   5.915   0.903   4.801 -2.4728  2.3098 -3.0242
   96SAPC  H20S 9446   5.994   0.969   4.657  1.7314  1.0282 -0.0782
   96SAPC  H20T 9447   6.001   1.062   4.811 -0.5505  0.4276  1.1080
   96SAPC   C33 9448   6.638   0.427   3.818  0.4045 -0.3780  0.3932
   96SAPC   H3X 9449   6.646   0.456   3.925 -0.5881 -2.0187  0.9437
   96SAPC   H3Y 9450   6.740   0.397   3.785  1.1114  2.6129 -0.4466
   96SAPC   C34 9451   6.544   0.306   3.808 -0.9518  0.2228  0.4949
   96SAPC   H4X 9452   6.545   0.277   3.701  2.3891  1.4090  0.0926
   96SAPC   H4Y 9453   6.440   0.337   3.829 -0.7648  0.3198  1.3112
   96SAPC   C35 9454   6.591   0.186   3.878  0.2209  0.4313 -0.3893
   96SAPC   H5X 9455   6.693   0.159   3.845  0.6991  2.1004 -0.3817
   96SAPC   H5Y 9456   6.527   0.096   3.865  0.9306 -0.5255  2.0833
   96SAPC   C36 9457   6.615   0.222   4.028 -0.4072 -0.0071 -0.1928
   96SAPC   H6X 9458   6.513   0.228   4.070  0.3790 -0.3756  1.8940
   96SAPC   H6Y 9459   6.667   0.318   4.048 -1.2695 -0.1324  3.2326
   96SAPC   C37 9460   6.686   0.108   4.108  0.8818 -0.4157 -0.1094
   96SAPC   H7X 9461   6.793   0.117   4.079  0.7201  0.5743 -0.4189
   96SAPC   H7Y 9462   6.641   0.010   4.082 -0.3474  0.2932 -0.7581
   96SAPC   C38 9463   6.668   0.130   4.258 -0.7060  0.2139 -0.4110
   96SAPC   H8X 9464   6.561   0.138   4.285  0.1111  1.5119  2.8792
   96SAPC   H8Y 9465   6.711   0.230   4.284 -2.0706  0.3153  1.6888
   96SAPC   C39 9466   6.747   0.026   4.345  0.2384  0.7448  0.3989
   96SAPC   H9X 9467   6.704  -0.075   4.332  1.3620  0.3924 -0.7776
   96SAPC   H9Y 9468   6.727   0.063   4.448  1.9488  0.9077  0.6973
   96SAPC  C310 9469   6.890   0.029   4.303  0.1958 -0.6375 -0.2143
   96SAPC  H10X 9470   6.923   0.134   4.291 -0.7061 -0.3012  0.1948
   96SAPC  H10Y 9471   6.909  -0.016   4.203  2.3517 -0.1604 -0.0757
   96SAPC  C311 9472   6.989  -0.033   4.393  0.0704 -0.1087  0.5063
   96SAPC  H11X 9473   7.092  -0.027   4.350  0.0417 -2.6503 -0.0780
   96SAPC  H11Y 9474   6.976  -0.142   4.382  1.3290 -0.2827  0.5599
   96SAPC  C312 9475   6.983   0.015   4.537  0.9704  0.0577 -0.1378
   96SAPC  H12X 9476   6.892  -0.031   4.582  2.0176 -1.5787  0.3953
   96SAPC  H12Y 9477   6.965   0.124   4.538  1.3430  0.1815  2.7811
   96SAPC  C313 9478   7.108  -0.018   4.626  0.5930 -0.7923  0.4031
   96SAPC  H13X 9479   7.081   0.014   4.729  1.1635  0.2518  0.2449
   96SAPC  H13Y 9480   7.193   0.043   4.588 -1.4469  1.0992 -1.4148
   96SAPC  C314 9481   7.154  -0.161   4.634 -0.1049 -0.1462 -0.2667
   96SAPC  H14X 9482   7.180  -0.194   4.531  2.7902  2.0991 -0.3906
   96SAPC  H14Y 9483   7.072  -0.227   4.669 -0.8140  0.4466 -0.7695
   96SAPC  C315 9484   7.283  -0.193   4.717  0.8968 -0.6069  0.2594
   96SAPC  H15X 9485   7.377  -0.139   4.690 -0.6123  1.8007 -0.4869
   96SAPC  H15Y 9486   7.297  -0.301   4.695 -2.2727 -0.8160 -1.2047
   96SAPC  C316 9487   7.249  -0.187   4.873 -0.4407 -0.0717  0.1473
   96SAPC  H16X 9488   7.288  -0.274   4.930  1.6401  0.8372  0.1869
   96SAPC  H16Y 9489   7.140  -0.187   4.896 -0.3233 -0.8049  0.7591
   96SAPC  C317 9490   7.315  -0.063   4.935  0.1637  0.2686 -0.5858
   96SAPC  H17X 9491   7.275   0.024   4.879  2.3404  1.9241  0.3119
   96SAPC  H17Y 9492   7.421  -0.056   4.904  0.8305 -0.7720  1.2735
   96SAPC  C318 9493   7.301  -0.040   5.090  0.4891 -0.0207  0.3843
   96SAPC  H18X 9494   7.265   0.063   5.112 -0.3131  0.1382 -1.4674
   96SAPC  H18Y 9495   7.400  -0.043   5.141  0.9067  5.2406  0.4899
   96SAPC  H18Z 9496   7.235  -0.117   5.135  0.8951 -0.8066 -0.3540
   97SAPC     N 9497   0.705   4.990   2.683  0.0971  0.2103 -0.0923
   97SAPC   C12 9498   0.703   4.999   2.837 -0.6226 -0.1218 -0.1920
   97SAPC  H12A 9499   0.797   5.023   2.884 -0.6099  0.8716 -0.7258
   97SAPC  H12B 9500   0.685   4.899   2.875 -0.9173  0.6341  1.8227
   97SAPC   C13 9501   0.707   5.127   2.618 -0.2991  0.4905 -0.4967
   97SAPC  H13A 9502   0.800   5.179   2.636  0.4791 -1.4914  1.8291
   97SAPC  H13B 9503   0.705   5.113   2.511 -3.0891  2.7682 -0.8571
   97SAPC  H13C 9504   0.620   5.184   2.645 -1.3508 -1.6033  0.8332
   97SAPC   C14 9505   0.831   4.935   2.637 -0.1244  0.3085 -0.6711
   97SAPC  H14A 9506   0.850   4.840   2.684  0.5116  0.2190 -1.1010
   97SAPC  H14B 9507   0.842   4.928   2.530 -0.8358 -2.5307 -0.6220
   97SAPC  H14C 9508   0.914   4.999   2.665  1.2197 -0.7216 -2.1253
   97SAPC   C15 9509   0.591   4.913   2.631  0.2899  0.3294  0.1624
   97SAPC  H15A 9510   0.574   4.826   2.693 -0.9965 -0.4095 -1.1699
   97SAPC  H15B 9511   0.504   4.974   2.615 -0.0793 -0.4504 -0.9262
   97SAPC  H15C 9512   0.610   4.873   2.533  0.1819 -1.6161  0.8819
   97SAPC   C11 9513   0.593   5.087   2.898  0.2479  0.1794 -0.3063
   97SAPC  H11A 9514   0.593   5.187   2.849 -0.2233 -0.4200 -1.5661
   97SAPC  H11B 9515   0.600   5.101   3.008 -3.2550 -0.1257  0.0630
   97SAPC     P 9516   0.391   4.932   2.976  0.0949  0.0733  0.4703
   97SAPC   O13 9517   0.252   4.921   2.931  0.3058  0.5018  0.0247
   97SAPC   O14 9518   0.460   4.796   2.998  0.7182  0.0348  0.0520
   97SAPC   O12 9519   0.467   5.023   2.868 -0.3375 -0.0392 -0.1593
   97SAPC   O11 9520   0.402   5.011   3.114 -0.4401 -0.2904  0.3922
   97SAPC    C1 9521   0.365   5.148   3.140  0.4876  0.7470 -0.1132
   97SAPC    HA 9522   0.458   5.208   3.148  1.6194 -1.2146  4.5500
   97SAPC    HB 9523   0.311   5.185   3.050 -0.8165 -1.3728 -0.2577
   97SAPC    C2 9524   0.285   5.174   3.271 -0.2800  0.0191 -0.0107
   97SAPC    HS 9525   0.239   5.274   3.258 -3.0528 -1.1793  0.0098
   97SAPC   O21 9526   0.382   5.153   3.377 -0.2345 -0.3090 -0.3749
   97SAPC   C21 9527   0.431   5.262   3.436  0.2841  0.5276  0.3083
   97SAPC   O22 9528   0.400   5.376   3.414  0.7477  0.6168  0.1650
   97SAPC   C22 9529   0.534   5.218   3.540 -0.7884  0.3953  1.2859
   97SAPC   H2R 9530   0.555   5.109   3.534  0.9721  0.7703 -1.4223
   97SAPC   H2S 9531   0.636   5.258   3.520  0.2519 -1.5237  2.3832
   97SAPC    C3 9532   0.162   5.082   3.291 -1.0719  0.0450 -0.2820
   97SAPC    HX 9533   0.208   4.985   3.263  0.2795  1.0783 -1.8340
   97SAPC    HY 9534   0.085   5.108   3.215  0.5247  1.1237 -1.5877
   97SAPC   O31 9535   0.104   5.077   3.424  0.1531 -0.3557 -0.0158
   97SAPC   C31 9536   0.012   4.989   3.436  0.1438 -0.0592  0.7735
   97SAPC   O32 9537  -0.029   4.921   3.342  0.0215 -0.2497 -0.0070
   97SAPC   C32 9538  -0.036   4.979   3.588 -0.8897  0.3252  0.8759
   97SAPC   H2X 9539  -0.131   5.036   3.589 -1.0979 -0.0333  1.3459
   97SAPC   H2Y 9540   0.045   5.017   3.653 -0.0193  0.6240 -0.3372
   97SAPC   C23 9541   0.493   5.260   3.684  0.4047 -0.6120  0.1838
   97SAPC   H3R 9542   0.482   5.370   3.694  1.1971 -0.7063  2.4663
   97SAPC   H3S 9543   0.580   5.236   3.748  1.2490  1.9128  0.0643
   97SAPC   C24 9544   0.374   5.185   3.747  0.4761  0.3882 -0.1726
   97SAPC   H4R 9545   0.287   5.187   3.678 -0.9553 -1.6052  1.4339
   97SAPC   H4S 9546   0.332   5.231   3.840 -0.4006 -1.3504  0.3263
   97SAPC   C25 9547   0.393   5.047   3.789  0.0649  0.3465  0.2144
   97SAPC   H5R 9548   0.370   4.974   3.710 -0.9002  1.0248 -0.1587
   97SAPC   C26 9549   0.428   5.004   3.911  0.4244 -0.2984 -0.7627
   97SAPC   H6R 9550   0.428   4.898   3.941  1.3233  0.0242  0.4744
   97SAPC   C27 9551   0.455   5.098   4.027 -0.3807  0.1599 -0.1940
   97SAPC   H7R 9552   0.522   5.181   3.996  0.2923 -0.4989 -0.5434
   97SAPC   H7S 9553   0.518   5.037   4.096 -0.1190 -0.1933 -0.7371
   97SAPC   C28 9554   0.333   5.151   4.097  0.5279 -0.7984 -0.6484
   97SAPC   H8R 9555   0.275   5.211   4.026  1.1251 -1.1957 -1.5047
   97SAPC   C29 9556   0.295   5.128   4.223  0.1497  0.3213  0.3024
   97SAPC   H9R 9557   0.216   5.191   4.266  0.0019  1.0819 -1.0222
   97SAPC  C210 9558   0.381   5.050   4.320 -0.2176  0.5270 -0.0513
   97SAPC  H10R 9559   0.414   4.953   4.278 -2.0565  0.0808 -0.5607
   97SAPC  H10S 9560   0.314   5.033   4.407 -0.3468  2.1641  0.2035
   97SAPC  C211 9561   0.502   5.134   4.358  0.3515  0.2556 -0.1254
   97SAPC  H11R 9562   0.524   5.225   4.301 -0.5638  1.1979  0.9628
   97SAPC  C212 9563   0.589   5.082   4.440 -0.7826  0.0078 -0.4539
   97SAPC  H12R 9564   0.668   5.148   4.481  2.2589 -1.8411 -2.9029
   97SAPC  C213 9565   0.586   4.952   4.508  0.2969 -0.1821  0.8038
   97SAPC  H13R 9566   0.690   4.930   4.541 -0.0686 -1.5611  1.0669
   97SAPC  H13S 9567   0.543   4.876   4.440  2.7214  0.1742 -1.3250
   97SAPC  C214 9568   0.493   4.976   4.624  0.3418  0.1456 -0.1942
   97SAPC  H14R 9569   0.415   5.052   4.606  1.9734  1.8871 -0.1680
   97SAPC  C215 9570   0.491   4.899   4.731  0.0035  0.1733 -0.0859
   97SAPC  H15R 9571   0.421   4.918   4.814 -3.0172 -1.4119 -2.0762
   97SAPC  C216 9572   0.583   4.778   4.750  0.5951 -0.1351  0.4742
   97SAPC  H16R 9573   0.688   4.797   4.779  0.1402  1.6363  1.0324
   97SAPC  H16S 9574   0.584   4.712   4.660 -0.7505  0.0682  0.2869
   97SAPC  C217 9575   0.521   4.683   4.853 -0.5310 -0.3732  0.4433
   97SAPC  H17R 9576   0.415   4.653   4.837 -1.6033  2.5365  1.5001
   97SAPC  H17S 9577   0.524   4.721   4.957  1.3557 -0.1422  0.3341
   97SAPC  C218 9578   0.609   4.561   4.846 -0.0258 -0.3679  0.0408
   97SAPC  H18R 9579   0.713   4.585   4.877  0.7548 -2.7972 -0.4888
   97SAPC  H18S 9580   0.604   4.518   4.744 -1.6347  1.7004 -0.8421
   97SAPC  C219 9581   0.555   4.453   4.942 -0.4257  0.6997 -0.2040
   97SAPC  H19R 9582   0.457   4.416   4.905 -1.7675  0.9274  2.8105
   97SAPC  H19S 9583   0.534   4.490   5.045  1.0202 -0.5881  0.5955
   97SAPC  C220 9584   0.645   4.325   4.968  0.5478 -0.1121  0.3515
   97SAPC  H20R 9585   0.718   4.344   5.050 -1.0981  3.1044  1.2407
   97SAPC  H20S 9586   0.697   4.290   4.877  2.6847  2.4965  0.4202
   97SAPC  H20T 9587   0.575   4.245   5.001  0.3781 -0.3975 -0.6775
   97SAPC   C33 9588  -0.067   4.838   3.628  0.1021  0.5027 -0.1988
   97SAPC   H3X 9589   0.024   4.776   3.617 -0.9586 -1.2754  0.5289
   97SAPC   H3Y 9590  -0.147   4.801   3.560 -0.3082  2.4694 -0.8617
   97SAPC   C34 9591  -0.114   4.818   3.762  0.3000 -0.2800  0.5919
   97SAPC   H4X 9592  -0.155   4.716   3.776 -1.1072  0.4521  2.2964
   97SAPC   H4Y 9593  -0.197   4.892   3.768  0.7280  0.1436  1.5280
   97SAPC   C35 9594  -0.013   4.845   3.880 -0.7648 -0.6274 -0.1996
   97SAPC   H5X 9595   0.000   4.955   3.883  3.0679 -0.9712 -0.0766
   97SAPC   H5Y 9596   0.089   4.809   3.856 -1.6030 -3.2548 -0.1949
   97SAPC   C36 9597  -0.064   4.797   4.016  0.4287 -0.9634 -0.2651
   97SAPC   H6X 9598  -0.071   4.686   4.020 -0.3436 -0.9479 -0.9307
   97SAPC   H6Y 9599  -0.166   4.837   4.033  1.5674  2.9996 -1.6761
   97SAPC   C37 9600   0.028   4.848   4.128  0.2967  0.2532  0.1371
   97SAPC   H7X 9601   0.003   4.956   4.132  0.4640  0.2529  1.8462
   97SAPC   H7Y 9602   0.133   4.826   4.100  0.1846 -1.3298  0.8425
   97SAPC   C38 9603  -0.014   4.785   4.262  0.6554 -0.3674  0.0918
   97SAPC   H8X 9604  -0.009   4.674   4.257 -0.1260 -0.3717 -1.1292
   97SAPC   H8Y 9605  -0.124   4.803   4.268  0.9501  1.6984  0.0359
   97SAPC   C39 9606   0.059   4.844   4.382  0.1309  0.4986 -0.2511
   97SAPC   H9X 9607   0.058   4.954   4.394 -0.7709  0.8434 -2.7160
   97SAPC   H9Y 9608   0.163   4.809   4.363  0.0689 -0.6535  1.3614
   97SAPC  C310 9609   0.018   4.789   4.516 -0.6495 -0.0191 -0.7689
   97SAPC  H10X 9610   0.044   4.683   4.536 -0.7006  0.3268  1.4143
   97SAPC  H10Y 9611  -0.089   4.813   4.530  0.0510  1.8780  2.4077
   97SAPC  C311 9612   0.086   4.865   4.633 -0.1205 -0.2741 -0.6623
   97SAPC  H11X 9613   0.074   4.975   4.627  1.6401 -0.0551 -0.5901
   97SAPC  H11Y 9614   0.194   4.844   4.623  0.1105  0.9661 -0.9396
   97SAPC  C312 9615   0.033   4.808   4.763 -0.3105 -0.4695 -0.3814
   97SAPC  H12X 9616   0.034   4.698   4.777  2.4584 -0.8084 -2.3665
   97SAPC  H12Y 9617  -0.070   4.847   4.778  0.2097  1.0369 -0.5327
   97SAPC  C313 9618   0.101   4.877   4.876  0.2418 -0.6402 -0.4096
   97SAPC  H13X 9619   0.092   4.988   4.884 -1.9539 -0.7601 -0.5545
   97SAPC  H13Y 9620   0.210   4.875   4.855  0.4245  2.6684 -0.3201
   97SAPC  C314 9621   0.062   4.800   5.008  0.5578 -0.1232 -0.0140
   97SAPC  H14X 9622   0.035   4.694   4.988 -0.6623 -0.2614  2.1161
   97SAPC  H14Y 9623  -0.028   4.845   5.054 -0.6587 -2.4452  0.0332
   97SAPC  C315 9624   0.187   4.813   5.108  0.7817  0.1954  0.0972
   97SAPC  H15X 9625   0.264   4.769   5.040  0.1932  0.9882 -1.1103
   97SAPC  H15Y 9626   0.173   4.752   5.200 -0.3500 -1.6362 -1.2235
   97SAPC  C316 9627   0.240   4.957   5.141  0.2806  0.1621  0.1715
   97SAPC  H16X 9628   0.192   5.026   5.068  0.0480 -0.7597 -0.5680
   97SAPC  H16Y 9629   0.346   4.948   5.110 -0.1836 -0.5464 -1.3309
   97SAPC  C317 9630   0.221   5.031   5.279  0.0018  1.3841  0.1970
   97SAPC  H17X 9631   0.114   5.046   5.302 -0.2666 -2.0391  1.9286
   97SAPC  H17Y 9632   0.278   5.126   5.283 -0.1773  1.6114 -1.7529
   97SAPC  C318 9633   0.270   4.950   5.402  0.3499  0.5071  0.3296
   97SAPC  H18X 9634   0.263   5.007   5.497  1.8443  2.2239 -0.5255
   97SAPC  H18Y 9635   0.376   4.917   5.393 -0.5846 -2.8324  0.1743
   97SAPC  H18Z 9636   0.209   4.858   5.410 -0.7895  1.2632  0.4445
   98SAPC     N 9637   4.255   5.182   2.719 -0.2522  1.1361  0.5606
   98SAPC   C12 9638   4.266   5.237   2.859 -0.0171  0.3216 -0.0268
   98SAPC  H12A 9639   4.332   5.180   2.923 -0.7667  0.4521  0.8898
   98SAPC  H12B 9640   4.173   5.218   2.910 -0.0399 -0.5496 -0.3754
   98SAPC   C13 9641   4.197   5.040   2.719  0.5859 -0.4639  0.2487
   98SAPC  H13A 9642   4.195   5.001   2.618 -0.0612  2.1579 -0.8222
   98SAPC  H13B 9643   4.269   4.976   2.768  1.2474  0.0151 -0.0789
   98SAPC  H13C 9644   4.094   5.026   2.749 -0.2210 -0.3246 -2.2164
   98SAPC   C14 9645   4.166   5.278   2.642 -0.1570  0.5695 -0.8933
   98SAPC  H14A 9646   4.201   5.373   2.678  1.4300 -0.0705 -0.6169
   98SAPC  H14B 9647   4.180   5.277   2.535  1.1011 -2.5681 -0.8296
   98SAPC  H14C 9648   4.068   5.267   2.685  0.4364  1.1159  0.6548
   98SAPC   C15 9649   4.393   5.175   2.651  0.4861 -1.2442 -0.0560
   98SAPC  H15A 9650   4.372   5.155   2.547 -3.2513 -1.6824  0.6426
   98SAPC  H15B 9651   4.450   5.265   2.670  1.1463 -1.6328 -0.1810
   98SAPC  H15C 9652   4.452   5.098   2.697  1.9625  0.4302  1.0016
   98SAPC   C11 9653   4.280   5.387   2.883 -0.7787 -1.2459 -0.3021
   98SAPC  H11A 9654   4.364   5.410   2.814 -0.2838 -2.4217 -0.1023
   98SAPC  H11B 9655   4.319   5.412   2.985  1.8225  0.3471 -1.5755
   98SAPC     P 9656   4.035   5.450   2.940 -0.0273 -0.0646 -0.3773
   98SAPC   O13 9657   3.958   5.574   2.951 -0.4724  0.0937  0.1857
   98SAPC   O14 9658   3.960   5.336   2.880 -0.0434 -0.5610  0.3423
   98SAPC   O12 9659   4.168   5.469   2.849  0.7989 -0.0007 -0.3868
   98SAPC   O11 9660   4.093   5.405   3.074 -0.1862  0.0892  0.0692
   98SAPC    C1 9661   4.076   5.463   3.201 -0.5076  0.6561 -0.7441
   98SAPC    HA 9662   3.970   5.492   3.215 -1.1988 -2.0977  0.6404
   98SAPC    HB 9663   4.111   5.380   3.267  0.3830  1.1929 -0.5217
   98SAPC    C2 9664   4.158   5.596   3.238 -0.5385  0.4943  0.5122
   98SAPC    HS 9665   4.104   5.686   3.200 -0.0473 -0.3421 -2.3522
   98SAPC   O21 9666   4.297   5.601   3.184 -0.2433 -0.2841 -0.1101
   98SAPC   C21 9667   4.345   5.717   3.148  0.2575 -0.3629  0.4396
   98SAPC   O22 9668   4.298   5.825   3.169  0.6433 -0.6893  0.2033
   98SAPC   C22 9669   4.488   5.685   3.090  0.6074  0.6049  0.7371
   98SAPC   H2R 9670   4.490   5.655   2.983  0.2156  1.1316  0.5813
   98SAPC   H2S 9671   4.545   5.781   3.086  0.0608  0.9062  0.0598
   98SAPC    C3 9672   4.163   5.603   3.389 -0.4708 -0.0070 -0.4648
   98SAPC    HX 9673   4.220   5.696   3.409 -3.2843  1.6210  0.5818
   98SAPC    HY 9674   4.215   5.514   3.431  0.9861  0.4904 -1.1588
   98SAPC   O31 9675   4.032   5.615   3.448 -0.2887 -0.7569 -0.0127
   98SAPC   C31 9676   4.013   5.709   3.529  0.0365 -0.2476  0.3824
   98SAPC   O32 9677   4.093   5.789   3.571  0.6911  0.7249  0.1272
   98SAPC   C32 9678   3.865   5.710   3.567 -0.6438  0.3876 -0.1387
   98SAPC   H2X 9679   3.825   5.607   3.567 -1.9538  0.8360 -1.9826
   98SAPC   H2Y 9680   3.817   5.777   3.493  1.7977  1.7102 -0.6629
   98SAPC   C23 9681   4.565   5.574   3.166 -0.1645 -0.5875  0.5476
   98SAPC   H3R 9682   4.522   5.472   3.154 -0.2694 -0.4119 -0.6937
   98SAPC   H3S 9683   4.546   5.594   3.274  0.6543  0.0495  0.5877
   98SAPC   C24 9684   4.721   5.560   3.144  0.1898  0.3318  0.4668
   98SAPC   H4R 9685   4.736   5.558   3.034  0.1259 -1.8456  0.4653
   98SAPC   H4S 9686   4.755   5.463   3.186 -2.9697 -0.7075  0.9011
   98SAPC   C25 9687   4.794   5.678   3.194 -0.0626  0.4896  0.7721
   98SAPC   H5R 9688   4.734   5.762   3.156 -1.1571  1.0613  3.4620
   98SAPC   C26 9689   4.894   5.693   3.287  0.0766 -0.4061 -0.3613
   98SAPC   H6R 9690   4.937   5.791   3.310 -1.1562 -0.0387  0.4648
   98SAPC   C27 9691   4.956   5.572   3.360 -0.0767  0.3879  0.1784
   98SAPC   H7R 9692   5.004   5.504   3.287  0.2513 -0.1585  0.8955
   98SAPC   H7S 9693   4.884   5.505   3.412  0.3803  0.5343  1.0195
   98SAPC   C28 9694   5.066   5.614   3.458  0.2899  0.4183  0.4957
   98SAPC   H8R 9695   5.170   5.616   3.421  0.0777  0.7397 -0.1053
   98SAPC   C29 9696   5.043   5.626   3.584  0.4551 -0.0548 -0.3298
   98SAPC   H9R 9697   5.126   5.643   3.654 -0.4374 -0.7472  0.9507
   98SAPC  C210 9698   4.914   5.631   3.673 -0.2781  0.5880  0.4660
   98SAPC  H10R 9699   4.920   5.538   3.733 -3.0284 -0.6508 -1.0158
   98SAPC  H10S 9700   4.831   5.613   3.602  1.8335 -3.2811 -1.3234
   98SAPC  C211 9701   4.896   5.766   3.742 -0.6102 -0.4898 -0.4725
   98SAPC  H11R 9702   4.931   5.852   3.684 -0.0283 -1.5946 -1.8390
   98SAPC  C212 9703   4.848   5.792   3.866 -0.1102 -0.0534 -0.4293
   98SAPC  H12R 9704   4.834   5.898   3.895  1.3324  0.4525 -1.5092
   98SAPC  C213 9705   4.793   5.691   3.970  0.3399 -0.3985  0.6435
   98SAPC  H13R 9706   4.871   5.668   4.045  0.0980 -2.8717  0.2045
   98SAPC  H13S 9707   4.763   5.593   3.927  1.6996 -1.4052  1.8694
   98SAPC  C214 9708   4.676   5.753   4.043  0.1802  0.0375 -0.3564
   98SAPC  H14R 9709   4.611   5.814   3.979  0.4054  1.7086  0.9392
   98SAPC  C215 9710   4.634   5.722   4.163  0.4770  0.6730  0.3030
   98SAPC  H15R 9711   4.539   5.768   4.194 -0.7627 -1.3713 -0.2314
   98SAPC  C216 9712   4.703   5.637   4.274  0.2207 -0.2468 -0.4703
   98SAPC  H16R 9713   4.737   5.703   4.356 -1.1290  0.6982 -0.6426
   98SAPC  H16S 9714   4.792   5.591   4.225  0.0784 -1.3637  0.2697
   98SAPC  C217 9715   4.641   5.516   4.350 -0.0869  0.7373  0.5783
   98SAPC  H17R 9716   4.626   5.445   4.266  0.9118  1.3166 -0.1048
   98SAPC  H17S 9717   4.549   5.554   4.399  0.5326  1.9790  0.8213
   98SAPC  C218 9718   4.733   5.453   4.461 -0.0206  0.1605 -0.3453
   98SAPC  H18R 9719   4.667   5.380   4.513  0.0112 -0.9095 -1.7706
   98SAPC  H18S 9720   4.766   5.520   4.543  1.2111 -1.4769  0.5699
   98SAPC  C219 9721   4.850   5.378   4.399 -0.6852  0.0491 -0.4928
   98SAPC  H19R 9722   4.899   5.435   4.318  0.2705 -0.1570 -0.0817
   98SAPC  H19S 9723   4.826   5.284   4.344 -2.4421 -1.2712  2.2932
   98SAPC  C220 9724   4.966   5.348   4.501 -0.1142 -1.3080 -0.0278
   98SAPC  H20R 9725   4.932   5.280   4.582  0.8371  0.4146  1.9194
   98SAPC  H20S 9726   5.003   5.440   4.551 -0.0275 -2.7643  2.7556
   98SAPC  H20T 9727   5.051   5.301   4.448  2.3669  0.5078  2.0936
   98SAPC   C33 9728   3.852   5.752   3.717  0.2358  0.2191 -0.2676
   98SAPC   H3X 9729   3.873   5.861   3.723  0.3357  0.0988  2.8826
   98SAPC   H3Y 9730   3.935   5.700   3.770 -1.2587 -1.7766  0.2030
   98SAPC   C34 9731   3.715   5.720   3.786  0.2310  0.3788  0.4579
   98SAPC   H4X 9732   3.708   5.610   3.797  2.5452 -0.1047 -1.8791
   98SAPC   H4Y 9733   3.637   5.767   3.722  0.3907  1.5613  1.0956
   98SAPC   C35 9734   3.705   5.774   3.932 -0.0561  0.4093  0.4851
   98SAPC   H5X 9735   3.595   5.765   3.951 -0.1097 -0.7388 -0.2977
   98SAPC   H5Y 9736   3.717   5.885   3.935  1.9883  0.2168  0.1965
   98SAPC   C36 9737   3.801   5.711   4.030 -0.0691 -0.0205 -0.5959
   98SAPC   H6X 9738   3.899   5.761   4.036 -0.5985  0.9961 -0.2352
   98SAPC   H6Y 9739   3.798   5.609   3.986  0.7833 -1.2137  1.9079
   98SAPC   C37 9740   3.747   5.702   4.176  0.1940 -0.8953 -0.2244
   98SAPC   H7X 9741   3.638   5.689   4.165  0.4417 -1.1120 -3.1729
   98SAPC   H7Y 9742   3.765   5.800   4.225  1.0189 -1.4089  0.5360
   98SAPC   C38 9743   3.811   5.601   4.277  0.2807  0.2349  0.0344
   98SAPC   H8X 9744   3.920   5.621   4.292  0.5256 -1.6490  1.0749
   98SAPC   H8Y 9745   3.814   5.505   4.222  0.6603  0.3608 -0.1719
   98SAPC   C39 9746   3.749   5.579   4.417  0.2951  0.2788  0.1891
   98SAPC   H9X 9747   3.646   5.550   4.388  0.2684  0.5354  0.0201
   98SAPC   H9Y 9748   3.747   5.673   4.476  0.1452  2.0615 -2.4693
   98SAPC  C310 9749   3.818   5.458   4.490 -0.8738  0.3358  0.5567
   98SAPC  H10X 9750   3.928   5.467   4.478 -1.2342  1.7799 -3.0740
   98SAPC  H10Y 9751   3.775   5.370   4.436 -0.6540 -0.1815  1.2106
   98SAPC  C311 9752   3.791   5.457   4.639 -0.1594  0.4850 -0.5458
   98SAPC  H11X 9753   3.854   5.377   4.681 -1.2141  0.9694  2.1219
   98SAPC  H11Y 9754   3.681   5.443   4.650 -0.1623 -0.6079 -1.6696
   98SAPC  C312 9755   3.834   5.578   4.717 -0.3320  0.6619  0.1827
   98SAPC  H12X 9756   3.749   5.651   4.712 -1.4890 -0.6342  0.3089
   98SAPC  H12Y 9757   3.920   5.629   4.669 -2.0298  1.8408 -1.7980
   98SAPC  C313 9758   3.860   5.543   4.859 -0.3450 -0.0112 -0.2691
   98SAPC  H13X 9759   3.947   5.475   4.847  1.0657  1.7603 -0.5584
   98SAPC  H13Y 9760   3.776   5.480   4.894 -0.2908  0.5059  0.8431
   98SAPC  C314 9761   3.881   5.661   4.962 -0.2683  0.1012  0.3945
   98SAPC  H14X 9762   3.916   5.626   5.061  2.3650  0.3262 -0.3893
   98SAPC  H14Y 9763   3.781   5.710   4.969  0.2280  0.9039  2.3584
   98SAPC  C315 9764   3.987   5.759   4.911  0.1955  0.4151 -0.0941
   98SAPC  H15X 9765   3.956   5.848   4.969 -1.6401  0.0882 -0.5105
   98SAPC  H15Y 9766   3.984   5.776   4.801 -1.4603 -1.9523 -0.4900
   98SAPC  C316 9767   4.129   5.721   4.948 -0.3218 -0.0339 -0.1611
   98SAPC  H16X 9768   4.136   5.611   4.932 -1.7612  0.1869 -2.9011
   98SAPC  H16Y 9769   4.141   5.751   5.054 -2.1682  0.5081 -0.0625
   98SAPC  C317 9770   4.239   5.780   4.860 -0.0738 -0.2113  0.0140
   98SAPC  H17X 9771   4.225   5.760   4.752 -0.4777 -1.6072  0.3111
   98SAPC  H17Y 9772   4.337   5.742   4.893  0.7166  1.6478 -0.0550
   98SAPC  C318 9773   4.228   5.931   4.877  0.0958 -0.5159  0.3747
   98SAPC  H18X 9774   4.290   5.990   4.805 -0.8834  1.6666  1.2396
   98SAPC  H18Y 9775   4.231   5.980   4.977  0.4603 -0.8249  0.5155
   98SAPC  H18Z 9776   4.125   5.962   4.849  0.9927  2.8874  0.3304
   99SAPC     N 9777   2.344   3.673   2.965 -0.1653  0.1757 -0.3837
   99SAPC   C12 9778   2.344   3.552   3.057  0.1956 -0.2246  0.0759
   99SAPC  H12A 9779   2.245   3.539   3.097  0.4449 -1.4747  0.3139
   99SAPC  H12B 9780   2.423   3.575   3.127 -0.8417  2.7915  0.4066
   99SAPC   C13 9781   2.457   3.662   2.870 -0.1100 -0.2788 -0.0631
   99SAPC  H13A 9782   2.548   3.647   2.927 -1.2472 -0.2710  1.8134
   99SAPC  H13B 9783   2.438   3.583   2.799  0.5025 -0.7053  0.2328
   99SAPC  H13C 9784   2.468   3.760   2.826  0.6173  0.1296  0.9809
   99SAPC   C14 9785   2.215   3.685   2.889 -0.5530  0.1953 -0.8686
   99SAPC  H14A 9786   2.222   3.777   2.832 -0.6820  1.9922  1.8266
   99SAPC  H14B 9787   2.195   3.598   2.828 -1.9812  0.2932 -0.5778
   99SAPC  H14C 9788   2.126   3.675   2.950  0.3918 -2.5737  0.1644
   99SAPC   C15 9789   2.348   3.800   3.049 -0.0188 -0.8634  0.1015
   99SAPC  H15A 9790   2.280   3.784   3.132 -2.2095 -1.6949 -1.7624
   99SAPC  H15B 9791   2.448   3.815   3.086 -0.3210 -0.7443  0.8855
   99SAPC  H15C 9792   2.327   3.888   2.990 -0.2595 -1.1166 -0.1990
   99SAPC   C11 9793   2.370   3.410   2.986 -0.1306 -0.2006  0.1966
   99SAPC  H11A 9794   2.375   3.329   3.061 -2.1188 -0.6091 -0.0754
   99SAPC  H11B 9795   2.469   3.399   2.936 -2.2022 -3.5976 -3.7226
   99SAPC     P 9796   2.155   3.280   2.920  0.0141 -0.0390  0.0479
   99SAPC   O13 9797   2.046   3.302   2.830 -0.0092  0.3389  0.5877
   99SAPC   O14 9798   2.219   3.147   2.930  0.2838 -0.4603 -0.7425
   99SAPC   O12 9799   2.270   3.378   2.882 -0.0326  0.7322  0.4772
   99SAPC   O11 9800   2.119   3.331   3.069 -0.0590  0.0376 -0.2356
   99SAPC    C1 9801   2.025   3.257   3.141  0.5270 -0.4012 -0.8260
   99SAPC    HA 9802   1.925   3.252   3.092 -0.6997  3.3901  0.9121
   99SAPC    HB 9803   2.054   3.152   3.160 -2.2248 -0.9973  0.5978
   99SAPC    C2 9804   1.988   3.317   3.282 -0.5298 -0.7153 -0.4376
   99SAPC    HS 9805   1.937   3.414   3.264  1.8377  0.4180 -1.3345
   99SAPC   O21 9806   2.100   3.319   3.366 -0.1349  0.1880 -0.2139
   99SAPC   C21 9807   2.167   3.428   3.359  0.2809  0.0386 -0.0101
   99SAPC   O22 9808   2.126   3.542   3.322  0.6264  0.4108 -0.1801
   99SAPC   C22 9809   2.313   3.392   3.404 -0.3536 -0.1847 -0.2346
   99SAPC   H2R 9810   2.313   3.330   3.496  0.4060  1.5305  0.9757
   99SAPC   H2S 9811   2.353   3.327   3.324  2.1048 -0.9422  1.5051
   99SAPC    C3 9812   1.881   3.224   3.343  0.5713 -0.1925  0.0334
   99SAPC    HX 9813   1.896   3.115   3.327 -0.3584 -0.3823  0.3872
   99SAPC    HY 9814   1.780   3.247   3.301  0.3815  1.0410  1.1097
   99SAPC   O31 9815   1.862   3.262   3.476 -0.1265 -0.1446 -0.2194
   99SAPC   C31 9816   1.919   3.199   3.575 -0.2929  0.6243  0.2434
   99SAPC   O32 9817   1.996   3.101   3.559  0.1002  0.5040  0.0812
   99SAPC   C32 9818   1.883   3.264   3.708 -0.2065  0.3110 -0.5315
   99SAPC   H2X 9819   1.780   3.236   3.739  1.2533 -1.8066  3.0119
   99SAPC   H2Y 9820   1.870   3.372   3.688  0.0272  0.4451  0.0249
   99SAPC   C23 9821   2.412   3.517   3.424  0.3975 -0.6997 -0.0131
   99SAPC   H3R 9822   2.395   3.593   3.344  1.3277 -2.1246 -1.6164
   99SAPC   H3S 9823   2.513   3.475   3.408  1.1964  1.4227 -1.0226
   99SAPC   C24 9824   2.408   3.565   3.574 -0.3227 -0.1859  0.7675
   99SAPC   H4R 9825   2.492   3.638   3.582  0.4611 -0.9557 -0.0742
   99SAPC   H4S 9826   2.444   3.484   3.642  1.2636  2.4461  3.3263
   99SAPC   C25 9827   2.278   3.627   3.626 -0.5634 -0.0546 -0.0064
   99SAPC   H5R 9828   2.214   3.670   3.548  0.2536  0.4333 -0.4239
   99SAPC   C26 9829   2.241   3.632   3.756 -0.0088 -0.3459  0.2081
   99SAPC   H6R 9830   2.151   3.684   3.791  0.0282 -1.2462  1.7372
   99SAPC   C27 9831   2.323   3.569   3.873  0.6960  0.3312 -0.2259
   99SAPC   H7R 9832   2.422   3.544   3.829  0.9954  1.1671 -0.0558
   99SAPC   H7S 9833   2.277   3.471   3.899  0.7877  0.0205 -1.2006
   99SAPC   C28 9834   2.346   3.667   3.984  0.0590  0.0993 -0.5276
   99SAPC   H8R 9835   2.395   3.759   3.950  2.3468 -1.2509 -1.0416
   99SAPC   C29 9836   2.306   3.659   4.112 -0.6519  0.0191 -0.4994
   99SAPC   H9R 9837   2.344   3.740   4.175  1.0282 -0.1674 -1.2091
   99SAPC  C210 9838   2.239   3.544   4.180 -0.2910 -0.9602  0.3957
   99SAPC  H10R 9839   2.313   3.462   4.194 -2.0010 -2.5453  0.4141
   99SAPC  H10S 9840   2.162   3.506   4.110  0.5290  1.1897 -1.8272
   99SAPC  C211 9841   2.164   3.581   4.304 -0.4805  0.2786 -0.2181
   99SAPC  H11R 9842   2.055   3.592   4.302 -0.4131  0.8794 -1.1219
   99SAPC  C212 9843   2.217   3.583   4.434 -0.3063 -0.2044 -0.0658
   99SAPC  H12R 9844   2.133   3.596   4.504 -2.6174  0.8557 -2.8193
   99SAPC  C213 9845   2.353   3.565   4.494 -0.1664 -0.3367  0.3691
   99SAPC  H13R 9846   2.433   3.544   4.420  0.9950  0.8430  1.2247
   99SAPC  H13S 9847   2.351   3.475   4.559 -3.2025 -0.3011  0.4824
   99SAPC  C214 9848   2.403   3.681   4.580 -0.4028 -0.0401 -0.5867
   99SAPC  H14R 9849   2.482   3.742   4.534 -0.8753  1.7881  0.8715
   99SAPC  C215 9850   2.391   3.703   4.708 -0.5262  0.3871  0.1472
   99SAPC  H15R 9851   2.435   3.792   4.754 -2.1491  1.4832 -0.3294
   99SAPC  C216 9852   2.305   3.620   4.796  0.6321  0.3658 -1.2623
   99SAPC  H16R 9853   2.276   3.531   4.737 -0.6653  0.2913 -0.5566
   99SAPC  H16S 9854   2.216   3.674   4.834  0.7389 -0.7275  0.6559
   99SAPC  C217 9855   2.368   3.575   4.932 -0.4669  0.1042 -0.1159
   99SAPC  H17R 9856   2.285   3.532   4.991 -1.0336 -1.7288 -2.1554
   99SAPC  H17S 9857   2.398   3.663   4.993 -2.1578 -1.0030  2.4910
   99SAPC  C218 9858   2.481   3.468   4.919 -0.5283  0.1443 -0.2286
   99SAPC  H18R 9859   2.564   3.507   4.855  0.3939  1.1777  1.5037
   99SAPC  H18S 9860   2.431   3.384   4.867  1.5310  0.4743 -2.9299
   99SAPC  C219 9861   2.546   3.430   5.061 -0.1311 -0.1440  0.4106
   99SAPC  H19R 9862   2.608   3.341   5.038  0.0874 -0.2679  1.4380
   99SAPC  H19S 9863   2.469   3.388   5.130 -1.6682  2.3564  0.3487
   99SAPC  C220 9864   2.628   3.547   5.123 -0.0344 -0.2327  0.0876
   99SAPC  H20R 9865   2.705   3.575   5.048 -1.1188 -1.1371 -1.4124
   99SAPC  H20S 9866   2.671   3.531   5.224  2.7847  0.7745 -0.8593
   99SAPC  H20T 9867   2.552   3.628   5.135 -1.7614 -1.1263 -3.5115
   99SAPC   C33 9868   1.983   3.244   3.823 -0.0098 -0.7374  0.2975
   99SAPC   H3X 9869   2.061   3.322   3.813 -1.2375  0.2274 -2.9622
   99SAPC   H3Y 9870   2.035   3.146   3.816 -3.3696 -2.5802 -2.4963
   99SAPC   C34 9871   1.916   3.259   3.959  0.1730 -0.6988 -0.2843
   99SAPC   H4X 9872   1.823   3.199   3.965 -0.4608  0.2817  0.0283
   99SAPC   H4Y 9873   1.888   3.366   3.965 -0.0817 -0.5464 -3.0921
   99SAPC   C35 9874   2.015   3.225   4.067 -0.4992  0.9267  0.6048
   99SAPC   H5X 9875   2.097   3.301   4.072 -0.7603  1.3181 -0.5599
   99SAPC   H5Y 9876   2.053   3.124   4.043 -0.5256  0.9593  0.4229
   99SAPC   C36 9877   1.947   3.227   4.201  0.0612 -0.0972 -0.0346
   99SAPC   H6X 9878   1.860   3.157   4.202 -0.4942  0.5784  0.2929
   99SAPC   H6Y 9879   1.896   3.326   4.212 -0.1314 -0.1129 -0.7613
   99SAPC   C37 9880   2.050   3.205   4.317  0.0271 -0.3561 -0.5187
   99SAPC   H7X 9881   2.125   3.287   4.315 -0.7481  0.3753 -0.1282
   99SAPC   H7Y 9882   2.091   3.105   4.292 -1.0967 -0.5287 -1.7989
   99SAPC   C38 9883   1.977   3.227   4.454 -0.0179 -0.2984 -0.2363
   99SAPC   H8X 9884   1.891   3.158   4.468 -0.1079 -0.7559 -2.7048
   99SAPC   H8Y 9885   1.939   3.331   4.461 -1.5084 -0.6552 -2.0891
   99SAPC   C39 9886   2.072   3.208   4.578 -0.2726 -0.5198  0.1844
   99SAPC   H9X 9887   2.147   3.289   4.559  2.7867 -3.0453  0.7426
   99SAPC   H9Y 9888   2.129   3.113   4.582  2.2829  0.6809 -2.9812
   99SAPC  C310 9889   1.999   3.237   4.710 -0.8718  0.0750 -0.8231
   99SAPC  H10X 9890   1.952   3.148   4.756 -0.7968  0.4118 -0.0728
   99SAPC  H10Y 9891   1.922   3.314   4.689 -2.2564 -1.0099  0.0873
   99SAPC  C311 9892   2.096   3.272   4.821 -0.5079 -0.8296 -0.4214
   99SAPC  H11X 9893   2.163   3.358   4.804  2.9159 -3.3291 -0.7035
   99SAPC  H11Y 9894   2.167   3.186   4.820 -0.5306 -0.8577 -2.4661
   99SAPC  C312 9895   2.016   3.286   4.949  0.7968 -0.4508 -0.2035
   99SAPC  H12X 9896   2.097   3.311   5.021 -0.0438 -2.2174  1.4436
   99SAPC  H12Y 9897   1.987   3.183   4.976 -0.6126 -0.0218  0.0099
   99SAPC  C313 9898   1.907   3.397   4.953  0.1873 -0.0077 -0.0813
   99SAPC  H13X 9899   1.838   3.382   5.039  0.7279 -0.6478  0.2458
   99SAPC  H13Y 9900   1.842   3.394   4.863 -1.3435  0.2776  0.9622
   99SAPC  C314 9901   1.968   3.540   4.955  0.9303 -0.1212  0.0708
   99SAPC  H14X 9902   2.051   3.540   4.881  0.4778  1.1684 -0.4760
   99SAPC  H14Y 9903   2.015   3.558   5.054 -2.0089  2.5024  1.1754
   99SAPC  C315 9904   1.867   3.655   4.931 -0.1240 -0.1405  0.1050
   99SAPC  H15X 9905   1.829   3.681   5.032  0.4520 -0.1876  0.3422
   99SAPC  H15Y 9906   1.785   3.627   4.862 -0.6407  1.4031  0.0619
   99SAPC  C316 9907   1.940   3.773   4.863 -0.4061  0.2949  0.2621
   99SAPC  H16X 9908   2.041   3.781   4.909  1.1408 -1.7530 -2.4822
   99SAPC  H16Y 9909   1.890   3.871   4.883 -1.5195 -0.0379 -0.7994
   99SAPC  C317 9910   1.976   3.747   4.712 -0.0336 -0.5808  0.1920
   99SAPC  H17X 9911   1.882   3.728   4.655 -0.5028  1.1737  0.3324
   99SAPC  H17Y 9912   2.028   3.651   4.692 -0.7089 -1.2072  1.3340
   99SAPC  C318 9913   2.058   3.864   4.663  0.0469 -0.3443 -0.0760
   99SAPC  H18X 9914   2.136   3.899   4.734 -0.5233  0.1813  0.2980
   99SAPC  H18Y 9915   1.998   3.956   4.645  1.4982  0.5058 -0.7786
   99SAPC  H18Z 9916   2.095   3.851   4.559 -0.8648 -0.7160 -0.3703
  100SAPC     N 9917   4.326   0.316   2.282 -0.3390 -0.9761 -0.2124
  100SAPC   C12 9918   4.335   0.237   2.419 -0.6181  0.3202 -0.5457
  100SAPC  H12A 9919   4.438   0.223   2.448 -1.0146  0.8636  1.2375
  100SAPC  H12B 9920   4.303   0.135   2.402  3.3349 -1.3963  1.0869
  100SAPC   C13 9921   4.372   0.238   2.164 -0.1354 -0.1862 -0.0737
  100SAPC  H13A 9922   4.479   0.222   2.159 -0.1288 -0.0206 -0.4911
  100SAPC  H13B 9923   4.331   0.140   2.146  0.5481 -0.3438 -0.8297
  100SAPC  H13C 9924   4.359   0.294   2.072 -0.1913 -0.1202 -0.0258
  100SAPC   C14 9925   4.190   0.374   2.267 -0.1083  0.1326 -0.1376
  100SAPC  H14A 9926   4.164   0.439   2.350 -2.6451 -1.6566  0.5807
  100SAPC  H14B 9927   4.173   0.423   2.172 -1.7520 -0.4739 -0.1927
  100SAPC  H14C 9928   4.123   0.290   2.259  2.0321 -1.6832 -0.0831
  100SAPC   C15 9929   4.410   0.439   2.287 -0.2178 -0.8902 -0.5236
  100SAPC  H15A 9930   4.380   0.515   2.358  1.0020 -0.6542 -0.2528
  100SAPC  H15B 9931   4.513   0.428   2.315 -0.1090  0.1060 -0.4992
  100SAPC  H15C 9932   4.408   0.490   2.192  4.0994  0.0071 -0.3184
  100SAPC   C11 9933   4.258   0.290   2.543 -0.1739  0.4892 -0.0406
  100SAPC  H11A 9934   4.271   0.219   2.627  0.7610  0.9165  0.1923
  100SAPC  H11B 9935   4.151   0.273   2.519 -0.1908  1.7426 -0.9749
  100SAPC     P 9936   4.397   0.446   2.675 -0.1776  0.3688 -0.2583
  100SAPC   O13 9937   4.480   0.327   2.698 -0.0821 -0.3548 -0.1033
  100SAPC   O14 9938   4.468   0.569   2.636 -0.2215 -0.0023 -0.7802
  100SAPC   O12 9939   4.276   0.429   2.572 -0.2342 -0.7774  0.2603
  100SAPC   O11 9940   4.323   0.484   2.810  0.0780 -0.2010 -0.4901
  100SAPC    C1 9941   4.388   0.485   2.936  0.0006  0.2130 -0.2913
  100SAPC    HA 9942   4.497   0.503   2.925 -0.1499  0.7676 -0.9837
  100SAPC    HB 9943   4.341   0.565   2.998 -0.1906  1.2137 -1.6727
  100SAPC    C2 9944   4.360   0.355   3.011 -0.3721 -0.0833 -1.1567
  100SAPC    HS 9945   4.422   0.281   2.956 -0.5771  0.2417 -1.8397
  100SAPC   O21 9946   4.219   0.315   3.007  0.6528 -0.1426  0.4816
  100SAPC   C21 9947   4.196   0.182   2.986 -0.2110 -0.1523 -0.6312
  100SAPC   O22 9948   4.285   0.102   2.969 -0.4901  0.0097 -0.2560
  100SAPC   C22 9949   4.044   0.162   2.983 -0.1073  0.2117  0.9474
  100SAPC   H2R 9950   3.996   0.201   3.076  0.4852  3.3506  0.0580
  100SAPC   H2S 9951   4.009   0.223   2.898  1.2945  1.3855  1.1754
  100SAPC    C3 9952   4.391   0.367   3.166 -0.4752 -0.0399  0.3532
  100SAPC    HX 9953   4.321   0.438   3.215  1.6189  2.1050  0.4289
  100SAPC    HY 9954   4.485   0.427   3.169 -0.9514  1.0364 -2.7660
  100SAPC   O31 9955   4.404   0.233   3.223 -0.0214  0.5283  0.5998
  100SAPC   C31 9956   4.303   0.188   3.303  0.2556 -0.5420 -0.5515
  100SAPC   O32 9957   4.191   0.234   3.309  0.4580 -0.0674 -0.0217
  100SAPC   C32 9958   4.348   0.057   3.374 -0.3497  0.0767 -0.6627
  100SAPC   H2X 9959   4.329   0.076   3.482 -0.8971 -2.3289 -0.2689
  100SAPC   H2Y 9960   4.456   0.035   3.361 -0.2664  0.7293 -1.1418
  100SAPC   C23 9961   4.005   0.011   2.954  0.8659  0.1217  0.5950
  100SAPC   H3R 9962   4.056  -0.007   2.857  0.6222  0.7204  0.3520
  100SAPC   H3S 9963   3.900  -0.012   2.924  1.2552 -1.0612  0.0634
  100SAPC   C24 9964   4.035  -0.094   3.058  0.2787 -0.3104  0.1626
  100SAPC   H4R 9965   4.144  -0.080   3.079 -0.2057  2.3125  1.4768
  100SAPC   H4S 9966   4.017  -0.192   3.011 -0.7458  0.6016 -1.4365
  100SAPC   C25 9967   3.941  -0.066   3.170  0.5846 -0.2413 -0.2321
  100SAPC   H5R 9968   3.897   0.035   3.173 -1.1102 -0.9546 -0.1922
  100SAPC   C26 9969   3.920  -0.150   3.269 -0.4769 -0.1947 -0.5785
  100SAPC   H6R 9970   3.849  -0.113   3.345 -0.3871 -1.5165  0.1783
  100SAPC   C27 9971   3.970  -0.293   3.287  0.2954 -0.7154 -0.2233
  100SAPC   H7R 9972   3.965  -0.328   3.392  2.1172 -0.5671 -0.0500
  100SAPC   H7S 9973   4.080  -0.282   3.272  0.4488 -1.2387  0.4662
  100SAPC   C28 9974   3.934  -0.406   3.200  0.3185 -0.1811 -0.3672
  100SAPC   H8R 9975   3.877  -0.395   3.107 -0.3533 -2.1221 -0.2365
  100SAPC   C29 9976   3.982  -0.528   3.224 -0.6518  0.0205  0.3149
  100SAPC   H9R 9977   3.937  -0.617   3.176  1.9515 -0.3870 -1.6076
  100SAPC  C210 9978   4.076  -0.554   3.340  0.3494 -0.6022 -0.4164
  100SAPC  H10R 9979   4.031  -0.509   3.431  0.2320 -0.8357 -0.3577
  100SAPC  H10S 9980   4.171  -0.500   3.321 -0.5771  0.4197 -2.4096
  100SAPC  C211 9981   4.109  -0.702   3.355 -0.4211  0.4235 -0.7816
  100SAPC  H11R 9982   4.101  -0.759   3.261 -2.6997 -2.1726  0.8363
  100SAPC  C212 9983   4.141  -0.760   3.470 -0.0454  0.7105  0.2051
  100SAPC  H12R 9984   4.171  -0.866   3.462 -0.3325  0.7361 -1.4492
  100SAPC  C213 9985   4.153  -0.689   3.603 -0.5514 -0.3177  0.4432
  100SAPC  H13R 9986   4.060  -0.632   3.626  0.6981  2.1556 -0.2497
  100SAPC  H13S 9987   4.237  -0.616   3.607  0.7842 -1.8027  0.5376
  100SAPC  C214 9988   4.175  -0.779   3.723 -0.6611  0.2894 -0.2770
  100SAPC  H14R 9989   4.240  -0.867   3.709  1.4319  1.6918  0.0802
  100SAPC  C215 9990   4.141  -0.742   3.847  0.0574 -0.6449  0.7292
  100SAPC  H15R 9991   4.170  -0.815   3.923 -0.2993 -1.1170  0.4212
  100SAPC  C216 9992   4.067  -0.624   3.900 -0.5460  1.3506  0.7042
  100SAPC  H16R 9993   3.976  -0.599   3.842  0.7290 -0.2682 -2.2213
  100SAPC  H16S 9994   4.131  -0.536   3.920  1.1646  0.3788 -0.2239
  100SAPC  C217 9995   4.010  -0.662   4.045 -0.5550  0.5110  0.2540
  100SAPC  H17R 9996   3.950  -0.756   4.047 -0.5643  0.5247  0.7490
  100SAPC  H17S 9997   3.938  -0.579   4.060  1.1169  1.9161  0.7901
  100SAPC  C218 9998   4.123  -0.649   4.143  0.3191 -0.0073  0.3036
  100SAPC  H18R 9999   4.153  -0.543   4.151 -3.2459  1.1171  0.4206
  100SAPC  H18S10000   4.205  -0.717   4.110 -0.4286 -0.5787 -0.4341
  100SAPC  C21910001   4.068  -0.689   4.284 -0.6582 -0.3616  0.1119
  100SAPC  H19R10002   3.981  -0.626   4.312  1.2799  2.4868  0.1843
  100SAPC  H19S10003   4.150  -0.669   4.357 -0.9582 -1.9489  0.9171
  100SAPC  C22010004   4.037  -0.833   4.301  0.1971  0.3983 -0.1468
  100SAPC  H20R10005   3.998  -0.862   4.401  0.4628 -2.0134 -0.6756
  100SAPC  H20S10006   4.116  -0.907   4.277  1.0472 -0.0000  3.3545
  100SAPC  H20T10007   3.953  -0.858   4.232 -0.4185 -0.0432  0.7464
  100SAPC   C3310008   4.264  -0.072   3.334  0.3660  0.1929  0.2156
  100SAPC   H3X10009   4.294  -0.092   3.229  2.0142  0.6016  0.5731
  100SAPC   H3Y10010   4.163  -0.026   3.335  0.6121  0.7443  0.9162
  100SAPC   C3410011   4.275  -0.188   3.433  0.4445  0.6082 -0.4335
  100SAPC   H4X10012   4.373  -0.195   3.484  0.0103 -1.4670  0.2092
  100SAPC   H4Y10013   4.279  -0.279   3.369 -0.0092  0.5862 -0.4341
  100SAPC   C3510014   4.172  -0.191   3.545  0.2971  1.2194  0.4596
  100SAPC   H5X10015   4.073  -0.174   3.497 -0.1748 -1.8091  0.1840
  100SAPC   H5Y10016   4.176  -0.101   3.610  1.0640  1.9101 -0.5154
  100SAPC   C3610017   4.158  -0.314   3.644 -0.4072  0.1055  0.4999
  100SAPC   H6X10018   4.122  -0.406   3.593  1.0708 -1.9886  2.9670
  100SAPC   H6Y10019   4.089  -0.292   3.728  2.7930 -1.1994  3.7579
  100SAPC   C3710020   4.293  -0.346   3.714  0.2405 -0.4957 -0.0038
  100SAPC   H7X10021   4.374  -0.353   3.639  0.9678  1.9258  0.4781
  100SAPC   H7Y10022   4.283  -0.440   3.772  1.2306  0.2181  1.3780
  100SAPC   C3810023   4.331  -0.237   3.817 -0.6345  0.1456  0.1714
  100SAPC   H8X10024   4.308  -0.136   3.776  2.1670  0.4047 -0.9599
  100SAPC   H8Y10025   4.440  -0.227   3.836 -0.2101  0.6300 -2.1793
  100SAPC   C3910026   4.260  -0.243   3.951 -0.4533 -0.4494  0.2788
  100SAPC   H9X10027   4.155  -0.277   3.941 -0.7679  0.5439  0.1708
  100SAPC   H9Y10028   4.262  -0.140   3.991 -0.8446  0.4394 -1.8454
  100SAPC  C31010029   4.325  -0.334   4.054  0.4836 -0.7107 -0.5726
  100SAPC  H10X10030   4.434  -0.312   4.062  0.0583  0.9840  1.2897
  100SAPC  H10Y10031   4.305  -0.440   4.030  1.0544 -1.3643  1.6665
  100SAPC  C31110032   4.281  -0.305   4.197  0.0534 -0.2672  0.4533
  100SAPC  H11X10033   4.172  -0.288   4.208  0.4661  1.7855  1.9337
  100SAPC  H11Y10034   4.322  -0.206   4.223 -1.4324  0.6706 -0.5999
  100SAPC  C31210035   4.337  -0.381   4.311 -0.7047 -0.9103  0.1399
  100SAPC  H12X10036   4.448  -0.375   4.322 -0.7875  0.1832  0.5806
  100SAPC  H12Y10037   4.312  -0.488   4.298 -2.0233 -0.5958 -0.0502
  100SAPC  C31310038   4.271  -0.336   4.444  0.3520 -0.6938 -0.1010
  100SAPC  H13X10039   4.161  -0.340   4.430  0.0571  3.5732 -0.1360
  100SAPC  H13Y10040   4.302  -0.230   4.433  4.8691 -2.0163 -2.7308
  100SAPC  C31410041   4.301  -0.409   4.577  0.3768  0.2043  0.7299
  100SAPC  H14X10042   4.410  -0.426   4.572  0.5763  1.6391 -0.3938
  100SAPC  H14Y10043   4.253  -0.510   4.576  0.3573  0.1762 -1.6085
  100SAPC  C31510044   4.268  -0.332   4.702 -0.3352  0.6241 -0.1539
  100SAPC  H15X10045   4.158  -0.319   4.694 -0.5216 -1.4663 -2.2422
  100SAPC  H15Y10046   4.314  -0.231   4.703  0.0724  0.4340  0.2987
  100SAPC  C31610047   4.295  -0.393   4.839  0.1178  0.4338  0.0893
  100SAPC  H16X10048   4.297  -0.322   4.924 -1.9311 -1.1054  1.5303
  100SAPC  H16Y10049   4.403  -0.414   4.827  0.1477  0.2103  0.7023
  100SAPC  C31710050   4.233  -0.531   4.866 -0.2896  0.7401 -0.5190
  100SAPC  H17X10051   4.306  -0.612   4.841  0.3321  1.0742  0.1774
  100SAPC  H17Y10052   4.144  -0.546   4.802 -1.0241  0.1166  0.6125
  100SAPC  C31810053   4.176  -0.550   5.006  0.1336  0.0953  0.5165
  100SAPC  H18X10054   4.179  -0.658   5.032 -1.3591 -0.7308 -2.3282
  100SAPC  H18Y10055   4.070  -0.517   5.009  0.1447  0.2659 -0.5613
  100SAPC  H18Z10056   4.233  -0.501   5.088 -0.2835 -0.5488  1.1958
  101OSM      N10057   0.034   5.288   7.867  0.5636  0.2707  0.1409
  101OSM    C1510058  -0.034   5.191   7.768 -0.4323 -0.9185 -0.2841
  101OSM   H15A10059  -0.138   5.220   7.761 -0.1494  0.6425  1.3577
  101OSM   H15B10060  -0.023   5.088   7.800  2.9148 -0.4900  0.3384
  101OSM   H15C10061   0.014   5.195   7.672  0.6943  1.2457  0.3051
  101OSM    C1410062  -0.059   5.330   7.975 -0.0849 -0.1718 -0.5510
  101OSM   H14A10063  -0.111   5.247   8.022  0.3395 -0.7119 -1.0252
  101OSM   H14B10064  -0.129   5.405   7.942  0.6416  1.2510  0.9822
  101OSM   H14C10065  -0.000   5.364   8.059  1.6939 -2.8019 -0.6107
  101OSM    C1310066   0.151   5.225   7.928 -0.0501  0.4311 -0.2425
  101OSM   H13A10067   0.210   5.163   7.861 -1.1729 -0.3479 -0.5318
  101OSM   H13B10068   0.119   5.159   8.007 -1.1508  0.5935 -0.5428
  101OSM   H13C10069   0.216   5.296   7.978  1.1963 -0.9975  0.2653
  101OSM    C1210070   0.078   5.406   7.789 -0.0888 -0.4321 -0.1652
  101OSM   H12A10071   0.145   5.463   7.851  1.4413 -1.5909 -0.6759
  101OSM   H12B10072  -0.006   5.472   7.773  0.9648  1.5933  2.1327
  101OSM    C1110073   0.134   5.379   7.645  0.2808  0.1761 -0.3714
  101OSM   H11A10074   0.205   5.293   7.645 -1.4117 -1.2858  0.0257
  101OSM   H11B10075   0.198   5.466   7.621 -1.1194  1.1150 -0.8065
  101OSM      P10076  -0.050   5.488   7.500 -0.1996 -0.3701  0.0079
  101OSM    O1310077  -0.157   5.453   7.404 -0.6044  0.0429  0.4303
  101OSM    O1410078  -0.091   5.566   7.613 -0.1891 -0.6790 -0.0462
  101OSM    O1110079   0.069   5.560   7.432  0.1179  0.0959 -0.3458
  101OSM    O1210080   0.024   5.357   7.553  0.0962  0.3401 -0.1616
  101OSM    C1S10081   0.155   5.492   7.343  0.0968  0.3840 -0.7738
  101OSM    H1S10082   0.155   5.383   7.364  0.3587  0.9667  2.7667
  101OSM    H1T10083   0.262   5.517   7.358 -0.1183  1.4213 -0.8886
  101OSM     NF10084   0.217   5.449   7.103 -0.0161  0.1526 -0.2685
  101OSM    HNF10085   0.283   5.491   7.042  0.7412  0.0806  0.4874
  101OSM    C2S10086   0.125   5.525   7.191 -0.4122  0.5480 -0.7543
  101OSM    H2S10087   0.019   5.495   7.174 -1.0273  1.9826  0.4319
  101OSM    C3S10088   0.141   5.675   7.167  0.7582  0.3262 -0.8628
  101OSM    H3S10089   0.249   5.699   7.175  0.6164  0.5074  1.3352
  101OSM     O310090   0.083   5.755   7.274 -0.3476 -0.3418  0.7204
  101OSM    HO310091   0.059   5.694   7.345 -0.0381  1.5183  2.5029
  101OSM    C4S10092   0.100   5.710   7.032  0.0567  0.4103 -0.7633
  101OSM    H4S10093   0.184   5.711   6.961  1.4123 -0.2122  0.7752
  101OSM    C5S10094  -0.024   5.730   6.986 -0.3728  0.1313 -0.1260
  101OSM    H5S10095  -0.111   5.729   7.054 -0.1302 -1.7644  0.1984
  101OSM    C6S10096  -0.059   5.761   6.839  0.7456 -0.0286  0.2500
  101OSM    H6S10097  -0.092   5.867   6.837 -1.1574 -0.4735  3.1889
  101OSM    H6T10098  -0.144   5.696   6.809 -0.5829  2.7288 -2.5282
  101OSM    C7S10099   0.061   5.749   6.744 -0.3761  0.4456 -0.0674
  101OSM    H7S10100   0.095   5.643   6.741 -0.8592  0.3010 -1.7803
  101OSM    H7T10101   0.151   5.804   6.776  0.7107 -1.8716  1.1148
  101OSM    C8S10102   0.028   5.791   6.601 -0.2081 -0.2340 -0.1656
  101OSM    H8S10103  -0.014   5.894   6.613  2.5195  0.7604  1.8938
  101OSM    H8T10104  -0.048   5.721   6.560 -0.9947  0.1245  0.6437
  101OSM    C9S10105   0.160   5.807   6.516 -0.2157 -0.1679 -0.2939
  101OSM    H9S10106   0.221   5.717   6.539 -0.3566 -0.6549 -1.7211
  101OSM    H9T10107   0.212   5.905   6.525  3.1679 -1.9266  1.1593
  101OSM   C10S10108   0.126   5.787   6.367  0.1133  0.1219 -0.2441
  101OSM   H10S10109   0.042   5.850   6.332 -0.1553  0.4144  0.8851
  101OSM   H10T10110   0.089   5.683   6.359  1.8499 -0.9279  3.2867
  101OSM   C11S10111   0.245   5.809   6.273  0.2893  0.5309 -0.2299
  101OSM   H11S10112   0.340   5.763   6.307  0.8389  2.5918  1.1956
  101OSM   H11T10113   0.264   5.918   6.275 -2.7114  1.1420  0.9780
  101OSM   C12S10114   0.202   5.759   6.141  0.8788 -0.3804  0.3503
  101OSM   H12S10115   0.092   5.750   6.130  1.0015  0.3320 -1.9390
  101OSM   H12T10116   0.238   5.657   6.116  0.9229 -0.0693 -0.9317
  101OSM   C13S10117   0.230   5.872   6.035  0.2507  0.1040 -0.3480
  101OSM   H13S10118   0.339   5.892   6.040  0.1091  0.7197  0.8590
  101OSM   H13T10119   0.174   5.957   6.080  1.3078 -0.5902  2.5566
  101OSM   C14S10120   0.191   5.846   5.890 -0.0718  0.6122 -1.1441
  101OSM   H14S10121   0.089   5.805   5.903 -0.5629  1.9674 -0.5543
  101OSM   H14T10122   0.264   5.772   5.849  0.5611  1.7843 -2.2207
  101OSM   C15S10123   0.195   5.976   5.799  0.5344  0.1076  0.0395
  101OSM   H15S10124   0.304   5.985   5.779  1.2627 -2.3543  2.3442
  101OSM   H15T10125   0.152   6.055   5.863 -0.5220 -0.1469 -0.3454
  101OSM   C16S10126   0.122   5.956   5.670  0.2489 -0.2605 -0.1050
  101OSM   H16S10127   0.030   6.019   5.673  1.4112  1.4886  0.1271
  101OSM   H16T10128   0.090   5.850   5.658 -0.4093  0.2178 -3.4695
  101OSM   C17S10129   0.196   5.978   5.539 -0.5987  0.2604 -0.0744
  101OSM   H17S10130   0.268   5.895   5.527 -1.0527 -0.2263  0.5094
  101OSM   H17T10131   0.257   6.071   5.549 -0.0810 -0.3452  5.1964
  101OSM   C18S10132   0.103   5.968   5.416 -0.2204 -0.5725  0.4019
  101OSM   H18S10133   0.156   5.935   5.325  0.4499  0.5405  0.3664
  101OSM   H18T10134   0.063   6.069   5.390  0.7617 -0.2175  0.2430
  101OSM   H18U10135   0.016   5.902   5.432 -0.2856 -0.3699  0.9326
  101OSM    C1F10136   0.207   5.315   7.079  0.0106 -0.7154  0.8838
  101OSM     OF10137   0.145   5.240   7.149 -0.0284 -0.0807 -0.1451
  101OSM    C2F10138   0.280   5.260   6.959  0.0677 -0.0279 -0.6417
  101OSM    H2F10139   0.218   5.186   6.904 -0.3424 -0.2297  0.0925
  101OSM    H2G10140   0.373   5.204   6.983 -0.4531 -0.0741  1.4573
  101OSM    C3F10141   0.334   5.371   6.862  0.1881  0.3446  0.7242
  101OSM    H3F10142   0.415   5.424   6.915  0.8423 -0.3758  0.4622
  101OSM    H3G10143   0.251   5.440   6.834  1.7179  1.5569 -1.0059
  101OSM    C4F10144   0.394   5.313   6.729  0.9445 -0.5182  0.2400
  101OSM    H4F10145   0.317   5.264   6.665  0.5047  1.4379 -0.8313
  101OSM    H4G10146   0.479   5.243   6.742  1.0032 -0.6640 -0.8175
  101OSM    C5F10147   0.434   5.434   6.641  0.6691  0.3047 -0.6118
  101OSM    H5F10148   0.524   5.480   6.687  0.4174  0.2257 -0.0333
  101OSM    H5G10149   0.357   5.514   6.635  1.1731  0.8844  0.4492
  101OSM    C6F10150   0.464   5.391   6.496 -0.1159  0.1202 -0.0569
  101OSM    H6F10151   0.370   5.339   6.468  1.1944 -4.3005  2.7017
  101OSM    H6G10152   0.538   5.307   6.498 -0.7251 -0.4536  2.8955
  101OSM    C7F10153   0.490   5.509   6.392 -0.0920  0.1101 -0.7462
  101OSM    H7F10154   0.586   5.557   6.419  0.4934 -1.1194 -0.5897
  101OSM    H7G10155   0.408   5.581   6.413 -0.3400  0.4134 -2.5519
  101OSM    C8F10156   0.506   5.462   6.243  0.2714  0.4315  0.6825
  101OSM    H8F10157   0.494   5.544   6.169  0.1038 -0.9595 -0.8876
  101OSM    H8G10158   0.427   5.386   6.226  2.2231 -1.7408  0.8476
  101OSM    C9F10159   0.645   5.413   6.210  0.9468 -0.0257  0.2119
  101OSM    H9F10160   0.700   5.367   6.293  1.0893 -0.8379 -0.3126
  101OSM   C10F10161   0.728   5.430   6.101  0.0792 -0.1072 -1.0222
  101OSM   H10F10162   0.827   5.382   6.101 -0.0323 -0.3801  0.3768
  101OSM   C11F10163   0.689   5.500   5.972 -0.9949 -0.8936  0.1186
  101OSM   H11F10164   0.725   5.606   5.970  1.1730 -1.5597  0.6619
  101OSM   H11G10165   0.580   5.511   5.956 -1.1363 -0.7464  1.1722
  101OSM   C12F10166   0.762   5.438   5.854  0.6836  0.2648  0.6026
  101OSM   H12F10167   0.738   5.330   5.841  1.1336  0.1311  0.8637
  101OSM   H12G10168   0.872   5.448   5.866  0.8665  1.5494 -1.4895
  101OSM   C13F10169   0.737   5.514   5.720 -0.2178  0.4751 -0.1339
  101OSM   H13F10170   0.756   5.621   5.745  1.2366  0.6262 -1.6960
  101OSM   H13G10171   0.635   5.486   5.689 -0.2689  1.7652 -1.2093
  101OSM   C14F10172   0.832   5.473   5.607 -0.1467  0.5908 -0.1530
  101OSM   H14F10173   0.839   5.363   5.603  1.0000  0.6753 -1.6840
  101OSM   H14G10174   0.935   5.505   5.633 -0.1804  0.4635  0.1405
  101OSM   C15F10175   0.791   5.532   5.471 -0.3436  0.3013  0.5191
  101OSM   H15F10176   0.703   5.471   5.443  0.7296 -1.4221  0.7212
  101OSM   H15G10177   0.873   5.534   5.397 -0.2702  2.0277  0.6105
  101OSM   C16F10178   0.764   5.683   5.475  0.1920 -0.3155  0.2260
  101OSM   H16F10179   0.859   5.732   5.507  0.9545 -0.7553 -1.2535
  101OSM   H16G10180   0.685   5.693   5.552  0.5814 -0.4772  0.6546
  101OSM   C17F10181   0.718   5.752   5.345  0.5366  0.2309  0.8228
  101OSM   H17F10182   0.614   5.726   5.314  0.8948 -0.0205 -0.2384
  101OSM   H17G10183   0.773   5.703   5.261 -1.1998 -0.0169 -0.2362
  101OSM   C18F10184   0.731   5.903   5.345  0.0223 -0.2747  0.1446
  101OSM   H18F10185   0.830   5.938   5.382 -1.2126  3.3991  0.3515
  101OSM   H18G10186   0.667   5.945   5.425  0.4961 -1.1325  0.9838
  101OSM   H18H10187   0.703   5.942   5.244  1.6149 -0.7395 -0.5190
  102OSM      N10188   4.359   1.754   8.000  0.6322 -0.6689 -0.2095
  102OSM    C1510189   4.430   1.686   7.890  0.5412 -0.0847 -0.8362
  102OSM   H15A10190   4.393   1.708   7.791  0.5193  1.1220 -0.5721
  102OSM   H15B10191   4.433   1.579   7.905  0.6180 -0.1245 -1.1335
  102OSM   H15C10192   4.536   1.708   7.885  0.4376  1.0104  1.0294
  102OSM    C1410193   4.443   1.774   8.128  0.2723  0.6678 -0.7842
  102OSM   H14A10194   4.461   1.690   8.192  1.3651  0.6834 -1.0474
  102OSM   H14B10195   4.385   1.839   8.192  0.0422 -0.0386 -0.2721
  102OSM   H14C10196   4.537   1.822   8.103  2.7805 -4.0600 -1.5945
  102OSM    C1310197   4.337   1.899   7.949 -0.1469 -0.5985  0.5283
  102OSM   H13A10198   4.311   1.972   8.025  0.0494  0.2410 -0.1982
  102OSM   H13B10199   4.253   1.908   7.883 -0.6313  1.5626  1.3504
  102OSM   H13C10200   4.433   1.936   7.916 -0.5273 -0.2563 -0.2099
  102OSM    C1210201   4.219   1.698   8.026 -0.4612 -0.0516  0.4415
  102OSM   H12A10202   4.172   1.772   8.089  1.2795 -0.0279  1.7903
  102OSM   H12B10203   4.233   1.609   8.085  0.6257  0.6612  1.3155
  102OSM    C1110204   4.126   1.669   7.907  0.6815  0.5023  0.5577
  102OSM   H11A10205   4.032   1.630   7.951  0.7668  0.1078  0.3935
  102OSM   H11B10206   4.157   1.579   7.850  1.1170 -0.0974  1.7061
  102OSM      P10207   3.988   1.896   7.851 -0.1719  0.5475 -0.1679
  102OSM    O1310208   3.879   1.860   7.949 -0.2059 -0.0320 -0.4473
  102OSM    O1410209   4.062   2.021   7.878 -1.1086  0.2833  0.1116
  102OSM    O1110210   3.915   1.907   7.711  0.2706 -0.1700  0.4992
  102OSM    O1210211   4.092   1.784   7.822  0.4014  0.0292  0.1930
  102OSM    C1S10212   3.990   1.979   7.604  0.4248 -0.6973  0.2079
  102OSM    H1S10213   4.098   1.954   7.607  0.4032 -0.7146  1.3550
  102OSM    H1T10214   3.979   2.090   7.611 -1.7454 -0.8727  0.3652
  102OSM     NF10215   4.016   2.017   7.373  0.2497  0.2972 -0.3310
  102OSM    HNF10216   3.978   2.102   7.336 -2.1753 -0.3508  0.5082
  102OSM    C2S10217   3.926   1.944   7.465 -0.3058 -0.1859 -0.0564
  102OSM    H2S10218   3.927   1.835   7.445  3.1980 -0.4913  0.9870
  102OSM    C3S10219   3.780   2.002   7.475  0.4517 -0.2586  0.6123
  102OSM    H3S10220   3.782   2.109   7.506  1.6116  0.4697 -1.7775
  102OSM     O310221   3.696   1.932   7.570  0.3275  0.5005  0.4790
  102OSM    HO310222   3.756   1.892   7.633  1.4340  0.1972 -0.7269
  102OSM    C4S10223   3.723   1.989   7.342  0.4312  0.0893  0.0124
  102OSM    H4S10224   3.753   2.074   7.278  0.7698  0.5442  0.7555
  102OSM    C5S10225   3.639   1.902   7.298  0.6834 -0.2826 -0.0798
  102OSM    H5S10226   3.596   1.822   7.360  0.0502 -0.0080 -0.1566
  102OSM    C6S10227   3.595   1.895   7.156 -0.4714  0.9086 -0.0911
  102OSM    H6S10228   3.485   1.907   7.147 -0.5936 -1.2172 -2.6500
  102OSM    H6T10229   3.618   1.795   7.113  0.9144  0.5451  1.3743
  102OSM    C7S10230   3.662   1.987   7.047  0.3480 -0.7575 -0.3753
  102OSM    H7S10231   3.773   1.986   7.047  0.4072 -0.8350 -3.0724
  102OSM    H7T10232   3.627   2.092   7.055  1.7535 -0.3613  1.1351
  102OSM    C8S10233   3.626   1.944   6.903 -0.4470  0.1018 -0.2759
  102OSM    H8S10234   3.516   1.957   6.895 -0.4402 -0.1654 -0.9060
  102OSM    H8T10235   3.634   1.836   6.878 -0.7058 -0.1066  0.5215
  102OSM    C9S10236   3.689   2.025   6.785  0.0367  0.1628 -0.2087
  102OSM    H9S10237   3.796   1.995   6.791 -0.4101 -2.3505 -2.5853
  102OSM    H9T10238   3.680   2.133   6.807 -0.2766 -0.1871  1.4590
  102OSM   C10S10239   3.642   1.989   6.646  0.6985 -0.3159  0.2886
  102OSM   H10S10240   3.533   1.997   6.628  0.8392 -3.2110 -2.8020
  102OSM   H10T10241   3.670   1.883   6.627  2.7059  0.4228 -1.2219
  102OSM   C11S10242   3.719   2.068   6.540  0.0148  0.2934 -0.2790
  102OSM   H11S10243   3.827   2.043   6.550  0.5985  2.7121  0.1938
  102OSM   H11T10244   3.700   2.176   6.557  2.6088  0.6974  0.4660
  102OSM   C12S10245   3.678   2.029   6.401  0.1520  0.1834  0.6579
  102OSM   H12S10246   3.570   2.039   6.378  0.2708 -1.2442 -0.7316
  102OSM   H12T10247   3.694   1.919   6.400 -0.1298  0.1189  1.6859
  102OSM   C13S10248   3.757   2.088   6.279  0.8176  0.4889 -0.1263
  102OSM   H13S10249   3.862   2.054   6.282  0.6870 -0.2926 -2.6775
  102OSM   H13T10250   3.773   2.198   6.290 -0.3621  0.5539  1.2518
  102OSM   C14S10251   3.699   2.063   6.144 -0.3136 -0.0946 -0.2186
  102OSM   H14S10252   3.589   2.076   6.151 -0.1848  0.3406  1.4971
  102OSM   H14T10253   3.715   1.955   6.125  0.3716 -0.0436  0.0375
  102OSM   C15S10254   3.749   2.150   6.025 -0.6808  0.2379 -0.2450
  102OSM   H15S10255   3.734   2.256   6.055 -0.5130 -0.1702  1.3350
  102OSM   H15T10256   3.676   2.136   5.942 -0.0131  0.0404 -0.8120
  102OSM   C16S10257   3.898   2.119   6.004  0.3425 -0.4072  0.0902
  102OSM   H16S10258   3.917   2.010   5.995 -1.2318 -0.7478  0.6685
  102OSM   H16T10259   3.945   2.147   6.101  1.0341 -3.2257  0.6628
  102OSM   C17S10260   3.972   2.189   5.887 -0.2010  0.1608 -0.4588
  102OSM   H17S10261   3.942   2.138   5.793 -0.7470 -0.2726 -0.0528
  102OSM   H17T10262   4.081   2.175   5.904 -0.5677  0.1388  2.3335
  102OSM   C18S10263   3.936   2.340   5.882  0.7058  0.0358 -0.8527
  102OSM   H18S10264   3.826   2.357   5.881  0.8140  0.7589 -1.4747
  102OSM   H18T10265   3.975   2.379   5.785 -0.9076  2.9026 -0.4555
  102OSM   H18U10266   3.982   2.399   5.963 -1.7171  1.3311 -0.3152
  102OSM    C1F10267   4.130   1.963   7.327 -0.6949 -0.9258 -0.1696
  102OSM     OF10268   4.155   1.848   7.349 -0.1891  0.3362 -0.0272
  102OSM    C2F10269   4.211   2.045   7.228 -0.3324 -0.5432 -0.3544
  102OSM    H2F10270   4.313   2.003   7.227 -0.0469  0.0443  1.2638
  102OSM    H2G10271   4.209   2.150   7.265 -3.0735 -0.8425  0.6127
  102OSM    C3F10272   4.160   2.026   7.082 -0.3285  0.6453  0.1618
  102OSM    H3F10273   4.054   2.060   7.077 -0.1760  1.3330  1.1511
  102OSM    H3G10274   4.165   1.917   7.062  2.0465  0.6157  0.6603
  102OSM    C4F10275   4.248   2.091   6.977 -0.4938 -0.0552 -0.8665
  102OSM    H4F10276   4.349   2.046   6.989 -1.6898 -2.4482  1.2343
  102OSM    H4G10277   4.239   2.196   7.012 -1.2850 -0.8653  1.5645
  102OSM    C5F10278   4.201   2.097   6.831 -0.1030 -0.0725  0.2107
  102OSM    H5F10279   4.253   2.179   6.777 -0.3116  0.2743  0.5278
  102OSM    H5G10280   4.095   2.126   6.821 -0.4426 -1.5147 -0.6417
  102OSM    C6F10281   4.230   1.958   6.760 -0.4848 -0.0362 -0.0820
  102OSM    H6F10282   4.201   1.876   6.829  0.4786  1.0132  1.6194
  102OSM    H6G10283   4.338   1.959   6.734  0.2795  1.6008  2.7838
  102OSM    C7F10284   4.141   1.927   6.646 -0.2007 -0.2837  0.2730
  102OSM    H7F10285   4.033   1.935   6.670 -0.7711 -5.3044  0.3571
  102OSM    H7G10286   4.169   1.820   6.638  3.6460  0.6756 -1.6298
  102OSM    C8F10287   4.171   1.992   6.511  0.3426 -0.2363 -0.5833
  102OSM    H8F10288   4.282   1.998   6.500  0.5157  1.6862  1.5222
  102OSM    H8G10289   4.131   2.095   6.508  1.2583  0.1878  0.8328
  102OSM    C9F10290   4.095   1.904   6.411 -0.5125 -0.1357  0.4197
  102OSM    H9F10291   3.986   1.908   6.427 -0.2854  0.2097  2.0440
  102OSM   C10F10292   4.146   1.830   6.302 -0.5782  0.0951 -0.3388
  102OSM   H10F10293   4.082   1.771   6.234  0.7448 -1.4270 -0.3459
  102OSM   C11F10294   4.294   1.828   6.259  0.0096  0.3433 -0.0506
  102OSM   H11F10295   4.330   1.723   6.252 -0.2665  0.3131 -1.1260
  102OSM   H11G10296   4.372   1.883   6.316 -1.2060  1.7549  0.2985
  102OSM   C12F10297   4.296   1.902   6.118 -0.5244  0.0346  0.0837
  102OSM   H12F10298   4.264   2.006   6.142  1.3895  0.7413 -0.2373
  102OSM   H12G10299   4.221   1.855   6.051 -0.7379  0.4243  0.0488
  102OSM   C13F10300   4.440   1.906   6.051  0.4478  0.6789  0.6295
  102OSM   H13F10301   4.480   1.803   6.053  1.0516  0.8530 -0.9745
  102OSM   H13G10302   4.513   1.964   6.111  3.4832 -2.3209  0.1357
  102OSM   C14F10303   4.423   1.959   5.905  1.1672 -0.3249 -0.0427
  102OSM   H14F10304   4.343   1.904   5.852 -1.5067  1.0432  2.3440
  102OSM   H14G10305   4.521   1.938   5.855 -0.9827 -0.5116 -4.7486
  102OSM   C15F10306   4.408   2.106   5.907  0.0984 -0.1467 -0.8191
  102OSM   H15F10307   4.467   2.143   5.994  0.8732 -2.6738 -0.1830
  102OSM   H15G10308   4.303   2.133   5.930 -0.4749 -1.2140 -2.0322
  102OSM   C16F10309   4.447   2.181   5.780 -0.3166 -0.1577 -0.6885
  102OSM   H16F10310   4.412   2.123   5.692 -0.3572  0.3585 -1.0212
  102OSM   H16G10311   4.558   2.177   5.775 -0.2134  1.6370 -0.4846
  102OSM   C17F10312   4.398   2.330   5.763 -0.2366 -0.5333  1.2501
  102OSM   H17F10313   4.446   2.378   5.850 -0.3573  1.6081  0.2049
  102OSM   H17G10314   4.288   2.337   5.778 -0.2649  0.9744  0.5743
  102OSM   C18F10315   4.443   2.385   5.627 -0.7028  0.1027 -0.3761
  102OSM   H18F10316   4.399   2.484   5.601 -0.4342 -0.0329 -1.3967
  102OSM   H18G10317   4.399   2.320   5.549 -0.9783  0.0943 -0.2147
  102OSM   H18H10318   4.553   2.399   5.615 -0.8143  1.3932 -0.1290
  103OSM      N10319   3.499   5.437   7.349  0.2763  0.1461 -0.0579
  103OSM    C1510320   3.524   5.313   7.263  0.0268 -0.7262  0.0353
  103OSM   H15A10321   3.566   5.349   7.170  1.7596  0.7726  1.3138
  103OSM   H15B10322   3.430   5.263   7.243 -0.1979 -2.3483  4.1105
  103OSM   H15C10323   3.592   5.244   7.310  0.4862 -1.7387 -2.0106
  103OSM    C1410324   3.444   5.388   7.481 -0.7121 -0.2448  0.5043
  103OSM   H14A10325   3.414   5.470   7.545 -0.8747  0.4275 -0.4055
  103OSM   H14B10326   3.524   5.332   7.527  0.5154  0.1595 -1.0526
  103OSM   H14C10327   3.371   5.311   7.460 -0.2222 -0.2524 -1.3812
  103OSM    C1310328   3.625   5.513   7.386  0.3556 -0.0389  0.3089
  103OSM   H13A10329   3.661   5.564   7.298  0.0194 -2.4782 -1.3383
  103OSM   H13B10330   3.707   5.445   7.406  0.4292  0.0481  0.3037
  103OSM   H13C10331   3.603   5.569   7.475  1.1749  0.3520  0.2743
  103OSM    C1210332   3.398   5.529   7.283 -0.0109 -0.6150 -0.5580
  103OSM   H12A10333   3.365   5.606   7.351  0.7777  1.3289 -2.2881
  103OSM   H12B10334   3.314   5.466   7.256 -1.1147  1.0361 -1.0857
  103OSM    C1110335   3.454   5.597   7.156  0.4177 -0.2680 -0.1040
  103OSM   H11A10336   3.374   5.632   7.087  1.1237 -1.4913 -1.5934
  103OSM   H11B10337   3.505   5.517   7.099 -1.4790  0.9507 -3.8231
  103OSM      P10338   3.498   5.833   7.259 -0.2384  0.5677 -0.2122
  103OSM    O1310339   3.448   5.796   7.391  0.0476 -0.1445  0.2576
  103OSM    O1410340   3.611   5.927   7.254  0.0858  0.0808 -0.0100
  103OSM    O1110341   3.375   5.880   7.168  0.2311 -0.0674 -0.3006
  103OSM    O1210342   3.544   5.704   7.195  0.1025  0.0897 -0.1252
  103OSM    C1S10343   3.390   5.938   7.038 -0.2149 -0.2469 -0.5136
  103OSM    H1S10344   3.497   5.951   7.010  1.0436 -3.0389  2.3763
  103OSM    H1T10345   3.350   6.042   7.033 -1.6873 -0.7609  0.2473
  103OSM     NF10346   3.317   5.911   6.793  0.0429  0.4873 -0.3850
  103OSM    HNF10347   3.260   5.979   6.747  0.1774  0.3554 -0.7502
  103OSM    C2S10348   3.295   5.866   6.930  0.0525  0.0220 -0.0122
  103OSM    H2S10349   3.317   5.757   6.933 -1.2829 -0.2530  1.3637
  103OSM    C3S10350   3.148   5.881   6.988 -0.2516 -0.0674 -0.0058
  103OSM    H3S10351   3.136   5.991   6.983  0.1720 -0.0075  0.2213
  103OSM     O310352   3.137   5.831   7.126 -0.1128 -0.3843  0.5518
  103OSM    HO310353   3.229   5.816   7.151  0.8560  1.5209 -1.4925
  103OSM    C4S10354   3.052   5.811   6.905 -0.4692  0.3570  0.0736
  103OSM    H4S10355   3.068   5.703   6.892 -0.0958  0.4815 -0.5357
  103OSM    C5S10356   2.959   5.866   6.829 -0.0229 -0.5923  0.3122
  103OSM    H5S10357   2.954   5.976   6.836 -1.8012 -0.6335  0.0834
  103OSM    C6S10358   2.862   5.783   6.748 -0.2487  0.2301 -0.6926
  103OSM    H6S10359   2.763   5.763   6.793 -1.0371  5.1733  0.3513
  103OSM    H6T10360   2.900   5.686   6.708 -1.1418 -0.8394  0.9545
  103OSM    C7S10361   2.814   5.853   6.620 -0.7709 -0.2084 -0.0615
  103OSM    H7S10362   2.893   5.884   6.548 -0.2567 -1.4820 -0.0644
  103OSM    H7T10363   2.776   5.954   6.648 -0.2269 -0.5758  2.2184
  103OSM    C8S10364   2.713   5.777   6.534  0.2516  0.3100  0.4152
  103OSM    H8S10365   2.614   5.752   6.580  0.3414 -1.4205 -0.2546
  103OSM    H8T10366   2.759   5.683   6.497  1.6839  0.6197  1.3232
  103OSM    C9S10367   2.669   5.864   6.409  0.2833  0.7364  0.3977
  103OSM    H9S10368   2.760   5.894   6.353  1.4933  0.1969  2.0067
  103OSM    H9T10369   2.628   5.959   6.449 -0.9275  0.4865 -0.1967
  103OSM   C10S10370   2.552   5.803   6.326  0.2647 -0.4876  0.2357
  103OSM   H10S10371   2.462   5.809   6.392 -0.8453 -0.1322 -1.2674
  103OSM   H10T10372   2.579   5.704   6.283  1.4740 -1.1247  2.3231
  103OSM   C11S10373   2.528   5.890   6.197 -0.0067 -0.0992  0.7756
  103OSM   H11S10374   2.507   5.997   6.220 -1.9523 -0.2774  0.0274
  103OSM   H11T10375   2.444   5.850   6.137  0.0509 -1.2751  1.4563
  103OSM   C12S10376   2.652   5.878   6.100  0.3758 -0.3246 -0.3504
  103OSM   H12S10377   2.694   5.775   6.093  1.6845 -0.0313  2.2021
  103OSM   H12T10378   2.739   5.937   6.135  0.5101 -0.5624 -0.2785
  103OSM   C13S10379   2.626   5.927   5.961  0.1607  0.1791  0.4944
  103OSM   H13S10380   2.589   6.031   5.977 -0.6811 -0.1365  0.6729
  103OSM   H13T10381   2.545   5.869   5.912 -1.7081  1.4090  1.9901
  103OSM   C14S10382   2.743   5.940   5.862  0.6654 -1.0003  0.3829
  103OSM   H14S10383   2.800   5.845   5.866  2.9320  0.2011 -1.2623
  103OSM   H14T10384   2.810   6.023   5.893 -0.0194 -0.5252  0.6171
  103OSM   C15S10385   2.693   5.997   5.722 -0.6962 -0.2016  0.6986
  103OSM   H15S10386   2.649   6.097   5.741 -3.3539 -1.2824  0.6392
  103OSM   H15T10387   2.605   5.936   5.693 -0.1955 -0.3830 -0.5297
  103OSM   C16S10388   2.796   5.992   5.613  0.1567 -0.4002  0.5014
  103OSM   H16S10389   2.842   5.891   5.611  0.1778 -0.3970  0.7732
  103OSM   H16T10390   2.875   6.070   5.624 -1.3730  1.8056 -2.5707
  103OSM   C17S10391   2.728   6.007   5.471 -0.1949  0.0127 -0.5329
  103OSM   H17S10392   2.680   6.106   5.462  0.2224  0.1407 -1.3848
  103OSM   H17T10393   2.647   5.931   5.470  0.3063 -0.5367 -1.8353
  103OSM   C18S10394   2.815   5.965   5.348 -0.6382 -0.3558  0.2280
  103OSM   H18S10395   2.885   6.050   5.329 -1.5320 -0.0386 -1.9056
  103OSM   H18T10396   2.758   5.961   5.253  0.0661  4.3235 -0.6636
  103OSM   H18U10397   2.877   5.876   5.369 -1.0215 -1.3120 -2.3490
  103OSM    C1F10398   3.429   5.893   6.724  0.1676  0.1523 -0.2474
  103OSM     OF10399   3.511   5.818   6.771  0.9504  0.3722  0.1746
  103OSM    C2F10400   3.454   5.969   6.594 -0.6646  0.2313  0.3989
  103OSM    H2F10401   3.424   6.074   6.618 -3.6003 -0.5342  0.4458
  103OSM    H2G10402   3.380   5.927   6.522 -0.9093 -0.1100  0.8526
  103OSM    C3F10403   3.589   5.961   6.533  0.3981 -0.5901 -0.0780
  103OSM    H3F10404   3.610   5.852   6.534 -0.8737 -0.8551  0.6168
  103OSM    H3G10405   3.662   6.010   6.601  3.1616 -0.9449 -2.5942
  103OSM    C4F10406   3.616   6.032   6.394 -0.1686 -0.0703 -0.2621
  103OSM    H4F10407   3.720   6.012   6.360 -0.8947 -5.1290 -0.2881
  103OSM    H4G10408   3.606   6.140   6.419 -1.9098 -0.3644  0.4203
  103OSM    C5F10409   3.516   5.998   6.284  0.2086  0.0470  0.3330
  103OSM    H5F10410   3.412   6.030   6.305  0.6134  3.7365 -2.1865
  103OSM    H5G10411   3.514   5.888   6.274  2.1096  0.1331 -2.1849
  103OSM    C6F10412   3.557   6.062   6.148 -0.6424  0.1010 -0.1269
  103OSM    H6F10413   3.662   6.027   6.132 -0.7776 -0.0343 -0.7131
  103OSM    H6G10414   3.578   6.168   6.171 -1.0940  0.0965  0.3114
  103OSM    C7F10415   3.467   6.055   6.020  0.0300  0.3164 -0.1458
  103OSM    H7F10416   3.361   6.084   6.040  0.5071  1.2428  1.1276
  103OSM    H7G10417   3.468   5.948   5.990 -0.5960  0.4488 -0.6860
  103OSM    C8F10418   3.517   6.131   5.899 -0.0086  0.3101  0.1935
  103OSM    H8F10419   3.457   6.100   5.811 -2.5419  3.5214  0.5754
  103OSM    H8G10420   3.623   6.104   5.881 -0.4518 -1.3769 -0.0485
  103OSM    C9F10421   3.494   6.283   5.919 -0.2369  0.5783  0.5361
  103OSM    H9F10422   3.466   6.310   6.021  0.4372 -2.1993  1.5420
  103OSM   C10F10423   3.524   6.376   5.827  1.0262  0.9862  0.3707
  103OSM   H10F10424   3.526   6.481   5.860  0.0892  0.9694  0.5119
  103OSM   C11F10425   3.556   6.355   5.679  0.8127 -0.5958 -0.5371
  103OSM   H11F10426   3.559   6.248   5.647  3.4483  0.4061 -4.3505
  103OSM   H11G10427   3.662   6.380   5.655  0.7721 -0.1809 -0.2965
  103OSM   C12F10428   3.469   6.430   5.582 -0.4085 -0.5696 -0.5240
  103OSM   H12F10429   3.365   6.402   5.608  0.2160 -0.3404  2.5152
  103OSM   H12G10430   3.495   6.398   5.478 -1.6833 -1.7417 -0.5174
  103OSM   C13F10431   3.490   6.583   5.600  0.2312 -0.2156 -0.2397
  103OSM   H13F10432   3.597   6.610   5.591  0.4585 -1.0380 -0.0758
  103OSM   H13G10433   3.452   6.612   5.700 -2.5315  0.4969 -1.3846
  103OSM   C14F10434   3.395   6.667   5.514 -0.8624 -0.5648 -0.0174
  103OSM   H14F10435   3.409   6.771   5.551  0.3489 -0.3888 -0.9232
  103OSM   H14G10436   3.290   6.634   5.530 -1.7923  2.1193  0.0161
  103OSM   C15F10437   3.434   6.661   5.368  0.0846  0.7172  0.0664
  103OSM   H15F10438   3.407   6.563   5.324  1.0960  0.9160 -1.0502
  103OSM   H15G10439   3.542   6.687   5.354 -0.0347  1.7914  0.9295
  103OSM   C16F10440   3.363   6.775   5.298 -0.5046 -0.3987 -0.2541
  103OSM   H16F10441   3.389   6.765   5.190 -0.5422  2.1599 -0.5668
  103OSM   H16G10442   3.404   6.873   5.330  0.4897 -1.4047  1.6780
  103OSM   C17F10443   3.209   6.767   5.308  0.0660 -0.1351 -0.7113
  103OSM   H17F10444   3.173   6.788   5.411 -1.6000 -0.6675 -1.1566
  103OSM   H17G10445   3.170   6.665   5.291  2.5396 -1.1703 -0.5572
  103OSM   C18F10446   3.145   6.863   5.213 -0.3542 -0.7398  0.3287
  103OSM   H18F10447   3.185   6.856   5.109 -1.0310  1.3065 -0.1205
  103OSM   H18G10448   3.148   6.965   5.257 -3.1422 -0.4966  0.0960
  103OSM   H18H10449   3.035   6.854   5.202 -0.3308 -1.5906  0.7783
  104OSM      N10450   1.738   2.514   7.638  0.6067  0.4822  0.1093
  104OSM    C1510451   1.702   2.391   7.708  0.2512  0.4004 -0.0745
  104OSM   H15A10452   1.657   2.324   7.637  2.3627 -0.9636 -0.2298
  104OSM   H15B10453   1.628   2.415   7.783 -2.6880 -0.2799 -2.5944
  104OSM   H15C10454   1.794   2.339   7.733 -0.1014 -0.8338 -1.2338
  104OSM    C1410455   1.606   2.577   7.586 -0.3018  0.6585  0.8071
  104OSM   H14A10456   1.636   2.661   7.525 -2.1124 -0.1435 -1.3281
  104OSM   H14B10457   1.548   2.629   7.662  2.2895  2.5970  1.6089
  104OSM   H14C10458   1.549   2.506   7.528  3.3533 -2.2038  0.3840
  104OSM    C1310459   1.806   2.608   7.734  0.2165 -0.1992  0.3404
  104OSM   H13A10460   1.730   2.643   7.801  1.1344 -0.9782  1.8568
  104OSM   H13B10461   1.859   2.687   7.683 -1.8777  0.1757 -1.4053
  104OSM   H13C10462   1.879   2.556   7.794  0.0262  0.0969  0.8284
  104OSM    C1210463   1.836   2.477   7.524  0.3255  0.2008  0.3939
  104OSM   H12A10464   1.793   2.399   7.462  2.2822 -2.6982  2.4099
  104OSM   H12B10465   1.914   2.421   7.574  0.2258  0.3106  0.6718
  104OSM    C1110466   1.904   2.582   7.434 -0.5846  0.1720 -0.0829
  104OSM   H11A10467   1.820   2.647   7.400  1.5099  3.7737  1.1061
  104OSM   H11B10468   1.960   2.530   7.353 -1.9224  0.3690 -1.1839
  104OSM      P10469   1.994   2.827   7.508  0.1811  0.3826 -0.3505
  104OSM    O1310470   1.891   2.868   7.607  0.5377  0.2332  0.1075
  104OSM    O1410471   2.129   2.883   7.535 -0.0251 -0.3285  0.8121
  104OSM    O1110472   1.952   2.873   7.360  0.5265  0.2574 -0.7400
  104OSM    O1210473   1.997   2.666   7.501  0.4697  0.2483  0.3829
  104OSM    C1S10474   2.015   2.860   7.244 -0.6179 -0.0335 -0.3737
  104OSM    H1S10475   2.098   2.789   7.262 -0.3590  0.8552  2.3776
  104OSM    H1T10476   2.064   2.956   7.219 -0.6130 -0.2817 -1.3561
  104OSM     NF10477   2.001   2.819   7.000 -0.1925 -0.2374 -0.2331
  104OSM    HNF10478   1.982   2.880   6.923  1.4058  0.4347 -0.1307
  104OSM    C2S10479   1.923   2.821   7.120  0.0378  0.7992 -0.7800
  104OSM    H2S10480   1.885   2.718   7.135  1.8989 -0.0721 -1.6345
  104OSM    C3S10481   1.801   2.923   7.112  0.9101  0.5010  0.1974
  104OSM    H3S10482   1.844   3.020   7.079 -3.0131  2.4298  0.1876
  104OSM     O310483   1.726   2.952   7.225 -0.0223 -0.3252  0.1953
  104OSM    HO310484   1.782   2.923   7.298 -2.2042 -0.1661  2.0342
  104OSM    C4S10485   1.712   2.892   6.995 -0.3653 -0.0767  0.2672
  104OSM    H4S10486   1.697   2.976   6.925  1.5197 -1.0038 -1.3296
  104OSM    C5S10487   1.642   2.774   6.975  0.7347 -0.9318 -0.2773
  104OSM    H5S10488   1.628   2.708   7.062 -3.4816 -1.4226 -1.0859
  104OSM    C6S10489   1.558   2.730   6.855  0.6176  0.0550 -0.5016
  104OSM    H6S10490   1.452   2.730   6.887  0.4517  0.5605 -1.0278
  104OSM    H6T10491   1.578   2.623   6.833 -2.1703 -1.0415  1.7001
  104OSM    C7S10492   1.577   2.825   6.730 -0.3545  0.0291 -0.3778
  104OSM    H7S10493   1.678   2.809   6.687 -0.4777 -1.2967 -0.2208
  104OSM    H7T10494   1.560   2.930   6.761  0.0303 -0.7614  2.8367
  104OSM    C8S10495   1.490   2.793   6.611 -0.3465  0.9706  0.6053
  104OSM    H8S10496   1.392   2.843   6.623 -0.7524  0.0868  1.0889
  104OSM    H8T10497   1.463   2.685   6.609  0.5309  0.6558  2.4785
  104OSM    C9S10498   1.542   2.840   6.473 -0.2450 -0.1849  0.3332
  104OSM    H9S10499   1.646   2.801   6.471  0.0384  0.3453  2.5845
  104OSM    H9T10500   1.550   2.951   6.478 -1.9404 -0.0730  1.5958
  104OSM   C10S10501   1.452   2.800   6.357  0.2028 -0.2188  0.4187
  104OSM   H10S10502   1.343   2.806   6.379 -0.2227 -1.7901 -1.0096
  104OSM   H10T10503   1.473   2.692   6.342  1.6617  0.1469 -0.3208
  104OSM   C11S10504   1.479   2.873   6.225 -0.4993  0.6228  0.4985
  104OSM   H11S10505   1.589   2.865   6.211 -0.6237  2.6115 -2.2512
  104OSM   H11T10506   1.443   2.977   6.217 -0.2473  0.5651 -2.1579
  104OSM   C12S10507   1.410   2.801   6.110 -0.3511 -0.0861  0.5970
  104OSM   H12S10508   1.303   2.824   6.130 -0.8751 -0.2843 -1.7211
  104OSM   H12T10509   1.423   2.691   6.122 -0.3928 -0.4334 -2.0318
  104OSM   C13S10510   1.452   2.854   5.977 -1.0214 -0.2736 -0.2752
  104OSM   H13S10511   1.562   2.844   5.962 -1.0739 -1.6087  0.0934
  104OSM   H13T10512   1.432   2.963   5.972  1.2826  0.3181  1.5387
  104OSM   C14S10513   1.387   2.767   5.868  0.4505  0.1576  0.1746
  104OSM   H14S10514   1.279   2.779   5.889  0.4086  0.3410 -0.1564
  104OSM   H14T10515   1.421   2.665   5.896  1.2274  0.2476 -0.3964
  104OSM   C15S10516   1.440   2.804   5.729  0.3398 -0.2979  0.1568
  104OSM   H15S10517   1.548   2.788   5.709  0.0700 -1.0204 -0.8314
  104OSM   H15T10518   1.419   2.910   5.703  0.3157 -0.7643 -1.9585
  104OSM   C16S10519   1.353   2.732   5.620 -1.0746  0.4053 -0.2556
  104OSM   H16S10520   1.246   2.750   5.646 -1.4035  0.8938 -1.8541
  104OSM   H16T10521   1.386   2.626   5.624 -1.6459  0.1782 -1.3949
  104OSM   C17S10522   1.379   2.787   5.484  0.3285  0.3744  0.0592
  104OSM   H17S10523   1.486   2.795   5.455  0.5675  1.5100  1.1832
  104OSM   H17T10524   1.338   2.890   5.479 -0.1717  0.2726  1.4470
  104OSM   C18S10525   1.312   2.685   5.384 -0.0335  0.4650 -0.2033
  104OSM   H18S10526   1.355   2.583   5.393  2.9005  1.6277  0.0465
  104OSM   H18T10527   1.342   2.714   5.281  0.8629  2.9770  0.6986
  104OSM   H18U10528   1.202   2.684   5.399 -0.1110  0.3865 -0.7566
  104OSM    C1F10529   2.097   2.737   6.968 -0.5730  0.0244 -0.3363
  104OSM     OF10530   2.131   2.639   7.032  0.0327 -0.2904 -0.4656
  104OSM    C2F10531   2.164   2.772   6.835 -0.0365  0.8003  0.1057
  104OSM    H2F10532   2.208   2.873   6.850  2.9092 -0.3369 -0.1930
  104OSM    H2G10533   2.091   2.765   6.753  1.9540 -2.0412 -1.6023
  104OSM    C3F10534   2.285   2.676   6.804  0.1707  0.1331  0.4275
  104OSM    H3F10535   2.250   2.571   6.814 -0.8325  0.4175 -0.0137
  104OSM    H3G10536   2.358   2.692   6.887  0.6849  0.0857 -0.0097
  104OSM    C4F10537   2.361   2.711   6.679  1.2481  0.1845 -0.3279
  104OSM    H4F10538   2.460   2.661   6.672  0.5162 -1.3810  0.1700
  104OSM    H4G10539   2.381   2.820   6.691 -2.5018  0.8617  0.9927
  104OSM    C5F10540   2.276   2.695   6.546  0.0934 -0.2728 -0.5863
  104OSM    H5F10541   2.179   2.747   6.561  0.7153  0.6818  0.2767
  104OSM    H5G10542   2.243   2.589   6.542 -0.3538 -0.1306 -0.7086
  104OSM    C6F10543   2.344   2.748   6.422 -0.4846 -0.0191  0.3423
  104OSM    H6F10544   2.431   2.689   6.386 -0.0924  1.2303 -0.8920
  104OSM    H6G10545   2.373   2.850   6.456 -1.1973 -0.0299  0.9988
  104OSM    C7F10546   2.253   2.773   6.300  0.4341  0.6593 -0.3203
  104OSM    H7F10547   2.172   2.834   6.344 -1.0699 -1.1201 -0.4721
  104OSM    H7G10548   2.207   2.675   6.276  0.8952  0.2554  0.4095
  104OSM    C8F10549   2.319   2.843   6.183 -0.1925  0.0777  0.3939
  104OSM    H8F10550   2.366   2.939   6.216  1.8363 -1.4721  2.2884
  104OSM    H8G10551   2.244   2.874   6.107  1.1172  0.2152 -0.8823
  104OSM    C9F10552   2.420   2.774   6.102 -0.5874 -0.1242  0.8455
  104OSM    H9F10553   2.527   2.782   6.129 -0.3918 -2.6813  1.0923
  104OSM   C10F10554   2.401   2.699   5.996 -0.2055  0.2365 -0.1519
  104OSM   H10F10555   2.485   2.645   5.949  1.7305 -0.0207  3.3372
  104OSM   C11F10556   2.264   2.655   5.940  0.7300 -0.4756  0.6674
  104OSM   H11F10557   2.183   2.682   6.010  0.1701  1.6873 -0.7241
  104OSM   H11G10558   2.258   2.545   5.926  3.1548 -0.3898 -1.9427
  104OSM   C12F10559   2.234   2.737   5.817  0.6454  0.2019  1.0304
  104OSM   H12F10560   2.234   2.848   5.820 -1.2275  0.2365  1.4128
  104OSM   H12G10561   2.132   2.699   5.790  1.3087  0.5131 -2.3270
  104OSM   C13F10562   2.323   2.709   5.698  0.2584 -0.0779 -1.2225
  104OSM   H13F10563   2.325   2.598   5.691 -0.1433 -0.1236 -0.6428
  104OSM   H13G10564   2.428   2.743   5.709  0.4617 -0.2394 -2.5197
  104OSM   C14F10565   2.262   2.755   5.563 -0.3448  0.6469 -0.0183
  104OSM   H14F10566   2.237   2.863   5.570 -3.2145  0.0038  0.6032
  104OSM   H14G10567   2.175   2.692   5.536  1.1317 -1.4065 -0.1593
  104OSM   C15F10568   2.367   2.753   5.445 -0.1698  0.1283 -0.4851
  104OSM   H15F10569   2.465   2.800   5.472 -0.6913 -0.4326  2.6907
  104OSM   H15G10570   2.337   2.818   5.359  2.6785  2.1114 -0.1597
  104OSM   C16F10571   2.395   2.610   5.397  0.2604 -0.2358 -0.9687
  104OSM   H16F10572   2.295   2.572   5.368 -1.0762  1.7146  0.8329
  104OSM   H16G10573   2.427   2.546   5.482 -1.2727 -0.7157 -0.7239
  104OSM   C17F10574   2.510   2.598   5.294 -0.0558  0.4732  0.5083
  104OSM   H17F10575   2.540   2.491   5.293 -1.6788  0.0023 -0.7596
  104OSM   H17G10576   2.596   2.653   5.338  0.2416 -0.3759  1.0265
  104OSM   C18F10577   2.492   2.656   5.150  0.1470  0.0191  0.5873
  104OSM   H18F10578   2.474   2.765   5.160  0.7503 -0.0031  2.1001
  104OSM   H18G10579   2.409   2.613   5.090  0.6708  2.8354 -2.4511
  104OSM   H18H10580   2.587   2.643   5.093  0.3082  0.7573  0.6840
  105OSM      N10581   1.791   1.588   7.807 -0.3006  0.2715  0.2530
  105OSM    C1510582   1.790   1.443   7.825 -0.1050 -0.5462 -0.0170
  105OSM   H15A10583   1.848   1.397   7.745 -0.6353 -1.5635  0.1583
  105OSM   H15B10584   1.688   1.410   7.807 -0.6709  0.4774  1.1905
  105OSM   H15C10585   1.810   1.418   7.928  1.8920  0.4553 -0.1120
  105OSM    C1410586   1.707   1.655   7.913 -0.4434 -0.0124 -0.2992
  105OSM   H14A10587   1.603   1.648   7.884 -0.0729 -1.1400 -1.4435
  105OSM   H14B10588   1.739   1.758   7.909 -0.0469 -0.0728  0.7862
  105OSM   H14C10589   1.730   1.631   8.016  1.0023  0.1217 -0.5625
  105OSM    C1310590   1.929   1.638   7.839 -1.2886  0.1039  0.5102
  105OSM   H13A10591   1.968   1.607   7.934  0.8704 -0.7099 -0.5669
  105OSM   H13B10592   1.932   1.746   7.841  0.0876  0.0846  3.2203
  105OSM   H13C10593   2.006   1.598   7.774 -0.8750  1.0442  0.3936
  105OSM    C1210594   1.747   1.626   7.669 -0.7267  0.4646 -0.1430
  105OSM   H12A10595   1.647   1.588   7.650 -0.7160  0.8345 -0.9932
  105OSM   H12B10596   1.815   1.589   7.594  1.2197 -0.1457  1.8289
  105OSM    C1110597   1.744   1.786   7.635 -0.1808  0.4991  0.2543
  105OSM   H11A10598   1.659   1.839   7.684  0.8370  1.0632  1.4769
  105OSM   H11B10599   1.722   1.792   7.527 -3.2280  1.0797  0.8100
  105OSM      P10600   1.885   1.974   7.737  0.0997  0.8062 -0.1306
  105OSM    O1310601   1.789   1.982   7.851  0.1611 -0.4480 -0.2874
  105OSM    O1410602   2.025   1.989   7.776  0.2482  0.3976 -0.0032
  105OSM    O1110603   1.854   2.071   7.622 -0.2587  0.6226 -0.4063
  105OSM    O1210604   1.876   1.838   7.653 -0.0928 -0.1673  0.3588
  105OSM    C1S10605   1.933   2.079   7.506 -0.3706  0.2724  0.0094
  105OSM    H1S10606   2.017   2.007   7.497  1.1005  1.7002  1.5955
  105OSM    H1T10607   1.974   2.182   7.510  1.4606 -0.4779  2.1210
  105OSM     NF10608   1.930   2.046   7.247  0.1975 -0.3560 -0.2222
  105OSM    HNF10609   1.911   2.117   7.180  3.9934  0.1495 -1.0232
  105OSM    C2S10610   1.846   2.054   7.372 -0.2623 -0.0496 -0.6032
  105OSM    H2S10611   1.801   1.954   7.389  0.4493 -0.4637 -1.1031
  105OSM    C3S10612   1.733   2.152   7.362 -0.2210 -0.1565  0.9681
  105OSM    H3S10613   1.778   2.252   7.343  1.2111 -0.5009  2.3689
  105OSM     O310614   1.667   2.178   7.489  0.4409  0.4177  0.6658
  105OSM    HO310615   1.731   2.145   7.552  2.1357 -1.1486 -1.6974
  105OSM    C4S10616   1.634   2.106   7.255 -0.5003 -1.1830  0.2455
  105OSM    H4S10617   1.634   2.164   7.162 -0.5974 -0.8181  0.4721
  105OSM    C5S10618   1.542   2.001   7.257  0.1094  0.1758 -0.0434
  105OSM    H5S10619   1.541   1.942   7.350  2.7227 -0.8842 -0.5787
  105OSM    C6S10620   1.434   1.964   7.150  0.1053 -0.6838 -0.8942
  105OSM    H6S10621   1.339   1.989   7.201  0.0112 -0.6152 -1.0982
  105OSM    H6T10622   1.437   1.853   7.144  0.1433 -0.7504  0.2071
  105OSM    C7S10623   1.449   2.033   7.012 -0.2260  0.1217  1.0301
  105OSM    H7S10624   1.559   2.040   6.999 -0.2239 -0.2086  0.8704
  105OSM    H7T10625   1.408   2.137   7.009 -1.8613 -0.5069 -1.7392
  105OSM    C8S10626   1.387   1.953   6.895 -0.5238 -0.1950 -0.0107
  105OSM    H8S10627   1.282   1.938   6.929 -0.5230 -0.3167 -0.0611
  105OSM    H8T10628   1.443   1.857   6.890  2.7035  1.5198  0.7118
  105OSM    C9S10629   1.403   2.024   6.759  0.2509  0.0011  0.6512
  105OSM    H9S10630   1.511   2.050   6.757  0.0351  1.1207 -2.5480
  105OSM    H9T10631   1.355   2.124   6.755 -0.4939 -0.1220  4.0975
  105OSM   C10S10632   1.365   1.940   6.637  0.0116 -0.4350 -0.1414
  105OSM   H10S10633   1.254   1.947   6.635  0.1061  1.5583 -0.1467
  105OSM   H10T10634   1.389   1.832   6.640  1.4773 -0.1386 -0.5749
  105OSM   C11S10635   1.434   2.002   6.514 -0.3768  0.9366  0.0166
  105OSM   H11S10636   1.540   1.997   6.545 -1.2052  1.1192  3.1840
  105OSM   H11T10637   1.401   2.107   6.504 -1.9984  0.2976 -2.0912
  105OSM   C12S10638   1.402   1.931   6.383  0.1468 -0.0797 -0.3554
  105OSM   H12S10639   1.292   1.937   6.370  0.2592  1.9442 -0.6853
  105OSM   H12T10640   1.437   1.827   6.397  1.8366  0.6934  1.6269
  105OSM   C13S10641   1.462   2.003   6.259  0.2888  0.0029  0.1026
  105OSM   H13S10642   1.573   2.002   6.268  0.3941 -4.1291 -0.0088
  105OSM   H13T10643   1.432   2.110   6.248  4.7971  1.5209  0.4365
  105OSM   C14S10644   1.436   1.943   6.121  0.4009 -0.0607  0.2204
  105OSM   H14S10645   1.339   1.891   6.107 -1.3308  3.4298 -1.8577
  105OSM   H14T10646   1.512   1.861   6.116  2.0010  1.2855  1.2802
  105OSM   C15S10647   1.430   2.047   6.009 -0.0623  0.6871  0.3860
  105OSM   H15S10648   1.515   2.117   6.023  0.3927  0.3538 -0.5685
  105OSM   H15T10649   1.334   2.102   6.018  0.3861  1.1677  3.2978
  105OSM   C16S10650   1.459   1.988   5.870 -0.4193 -0.5515 -0.2775
  105OSM   H16S10651   1.381   1.912   5.850 -2.4515  1.5521 -0.8366
  105OSM   H16T10652   1.555   1.933   5.869 -0.9364 -1.4878 -0.0083
  105OSM   C17S10653   1.450   2.100   5.766  0.2497  0.1223 -0.6059
  105OSM   H17S10654   1.521   2.181   5.793  0.2161 -0.5457  1.6580
  105OSM   H17T10655   1.351   2.150   5.772  0.3813  0.2054  1.4890
  105OSM   C18S10656   1.481   2.066   5.623 -0.3523  0.1171  0.5215
  105OSM   H18S10657   1.420   1.975   5.602  1.5042 -1.1042  0.1637
  105OSM   H18T10658   1.592   2.055   5.616 -0.1191  1.7609  1.1500
  105OSM   H18U10659   1.454   2.149   5.555 -0.9367  0.6753  1.4106
  105OSM    C1F10660   2.036   1.961   7.221  0.2251 -0.0543  0.6240
  105OSM     OF10661   2.073   1.882   7.304  0.7063  0.6482  0.1769
  105OSM    C2F10662   2.097   1.969   7.084 -0.1688  0.0922 -0.1364
  105OSM    H2F10663   2.176   2.047   7.082  0.7448 -0.8200 -1.8532
  105OSM    H2G10664   2.019   1.999   7.012 -1.0221  1.6321  1.3666
  105OSM    C3F10665   2.152   1.838   7.038 -0.4223  0.4799  0.2362
  105OSM    H3F10666   2.067   1.767   7.029 -0.0221  0.1060 -0.7336
  105OSM    H3G10667   2.222   1.795   7.113 -0.4482  1.0310  0.5816
  105OSM    C4F10668   2.233   1.847   6.904 -0.0424 -0.5209  0.1850
  105OSM    H4F10669   2.311   1.926   6.913 -0.5616  0.3095 -1.9457
  105OSM    H4G10670   2.155   1.885   6.835 -0.4643 -1.5255  0.1015
  105OSM    C5F10671   2.276   1.714   6.855 -0.2913  0.7839 -0.9915
  105OSM    H5F10672   2.219   1.631   6.902  1.0598  0.9894  1.1540
  105OSM    H5G10673   2.382   1.708   6.888  0.0645  1.4477 -1.9549
  105OSM    C6F10674   2.266   1.692   6.707 -0.6839 -0.0980  0.3150
  105OSM    H6F10675   2.158   1.674   6.693 -0.5724 -1.3985  0.9968
  105OSM    H6G10676   2.304   1.596   6.664  0.3829  0.7813 -0.7987
  105OSM    C7F10677   2.317   1.812   6.626 -0.0718  0.5570 -0.6555
  105OSM    H7F10678   2.413   1.840   6.674 -1.4594  2.1111  1.4251
  105OSM    H7G10679   2.259   1.906   6.633 -0.0099  0.5549 -0.0363
  105OSM    C8F10680   2.363   1.776   6.485  0.1259  0.4938 -0.3602
  105OSM    H8F10681   2.414   1.677   6.484 -1.3459 -0.2900 -0.2083
  105OSM    H8G10682   2.446   1.839   6.445  0.3823  0.2797 -0.1678
  105OSM    C9F10683   2.246   1.777   6.392 -0.5247  0.8152 -0.1518
  105OSM    H9F10684   2.175   1.860   6.402 -0.5557  0.7461  0.2213
  105OSM   C10F10685   2.231   1.696   6.290 -0.1272  0.2593  0.2316
  105OSM   H10F10686   2.143   1.698   6.224  0.5561  2.4298 -0.7083
  105OSM   C11F10687   2.323   1.586   6.258 -0.6042  0.3246  0.6873
  105OSM   H11F10688   2.420   1.581   6.310  0.1588 -2.2156 -0.7964
  105OSM   H11G10689   2.350   1.581   6.150  0.6563  0.3800  0.9931
  105OSM   C12F10690   2.247   1.453   6.285  0.1543  0.3304  0.2152
  105OSM   H12F10691   2.157   1.445   6.220  1.8106  1.0364 -2.2963
  105OSM   H12G10692   2.232   1.469   6.394  2.1432 -0.2957  0.6091
  105OSM   C13F10693   2.335   1.328   6.264  0.2112 -0.4420  0.3270
  105OSM   H13F10694   2.432   1.334   6.318  0.7713  0.5327 -0.7450
  105OSM   H13G10695   2.376   1.313   6.162  0.8253  2.3008  0.0630
  105OSM   C14F10696   2.256   1.199   6.296 -0.4285 -0.4171  0.6502
  105OSM   H14F10697   2.323   1.111   6.286 -0.8228 -0.8178  1.4841
  105OSM   H14G10698   2.179   1.188   6.216 -1.4185  1.4183  1.2997
  105OSM   C15F10699   2.195   1.199   6.440 -0.1037 -0.1171  0.0253
  105OSM   H15F10700   2.143   1.103   6.461 -0.4366 -0.1445 -0.8587
  105OSM   H15G10701   2.116   1.276   6.453 -2.1586 -1.9146 -1.0515
  105OSM   C16F10702   2.297   1.213   6.550  0.2110 -0.3017 -0.2841
  105OSM   H16F10703   2.366   1.295   6.519 -1.8335  1.7414  0.3584
  105OSM   H16G10704   2.353   1.118   6.563 -1.0181 -1.2377 -1.5809
  105OSM   C17F10705   2.239   1.266   6.687 -0.1620  0.8647  0.2999
  105OSM   H17F10706   2.172   1.191   6.734 -0.8009  0.3110 -1.4148
  105OSM   H17G10707   2.183   1.357   6.656  0.2020  0.8247 -0.5083
  105OSM   C18F10708   2.335   1.315   6.799  0.9403  0.9559  0.0012
  105OSM   H18F10709   2.409   1.238   6.831 -0.4668 -0.8047 -0.7719
  105OSM   H18G10710   2.271   1.342   6.885 -0.7099  2.1759 -1.5380
  105OSM   H18H10711   2.394   1.403   6.765  1.8851 -0.1030 -1.1820
  106OSM      N10712   1.376   6.619   7.629  0.1744  0.8634  0.8407
  106OSM    C1510713   1.438   6.737   7.552  0.1782 -0.3795  0.1549
  106OSM   H15A10714   1.361   6.804   7.516  1.0251  0.9836  0.8113
  106OSM   H15B10715   1.496   6.704   7.467 -1.3136 -1.4598 -0.4935
  106OSM   H15C10716   1.495   6.806   7.612  0.4849  1.1833 -1.8153
  106OSM    C1410717   1.317   6.672   7.755 -0.3237 -1.1730 -0.6391
  106OSM   H14A10718   1.256   6.590   7.790 -0.6102 -0.7167 -0.0519
  106OSM   H14B10719   1.266   6.767   7.757  0.3522 -0.7991  2.0180
  106OSM   H14C10720   1.397   6.685   7.826  0.8613 -0.5256 -2.0450
  106OSM    C1310721   1.267   6.561   7.549  0.4324 -0.1226  0.5565
  106OSM   H13A10722   1.310   6.533   7.454  1.0203  1.3877  0.3490
  106OSM   H13B10723   1.185   6.631   7.542 -0.7224 -1.0673  3.2437
  106OSM   H13C10724   1.229   6.472   7.599  1.6935 -0.8162  0.3075
  106OSM    C1210725   1.483   6.504   7.659  0.2760  0.1849 -0.5494
  106OSM   H12A10726   1.419   6.419   7.678 -2.9618  1.5297 -3.9480
  106OSM   H12B10727   1.541   6.538   7.743 -2.3938  0.8407  1.1767
  106OSM    C1110728   1.577   6.463   7.544 -0.2136 -0.5127 -0.0145
  106OSM   H11A10729   1.529   6.454   7.444  1.8184  1.6404 -1.3083
  106OSM   H11B10730   1.617   6.364   7.575 -0.1768 -0.6603 -0.5247
  106OSM      P10731   1.802   6.552   7.453  0.1096 -0.2710 -0.1956
  106OSM    O1310732   1.877   6.679   7.468 -0.0736 -0.1435 -0.3549
  106OSM    O1410733   1.876   6.429   7.491 -0.5589 -0.1613  0.8369
  106OSM    O1110734   1.739   6.528   7.306  0.0316  0.3159  0.4734
  106OSM    O1210735   1.674   6.568   7.539  0.2105 -0.5149 -0.0432
  106OSM    C1S10736   1.690   6.641   7.240 -0.0427 -0.0902  0.2371
  106OSM    H1S10737   1.760   6.728   7.240  0.3370 -0.3747 -0.7912
  106OSM    H1T10738   1.598   6.680   7.288  0.1528  0.5209  0.1329
  106OSM     NF10739   1.591   6.713   7.015  0.2148 -0.1446 -0.6033
  106OSM    HNF10740   1.493   6.732   7.006  0.1221  0.9046  1.7347
  106OSM    C2S10741   1.637   6.598   7.095  0.3740 -0.0083  0.0280
  106OSM    H2S10742   1.713   6.553   7.028 -1.0609 -0.7417 -1.1719
  106OSM    C3S10743   1.524   6.486   7.106 -0.0981 -0.1653 -0.0449
  106OSM    H3S10744   1.439   6.527   7.165 -1.0484 -0.5353 -1.1263
  106OSM     O310745   1.543   6.369   7.178 -0.2212  0.6877 -0.1156
  106OSM    HO310746   1.625   6.387   7.225  0.3128  3.3887 -1.8231
  106OSM    C4S10747   1.462   6.452   6.975  0.8011  0.0108  0.2160
  106OSM    H4S10748   1.355   6.477   6.966  0.4768 -1.4962 -0.3927
  106OSM    C5S10749   1.522   6.394   6.871 -0.0767 -0.4179  0.5331
  106OSM    H5S10750   1.628   6.367   6.873 -0.1975 -0.9639 -0.1939
  106OSM    C6S10751   1.444   6.363   6.742 -0.4841 -0.0383  0.1069
  106OSM    H6S10752   1.340   6.333   6.764 -0.2927 -0.2996  0.6818
  106OSM    H6T10753   1.498   6.272   6.709 -0.3913 -0.1056  0.4366
  106OSM    C7S10754   1.442   6.464   6.632  0.0954 -0.0035  0.1691
  106OSM    H7S10755   1.419   6.566   6.671  1.0571 -0.2980  1.5593
  106OSM    H7T10756   1.376   6.418   6.555  1.4297 -1.9617  0.1535
  106OSM    C8S10757   1.577   6.492   6.562  0.3169 -0.3999  0.2748
  106OSM    H8S10758   1.621   6.390   6.559 -2.4888 -1.8731  3.0765
  106OSM    H8T10759   1.640   6.555   6.627 -0.2151 -0.8085  1.2123
  106OSM    C9S10760   1.567   6.541   6.414 -0.0719  0.0099 -0.3435
  106OSM    H9S10761   1.665   6.588   6.388  1.5672 -2.9605  0.0335
  106OSM    H9T10762   1.479   6.608   6.410 -0.6827 -0.6537  1.2771
  106OSM   C10S10763   1.549   6.417   6.323  0.3954  0.1796  0.1789
  106OSM   H10S10764   1.465   6.357   6.365  0.6919 -0.8240 -0.6105
  106OSM   H10T10765   1.638   6.353   6.307 -1.1088 -2.2373  0.8207
  106OSM   C11S10766   1.503   6.459   6.181  0.8632  0.1936 -0.4301
  106OSM   H11S10767   1.404   6.510   6.187  0.2167 -0.6397 -2.9605
  106OSM   H11T10768   1.483   6.371   6.115 -0.3694  0.6670 -0.7164
  106OSM   C12S10769   1.609   6.538   6.100  0.7711  0.1390 -0.1087
  106OSM   H12S10770   1.698   6.472   6.097  1.8981  1.6545 -2.2119
  106OSM   H12T10771   1.620   6.631   6.161 -1.3085 -0.1562  0.7848
  106OSM   C13S10772   1.568   6.566   5.949  0.0655 -0.0447  0.2342
  106OSM   H13S10773   1.549   6.467   5.902  0.8762 -0.0823 -0.0216
  106OSM   H13T10774   1.658   6.605   5.897 -0.8524  2.1149  0.1671
  106OSM   C14S10775   1.434   6.635   5.927 -0.2631 -0.2526  0.3888
  106OSM   H14S10776   1.439   6.734   5.978 -0.5176 -0.3226  0.5560
  106OSM   H14T10777   1.346   6.589   5.978 -0.1346  2.0415  2.9367
  106OSM   C15S10778   1.409   6.666   5.778  0.5065  0.0124  0.6237
  106OSM   H15S10779   1.414   6.578   5.710  2.2516 -0.7313  1.6458
  106OSM   H15T10780   1.490   6.734   5.744 -0.6322 -0.1988 -2.8797
  106OSM   C16S10781   1.277   6.741   5.765  0.1129 -0.0287  0.0394
  106OSM   H16S10782   1.278   6.836   5.824  0.8654  0.0464 -0.0826
  106OSM   H16T10783   1.195   6.681   5.809 -0.5120  1.4174  0.9351
  106OSM   C17S10784   1.240   6.761   5.622 -0.2360 -1.1240  0.1451
  106OSM   H17S10785   1.263   6.665   5.570 -1.1669 -2.5258  2.1872
  106OSM   H17T10786   1.313   6.836   5.584 -1.0540 -1.3391 -1.9893
  106OSM   C18S10787   1.095   6.813   5.598 -0.7118 -0.3184 -0.2419
  106OSM   H18S10788   1.011   6.749   5.635 -0.2722 -0.7978 -0.0645
  106OSM   H18T10789   1.075   6.816   5.489  1.4835 -2.5894 -0.7906
  106OSM   H18U10790   1.070   6.912   5.643 -1.4536 -0.7990  0.4375
  106OSM    C1F10791   1.675   6.807   6.985  0.4750 -0.4327  0.2349
  106OSM     OF10792   1.790   6.783   7.004 -0.5590 -0.8661  0.5405
  106OSM    C2F10793   1.623   6.931   6.925  0.4630 -0.5478 -0.3498
  106OSM    H2F10794   1.638   7.019   6.991 -1.1393  0.1951 -0.9141
  106OSM    H2G10795   1.515   6.904   6.927  0.2510  0.2758  0.3028
  106OSM    C3F10796   1.679   6.945   6.789  0.5043  0.3419  1.1008
  106OSM    H3F10797   1.783   6.909   6.780  0.5128  0.2811  1.4473
  106OSM    H3G10798   1.680   7.051   6.755  0.7524 -0.1478 -0.5317
  106OSM    C4F10799   1.600   6.864   6.686 -0.2337  0.6160  1.3604
  106OSM    H4F10800   1.494   6.897   6.684  0.2016  2.2734 -2.2208
  106OSM    H4G10801   1.615   6.756   6.711  1.6555  0.3647 -0.5472
  106OSM    C5F10802   1.648   6.884   6.542  0.6194 -0.3825 -0.2860
  106OSM    H5F10803   1.595   6.818   6.469 -0.2189  0.7810 -0.7648
  106OSM    H5G10804   1.757   6.868   6.529  0.4522 -0.8939 -1.1741
  106OSM    C6F10805   1.601   7.021   6.486 -0.6848  0.3019 -0.0002
  106OSM    H6F10806   1.629   7.100   6.560 -1.1146 -1.0983  1.7282
  106OSM    H6G10807   1.491   7.020   6.468 -0.5566 -1.3717 -0.8121
  106OSM    C7F10808   1.665   7.066   6.352 -0.1516  0.2773  0.3771
  106OSM    H7F10809   1.775   7.053   6.367 -0.0877 -0.0561 -0.3341
  106OSM    H7G10810   1.647   7.175   6.343 -0.8325  0.1171 -0.2902
  106OSM    C8F10811   1.615   6.992   6.222 -0.1002  0.3391  0.3949
  106OSM    H8F10812   1.655   6.888   6.231 -0.0093  0.5327  2.8305
  106OSM    H8G10813   1.669   7.035   6.135  3.4959 -1.7443  1.3694
  106OSM    C9F10814   1.464   6.999   6.204 -0.3643 -0.0110 -0.6892
  106OSM    H9F10815   1.417   6.933   6.278  0.0618  1.1409  0.6504
  106OSM   C10F10816   1.391   7.061   6.103 -0.3804  0.4804  0.0437
  106OSM   H10F10817   1.282   7.049   6.111 -0.4274 -0.1230 -1.2327
  106OSM   C11F10818   1.448   7.157   5.999 -0.3723 -0.4828 -0.1184
  106OSM   H11F10819   1.552   7.193   6.013 -1.2006  1.5401  1.5016
  106OSM   H11G10820   1.381   7.245   6.011 -0.6066 -0.4006 -1.8681
  106OSM   C12F10821   1.439   7.097   5.852 -0.1190 -0.1446 -0.3376
  106OSM   H12F10822   1.333   7.075   5.830 -0.5619 -0.1837  1.6518
  106OSM   H12G10823   1.488   6.997   5.850 -0.4909 -0.3403  0.1640
  106OSM   C13F10824   1.490   7.195   5.746  0.3903 -0.6602  0.4758
  106OSM   H13F10825   1.595   7.228   5.763 -0.4267  2.2992  0.2881
  106OSM   H13G10826   1.420   7.281   5.746 -0.7012 -1.5322  0.3230
  106OSM   C14F10827   1.480   7.143   5.599  0.4697 -0.0373 -0.2787
  106OSM   H14F10828   1.504   7.232   5.537  1.1477  0.7469  1.0803
  106OSM   H14G10829   1.375   7.111   5.581  0.9681 -0.8484 -1.9560
  106OSM   C15F10830   1.583   7.034   5.555  0.0315 -0.7620 -0.7399
  106OSM   H15F10831   1.578   6.942   5.616  1.2616 -0.3135  0.0681
  106OSM   H15G10832   1.684   7.077   5.570  0.9323 -2.4112 -1.8099
  106OSM   C16F10833   1.546   7.005   5.408  0.5347  0.1928  0.1695
  106OSM   H16F10834   1.559   7.105   5.361 -2.3693  0.9806  0.7682
  106OSM   H16G10835   1.438   6.978   5.404  0.0008  2.1611  0.2101
  106OSM   C17F10836   1.631   6.902   5.337 -0.6627  0.5115 -0.7165
  106OSM   H17F10837   1.625   6.804   5.389  2.8509 -0.2988 -1.5813
  106OSM   H17G10838   1.737   6.932   5.340  0.2961 -2.4126 -1.3424
  106OSM   C18F10839   1.594   6.875   5.198  0.7066  0.3626 -0.3510
  106OSM   H18F10840   1.487   6.846   5.193  0.9411 -0.5370 -0.3366
  106OSM   H18G10841   1.646   6.792   5.146 -1.3464 -0.9029 -0.5186
  106OSM   H18H10842   1.607   6.961   5.129 -1.1497 -0.6968 -2.1360
  107OSM      N10843   4.785   4.144   7.983  0.1441  0.5891 -0.4612
  107OSM    C1510844   4.775   3.994   7.983 -0.3167  0.2824  0.2906
  107OSM   H15A10845   4.871   3.950   8.008 -1.4657 -1.9251  1.1252
  107OSM   H15B10846   4.744   3.957   7.886 -0.0051 -0.3100  0.4120
  107OSM   H15C10847   4.717   3.949   8.063  0.2158 -0.9859 -0.0014
  107OSM    C1410848   4.651   4.206   8.007 -0.1717  0.4657  0.5794
  107OSM   H14A10849   4.588   4.182   7.922 -1.3866  0.4263  1.4642
  107OSM   H14B10850   4.668   4.310   8.027 -0.8047  0.8580 -0.7780
  107OSM   H14C10851   4.596   4.163   8.090  0.4605 -2.4133 -0.3625
  107OSM    C1310852   4.874   4.185   8.095  0.1439 -0.0378 -0.5770
  107OSM   H13A10853   4.830   4.173   8.193  0.0991  0.5845 -0.5173
  107OSM   H13B10854   4.897   4.291   8.101  2.7147 -0.5737  0.5869
  107OSM   H13C10855   4.969   4.135   8.087  0.9903  1.5269 -0.7519
  107OSM    C1210856   4.846   4.198   7.857  0.6210 -0.1407 -0.3131
  107OSM   H12A10857   4.947   4.161   7.843  0.1502 -0.5440 -3.6160
  107OSM   H12B10858   4.851   4.306   7.868 -1.2830  0.0705 -1.1107
  107OSM    C1110859   4.780   4.166   7.723  0.2937 -0.2879 -0.3146
  107OSM   H11A10860   4.845   4.211   7.645  0.9998 -4.5213 -2.4263
  107OSM   H11B10861   4.681   4.217   7.723  0.5369  0.1956 -0.6802
  107OSM      P10862   4.833   3.949   7.586  0.3730  0.0632  0.2494
  107OSM    O1310863   4.971   3.993   7.587  0.7380 -0.6301  0.4912
  107OSM    O1410864   4.800   3.805   7.596  0.7968  0.9167 -0.2800
  107OSM    O1110865   4.767   4.003   7.452 -0.2677  0.1491  0.3826
  107OSM    O1210866   4.761   4.028   7.704 -0.1214  0.3710 -0.5951
  107OSM    C1S10867   4.828   3.956   7.329  0.6545  0.3902  0.0126
  107OSM    H1S10868   4.829   3.845   7.325  2.2783  0.3912 -0.6233
  107OSM    H1T10869   4.935   3.981   7.314  1.4785 -1.5977  2.0826
  107OSM     NF10870   4.794   3.941   7.088  0.2803  0.0212  0.5219
  107OSM    HNF10871   4.853   3.990   7.025 -0.2953 -2.4121 -2.0842
  107OSM    C2S10872   4.744   4.007   7.206 -0.5131  0.2760  0.3404
  107OSM    H2S10873   4.640   3.971   7.216 -0.1040 -1.2252 -0.5475
  107OSM    C3S10874   4.742   4.165   7.205  0.0001 -0.7139  0.1305
  107OSM    H3S10875   4.847   4.196   7.183  0.6043 -2.2827  0.6269
  107OSM     O310876   4.711   4.229   7.326  0.2162  0.6976 -0.3550
  107OSM    HO310877   4.710   4.162   7.395 -2.7788 -1.0958 -1.9351
  107OSM    C4S10878   4.661   4.200   7.089 -0.1984  0.6242  1.1206
  107OSM    H4S10879   4.721   4.202   6.997 -0.2359 -2.7682  0.8908
  107OSM    C5S10880   4.533   4.223   7.083  0.8231 -0.0748 -0.4681
  107OSM    H5S10881   4.472   4.219   7.175  0.6513  0.2434 -0.5699
  107OSM    C6S10882   4.458   4.255   6.952 -0.0575 -0.0094 -0.9159
  107OSM    H6S10883   4.434   4.364   6.953 -0.8361 -0.1790 -0.5178
  107OSM    H6T10884   4.359   4.206   6.949 -0.2877  0.3814 -4.9627
  107OSM    C7S10885   4.544   4.228   6.825 -0.2753  0.0188  0.3722
  107OSM    H7S10886   4.581   4.123   6.827 -0.5029 -0.1389 -1.4874
  107OSM    H7T10887   4.635   4.291   6.832  0.4677 -1.1345  1.5620
  107OSM    C8S10888   4.471   4.256   6.691 -0.2068 -0.1196  0.3126
  107OSM    H8S10889   4.439   4.362   6.701  1.5413  0.4650  0.0446
  107OSM    H8T10890   4.371   4.208   6.684 -0.2059 -0.1456  0.4772
  107OSM    C9S10891   4.554   4.242   6.565 -0.1345 -0.3843 -0.4987
  107OSM    H9S10892   4.583   4.135   6.560 -0.5860 -0.5243 -0.1272
  107OSM    H9T10893   4.645   4.305   6.579 -0.2197 -0.6948  1.8151
  107OSM   C10S10894   4.477   4.277   6.437  0.2410  0.9082  0.5284
  107OSM   H10S10895   4.441   4.382   6.432  1.1824  1.2983  1.4792
  107OSM   H10T10896   4.386   4.216   6.422  1.1765 -0.0668 -1.6544
  107OSM   C11S10897   4.578   4.259   6.318  0.3585  0.0438  0.5310
  107OSM   H11S10898   4.652   4.182   6.350  0.5255  0.4876  1.2278
  107OSM   H11T10899   4.645   4.347   6.309  0.5136 -0.0753  0.5148
  107OSM   C12S10900   4.503   4.239   6.193  0.2663  0.1683  0.4366
  107OSM   H12S10901   4.398   4.276   6.184  0.8009  1.5963 -0.3667
  107OSM   H12T10902   4.497   4.129   6.189  0.0154  0.2067 -0.4671
  107OSM   C13S10903   4.578   4.305   6.081  0.1258 -0.8332  0.4003
  107OSM   H13S10904   4.687   4.291   6.096  0.6007  2.7731  1.1312
  107OSM   H13T10905   4.567   4.413   6.103  0.8675 -0.6521 -0.0840
  107OSM   C14S10906   4.525   4.268   5.944  1.1610 -0.2468  0.2581
  107OSM   H14S10907   4.415   4.282   5.947  0.8700 -1.6296 -1.8509
  107OSM   H14T10908   4.561   4.165   5.924  0.1089 -0.5141 -0.3241
  107OSM   C15S10909   4.573   4.373   5.833 -0.0152  0.1046 -0.4856
  107OSM   H15S10910   4.559   4.326   5.733  0.0186  2.1904 -1.5421
  107OSM   H15T10911   4.683   4.386   5.838  0.2446 -2.1263  0.6395
  107OSM   C16S10912   4.496   4.499   5.837  0.4832 -0.1262  0.0133
  107OSM   H16S10913   4.495   4.551   5.936 -2.1092 -2.3815  1.3036
  107OSM   H16T10914   4.389   4.471   5.825  0.3560  0.5018 -0.3440
  107OSM   C17S10915   4.518   4.589   5.724  0.4901 -0.3439  1.4176
  107OSM   H17S10916   4.508   4.530   5.631  0.5578  2.0875 -0.2178
  107OSM   H17T10917   4.618   4.638   5.724  0.7554 -0.8098 -0.3869
  107OSM   C18S10918   4.409   4.696   5.717  0.0709  0.5564 -0.0791
  107OSM   H18S10919   4.402   4.749   5.619 -1.4187 -1.2181 -0.9972
  107OSM   H18T10920   4.423   4.774   5.795 -0.8004  1.6511 -0.9660
  107OSM   H18U10921   4.308   4.649   5.723  0.6551 -1.4696 -3.4871
  107OSM    C1F10922   4.761   3.813   7.063 -0.8504 -0.0220 -0.2120
  107OSM     OF10923   4.713   3.739   7.150  0.3565 -0.3180  0.1692
  107OSM    C2F10924   4.790   3.766   6.920  0.4487  0.4111 -0.2926
  107OSM    H2F10925   4.857   3.844   6.878 -0.3181 -0.1840 -2.7226
  107OSM    H2G10926   4.694   3.749   6.867  0.0011 -0.1169  0.6493
  107OSM    C3F10927   4.883   3.641   6.928 -0.0835 -0.1899 -0.3491
  107OSM    H3F10928   4.834   3.569   6.997 -1.1094  0.8028 -0.0259
  107OSM    H3G10929   4.977   3.670   6.980 -0.4352 -2.1160  1.5120
  107OSM    C4F10930   4.931   3.578   6.791 -0.1837 -0.1495 -0.3891
  107OSM    H4F10931   4.844   3.544   6.730 -1.1416  2.8543 -0.8469
  107OSM    H4G10932   4.980   3.486   6.831  0.8916  0.9882  1.0069
  107OSM    C5F10933   5.018   3.679   6.708  0.2313  0.4347 -0.1600
  107OSM    H5F10934   5.092   3.733   6.771  0.3961 -1.1314  1.0449
  107OSM    H5G10935   4.947   3.756   6.669  1.7389  0.4626 -3.1189
  107OSM    C6F10936   5.099   3.617   6.593  0.2285 -0.4108  0.2463
  107OSM    H6F10937   5.027   3.572   6.522  1.9056 -0.5877 -1.4307
  107OSM    H6G10938   5.165   3.534   6.628  1.5949  0.6774  0.3372
  107OSM    C7F10939   5.170   3.724   6.508 -0.1383 -0.1503 -0.0182
  107OSM    H7F10940   5.203   3.815   6.564  1.0984 -0.3582 -0.3799
  107OSM    H7G10941   5.083   3.760   6.449  0.5695 -1.6024 -2.0721
  107OSM    C8F10942   5.288   3.667   6.429  0.3136 -0.1873  0.0213
  107OSM    H8F10943   5.377   3.681   6.494  1.4393  3.6031 -2.0096
  107OSM    H8G10944   5.300   3.744   6.349 -1.5592 -0.0438 -0.1725
  107OSM    C9F10945   5.262   3.530   6.376 -0.2937 -0.5122 -0.2967
  107OSM    H9F10946   5.308   3.453   6.440  1.2203  0.8276  0.2842
  107OSM   C10F10947   5.215   3.503   6.255  0.2570  0.4461 -0.5486
  107OSM   H10F10948   5.184   3.399   6.237  0.4155  0.2860  0.0809
  107OSM   C11F10949   5.148   3.601   6.159  0.0529 -0.5036  0.4610
  107OSM   H11F10950   5.218   3.679   6.121  0.4362 -1.9262 -1.9745
  107OSM   H11G10951   5.058   3.650   6.200 -0.4969  0.3286 -1.6110
  107OSM   C12F10952   5.080   3.523   6.043  0.2373 -0.0484  0.2107
  107OSM   H12F10953   4.993   3.465   6.081 -0.6347  1.9149  1.4050
  107OSM   H12G10954   5.154   3.456   5.996  0.7286  0.2260  0.5849
  107OSM   C13F10955   5.037   3.629   5.943 -0.0107  0.4536 -0.0345
  107OSM   H13F10956   5.113   3.706   5.916 -0.2360  1.0071  0.8520
  107OSM   H13G10957   4.950   3.682   5.989 -2.2104 -1.6217 -1.6194
  107OSM   C14F10958   4.970   3.577   5.808  0.3845  0.1895 -0.2826
  107OSM   H14F10959   4.919   3.666   5.766  2.2535  1.8297  0.7478
  107OSM   H14G10960   4.895   3.499   5.830  0.7784  0.0559  0.6330
  107OSM   C15F10961   5.075   3.540   5.706  0.1289  0.3312 -0.2768
  107OSM   H15F10962   5.111   3.437   5.727  0.5090  0.6579  0.7441
  107OSM   H15G10963   5.155   3.617   5.712 -0.3865  0.8906 -0.4556
  107OSM   C16F10964   5.026   3.552   5.563 -0.6467 -0.3845  0.0926
  107OSM   H16F10965   4.924   3.509   5.549 -1.4029  0.7668  1.7548
  107OSM   H16G10966   5.097   3.489   5.505 -1.5735 -0.4725 -0.9680
  107OSM   C17F10967   5.018   3.692   5.507  0.3619 -0.1645 -0.0828
  107OSM   H17F10968   5.113   3.744   5.531  0.4036  1.1067 -2.6063
  107OSM   H17G10969   4.936   3.749   5.557 -0.5522  0.0942 -1.7801
  107OSM   C18F10970   4.988   3.684   5.356  0.1081  0.3171 -0.0441
  107OSM   H18F10971   4.892   3.633   5.336  0.1055  0.4806 -0.4546
  107OSM   H18G10972   5.064   3.632   5.294 -0.3053 -0.9493  0.4812
  107OSM   H18H10973   4.962   3.785   5.317  0.0596  0.6022  0.6929
  108OSM      N10974   1.668   4.193   7.760 -0.5370 -0.2183  0.6379
  108OSM    C1510975   1.657   4.059   7.823 -0.1165  0.1314 -0.6835
  108OSM   H15A10976   1.581   3.995   7.779 -0.9034 -0.6153  1.6374
  108OSM   H15B10977   1.617   4.069   7.923 -0.6067 -2.6247 -0.5281
  108OSM   H15C10978   1.741   3.993   7.834 -1.4247 -1.4221  0.4867
  108OSM    C1410979   1.541   4.265   7.779  0.2662 -0.9306  0.1326
  108OSM   H14A10980   1.517   4.297   7.880 -0.5800 -2.8487  0.5932
  108OSM   H14B10981   1.460   4.208   7.738  0.7858 -1.1863 -0.5520
  108OSM   H14C10982   1.540   4.353   7.717 -1.3245 -0.8097  0.2912
  108OSM    C1310983   1.782   4.270   7.818  0.2279  0.0765 -0.1715
  108OSM   H13A10984   1.880   4.229   7.796  1.2281  2.0400  0.4435
  108OSM   H13B10985   1.754   4.275   7.922 -1.8133 -0.7284 -0.6472
  108OSM   H13C10986   1.779   4.371   7.782  0.8548  0.0972 -0.1854
  108OSM    C1210987   1.701   4.172   7.614 -0.1576  0.0901  0.2562
  108OSM   H12A10988   1.619   4.109   7.582 -1.6800  2.0458  0.0254
  108OSM   H12B10989   1.790   4.112   7.611 -0.1465  0.0819  0.7265
  108OSM    C1110990   1.699   4.298   7.528  0.0424 -0.2114 -0.0712
  108OSM   H11A10991   1.751   4.381   7.580 -0.1180  1.8696 -2.9932
  108OSM   H11B10992   1.600   4.349   7.528 -0.1450 -0.5420  1.2732
  108OSM      P10993   1.672   4.220   7.286 -0.0690 -0.1383  0.2716
  108OSM    O1310994   1.626   4.081   7.307 -0.5321 -0.3074 -0.0377
  108OSM    O1410995   1.564   4.315   7.263  0.2344  0.4343 -0.0117
  108OSM    O1110996   1.759   4.225   7.159  0.2690 -0.2074  0.2769
  108OSM    O1210997   1.769   4.275   7.405 -0.4725  0.1574 -0.1007
  108OSM    C1S10998   1.716   4.195   7.027 -0.1041 -0.3021  0.2630
  108OSM    H1S10999   1.606   4.212   7.015 -0.0809  1.6831  2.2567
  108OSM    H1T11000   1.741   4.088   7.013  1.1723 -0.0041  0.1646
  108OSM     NF11001   1.730   4.241   6.795 -0.3484  0.5573 -0.3541
  108OSM    HNF11002   1.775   4.177   6.733 -0.4086  0.4155 -0.2519
  108OSM    C2S11003   1.790   4.279   6.923 -0.2226  0.4553 -0.0589
  108OSM    H2S11004   1.760   4.383   6.948  0.6534  0.3851  1.3887
  108OSM    C3S11005   1.947   4.268   6.933  0.0772 -0.0313 -0.2929
  108OSM    H3S11006   1.966   4.160   6.921 -0.5185  0.0673 -2.4761
  108OSM     O311007   1.991   4.308   7.063  0.0249  0.4569  0.3260
  108OSM    HO311008   1.927   4.282   7.130 -1.3449  0.0823 -1.0683
  108OSM    C4S11009   2.007   4.345   6.820 -0.3374 -0.0098 -0.0982
  108OSM    H4S11010   2.057   4.287   6.741 -1.9568  1.5044 -2.3425
  108OSM    C5S11011   2.015   4.477   6.808 -0.0224 -0.6493 -0.0728
  108OSM    H5S11012   1.989   4.541   6.894 -0.5001 -0.6775 -0.1933
  108OSM    C6S11013   2.086   4.554   6.697 -0.1994  0.0630 -0.4372
  108OSM    H6S11014   2.110   4.658   6.725  1.0975 -0.6316  1.1885
  108OSM    H6T11015   2.022   4.562   6.606 -1.4826  3.8355  0.6245
  108OSM    C7S11016   2.225   4.497   6.654 -0.1236  0.0512  0.2698
  108OSM    H7S11017   2.216   4.393   6.616  1.1228 -0.1890  0.5539
  108OSM    H7T11018   2.280   4.478   6.749 -0.8717  1.0103  0.9098
  108OSM    C8S11019   2.309   4.582   6.561  0.3486  0.4032  0.2975
  108OSM    H8S11020   2.402   4.525   6.541 -0.6395 -0.3522 -2.6325
  108OSM    H8T11021   2.333   4.679   6.610  2.1115 -0.6641  1.6766
  108OSM    C9S11022   2.245   4.611   6.427 -0.4923  1.3529 -0.0046
  108OSM    H9S11023   2.169   4.690   6.446 -0.1007  1.8934 -0.6187
  108OSM    H9T11024   2.190   4.520   6.394  0.9333  0.4056  0.1432
  108OSM   C10S11025   2.340   4.658   6.313 -0.0813  0.4808  0.0233
  108OSM   H10S11026   2.422   4.714   6.363  0.3475 -0.2672  0.1756
  108OSM   H10T11027   2.288   4.728   6.244 -1.3527 -0.4781 -0.0290
  108OSM   C11S11028   2.379   4.540   6.220 -0.0632  0.2344  0.1368
  108OSM   H11S11029   2.302   4.461   6.210  0.1994 -0.2376  1.6322
  108OSM   H11T11030   2.473   4.498   6.263 -0.6420 -0.6316  0.5880
  108OSM   C12S11031   2.415   4.596   6.077 -0.2981 -0.5294 -0.5051
  108OSM   H12S11032   2.498   4.665   6.103 -0.6385  0.3464 -1.6385
  108OSM   H12T11033   2.336   4.662   6.035 -1.7960 -1.8880  0.1090
  108OSM   C13S11034   2.460   4.485   5.989 -0.3471  0.0943  0.3039
  108OSM   H13S11035   2.377   4.414   5.967 -1.3726  1.5179 -0.7108
  108OSM   H13T11036   2.547   4.430   6.030  0.9859 -0.1546 -2.5910
  108OSM   C14S11037   2.503   4.527   5.845 -0.2485  0.0395 -0.0271
  108OSM   H14S11038   2.593   4.591   5.850 -0.0287 -0.3429  1.0962
  108OSM   H14T11039   2.415   4.582   5.804 -0.6672 -2.4130 -2.7951
  108OSM   C15S11040   2.527   4.396   5.755 -0.6015 -0.1759 -0.0826
  108OSM   H15S11041   2.431   4.344   5.733 -0.5858 -0.3277  0.1990
  108OSM   H15T11042   2.576   4.321   5.821  1.0180  1.5063  0.7480
  108OSM   C16S11043   2.604   4.420   5.622  0.8301  0.4504 -0.9844
  108OSM   H16S11044   2.701   4.463   5.657  1.0077 -2.2583  2.3455
  108OSM   H16T11045   2.563   4.500   5.556  1.0090  1.7332  0.3881
  108OSM   C17S11046   2.637   4.297   5.544 -0.1482 -0.5956 -0.1703
  108OSM   H17S11047   2.707   4.233   5.602 -0.1736 -1.3285 -0.9287
  108OSM   H17T11048   2.688   4.331   5.451  0.0974  1.7364  0.7446
  108OSM   C18S11049   2.518   4.216   5.505  0.0541 -0.0383  0.4971
  108OSM   H18S11050   2.457   4.289   5.448  3.3692  0.7384 -2.4335
  108OSM   H18T11051   2.460   4.174   5.590  0.8535 -2.2925  0.0080
  108OSM   H18U11052   2.552   4.132   5.440 -0.4569  0.1785 -0.0572
  108OSM    C1F11053   1.609   4.287   6.763  0.3266  0.2025 -0.9703
  108OSM     OF11054   1.542   4.351   6.847  0.7922 -0.4659  0.5326
  108OSM    C2F11055   1.552   4.255   6.631 -0.3806  0.2453 -0.1066
  108OSM    H2F11056   1.624   4.256   6.547 -2.2963  1.7908 -1.8541
  108OSM    H2G11057   1.472   4.331   6.615 -0.4641  0.1642 -0.0771
  108OSM    C3F11058   1.494   4.114   6.627  0.3689 -0.1855 -0.5177
  108OSM    H3F11059   1.417   4.098   6.704 -0.7473  0.0690 -1.5488
  108OSM    H3G11060   1.577   4.043   6.643 -1.2435 -1.5923  2.1879
  108OSM    C4F11061   1.410   4.083   6.501  0.3174  0.2637  1.1065
  108OSM    H4F11062   1.481   4.092   6.416 -0.5965 -1.2643  0.1198
  108OSM    H4G11063   1.324   4.152   6.501 -0.1812 -0.3484  1.2849
  108OSM    C5F11064   1.344   3.944   6.494  0.0628  0.3977 -0.1685
  108OSM    H5F11065   1.242   3.948   6.536  0.4310 -3.3268  1.4306
  108OSM    H5G11066   1.400   3.865   6.548 -0.3964 -0.6262 -1.1402
  108OSM    C6F11067   1.318   3.881   6.351  0.0823  0.7670  0.7438
  108OSM    H6F11068   1.421   3.877   6.310  0.6835 -0.5072  2.2470
  108OSM    H6G11069   1.255   3.943   6.285 -0.7498 -0.6342  0.1679
  108OSM    C7F11070   1.256   3.732   6.354 -0.5534  0.6716 -0.6535
  108OSM    H7F11071   1.155   3.737   6.400 -0.5523 -2.8225 -0.0051
  108OSM    H7G11072   1.332   3.672   6.409  0.3454 -1.3292 -3.8033
  108OSM    C8F11073   1.249   3.673   6.220 -0.7167 -0.9061  0.1695
  108OSM    H8F11074   1.223   3.565   6.217  1.1370 -1.3797 -2.3773
  108OSM    H8G11075   1.358   3.667   6.198 -0.5466  0.0614  0.6811
  108OSM    C9F11076   1.169   3.755   6.119 -0.3211  0.7954  0.1887
  108OSM    H9F11077   1.126   3.848   6.159 -3.0598 -0.1553 -0.3654
  108OSM   C10F11078   1.149   3.734   5.985 -0.2210  0.1387 -0.2476
  108OSM   H10F11079   1.075   3.802   5.940 -0.2823  0.6639  0.6240
  108OSM   C11F11080   1.191   3.618   5.889  0.2925  0.0393 -0.5695
  108OSM   H11F11081   1.096   3.565   5.866 -0.7673  1.9818 -0.8989
  108OSM   H11G11082   1.256   3.544   5.941 -1.9743 -0.7590  1.2804
  108OSM   C12F11083   1.259   3.666   5.761 -0.6975 -0.2883  0.7056
  108OSM   H12F11084   1.296   3.580   5.701 -1.2362  0.7140 -1.1639
  108OSM   H12G11085   1.338   3.739   5.787 -1.3337  1.1047 -1.0717
  108OSM   C13F11086   1.155   3.714   5.654 -0.3869 -0.3402 -1.2654
  108OSM   H13F11087   1.088   3.791   5.698  1.5238  1.3816 -1.2096
  108OSM   H13G11088   1.088   3.626   5.641 -1.1916  0.0219  0.1498
  108OSM   C14F11089   1.209   3.757   5.523 -0.7308 -0.7674  0.6466
  108OSM   H14F11090   1.223   3.661   5.469 -1.0318 -1.3247  1.5458
  108OSM   H14G11091   1.304   3.812   5.538  0.3067 -2.0428 -0.8513
  108OSM   C15F11092   1.111   3.834   5.438  0.4246  0.0633  0.3592
  108OSM   H15F11093   1.072   3.928   5.483 -1.5440 -0.1669 -0.7903
  108OSM   H15G11094   1.027   3.764   5.423 -0.4994  0.8742  1.5193
  108OSM   C16F11095   1.160   3.869   5.296  0.2592 -0.5912  0.2927
  108OSM   H16F11096   1.235   3.794   5.261  2.1025 -0.2005  3.0478
  108OSM   H16G11097   1.217   3.964   5.296 -1.8982  0.8454 -3.2542
  108OSM   C17F11098   1.044   3.877   5.192 -0.3364 -0.4070 -0.2498
  108OSM   H17F11099   0.964   3.945   5.229 -0.5977 -1.9442  2.2779
  108OSM   H17G11100   0.998   3.776   5.189 -0.9775 -0.1138 -0.4964
  108OSM   C18F11101   1.094   3.912   5.052 -0.0876  0.0329  0.1202
  108OSM   H18F11102   1.004   3.939   4.992  0.9157  1.4207 -0.8345
  108OSM   H18G11103   1.156   3.834   5.001 -0.0580  0.6317 -0.7942
  108OSM   H18H11104   1.152   4.006   5.044  0.3930 -0.3962 -2.4381
  109OSM      N11105   0.278   5.902   7.670 -0.1840  0.2400  0.1902
  109OSM    C1511106   0.265   6.053   7.694  0.3237  0.0391  0.1336
  109OSM   H15A11107   0.185   6.102   7.640 -0.2974 -0.9119  0.1541
  109OSM   H15B11108   0.360   6.098   7.669 -0.3348  1.2637 -0.2314
  109OSM   H15C11109   0.259   6.078   7.799  3.2877  1.6805  0.0292
  109OSM    C1411110   0.413   5.854   7.714 -0.5711 -0.0339 -0.4994
  109OSM   H14A11111   0.437   5.883   7.815  0.6966 -1.2432 -0.4245
  109OSM   H14B11112   0.486   5.894   7.644  0.1421 -0.0610  0.2172
  109OSM   H14C11113   0.404   5.747   7.706 -1.2104  0.0981 -1.9882
  109OSM    C1311114   0.177   5.842   7.760  0.8225  0.1790 -0.6169
  109OSM   H13A11115   0.180   5.865   7.865 -0.1818  1.6923 -0.8974
  109OSM   H13B11116   0.173   5.734   7.759 -0.1854  0.1475 -3.4439
  109OSM   H13C11117   0.078   5.876   7.733 -0.1281 -1.8450  0.1465
  109OSM    C1211118   0.257   5.866   7.523  0.6166  0.3056 -0.0564
  109OSM   H12A11119   0.156   5.890   7.493  1.3204 -0.7343 -3.7737
  109OSM   H12B11120   0.271   5.760   7.513 -3.1982 -0.3802  0.3953
  109OSM    C1111121   0.346   5.945   7.422  0.2270  0.1891  0.1520
  109OSM   H11A11122   0.342   6.053   7.446 -0.6158  0.0291  0.7268
  109OSM   H11B11123   0.298   5.921   7.324  0.9233  0.7823 -0.3520
  109OSM      P11124   0.550   5.794   7.342  0.4520  0.0387 -0.0909
  109OSM    O1311125   0.697   5.822   7.318  0.1374  0.3084 -0.1958
  109OSM    O1411126   0.504   5.666   7.399 -0.0518  0.4187  0.0984
  109OSM    O1111127   0.484   5.814   7.206  0.1011 -0.1655 -0.1937
  109OSM    O1211128   0.489   5.911   7.424  0.3065 -0.1548  0.5862
  109OSM    C1S11129   0.483   5.940   7.138 -0.2284  0.0216  0.0364
  109OSM    H1S11130   0.552   6.013   7.184 -0.3535 -1.6863  3.1938
  109OSM    H1T11131   0.381   5.985   7.140 -0.0364  0.5733  3.2747
  109OSM     NF11132   0.513   6.079   6.930 -0.6963 -0.0002 -0.2694
  109OSM    HNF11133   0.429   6.092   6.877  0.2990  0.0385 -1.9210
  109OSM    C2S11134   0.528   5.945   6.987  0.2894 -0.3138 -0.8271
  109OSM    H2S11135   0.632   5.914   6.964  1.0575  1.4355  0.1861
  109OSM    C3S11136   0.451   5.845   6.900  0.1804  1.1426 -0.1742
  109OSM    H3S11137   0.343   5.872   6.904 -0.2049 -0.2060 -0.8574
  109OSM     O311138   0.450   5.707   6.951 -0.2492 -0.1097  0.0045
  109OSM    HO311139   0.466   5.712   7.046  0.1122 -1.6550  0.0605
  109OSM    C4S11140   0.502   5.848   6.757 -0.0042 -0.1726  0.4389
  109OSM    H4S11141   0.430   5.910   6.701 -1.1431  0.6604  2.7119
  109OSM    C5S11142   0.612   5.792   6.704  0.1708 -0.5361 -0.1155
  109OSM    H5S11143   0.678   5.731   6.768 -0.1305 -1.7951 -0.9637
  109OSM    C6S11144   0.655   5.811   6.563  0.5829  0.1419  0.4688
  109OSM    H6S11145   0.676   5.710   6.523  4.7427  0.9698  0.1156
  109OSM    H6T11146   0.757   5.854   6.568  1.5817 -2.1317  0.5516
  109OSM    C7S11147   0.585   5.900   6.463  0.4609  0.3787 -1.0056
  109OSM    H7S11148   0.567   5.998   6.514 -0.1419 -0.7906  1.1607
  109OSM    H7T11149   0.485   5.861   6.433  0.5773  0.5342 -1.6099
  109OSM    C8S11150   0.664   5.923   6.335 -0.3354  0.0666 -0.4301
  109OSM    H8S11151   0.661   5.833   6.270 -0.9072  1.6700 -2.7769
  109OSM    H8T11152   0.764   5.960   6.366 -1.5922  1.2502  2.5054
  109OSM    C9S11153   0.606   6.041   6.259  0.4862 -0.1727  0.0611
  109OSM    H9S11154   0.600   6.135   6.319  0.6571  0.1315 -0.3928
  109OSM    H9T11155   0.500   6.019   6.233  0.4834  1.2550 -1.2674
  109OSM   C10S11156   0.691   6.074   6.131 -0.5998 -0.0923 -0.2187
  109OSM   H10S11157   0.800   6.063   6.149 -1.0162 -1.1192  2.0425
  109OSM   H10T11158   0.674   6.176   6.091 -1.9567  1.4432  3.7442
  109OSM   C11S11159   0.645   5.974   6.025  0.1597 -1.0375 -0.6039
  109OSM   H11S11160   0.534   5.979   6.027  0.2061  0.0812  0.3452
  109OSM   H11T11161   0.676   5.876   6.067  2.0469  0.7481  2.6151
  109OSM   C12S11162   0.705   6.005   5.883  0.6398 -0.0068 -0.5243
  109OSM   H12S11163   0.687   5.923   5.811 -0.8939  1.7318 -2.2327
  109OSM   H12T11164   0.814   6.022   5.897  0.3877  0.2255  1.4624
  109OSM   C13S11165   0.636   6.131   5.817 -0.5222  0.3540  0.0605
  109OSM   H13S11166   0.670   6.219   5.875 -1.8580  0.2455  1.0613
  109OSM   H13T11167   0.528   6.115   5.835  0.1333 -3.5072  1.5520
  109OSM   C14S11168   0.655   6.132   5.665 -0.0826  0.0739  0.3625
  109OSM   H14S11169   0.654   6.032   5.616  0.2599  0.7182 -1.0406
  109OSM   H14T11170   0.758   6.170   5.647 -0.3677 -0.1507 -2.1025
  109OSM   C15S11171   0.569   6.232   5.586 -0.2765  0.9156  0.1992
  109OSM   H15S11172   0.529   6.314   5.650  0.5213  0.4769  1.2621
  109OSM   H15T11173   0.477   6.179   5.552  1.5697 -2.6003  0.3155
  109OSM   C16S11174   0.651   6.305   5.473 -0.4878  0.3065  0.3371
  109OSM   H16S11175   0.682   6.238   5.390 -0.0962 -0.8007  1.3469
  109OSM   H16T11176   0.742   6.351   5.518 -0.0043 -0.3877  0.0871
  109OSM   C17S11177   0.571   6.429   5.419  0.1579 -0.7517 -0.1612
  109OSM   H17S11178   0.559   6.493   5.509 -0.3274 -0.6954 -0.2666
  109OSM   H17T11179   0.469   6.404   5.383 -0.2680  1.5614 -0.7823
  109OSM   C18S11180   0.663   6.504   5.314 -0.0795  0.7452  0.2880
  109OSM   H18S11181   0.618   6.598   5.276 -0.0523  0.5374 -0.2663
  109OSM   H18T11182   0.677   6.426   5.236 -0.2917  0.7269  0.2665
  109OSM   H18U11183   0.761   6.526   5.363  0.3563 -0.5303  0.0408
  109OSM    C1F11184   0.585   6.181   6.962  0.4748 -0.2548 -0.3702
  109OSM     OF11185   0.674   6.167   7.044 -0.0420 -0.4262  0.2968
  109OSM    C2F11186   0.551   6.319   6.894 -0.2748  0.2645 -0.1324
  109OSM    H2F11187   0.567   6.400   6.969  0.6888 -0.1572  0.1419
  109OSM    H2G11188   0.443   6.327   6.874 -0.5059  1.5786  1.4210
  109OSM    C3F11189   0.649   6.351   6.770  0.0407  0.8364 -0.0997
  109OSM    H3F11190   0.756   6.342   6.797  0.1250  3.3400  0.6665
  109OSM    H3G11191   0.633   6.459   6.752 -0.5441  0.6163 -0.9951
  109OSM    C4F11192   0.616   6.277   6.641  0.4442  0.8637 -0.6833
  109OSM    H4F11193   0.514   6.310   6.615 -0.4166 -0.8558  0.3615
  109OSM    H4G11194   0.621   6.166   6.653  1.0017  0.8240 -1.2432
  109OSM    C5F11195   0.700   6.313   6.525  0.4028 -0.2070 -0.0643
  109OSM    H5F11196   0.743   6.230   6.465  0.1733 -0.1359 -0.3256
  109OSM    H5G11197   0.792   6.353   6.574  0.7126 -2.9864  1.9038
  109OSM    C6F11198   0.636   6.409   6.429 -0.0335  0.4356  0.3546
  109OSM    H6F11199   0.610   6.495   6.494  0.4720  0.4948  0.4824
  109OSM    H6G11200   0.545   6.368   6.380 -0.9600  0.4800  1.9808
  109OSM    C7F11201   0.733   6.461   6.322 -0.1424 -0.6058 -0.0039
  109OSM    H7F11202   0.763   6.387   6.244 -2.0672 -0.3491 -1.0455
  109OSM    H7G11203   0.823   6.493   6.378  0.3558 -1.9396  0.0088
  109OSM    C8F11204   0.675   6.578   6.246  0.6129 -0.0426  0.6974
  109OSM    H8F11205   0.749   6.653   6.209 -0.4919  2.3273  2.9777
  109OSM    H8G11206   0.614   6.631   6.322  1.1776  2.5018 -0.5029
  109OSM    C9F11207   0.577   6.545   6.135  0.0231  0.0804 -0.0062
  109OSM    H9F11208   0.480   6.512   6.175 -0.5163  0.8225 -0.6705
  109OSM   C10F11209   0.600   6.558   6.004  0.1105  0.1992 -0.6291
  109OSM   H10F11210   0.516   6.518   5.944 -0.4921 -3.3679  2.2731
  109OSM   C11F11211   0.726   6.613   5.945 -0.5100  0.5434 -0.5666
  109OSM   H11F11212   0.813   6.552   5.978  0.1262  0.8558 -1.5894
  109OSM   H11G11213   0.748   6.712   5.990  2.9988 -1.2424  2.1617
  109OSM   C12F11214   0.733   6.631   5.797 -0.1216  0.3112  0.2601
  109OSM   H12F11215   0.737   6.527   5.758  1.4462 -0.3285  1.9760
  109OSM   H12G11216   0.832   6.676   5.777  0.4948 -0.0959  2.1883
  109OSM   C13F11217   0.616   6.713   5.743  0.3201 -0.0004 -0.2405
  109OSM   H13F11218   0.605   6.797   5.815  3.2725  0.3287 -0.0352
  109OSM   H13G11219   0.522   6.653   5.745  0.4059 -0.1250  0.7812
  109OSM   C14F11220   0.657   6.781   5.610  0.0865  0.4733 -0.0326
  109OSM   H14F11221   0.683   6.694   5.546  0.7441  2.2398 -2.3072
  109OSM   H14G11222   0.740   6.852   5.627  0.6035 -0.1605  0.1441
  109OSM   C15F11223   0.549   6.866   5.537  1.0196  0.4401  0.1435
  109OSM   H15F11224   0.452   6.812   5.539  1.8466 -1.0894  1.4944
  109OSM   H15G11225   0.585   6.873   5.433 -0.8907  1.3165 -0.5136
  109OSM   C16F11226   0.520   7.005   5.604  0.6485  0.0884  0.0900
  109OSM   H16F11227   0.619   7.048   5.631 -1.0177  2.5860  2.8604
  109OSM   H16G11228   0.456   6.989   5.694  3.1861  1.4195  2.2636
  109OSM   C17F11229   0.458   7.108   5.511 -0.2430  0.0932  0.5708
  109OSM   H17F11230   0.352   7.083   5.493  0.4250 -3.0359  0.5053
  109OSM   H17G11231   0.510   7.098   5.413 -2.9897 -0.1278 -0.9718
  109OSM   C18F11232   0.476   7.249   5.572  0.2626 -0.0822  0.5974
  109OSM   H18F11233   0.407   7.314   5.515  0.9835 -0.4889 -0.7819
  109OSM   H18G11234   0.580   7.285   5.558 -0.1913  0.4409 -1.8142
  109OSM   H18H11235   0.457   7.252   5.682  2.1711  0.1449  0.9570
  110OSM      N11236   1.291   2.579   8.087 -0.0021 -0.1650  0.8365
  110OSM    C1511237   1.234   2.614   8.213 -0.4935 -0.3807 -0.6759
  110OSM   H15A11238   1.312   2.642   8.282 -3.2280  1.3652  1.9253
  110OSM   H15B11239   1.177   2.537   8.263  2.1190 -1.8317  0.2544
  110OSM   H15C11240   1.169   2.700   8.204 -1.3448 -1.0402 -0.9331
  110OSM    C1411241   1.374   2.700   8.044  0.3450 -0.2761 -0.1709
  110OSM   H14A11242   1.319   2.792   8.032  2.6038  1.1566 -0.0457
  110OSM   H14B11243   1.409   2.686   7.943 -1.1828  0.9806 -0.9207
  110OSM   H14C11244   1.449   2.736   8.112  1.4511 -0.7324 -1.1166
  110OSM    C1311245   1.378   2.461   8.108 -0.6549  0.0741  0.3323
  110OSM   H13A11246   1.317   2.394   8.166 -3.6600  0.9898 -1.5089
  110OSM   H13B11247   1.468   2.495   8.157  0.7856 -0.6984 -1.6383
  110OSM   H13C11248   1.414   2.422   8.014 -0.1078 -2.8880  1.6499
  110OSM    C1211249   1.181   2.564   7.980 -0.9145  0.1445  0.1313
  110OSM   H12A11250   1.129   2.658   7.973  1.5082  1.5962  0.3954
  110OSM   H12B11251   1.106   2.497   8.020 -0.0680 -1.6795 -1.1744
  110OSM    C1111252   1.229   2.514   7.842  0.4604 -0.1012 -0.1485
  110OSM   H11A11253   1.142   2.494   7.776 -1.4533 -0.2225  2.2637
  110OSM   H11B11254   1.282   2.417   7.856  0.9677  0.0328 -1.0821
  110OSM      P11255   1.267   2.740   7.697  0.2157 -0.0188  0.5500
  110OSM    O1311256   1.152   2.810   7.764 -1.0701 -0.0837 -0.2801
  110OSM    O1411257   1.387   2.817   7.667 -0.3677 -0.1398  0.7225
  110OSM    O1111258   1.208   2.674   7.567  0.2303  0.1362  0.5214
  110OSM    O1211259   1.322   2.611   7.779 -0.3713  0.1436 -0.5679
  110OSM    C1S11260   1.170   2.763   7.459 -0.0729 -0.3715  0.0972
  110OSM    H1S11261   1.264   2.806   7.418  0.3623 -0.2733  1.1427
  110OSM    H1T11262   1.100   2.846   7.485  1.4650  0.8591  0.5080
  110OSM     NF11263   1.097   2.774   7.214 -0.2598 -0.4860 -0.1485
  110OSM    HNF11264   1.007   2.812   7.194  0.5907  1.5936 -0.2972
  110OSM    C2S11265   1.102   2.685   7.335 -0.6776 -0.7513 -0.0378
  110OSM    H2S11266   1.172   2.602   7.311  0.3218 -0.1723  0.7749
  110OSM    C3S11267   0.969   2.626   7.387  0.0419 -0.9182  0.2594
  110OSM    H3S11268   0.911   2.709   7.434  0.8837  0.5635 -1.2350
  110OSM     O311269   0.987   2.540   7.505  0.2571 -0.7428 -0.4945
  110OSM    HO311270   1.078   2.553   7.534  0.7775  0.8340 -2.6228
  110OSM    C4S11271   0.876   2.564   7.290  0.3651  0.2053 -0.0322
  110OSM    H4S11272   0.929   2.489   7.229 -0.0446  0.0725 -0.2355
  110OSM    C5S11273   0.741   2.578   7.261 -0.5093  0.0854  0.0232
  110OSM    H5S11274   0.672   2.633   7.327 -1.8789  0.7297 -1.8747
  110OSM    C6S11275   0.670   2.505   7.151  0.3356  0.2112  0.0388
  110OSM    H6S11276   0.567   2.544   7.141  1.1991  2.3269 -1.4796
  110OSM    H6T11277   0.653   2.399   7.180 -1.0244  0.3275 -0.2611
  110OSM    C7S11278   0.756   2.506   7.020 -0.0635 -0.5436 -0.2008
  110OSM    H7S11279   0.844   2.440   7.037  0.0859  0.4061  3.4762
  110OSM    H7T11280   0.788   2.609   6.992  0.2773  0.2993  2.9471
  110OSM    C8S11281   0.678   2.443   6.905  0.1722  0.0775 -0.7531
  110OSM    H8S11282   0.576   2.485   6.891 -0.5975 -1.0692  1.0606
  110OSM    H8T11283   0.667   2.335   6.927  0.4007  0.2205  0.0785
  110OSM    C9S11284   0.753   2.442   6.766 -0.1568 -1.0614 -0.0620
  110OSM    H9S11285   0.841   2.375   6.763  1.0319  0.4273  0.3512
  110OSM    H9T11286   0.790   2.546   6.760 -2.2255 -0.1404  1.9072
  110OSM   C10S11287   0.654   2.420   6.653 -0.1387 -0.4567 -0.2790
  110OSM   H10S11288   0.574   2.494   6.673  0.1466 -0.4824  1.0414
  110OSM   H10T11289   0.606   2.320   6.665 -2.1345  0.6970  2.3090
  110OSM   C11S11290   0.729   2.438   6.519  0.3650  0.9357 -0.5720
  110OSM   H11S11291   0.817   2.371   6.510  1.0628  1.9368 -1.5865
  110OSM   H11T11292   0.754   2.546   6.505  0.1059  0.9107 -1.2918
  110OSM   C12S11293   0.645   2.399   6.403  0.4928  0.5814 -0.7406
  110OSM   H12S11294   0.556   2.465   6.388 -1.4521 -1.2104  1.9257
  110OSM   H12T11295   0.612   2.295   6.424  1.5188  0.1696 -1.1124
  110OSM   C13S11296   0.730   2.380   6.277  0.5105  0.2324  0.3244
  110OSM   H13S11297   0.803   2.296   6.281 -0.3466 -0.5264  0.5029
  110OSM   H13T11298   0.783   2.477   6.269  2.8626 -0.9043  1.0978
  110OSM   C14S11299   0.638   2.347   6.148 -0.3186 -0.2522 -0.4564
  110OSM   H14S11300   0.565   2.430   6.144 -0.5092 -0.3518  0.7889
  110OSM   H14T11301   0.591   2.248   6.161 -1.2429  0.2850  0.4101
  110OSM   C15S11302   0.714   2.338   6.013  0.5863  0.1764 -0.0502
  110OSM   H15S11303   0.793   2.261   6.021  1.3981  0.8681 -1.2303
  110OSM   H15T11304   0.753   2.440   5.989  0.3929  0.1318 -0.5637
  110OSM   C16S11305   0.619   2.302   5.895  0.3929 -0.2532 -0.5290
  110OSM   H16S11306   0.525   2.361   5.911 -0.4043 -1.1951 -1.5671
  110OSM   H16T11307   0.580   2.202   5.922 -0.9512  0.6800  1.2846
  110OSM   C17S11308   0.685   2.313   5.762  0.7951  0.7860  0.0522
  110OSM   H17S11309   0.763   2.234   5.769 -0.1710 -0.2477 -0.4560
  110OSM   H17T11310   0.730   2.414   5.753  1.1685  0.7231  1.0641
  110OSM   C18S11311   0.590   2.283   5.651  0.3563 -0.2104 -0.0880
  110OSM   H18S11312   0.548   2.180   5.655 -0.3849  0.0353 -1.2777
  110OSM   H18T11313   0.635   2.301   5.551  2.4599  0.9589  0.9947
  110OSM   H18U11314   0.501   2.348   5.651  0.5506  0.0626 -0.9624
  110OSM    C1F11315   1.205   2.821   7.148  0.2253 -0.1830  0.5984
  110OSM     OF11316   1.318   2.801   7.184 -0.2502 -0.4800 -0.0989
  110OSM    C2F11317   1.180   2.902   7.025  0.5418  0.4235 -0.3874
  110OSM    H2F11318   1.276   2.891   6.969  0.2532 -0.8269 -0.6520
  110OSM    H2G11319   1.179   3.011   7.049  1.3519  0.0102  1.8173
  110OSM    C3F11320   1.067   2.855   6.939  0.0677 -0.1677  1.3832
  110OSM    H3F11321   0.974   2.861   6.998 -1.3596  2.9774 -0.9041
  110OSM    H3G11322   1.076   2.745   6.927 -2.3578 -0.2725 -0.2484
  110OSM    C4F11323   1.078   2.913   6.800  0.3105  0.2384  0.3664
  110OSM    H4F11324   1.178   2.897   6.755 -1.0460 -0.5221 -2.6350
  110OSM    H4G11325   1.080   3.024   6.795 -2.6315  0.4592  1.9425
  110OSM    C5F11326   0.975   2.847   6.706 -0.8944 -0.7374  0.2317
  110OSM    H5F11327   0.868   2.858   6.732 -0.7274  1.1819  0.2219
  110OSM    H5G11328   0.989   2.737   6.719 -0.3392 -0.5572  1.2436
  110OSM    C6F11329   1.007   2.874   6.561 -0.1314  0.1088 -0.2998
  110OSM    H6F11330   1.113   2.847   6.539  0.0245  0.7123 -0.3018
  110OSM    H6G11331   1.002   2.984   6.552  1.0234  0.3785  1.5790
  110OSM    C7F11332   0.907   2.808   6.460 -0.4970 -0.5154  0.0331
  110OSM    H7F11333   0.810   2.857   6.481 -0.3092  0.4799 -1.3028
  110OSM    H7G11334   0.880   2.703   6.485  0.4479 -0.5612  0.9576
  110OSM    C8F11335   0.953   2.812   6.317 -0.2135 -0.2209  0.4768
  110OSM    H8F11336   1.051   2.760   6.306 -0.2834 -0.3345  0.3884
  110OSM    H8G11337   0.973   2.920   6.303 -4.7244  0.9463  1.4796
  110OSM    C9F11338   0.854   2.757   6.221 -0.1006  0.6389 -0.3080
  110OSM    H9F11339   0.756   2.718   6.252 -0.7169  1.7202 -0.8041
  110OSM   C10F11340   0.881   2.761   6.093 -0.2918  0.0106 -0.1614
  110OSM   H10F11341   0.803   2.720   6.028  0.1348 -1.1158  0.0113
  110OSM   C11F11342   1.000   2.827   6.022  0.0127 -0.1838 -0.2592
  110OSM   H11F11343   1.089   2.763   6.008  0.7681  0.7577  0.1054
  110OSM   H11G11344   1.038   2.916   6.077  1.0125 -0.5388 -0.3625
  110OSM   C12F11345   0.942   2.875   5.890 -0.0329 -0.0249 -0.1257
  110OSM   H12F11346   1.010   2.946   5.838 -0.9716  3.8742  3.3707
  110OSM   H12G11347   0.852   2.938   5.907  1.5190  2.3586 -0.3123
  110OSM   C13F11348   0.918   2.761   5.787 -0.0455 -0.0417 -0.0123
  110OSM   H13F11349   0.835   2.696   5.823 -1.7261  0.3116 -2.9227
  110OSM   H13G11350   1.016   2.707   5.789  0.3922  0.5677 -2.1474
  110OSM   C14F11351   0.902   2.809   5.641 -0.1655  0.2588 -0.4400
  110OSM   H14F11352   0.980   2.886   5.630  1.6751 -0.7714  3.7302
  110OSM   H14G11353   0.804   2.862   5.642  0.7486  2.0039  0.9317
  110OSM   C15F11354   0.900   2.694   5.540  0.2285  0.3533  0.0364
  110OSM   H15F11355   0.830   2.615   5.574 -0.8655  1.8313  1.3588
  110OSM   H15G11356   1.004   2.656   5.544  0.0298 -0.0967  3.3045
  110OSM   C16F11357   0.861   2.733   5.388  0.4184  0.2774  0.5298
  110OSM   H16F11358   0.925   2.816   5.351 -0.5233  0.9560  0.3610
  110OSM   H16G11359   0.763   2.786   5.397  0.5133  0.4777  0.3676
  110OSM   C17F11360   0.853   2.618   5.285 -0.1041  0.1602 -0.0598
  110OSM   H17F11361   0.952   2.568   5.275  0.6953  1.1434  2.2253
  110OSM   H17G11362   0.817   2.663   5.190 -1.2725  0.3467  0.4475
  110OSM   C18F11363   0.759   2.509   5.318  0.2704  0.2014 -0.4698
  110OSM   H18F11364   0.783   2.461   5.415 -0.1526 -1.0421 -0.9583
  110OSM   H18G11365   0.761   2.439   5.231  0.4825 -0.8457  0.3564
  110OSM   H18H11366   0.656   2.551   5.325 -0.5672 -1.4959 -1.7285
  111OSM      N11367   3.164   3.383   7.770  0.0791 -0.0434  0.4429
  111OSM    C1511368   3.092   3.376   7.639  0.3928 -0.2705 -0.2683
  111OSM   H15A11369   3.129   3.296   7.577 -0.6130  0.9118 -2.4995
  111OSM   H15B11370   3.090   3.469   7.584 -2.4828 -0.7911 -1.1823
  111OSM   H15C11371   2.991   3.342   7.658  1.4427 -3.5630  0.1033
  111OSM    C1411372   3.093   3.476   7.867  1.1750  0.0551  0.0703
  111OSM   H14A11373   3.151   3.463   7.957  1.9881  0.3545 -0.3996
  111OSM   H14B11374   2.995   3.442   7.896  0.5665 -0.5510 -2.4835
  111OSM   H14C11375   3.087   3.578   7.830 -0.5753  0.2140  0.6936
  111OSM    C1311376   3.157   3.243   7.831 -0.0486  0.7467  0.4368
  111OSM   H13A11377   3.180   3.243   7.937  0.3121 -1.8777  0.4181
  111OSM   H13B11378   3.215   3.169   7.778 -2.3799 -0.6319 -0.3016
  111OSM   H13C11379   3.054   3.210   7.833  0.4984 -1.8342 -3.2047
  111OSM    C1211380   3.311   3.428   7.751 -0.3268  0.1965 -0.0486
  111OSM   H12A11381   3.314   3.532   7.721  0.9010  0.7779  1.8667
  111OSM   H12B11382   3.357   3.372   7.671  0.9827  1.2612 -0.0938
  111OSM    C1111383   3.390   3.429   7.882  0.4257  0.4306  0.3221
  111OSM   H11A11384   3.394   3.330   7.931 -1.3267  0.7203  1.1224
  111OSM   H11B11385   3.345   3.500   7.954 -0.1094 -0.0289  0.4465
  111OSM      P11386   3.647   3.409   7.822 -0.4052 -0.3593  0.0236
  111OSM    O1311387   3.758   3.475   7.894 -0.1781 -0.7197  0.3371
  111OSM    O1411388   3.631   3.264   7.843 -0.8111  0.3296 -0.0617
  111OSM    O1111389   3.653   3.445   7.668 -0.3292  0.1677  0.4630
  111OSM    O1211390   3.514   3.489   7.858  0.0457 -0.0753  0.2275
  111OSM    C1S11391   3.731   3.353   7.580  0.8073  0.0223 -0.1508
  111OSM    H1S11392   3.678   3.256   7.589 -1.2204  1.0955  0.0474
  111OSM    H1T11393   3.839   3.356   7.608  0.6892  0.5052  0.2735
  111OSM     NF11394   3.792   3.291   7.345 -0.4037 -0.4435 -0.3019
  111OSM    HNF11395   3.885   3.320   7.324 -0.6764  0.5130 -0.2564
  111OSM    C2S11396   3.723   3.390   7.430  0.2195 -0.0816  0.4709
  111OSM    H2S11397   3.616   3.371   7.410  0.5293 -2.2011  0.6571
  111OSM    C3S11398   3.748   3.543   7.407  0.2466 -0.2188  0.4429
  111OSM    H3S11399   3.852   3.564   7.440  0.3958 -0.0718 -0.1034
  111OSM     O311400   3.661   3.633   7.484  0.1641 -0.9980 -0.4376
  111OSM    HO311401   3.641   3.579   7.561  1.1275 -1.7177 -0.6670
  111OSM    C4S11402   3.736   3.569   7.263  0.2431 -0.3360  0.1439
  111OSM    H4S11403   3.650   3.517   7.219  0.1455 -1.5463  1.6846
  111OSM    C5S11404   3.829   3.629   7.182  0.2298  0.6467  0.7316
  111OSM    H5S11405   3.931   3.657   7.213  1.1908  0.9101 -2.3403
  111OSM    C6S11406   3.826   3.644   7.028 -0.3895  0.0275  0.0371
  111OSM    H6S11407   3.922   3.609   6.983 -0.4604 -1.4830  1.0140
  111OSM    H6T11408   3.813   3.751   7.000  0.5545  0.4023  0.9634
  111OSM    C7S11409   3.701   3.565   6.968 -0.2382  0.6250  0.1802
  111OSM    H7S11410   3.616   3.585   7.036 -0.0515  1.0157  0.2997
  111OSM    H7T11411   3.719   3.455   6.971 -1.4962  0.4140  2.6225
  111OSM    C8S11412   3.652   3.615   6.824 -0.5515 -0.0386 -0.9613
  111OSM    H8S11413   3.607   3.715   6.845  0.6540  0.6265 -1.3845
  111OSM    H8T11414   3.576   3.538   6.801  0.9007 -1.4382 -1.2207
  111OSM    C9S11415   3.771   3.614   6.724 -0.2714 -0.6427  0.1494
  111OSM    H9S11416   3.831   3.520   6.725  2.4542  0.9618 -0.7811
  111OSM    H9T11417   3.845   3.694   6.748  0.5688 -1.1800 -0.5889
  111OSM   C10S11418   3.717   3.643   6.584 -0.7121 -0.4731  0.0674
  111OSM   H10S11419   3.660   3.738   6.589 -0.8192 -0.5964  1.3661
  111OSM   H10T11420   3.670   3.558   6.529  2.1879 -1.2401 -1.4500
  111OSM   C11S11421   3.835   3.672   6.483  1.0306 -0.2565  0.0539
  111OSM   H11S11422   3.898   3.581   6.475  0.3321 -0.6994 -0.5223
  111OSM   H11T11423   3.895   3.762   6.508  1.3186  0.7149 -3.4869
  111OSM   C12S11424   3.774   3.703   6.345 -0.3702  1.3042 -0.0574
  111OSM   H12S11425   3.709   3.792   6.363  1.7724  2.5746  1.8921
  111OSM   H12T11426   3.708   3.620   6.311  0.8075  0.1169  0.4907
  111OSM   C13S11427   3.883   3.745   6.238 -0.1354 -0.5947  0.1846
  111OSM   H13S11428   3.972   3.679   6.242 -0.8720 -1.8254 -2.1006
  111OSM   H13T11429   3.919   3.849   6.251  1.4634 -0.7799 -2.1982
  111OSM   C14S11430   3.831   3.733   6.090 -0.2972 -0.5020  0.2646
  111OSM   H14S11431   3.733   3.784   6.104  0.2348  0.1973  1.6134
  111OSM   H14T11432   3.813   3.630   6.051 -2.6697 -0.8274  1.9888
  111OSM   C15S11433   3.914   3.812   5.989  0.2159  0.0253  0.4467
  111OSM   H15S11434   4.015   3.766   5.994 -0.0992 -0.8208 -0.4911
  111OSM   H15T11435   3.922   3.911   6.038 -0.1939  0.4336 -0.2948
  111OSM   C16S11436   3.857   3.806   5.846  0.8463 -0.1005 -0.3005
  111OSM   H16S11437   3.749   3.833   5.841  0.5114 -1.2251  0.3968
  111OSM   H16T11438   3.861   3.700   5.813 -2.1772 -0.2472 -0.5028
  111OSM   C17S11439   3.928   3.916   5.764 -0.5622 -0.0967  0.0381
  111OSM   H17S11440   3.936   4.013   5.818 -0.3049 -0.4411  0.6360
  111OSM   H17T11441   3.869   3.941   5.673 -0.4110  1.0849  0.2504
  111OSM   C18S11442   4.072   3.880   5.709  1.3303  0.2675 -0.1180
  111OSM   H18S11443   4.135   3.846   5.795  0.4358 -0.5746  0.2208
  111OSM   H18T11444   4.113   3.972   5.661  0.5273  0.7367  0.0743
  111OSM   H18U11445   4.083   3.793   5.642 -2.2398 -0.7264  0.3634
  111OSM    C1F11446   3.747   3.163   7.337 -0.7093 -0.3954 -0.0939
  111OSM     OF11447   3.638   3.138   7.375  0.2845 -0.4516  0.1954
  111OSM    C2F11448   3.852   3.064   7.302 -0.6548 -0.0588  0.0887
  111OSM    H2F11449   3.857   2.997   7.392 -0.4272 -2.6392 -1.7310
  111OSM    H2G11450   3.950   3.115   7.309  1.0283 -3.0530  0.4049
  111OSM    C3F11451   3.840   2.969   7.184  0.0951  0.3024 -0.0499
  111OSM    H3F11452   3.735   2.934   7.199  0.1023  1.1675  2.6432
  111OSM    H3G11453   3.908   2.882   7.178 -0.3117  0.0619 -1.3397
  111OSM    C4F11454   3.855   3.039   7.045  0.8351  0.1742  0.2930
  111OSM    H4F11455   3.780   3.121   7.052 -0.3335 -0.8415 -0.0577
  111OSM    H4G11456   3.829   2.969   6.963  0.4736 -0.3412  0.8402
  111OSM    C5F11457   3.999   3.107   7.028  0.0076  0.3130  0.1591
  111OSM    H5F11458   4.067   3.021   7.009  0.6850  0.4497  1.8480
  111OSM    H5G11459   4.025   3.160   7.122  1.5035 -0.1209  0.0201
  111OSM    C6F11460   3.996   3.217   6.923 -0.5199  0.3279  0.4922
  111OSM    H6F11461   4.082   3.287   6.933 -0.1671 -0.0663  0.2432
  111OSM    H6G11462   3.904   3.274   6.948 -0.4622  0.5909  0.1200
  111OSM    C7F11463   3.973   3.165   6.775  0.4725 -1.0404  0.1698
  111OSM    H7F11464   3.937   3.238   6.699  0.6937 -2.4119 -1.2997
  111OSM    H7G11465   3.890   3.091   6.771  0.6007 -1.1333 -0.9087
  111OSM    C8F11466   4.094   3.090   6.721 -0.2240 -0.3712  0.5477
  111OSM    H8F11467   4.072   2.988   6.758  2.3572 -1.1952  0.0025
  111OSM    H8G11468   4.183   3.133   6.772 -0.6163 -0.8152  1.6512
  111OSM    C9F11469   4.109   3.075   6.567 -0.4367 -0.6941 -0.8418
  111OSM    H9F11470   4.020   3.057   6.505 -0.9394 -2.0900  0.2481
  111OSM   C10F11471   4.223   3.083   6.502  0.4069  0.9182 -0.1691
  111OSM   H10F11472   4.226   3.067   6.393  0.3678  0.5270 -0.1153
  111OSM   C11F11473   4.365   3.092   6.556  0.5449 -0.0776 -0.5535
  111OSM   H11F11474   4.359   3.072   6.665 -3.4260 -1.3861 -0.8882
  111OSM   H11G11475   4.401   3.195   6.534 -0.2749  0.1749 -0.7376
  111OSM   C12F11476   4.450   2.992   6.476 -0.2452  1.0523  0.0840
  111OSM   H12F11477   4.549   2.979   6.523 -0.1018 -2.1717 -0.9177
  111OSM   H12G11478   4.458   3.022   6.369 -0.5165  0.1351 -0.1981
  111OSM   C13F11479   4.384   2.847   6.471  0.5009 -0.5926 -1.0371
  111OSM   H13F11480   4.451   2.781   6.412  0.9791  0.5856 -1.8472
  111OSM   H13G11481   4.283   2.843   6.426 -0.2192 -0.6173  0.5281
  111OSM   C14F11482   4.382   2.780   6.613  0.4039 -0.3213 -0.1500
  111OSM   H14F11483   4.312   2.825   6.687  2.4439 -1.3217  2.5463
  111OSM   H14G11484   4.481   2.800   6.659 -0.7547  0.2074  2.2449
  111OSM   C15F11485   4.344   2.631   6.620 -0.5420  0.2342  0.3966
  111OSM   H15F11486   4.403   2.576   6.544  1.0063 -1.8989  2.9587
  111OSM   H15G11487   4.236   2.617   6.599 -0.3297  0.4377 -0.8932
  111OSM   C16F11488   4.385   2.572   6.754  0.5620  0.6485 -1.3301
  111OSM   H16F11489   4.306   2.574   6.832  1.7568  0.7046 -0.0674
  111OSM   H16G11490   4.465   2.636   6.798 -1.3970  1.6825  0.9373
  111OSM   C17F11491   4.434   2.428   6.735 -0.2328  0.8479  0.3880
  111OSM   H17F11492   4.531   2.426   6.681 -1.1023  0.1779 -1.2185
  111OSM   H17G11493   4.365   2.363   6.678  1.7975 -1.0124 -0.0877
  111OSM   C18F11494   4.462   2.367   6.874  0.9802 -0.5809  0.2224
  111OSM   H18F11495   4.485   2.259   6.863 -0.3073 -0.8713  0.2582
  111OSM   H18G11496   4.368   2.359   6.934 -0.3347 -2.1722 -1.8931
  111OSM   H18H11497   4.545   2.420   6.924  0.6628  1.6426 -1.4264
  112OSM      N11498   0.881   4.780   7.792 -0.3573 -0.0697 -0.1828
  112OSM    C1511499   1.013   4.748   7.719 -0.0424  0.1605 -0.2413
  112OSM   H15A11500   1.007   4.728   7.613 -1.4089  0.2482 -0.1887
  112OSM   H15B11501   1.050   4.663   7.775  0.8116  0.6702 -0.0018
  112OSM   H15C11502   1.085   4.826   7.739 -0.7146  0.3770  1.5204
  112OSM    C1411503   0.909   4.753   7.938  0.0376  0.1655 -0.3089
  112OSM   H14A11504   0.822   4.769   8.000  0.6374 -2.8981  1.5600
  112OSM   H14B11505   0.991   4.814   7.973  0.9429 -1.8472  1.2897
  112OSM   H14C11506   0.949   4.653   7.946  1.1212  0.7249  1.9430
  112OSM    C1311507   0.847   4.917   7.765 -0.6803  0.2549 -0.0306
  112OSM   H13A11508   0.803   4.915   7.667  1.2116  1.3782 -0.9636
  112OSM   H13B11509   0.942   4.968   7.766  1.6367 -3.4593 -2.6886
  112OSM   H13C11510   0.779   4.963   7.835  0.7643  0.4825  1.2676
  112OSM    C1211511   0.771   4.688   7.742 -0.5340 -0.0510  0.1442
  112OSM   H12A11512   0.689   4.686   7.812 -0.0288  2.3673  0.8685
  112OSM   H12B11513   0.815   4.589   7.751 -0.2167  0.2132  1.8558
  112OSM    C1111514   0.719   4.707   7.601 -0.6933 -0.4976  0.4178
  112OSM   H11A11515   0.666   4.805   7.597 -0.9539 -0.6564 -0.3465
  112OSM   H11B11516   0.644   4.627   7.582 -1.4611 -0.7530  3.8794
  112OSM      P11517   0.859   4.577   7.409 -0.0897 -0.2982 -0.0542
  112OSM    O1311518   0.989   4.610   7.339 -0.3318  0.1734  0.7636
  112OSM    O1411519   0.865   4.453   7.494  0.0525  0.7248 -0.1653
  112OSM    O1111520   0.746   4.555   7.303  0.8883 -0.0731  0.3556
  112OSM    O1211521   0.821   4.706   7.498 -0.1329  0.0300 -0.1074
  112OSM    C1S11522   0.736   4.634   7.186 -0.4849  0.1385  0.3318
  112OSM    H1S11523   0.791   4.728   7.201 -0.5944 -0.1061  2.6008
  112OSM    H1T11524   0.630   4.663   7.166  0.1683  0.9755 -2.2996
  112OSM     NF11525   0.773   4.657   6.945  0.1231  0.3485 -0.9500
  112OSM    HNF11526   0.690   4.668   6.892  0.3495  0.3026 -1.3174
  112OSM    C2S11527   0.774   4.558   7.050 -0.8527  0.1234 -0.0001
  112OSM    H2S11528   0.877   4.522   7.071  0.1299  3.6713  2.1170
  112OSM    C3S11529   0.679   4.434   7.021  0.3859 -0.1118 -0.3881
  112OSM    H3S11530   0.575   4.470   7.035  1.0123  1.1881  1.2925
  112OSM     O311531   0.707   4.327   7.111 -0.0150  0.3247 -0.0238
  112OSM    HO311532   0.770   4.351   7.179 -0.8838 -2.2104  1.8231
  112OSM    C4S11533   0.708   4.385   6.882  0.9140  1.0664 -0.0581
  112OSM    H4S11534   0.796   4.320   6.874  0.5169  0.4534  0.3615
  112OSM    C5S11535   0.635   4.398   6.775 -0.0720 -0.2491 -0.7010
  112OSM    H5S11536   0.538   4.447   6.790  0.6589  0.7983  0.8174
  112OSM    C6S11537   0.661   4.341   6.637  1.2340 -0.4897  0.4613
  112OSM    H6S11538   0.567   4.304   6.589  1.3188 -1.1506  0.7900
  112OSM    H6T11539   0.710   4.242   6.652  0.0256 -0.8932  2.1316
  112OSM    C7S11540   0.733   4.424   6.537  0.2087  0.9354 -0.1293
  112OSM    H7S11541   0.787   4.350   6.474 -0.4311 -0.9448  1.4600
  112OSM    H7T11542   0.818   4.477   6.585  0.7804  0.3470 -0.4704
  112OSM    C8S11543   0.652   4.523   6.452  0.2944 -0.5459 -0.9338
  112OSM    H8S11544   0.614   4.588   6.533 -2.0848 -1.0822 -1.5617
  112OSM    H8T11545   0.561   4.467   6.423  1.6016 -3.5588  0.3275
  112OSM    C9S11546   0.728   4.598   6.348  0.4499  0.7229 -0.2317
  112OSM    H9S11547   0.823   4.640   6.387  2.3727 -1.7635 -1.9655
  112OSM    H9T11548   0.670   4.692   6.333  0.0770  0.7220  1.0224
  112OSM   C10S11549   0.736   4.519   6.215  0.4980 -0.3598 -0.5434
  112OSM   H10S11550   0.639   4.481   6.179  0.8071 -1.8887  0.1681
  112OSM   H10T11551   0.801   4.431   6.234  0.0111 -1.0044 -1.7740
  112OSM   C11S11552   0.821   4.602   6.120  0.4436  0.3040 -0.2788
  112OSM   H11S11553   0.922   4.615   6.165  0.2089 -0.2167  0.4116
  112OSM   H11T11554   0.772   4.702   6.118  1.3297  0.7920  0.8633
  112OSM   C12S11555   0.832   4.555   5.976  0.3131  0.2015 -0.4084
  112OSM   H12S11556   0.736   4.508   5.944 -0.0508  1.5663 -1.4073
  112OSM   H12T11557   0.904   4.472   5.965 -3.1370 -3.4067  1.5102
  112OSM   C13S11558   0.879   4.666   5.887  0.0402 -0.3236  0.2814
  112OSM   H13S11559   0.958   4.723   5.940  1.9582 -1.4304 -1.2493
  112OSM   H13T11560   0.796   4.740   5.881  0.2183 -0.2486 -2.4551
  112OSM   C14S11561   0.936   4.624   5.756 -0.0950  0.5142 -0.5026
  112OSM   H14S11562   0.880   4.538   5.714  2.0111 -1.3890  0.3334
  112OSM   H14T11563   1.039   4.583   5.766 -0.1597 -0.1576 -2.2887
  112OSM   C15S11564   0.962   4.737   5.663  0.0946  0.4350  0.1578
  112OSM   H15S11565   1.039   4.799   5.713 -0.1828  0.6614  0.3120
  112OSM   H15T11566   0.872   4.799   5.640 -0.9270 -1.6705 -1.8733
  112OSM   C16S11567   1.018   4.679   5.529 -0.3742 -0.2520 -0.5655
  112OSM   H16S11568   0.928   4.643   5.476 -1.5542  2.4852 -0.6274
  112OSM   H16T11569   1.092   4.603   5.560  0.0834 -0.0038 -1.0192
  112OSM   C17S11570   1.082   4.796   5.455  0.0820  0.0279 -0.4242
  112OSM   H17S11571   1.162   4.834   5.521  0.7296 -1.9785  0.0324
  112OSM   H17T11572   1.009   4.880   5.451  0.7293  0.6757  0.7622
  112OSM   C18S11573   1.125   4.762   5.315 -0.7235 -0.0095 -0.3947
  112OSM   H18S11574   1.045   4.705   5.263  0.1296  0.2418 -2.0692
  112OSM   H18T11575   1.217   4.698   5.319  0.6319  1.7458 -1.7836
  112OSM   H18U11576   1.149   4.849   5.251  2.2085 -0.6212 -0.2840
  112OSM    C1F11577   0.859   4.759   6.927 -0.6087 -0.0389 -0.5223
  112OSM     OF11578   0.960   4.771   6.998 -0.0798  0.2343  0.3014
  112OSM    C2F11579   0.817   4.851   6.815  0.0637  1.0599  0.8709
  112OSM    H2F11580   0.732   4.915   6.849 -2.0049 -1.7696  1.3791
  112OSM    H2G11581   0.783   4.786   6.732  0.4837  2.3643 -0.3599
  112OSM    C3F11582   0.931   4.941   6.767  0.7284 -0.9985  0.4651
  112OSM    H3F11583   1.027   4.885   6.759  0.5255 -1.1613 -1.3122
  112OSM    H3G11584   0.944   5.026   6.838 -0.9227  1.8525 -2.3735
  112OSM    C4F11585   0.912   5.008   6.633  0.0842  0.0518  0.1381
  112OSM    H4F11586   0.991   5.086   6.633  0.5295 -0.3376 -1.7222
  112OSM    H4G11587   0.816   5.063   6.634  0.6568  1.1103  2.0975
  112OSM    C5F11588   0.921   4.906   6.514 -0.4473 -0.5304 -0.6914
  112OSM    H5F11589   0.846   4.824   6.508  0.6162 -1.5459 -0.3038
  112OSM    H5G11590   1.020   4.857   6.528  0.0228  0.4269 -0.5931
  112OSM    C6F11591   0.898   4.969   6.372  0.8088  0.3174 -0.5987
  112OSM    H6F11592   0.801   5.022   6.370  0.4478 -0.3503 -0.7811
  112OSM    H6G11593   0.890   4.882   6.304  3.0357 -1.1991  0.9190
  112OSM    C7F11594   1.013   5.064   6.333 -0.3546  0.4092 -0.1695
  112OSM    H7F11595   1.094   4.994   6.305  0.5124  2.0147 -1.9696
  112OSM    H7G11596   1.030   5.123   6.426  0.9973 -0.2897  0.0479
  112OSM    C8F11597   0.993   5.163   6.214  0.4555 -0.1179 -0.4503
  112OSM    H8F11598   1.092   5.214   6.219  0.4319 -0.1507  0.7551
  112OSM    H8G11599   0.915   5.235   6.244 -0.6735 -0.8265 -1.5892
  112OSM    C9F11600   0.958   5.085   6.085  0.1732  0.0036  0.0426
  112OSM    H9F11601   0.859   5.037   6.080 -0.9285  2.1780 -0.3044
  112OSM   C10F11602   1.021   5.088   5.962  0.1070  0.6145 -0.3572
  112OSM   H10F11603   0.989   5.044   5.866  1.2679 -1.1941  0.0352
  112OSM   C11F11604   1.149   5.162   5.928  0.8799  0.4389 -0.1938
  112OSM   H11F11605   1.232   5.094   5.958  1.4767  1.0893 -0.3443
  112OSM   H11G11606   1.149   5.258   5.983 -0.2551 -0.2901  1.1358
  112OSM   C12F11607   1.152   5.208   5.778 -0.0022 -0.3562 -0.1041
  112OSM   H12F11608   1.106   5.309   5.777 -0.0795 -0.3842  0.4221
  112OSM   H12G11609   1.097   5.147   5.703 -1.1943  1.2075 -0.5550
  112OSM   C13F11610   1.286   5.224   5.717  0.2280 -0.0463 -0.0463
  112OSM   H13F11611   1.334   5.125   5.700 -0.9011 -0.5568 -0.3350
  112OSM   H13G11612   1.355   5.279   5.784 -0.8503  0.3202  0.7791
  112OSM   C14F11613   1.287   5.302   5.584  0.7715 -0.1130  0.4889
  112OSM   H14F11614   1.376   5.363   5.556  0.9471 -1.0648 -1.1810
  112OSM   H14G11615   1.209   5.379   5.604 -0.8269 -1.4085 -0.4949
  112OSM   C15F11616   1.252   5.216   5.462  0.3843 -0.4411 -0.8520
  112OSM   H15F11617   1.145   5.186   5.469  0.9010 -2.2049 -0.0422
  112OSM   H15G11618   1.321   5.129   5.454  0.6375 -0.6312  2.2869
  112OSM   C16F11619   1.253   5.291   5.327  0.1380 -0.1246 -0.3407
  112OSM   H16F11620   1.262   5.209   5.253  1.2141 -1.9984  1.7345
  112OSM   H16G11621   1.345   5.352   5.313  0.7790 -1.5675 -3.1342
  112OSM   C17F11622   1.124   5.361   5.291 -0.1705 -0.0363 -0.6207
  112OSM   H17F11623   1.095   5.418   5.381  0.3828  0.8131 -0.9651
  112OSM   H17G11624   1.043   5.294   5.256  0.7954 -1.0370 -1.0166
  112OSM   C18F11625   1.157   5.476   5.191  0.5991 -0.9072  1.0677
  112OSM   H18F11626   1.066   5.539   5.176 -0.1290 -2.2481 -0.4307
  112OSM   H18G11627   1.178   5.431   5.092 -0.2231  0.7666  0.0843
  112OSM   H18H11628   1.234   5.547   5.228 -0.7995  0.0666  2.2649
  113OSM      N11629   5.165   1.325   7.962  0.3235  0.2398 -0.1572
  113OSM    C1511630   5.293   1.318   8.032 -0.0682  0.0782  0.6084
  113OSM   H15A11631   5.325   1.418   8.059 -3.5311  1.9771 -1.5847
  113OSM   H15B11632   5.370   1.276   7.969 -1.0765 -2.6866  1.0641
  113OSM   H15C11633   5.279   1.254   8.118  0.1335 -1.2690 -0.3259
  113OSM    C1411634   5.096   1.194   7.954 -0.6074  0.0463  0.2024
  113OSM   H14A11635   5.090   1.146   8.051 -0.5214  1.1062  0.7441
  113OSM   H14B11636   5.151   1.125   7.891 -1.6647 -1.2556  0.6538
  113OSM   H14C11637   4.997   1.203   7.913 -0.6870  3.3432  0.8283
  113OSM    C1311638   5.081   1.424   8.046  0.6471  0.3600 -0.7616
  113OSM   H13A11639   5.104   1.528   8.031  0.9618  0.2900 -0.7597
  113OSM   H13B11640   5.090   1.378   8.143  2.7528 -0.7236 -1.4209
  113OSM   H13C11641   4.976   1.414   8.019  1.0467  0.4602 -2.4910
  113OSM    C1211642   5.191   1.383   7.824 -0.4013 -0.1934  0.3957
  113OSM   H12A11643   5.260   1.466   7.831  0.3120 -0.0181 -4.8830
  113OSM   H12B11644   5.099   1.422   7.782  0.3059  1.4503  0.2785
  113OSM    C1111645   5.250   1.290   7.719  0.5356 -0.5475 -0.0424
  113OSM   H11A11646   5.249   1.340   7.620  0.2629 -0.3029  0.0812
  113OSM   H11B11647   5.181   1.206   7.698 -2.5475  2.3133 -2.3913
  113OSM      P11648   5.513   1.333   7.713  0.0493 -0.3445 -0.2442
  113OSM    O1311649   5.475   1.471   7.735  0.0995  0.1160 -0.7506
  113OSM    O1411650   5.626   1.287   7.800 -0.5645 -0.2693  0.6310
  113OSM    O1111651   5.548   1.317   7.556  0.3285 -0.4540  0.1250
  113OSM    O1211652   5.381   1.247   7.752  0.3437  0.5614  0.2751
  113OSM    C1S11653   5.528   1.189   7.497 -0.2020  0.3524  0.1588
  113OSM    H1S11654   5.420   1.160   7.502 -0.6182  1.8647  0.4348
  113OSM    H1T11655   5.579   1.107   7.552 -2.2123 -1.3160 -0.3200
  113OSM     NF11656   5.547   1.045   7.287 -0.0608 -0.3969 -0.3612
  113OSM    HNF11657   5.626   0.998   7.248  0.6128  0.6063 -0.2558
  113OSM    C2S11658   5.573   1.182   7.347 -0.2673 -0.0946  0.4539
  113OSM    H2S11659   5.508   1.254   7.294 -0.1408 -0.6519 -0.4826
  113OSM    C3S11660   5.716   1.238   7.333 -1.0352 -0.0281 -0.0994
  113OSM    H3S11661   5.777   1.166   7.393 -0.4320  0.5001 -0.0649
  113OSM     O311662   5.744   1.369   7.385 -0.4753  0.3007  0.7377
  113OSM    HO311663   5.667   1.383   7.440 -0.5524  0.2980  0.6310
  113OSM    C4S11664   5.776   1.227   7.186 -0.2945 -0.8234  0.5510
  113OSM    H4S11665   5.743   1.308   7.119 -0.1740  0.1904  1.6776
  113OSM    C5S11666   5.872   1.151   7.147  0.2360 -0.9503  0.3616
  113OSM    H5S11667   5.929   1.092   7.220  3.4054  1.3765  0.0081
  113OSM    C6S11668   5.937   1.125   7.014 -0.1665  0.2798  0.2500
  113OSM    H6S11669   5.934   1.016   6.993  1.8383  0.3736 -0.7017
  113OSM    H6T11670   6.044   1.153   7.008 -0.3633  0.8630 -0.6766
  113OSM    C7S11671   5.865   1.190   6.891  0.9715  0.0486 -0.2134
  113OSM    H7S11672   5.864   1.301   6.896 -0.8065  0.0846 -0.4434
  113OSM    H7T11673   5.759   1.161   6.874  0.3669  1.0986  1.5066
  113OSM    C8S11674   5.930   1.164   6.746  0.5995  0.3028  0.7360
  113OSM    H8S11675   5.937   1.054   6.732 -2.7983 -0.1162  1.4263
  113OSM    H8T11676   6.032   1.207   6.755 -0.3104  2.8812 -0.2645
  113OSM    C9S11677   5.845   1.220   6.626 -0.3438 -0.8471  0.4769
  113OSM    H9S11678   5.837   1.330   6.641 -1.1320 -1.2442  3.8940
  113OSM    H9T11679   5.744   1.173   6.632 -0.5461 -0.5487 -0.4456
  113OSM   C10S11680   5.915   1.185   6.489  0.3602 -0.1134  0.6292
  113OSM   H10S11681   5.973   1.093   6.513  0.9221  0.3819  1.2003
  113OSM   H10T11682   5.988   1.257   6.449 -0.6631  1.0759  0.8539
  113OSM   C11S11683   5.829   1.135   6.373 -0.5098 -0.4294  0.2141
  113OSM   H11S11684   5.771   1.225   6.342 -0.1638 -1.0495 -2.3894
  113OSM   H11T11685   5.759   1.057   6.410  1.7242 -2.9357 -0.5050
  113OSM   C12S11686   5.914   1.073   6.269 -0.2461 -0.0731  0.4627
  113OSM   H12S11687   5.978   0.989   6.301 -0.7078 -0.1312  1.2705
  113OSM   H12T11688   5.986   1.147   6.228 -1.2180  1.3859  1.2974
  113OSM   C13S11689   5.831   1.034   6.148 -0.2299 -0.6753 -0.3762
  113OSM   H13S11690   5.738   1.094   6.134  0.2660 -0.0805 -1.2002
  113OSM   H13T11691   5.812   0.926   6.163 -0.8251 -0.8392 -2.1264
  113OSM   C14S11692   5.905   1.052   6.019  0.4771  0.5915 -0.2015
  113OSM   H14S11693   6.007   1.011   6.033  0.6983  0.0690 -2.8533
  113OSM   H14T11694   5.918   1.163   6.016 -0.2503  0.6846 -0.0588
  113OSM   C15S11695   5.838   0.987   5.892  0.1225 -0.5528  0.0387
  113OSM   H15S11696   5.794   1.060   5.821  0.9738  0.6472  0.7145
  113OSM   H15T11697   5.749   0.936   5.934  0.8291 -0.6216  1.5165
  113OSM   C16S11698   5.924   0.888   5.810 -0.7433 -0.2338 -0.5208
  113OSM   H16S11699   5.984   0.828   5.882 -0.7348 -0.4545 -0.7092
  113OSM   H16T11700   5.988   0.955   5.748  0.8734  0.6122  1.9304
  113OSM   C17S11701   5.841   0.796   5.720  0.4945  0.5793 -0.4599
  113OSM   H17S11702   5.768   0.738   5.780  2.3562 -0.4167  0.9359
  113OSM   H17T11703   5.902   0.717   5.671 -1.3686 -0.5826 -1.0107
  113OSM   C18S11704   5.759   0.878   5.617  0.4231  0.5830  0.8730
  113OSM   H18S11705   5.713   0.812   5.539 -0.3976  0.5726  1.3557
  113OSM   H18T11706   5.816   0.951   5.556 -2.2772  0.6194 -1.8628
  113OSM   H18U11707   5.672   0.932   5.660 -1.6346  0.4067 -2.6385
  113OSM    C1F11708   5.424   0.992   7.270  0.1793  0.2723  0.6097
  113OSM     OF11709   5.330   1.062   7.288  0.1326 -0.3587  0.1196
  113OSM    C2F11710   5.411   0.848   7.222  0.1354 -0.5715 -0.2893
  113OSM    H2F11711   5.393   0.787   7.313 -1.0746 -0.7277 -0.6115
  113OSM    H2G11712   5.510   0.819   7.182  0.9256 -0.7402  1.6957
  113OSM    C3F11713   5.283   0.834   7.131  0.5157 -0.4181 -0.2088
  113OSM    H3F11714   5.290   0.911   7.051  0.6109 -1.8304 -1.5992
  113OSM    H3G11715   5.195   0.856   7.195 -0.4362 -0.4960 -1.4819
  113OSM    C4F11716   5.249   0.698   7.073  0.7252 -0.0183 -0.4249
  113OSM    H4F11717   5.140   0.685   7.055  1.1112 -1.6384 -1.8762
  113OSM    H4G11718   5.275   0.618   7.146  1.4073  0.8347  0.2959
  113OSM    C5F11719   5.319   0.662   6.947 -0.0730  0.1346  0.7862
  113OSM    H5F11720   5.429   0.667   6.958  0.1835  3.0259 -1.7502
  113OSM    H5G11721   5.297   0.744   6.875  0.9406  0.2794  0.6251
  113OSM    C6F11722   5.272   0.521   6.903  0.0457  0.1636 -0.2755
  113OSM    H6F11723   5.176   0.531   6.848  0.2241 -0.2384 -0.6578
  113OSM    H6G11724   5.264   0.458   6.994  1.0984  0.7996  0.2800
  113OSM    C7F11725   5.374   0.456   6.812 -0.2037 -0.2799 -0.0550
  113OSM    H7F11726   5.322   0.365   6.776 -0.0624 -0.8823  1.2166
  113OSM    H7G11727   5.463   0.413   6.862  0.8605 -0.5631 -2.0910
  113OSM    C8F11728   5.415   0.545   6.691 -0.2865  0.3444  0.1387
  113OSM    H8F11729   5.458   0.645   6.715 -4.0591  2.1486  0.2264
  113OSM    H8G11730   5.317   0.577   6.648  0.0427  0.9034 -0.2122
  113OSM    C9F11731   5.503   0.478   6.586  0.1337  0.4445 -1.2878
  113OSM    H9F11732   5.604   0.522   6.597  0.0594  0.4492 -0.5583
  113OSM   C10F11733   5.477   0.377   6.506 -0.2862  0.0561  0.1095
  113OSM   H10F11734   5.557   0.337   6.441 -0.6673  1.1448 -1.0693
  113OSM   C11F11735   5.345   0.307   6.497  0.2084  1.2827  0.1208
  113OSM   H11F11736   5.261   0.364   6.541 -0.4510  0.1976  0.2803
  113OSM   H11G11737   5.360   0.212   6.553 -2.0854  0.9046  0.1858
  113OSM   C12F11738   5.310   0.269   6.350 -0.0091 -0.6970  0.5948
  113OSM   H12F11739   5.254   0.173   6.353  1.8812 -2.0286 -2.4103
  113OSM   H12G11740   5.405   0.245   6.298  0.6256 -1.0855  1.8934
  113OSM   C13F11741   5.229   0.371   6.268  1.0697  0.3869 -0.7270
  113OSM   H13F11742   5.275   0.472   6.255  1.4064  0.7163  2.3032
  113OSM   H13G11743   5.143   0.386   6.338  1.0950 -0.3212 -0.5395
  113OSM   C14F11744   5.196   0.315   6.132  0.1123 -0.0707 -0.2265
  113OSM   H14F11745   5.295   0.280   6.098  0.2354  1.1475 -1.2028
  113OSM   H14G11746   5.159   0.387   6.056  0.1688 -1.2824 -1.4349
  113OSM   C15F11747   5.099   0.194   6.122 -0.1837 -0.0683  0.0455
  113OSM   H15F11748   5.000   0.231   6.089  0.1053  0.1685 -0.5755
  113OSM   H15G11749   5.077   0.160   6.226  1.6759  1.8346  1.1487
  113OSM   C16F11750   5.153   0.081   6.036 -0.1295 -0.1528 -0.9923
  113OSM   H16F11751   5.094  -0.010   6.060 -1.6029  1.2055  0.8823
  113OSM   H16G11752   5.257   0.057   6.068 -1.2701  0.0586  3.4535
  113OSM   C17F11753   5.155   0.116   5.888 -0.1573  0.0814 -0.5089
  113OSM   H17F11754   5.237   0.189   5.870  1.4262 -1.2981  0.7230
  113OSM   H17G11755   5.061   0.171   5.864  0.4188  2.0522  1.4729
  113OSM   C18F11756   5.166  -0.007   5.799  0.0976 -0.2197  0.2895
  113OSM   H18F11757   5.241  -0.075   5.844  0.9076 -0.4663 -1.3443
  113OSM   H18G11758   5.206   0.009   5.696 -1.1606 -2.2396 -0.5825
  113OSM   H18H11759   5.066  -0.054   5.796  0.3056 -0.8642  2.1384
  114OSM      N11760   4.403   1.091   8.125  0.1947 -0.3850 -0.3628
  114OSM    C1511761   4.347   1.211   8.051 -0.1429  0.2438 -0.7796
  114OSM   H15A11762   4.423   1.267   7.999 -1.8338  0.4059 -3.2810
  114OSM   H15B11763   4.294   1.278   8.118 -0.5576 -2.7186  2.1116
  114OSM   H15C11764   4.287   1.184   7.966  3.3998 -0.3446 -3.3011
  114OSM    C1411765   4.513   1.130   8.222 -0.1576 -0.5487 -0.2050
  114OSM   H14A11766   4.601   1.166   8.170 -1.4114  1.7450 -0.8528
  114OSM   H14B11767   4.531   1.054   8.297  3.2194 -0.5280 -0.8130
  114OSM   H14C11768   4.489   1.217   8.282  0.3219 -0.3651 -0.2690
  114OSM    C1311769   4.295   1.021   8.207  0.4642  0.1961 -0.2570
  114OSM   H13A11770   4.243   1.108   8.246  1.3862 -0.3756  2.4979
  114OSM   H13B11771   4.323   0.960   8.291 -0.9821  0.9841  0.8569
  114OSM   H13C11772   4.238   0.974   8.129  0.0540  0.4838 -0.1365
  114OSM    C1211773   4.450   0.986   8.026  0.1395  0.2440 -0.2701
  114OSM   H12A11774   4.473   0.899   8.086 -2.8769 -0.2120  0.3993
  114OSM   H12B11775   4.543   1.006   7.975  0.0208  0.1925 -0.5056
  114OSM    C1111776   4.358   0.927   7.916  1.1354 -0.4553 -0.5257
  114OSM   H11A11777   4.421   0.877   7.839  1.3378 -2.1378  0.6755
  114OSM   H11B11778   4.306   1.014   7.870  1.0431 -0.1030  0.2371
  114OSM      P11779   4.292   0.683   7.983  0.0085  0.3598 -0.0463
  114OSM    O1311780   4.403   0.661   8.077  0.1035  0.2309 -0.2358
  114OSM    O1411781   4.169   0.618   8.026  0.5538 -0.0323  0.5823
  114OSM    O1111782   4.332   0.632   7.834  0.1704 -0.4637 -0.3181
  114OSM    O1211783   4.261   0.839   7.968 -0.2808  0.0431 -0.2397
  114OSM    C1S11784   4.224   0.645   7.739 -0.1931 -0.1513 -0.9199
  114OSM    H1S11785   4.186   0.750   7.732  1.1795  0.3133 -1.7266
  114OSM    H1T11786   4.138   0.582   7.771 -0.2424  1.5148  2.7762
  114OSM     NF11787   4.198   0.670   7.493 -0.6972  0.0340  0.1617
  114OSM    HNF11788   4.150   0.608   7.431 -2.3922  1.7570 -0.4000
  114OSM    C2S11789   4.282   0.614   7.599  0.2510  0.1351  0.0595
  114OSM    H2S11790   4.383   0.658   7.611 -0.7847  2.0708  2.4221
  114OSM    C3S11791   4.306   0.468   7.587 -0.6569  0.4068 -0.1369
  114OSM    H3S11792   4.212   0.410   7.589 -0.6279  0.3412 -0.4588
  114OSM     O311793   4.398   0.408   7.682 -0.3323  0.1252 -0.0679
  114OSM    HO311794   4.436   0.482   7.731  4.4116 -0.7549 -1.9362
  114OSM    C4S11795   4.379   0.435   7.460  0.0463 -0.2198 -0.5614
  114OSM    H4S11796   4.470   0.495   7.444  0.5279 -0.2623  1.7184
  114OSM    C5S11797   4.357   0.335   7.376  0.4770  0.4975 -0.1082
  114OSM    H5S11798   4.289   0.250   7.397  2.5346 -1.0412  0.6902
  114OSM    C6S11799   4.428   0.321   7.246  0.8051  0.0801  0.1092
  114OSM    H6S11800   4.463   0.216   7.242 -0.0510 -0.4315  3.3091
  114OSM    H6T11801   4.514   0.390   7.229  1.1802 -0.1125  1.1818
  114OSM    C7S11802   4.329   0.328   7.125  0.0295  0.8238 -0.5386
  114OSM    H7S11803   4.303   0.435   7.112  1.9240  1.9436  3.5796
  114OSM    H7T11804   4.240   0.263   7.141  1.7911 -2.4909 -3.0036
  114OSM    C8S11805   4.401   0.302   6.993 -0.3373  0.2355  0.1984
  114OSM    H8S11806   4.463   0.210   6.997  0.4580  0.7735  0.7230
  114OSM    H8T11807   4.482   0.378   6.988 -0.4906  0.3440 -0.6995
  114OSM    C9S11808   4.308   0.294   6.869  0.1129 -0.1162 -0.2748
  114OSM    H9S11809   4.270   0.394   6.842 -1.4586 -0.3914  0.7983
  114OSM    H9T11810   4.220   0.233   6.896  0.6121 -0.1070  1.5422
  114OSM   C10S11811   4.370   0.244   6.736  0.7266  0.6948 -0.4187
  114OSM   H10S11812   4.433   0.324   6.692  0.5531  0.4906 -1.0511
  114OSM   H10T11813   4.286   0.220   6.667  1.1939 -0.0128 -0.7569
  114OSM   C11S11814   4.454   0.120   6.750 -0.4840  0.1501 -0.2679
  114OSM   H11S11815   4.422   0.054   6.833  1.9127 -1.3366 -0.4401
  114OSM   H11T11816   4.553   0.152   6.786 -0.4136  1.3699 -1.4720
  114OSM   C12S11817   4.465   0.037   6.628 -0.2661  0.2041  0.0203
  114OSM   H12S11818   4.364   0.039   6.582  0.5201  0.1278 -1.7882
  114OSM   H12T11819   4.494  -0.065   6.661  0.7960  0.9307  1.4443
  114OSM   C13S11820   4.569   0.093   6.533 -0.5963 -0.5587 -0.4664
  114OSM   H13S11821   4.671   0.091   6.577  0.3796  1.3235 -2.4369
  114OSM   H13T11822   4.560   0.202   6.510  1.0273 -0.4364 -0.6543
  114OSM   C14S11823   4.570   0.010   6.394  0.4734 -0.0635 -0.2549
  114OSM   H14S11824   4.470  -0.008   6.349  0.3897  1.2399 -0.6293
  114OSM   H14T11825   4.612  -0.090   6.421  0.7503 -0.3012 -1.4799
  114OSM   C15S11826   4.662   0.074   6.297  0.3281  0.0228 -0.6300
  114OSM   H15S11827   4.764   0.050   6.334  0.3028 -2.7033 -2.0419
  114OSM   H15T11828   4.647   0.184   6.287  1.1533  0.1144 -0.9574
  114OSM   C16S11829   4.647   0.026   6.153  0.5379 -0.1028  0.4198
  114OSM   H16S11830   4.558   0.071   6.105 -0.1284 -1.5293  0.2725
  114OSM   H16T11831   4.629  -0.084   6.155  2.1670 -0.4050  2.1761
  114OSM   C17S11832   4.778   0.057   6.086 -0.6945  0.5363  1.1438
  114OSM   H17S11833   4.872   0.013   6.128  1.8886  3.2149 -1.3258
  114OSM   H17T11834   4.791   0.168   6.093 -0.5407  0.5540  0.6011
  114OSM   C18S11835   4.763   0.022   5.936  0.4537 -0.7846 -0.1635
  114OSM   H18S11836   4.762  -0.089   5.929  1.9774 -1.0235  2.2231
  114OSM   H18T11837   4.846   0.065   5.877 -2.6351 -0.7359 -4.9731
  114OSM   H18U11838   4.671   0.078   5.911  2.4273  2.4183 -0.7287
  114OSM    C1F11839   4.215   0.794   7.450  0.0288 -0.2253 -0.5579
  114OSM     OF11840   4.285   0.868   7.522  0.3548 -0.3153 -0.0986
  114OSM    C2F11841   4.144   0.834   7.321 -0.0401  0.0426  0.6521
  114OSM    H2F11842   4.039   0.859   7.347 -0.3189 -2.1347  1.8759
  114OSM    H2G11843   4.150   0.745   7.255  0.1055  2.3651 -2.7515
  114OSM    C3F11844   4.220   0.958   7.251 -0.0791 -0.3077  0.3506
  114OSM    H3F11845   4.329   0.946   7.235 -0.2611 -0.6905 -0.6270
  114OSM    H3G11846   4.208   1.042   7.324  2.1015  1.3040 -1.0191
  114OSM    C4F11847   4.156   0.999   7.120 -0.0556 -1.1260  0.2117
  114OSM    H4F11848   4.047   0.978   7.115 -0.0773 -1.5218  1.6983
  114OSM    H4G11849   4.190   0.923   7.047 -0.0969 -2.2126  1.2829
  114OSM    C5F11850   4.182   1.144   7.081 -0.0783 -1.1221 -1.0214
  114OSM    H5F11851   4.287   1.165   7.113 -0.1215 -2.7016  0.2666
  114OSM    H5G11852   4.117   1.214   7.138  2.3572  0.7425 -0.3353
  114OSM    C6F11853   4.160   1.175   6.928 -0.5314 -0.0789  0.3831
  114OSM    H6F11854   4.128   1.279   6.905  0.4524  0.3253  0.7660
  114OSM    H6G11855   4.096   1.098   6.881  2.1626 -2.8803  1.0039
  114OSM    C7F11856   4.301   1.183   6.858 -0.1514  0.1186 -0.6639
  114OSM    H7F11857   4.364   1.093   6.874  2.8416  2.0563 -0.7070
  114OSM    H7G11858   4.354   1.271   6.900  0.0441 -0.3286  0.0478
  114OSM    C8F11859   4.293   1.217   6.710  0.1400 -0.4320  1.3167
  114OSM    H8F11860   4.221   1.300   6.695  0.1357 -0.7313 -0.5052
  114OSM    H8G11861   4.253   1.135   6.647 -0.1062 -0.4933  1.5511
  114OSM    C9F11862   4.426   1.261   6.656 -0.4515 -0.2501 -0.1248
  114OSM    H9F11863   4.486   1.308   6.735  1.4752 -1.6389 -0.6706
  114OSM   C10F11864   4.480   1.230   6.538 -0.2199 -0.7659  1.0335
  114OSM   H10F11865   4.570   1.289   6.514 -1.4518  0.7602 -0.0604
  114OSM   C11F11866   4.411   1.151   6.431 -1.3945  0.3824  0.7439
  114OSM   H11F11867   4.302   1.134   6.436 -2.0327  2.6072 -2.3105
  114OSM   H11G11868   4.461   1.052   6.425  1.3331  1.5541  2.0557
  114OSM   C12F11869   4.443   1.219   6.291  0.0489 -0.2229  0.1180
  114OSM   H12F11870   4.373   1.170   6.220  0.5722 -1.2607  0.3022
  114OSM   H12G11871   4.550   1.220   6.262  0.0978  0.9369  0.2899
  114OSM   C13F11872   4.407   1.371   6.279  0.5429 -0.3672 -0.2949
  114OSM   H13F11873   4.455   1.435   6.356 -0.8294  1.7542 -1.1138
  114OSM   H13G11874   4.299   1.386   6.301  0.7624  1.7616 -0.4359
  114OSM   C14F11875   4.437   1.448   6.144 -0.1316 -0.0755 -0.0597
  114OSM   H14F11876   4.547   1.459   6.137 -0.0077 -0.3794  1.1369
  114OSM   H14G11877   4.394   1.549   6.160  0.5951  0.3817 -0.9552
  114OSM   C15F11878   4.382   1.377   6.026  0.4631  0.1686 -0.2250
  114OSM   H15F11879   4.286   1.338   6.067  1.8320  0.1920  3.2983
  114OSM   H15G11880   4.434   1.288   5.987 -0.9911  0.4946 -3.2480
  114OSM   C16F11881   4.352   1.471   5.906  0.2370  0.0988  0.4193
  114OSM   H16F11882   4.285   1.559   5.925  0.5059  1.2720 -3.2887
  114OSM   H16G11883   4.299   1.410   5.830  0.5409 -0.5092  0.6876
  114OSM   C17F11884   4.472   1.526   5.843  0.0366 -0.1599  0.3752
  114OSM   H17F11885   4.550   1.449   5.827  1.1562  0.2356  3.2939
  114OSM   H17G11886   4.529   1.606   5.895 -1.8385  2.2721 -1.0878
  114OSM   C18F11887   4.435   1.598   5.705  0.0323  0.0161  0.0932
  114OSM   H18F11888   4.520   1.623   5.639  0.2509  0.4174  0.5160
  114OSM   H18G11889   4.379   1.691   5.732  0.2079 -0.2093  1.3118
  114OSM   H18H11890   4.365   1.525   5.659  0.4348  0.3976 -1.1535
  115OSM      N11891   2.602   1.463   7.879  0.0922 -0.1217  0.0322
  115OSM    C1511892   2.686   1.509   7.993 -0.0501 -0.0214  0.6799
  115OSM   H15A11893   2.654   1.608   8.023 -1.5833 -0.4777  0.6243
  115OSM   H15B11894   2.785   1.520   7.952  0.2563 -2.0569  0.7525
  115OSM   H15C11895   2.679   1.447   8.081 -2.2539 -0.4231  0.2841
  115OSM    C1411896   2.649   1.321   7.866 -0.2185  0.1767 -0.1306
  115OSM   H14A11897   2.639   1.261   7.955 -0.1559 -1.4672 -1.1963
  115OSM   H14B11898   2.755   1.326   7.849 -0.1020  1.1266  0.7827
  115OSM   H14C11899   2.601   1.276   7.779 -0.8097  0.9251 -0.2044
  115OSM    C1311900   2.463   1.476   7.929  0.4676  0.6910  0.3332
  115OSM   H13A11901   2.444   1.576   7.965  0.0732  0.6327  0.2997
  115OSM   H13B11902   2.440   1.400   8.002  2.2624  0.7732  1.0153
  115OSM   H13C11903   2.383   1.464   7.856 -2.9965 -0.0663  3.9117
  115OSM    C1211904   2.627   1.539   7.751  0.6020  0.3368 -0.3304
  115OSM   H12A11905   2.627   1.645   7.770  1.9092 -0.0780  2.4614
  115OSM   H12B11906   2.551   1.513   7.679  0.4897 -0.3317  0.0186
  115OSM    C1111907   2.762   1.523   7.679  0.3756  0.0876 -0.3571
  115OSM   H11A11908   2.731   1.570   7.583 -0.9126  0.2849  0.1327
  115OSM   H11B11909   2.797   1.419   7.660 -0.0871  0.0031 -0.7794
  115OSM      P11910   2.840   1.757   7.754  0.2092  0.2747  0.2961
  115OSM    O1311911   2.719   1.801   7.827 -0.6771 -0.6821 -0.2994
  115OSM    O1411912   2.964   1.817   7.801 -0.5002 -0.3254  0.5351
  115OSM    O1111913   2.825   1.794   7.600 -0.1404  0.1473  0.0329
  115OSM    O1211914   2.860   1.598   7.743 -0.7871 -0.4045  0.1797
  115OSM    C1S11915   2.941   1.776   7.515  0.0146  0.3181 -0.3197
  115OSM    H1S11916   2.987   1.675   7.517  1.2150  0.8552  0.1837
  115OSM    H1T11917   3.024   1.846   7.540 -0.3549  0.5641  0.2375
  115OSM     NF11918   3.015   1.791   7.277  0.1772  0.0283  0.0673
  115OSM    HNF11919   3.069   1.867   7.244  0.9650 -1.0200 -1.1244
  115OSM    C2S11920   2.904   1.816   7.365  0.6432 -0.4778  0.2634
  115OSM    H2S11921   2.835   1.737   7.329  1.9145 -0.5473 -2.2300
  115OSM    C3S11922   2.835   1.961   7.352 -0.2346  0.3512 -0.5770
  115OSM    H3S11923   2.922   2.025   7.379  0.0404  0.1125 -0.8935
  115OSM     O311924   2.725   1.982   7.445 -0.4090  0.7170 -0.3534
  115OSM    HO311925   2.723   1.900   7.495  0.1516 -1.2916 -3.3444
  115OSM    C4S11926   2.787   1.981   7.206 -0.9869  0.4566  0.0236
  115OSM    H4S11927   2.858   2.031   7.138 -2.3943  1.3432 -0.8407
  115OSM    C5S11928   2.664   1.958   7.159 -0.2925  0.4003 -0.5163
  115OSM    H5S11929   2.586   1.939   7.235  0.9506 -0.6837  0.5339
  115OSM    C6S11930   2.608   1.990   7.026 -0.2002  0.8104 -0.7159
  115OSM    H6S11931   2.533   2.072   7.030 -1.1592 -0.0158 -1.1703
  115OSM    H6T11932   2.558   1.896   6.994  0.9291 -0.3035  0.6223
  115OSM    C7S11933   2.708   2.025   6.914  0.0593  0.3778 -0.2288
  115OSM    H7S11934   2.793   1.955   6.915  1.5717  2.0625 -2.2789
  115OSM    H7T11935   2.759   2.123   6.926  0.5340  0.0173  0.7418
  115OSM    C8S11936   2.635   2.027   6.781 -0.6398  0.5280 -0.0754
  115OSM    H8S11937   2.539   2.083   6.775 -1.0975 -0.3924 -1.9232
  115OSM    H8T11938   2.600   1.925   6.755 -0.1614  0.3099  0.1161
  115OSM    C9S11939   2.724   2.063   6.660 -0.0884 -0.1701  0.0054
  115OSM    H9S11940   2.811   1.994   6.646  0.0953 -0.2203  1.2675
  115OSM    H9T11941   2.762   2.163   6.687 -0.4208  0.4837 -1.8184
  115OSM   C10S11942   2.661   2.079   6.517 -0.1006  0.0112  0.0153
  115OSM   H10S11943   2.565   2.136   6.521  0.3895  0.8972 -0.5643
  115OSM   H10T11944   2.636   1.977   6.483 -2.0535 -0.5697  2.8500
  115OSM   C11S11945   2.749   2.146   6.408  0.5292 -0.2988  0.1250
  115OSM   H11S11946   2.803   2.065   6.356 -0.0614 -0.0882 -0.8473
  115OSM   H11T11947   2.825   2.210   6.458 -0.2502 -0.0635  1.0449
  115OSM   C12S11948   2.673   2.217   6.287 -0.6158  0.1994 -0.1777
  115OSM   H12S11949   2.611   2.301   6.324 -0.9458 -0.0823 -0.0884
  115OSM   H12T11950   2.620   2.144   6.222 -0.0288 -0.8676  0.5127
  115OSM   C13S11951   2.780   2.281   6.193  0.6484  0.6117 -0.2191
  115OSM   H13S11952   2.847   2.201   6.155  0.8867  0.0670  1.2743
  115OSM   H13T11953   2.844   2.356   6.245  0.1169  2.9617 -2.7425
  115OSM   C14S11954   2.711   2.357   6.085 -0.3094 -0.4073  0.3511
  115OSM   H14S11955   2.663   2.450   6.120 -2.0339 -1.2061  0.2402
  115OSM   H14T11956   2.625   2.304   6.037 -0.2521  1.2039 -1.6907
  115OSM   C15S11957   2.805   2.406   5.971 -0.3127  0.0810  0.9844
  115OSM   H15S11958   2.738   2.456   5.898 -0.0708 -2.2402 -0.9472
  115OSM   H15T11959   2.855   2.317   5.926 -2.8753 -0.2400 -1.5135
  115OSM   C16S11960   2.918   2.511   6.005 -0.4542  0.0742 -0.1201
  115OSM   H16S11961   2.969   2.485   6.100  3.0065  1.0480 -1.5375
  115OSM   H16T11962   2.880   2.611   6.034 -0.5840 -0.9365  3.7054
  115OSM   C17S11963   3.013   2.525   5.895 -0.2103 -0.4225 -0.2156
  115OSM   H17S11964   3.079   2.436   5.903 -2.0225 -1.6592  3.3466
  115OSM   H17T11965   3.067   2.621   5.901  0.9050 -0.9590 -1.2402
  115OSM   C18S11966   2.959   2.517   5.747  0.2151  0.0053  0.4075
  115OSM   H18S11967   3.044   2.499   5.678 -0.3715 -0.2311 -0.2665
  115OSM   H18T11968   2.921   2.620   5.734  1.3674  0.5672  1.3178
  115OSM   H18U11969   2.882   2.439   5.727  1.5104 -1.3591  0.5021
  115OSM    C1F11970   3.075   1.668   7.282  0.1877 -1.4576  0.0251
  115OSM     OF11971   3.011   1.569   7.319  0.3011  0.8062 -0.1166
  115OSM    C2F11972   3.222   1.658   7.249  0.3114 -0.5558  0.9451
  115OSM    H2F11973   3.273   1.653   7.348  1.3411 -2.6603  0.3490
  115OSM    H2G11974   3.256   1.743   7.186  0.9932 -1.2168  0.4124
  115OSM    C3F11975   3.239   1.536   7.152  0.0134  0.8163  0.0631
  115OSM    H3F11976   3.176   1.539   7.060  0.0855 -3.0525 -0.2824
  115OSM    H3G11977   3.207   1.439   7.195  2.2670 -0.3889 -0.8161
  115OSM    C4F11978   3.385   1.505   7.101  0.4411 -0.5526 -0.0734
  115OSM    H4F11979   3.396   1.400   7.067 -0.9801 -0.6599 -0.2371
  115OSM    H4G11980   3.449   1.525   7.190 -2.0420  0.0986  1.6572
  115OSM    C5F11981   3.445   1.583   6.988 -0.2991 -0.0770  0.3278
  115OSM    H5F11982   3.547   1.548   6.960  0.4392  1.3333  1.1401
  115OSM    H5G11983   3.443   1.690   7.018  1.5186 -0.4577  2.0344
  115OSM    C6F11984   3.368   1.559   6.853 -0.1551  0.0891  0.5680
  115OSM    H6F11985   3.261   1.587   6.855 -0.5893 -1.0710 -2.0906
  115OSM    H6G11986   3.383   1.450   6.835  0.0119  0.0991  0.6413
  115OSM    C7F11987   3.437   1.646   6.744  0.1748  0.1459 -0.0875
  115OSM    H7F11988   3.546   1.626   6.744  0.2676  0.6472  0.1696
  115OSM    H7G11989   3.435   1.755   6.763  0.0453  0.1192  0.0586
  115OSM    C8F11990   3.416   1.610   6.591  0.0638 -0.1595  0.2155
  115OSM    H8F11991   3.399   1.501   6.600 -0.8549  0.1243  2.8787
  115OSM    H8G11992   3.500   1.637   6.523 -0.6604  0.9643 -0.2725
  115OSM    C9F11993   3.282   1.675   6.557  0.5149  0.4348  0.0207
  115OSM    H9F11994   3.196   1.660   6.624  1.0495  1.2963  0.9192
  115OSM   C10F11995   3.255   1.748   6.445  0.1047  0.3234 -0.2597
  115OSM   H10F11996   3.155   1.793   6.437  0.2999  0.6483 -0.9246
  115OSM   C11F11997   3.365   1.798   6.354  0.8255 -0.7638  0.2528
  115OSM   H11F11998   3.463   1.747   6.365  2.0351  1.2758 -0.4378
  115OSM   H11G11999   3.383   1.906   6.374  0.8472 -1.3104  3.8023
  115OSM   C12F12000   3.342   1.784   6.197  1.1675 -0.0781 -0.9564
  115OSM   H12F12001   3.397   1.864   6.144  1.4869  0.4573  0.1582
  115OSM   H12G12002   3.234   1.810   6.188  0.4409 -0.6906  3.5523
  115OSM   C13F12003   3.359   1.649   6.135  0.1446 -0.3725  0.4780
  115OSM   H13F12004   3.307   1.563   6.181 -1.6022 -0.3327 -1.2649
  115OSM   H13G12005   3.467   1.625   6.139  0.1420 -0.9424 -1.7352
  115OSM   C14F12006   3.317   1.656   5.982 -0.6307  0.3937  0.4444
  115OSM   H14F12007   3.390   1.731   5.944 -0.6203  0.5407  0.7530
  115OSM   H14G12008   3.217   1.693   5.951 -0.7961 -0.8357 -0.5514
  115OSM   C15F12009   3.340   1.525   5.911 -0.0293 -0.3756  0.7705
  115OSM   H15F12010   3.268   1.444   5.939  1.1859 -2.7669 -2.4699
  115OSM   H15G12011   3.442   1.491   5.939  0.5871  2.0213  1.6722
  115OSM   C16F12012   3.362   1.545   5.753 -0.3027 -0.0715  0.4971
  115OSM   H16F12013   3.425   1.464   5.710  0.3926  1.8595 -2.4334
  115OSM   H16G12014   3.423   1.637   5.745  2.5075 -1.7964  0.5586
  115OSM   C17F12015   3.227   1.545   5.662  0.0539 -0.1859 -0.1649
  115OSM   H17F12016   3.159   1.620   5.707  0.6533  0.7172 -0.7279
  115OSM   H17G12017   3.179   1.445   5.661 -1.3831  0.4741 -2.0970
  115OSM   C18F12018   3.264   1.574   5.521  0.3708 -0.5357  0.3036
  115OSM   H18F12019   3.327   1.665   5.511  1.3058 -1.2997 -1.1691
  115OSM   H18G12020   3.177   1.596   5.455  1.8063  0.2755 -1.4209
  115OSM   H18H12021   3.319   1.488   5.478 -1.4630 -0.6338 -2.0680
  116OSM      N12022   6.391   5.620   7.486 -0.2591  0.2574 -0.3155
  116OSM    C1512023   6.252   5.663   7.439  0.4043 -0.0122  0.0287
  116OSM   H15A12024   6.239   5.770   7.438  1.4899  0.1625  1.4304
  116OSM   H15B12025   6.173   5.627   7.502 -1.3851  2.3015 -0.7569
  116OSM   H15C12026   6.236   5.625   7.339  0.1079  1.7366 -0.6269
  116OSM    C1412027   6.490   5.710   7.422  0.4880 -0.1884 -0.8335
  116OSM   H14A12028   6.587   5.706   7.468 -0.7141  1.2084  2.1009
  116OSM   H14B12029   6.466   5.814   7.435 -0.1984 -0.3553 -0.7065
  116OSM   H14C12030   6.499   5.682   7.319  0.2625 -1.2746 -0.5775
  116OSM    C1312031   6.410   5.641   7.630  0.1213  0.0658 -0.2097
  116OSM   H13A12032   6.327   5.590   7.677 -0.0858  1.0087  0.4721
  116OSM   H13B12033   6.415   5.747   7.651  1.3797 -0.0168 -0.0216
  116OSM   H13C12034   6.503   5.593   7.657 -0.9221 -1.7963  0.2577
  116OSM    C1212035   6.422   5.475   7.445 -0.2399  0.1489  1.0594
  116OSM   H12A12036   6.527   5.450   7.448 -1.0178 -4.4733 -1.2395
  116OSM   H12B12037   6.408   5.464   7.339  2.1329  0.6856  0.6327
  116OSM    C1112038   6.351   5.359   7.522  0.4684 -0.7827  0.5455
  116OSM   H11A12039   6.382   5.354   7.629 -0.1487 -0.4067  0.7465
  116OSM   H11B12040   6.380   5.259   7.481 -0.6962 -1.2040  0.6973
  116OSM      P12041   6.116   5.251   7.527  0.1705 -0.1038 -0.0081
  116OSM    O1312042   6.161   5.162   7.631 -0.7132  0.9607 -0.0026
  116OSM    O1412043   5.980   5.306   7.545  0.1798 -0.2559 -0.1637
  116OSM    O1112044   6.135   5.197   7.380  0.4940  0.1540  0.1321
  116OSM    O1212045   6.209   5.372   7.521 -0.6335 -0.0729 -0.1550
  116OSM    C1S12046   6.108   5.283   7.262 -0.1524 -0.1622  0.0772
  116OSM    H1S12047   6.152   5.383   7.284  1.8683 -0.8785 -0.4838
  116OSM    H1T12048   5.998   5.293   7.245  0.0283  1.3261 -0.3906
  116OSM     NF12049   6.177   5.356   7.040  0.0648 -0.2013  0.2866
  116OSM    HNF12050   6.094   5.343   6.985 -1.2225  0.8284  1.8830
  116OSM    C2S12051   6.182   5.240   7.130  0.3834  0.2231  0.4003
  116OSM    H2S12052   6.289   5.216   7.153  0.4845 -1.1125 -1.2447
  116OSM    C3S12053   6.130   5.109   7.068 -0.2869  0.1332  0.6497
  116OSM    H3S12054   6.025   5.134   7.041 -0.5496 -2.1936 -0.7272
  116OSM     O312055   6.115   5.010   7.172 -0.1884  0.3838  0.2642
  116OSM    HO312056   6.099   5.055   7.255 -0.0248 -0.0834  0.5504
  116OSM    C4S12057   6.213   5.049   6.957 -0.0884  0.4597  0.4705
  116OSM    H4S12058   6.306   5.004   6.995 -0.0103  1.3909  1.4192
  116OSM    C5S12059   6.172   5.051   6.827  0.6486 -0.0567  0.3041
  116OSM    H5S12060   6.080   5.107   6.805  0.3041 -0.8124 -0.2076
  116OSM    C6S12061   6.240   4.993   6.708 -0.2526  0.4304 -0.0945
  116OSM    H6S12062   6.175   4.908   6.678  0.1451 -1.3833  3.7231
  116OSM    H6T12063   6.337   4.953   6.742 -0.6413 -0.3863  0.0805
  116OSM    C7S12064   6.247   5.102   6.602  0.3421 -0.5416 -0.5119
  116OSM    H7S12065   6.294   5.197   6.636  0.1293 -0.0760 -1.4811
  116OSM    H7T12066   6.143   5.123   6.568 -0.4693 -0.0182  2.0489
  116OSM    C8S12067   6.321   5.048   6.485  0.5021 -0.3223  0.2940
  116OSM    H8S12068   6.270   4.956   6.450 -0.7116  0.3480  0.2327
  116OSM    H8T12069   6.427   5.027   6.510  1.0678  1.1560 -0.7249
  116OSM    C9S12070   6.336   5.150   6.371  0.1457 -0.0817  0.0038
  116OSM    H9S12071   6.408   5.220   6.419 -2.9203  1.6789  2.4337
  116OSM    H9T12072   6.243   5.205   6.347  0.3391 -0.5277 -1.9578
  116OSM   C10S12073   6.410   5.089   6.250  0.2933  0.5573  0.1208
  116OSM   H10S12074   6.352   5.000   6.216 -1.1368  0.9688  1.3583
  116OSM   H10T12075   6.508   5.051   6.284 -0.0976 -1.0454 -0.4373
  116OSM   C11S12076   6.416   5.181   6.140  0.0062 -0.1005  0.2049
  116OSM   H11S12077   6.473   5.262   6.190 -1.8648  0.9148  0.8024
  116OSM   H11T12078   6.315   5.212   6.106  0.0110  0.2165  0.4755
  116OSM   C12S12079   6.493   5.123   6.018 -0.2043 -0.8203 -0.3584
  116OSM   H12S12080   6.434   5.035   5.984 -1.9786 -0.7310  2.2472
  116OSM   H12T12081   6.593   5.090   6.052  0.0563 -0.3584 -0.6727
  116OSM   C13S12082   6.506   5.230   5.915  0.2515 -0.0692 -0.1798
  116OSM   H13S12083   6.542   5.325   5.961 -2.5619  0.0697  1.9865
  116OSM   H13T12084   6.408   5.256   5.870  1.3098 -2.8640 -4.7578
  116OSM   C14S12085   6.591   5.180   5.793  0.5696  0.3938  0.6288
  116OSM   H14S12086   6.564   5.074   5.770  2.4741 -0.4811  2.1740
  116OSM   H14T12087   6.697   5.167   5.824  1.4109  4.9961  0.3753
  116OSM   C15S12088   6.605   5.286   5.676  0.2504  0.7933  0.2638
  116OSM   H15S12089   6.677   5.364   5.709  2.2242 -0.9936  0.4124
  116OSM   H15T12090   6.505   5.332   5.659 -0.4154 -0.8140 -0.3286
  116OSM   C16S12091   6.643   5.232   5.540  0.3271  0.4812 -1.5238
  116OSM   H16S12092   6.578   5.146   5.515  3.2442 -1.0789 -4.6426
  116OSM   H16T12093   6.740   5.180   5.556 -0.4106  0.0858  2.9058
  116OSM   C17S12094   6.661   5.337   5.426  0.2918  0.1471 -0.5629
  116OSM   H17S12095   6.727   5.419   5.461  0.6774  1.2348 -3.5643
  116OSM   H17T12096   6.561   5.385   5.416  0.6923  1.2553  0.4769
  116OSM   C18S12097   6.722   5.284   5.304  0.8820 -0.0642  0.7408
  116OSM   H18S12098   6.718   5.174   5.288  0.1023  0.1932 -1.0956
  116OSM   H18T12099   6.830   5.309   5.297  1.1123 -1.3629 -1.2974
  116OSM   H18U12100   6.678   5.330   5.213 -0.5339  0.0517  1.4578
  116OSM    C1F12101   6.253   5.461   7.048 -0.4168 -0.7186  0.6005
  116OSM     OF12102   6.332   5.473   7.144  0.7214 -0.3821  0.6327
  116OSM    C2F12103   6.248   5.561   6.935  0.0690  0.3558  0.3690
  116OSM    H2F12104   6.353   5.590   6.913  0.9538 -3.3610 -0.9019
  116OSM    H2G12105   6.200   5.659   6.958  1.8223  1.3370  0.0952
  116OSM    C3F12106   6.173   5.504   6.811 -0.5955 -0.2986  0.0118
  116OSM    H3F12107   6.063   5.505   6.822 -0.7694 -0.0711 -1.4392
  116OSM    H3G12108   6.195   5.397   6.788 -0.0726 -0.6349  1.9345
  116OSM    C4F12109   6.206   5.586   6.683 -0.3317  0.4759 -0.2689
  116OSM    H4F12110   6.171   5.687   6.714  2.1276  1.2380  0.2938
  116OSM    H4G12111   6.150   5.549   6.594  1.9230 -0.6833 -1.3053
  116OSM    C5F12112   6.356   5.579   6.651 -0.1052  0.5022  0.4288
  116OSM    H5F12113   6.387   5.472   6.648 -2.1826 -0.3014  3.5490
  116OSM    H5G12114   6.423   5.620   6.729  1.7643  0.7267 -1.1953
  116OSM    C6F12115   6.400   5.654   6.523  0.2557 -0.4710 -1.1054
  116OSM    H6F12116   6.510   5.654   6.515  0.2228  0.5442 -1.6709
  116OSM    H6G12117   6.351   5.753   6.537  2.1364  0.2330  1.1031
  116OSM    C7F12118   6.364   5.588   6.389 -0.4403  0.5197 -0.6186
  116OSM    H7F12119   6.259   5.555   6.402 -0.2903  0.0971 -0.4541
  116OSM    H7G12120   6.427   5.499   6.369  0.9238  1.2748  0.1588
  116OSM    C8F12121   6.377   5.697   6.281 -0.3955 -0.3661 -0.7409
  116OSM    H8F12122   6.321   5.786   6.317 -1.4132 -1.9088  1.7773
  116OSM    H8G12123   6.313   5.664   6.197 -1.0743 -0.2379 -0.2828
  116OSM    C9F12124   6.511   5.746   6.223  0.5128  0.9650  0.2150
  116OSM    H9F12125   6.581   5.801   6.289 -0.9875  0.3070  2.4694
  116OSM   C10F12126   6.550   5.720   6.092  0.0591 -0.2029 -0.5094
  116OSM   H10F12127   6.639   5.774   6.058 -0.5679  0.0130 -1.8550
  116OSM   C11F12128   6.479   5.642   5.989  0.6313  0.4048 -0.4839
  116OSM   H11F12129   6.375   5.677   5.971  0.7295  0.3556 -1.1773
  116OSM   H11G12130   6.479   5.539   6.029 -0.4626 -0.1757 -1.8946
  116OSM   C12F12131   6.543   5.642   5.852 -0.8307 -0.3073  0.1294
  116OSM   H12F12132   6.482   5.590   5.775 -0.6946  1.9269 -1.5730
  116OSM   H12G12133   6.642   5.592   5.852 -1.4344 -1.5899  1.6262
  116OSM   C13F12134   6.585   5.783   5.798  0.8184 -0.4894  0.6354
  116OSM   H13F12135   6.644   5.843   5.870  1.2193 -2.0668  1.6653
  116OSM   H13G12136   6.486   5.831   5.783  0.4341 -0.8746  1.8275
  116OSM   C14F12137   6.647   5.795   5.664  0.5685 -0.2718 -0.0701
  116OSM   H14F12138   6.751   5.757   5.671  0.3095 -0.7251  1.9481
  116OSM   H14G12139   6.647   5.905   5.647  1.4015  0.1157  2.1556
  116OSM   C15F12140   6.591   5.710   5.557  0.0937  0.6944  0.2649
  116OSM   H15F12141   6.484   5.727   5.531 -0.1392  1.6511  1.7310
  116OSM   H15G12142   6.597   5.606   5.593  0.7756  1.3650  2.1936
  116OSM   C16F12143   6.670   5.718   5.418 -0.1743  0.1590 -0.4487
  116OSM   H16F12144   6.661   5.615   5.377  1.3674  0.7035 -2.3292
  116OSM   H16G12145   6.778   5.738   5.426 -0.5787  1.7912  1.4968
  116OSM   C17F12146   6.610   5.819   5.318  0.5111  0.3868 -0.1052
  116OSM   H17F12147   6.676   5.821   5.229 -0.1559 -5.6726 -1.1966
  116OSM   H17G12148   6.618   5.918   5.368 -0.3693 -0.2284  1.3010
  116OSM   C18F12149   6.465   5.802   5.268 -0.0601  0.5498  0.4333
  116OSM   H18F12150   6.425   5.878   5.198 -1.0685 -1.7647 -1.6856
  116OSM   H18G12151   6.397   5.796   5.355  1.1329 -1.1922  1.3135
  116OSM   H18H12152   6.464   5.704   5.214  0.0037  1.7092 -1.8108
  117OSM      N12153   3.628   3.884   7.992  0.1512 -0.1239  0.1148
  117OSM    C1512154   3.737   3.906   8.090  0.0823 -0.3923 -0.4229
  117OSM   H15A12155   3.814   3.832   8.078  0.1638 -0.0956 -1.8695
  117OSM   H15B12156   3.684   3.891   8.183 -2.2453  0.8186 -1.4686
  117OSM   H15C12157   3.780   4.005   8.099  3.4590 -1.8620  1.2617
  117OSM    C1412158   3.576   3.748   8.017  0.7199 -0.5184  0.4617
  117OSM   H14A12159   3.496   3.731   7.946  1.1574  1.8712 -0.7169
  117OSM   H14B12160   3.529   3.737   8.114  1.3750 -1.7384  0.6641
  117OSM   H14C12161   3.642   3.664   8.002 -0.0632 -0.9780 -0.4946
  117OSM    C1312162   3.521   3.979   8.023  0.5527 -0.0411 -0.3589
  117OSM   H13A12163   3.440   3.969   7.952  0.1459 -0.2046  0.1182
  117OSM   H13B12164   3.561   4.079   8.015  0.5824  0.0281  0.5523
  117OSM   H13C12165   3.483   3.977   8.125  0.3819  1.0243 -0.3869
  117OSM    C1212166   3.686   3.901   7.853 -0.2164 -0.2992  0.4923
  117OSM   H12A12167   3.785   3.858   7.851  1.3934  3.0402  0.9311
  117OSM   H12B12168   3.703   4.007   7.856 -1.5642 -0.0859  2.0739
  117OSM    C1112169   3.602   3.864   7.731 -0.2335  0.3533 -0.3545
  117OSM   H11A12170   3.569   3.759   7.739  2.1141 -0.4877 -0.9266
  117OSM   H11B12171   3.666   3.868   7.640 -0.2132  2.5863 -0.3079
  117OSM      P12172   3.502   4.089   7.655 -0.1821 -0.3011  0.0406
  117OSM    O1312173   3.415   4.198   7.711 -0.3392  0.0106 -0.5363
  117OSM    O1412174   3.642   4.116   7.649 -0.1855  0.3518 -0.1097
  117OSM    O1112175   3.459   4.060   7.510 -0.0889  0.1566 -0.0098
  117OSM    O1212176   3.487   3.950   7.726  0.3184  0.6665  0.2441
  117OSM    C1S12177   3.323   4.027   7.471 -0.2060  0.8429 -0.7482
  117OSM    H1S12178   3.264   4.118   7.496 -0.4703  0.0824  1.5235
  117OSM    H1T12179   3.282   3.937   7.521  1.2902  1.2886  1.4081
  117OSM     NF12180   3.170   3.938   7.286  0.3708 -0.0185  0.7368
  117OSM    HNF12181   3.161   3.862   7.222  0.8844  0.9146 -0.4823
  117OSM    C2S12182   3.304   3.991   7.320 -0.5393 -0.4595  0.4133
  117OSM    H2S12183   3.305   4.093   7.275 -3.7674 -1.1993 -1.7311
  117OSM    C3S12184   3.424   3.907   7.260  0.8116  0.4832  0.3877
  117OSM    H3S12185   3.444   3.814   7.316  4.2795 -0.2039 -1.7159
  117OSM     O312186   3.552   3.959   7.264 -0.5782 -0.6982 -0.1253
  117OSM    HO312187   3.547   4.023   7.336  1.8296 -0.4341 -0.1066
  117OSM    C4S12188   3.393   3.871   7.117  0.5953 -0.8824  0.1994
  117OSM    H4S12189   3.431   3.946   7.046 -0.0536 -0.4506  0.2957
  117OSM    C5S12190   3.339   3.755   7.068  0.4961 -0.0811 -0.2356
  117OSM    H5S12191   3.312   3.676   7.140  1.3060  0.0847  0.2539
  117OSM    C6S12192   3.309   3.732   6.922 -0.0137  0.1142 -0.2917
  117OSM    H6S12193   3.218   3.667   6.918 -0.6463  0.9798 -0.2536
  117OSM    H6T12194   3.388   3.675   6.868  2.0863 -1.9672  4.4289
  117OSM    C7S12195   3.271   3.861   6.845  0.7380  0.6147  0.2839
  117OSM    H7S12196   3.366   3.918   6.836  0.5132  0.7531 -1.6928
  117OSM    H7T12197   3.197   3.916   6.907  1.3939  2.3406 -0.4146
  117OSM    C8S12198   3.216   3.827   6.705 -0.0627 -0.4257  0.4230
  117OSM    H8S12199   3.185   3.922   6.657 -0.0549 -0.4736  0.3235
  117OSM    H8T12200   3.118   3.781   6.726 -0.7864  0.7651 -0.2567
  117OSM    C9S12201   3.299   3.752   6.608 -0.0667  0.3680  0.4621
  117OSM    H9S12202   3.296   3.643   6.633  2.5114  0.3945  1.1209
  117OSM    H9T12203   3.406   3.772   6.631 -0.3833  0.8740  1.5249
  117OSM   C10S12204   3.271   3.777   6.461 -0.8096  0.8108 -0.3885
  117OSM   H10S12205   3.270   3.884   6.428  1.1629  0.7682 -0.6630
  117OSM   H10T12206   3.167   3.739   6.446 -1.2527  1.8951 -0.1983
  117OSM   C11S12207   3.374   3.710   6.367 -0.0741 -0.1596  0.4176
  117OSM   H11S12208   3.374   3.603   6.394  0.7393 -0.2263  0.1852
  117OSM   H11T12209   3.474   3.753   6.388 -0.2473  0.2928  0.3493
  117OSM   C12S12210   3.337   3.734   6.220 -0.6678  0.0268  0.2824
  117OSM   H12S12211   3.334   3.844   6.205  0.2212  0.1001  0.5957
  117OSM   H12T12212   3.229   3.709   6.213 -1.0721  1.1415  1.9396
  117OSM   C13S12213   3.408   3.657   6.112 -0.0930  0.3728  0.0242
  117OSM   H13S12214   3.372   3.552   6.123 -1.5034  0.9777  1.7638
  117OSM   H13T12215   3.517   3.663   6.128  0.1708  0.6664 -1.6820
  117OSM   C14S12216   3.385   3.715   5.967 -0.6061  0.0843  0.5028
  117OSM   H14S12217   3.436   3.813   5.956 -0.4126 -0.2181 -1.9321
  117OSM   H14T12218   3.277   3.742   5.966 -0.7670 -0.4756  1.5288
  117OSM   C15S12219   3.419   3.634   5.845 -0.0615  0.5236 -0.4431
  117OSM   H15S12220   3.353   3.545   5.838 -1.7832  1.3265  3.1279
  117OSM   H15T12221   3.519   3.585   5.856 -0.0949 -0.3931 -3.3418
  117OSM   C16S12222   3.418   3.719   5.717  0.1831 -0.1901  0.2371
  117OSM   H16S12223   3.446   3.822   5.747  0.0027  0.7142 -2.4238
  117OSM   H16T12224   3.312   3.725   5.681  0.1071 -0.8396  0.3493
  117OSM   C17S12225   3.514   3.691   5.602  0.0137  0.3167  1.0409
  117OSM   H17S12226   3.514   3.580   5.591  0.7225  0.3474  0.6708
  117OSM   H17T12227   3.613   3.728   5.634 -0.1645  0.2280  1.6976
  117OSM   C18S12228   3.468   3.752   5.470  0.0825 -0.0192 -0.1125
  117OSM   H18S12229   3.449   3.860   5.487 -2.4849 -0.2055 -1.4118
  117OSM   H18T12230   3.374   3.705   5.436 -0.4501  0.8710  0.0996
  117OSM   H18U12231   3.543   3.744   5.389 -0.5291  0.2087 -0.7065
  117OSM    C1F12232   3.055   3.991   7.331  0.3171 -0.3180  0.6479
  117OSM     OF12233   3.050   4.102   7.379  0.1825 -0.2356  0.1735
  117OSM    C2F12234   2.933   3.913   7.320  0.1563  0.6101  0.1826
  117OSM    H2F12235   2.882   3.908   7.419  0.9193  1.0832  0.6056
  117OSM    H2G12236   2.953   3.810   7.284  1.8496  0.2919  1.8889
  117OSM    C3F12237   2.833   3.973   7.215  1.2862  0.3999  0.2781
  117OSM    H3F12238   2.795   4.069   7.256 -0.7627 -0.7105  1.1251
  117OSM    H3G12239   2.742   3.910   7.218  1.7445 -0.3009 -0.1735
  117OSM    C4F12240   2.879   3.976   7.072  0.3752  0.3854 -0.6589
  117OSM    H4F12241   2.941   3.890   7.039 -0.9059 -0.4330 -1.0006
  117OSM    H4G12242   2.952   4.060   7.067 -0.9207  1.5467 -0.6183
  117OSM    C5F12243   2.767   3.998   6.973  0.2623 -0.1837  0.2731
  117OSM    H5F12244   2.700   4.086   6.988 -0.4946 -0.8325  0.8268
  117OSM    H5G12245   2.714   3.900   6.975  1.4490 -0.8315  0.8029
  117OSM    C6F12246   2.822   4.002   6.834  0.0016 -0.1948  0.0502
  117OSM    H6F12247   2.731   4.003   6.770 -0.2396 -0.4866  0.3873
  117OSM    H6G12248   2.875   3.908   6.809  2.3474  0.4566  2.1583
  117OSM    C7F12249   2.907   4.124   6.798 -0.1077 -0.5120  0.5700
  117OSM    H7F12250   3.003   4.081   6.836  0.2878 -2.3298 -2.1400
  117OSM    H7G12251   2.863   4.204   6.861 -1.7590 -1.0383  0.1487
  117OSM    C8F12252   2.916   4.163   6.649  0.4724 -0.5240  0.0334
  117OSM    H8F12253   2.817   4.189   6.605  1.2307 -0.6591 -1.8643
  117OSM    H8G12254   2.939   4.071   6.591 -2.5492 -1.6358  0.4422
  117OSM    C9F12255   3.017   4.271   6.628  0.7583 -0.2874  0.4660
  117OSM    H9F12256   3.006   4.363   6.688 -0.0519  0.8510 -1.3338
  117OSM   C10F12257   3.137   4.263   6.570  0.0736  0.3259  0.1846
  117OSM   H10F12258   3.194   4.357   6.566 -0.8281  0.8937  0.5002
  117OSM   C11F12259   3.185   4.141   6.494 -0.3578  0.4201  0.0701
  117OSM   H11F12260   3.116   4.056   6.512  1.4526 -0.6915  2.2020
  117OSM   H11G12261   3.281   4.112   6.541  0.8622  2.2182 -1.2012
  117OSM   C12F12262   3.198   4.156   6.340 -0.3631 -0.4026  0.2772
  117OSM   H12F12263   3.250   4.062   6.312 -0.2887 -0.8797  1.9349
  117OSM   H12G12264   3.257   4.246   6.312  2.3241 -2.2425 -0.4375
  117OSM   C13F12265   3.064   4.157   6.266  0.1045 -0.7910  0.3256
  117OSM   H13F12266   2.990   4.222   6.317  2.0404  1.0071  0.9355
  117OSM   H13G12267   3.022   4.055   6.280 -3.5493  0.9767  4.9428
  117OSM   C14F12268   3.070   4.225   6.127 -0.3174 -0.1208  0.0273
  117OSM   H14F12269   3.131   4.317   6.134  0.5702 -0.5566 -1.4807
  117OSM   H14G12270   2.971   4.255   6.088 -0.7248 -2.1233 -0.6073
  117OSM   C15F12271   3.128   4.127   6.023  0.2461  0.9575  0.4139
  117OSM   H15F12272   3.058   4.041   6.015  1.6822 -0.2308  0.1536
  117OSM   H15G12273   3.222   4.082   6.061 -1.2627 -1.0380  2.0256
  117OSM   C16F12274   3.142   4.183   5.885 -0.3018  0.7994  0.3730
  117OSM   H16F12275   3.216   4.265   5.887 -1.1857  1.6074  2.7901
  117OSM   H16G12276   3.053   4.241   5.853 -0.0938  0.9616  0.0870
  117OSM   C17F12277   3.195   4.080   5.786  0.4329 -0.1316 -0.3321
  117OSM   H17F12278   3.286   4.028   5.824 -1.1232 -0.6739  3.0829
  117OSM   H17G12279   3.225   4.140   5.697 -1.1435  0.9443 -0.1804
  117OSM   C18F12280   3.084   3.975   5.756 -0.5138  0.4313  0.3243
  117OSM   H18F12281   2.990   4.017   5.713 -2.0203 -1.7984  1.2904
  117OSM   H18G12282   3.061   3.906   5.839  1.0526 -1.6868 -0.9044
  117OSM   H18H12283   3.134   3.906   5.685  0.7728 -1.0198  2.5453
  118OSM      N12284   3.631   1.491   7.831 -0.1673  0.4467  0.2150
  118OSM    C1512285   3.599   1.488   7.977  0.2247 -0.7362 -0.3076
  118OSM   H15A12286   3.652   1.408   8.026  0.3194 -0.5944 -0.1779
  118OSM   H15B12287   3.493   1.480   7.994  0.4358 -1.6437  0.6699
  118OSM   H15C12288   3.633   1.571   8.037 -1.2734 -1.9279  2.3449
  118OSM    C1412289   3.581   1.368   7.774  0.1639 -0.1246  0.5481
  118OSM   H14A12290   3.618   1.278   7.823  1.0905  0.8437  1.7083
  118OSM   H14B12291   3.604   1.341   7.672  0.2533 -0.5736  0.6833
  118OSM   H14C12292   3.474   1.377   7.788  0.0244  0.8066 -1.0207
  118OSM    C1312293   3.552   1.602   7.772 -0.7689 -0.2247 -0.6473
  118OSM   H13A12294   3.584   1.697   7.812 -1.1796  0.0971 -1.0750
  118OSM   H13B12295   3.447   1.607   7.801 -1.6855  0.5239 -3.7753
  118OSM   H13C12296   3.549   1.596   7.665 -2.5247  0.1823 -0.6534
  118OSM    C1212297   3.778   1.524   7.810 -0.3620 -0.0163  0.4663
  118OSM   H12A12298   3.836   1.442   7.848 -0.5597 -0.7866 -0.8327
  118OSM   H12B12299   3.795   1.618   7.861 -3.5425  1.3005 -0.6198
  118OSM    C1112300   3.821   1.564   7.666 -0.0503 -0.4420 -0.1903
  118OSM   H11A12301   3.928   1.587   7.646 -0.0447 -0.6486 -0.4018
  118OSM   H11B12302   3.750   1.639   7.627  1.8468  0.8438 -1.3579
  118OSM      P12303   3.875   1.331   7.558 -0.1442  0.2067  0.4106
  118OSM    O1312304   3.976   1.332   7.663  0.1056 -0.5113 -0.1399
  118OSM    O1412305   3.788   1.215   7.558 -0.1218  0.7946  0.3724
  118OSM    O1112306   3.935   1.361   7.405 -0.0510 -0.8711 -0.0318
  118OSM    O1212307   3.787   1.452   7.585  0.1962 -0.2113  0.3726
  118OSM    C1S12308   4.018   1.471   7.387 -0.4741 -0.1252 -0.0159
  118OSM    H1S12309   4.117   1.445   7.432 -1.8335 -0.1406  3.2528
  118OSM    H1T12310   3.980   1.561   7.439  0.3821 -1.3384  2.9504
  118OSM     NF12311   4.160   1.565   7.206 -0.7442 -0.0175  0.1706
  118OSM    HNF12312   4.149   1.663   7.193 -0.2872 -0.1913 -1.7902
  118OSM    C2S12313   4.047   1.485   7.237 -0.0595 -0.4493  0.0523
  118OSM    H2S12314   4.051   1.385   7.189 -0.5543  0.8604 -2.9988
  118OSM    C3S12315   3.917   1.546   7.169 -0.1440  0.1751  1.2421
  118OSM    H3S12316   3.915   1.647   7.215  1.4612  1.0938 -0.5419
  118OSM     O312317   3.792   1.481   7.190  0.5055 -0.1710 -0.3805
  118OSM    HO312318   3.800   1.410   7.254 -2.5574  0.1584  0.5103
  118OSM    C4S12319   3.937   1.563   7.017 -0.0980  0.1550  0.0665
  118OSM    H4S12320   3.967   1.473   6.962 -0.7843 -0.4692  0.7008
  118OSM    C5S12321   3.905   1.662   6.939  0.1062 -1.1836 -0.5869
  118OSM    H5S12322   3.854   1.748   6.986 -1.2427 -2.2353 -0.0514
  118OSM    C6S12323   3.920   1.670   6.794  0.0485 -0.0376 -0.3164
  118OSM    H6S12324   3.970   1.766   6.766 -2.3283  0.8714 -1.7358
  118OSM    H6T12325   3.820   1.674   6.746 -0.1880  0.0889  0.1830
  118OSM    C7S12326   3.971   1.540   6.722  0.4866  0.0452  0.1219
  118OSM    H7S12327   3.897   1.459   6.741 -1.9094  2.0477 -0.2735
  118OSM    H7T12328   4.073   1.520   6.763  0.1367  1.3203  1.7200
  118OSM    C8S12329   3.981   1.565   6.568 -0.8963 -0.3379  0.5273
  118OSM    H8S12330   4.042   1.482   6.526 -0.1901 -0.5120  1.8536
  118OSM    H8T12331   4.022   1.668   6.559 -1.2031 -0.0224  2.3098
  118OSM    C9S12332   3.843   1.559   6.489 -0.2571  0.3186  0.0160
  118OSM    H9S12333   3.784   1.647   6.522 -1.4601 -1.3656  2.7325
  118OSM    H9T12334   3.791   1.465   6.515  1.7926 -0.9186 -0.1305
  118OSM   C10S12335   3.875   1.568   6.342  0.3509 -0.0515  0.0313
  118OSM   H10S12336   3.915   1.469   6.312  1.3493  0.5376 -0.6617
  118OSM   H10T12337   3.954   1.644   6.322  0.1891  0.1921  0.3086
  118OSM   C11S12338   3.754   1.611   6.252  0.4853  0.0686 -0.1274
  118OSM   H11S12339   3.731   1.718   6.270  1.0746 -0.1067  1.9174
  118OSM   H11T12340   3.663   1.565   6.297 -2.0360  2.9469 -1.8896
  118OSM   C12S12341   3.773   1.582   6.097  0.2984 -0.3510 -0.0578
  118OSM   H12S12342   3.678   1.608   6.045 -0.1061  2.1625  1.7393
  118OSM   H12T12343   3.793   1.474   6.116 -1.2930 -0.8466 -0.9303
  118OSM   C13S12344   3.888   1.665   6.028 -0.0017  0.0061  0.2507
  118OSM   H13S12345   3.987   1.644   6.073  0.1577  0.3434  0.0572
  118OSM   H13T12346   3.871   1.773   6.052  2.5226  0.4090  0.4271
  118OSM   C14S12347   3.883   1.637   5.880  0.5707 -0.3274 -0.0603
  118OSM   H14S12348   3.790   1.660   5.824  0.2455  2.0428  1.3072
  118OSM   H14T12349   3.889   1.526   5.869  0.5498 -0.0846 -3.4301
  118OSM   C15S12350   4.007   1.695   5.810 -0.5521  0.1391 -0.0197
  118OSM   H15S12351   4.003   1.653   5.707 -0.6378  0.4933 -0.1631
  118OSM   H15T12352   4.099   1.659   5.861 -1.5972  1.4788  3.1094
  118OSM   C16S12353   4.013   1.845   5.776 -0.7936  0.3143 -0.1378
  118OSM   H16S12354   4.041   1.902   5.867 -0.1024 -0.1108 -0.0737
  118OSM   H16T12355   3.915   1.878   5.735 -0.8325  2.4377  1.5307
  118OSM   C17S12356   4.119   1.873   5.659 -0.3639 -0.1164  0.6103
  118OSM   H17S12357   4.075   1.829   5.567 -2.6718  0.8684  1.1719
  118OSM   H17T12358   4.217   1.830   5.689 -0.1102 -0.9896 -1.3306
  118OSM   C18S12359   4.140   2.021   5.611 -0.7520  0.0134 -0.1595
  118OSM   H18S12360   4.227   2.027   5.543  0.1157  0.3151  0.9588
  118OSM   H18T12361   4.153   2.075   5.707 -2.0055 -1.7847  1.0883
  118OSM   H18U12362   4.050   2.063   5.562  0.5039  1.9246 -0.9478
  118OSM    C1F12363   4.285   1.529   7.243  0.1157  0.0259 -0.2208
  118OSM     OF12364   4.315   1.416   7.270 -0.1782  0.0379  1.1888
  118OSM    C2F12365   4.395   1.643   7.248 -0.0581  0.0693  0.3768
  118OSM    H2F12366   4.488   1.590   7.277 -1.6884 -3.0234  0.3822
  118OSM    H2G12367   4.367   1.710   7.332 -1.5156 -0.8287  0.6510
  118OSM    C3F12368   4.413   1.731   7.130 -0.5668 -0.7430 -0.3077
  118OSM    H3F12369   4.481   1.812   7.164 -1.4307 -0.8097  1.7204
  118OSM    H3G12370   4.316   1.782   7.113  0.2190  1.1690  0.6278
  118OSM    C4F12371   4.453   1.647   7.007 -0.0971  0.0434  0.3405
  118OSM    H4F12372   4.366   1.583   6.982  0.9075 -1.3190  0.2204
  118OSM    H4G12373   4.537   1.581   7.037 -0.2844 -1.6560 -2.5544
  118OSM    C5F12374   4.494   1.726   6.891  0.0354  0.2654  0.5147
  118OSM    H5F12375   4.583   1.789   6.915  0.2582 -0.0011  0.3893
  118OSM    H5G12376   4.411   1.798   6.873 -1.1545 -1.6284 -2.2552
  118OSM    C6F12377   4.506   1.645   6.767 -0.2755  0.5362  0.5175
  118OSM    H6F12378   4.417   1.584   6.739  1.6199 -1.3527 -1.9933
  118OSM    H6G12379   4.590   1.573   6.775  0.6635  0.9555 -3.3654
  118OSM    C7F12380   4.533   1.735   6.647  0.1704 -0.3028  0.2401
  118OSM    H7F12381   4.612   1.812   6.663 -0.4011  0.0753  1.3407
  118OSM    H7G12382   4.441   1.796   6.635 -0.1613 -0.1769  2.8811
  118OSM    C8F12383   4.556   1.655   6.516 -0.6999 -0.0644 -0.3325
  118OSM    H8F12384   4.529   1.713   6.425  1.4874  0.7327 -0.5436
  118OSM    H8G12385   4.483   1.572   6.516 -2.3723  1.3239  1.4033
  118OSM    C9F12386   4.697   1.588   6.504  0.1832 -0.1546 -0.1766
  118OSM    H9F12387   4.704   1.498   6.566 -0.2275  0.2943  0.5389
  118OSM   C10F12388   4.795   1.628   6.422  0.5968  0.5663 -1.1754
  118OSM   H10F12389   4.888   1.569   6.427  0.7835  0.9705  0.7854
  118OSM   C11F12390   4.803   1.747   6.330 -0.0206 -0.5050 -0.6325
  118OSM   H11F12391   4.910   1.777   6.333  0.3762 -1.9268  0.4567
  118OSM   H11G12392   4.749   1.833   6.375 -1.1335 -2.2105  1.5189
  118OSM   C12F12393   4.756   1.721   6.181 -0.3863  0.6099  0.1219
  118OSM   H12F12394   4.732   1.820   6.138 -2.6081  0.5668  1.1337
  118OSM   H12G12395   4.665   1.659   6.171  0.0777  0.3093 -3.7796
  118OSM   C13F12396   4.874   1.650   6.103 -0.3769 -0.4218 -0.8620
  118OSM   H13F12397   4.881   1.543   6.133  0.4774 -0.3876 -0.9088
  118OSM   H13G12398   4.972   1.698   6.124 -2.3076  3.4553  0.2913
  118OSM   C14F12399   4.875   1.643   5.950  1.1204 -0.7115  0.0472
  118OSM   H14F12400   4.862   1.746   5.911 -1.1245 -1.0188 -0.1102
  118OSM   H14G12401   4.787   1.582   5.923  1.4479 -0.7955 -0.8560
  118OSM   C15F12402   4.998   1.573   5.886  0.8136 -0.1577 -0.7219
  118OSM   H15F12403   5.017   1.470   5.926  0.7537 -0.6041 -1.8191
  118OSM   H15G12404   5.086   1.631   5.921 -0.7931  1.4692  0.7983
  118OSM   C16F12405   5.001   1.575   5.736 -0.4970 -0.8395 -0.3491
  118OSM   H16F12406   4.990   1.679   5.697 -1.1385 -0.7581  0.0296
  118OSM   H16G12407   4.904   1.533   5.700  0.2608 -1.9626 -1.1482
  118OSM   C17F12408   5.124   1.502   5.669 -0.1997  0.2181  0.3881
  118OSM   H17F12409   5.111   1.515   5.559 -0.5607  1.0688  0.5224
  118OSM   H17G12410   5.111   1.394   5.692 -0.9946 -0.0988 -1.3370
  118OSM   C18F12411   5.249   1.565   5.725  0.0753 -0.3825 -1.0808
  118OSM   H18F12412   5.337   1.553   5.658  1.3580 -0.3670  0.5274
  118OSM   H18G12413   5.274   1.529   5.828 -3.0409 -1.0130 -0.4453
  118OSM   H18H12414   5.232   1.674   5.738  2.5097  0.3302 -3.0726
  119OSM      N12415   6.724   1.357   7.534 -0.3260 -0.3127  0.2992
  119OSM    C1512416   6.742   1.213   7.562 -0.4342  0.5767 -0.6098
  119OSM   H15A12417   6.834   1.170   7.524 -1.9105 -3.5957 -0.0556
  119OSM   H15B12418   6.658   1.148   7.538  0.5353 -0.9904  0.0745
  119OSM   H15C12419   6.751   1.198   7.668 -1.3862  0.4347 -0.5335
  119OSM    C1412420   6.602   1.414   7.591 -0.2729  0.7579  0.3664
  119OSM   H14A12421   6.594   1.515   7.554  0.5011  0.3136 -1.0826
  119OSM   H14B12422   6.605   1.416   7.699  0.0748 -0.4131  0.3923
  119OSM   H14C12423   6.516   1.366   7.549  1.2879  0.0111 -2.1637
  119OSM    C1312424   6.844   1.431   7.594  0.1720 -0.4599 -0.8635
  119OSM   H13A12425   6.816   1.535   7.599 -0.1152 -0.5760  0.2651
  119OSM   H13B12426   6.928   1.425   7.526 -1.0681  0.7599 -2.5787
  119OSM   H13C12427   6.868   1.384   7.688 -1.6264  0.2699  0.0034
  119OSM    C1212428   6.736   1.385   7.384 -0.5883 -0.0387 -0.2067
  119OSM   H12A12429   6.649   1.340   7.337 -0.5086 -2.2907  1.6164
  119OSM   H12B12430   6.821   1.330   7.347 -1.0366 -0.3219 -0.8381
  119OSM    C1112431   6.734   1.529   7.333 -0.7372  0.3272 -0.2891
  119OSM   H11A12432   6.768   1.519   7.228 -0.8177  1.4537 -0.4372
  119OSM   H11B12433   6.815   1.593   7.373  0.1370  1.2503 -3.2760
  119OSM      P12434   6.577   1.736   7.401  0.0257 -0.3762  0.0289
  119OSM    O1312435   6.451   1.785   7.350  0.2991  0.0509 -0.3107
  119OSM    O1412436   6.590   1.729   7.550  0.3823 -0.5767  0.1019
  119OSM    O1112437   6.688   1.826   7.343 -0.3015  0.1530  0.7778
  119OSM    O1212438   6.609   1.590   7.340  0.1608 -0.4459 -0.2689
  119OSM    C1S12439   6.713   1.835   7.204 -0.6750  0.7269  0.3664
  119OSM    H1S12440   6.622   1.871   7.152 -1.3003  2.4849  2.4942
  119OSM    H1T12441   6.733   1.731   7.170  0.0921  0.7477  0.7285
  119OSM     NF12442   6.861   1.913   7.024  0.1177  0.7710  0.2782
  119OSM    HNF12443   6.926   1.842   6.997 -0.9223  0.3361 -1.2237
  119OSM    C2S12444   6.841   1.923   7.165 -0.6238  0.1242 -0.1891
  119OSM    H2S12445   6.820   2.030   7.187  0.4841  0.2510  0.2981
  119OSM    C3S12446   6.964   1.880   7.253  0.1890  0.8766 -0.2095
  119OSM    H3S12447   6.985   1.780   7.210 -1.4131  0.8040 -0.9175
  119OSM     O312448   6.945   1.849   7.392  0.2032 -0.2182  0.0615
  119OSM    HO312449   6.849   1.849   7.397  0.2156  1.5243  2.8962
  119OSM    C4S12450   7.078   1.966   7.242  0.0641  0.0039  0.9883
  119OSM    H4S12451   7.052   2.069   7.271  1.9530  0.2978  1.7318
  119OSM    C5S12452   7.200   1.931   7.203 -0.5261 -0.1999  0.7942
  119OSM    H5S12453   7.228   1.826   7.185 -0.4220 -0.9713  4.6414
  119OSM    C6S12454   7.315   2.037   7.193  0.0311 -0.5467 -0.7182
  119OSM    H6S12455   7.400   2.004   7.257 -3.0855 -0.9088  3.7298
  119OSM    H6T12456   7.289   2.134   7.242  1.9488  0.1969 -1.0948
  119OSM    C7S12457   7.356   2.050   7.046  0.2690  0.4993 -0.3033
  119OSM    H7S12458   7.413   1.958   7.020 -0.4692 -0.2191  0.5564
  119OSM    H7T12459   7.417   2.141   7.029 -0.8270  1.0343 -1.6046
  119OSM    C8S12460   7.242   2.057   6.941  0.6394  0.0557 -0.3518
  119OSM    H8S12461   7.170   2.140   6.958 -0.5147 -0.7128 -1.3203
  119OSM    H8T12462   7.187   1.961   6.945  0.0643  0.4069  0.4950
  119OSM    C9S12463   7.312   2.060   6.798 -0.7131 -0.0966 -0.2438
  119OSM    H9S12464   7.375   1.969   6.802 -2.2395 -1.1525  0.6803
  119OSM    H9T12465   7.379   2.147   6.775  0.5597 -0.4898  1.7548
  119OSM   C10S12466   7.216   2.035   6.678  0.0384 -0.2110 -0.9113
  119OSM   H10S12467   7.137   2.112   6.690  0.6060 -0.0551  3.5415
  119OSM   H10T12468   7.166   1.936   6.684 -1.4561  0.5923  1.8127
  119OSM   C11S12469   7.287   2.048   6.554 -0.3840  0.1601  0.0702
  119OSM   H11S12470   7.375   1.979   6.550 -0.5919 -0.0528 -1.5565
  119OSM   H11T12471   7.329   2.149   6.537 -1.8752  0.6630 -0.7015
  119OSM   C12S12472   7.194   2.008   6.436  0.3388  0.4462  0.0258
  119OSM   H12S12473   7.099   2.066   6.435  0.8930  1.3783 -0.9277
  119OSM   H12T12474   7.161   1.902   6.444  1.8004  0.0138  0.4669
  119OSM   C13S12475   7.269   2.020   6.301 -0.2128  0.0241 -0.3059
  119OSM   H13S12476   7.359   1.955   6.305 -1.5719 -1.8633  1.2811
  119OSM   H13T12477   7.300   2.126   6.285  0.3778  0.3549  2.5499
  119OSM   C14S12478   7.201   1.969   6.167 -0.6785  0.9332 -0.0025
  119OSM   H14S12479   7.109   2.026   6.141 -1.6181  0.0384  1.2704
  119OSM   H14T12480   7.179   1.864   6.196  0.7724  0.5982 -0.0184
  119OSM   C15S12481   7.288   1.946   6.042  0.2492  0.4656 -0.2063
  119OSM   H15S12482   7.351   1.860   6.073  0.2658  1.3137  2.3700
  119OSM   H15T12483   7.362   2.024   6.014 -0.4944  1.5218  0.6973
  119OSM   C16S12484   7.201   1.896   5.921 -0.0229  0.1799 -0.4556
  119OSM   H16S12485   7.102   1.865   5.959  0.2250  0.8560  0.8049
  119OSM   H16T12486   7.252   1.823   5.855  2.0228  2.7666 -1.9327
  119OSM   C17S12487   7.182   2.021   5.836 -0.5019 -0.0792 -0.7468
  119OSM   H17S12488   7.276   2.055   5.787 -0.4873  0.2855 -0.4621
  119OSM   H17T12489   7.141   2.098   5.905  0.6868  1.7076 -1.9527
  119OSM   C18S12490   7.074   2.016   5.715  0.2965  0.1483  0.0653
  119OSM   H18S12491   7.116   1.941   5.645  1.4298 -0.3582  1.2338
  119OSM   H18T12492   7.068   2.118   5.671  2.5826  1.2628  2.0532
  119OSM   H18U12493   6.973   1.985   5.749 -0.7948  2.7684 -0.5444
  119OSM    C1F12494   6.801   1.987   6.937 -0.2765  0.3398 -0.0652
  119OSM     OF12495   6.698   2.052   6.959 -0.4579  0.3902  0.3795
  119OSM    C2F12496   6.868   1.998   6.806  0.2114  0.3155  0.9772
  119OSM    H2F12497   6.961   1.937   6.798 -0.6353 -0.7642 -1.5887
  119OSM    H2G12498   6.893   2.105   6.786 -0.7487  0.7344  1.9101
  119OSM    C3F12499   6.775   1.948   6.695  0.7221  0.1315 -0.4938
  119OSM    H3F12500   6.666   1.968   6.701  0.5880 -0.9342  1.4132
  119OSM    H3G12501   6.767   1.838   6.701  2.2166  0.0639  0.7268
  119OSM    C4F12502   6.827   1.988   6.558  0.3188 -0.2303 -0.0560
  119OSM    H4F12503   6.903   1.910   6.538 -1.9065 -2.1089 -1.7880
  119OSM    H4G12504   6.864   2.093   6.563  1.3515 -0.5400 -0.8251
  119OSM    C5F12505   6.713   1.961   6.454  0.1087  0.5786  0.0009
  119OSM    H5F12506   6.630   2.035   6.462 -1.7923 -1.4862  0.2508
  119OSM    H5G12507   6.660   1.865   6.469  0.0436  0.4153 -1.1765
  119OSM    C6F12508   6.775   1.981   6.312  0.3969  0.2663 -0.3595
  119OSM    H6F12509   6.875   1.932   6.309  0.7718  1.0111 -0.2383
  119OSM    H6G12510   6.789   2.091   6.303  0.7670  0.2775  0.3109
  119OSM    C7F12511   6.680   1.926   6.205 -0.8049  0.6695  0.6921
  119OSM    H7F12512   6.582   1.964   6.242 -0.9067  0.9911  0.1050
  119OSM    H7G12513   6.656   1.819   6.222 -2.7983  0.8882 -0.3515
  119OSM    C8F12514   6.719   1.955   6.060 -0.0268 -0.2039  0.1450
  119OSM    H8F12515   6.803   1.891   6.026 -1.0767  0.2814 -3.9430
  119OSM    H8G12516   6.761   2.058   6.060 -0.1042 -0.1445  2.0292
  119OSM    C9F12517   6.594   1.947   5.967 -0.5488  0.3734  0.4871
  119OSM    H9F12518   6.503   1.972   6.023 -1.7635  4.0147 -2.6597
  119OSM   C10F12519   6.584   1.902   5.845 -0.3710  0.7906 -0.0825
  119OSM   H10F12520   6.484   1.906   5.800  0.7543 -0.3471 -2.9081
  119OSM   C11F12521   6.703   1.882   5.753 -0.1504  0.5086  0.0788
  119OSM   H11F12522   6.696   1.788   5.694  2.7866  0.1709  0.1290
  119OSM   H11G12523   6.794   1.862   5.813  1.0813 -1.5183 -2.2625
  119OSM   C12F12524   6.743   1.991   5.655 -0.1456 -0.6738  0.0254
  119OSM   H12F12525   6.828   1.944   5.602  1.5866  0.6368  1.5187
  119OSM   H12G12526   6.782   2.087   5.695 -1.3489 -0.5804  1.0519
  119OSM   C13F12527   6.635   2.037   5.552  0.2935  0.3328 -0.0034
  119OSM   H13F12528   6.667   2.130   5.499  2.5006 -0.0293  0.6106
  119OSM   H13G12529   6.537   2.058   5.601 -0.1914 -0.7202 -0.4969
  119OSM   C14F12530   6.601   1.935   5.444  0.0746  0.4683  0.1620
  119OSM   H14F12531   6.500   1.967   5.412 -0.5946 -0.9982  0.7130
  119OSM   H14G12532   6.604   1.832   5.486  4.1509 -0.5123 -2.0158
  119OSM   C15F12533   6.689   1.936   5.327 -0.2834  0.7498 -0.3686
  119OSM   H15F12534   6.695   2.042   5.292  0.6586  1.2580  1.2540
  119OSM   H15G12535   6.642   1.872   5.249 -0.3159  0.8222 -0.4081
  119OSM   C16F12536   6.829   1.888   5.344 -0.6885  0.2756 -0.1584
  119OSM   H16F12537   6.818   1.783   5.380  0.0644 -0.4739 -1.9899
  119OSM   H16G12538   6.890   1.952   5.411  2.3808  0.5661 -2.9332
  119OSM   C17F12539   6.904   1.870   5.207 -0.3675 -0.1466 -0.0650
  119OSM   H17F12540   6.948   1.970   5.187 -0.3490  0.1378  1.3124
  119OSM   H17G12541   6.844   1.836   5.119 -1.6598  2.8578 -0.4714
  119OSM   C18F12542   7.020   1.773   5.228  0.9588 -0.0274 -0.3089
  119OSM   H18F12543   7.098   1.778   5.149  1.3193  0.4021  0.0722
  119OSM   H18G12544   6.987   1.669   5.250 -1.4005  1.1923  2.6171
  119OSM   H18H12545   7.059   1.802   5.327 -2.0253 -3.0773  2.0173
  120OSM      N12546   1.968   4.671   7.390  0.5924  0.3645  0.5112
  120OSM    C1512547   1.898   4.795   7.442 -0.0778  0.3908  0.3205
  120OSM   H15A12548   1.924   4.886   7.389  0.2441 -0.9192 -1.9279
  120OSM   H15B12549   1.909   4.807   7.548  0.4055 -0.6779  0.4123
  120OSM   H15C12550   1.797   4.780   7.408 -0.0988  0.2960  0.4247
  120OSM    C1412551   2.105   4.670   7.443  0.3760 -0.0767 -0.3273
  120OSM   H14A12552   2.164   4.751   7.403 -0.0199  0.4224  0.0866
  120OSM   H14B12553   2.156   4.579   7.417 -1.1403 -0.4455 -2.2415
  120OSM   H14C12554   2.115   4.674   7.551  0.1178 -1.1117 -0.2531
  120OSM    C1312555   1.890   4.557   7.452 -0.6021 -0.2611 -0.1671
  120OSM   H13A12556   1.878   4.567   7.558 -1.7919 -1.0974 -0.2013
  120OSM   H13B12557   1.942   4.466   7.426  0.7922  0.8131 -1.3509
  120OSM   H13C12558   1.787   4.551   7.418 -0.6451  0.2770 -0.1453
  120OSM    C1212559   1.966   4.661   7.239 -0.6713 -0.3785  0.6726
  120OSM   H12A12560   2.030   4.580   7.207 -2.1115 -1.8867  1.4454
  120OSM   H12B12561   2.015   4.748   7.198 -2.3747  0.6767  0.8071
  120OSM    C1112562   1.834   4.633   7.165  0.2473 -0.6021  0.2606
  120OSM   H11A12563   1.795   4.533   7.194 -1.1549 -0.1141  0.1766
  120OSM   H11B12564   1.853   4.631   7.056 -0.6214 -0.2387  0.0916
  120OSM      P12565   1.724   4.869   7.128  0.1152  0.0729  0.4241
  120OSM    O1312566   1.632   4.943   7.213 -0.0700  0.0790 -0.2780
  120OSM    O1412567   1.855   4.933   7.108 -0.0254 -0.8402  0.1099
  120OSM    O1112568   1.658   4.840   6.989 -0.6350  0.3434  0.0669
  120OSM    O1212569   1.740   4.734   7.197  0.1143  0.2896 -0.1970
  120OSM    C1S12570   1.546   4.756   6.966 -0.4184 -0.2111 -0.4038
  120OSM    H1S12571   1.444   4.791   6.992 -1.8560 -1.5531 -3.6537
  120OSM    H1T12572   1.559   4.659   7.019  1.0965 -1.0133 -2.1233
  120OSM     NF12573   1.436   4.620   6.796  0.2077  1.1462  0.1301
  120OSM    HNF12574   1.460   4.525   6.811 -2.4067  0.5159  0.8284
  120OSM    C2S12575   1.540   4.723   6.812  0.9081 -1.3192  0.6103
  120OSM    H2S12576   1.497   4.811   6.760 -0.9801 -1.4358  1.8475
  120OSM    C3S12577   1.675   4.690   6.742 -0.0273  0.0189 -0.3443
  120OSM    H3S12578   1.729   4.604   6.787  1.4996  0.9169 -0.3923
  120OSM     O312579   1.776   4.791   6.757  0.4590  0.0120  0.7970
  120OSM    HO312580   1.733   4.855   6.815 -0.8794  0.0509 -0.1839
  120OSM    C4S12581   1.649   4.663   6.601  0.0141  0.5977  0.8321
  120OSM    H4S12582   1.603   4.754   6.559 -0.9313  0.9809  2.5881
  120OSM    C5S12583   1.664   4.554   6.517 -0.3568  0.9007 -0.1942
  120OSM    H5S12584   1.720   4.469   6.559 -3.2235 -0.2652  1.5819
  120OSM    C6S12585   1.622   4.538   6.368  0.0859 -0.3193 -0.1747
  120OSM    H6S12586   1.585   4.637   6.333  1.6603  0.7451  1.0007
  120OSM    H6T12587   1.539   4.465   6.362  0.0533 -0.4904  1.6364
  120OSM    C7S12588   1.742   4.500   6.289  0.2189  0.2082  0.2009
  120OSM    H7S12589   1.700   4.500   6.186 -1.0143  1.6534  0.6670
  120OSM    H7T12590   1.792   4.403   6.311 -1.6119 -0.6722  0.7606
  120OSM    C8S12591   1.850   4.611   6.275  0.9113 -0.4118  0.5735
  120OSM    H8S12592   1.881   4.622   6.381 -1.1713 -2.2570  1.4616
  120OSM    H8T12593   1.808   4.711   6.251  0.4274 -0.5705  0.7371
  120OSM    C9S12594   1.954   4.584   6.168  0.3816 -0.5479 -0.7304
  120OSM    H9S12595   1.967   4.474   6.170  2.3220 -0.3768 -1.3028
  120OSM    H9T12596   2.046   4.645   6.185  0.8261 -1.1648 -0.8937
  120OSM   C10S12597   1.912   4.605   6.018 -0.6523 -0.5349 -0.2691
  120OSM   H10S12598   1.883   4.710   5.999  2.4032  0.2838 -0.8648
  120OSM   H10T12599   1.821   4.546   5.993  0.2147 -1.8684 -0.3623
  120OSM   C11S12600   2.027   4.591   5.917 -0.1610  0.4763  0.8223
  120OSM   H11S12601   2.058   4.485   5.920  0.2902  0.2534 -3.8206
  120OSM   H11T12602   2.117   4.649   5.945 -0.3780  0.8265  0.8168
  120OSM   C12S12603   1.988   4.620   5.772 -0.8325 -0.1169 -0.6257
  120OSM   H12S12604   1.933   4.716   5.779  0.0348  0.5152 -1.9763
  120OSM   H12T12605   1.906   4.549   5.747 -0.2958 -1.6203  1.5932
  120OSM   C13S12606   2.101   4.609   5.669  0.1544  0.0532 -0.5613
  120OSM   H13S12607   2.178   4.533   5.695  1.6688  1.9900  0.8062
  120OSM   H13T12608   2.159   4.702   5.679  1.2294 -0.5475 -1.0227
  120OSM   C14S12609   2.058   4.595   5.525 -0.0622  0.0461  0.1178
  120OSM   H14S12610   1.998   4.502   5.515 -0.2184  0.1630 -0.0363
  120OSM   H14T12611   2.142   4.573   5.455  1.2774 -0.1242  1.7096
  120OSM   C15S12612   1.980   4.715   5.468 -0.3172  0.1132  0.2011
  120OSM   H15S12613   2.054   4.798   5.467  1.0886 -1.0527  2.0866
  120OSM   H15T12614   1.902   4.744   5.542 -0.1836 -0.1691  0.4517
  120OSM   C16S12615   1.919   4.686   5.328  0.6145 -0.4701  0.2036
  120OSM   H16S12616   1.822   4.634   5.344  0.1239  0.6274  0.9566
  120OSM   H16T12617   1.985   4.620   5.270 -2.2446 -2.0493 -1.4742
  120OSM   C17S12618   1.880   4.812   5.249 -0.9041  0.1704  0.5553
  120OSM   H17S12619   1.825   4.883   5.315 -0.7094  0.8741 -0.0296
  120OSM   H17T12620   1.814   4.793   5.162  0.9235 -0.0972 -0.8411
  120OSM   C18S12621   2.004   4.873   5.184  0.7139  0.6658 -0.0743
  120OSM   H18S12622   1.981   4.965   5.125  1.5248 -0.2790 -1.9512
  120OSM   H18T12623   2.059   4.803   5.118 -0.2913  0.7930 -1.0702
  120OSM   H18U12624   2.081   4.907   5.257  1.5728  0.9763 -1.0927
  120OSM    C1F12625   1.311   4.640   6.801  0.4488 -0.0105  0.2198
  120OSM     OF12626   1.266   4.755   6.801 -0.0266 -0.2208  0.0912
  120OSM    C2F12627   1.208   4.521   6.809  0.2736 -0.7063 -0.8022
  120OSM    H2F12628   1.145   4.534   6.900  0.4011 -0.8121 -0.6992
  120OSM    H2G12629   1.248   4.418   6.818 -1.2449 -1.2550  0.1337
  120OSM    C3F12630   1.108   4.520   6.687 -0.1078  0.1793 -1.0961
  120OSM    H3F12631   1.069   4.624   6.678 -2.1419 -0.5675 -1.5342
  120OSM    H3G12632   1.026   4.448   6.708  1.2664 -0.4780  2.8070
  120OSM    C4F12633   1.180   4.486   6.554  0.7055 -0.5952 -0.1778
  120OSM    H4F12634   1.223   4.385   6.565 -0.1320 -0.9375  0.0190
  120OSM    H4G12635   1.254   4.569   6.545  0.2534 -0.1941 -0.2636
  120OSM    C5F12636   1.085   4.495   6.433  0.2902 -0.4668 -0.6706
  120OSM    H5F12637   1.036   4.594   6.423 -1.2077 -1.1341 -0.2491
  120OSM    H5G12638   1.008   4.418   6.459 -1.4869  2.1807  2.8495
  120OSM    C6F12639   1.158   4.468   6.304  0.2128 -0.1302 -0.3851
  120OSM    H6F12640   1.226   4.554   6.283  2.4636 -1.8552 -0.5672
  120OSM    H6G12641   1.089   4.451   6.218  1.7615  0.0936 -1.7258
  120OSM    C7F12642   1.262   4.347   6.295 -0.3900  0.2057 -0.2454
  120OSM    H7F12643   1.204   4.255   6.312 -0.7385  0.0928 -1.8526
  120OSM    H7G12644   1.337   4.349   6.377 -0.5075 -0.5155 -0.1177
  120OSM    C8F12645   1.341   4.345   6.165 -0.7998 -0.6295  0.4245
  120OSM    H8F12646   1.395   4.442   6.167  0.4175 -1.1864 -1.8948
  120OSM    H8G12647   1.265   4.343   6.084 -0.8664  1.1923  0.4175
  120OSM    C9F12648   1.425   4.222   6.148 -0.2626  0.4575  0.3657
  120OSM    H9F12649   1.473   4.189   6.242 -0.8132 -0.3637  0.3656
  120OSM   C10F12650   1.433   4.141   6.036  0.0165 -0.1678  0.8902
  120OSM   H10F12651   1.509   4.062   6.043 -1.5395 -1.7622  0.5987
  120OSM   C11F12652   1.363   4.147   5.903 -0.2804 -0.0504  0.1409
  120OSM   H11F12653   1.294   4.234   5.905 -0.5173 -0.2336  2.5994
  120OSM   H11G12654   1.311   4.052   5.877 -0.8073  1.0709 -3.5173
  120OSM   C12F12655   1.472   4.152   5.799  0.1286 -0.7168 -0.1351
  120OSM   H12F12656   1.539   4.064   5.809 -0.1133 -0.7187  2.0248
  120OSM   H12G12657   1.535   4.244   5.806 -0.7939  0.0695 -1.6114
  120OSM   C13F12658   1.420   4.170   5.652 -0.1263  0.5641 -0.6258
  120OSM   H13F12659   1.350   4.257   5.650 -2.0547 -0.9049 -0.4532
  120OSM   H13G12660   1.377   4.074   5.615  1.0292 -0.5170  0.7560
  120OSM   C14F12661   1.533   4.190   5.548  0.3202  0.8793 -0.1027
  120OSM   H14F12662   1.612   4.112   5.551 -1.1840 -0.6586  2.9207
  120OSM   H14G12663   1.586   4.280   5.587  1.3542 -0.6489  2.2358
  120OSM   C15F12664   1.475   4.232   5.409  0.6814  0.7399 -0.1512
  120OSM   H15F12665   1.396   4.310   5.416 -0.7805 -0.6783 -0.2262
  120OSM   H15G12666   1.432   4.140   5.365  0.2042 -0.6215  2.9445
  120OSM   C16F12667   1.590   4.278   5.311 -0.0648  0.4121 -1.0534
  120OSM   H16F12668   1.679   4.212   5.311 -0.8004 -0.6360 -2.1792
  120OSM   H16G12669   1.623   4.378   5.344  1.2995 -0.8023  1.4900
  120OSM   C17F12670   1.543   4.286   5.167 -0.2672  0.1815  0.3428
  120OSM   H17F12671   1.455   4.352   5.155 -0.2608  0.0122 -0.7861
  120OSM   H17G12672   1.509   4.187   5.132  0.1561  0.5349 -1.1531
  120OSM   C18F12673   1.666   4.340   5.080 -0.0202 -0.1293 -0.1659
  120OSM   H18F12674   1.757   4.277   5.088 -0.5997 -0.9299  0.2254
  120OSM   H18G12675   1.699   4.441   5.113  3.0300  0.0030 -3.0416
  120OSM   H18H12676   1.637   4.359   4.974 -0.2852 -0.4215 -0.1478
  121OSM      N12677   3.289   6.593   7.429  0.0968 -0.2121 -0.1359
  121OSM    C1512678   3.295   6.635   7.572  0.4802  0.1894  0.1380
  121OSM   H15A12679   3.399   6.628   7.598  0.7798 -2.1254 -1.3685
  121OSM   H15B12680   3.237   6.565   7.630 -3.0915  1.0870 -2.0229
  121OSM   H15C12681   3.253   6.733   7.591  0.6026 -0.2348  3.1065
  121OSM    C1412682   3.370   6.469   7.414 -0.1470 -0.4050  0.2365
  121OSM   H14A12683   3.474   6.481   7.440  0.8471 -0.1353 -3.3252
  121OSM   H14B12684   3.375   6.423   7.317 -0.5021  0.5442 -0.2441
  121OSM   H14C12685   3.340   6.396   7.488 -1.3207 -0.6591 -0.4526
  121OSM    C1312686   3.152   6.567   7.396  0.6190 -0.4572  0.7617
  121OSM   H13A12687   3.147   6.543   7.291  1.2076  0.2515  0.5633
  121OSM   H13B12688   3.083   6.647   7.418  0.1252 -0.6779  0.0472
  121OSM   H13C12689   3.099   6.480   7.433 -4.2594 -0.2192 -4.4407
  121OSM    C1212690   3.349   6.703   7.345 -0.1765  0.2802 -0.8611
  121OSM   H12A12691   3.306   6.798   7.374  1.5134  0.0480  2.9678
  121OSM   H12B12692   3.318   6.676   7.245  1.2782 -1.9390 -0.7800
  121OSM    C1112693   3.503   6.721   7.335 -0.2593 -0.3361  0.3044
  121OSM   H11A12694   3.526   6.810   7.272 -0.0513 -2.0579 -2.2253
  121OSM   H11B12695   3.549   6.633   7.284  1.3029  0.4044  0.3956
  121OSM      P12696   3.693   6.669   7.518  0.0949 -0.0192 -0.0852
  121OSM    O1312697   3.762   6.754   7.620  0.0713 -0.4771  0.0571
  121OSM    O1412698   3.663   6.531   7.566  0.3270 -0.3384  0.1228
  121OSM    O1112699   3.791   6.657   7.391 -0.3237  0.1691 -0.2462
  121OSM    O1212700   3.562   6.733   7.465 -0.2088 -0.1992  0.0298
  121OSM    C1S12701   3.800   6.534   7.313 -0.0688 -0.0161 -0.0807
  121OSM    H1S12702   3.702   6.484   7.297 -0.3486  1.1625 -2.4569
  121OSM    H1T12703   3.868   6.456   7.354  0.0627 -0.0658 -0.3894
  121OSM     NF12704   3.827   6.472   7.071 -0.2102 -0.3537 -0.1250
  121OSM    HNF12705   3.896   6.413   7.029 -0.3129 -1.5695  1.3037
  121OSM    C2S12706   3.853   6.574   7.168  0.0128 -0.3344  0.0538
  121OSM    H2S12707   3.790   6.663   7.146 -1.8781 -1.4118  0.8793
  121OSM    C3S12708   4.006   6.615   7.175  0.4892 -0.3765  0.7444
  121OSM    H3S12709   4.073   6.527   7.179  0.0756 -0.7557 -0.3254
  121OSM     O312710   4.045   6.697   7.294  0.2834 -0.2975 -0.1206
  121OSM    HO312711   3.971   6.686   7.355  0.4608  1.0474  0.3671
  121OSM    C4S12712   4.035   6.680   7.038 -0.5264  0.4455 -0.1010
  121OSM    H4S12713   4.057   6.603   6.963 -1.2928 -0.0242  0.1343
  121OSM    C5S12714   4.019   6.809   7.006  0.5296 -0.3077 -0.5304
  121OSM    H5S12715   3.970   6.876   7.078  0.0236  1.0449 -2.0659
  121OSM    C6S12716   4.022   6.853   6.863  0.5775 -0.6737 -0.0723
  121OSM    H6S12717   4.128   6.851   6.829  0.7588 -2.0500  0.5343
  121OSM    H6T12718   3.979   6.955   6.850 -0.3223 -1.2575 -2.0663
  121OSM    C7S12719   3.938   6.764   6.768  0.3258  0.4237 -0.4967
  121OSM    H7S12720   3.833   6.761   6.806  1.0921  2.5585  2.0926
  121OSM    H7T12721   3.977   6.661   6.751 -0.2033 -0.1029  1.1878
  121OSM    C8S12722   3.919   6.837   6.633  0.3460  0.5954 -0.0438
  121OSM    H8S12723   3.864   6.931   6.653 -0.6244  0.2659 -1.0593
  121OSM    H8T12724   3.835   6.793   6.575 -0.4157  2.2151 -0.2157
  121OSM    C9S12725   4.048   6.842   6.546  0.4095  0.3170  0.0570
  121OSM    H9S12726   4.085   6.737   6.540 -0.8070 -0.2762  1.8769
  121OSM    H9T12727   4.123   6.911   6.590  1.4395 -0.1595 -0.9098
  121OSM   C10S12728   4.016   6.887   6.403  0.3407  0.9921  0.3117
  121OSM   H10S12729   3.980   6.992   6.405  0.3504  0.9883  0.9132
  121OSM   H10T12730   3.938   6.826   6.353 -0.1242  0.4883  1.6006
  121OSM   C11S12731   4.140   6.887   6.310  0.1894  0.1885  0.4057
  121OSM   H11S12732   4.177   6.783   6.310  1.9389  0.7772 -0.7358
  121OSM   H11T12733   4.217   6.945   6.365  0.0243  0.9262 -0.1243
  121OSM   C12S12734   4.117   6.956   6.176 -0.2528  0.5085 -0.4430
  121OSM   H12S12735   4.104   7.066   6.187 -1.0621  0.2966  1.0069
  121OSM   H12T12736   4.019   6.917   6.139 -1.3790  2.3763  0.4392
  121OSM   C13S12737   4.241   6.940   6.082  0.6124  0.3144 -1.2088
  121OSM   H13S12738   4.244   6.835   6.046  1.2820 -0.4651  0.9381
  121OSM   H13T12739   4.333   6.951   6.143  1.0570 -1.2759 -1.5475
  121OSM   C14S12740   4.240   7.021   5.955 -0.0757 -0.0185 -1.1389
  121OSM   H14S12741   4.242   7.125   5.993  0.4807 -0.2467 -0.5180
  121OSM   H14T12742   4.146   7.006   5.897  1.0249 -3.7946 -2.2061
  121OSM   C15S12743   4.352   6.987   5.858 -0.6750  0.1333  0.2352
  121OSM   H15S12744   4.374   6.878   5.846  1.0867  0.2996  1.6162
  121OSM   H15T12745   4.444   7.031   5.901 -0.3946 -0.4152  0.2116
  121OSM   C16S12746   4.342   7.047   5.710 -0.2970  0.3567  0.7639
  121OSM   H16S12747   4.239   7.040   5.669 -0.9613  2.2530  1.9783
  121OSM   H16T12748   4.415   6.995   5.644 -1.5502 -1.5909  0.8258
  121OSM   C17S12749   4.361   7.197   5.705 -0.4525 -0.1358 -0.1184
  121OSM   H17S12750   4.461   7.212   5.750  0.6922 -3.8646 -1.0901
  121OSM   H17T12751   4.285   7.258   5.759 -0.2274  0.3665 -0.3577
  121OSM   C18S12752   4.364   7.276   5.576 -0.6516  0.4918 -0.2457
  121OSM   H18S12753   4.457   7.256   5.517 -1.5032 -2.0062 -0.8939
  121OSM   H18T12754   4.357   7.383   5.602 -0.1481  0.5827 -0.4665
  121OSM   H18U12755   4.278   7.251   5.510  0.0240  1.7851 -1.6842
  121OSM    C1F12756   3.702   6.457   7.030 -0.5975  0.5597 -0.1471
  121OSM     OF12757   3.619   6.542   7.054  0.1013 -0.1882  0.3989
  121OSM    C2F12758   3.660   6.328   6.957 -0.5354 -0.3027  0.0413
  121OSM    H2F12759   3.631   6.257   7.038 -0.2053 -1.2168 -0.6159
  121OSM    H2G12760   3.745   6.274   6.908  1.5489  2.0562  0.8673
  121OSM    C3F12761   3.544   6.340   6.853 -0.1283  0.6378 -0.4001
  121OSM    H3F12762   3.450   6.368   6.904  0.6067 -0.9723  2.0886
  121OSM    H3G12763   3.535   6.236   6.813 -0.1796 -0.1290  1.4778
  121OSM    C4F12764   3.567   6.427   6.725  0.4788  0.8141 -0.6211
  121OSM    H4F12765   3.595   6.528   6.761 -0.7995  0.5672  1.1757
  121OSM    H4G12766   3.467   6.443   6.679  0.3974  0.4993 -0.5574
  121OSM    C5F12767   3.668   6.380   6.621 -0.1114  0.0468  0.2210
  121OSM    H5F12768   3.608   6.301   6.572 -0.3647  0.2151  0.2580
  121OSM    H5G12769   3.756   6.334   6.671 -1.2202  0.2579  2.4622
  121OSM    C6F12770   3.718   6.483   6.515  0.0826 -0.2962 -1.0700
  121OSM    H6F12771   3.814   6.534   6.540  0.3670 -1.4399  0.2606
  121OSM    H6G12772   3.648   6.569   6.506 -0.3038 -0.4092  0.5696
  121OSM    C7F12773   3.726   6.407   6.378  0.6077 -0.7998 -0.1949
  121OSM    H7F12774   3.630   6.359   6.350 -1.1654  2.9736 -1.1494
  121OSM    H7G12775   3.804   6.328   6.385  1.9096  0.2872 -1.5969
  121OSM    C8F12776   3.770   6.504   6.259 -0.1076 -0.1320  0.6298
  121OSM    H8F12777   3.855   6.566   6.293 -0.0774  1.4147 -1.9675
  121OSM    H8G12778   3.685   6.573   6.239  0.2302 -0.1975 -1.2919
  121OSM    C9F12779   3.804   6.440   6.129  0.6064  0.4460  0.5801
  121OSM    H9F12780   3.749   6.346   6.117 -3.3482  2.6520 -0.3027
  121OSM   C10F12781   3.878   6.494   6.037  0.8272  0.1088  0.3426
  121OSM   H10F12782   3.899   6.426   5.953 -2.2386 -0.3046 -0.1735
  121OSM   C11F12783   3.939   6.627   6.032  0.2358  0.4442 -0.0346
  121OSM   H11F12784   4.050   6.628   6.036  0.2781 -1.9779  1.0381
  121OSM   H11G12785   3.898   6.686   6.117  0.1342 -1.4950  1.3099
  121OSM   C12F12786   3.883   6.692   5.909 -0.6026  0.1939  0.4474
  121OSM   H12F12787   3.910   6.799   5.922 -3.1234  1.1870 -1.5495
  121OSM   H12G12788   3.774   6.693   5.888 -0.4861 -2.6103 -0.6514
  121OSM   C13F12789   3.947   6.642   5.769  0.1491 -1.0448 -0.3362
  121OSM   H13F12790   3.915   6.538   5.747  1.6914 -1.1224 -2.5091
  121OSM   H13G12791   4.057   6.650   5.781  0.0929  2.0515 -1.0626
  121OSM   C14F12792   3.893   6.732   5.651  0.8365 -0.2746  0.5287
  121OSM   H14F12793   3.925   6.838   5.662  0.5217  0.1479 -2.0791
  121OSM   H14G12794   3.783   6.737   5.659  0.8000  0.7342 -0.5133
  121OSM   C15F12795   3.931   6.666   5.515 -0.4257  0.0399  0.7434
  121OSM   H15F12796   3.874   6.731   5.444 -1.9014  0.1178  1.9449
  121OSM   H15G12797   3.892   6.565   5.489 -0.0801  0.0959 -0.0345
  121OSM   C16F12798   4.082   6.656   5.502  0.2632  0.6844 -0.0431
  121OSM   H16F12799   4.109   6.562   5.555  0.0041  0.6529  0.0332
  121OSM   H16G12800   4.146   6.739   5.540  0.0874  0.8156 -0.0359
  121OSM   C17F12801   4.124   6.640   5.354  0.7172 -0.0277  0.1547
  121OSM   H17F12802   4.234   6.643   5.343  0.5373  0.4718 -2.0205
  121OSM   H17G12803   4.082   6.733   5.311  0.4165  0.4352  1.3941
  121OSM   C18F12804   4.078   6.513   5.286  0.8347  0.0588  0.3730
  121OSM   H18F12805   4.156   6.435   5.273  0.6414 -0.0739 -0.0291
  121OSM   H18G12806   4.041   6.533   5.183  2.3198  1.2345  0.0284
  121OSM   H18H12807   3.999   6.464   5.347  1.1669 -0.5756  0.3055
  122OSM      N12808   2.819   2.329   7.678 -0.2195  0.8802  0.1690
  122OSM    C1512809   2.743   2.200   7.696 -0.3832 -0.1356  0.2406
  122OSM   H15A12810   2.675   2.204   7.780 -1.0899  2.0914 -0.3794
  122OSM   H15B12811   2.812   2.119   7.713  0.2867 -0.3353 -2.8472
  122OSM   H15C12812   2.685   2.172   7.609  0.6858  0.6483 -0.7564
  122OSM    C1412813   2.922   2.333   7.779  0.1744  0.7127 -0.8670
  122OSM   H14A12814   2.982   2.244   7.767 -0.4760 -0.1209  1.5182
  122OSM   H14B12815   2.885   2.335   7.880  1.6237 -0.1773 -0.2977
  122OSM   H14C12816   2.968   2.430   7.773 -1.3013  1.7972  2.9244
  122OSM    C1312817   2.882   2.334   7.545  0.0678 -0.5116  0.4286
  122OSM   H13A12818   2.947   2.253   7.519  0.2846  0.0256 -0.7497
  122OSM   H13B12819   2.943   2.420   7.520  0.9479 -0.6410  1.9548
  122OSM   H13C12820   2.805   2.330   7.470 -1.7647 -1.0584  2.2594
  122OSM    C1212821   2.715   2.444   7.695  0.1425 -0.4400 -0.0231
  122OSM   H12A12822   2.764   2.536   7.669 -1.4158  0.7205  1.0049
  122OSM   H12B12823   2.697   2.424   7.799  2.7113 -3.0278  0.0446
  122OSM    C1112824   2.586   2.445   7.607  0.2057 -0.6181  0.7393
  122OSM   H11A12825   2.616   2.479   7.506  2.5075  0.8879  1.8304
  122OSM   H11B12826   2.521   2.525   7.649 -0.2668 -1.0082  0.7566
  122OSM      P12827   2.386   2.290   7.685  0.8110 -0.0686 -0.1008
  122OSM    O1312828   2.375   2.143   7.705 -0.1028  0.1177 -0.3103
  122OSM    O1412829   2.369   2.374   7.803  0.2192 -0.4120 -0.2200
  122OSM    O1112830   2.273   2.325   7.586  0.3893  0.0203  0.1522
  122OSM    O1212831   2.509   2.324   7.594  0.2203  0.0576  0.6364
  122OSM    C1S12832   2.275   2.450   7.512  0.2252  0.5246 -0.2840
  122OSM    H1S12833   2.341   2.523   7.564  1.6700 -2.0246  1.7025
  122OSM    H1T12834   2.171   2.487   7.523 -1.2359 -3.5196  1.4504
  122OSM     NF12835   2.323   2.564   7.288  0.2180 -0.8095 -1.1427
  122OSM    HNF12836   2.259   2.569   7.212  0.4952 -0.8636 -1.3827
  122OSM    C2S12837   2.317   2.437   7.360 -0.1325  0.1440 -0.3500
  122OSM    H2S12838   2.419   2.395   7.349  0.0903  1.0557 -2.1793
  122OSM    C3S12839   2.220   2.339   7.293  0.0483  0.8373  0.4875
  122OSM    H3S12840   2.124   2.381   7.257 -0.1481  0.0277  0.0449
  122OSM     O312841   2.199   2.217   7.373  0.3825 -0.1953 -0.3544
  122OSM    HO312842   2.230   2.237   7.461  1.4720 -0.7541 -0.5882
  122OSM    C4S12843   2.286   2.297   7.160  0.4220  0.4692 -1.3116
  122OSM    H4S12844   2.373   2.234   7.186 -0.4376 -0.4883 -0.6904
  122OSM    C5S12845   2.243   2.321   7.033 -0.4152 -0.1267  0.0489
  122OSM    H5S12846   2.147   2.373   7.021 -0.9666 -1.0238  0.5460
  122OSM    C6S12847   2.310   2.267   6.905  0.0315  0.1411  0.3768
  122OSM    H6S12848   2.366   2.172   6.918 -0.2241  0.2342  2.5347
  122OSM    H6T12849   2.378   2.350   6.875  0.7359  0.8480  3.5357
  122OSM    C7S12850   2.222   2.241   6.784  0.1513  0.1286 -0.2239
  122OSM    H7S12851   2.162   2.330   6.755  0.8704  0.0216 -2.2093
  122OSM    H7T12852   2.151   2.160   6.809  3.1529 -1.4681  4.3264
  122OSM    C8S12853   2.298   2.201   6.659 -0.7425 -0.5921 -0.5108
  122OSM    H8S12854   2.344   2.100   6.665 -0.9510 -0.7371 -1.2208
  122OSM    H8T12855   2.383   2.270   6.640 -0.2642 -1.3309 -1.1039
  122OSM    C9S12856   2.205   2.202   6.535 -0.3438 -0.5958 -0.2787
  122OSM    H9S12857   2.145   2.296   6.529 -0.9121 -1.0184 -1.6611
  122OSM    H9T12858   2.130   2.121   6.530  0.9680 -1.7680 -2.2788
  122OSM   C10S12859   2.290   2.203   6.409 -0.6323  0.6858 -1.0204
  122OSM   H10S12860   2.368   2.125   6.416 -0.2491  1.1754  0.4408
  122OSM   H10T12861   2.347   2.298   6.401  6.0717 -2.6429  0.3098
  122OSM   C11S12862   2.200   2.192   6.285  0.8057 -0.2988  0.2040
  122OSM   H11S12863   2.123   2.273   6.281 -0.0044 -1.0853 -3.0322
  122OSM   H11T12864   2.147   2.095   6.296  2.4447 -1.4227 -1.3769
  122OSM   C12S12865   2.287   2.185   6.156  0.8109  0.2782  0.4181
  122OSM   H12S12866   2.352   2.095   6.153  1.4923  0.7419  1.0366
  122OSM   H12T12867   2.360   2.267   6.169  1.1138  0.2991 -1.1942
  122OSM   C13S12868   2.202   2.226   6.033  0.5103  1.3513 -0.5726
  122OSM   H13S12869   2.138   2.313   6.058 -0.2634  0.2154  1.6730
  122OSM   H13T12870   2.145   2.134   6.006  1.2304  0.4536  0.8316
  122OSM   C14S12871   2.290   2.248   5.913 -0.1986 -0.1495 -0.3744
  122OSM   H14S12872   2.367   2.169   5.898  0.7729  0.9587 -1.4405
  122OSM   H14T12873   2.341   2.346   5.927 -1.0961  0.1094  1.4912
  122OSM   C15S12874   2.195   2.271   5.794  0.2517  0.1971 -0.3256
  122OSM   H15S12875   2.121   2.351   5.817 -2.8356 -3.0890  2.4599
  122OSM   H15T12876   2.135   2.177   5.794  0.9001 -0.2179 -0.2183
  122OSM   C16S12877   2.263   2.297   5.661  0.1942  0.0141 -0.2131
  122OSM   H16S12878   2.320   2.207   5.630 -0.4816 -0.1842 -0.9074
  122OSM   H16T12879   2.334   2.381   5.678  3.9702 -2.8671 -0.3139
  122OSM   C17S12880   2.166   2.326   5.552  0.5405 -0.4882  0.1557
  122OSM   H17S12881   2.222   2.372   5.468  1.8828  2.8999  2.6234
  122OSM   H17T12882   2.099   2.409   5.584  2.8735  0.9792  1.6012
  122OSM   C18S12883   2.086   2.199   5.506  0.3715 -0.2244 -0.5182
  122OSM   H18S12884   2.158   2.131   5.455 -0.4449 -0.0654 -1.9460
  122OSM   H18T12885   2.001   2.219   5.437 -0.1925 -2.0537 -0.4298
  122OSM   H18U12886   2.038   2.149   5.593  0.4951  0.3148 -0.1358
  122OSM    C1F12887   2.405   2.667   7.308 -0.0389  0.3715  0.3272
  122OSM     OF12888   2.480   2.677   7.405 -0.3612 -0.4979 -0.1214
  122OSM    C2F12889   2.397   2.773   7.204  0.3132 -0.0576  0.2360
  122OSM    H2F12890   2.303   2.832   7.209  1.9333  2.6483  0.5170
  122OSM    H2G12891   2.403   2.721   7.106  2.7772 -2.7236  1.6251
  122OSM    C3F12892   2.509   2.877   7.189  0.4322 -0.0529  0.5808
  122OSM    H3F12893   2.604   2.820   7.176  0.8732  0.7482  0.2244
  122OSM    H3G12894   2.515   2.938   7.281  0.1538 -1.9385  1.9132
  122OSM    C4F12895   2.490   2.989   7.084  1.1765 -0.1621  0.6967
  122OSM    H4F12896   2.413   3.060   7.121  1.1014  0.0799  0.0813
  122OSM    H4G12897   2.461   2.944   6.987  0.4901 -1.5155  1.4994
  122OSM    C5F12898   2.614   3.075   7.055  0.6974  0.1096  0.3254
  122OSM    H5F12899   2.639   3.123   7.152  1.4284  1.0110 -0.2919
  122OSM    H5G12900   2.586   3.166   7.000  2.7230  0.7630  0.2940
  122OSM    C6F12901   2.736   3.027   6.984  0.1873  0.4898 -0.4079
  122OSM    H6F12902   2.784   2.954   7.054  2.3047  0.7371 -1.5173
  122OSM    H6G12903   2.796   3.120   6.972  1.9481 -0.4758  0.4855
  122OSM    C7F12904   2.703   2.965   6.848  0.2190  0.5420  0.8901
  122OSM    H7F12905   2.637   2.876   6.853  0.3529  0.4676  1.2996
  122OSM    H7G12906   2.797   2.920   6.810  0.2089  2.6352 -2.0305
  122OSM    C8F12907   2.639   3.066   6.748  0.1452 -0.1489  0.3035
  122OSM    H8F12908   2.695   3.161   6.765 -0.9833  0.8058 -1.0306
  122OSM    H8G12909   2.531   3.077   6.775 -0.2289  2.2636 -1.8194
  122OSM    C9F12910   2.640   3.009   6.606  0.0140  0.5507  0.0235
  122OSM    H9F12911   2.688   2.912   6.588 -1.4778 -0.5757  1.7894
  122OSM   C10F12912   2.609   3.070   6.499 -0.0575 -0.1343  0.7135
  122OSM   H10F12913   2.633   3.012   6.408 -0.2852 -0.3192  0.7701
  122OSM   C11F12914   2.565   3.217   6.490 -0.0090  0.2435 -0.0324
  122OSM   H11F12915   2.603   3.277   6.575  0.6346  0.5459 -0.5230
  122OSM   H11G12916   2.454   3.222   6.493 -0.1887 -2.6015  2.0304
  122OSM   C12F12917   2.617   3.298   6.370 -0.6884  0.2664  0.2754
  122OSM   H12F12918   2.727   3.284   6.360 -0.5587  1.2011  0.2487
  122OSM   H12G12919   2.609   3.407   6.388  1.4150  0.8359 -1.7335
  122OSM   C13F12920   2.547   3.261   6.236  0.5142  0.3938  0.0783
  122OSM   H13F12921   2.438   3.276   6.226 -0.1222 -3.2607  0.0325
  122OSM   H13G12922   2.556   3.152   6.215 -1.4620 -0.3074  2.4529
  122OSM   C14F12923   2.602   3.339   6.115  0.1133 -0.0252 -0.1855
  122OSM   H14F12924   2.713   3.327   6.109  0.1455  0.4170 -0.5508
  122OSM   H14G12925   2.591   3.449   6.124  2.0212  0.0432  2.3202
  122OSM   C15F12926   2.528   3.304   5.986 -0.4456  0.1607 -0.3716
  122OSM   H15F12927   2.577   3.351   5.898 -1.1271  3.1740  0.7385
  122OSM   H15G12928   2.426   3.346   5.976 -0.5638  0.5395  1.9470
  122OSM   C16F12929   2.538   3.153   5.946  0.4636  0.3183 -0.7581
  122OSM   H16F12930   2.481   3.088   6.015  2.0806 -0.6027 -0.2465
  122OSM   H16G12931   2.644   3.120   5.955  0.7540  0.7179 -2.3412
  122OSM   C17F12932   2.509   3.129   5.796 -0.1017  0.1748  0.6681
  122OSM   H17F12933   2.559   3.206   5.733  0.8474 -2.2292 -1.7338
  122OSM   H17G12934   2.399   3.135   5.781  0.1270 -0.0014 -1.4951
  122OSM   C18F12935   2.562   2.990   5.768 -0.9168  0.4126  0.0703
  122OSM   H18F12936   2.553   2.970   5.659 -1.3396 -4.2603  0.7557
  122OSM   H18G12937   2.499   2.916   5.821 -0.9633  0.1045 -0.4081
  122OSM   H18H12938   2.667   2.974   5.798 -0.1069  1.9721 -1.7392
  123OSM      N12939   6.054   6.308   2.842 -0.2204  0.3814 -0.2961
  123OSM    C1512940   5.899   6.318   2.843 -0.1477  0.3578 -0.2545
  123OSM   H15A12941   5.854   6.313   2.745  0.8780 -0.7583 -0.6934
  123OSM   H15B12942   5.862   6.407   2.891 -0.0686 -0.4013  1.2862
  123OSM   H15C12943   5.856   6.233   2.895 -1.6409  2.2976  1.8820
  123OSM    C1412944   6.090   6.202   2.754 -0.1275  0.9137 -0.0737
  123OSM   H14A12945   6.194   6.194   2.727 -0.2596  2.9492 -1.3520
  123OSM   H14B12946   6.044   6.230   2.660 -1.3607  2.8527  1.0316
  123OSM   H14C12947   6.050   6.110   2.795 -1.0892  2.3640  2.4882
  123OSM    C1312948   6.102   6.437   2.781  0.2033  0.2767 -0.8937
  123OSM   H13A12949   6.089   6.518   2.851 -1.3494  0.0362 -0.8660
  123OSM   H13B12950   6.050   6.456   2.688 -0.9544  1.8737  0.0181
  123OSM   H13C12951   6.206   6.432   2.753  0.8286 -1.5460  1.4598
  123OSM    C1212952   6.103   6.284   2.981 -0.3140 -0.3192 -0.3408
  123OSM   H12A12953   6.211   6.274   2.982 -0.4299 -2.2328  1.9917
  123OSM   H12B12954   6.065   6.191   3.020  1.6164 -0.1973  2.1034
  123OSM    C1112955   6.062   6.386   3.087 -0.5537 -0.2987 -0.6981
  123OSM   H11A12956   6.108   6.352   3.182 -0.5009  1.1960 -0.1671
  123OSM   H11B12957   5.954   6.391   3.111  0.1069  0.8460  2.5569
  123OSM      P12958   6.094   6.645   3.141 -0.5218  0.2413 -0.6106
  123OSM    O1312959   6.202   6.741   3.117  0.1951  0.6012 -0.2951
  123OSM    O1412960   5.957   6.694   3.123  0.2923 -0.2526 -0.4607
  123OSM    O1112961   6.116   6.594   3.287 -0.0408 -0.6331 -0.8516
  123OSM    O1212962   6.115   6.515   3.052 -0.0522  0.5411  0.5767
  123OSM    C1S12963   6.246   6.534   3.327  0.3025  0.0194 -0.4259
  123OSM    H1S12964   6.326   6.610   3.315  0.0383  0.6975  1.6965
  123OSM    H1T12965   6.261   6.437   3.274 -2.7390 -1.1850  0.6772
  123OSM     NF12966   6.370   6.436   3.511 -0.4147  0.5311  0.5140
  123OSM    HNF12967   6.376   6.339   3.530  0.9751  1.0162  2.9776
  123OSM    C2S12968   6.243   6.491   3.476 -0.4548 -0.5190  0.3232
  123OSM    H2S12969   6.237   6.583   3.538  0.3188  0.0735 -0.4512
  123OSM    C3S12970   6.121   6.397   3.507  0.2001 -0.4730 -0.3567
  123OSM    H3S12971   6.122   6.300   3.452 -1.1598 -1.2067  0.8510
  123OSM     O312972   5.998   6.451   3.457  0.0341 -0.6173 -0.3742
  123OSM    HO312973   6.032   6.521   3.400  1.3099 -2.8691 -2.5647
  123OSM    C4S12974   6.112   6.364   3.654 -0.0196  0.6216 -0.3923
  123OSM    H4S12975   6.168   6.275   3.685 -0.8798 -0.2403 -1.2547
  123OSM    C5S12976   6.057   6.430   3.753 -0.4635 -0.7657 -0.5846
  123OSM    H5S12977   5.988   6.508   3.718 -1.3873 -1.6612 -0.8017
  123OSM    C6S12978   6.046   6.395   3.898 -0.1566  0.5760  0.0001
  123OSM    H6S12979   5.939   6.404   3.926  0.0584 -0.4108  1.2642
  123OSM    H6T12980   6.101   6.470   3.960 -0.6897  1.3877 -0.4954
  123OSM    C7S12981   6.091   6.253   3.947  0.3917 -0.1213 -0.0968
  123OSM    H7S12982   6.197   6.235   3.921  0.7239  0.8759  0.4963
  123OSM    H7T12983   6.034   6.174   3.893 -1.2230 -0.9333  2.5840
  123OSM    C8S12984   6.063   6.223   4.095 -0.5132  0.6439 -0.0636
  123OSM    H8S12985   5.959   6.256   4.117 -0.2249  1.4421  0.1169
  123OSM    H8T12986   6.127   6.286   4.160  1.6532 -0.3731 -1.1155
  123OSM    C9S12987   6.079   6.078   4.116  0.2976  0.8062  0.1815
  123OSM    H9S12988   6.185   6.057   4.089  0.0127  0.2992 -0.5719
  123OSM    H9T12989   6.001   6.026   4.057  0.7547  0.3698 -0.0391
  123OSM   C10S12990   6.042   6.056   4.264  0.0224  0.1644  0.4380
  123OSM   H10S12991   5.941   6.094   4.289 -0.2117 -0.9376  1.2782
  123OSM   H10T12992   6.110   6.116   4.328 -1.1996  0.0367  1.9321
  123OSM   C11S12993   6.038   5.910   4.304 -0.4235 -0.5985 -0.1547
  123OSM   H11S12994   6.139   5.865   4.314 -0.5658 -0.3970  4.2763
  123OSM   H11T12995   5.978   5.864   4.222 -1.3756  1.1483 -0.4709
  123OSM   C12S12996   5.980   5.886   4.437  0.2049  0.0604 -0.2324
  123OSM   H12S12997   5.956   5.778   4.439 -1.6911  0.4454 -0.4694
  123OSM   H12T12998   5.881   5.935   4.431  1.0866  1.8402 -0.9981
  123OSM   C13S12999   6.065   5.940   4.552 -0.0589  0.6276 -0.1884
  123OSM   H13S13000   6.036   6.045   4.575  2.8025  1.1382  1.5447
  123OSM   H13T13001   6.171   5.939   4.519  0.7212  0.7005  2.1566
  123OSM   C14S13002   6.067   5.843   4.671  0.2623 -0.5203  0.1145
  123OSM   H14S13003   6.160   5.858   4.730 -0.6617  0.6147  1.3437
  123OSM   H14T13004   6.080   5.738   4.638  1.0933  0.0400 -1.4852
  123OSM   C15S13005   5.951   5.853   4.769 -0.0655 -0.3607  0.2944
  123OSM   H15S13006   5.852   5.845   4.718  0.1473  1.0082 -0.3898
  123OSM   H15T13007   5.947   5.955   4.814 -0.6511 -1.5582  3.1604
  123OSM   C16S13008   5.972   5.754   4.880  0.3170 -0.8511  0.0277
  123OSM   H16S13009   6.064   5.777   4.938 -0.9226 -0.6415  2.0313
  123OSM   H16T13010   5.986   5.652   4.839 -0.9800 -0.2918 -1.9264
  123OSM   C17S13011   5.865   5.758   4.983 -0.0486  0.9956 -0.4241
  123OSM   H17S13012   5.873   5.848   5.048  0.7843 -0.2824  1.3362
  123OSM   H17T13013   5.885   5.668   5.045 -0.0795 -0.8023 -2.8765
  123OSM   C18S13014   5.725   5.730   4.927  1.1239 -0.7015  0.3623
  123OSM   H18S13015   5.654   5.700   5.007  1.5621  1.8849  1.8200
  123OSM   H18T13016   5.726   5.647   4.852  0.5976 -0.4761  0.1017
  123OSM   H18U13017   5.686   5.819   4.873  1.5127 -1.3283 -0.9946
  123OSM    C1F13018   6.492   6.491   3.491  0.4158 -0.3149  0.1813
  123OSM     OF13019   6.502   6.611   3.466  0.2742  0.0720  0.5046
  123OSM    C2F13020   6.608   6.403   3.500  0.3595  0.1864 -1.4430
  123OSM    H2F13021   6.637   6.371   3.397 -0.7917 -1.0760 -1.4040
  123OSM    H2G13022   6.567   6.316   3.556 -1.9741  1.2290 -1.4228
  123OSM    C3F13023   6.733   6.451   3.582 -0.5379 -0.1271 -0.1270
  123OSM    H3F13024   6.784   6.535   3.529  0.2652 -0.0799  0.7047
  123OSM    H3G13025   6.817   6.379   3.588  0.2663  0.8993  1.6990
  123OSM    C4F13026   6.702   6.486   3.730  0.0226  0.1970  0.1681
  123OSM    H4F13027   6.631   6.410   3.769 -0.1203 -0.5157 -1.4104
  123OSM    H4G13028   6.649   6.584   3.737 -1.3928 -0.6264  2.5899
  123OSM    C5F13029   6.828   6.492   3.823 -0.2609  0.4002 -0.2160
  123OSM    H5F13030   6.783   6.527   3.919 -2.2629 -0.5576 -0.7474
  123OSM    H5G13031   6.900   6.568   3.787 -0.6530  1.1929  0.6084
  123OSM    C6F13032   6.897   6.357   3.849 -0.1398  0.3138  0.2835
  123OSM    H6F13033   6.997   6.362   3.802  0.0913  0.3782  0.7779
  123OSM    H6G13034   6.835   6.279   3.800 -0.4996  1.2820 -0.8455
  123OSM    C7F13035   6.928   6.323   3.997  1.1070  1.0201 -0.2848
  123OSM    H7F13036   6.981   6.228   4.015 -1.5667 -0.2067  1.7122
  123OSM    H7G13037   6.836   6.308   4.056  0.5251 -0.0589 -1.4290
  123OSM    C8F13038   7.005   6.438   4.059 -0.1665 -0.5985  0.0117
  123OSM    H8F13039   6.978   6.536   4.015 -0.6621 -1.2786 -1.2347
  123OSM    H8G13040   7.112   6.440   4.027 -0.8978  0.9439 -2.5802
  123OSM    C9F13041   7.007   6.430   4.208  0.4508 -0.1097 -0.2738
  123OSM    H9F13042   6.952   6.516   4.251 -4.3531 -3.1539  0.4688
  123OSM   C10F13043   7.067   6.343   4.296 -0.4402  0.8817  0.4183
  123OSM   H10F13044   7.075   6.369   4.402  0.2184 -0.0735  0.6136
  123OSM   C11F13045   7.144   6.223   4.247  0.4794  0.8518  0.7958
  123OSM   H11F13046   7.206   6.257   4.162  1.3275 -0.7705  0.7212
  123OSM   H11G13047   7.074   6.138   4.232  1.7522  0.0536 -0.8617
  123OSM   C12F13048   7.231   6.176   4.364  0.3849  0.8890 -0.4438
  123OSM   H12F13049   7.284   6.084   4.328 -1.0290  1.3304 -3.9507
  123OSM   H12G13050   7.163   6.145   4.446  0.3239 -0.3864 -0.9470
  123OSM   C13F13051   7.340   6.275   4.413 -0.4108  0.4461 -0.1939
  123OSM   H13F13052   7.294   6.367   4.455  0.9750  1.2591 -0.3686
  123OSM   H13G13053   7.395   6.300   4.320  0.8523 -3.4966 -0.6870
  123OSM   C14F13054   7.427   6.207   4.516  0.2358 -0.1958 -0.1911
  123OSM   H14F13055   7.497   6.130   4.476 -1.4909 -1.5750 -0.7316
  123OSM   H14G13056   7.361   6.148   4.583  0.4858 -1.8277 -1.3014
  123OSM   C15F13057   7.496   6.311   4.598 -0.1928 -0.2713  0.9479
  123OSM   H15F13058   7.426   6.395   4.619 -0.6147  0.4834 -2.8271
  123OSM   H15G13059   7.575   6.354   4.533 -2.6191  1.3674 -1.1404
  123OSM   C16F13060   7.557   6.240   4.713  0.1507 -0.4264 -0.6016
  123OSM   H16F13061   7.632   6.167   4.677  1.2228 -0.1214  0.8770
  123OSM   H16G13062   7.488   6.172   4.767 -0.6420  0.7144 -0.1375
  123OSM   C17F13063   7.629   6.344   4.800 -0.3978 -0.3345  0.8406
  123OSM   H17F13064   7.554   6.420   4.832 -1.0885 -1.4165  1.8929
  123OSM   H17G13065   7.697   6.401   4.733 -0.6931 -0.2796  0.5862
  123OSM   C18F13066   7.700   6.278   4.916  0.0281  0.1743 -0.1409
  123OSM   H18F13067   7.634   6.201   4.963  1.7481  0.1425  2.4366
  123OSM   H18G13068   7.743   6.346   4.992  1.2111 -0.2124 -0.4452
  123OSM   H18H13069   7.792   6.225   4.884  2.1687  2.8481  1.1828
  124OSM      N13070   4.346   1.042   2.700  0.5663  0.3979 -0.1318
  124OSM    C1513071   4.304   1.148   2.786 -0.0344 -0.2740 -0.3620
  124OSM   H15A13072   4.205   1.126   2.825 -0.1595 -1.0673 -1.0954
  124OSM   H15B13073   4.302   1.240   2.729 -0.8814  0.7878  1.3074
  124OSM   H15C13074   4.369   1.154   2.872  1.4318 -1.2625 -1.3554
  124OSM    C1413075   4.255   1.043   2.579 -0.4518  0.5017 -0.0072
  124OSM   H14A13076   4.256   1.143   2.538 -2.1160  0.7827  0.5354
  124OSM   H14B13077   4.154   1.013   2.603  0.1540 -2.1685 -0.4940
  124OSM   H14C13078   4.287   0.985   2.495  1.8124 -0.0205  1.1499
  124OSM    C1313079   4.483   1.067   2.656 -0.2820  0.3104  0.3714
  124OSM   H13A13080   4.510   0.991   2.585  0.6154  2.4133 -1.6816
  124OSM   H13B13081   4.553   1.053   2.737  1.0177 -0.4741 -0.8294
  124OSM   H13C13082   4.484   1.158   2.597 -0.7321 -0.5152 -0.9675
  124OSM    C1213083   4.348   0.906   2.767  0.5153  0.6565 -0.5508
  124OSM   H12A13084   4.380   0.832   2.695 -1.3334 -0.2216 -0.5273
  124OSM   H12B13085   4.244   0.892   2.790  0.8446  0.3359  0.7925
  124OSM    C1113086   4.423   0.879   2.898  0.3838 -0.1440 -0.8467
  124OSM   H11A13087   4.532   0.896   2.884  0.8786 -1.3566  1.1459
  124OSM   H11B13088   4.412   0.772   2.926  1.5026  0.4053  2.0202
  124OSM      P13089   4.251   0.950   3.095  0.2748 -0.0066  0.0899
  124OSM    O1313090   4.210   1.078   3.152  0.5525 -0.1094 -0.5856
  124OSM    O1413091   4.148   0.887   3.003 -0.1511  0.3581  0.0903
  124OSM    O1113092   4.290   0.842   3.207  0.5185  0.6147 -0.0350
  124OSM    O1213093   4.380   0.974   3.007  0.0281  0.1394 -0.3879
  124OSM    C1S13094   4.384   0.887   3.310  0.0655  0.7094  0.7323
  124OSM    H1S13095   4.391   0.998   3.313 -1.8678  0.8842  0.0297
  124OSM    H1T13096   4.487   0.856   3.281 -0.4906 -1.2813  0.7878
  124OSM     NF13097   4.446   0.902   3.543  0.2694  0.3023 -0.5033
  124OSM    HNF13098   4.513   0.838   3.582  1.3447  1.5918 -0.1541
  124OSM    C2S13099   4.355   0.832   3.451  0.8157  0.1539 -0.4531
  124OSM    H2S13100   4.254   0.866   3.483  1.0747  0.2655  0.2709
  124OSM    C3S13101   4.355   0.679   3.461 -0.1242 -0.0848 -0.5897
  124OSM    H3S13102   4.457   0.641   3.435 -0.3445 -2.3325  1.5449
  124OSM     O313103   4.276   0.621   3.361  0.2391  0.3101 -0.1770
  124OSM    HO313104   4.267   0.693   3.298 -0.8068  1.2697  1.0059
  124OSM    C4S13105   4.318   0.636   3.603  0.2952  0.8571 -0.0911
  124OSM    H4S13106   4.213   0.655   3.629  0.5619  0.0928  1.6890
  124OSM    C5S13107   4.393   0.573   3.702  0.3695 -0.7545  0.8676
  124OSM    H5S13108   4.495   0.541   3.675  0.5793  0.2773  0.3823
  124OSM    C6S13109   4.341   0.547   3.840 -0.2089  0.4180  0.5792
  124OSM    H6S13110   4.323   0.438   3.846  2.6807 -0.1800 -0.2001
  124OSM    H6T13111   4.247   0.601   3.864 -0.2724 -0.2968  2.0556
  124OSM    C7S13112   4.442   0.578   3.951 -0.4016 -0.1457  0.1555
  124OSM    H7S13113   4.474   0.682   3.927 -1.1596 -0.2697 -1.5407
  124OSM    H7T13114   4.529   0.511   3.935 -0.5756 -0.0138 -1.6127
  124OSM    C8S13115   4.380   0.571   4.090 -0.5305 -0.2495 -0.3656
  124OSM    H8S13116   4.304   0.490   4.082 -0.2233 -0.5173 -0.6318
  124OSM    H8T13117   4.320   0.662   4.113  0.1479  0.3573 -0.9355
  124OSM    C9S13118   4.472   0.540   4.209 -0.3910  0.4534  0.3724
  124OSM    H9S13119   4.552   0.617   4.210 -0.5888  0.8594 -3.3226
  124OSM    H9T13120   4.529   0.445   4.204 -1.6746 -0.2520 -2.5236
  124OSM   C10S13121   4.398   0.555   4.349 -0.0587 -0.5908 -0.2762
  124OSM   H10S13122   4.319   0.477   4.350 -1.0369  0.3133 -1.9720
  124OSM   H10T13123   4.361   0.659   4.366  0.5913 -0.2443 -0.9219
  124OSM   C11S13124   4.491   0.523   4.474  0.5490 -0.1625 -0.2036
  124OSM   H11S13125   4.557   0.610   4.493 -0.2403  0.1606  1.1743
  124OSM   H11T13126   4.548   0.430   4.451 -1.3579 -1.6334  0.6913
  124OSM   C12S13127   4.405   0.495   4.605 -0.1784 -0.0711  0.1941
  124OSM   H12S13128   4.328   0.417   4.590  0.8286 -0.9107 -0.7059
  124OSM   H12T13129   4.332   0.577   4.625 -1.8006 -1.1013 -1.2792
  124OSM   C13S13130   4.486   0.451   4.724 -0.0948  0.3931 -0.0754
  124OSM   H13S13131   4.539   0.541   4.762  0.0303 -0.8832  3.0953
  124OSM   H13T13132   4.556   0.367   4.705  1.3633  1.2896  1.1315
  124OSM   C14S13133   4.390   0.413   4.838  0.3185 -0.1122 -0.2997
  124OSM   H14S13134   4.448   0.368   4.922  0.4016 -1.1213 -0.8819
  124OSM   H14T13135   4.336   0.325   4.797  0.5935 -0.1085 -0.6787
  124OSM   C15S13136   4.295   0.531   4.884 -0.1605  0.1965 -0.5349
  124OSM   H15S13137   4.230   0.553   4.797  0.9539 -3.8432 -2.6129
  124OSM   H15T13138   4.363   0.615   4.914  0.2809 -0.8950  1.7613
  124OSM   C16S13139   4.213   0.500   5.008 -0.4413  0.4601  0.1325
  124OSM   H16S13140   4.277   0.465   5.092 -1.2388 -1.4126 -0.0038
  124OSM   H16T13141   4.144   0.421   4.974  0.6389  0.2749 -1.7763
  124OSM   C17S13142   4.133   0.618   5.050  0.5091  0.1388 -0.5177
  124OSM   H17S13143   4.042   0.633   4.987 -0.3525  0.0092  0.6714
  124OSM   H17T13144   4.197   0.709   5.048 -0.1492  0.6346  0.3266
  124OSM   C18S13145   4.083   0.591   5.192 -0.6959  0.7366  0.5219
  124OSM   H18S13146   4.169   0.607   5.262  0.0267  0.9562 -0.4010
  124OSM   H18T13147   4.061   0.483   5.199  0.2979  0.3535 -1.4961
  124OSM   H18U13148   3.998   0.646   5.239 -1.2003 -0.8418  1.5358
  124OSM    C1F13149   4.450   1.032   3.574 -0.0810 -0.3088 -0.8730
  124OSM     OF13150   4.370   1.111   3.525 -0.4938  0.6027  0.5329
  124OSM    C2F13151   4.557   1.085   3.664  0.5352 -0.3848  0.0020
  124OSM    H2F13152   4.641   1.137   3.613  1.0352  0.1901  1.3750
  124OSM    H2G13153   4.600   0.998   3.718 -0.1754 -0.4595  0.4592
  124OSM    C3F13154   4.503   1.182   3.772  0.4427  0.1873 -0.4452
  124OSM    H3F13155   4.427   1.126   3.830  0.4781  1.0228  0.4405
  124OSM    H3G13156   4.446   1.268   3.729 -1.5525 -0.7086  0.2677
  124OSM    C4F13157   4.602   1.235   3.870 -0.6630  0.7392  0.1465
  124OSM    H4F13158   4.676   1.305   3.826 -0.5030  1.4856  1.5511
  124OSM    H4G13159   4.665   1.149   3.901 -0.4774  0.5909 -0.6349
  124OSM    C5F13160   4.535   1.310   3.989 -0.1253  0.1233 -0.1664
  124OSM    H5F13161   4.475   1.238   4.048  0.7424 -1.5424 -1.2380
  124OSM    H5G13162   4.473   1.390   3.944  0.0716  0.0371 -0.6048
  124OSM    C6F13163   4.629   1.378   4.086 -0.3359 -0.0567 -0.5522
  124OSM    H6F13164   4.694   1.456   4.042  1.4412 -0.0189  1.9295
  124OSM    H6G13165   4.706   1.306   4.122 -1.5625 -0.9011  0.4628
  124OSM    C7F13166   4.558   1.461   4.196  0.1280 -0.0902  0.4665
  124OSM    H7F13167   4.473   1.407   4.244 -0.9784  0.1598 -1.1344
  124OSM    H7G13168   4.497   1.546   4.158  1.7296  1.4704  1.2473
  124OSM    C8F13169   4.661   1.530   4.292 -0.2750 -0.6024  0.4765
  124OSM    H8F13170   4.592   1.586   4.358  0.3902 -0.6479  1.2330
  124OSM    H8G13171   4.723   1.602   4.234 -0.2703 -3.0771 -2.8899
  124OSM    C9F13172   4.755   1.441   4.367  0.0820  0.3616 -0.0020
  124OSM    H9F13173   4.847   1.409   4.316 -1.7085 -2.7141 -1.5819
  124OSM   C10F13174   4.730   1.379   4.489 -0.7822  0.2545  0.0624
  124OSM   H10F13175   4.806   1.314   4.533  1.5369  2.2341 -0.7730
  124OSM   C11F13176   4.603   1.402   4.570  0.1386  0.4204 -0.9539
  124OSM   H11F13177   4.536   1.318   4.542  0.8284 -0.4390 -0.0638
  124OSM   H11G13178   4.542   1.490   4.538 -0.7214 -0.5489 -2.0872
  124OSM   C12F13179   4.641   1.402   4.719 -0.4466 -0.0058  0.0429
  124OSM   H12F13180   4.720   1.476   4.748 -1.0360  1.0744 -1.0587
  124OSM   H12G13181   4.679   1.302   4.749 -2.1930 -1.6093 -2.7520
  124OSM   C13F13182   4.513   1.429   4.807  0.1491 -0.3600 -0.2712
  124OSM   H13F13183   4.439   1.350   4.783 -2.1761  1.9025 -0.9747
  124OSM   H13G13184   4.460   1.522   4.776  0.5264 -0.9939 -3.1406
  124OSM   C14F13185   4.530   1.429   4.954 -0.0684  0.2533 -0.3413
  124OSM   H14F13186   4.617   1.483   4.998 -0.5615 -0.1782  1.2001
  124OSM   H14G13187   4.551   1.324   4.981 -1.1995 -0.1941 -1.1232
  124OSM   C15F13188   4.403   1.474   5.038  0.5238  0.4669  0.2442
  124OSM   H15F13189   4.414   1.444   5.144  1.0366  0.7965  0.2885
  124OSM   H15G13190   4.309   1.421   5.014 -1.2382  2.7971  1.5847
  124OSM   C16F13191   4.395   1.626   5.041  0.2913  0.0285 -1.2752
  124OSM   H16F13192   4.338   1.676   4.960 -1.8598 -0.8333 -0.3697
  124OSM   H16G13193   4.498   1.668   5.038  0.1111  0.6624  0.1642
  124OSM   C17F13194   4.346   1.697   5.171  0.1397 -0.8608  0.0720
  124OSM   H17F13195   4.240   1.666   5.184  0.5831 -2.0524  0.9705
  124OSM   H17G13196   4.354   1.806   5.149 -2.3504 -0.3898  1.2060
  124OSM   C18F13197   4.422   1.674   5.295 -0.3968 -0.3238 -0.6839
  124OSM   H18F13198   4.528   1.669   5.263 -0.3017 -0.3917 -0.3631
  124OSM   H18G13199   4.398   1.574   5.338  1.1880 -1.5848 -2.5432
  124OSM   H18H13200   4.419   1.738   5.386 -0.2926 -1.9180  0.4878
  125OSM      N13201   1.256   3.411   2.735 -0.5891  0.7288 -0.2183
  125OSM    C1513202   1.394   3.427   2.682 -1.1031  1.1146  0.3723
  125OSM   H15A13203   1.392   3.440   2.574 -0.3065 -1.0923  0.0342
  125OSM   H15B13204   1.463   3.347   2.703 -0.8557  1.5324  1.1577
  125OSM   H15C13205   1.446   3.511   2.724 -0.2097  0.4743  0.5589
  125OSM    C1413206   1.193   3.309   2.645 -0.1982 -0.5551  0.0055
  125OSM   H14A13207   1.193   3.348   2.544 -0.6560 -2.3505 -0.7173
  125OSM   H14B13208   1.096   3.269   2.669  0.0437 -0.6146  0.9035
  125OSM   H14C13209   1.261   3.225   2.645 -0.2925 -0.6571 -1.3476
  125OSM    C1313210   1.254   3.363   2.879 -0.0267  0.1256 -0.0811
  125OSM   H13A13211   1.158   3.391   2.922 -0.6315 -0.3028 -1.1243
  125OSM   H13B13212   1.328   3.421   2.932  0.8012 -0.1895 -0.8774
  125OSM   H13C13213   1.276   3.259   2.895  0.5880  0.0909 -1.0716
  125OSM    C1213214   1.181   3.543   2.735 -0.4532 -0.3709  0.1735
  125OSM   H12A13215   1.076   3.530   2.754 -0.2334 -1.8392  0.5218
  125OSM   H12B13216   1.186   3.577   2.632  0.8755 -1.9127 -0.3182
  125OSM    C1113217   1.238   3.656   2.819 -0.6372  0.0153 -0.2405
  125OSM   H11A13218   1.240   3.640   2.929 -0.4459  2.2857  0.1224
  125OSM   H11B13219   1.164   3.736   2.797 -2.0612 -0.4431  2.4767
  125OSM      P13220   1.421   3.836   2.744  0.2612  0.0741  0.0322
  125OSM    O1313221   1.557   3.857   2.702 -0.5320 -0.2711 -0.2155
  125OSM    O1413222   1.334   3.884   2.643 -0.4678  0.0317 -0.2079
  125OSM    O1113223   1.383   3.914   2.884  0.4696 -0.2137 -0.0880
  125OSM    O1213224   1.370   3.693   2.781  0.4560 -0.1484 -0.2109
  125OSM    C1S13225   1.451   3.856   2.999 -0.2587 -0.4265  0.6239
  125OSM    H1S13226   1.554   3.898   3.004  0.1774 -1.2029 -0.9936
  125OSM    H1T13227   1.453   3.745   2.995  0.0418 -0.4044 -0.1712
  125OSM     NF13228   1.431   3.803   3.234  0.0749 -0.1755  0.5318
  125OSM    HNF13229   1.381   3.720   3.256  0.8324 -1.0804 -1.0211
  125OSM    C2S13230   1.373   3.882   3.129  0.0487 -0.6437  0.6003
  125OSM    H2S13231   1.385   3.989   3.157 -1.5712 -0.5209  0.9390
  125OSM    C3S13232   1.216   3.862   3.117  0.3886  0.4537  0.6874
  125OSM    H3S13233   1.204   3.755   3.090 -1.6712  0.6839  0.5627
  125OSM     O313234   1.155   3.938   3.007 -0.2340  0.3610 -0.0851
  125OSM    HO313235   1.233   3.981   2.971 -0.2766 -0.0458 -0.6876
  125OSM    C4S13236   1.148   3.896   3.246 -0.4316 -0.1012  1.0049
  125OSM    H4S13237   1.195   3.977   3.304  3.6514 -0.8554 -0.8910
  125OSM    C5S13238   1.052   3.825   3.308  0.2896  0.3852 -0.1454
  125OSM    H5S13239   1.013   3.741   3.250 -1.6437  0.9007  0.3562
  125OSM    C6S13240   0.986   3.850   3.438  0.5597  1.3802  0.5546
  125OSM    H6S13241   0.877   3.831   3.426  0.6771  1.2551 -0.3565
  125OSM    H6T13242   1.011   3.954   3.467  2.0550  0.9830  0.8003
  125OSM    C7S13243   1.029   3.758   3.557  0.1816  0.2171 -0.2597
  125OSM    H7S13244   1.140   3.761   3.559  0.1513  2.0324 -0.3906
  125OSM    H7T13245   1.009   3.650   3.537  0.9775  0.3455 -1.9957
  125OSM    C8S13246   0.969   3.796   3.695  0.8507 -0.0758  0.3387
  125OSM    H8S13247   0.858   3.809   3.686  1.0626  0.8979 -1.2974
  125OSM    H8T13248   1.018   3.895   3.711 -0.6184  0.7123  0.1823
  125OSM    C9S13249   1.006   3.706   3.816  0.5017 -0.3821 -0.2490
  125OSM    H9S13250   1.115   3.687   3.813  0.4254 -0.7997 -0.4184
  125OSM    H9T13251   0.958   3.613   3.780  1.5596  0.1559 -3.3921
  125OSM   C10S13252   0.956   3.770   3.946  0.2922  0.1784  0.1553
  125OSM   H10S13253   0.853   3.809   3.929  0.7324  0.3067 -2.6740
  125OSM   H10T13254   1.013   3.859   3.981 -1.8411  2.0631 -0.8766
  125OSM   C11S13255   0.955   3.664   4.059  0.0755 -0.0601 -0.4449
  125OSM   H11S13256   1.056   3.628   4.085  0.1805  0.5882  0.0528
  125OSM   H11T13257   0.901   3.573   4.024  0.3108  0.2819 -1.7753
  125OSM   C12S13258   0.882   3.713   4.190  0.0746 -0.9342  0.7330
  125OSM   H12S13259   0.773   3.714   4.165  0.1474  0.4977  0.3798
  125OSM   H12T13260   0.906   3.816   4.225  1.9219 -1.0468 -0.1366
  125OSM   C13S13261   0.913   3.613   4.308  0.1911  0.2344  0.2478
  125OSM   H13S13262   1.020   3.598   4.334 -0.2763 -0.2856  1.9778
  125OSM   H13T13263   0.874   3.517   4.269 -1.1845  0.7981  0.1742
  125OSM   C14S13264   0.846   3.649   4.432  0.2770 -0.9723 -0.7099
  125OSM   H14S13265   0.741   3.665   4.401  0.6956  1.9876 -0.9164
  125OSM   H14T13266   0.872   3.749   4.473 -1.9418 -0.2483 -0.9326
  125OSM   C15S13267   0.855   3.539   4.536 -0.2907  0.4064  0.1932
  125OSM   H15S13268   0.810   3.447   4.494 -2.5838  0.7377  1.7429
  125OSM   H15T13269   0.791   3.579   4.617 -1.6195  1.9232 -1.5350
  125OSM   C16S13270   1.002   3.528   4.590  0.4871 -0.3251  0.3799
  125OSM   H16S13271   1.045   3.629   4.572 -0.1314 -0.2456 -0.7009
  125OSM   H16T13272   1.050   3.456   4.520 -1.8770 -1.2262 -0.3993
  125OSM   C17S13273   1.020   3.472   4.734 -0.3368  0.3449 -0.0269
  125OSM   H17S13274   0.968   3.374   4.746  1.5990 -0.5884  1.4074
  125OSM   H17T13275   0.978   3.542   4.808  2.0675  1.7450  0.1154
  125OSM   C18S13276   1.168   3.467   4.768 -0.5809  0.5086  0.5081
  125OSM   H18S13277   1.238   3.413   4.701  1.1775  0.6305  2.1740
  125OSM   H18T13278   1.184   3.413   4.864 -0.3186  0.5764  0.5041
  125OSM   H18U13279   1.194   3.575   4.770  1.1491  0.2325 -2.2504
  125OSM    C1F13280   1.554   3.821   3.275 -0.4949  0.5460 -0.3823
  125OSM     OF13281   1.616   3.921   3.245 -0.4182  0.6832  0.3506
  125OSM    C2F13282   1.611   3.720   3.365 -0.3629 -0.0089  0.0406
  125OSM    H2F13283   1.667   3.643   3.308  1.0002 -0.1008  1.4488
  125OSM    H2G13284   1.527   3.680   3.425 -1.4931  1.3985 -0.5300
  125OSM    C3F13285   1.710   3.787   3.469 -0.1570 -0.1510  0.3041
  125OSM    H3F13286   1.657   3.866   3.527  1.6970  3.2233 -2.2298
  125OSM    H3G13287   1.784   3.850   3.416 -1.1160  0.6288 -0.1425
  125OSM    C4F13288   1.758   3.669   3.567  0.4190 -0.1794  0.3846
  125OSM    H4F13289   1.805   3.588   3.507  1.2711  0.1405  0.6049
  125OSM    H4G13290   1.660   3.635   3.606  1.2942 -2.6041  0.6629
  125OSM    C5F13291   1.841   3.714   3.683 -0.2552  0.2779  0.3308
  125OSM    H5F13292   1.946   3.741   3.656  0.1949  0.1342  1.8536
  125OSM    H5G13293   1.831   3.620   3.742  0.2695 -2.0645 -3.0190
  125OSM    C6F13294   1.789   3.823   3.772 -0.0538 -0.2680 -0.2837
  125OSM    H6F13295   1.678   3.819   3.777 -0.0960  1.4719  2.6418
  125OSM    H6G13296   1.819   3.919   3.725 -0.4154 -0.4177 -0.8250
  125OSM    C7F13297   1.850   3.811   3.913  0.3735 -0.3071 -0.7509
  125OSM    H7F13298   1.960   3.814   3.901  0.3863 -2.8374 -1.8380
  125OSM    H7G13299   1.822   3.710   3.950 -2.6095  0.4622 -0.6304
  125OSM    C8F13300   1.797   3.911   4.021  0.4661 -0.1675  0.3802
  125OSM    H8F13301   1.691   3.887   4.041  0.7437 -0.3546  1.6707
  125OSM    H8G13302   1.803   4.018   3.991  1.0239 -0.1256  0.6335
  125OSM    C9F13303   1.854   3.886   4.152 -0.4320 -0.3340  0.0535
  125OSM    H9F13304   1.954   3.840   4.155  0.0829  0.6824  3.9605
  125OSM   C10F13305   1.790   3.909   4.268  0.3244  0.1671 -0.4667
  125OSM   H10F13306   1.850   3.887   4.357  1.7961  1.4870 -1.0884
  125OSM   C11F13307   1.654   3.964   4.295 -0.0149 -0.1935  0.9782
  125OSM   H11F13308   1.576   3.885   4.292 -0.2781  0.0948 -0.4082
  125OSM   H11G13309   1.624   4.036   4.216 -0.5314 -1.3602  0.0755
  125OSM   C12F13310   1.635   4.029   4.437  0.2326 -0.2960  0.6226
  125OSM   H12F13311   1.541   4.089   4.428 -0.6342 -1.8499 -2.3740
  125OSM   H12G13312   1.721   4.097   4.454 -1.0259  1.3661  0.6625
  125OSM   C13F13313   1.612   3.927   4.546  0.6091 -0.6690 -0.6627
  125OSM   H13F13314   1.706   3.869   4.550  0.3790 -1.0584 -0.9029
  125OSM   H13G13315   1.533   3.854   4.517  2.4869 -3.1902  0.2272
  125OSM   C14F13316   1.593   3.975   4.689 -0.4224 -0.1148  0.1792
  125OSM   H14F13317   1.505   4.043   4.699 -0.9645 -0.6995 -0.4713
  125OSM   H14G13318   1.683   4.035   4.715  1.2848 -2.4677 -0.0006
  125OSM   C15F13319   1.570   3.878   4.804  0.4157 -0.1692 -0.6875
  125OSM   H15F13320   1.650   3.801   4.809 -1.9654 -2.6837  1.6052
  125OSM   H15G13321   1.481   3.814   4.786 -0.7293  1.1718  0.0122
  125OSM   C16F13322   1.571   3.946   4.941 -0.6703  0.1956 -0.6903
  125OSM   H16F13323   1.499   4.030   4.930 -0.1251  0.5989 -1.2828
  125OSM   H16G13324   1.674   3.984   4.960 -0.8113 -0.0853  0.7086
  125OSM   C17F13325   1.533   3.850   5.063  0.1202 -0.1792 -0.0203
  125OSM   H17F13326   1.567   3.745   5.051  2.1760  0.5967 -1.6088
  125OSM   H17G13327   1.422   3.841   5.071  0.2328 -1.3398  0.3736
  125OSM   C18F13328   1.595   3.900   5.195 -0.1162  0.6611  0.3465
  125OSM   H18F13329   1.633   3.812   5.250  1.5296  0.4837 -0.9672
  125OSM   H18G13330   1.529   3.968   5.253  2.6088  0.8970  3.4168
  125OSM   H18H13331   1.692   3.954   5.185  0.9479 -0.5666  3.1481
  126OSM      N13332   5.707   4.247   3.130  0.4247 -0.6051  0.0309
  126OSM    C1513333   5.671   4.146   3.035 -0.2206  0.4827  0.0703
  126OSM   H15A13334   5.741   4.133   2.953 -0.8230 -5.1082  0.0218
  126OSM   H15B13335   5.572   4.159   2.995  0.5386 -0.2449 -2.2417
  126OSM   H15C13336   5.673   4.045   3.073  0.1694 -0.4574 -2.2614
  126OSM    C1413337   5.735   4.382   3.070 -0.1843  0.1517 -0.7968
  126OSM   H14A13338   5.650   4.413   3.011 -1.7825 -1.8609  0.3274
  126OSM   H14B13339   5.825   4.369   3.012 -1.1946 -0.9443 -2.1820
  126OSM   H14C13340   5.756   4.454   3.148 -0.5136 -2.6386  2.0310
  126OSM    C1313341   5.574   4.273   3.202  0.2539 -0.2867  0.0090
  126OSM   H13A13342   5.584   4.336   3.289  1.9804  0.5773 -0.7656
  126OSM   H13B13343   5.526   4.181   3.233  1.5725 -2.0381 -2.7637
  126OSM   H13C13344   5.499   4.312   3.135 -1.0065 -1.3135  0.7900
  126OSM    C1213345   5.816   4.187   3.215  0.4208 -0.1358  0.7714
  126OSM   H12A13346   5.796   4.087   3.250 -0.8276  0.0847  0.7387
  126OSM   H12B13347   5.830   4.252   3.300  0.3443 -0.2200  0.8487
  126OSM    C1113348   5.955   4.161   3.146  0.1739  0.1801 -0.1362
  126OSM   H11A13349   5.948   4.074   3.078 -2.4594 -1.2832  1.8422
  126OSM   H11B13350   6.019   4.126   3.230 -0.0301  1.4143  0.5601
  126OSM      P13351   6.097   4.389   3.157  0.2374  0.1487  0.0141
  126OSM    O1313352   6.190   4.445   3.059 -0.3299 -0.3878  0.0141
  126OSM    O1413353   5.998   4.486   3.205 -0.1996 -0.0566 -0.1666
  126OSM    O1113354   6.172   4.318   3.277 -0.3017 -0.3800  0.1461
  126OSM    O1213355   6.015   4.270   3.081  0.2346  0.4622  0.0177
  126OSM    C1S13356   6.311   4.270   3.270 -0.1993  1.2749 -0.5571
  126OSM    H1S13357   6.373   4.347   3.220  1.2087 -0.0341 -0.9364
  126OSM    H1T13358   6.319   4.170   3.221  2.4594  0.7405  0.7432
  126OSM     NF13359   6.510   4.190   3.402 -0.1115  0.5761 -0.3021
  126OSM    HNF13360   6.518   4.093   3.423 -1.5125  0.3364 -0.7179
  126OSM    C2S13361   6.371   4.225   3.409  0.3420 -0.0831  0.2386
  126OSM    H2S13362   6.367   4.321   3.465 -3.2615  0.0399  0.0168
  126OSM    C3S13363   6.273   4.119   3.480  0.0069  0.6219  0.4727
  126OSM    H3S13364   6.299   4.022   3.433  1.1060  0.5769  1.1342
  126OSM     O313365   6.136   4.151   3.463  0.1069  0.6537 -0.6518
  126OSM    HO313366   6.141   4.226   3.403  2.0953  0.5333 -0.6746
  126OSM    C4S13367   6.309   4.117   3.628  0.2182 -0.8131 -0.0243
  126OSM    H4S13368   6.392   4.048   3.652  0.9969  0.6287  1.5610
  126OSM    C5S13369   6.266   4.199   3.726  0.2368 -0.3669 -0.0655
  126OSM    H5S13370   6.180   4.262   3.700  0.4600  0.4594  1.1183
  126OSM    C6S13371   6.303   4.190   3.868 -0.6687 -0.3934 -0.0224
  126OSM    H6S13372   6.386   4.117   3.880  0.5950  1.1059  0.9224
  126OSM    H6T13373   6.212   4.158   3.921 -0.7077  0.6758  0.5945
  126OSM    C7S13374   6.344   4.330   3.932  0.4189 -0.4840  0.2430
  126OSM    H7S13375   6.265   4.408   3.925  2.2489  1.5190  0.8621
  126OSM    H7T13376   6.435   4.368   3.880 -1.2896  0.5925 -2.1614
  126OSM    C8S13377   6.374   4.325   4.085 -0.7198 -0.2695 -0.4923
  126OSM    H8S13378   6.459   4.257   4.105 -1.0047 -0.6600 -0.6003
  126OSM    H8T13379   6.289   4.272   4.134 -0.1039 -1.3870 -0.6158
  126OSM    C9S13380   6.393   4.461   4.148 -0.1952  0.2629 -0.6541
  126OSM    H9S13381   6.299   4.518   4.158 -0.6331  0.2148 -3.6171
  126OSM    H9T13382   6.455   4.523   4.080  0.5387  0.6066  0.3113
  126OSM   C10S13383   6.479   4.453   4.283  0.4832  0.7878 -0.6710
  126OSM   H10S13384   6.574   4.398   4.264  0.2960 -0.3178  1.3403
  126OSM   H10T13385   6.421   4.390   4.354  1.0094 -0.0134 -0.9465
  126OSM   C11S13386   6.509   4.590   4.348 -0.0953  0.2410  0.0557
  126OSM   H11S13387   6.418   4.654   4.350 -0.1282  0.1748  2.1492
  126OSM   H11T13388   6.574   4.649   4.278 -1.2442 -1.6602 -2.8060
  126OSM   C12S13389   6.579   4.572   4.484  0.1327 -0.2161 -0.1273
  126OSM   H12S13390   6.622   4.669   4.518 -0.5398 -0.3778  1.2866
  126OSM   H12T13391   6.665   4.504   4.469  1.6648  1.0533  2.1869
  126OSM   C13S13392   6.482   4.538   4.598  0.2428 -0.2241  0.8329
  126OSM   H13S13393   6.411   4.461   4.560 -1.6675  1.9721 -0.3234
  126OSM   H13T13394   6.426   4.633   4.610 -0.6526 -0.7303  0.7570
  126OSM   C14S13395   6.552   4.501   4.726  0.1832  0.2177  0.1165
  126OSM   H14S13396   6.622   4.584   4.746 -2.7882  3.1137 -0.6183
  126OSM   H14T13397   6.615   4.412   4.704  0.9680  0.8051 -0.0448
  126OSM   C15S13398   6.454   4.482   4.848  0.2061 -0.8270 -0.0668
  126OSM   H15S13399   6.517   4.440   4.929  0.1973  2.8412  2.0583
  126OSM   H15T13400   6.373   4.407   4.835 -0.8828  0.0133  1.4953
  126OSM   C16S13401   6.392   4.613   4.903 -0.0143 -0.0299  0.2199
  126OSM   H16S13402   6.353   4.682   4.825 -2.9656 -0.9392  0.7746
  126OSM   H16T13403   6.473   4.661   4.963 -1.4853  0.1302  2.1686
  126OSM   C17S13404   6.271   4.582   4.997  0.2634  0.4803  0.2920
  126OSM   H17S13405   6.298   4.484   5.042  1.4175 -0.2182 -1.7643
  126OSM   H17T13406   6.181   4.572   4.934 -1.1043 -0.2273  2.2724
  126OSM   C18S13407   6.232   4.685   5.105  0.6245 -0.3700  0.8092
  126OSM   H18S13408   6.203   4.781   5.057 -2.4274 -1.8190 -0.5120
  126OSM   H18T13409   6.308   4.701   5.185  1.9605 -1.2341 -0.2414
  126OSM   H18U13410   6.138   4.644   5.149  0.2602 -0.2137  0.1912
  126OSM    C1F13411   6.616   4.266   3.379  0.2811  0.2443  0.2429
  126OSM     OF13412   6.600   4.372   3.324  0.5726 -0.5688 -0.1282
  126OSM    C2F13413   6.755   4.227   3.422 -0.9564 -0.6282 -0.7387
  126OSM    H2F13414   6.829   4.225   3.339  0.1053  2.5941  0.0064
  126OSM    H2G13415   6.742   4.119   3.445  2.9852 -1.0716  0.1359
  126OSM    C3F13416   6.815   4.296   3.544 -1.2367  0.2961  0.1357
  126OSM    H3F13417   6.863   4.392   3.514 -1.2816 -0.5796 -3.1598
  126OSM    H3G13418   6.903   4.238   3.579  0.9236  1.0351 -3.5824
  126OSM    C4F13419   6.709   4.323   3.655 -0.1738  0.6728  0.6214
  126OSM    H4F13420   6.618   4.370   3.611 -1.9256 -3.1466 -0.2247
  126OSM    H4G13421   6.753   4.400   3.723  2.1917 -0.8549  0.9220
  126OSM    C5F13422   6.663   4.193   3.727  0.0056  0.2282 -0.5424
  126OSM    H5F13423   6.639   4.114   3.652  0.6994 -0.6801  0.1665
  126OSM    H5G13424   6.573   4.230   3.781  0.6836  0.6472  0.3211
  126OSM    C6F13425   6.759   4.131   3.820 -0.6243 -0.1673 -0.1140
  126OSM    H6F13426   6.817   4.198   3.887  2.1698 -3.7594  1.4063
  126OSM    H6G13427   6.833   4.067   3.767  0.1339  0.4198  0.2259
  126OSM    C7F13428   6.689   4.030   3.917  0.6349 -0.6293 -0.3148
  126OSM    H7F13429   6.602   3.992   3.859 -0.4836  1.3780 -0.0581
  126OSM    H7G13430   6.659   4.100   3.998  3.5742  1.5746 -0.9378
  126OSM    C8F13431   6.779   3.917   3.965  0.2954 -0.4895 -0.0364
  126OSM    H8F13432   6.819   3.867   3.874 -0.4726 -0.3088 -0.4784
  126OSM    H8G13433   6.715   3.841   4.016  0.0032 -1.3038 -1.5472
  126OSM    C9F13434   6.883   3.978   4.047 -0.4163 -0.2016 -0.0992
  126OSM    H9F13435   6.969   4.017   3.990 -0.5527 -0.4478 -0.4831
  126OSM   C10F13436   6.881   3.992   4.179 -0.7966  0.8306 -0.5401
  126OSM   H10F13437   6.967   4.032   4.234 -0.0923 -0.2054 -0.8495
  126OSM   C11F13438   6.760   3.958   4.268 -0.3614  0.1660  0.4848
  126OSM   H11F13439   6.676   3.908   4.215  0.1877 -2.6462  2.0146
  126OSM   H11G13440   6.718   4.047   4.321 -2.3365  0.5082 -1.5130
  126OSM   C12F13441   6.784   3.839   4.366 -0.7272  0.4981  0.0069
  126OSM   H12F13442   6.827   3.753   4.311 -2.1681  0.1781 -0.6379
  126OSM   H12G13443   6.684   3.803   4.397 -0.5045 -0.1045  0.0434
  126OSM   C13F13444   6.875   3.871   4.482  0.5295 -0.3258 -0.4135
  126OSM   H13F13445   6.851   3.973   4.520  1.6454  0.2517 -1.1986
  126OSM   H13G13446   6.983   3.883   4.462  0.4366  0.5559 -0.4175
  126OSM   C14F13447   6.869   3.768   4.601 -0.6871  0.4919 -0.8561
  126OSM   H14F13448   6.897   3.666   4.567  2.2028  1.2638 -1.0982
  126OSM   H14G13449   6.770   3.756   4.648  0.1623  1.7664  1.4315
  126OSM   C15F13450   6.983   3.798   4.704 -0.2155 -0.2937  0.5683
  126OSM   H15F13451   6.962   3.899   4.747 -0.1652  0.2196 -0.5833
  126OSM   H15G13452   7.081   3.815   4.656  0.5361 -1.5050  1.6224
  126OSM   C16F13453   6.997   3.689   4.817 -0.3330 -0.5395  0.1415
  126OSM   H16F13454   7.003   3.591   4.764  1.3499  0.9981 -2.7434
  126OSM   H16G13455   6.902   3.677   4.873 -0.9387  0.5947 -0.5931
  126OSM   C17F13456   7.110   3.711   4.913  0.3987  0.1281  0.0910
  126OSM   H17F13457   7.209   3.717   4.864  0.5788  2.5737  0.6212
  126OSM   H17G13458   7.115   3.621   4.979 -2.0452 -0.0253  0.1789
  126OSM   C18F13459   7.083   3.828   5.004 -0.6708 -0.4115 -0.1048
  126OSM   H18F13460   7.148   3.820   5.094 -0.5260 -0.6350 -0.2288
  126OSM   H18G13461   6.976   3.850   5.022 -0.5195  0.2449  0.0196
  126OSM   H18H13462   7.108   3.918   4.943 -2.2398  0.3758  0.3637
  127OSM      N13463   5.170   6.575   3.223  0.5146 -0.1341  0.3016
  127OSM    C1513464   5.262   6.615   3.336 -0.0530  0.1275  0.1885
  127OSM   H15A13465   5.250   6.553   3.424 -0.7749 -0.7413 -0.5039
  127OSM   H15B13466   5.256   6.718   3.366 -2.8039 -0.6180  2.7631
  127OSM   H15C13467   5.362   6.592   3.302  0.1962  1.2374  0.1422
  127OSM    C1413468   5.033   6.618   3.269 -0.2483  0.0580 -0.1328
  127OSM   H14A13469   4.947   6.617   3.203 -0.8427 -1.5245  0.6242
  127OSM   H14B13470   5.040   6.711   3.324  2.7066 -1.4321  2.3059
  127OSM   H14C13471   5.000   6.560   3.354  0.2744  2.5706  1.9224
  127OSM    C1313472   5.206   6.655   3.097 -0.1871  0.0110 -0.1116
  127OSM   H13A13473   5.311   6.649   3.074  0.0906  1.1450  0.7456
  127OSM   H13B13474   5.180   6.758   3.115 -0.4144 -0.5469  3.4955
  127OSM   H13C13475   5.156   6.612   3.012 -0.6749 -0.7311  0.5368
  127OSM    C1213476   5.169   6.431   3.186  0.5326 -0.1448 -0.5028
  127OSM   H12A13477   5.100   6.419   3.103  0.0131  2.9202 -0.6293
  127OSM   H12B13478   5.118   6.380   3.266 -1.1625  2.3283  0.1001
  127OSM    C1113479   5.307   6.371   3.153 -0.0513 -0.1492 -0.1056
  127OSM   H11A13480   5.288   6.264   3.133 -2.3309  0.1716  0.0728
  127OSM   H11B13481   5.362   6.369   3.250  1.3125  0.9386 -0.8179
  127OSM      P13482   5.524   6.422   3.005 -0.1114  0.2797 -0.0398
  127OSM    O1313483   5.552   6.310   2.917 -0.2204 -0.0082 -0.1220
  127OSM    O1413484   5.575   6.545   2.943  0.1802 -0.0307 -0.4069
  127OSM    O1113485   5.591   6.393   3.142 -0.3798 -0.2430 -0.3943
  127OSM    O1213486   5.373   6.435   3.043 -0.2753  0.5843  0.2111
  127OSM    C1S13487   5.673   6.486   3.224 -0.5277 -0.5998  0.5042
  127OSM    H1S13488   5.669   6.587   3.177 -1.2597 -1.5975 -1.6814
  127OSM    H1T13489   5.779   6.455   3.213 -0.2644 -0.0593  1.3887
  127OSM     NF13490   5.733   6.577   3.443  0.2370  0.5497 -0.0989
  127OSM    HNF13491   5.809   6.528   3.485 -0.4388 -0.5221 -0.0751
  127OSM    C2S13492   5.642   6.486   3.377  0.3457 -0.0585  0.3440
  127OSM    H2S13493   5.543   6.536   3.383  0.0265 -0.7659  1.1935
  127OSM    C3S13494   5.654   6.346   3.430  0.3560 -0.0591 -0.1193
  127OSM    H3S13495   5.757   6.308   3.445  0.9054  2.0849  2.1972
  127OSM     O313496   5.579   6.243   3.361 -0.1148  0.0269 -0.2345
  127OSM    HO313497   5.562   6.280   3.274  2.0387 -0.3847 -0.9016
  127OSM    C4S13498   5.598   6.344   3.567  0.8224  0.3547  0.1698
  127OSM    H4S13499   5.492   6.373   3.571  0.7417  0.4267 -1.6775
  127OSM    C5S13500   5.660   6.304   3.679 -0.8765  0.2268  0.1052
  127OSM    H5S13501   5.764   6.271   3.665 -0.9881  0.5810 -1.8482
  127OSM    C6S13502   5.609   6.306   3.813 -0.2524 -0.3072 -0.4324
  127OSM    H6S13503   5.692   6.289   3.886 -1.1990  0.1870  0.8019
  127OSM    H6T13504   5.533   6.227   3.833 -0.6080  0.0195 -0.4892
  127OSM    C7S13505   5.558   6.449   3.856  0.3687  0.2190 -0.5746
  127OSM    H7S13506   5.482   6.468   3.777 -0.0301  2.5420  0.2733
  127OSM    H7T13507   5.646   6.513   3.833  0.0745  0.7998 -0.1239
  127OSM    C8S13508   5.524   6.468   4.007 -0.2988  0.9053  0.2875
  127OSM    H8S13509   5.619   6.478   4.063  0.3864 -1.7793 -0.2662
  127OSM    H8T13510   5.465   6.381   4.042 -1.1816  1.3847  0.0418
  127OSM    C9S13511   5.445   6.597   4.038 -1.2159  0.5080  0.7190
  127OSM    H9S13512   5.366   6.605   3.960  2.8137  2.6931 -3.6064
  127OSM    H9T13513   5.512   6.685   4.030 -0.4365 -0.2334 -2.3298
  127OSM   C10S13514   5.381   6.589   4.177  0.6329  0.3352 -0.5343
  127OSM   H10S13515   5.312   6.501   4.178  0.9140  0.0853 -1.5895
  127OSM   H10T13516   5.321   6.681   4.194 -0.5359 -0.3895 -0.6159
  127OSM   C11S13517   5.478   6.589   4.294 -0.7111 -0.1697  0.2082
  127OSM   H11S13518   5.563   6.660   4.286 -0.0562 -0.7134  1.9327
  127OSM   H11T13519   5.523   6.487   4.293 -2.4935 -1.0107  1.3792
  127OSM   C12S13520   5.413   6.618   4.434  0.4039  0.2685  0.8384
  127OSM   H12S13521   5.321   6.555   4.433  0.3537  0.2821  2.3386
  127OSM   H12T13522   5.386   6.726   4.436 -2.0043 -0.2791  0.5628
  127OSM   C13S13523   5.504   6.577   4.552  0.4769 -0.0361 -0.1198
  127OSM   H13S13524   5.591   6.647   4.550 -0.5033  1.3045  1.4096
  127OSM   H13T13525   5.544   6.475   4.533 -1.9904 -0.9141 -0.9859
  127OSM   C14S13526   5.435   6.578   4.691  0.1628  0.0384 -0.1891
  127OSM   H14S13527   5.502   6.537   4.769 -0.9955  1.2065  1.4983
  127OSM   H14T13528   5.353   6.503   4.692 -0.2289  0.4433 -0.9146
  127OSM   C15S13529   5.392   6.723   4.739 -0.2648  0.6763 -0.2147
  127OSM   H15S13530   5.357   6.721   4.845  0.7945  1.5148  0.1631
  127OSM   H15T13531   5.300   6.752   4.684 -0.7192  0.7166  0.5533
  127OSM   C16S13532   5.500   6.834   4.743 -0.3041  0.7002  0.4024
  127OSM   H16S13533   5.467   6.927   4.795 -0.8448  0.5452  0.3516
  127OSM   H16T13534   5.520   6.858   4.636  1.6863 -0.0519  0.5722
  127OSM   C17S13535   5.636   6.791   4.806  0.5774  0.1075  0.3784
  127OSM   H17S13536   5.694   6.885   4.790 -2.3281  1.6792 -2.0279
  127OSM   H17T13537   5.693   6.709   4.758 -2.0186 -1.9060  0.5122
  127OSM   C18S13538   5.627   6.761   4.958  0.2109  0.0388  0.1142
  127OSM   H18S13539   5.732   6.769   4.995 -0.4316  1.5917  1.7291
  127OSM   H18T13540   5.606   6.654   4.980 -1.0421 -0.0083 -1.1545
  127OSM   H18U13541   5.551   6.827   5.004  0.0735  0.4327 -0.6711
  127OSM    C1F13542   5.732   6.709   3.424  0.1774 -0.3195 -0.0506
  127OSM     OF13543   5.628   6.767   3.402  0.6106  0.2516 -0.8502
  127OSM    C2F13544   5.862   6.794   3.426 -0.7196 -0.5560 -0.0161
  127OSM    H2F13545   5.860   6.869   3.344  0.4982  0.1147  0.5368
  127OSM    H2G13546   5.947   6.730   3.396 -2.4114 -2.5279 -0.8752
  127OSM    C3F13547   5.902   6.861   3.560 -0.4042 -0.3628  0.1623
  127OSM    H3F13548   5.831   6.940   3.590  2.5955  2.0084  1.6470
  127OSM    H3G13549   5.997   6.918   3.545 -0.5024 -0.1992  0.1532
  127OSM    C4F13550   5.912   6.759   3.676  0.6342 -0.1510  0.5303
  127OSM    H4F13551   6.011   6.710   3.663  1.1984  1.3336 -1.3586
  127OSM    H4G13552   5.827   6.689   3.660 -0.6848  1.9517 -2.6557
  127OSM    C5F13553   5.896   6.819   3.816  0.4755 -0.2056 -0.0501
  127OSM    H5F13554   5.795   6.865   3.823  0.8284  0.2743  3.8888
  127OSM    H5G13555   5.978   6.892   3.834  0.2884  0.2530 -0.9883
  127OSM    C6F13556   5.910   6.707   3.926 -0.5840  0.2441 -0.0806
  127OSM    H6F13557   6.010   6.660   3.922 -0.5893  0.0609  1.2714
  127OSM    H6G13558   5.838   6.626   3.900  1.2192 -1.0242 -1.3278
  127OSM    C7F13559   5.874   6.756   4.068  0.0052 -0.0710  0.3118
  127OSM    H7F13560   5.765   6.771   4.077  0.0937  1.0518 -0.2664
  127OSM    H7G13561   5.908   6.861   4.082 -1.8542  0.5276  0.5413
  127OSM    C8F13562   5.937   6.668   4.179  0.2627 -0.7314  0.0520
  127OSM    H8F13563   5.936   6.748   4.257  1.0913  0.9302 -1.5535
  127OSM    H8G13564   6.045   6.657   4.155  0.4476  1.4914 -0.3114
  127OSM    C9F13565   5.863   6.540   4.194  0.2648 -0.2335 -0.2370
  127OSM    H9F13566   5.833   6.488   4.101 -2.1673  0.5420  0.0409
  127OSM   C10F13567   5.828   6.485   4.310  0.8914 -0.1164  0.0265
  127OSM   H10F13568   5.768   6.394   4.295 -0.4713  0.9701 -1.4282
  127OSM   C11F13569   5.867   6.523   4.448 -0.3046  0.1495 -0.1093
  127OSM   H11F13570   5.779   6.546   4.512  0.2983  1.4611  0.2775
  127OSM   H11G13571   5.914   6.624   4.442 -2.1479  1.1450  1.1214
  127OSM   C12F13572   5.970   6.432   4.513 -0.1390  0.0942 -0.5983
  127OSM   H12F13573   6.051   6.428   4.437  0.6588 -2.7365  0.3087
  127OSM   H12G13574   5.923   6.333   4.530  1.1493 -0.4798 -0.2694
  127OSM   C13F13575   6.010   6.493   4.651 -0.4448 -0.1688 -0.3123
  127OSM   H13F13576   5.918   6.499   4.713 -0.7831  1.3072 -0.9296
  127OSM   H13G13577   6.044   6.598   4.638 -0.9963 -0.0138 -0.5300
  127OSM   C14F13578   6.117   6.401   4.719  0.3864 -0.3954  0.3841
  127OSM   H14F13579   6.170   6.457   4.799 -0.0918  1.4945 -0.5603
  127OSM   H14G13580   6.197   6.388   4.642 -1.0364 -3.2258 -0.7330
  127OSM   C15F13581   6.079   6.276   4.791 -0.6597  0.6826  0.1725
  127OSM   H15F13582   6.177   6.225   4.805 -0.6383  0.0176 -1.9820
  127OSM   H15G13583   6.024   6.207   4.723  1.7152  0.3802 -1.5844
  127OSM   C16F13584   5.989   6.298   4.911  0.4944 -0.4161  0.2663
  127OSM   H16F13585   5.913   6.371   4.876  0.4760  0.1670  1.4824
  127OSM   H16G13586   6.046   6.352   4.989 -0.3015  1.9107 -0.6841
  127OSM   C17F13587   5.911   6.188   4.977  0.5132  0.3473  0.3156
  127OSM   H17F13588   5.982   6.108   5.009  2.0580  0.8429 -1.6744
  127OSM   H17G13589   5.852   6.138   4.897 -1.9003 -0.3171  2.3833
  127OSM   C18F13590   5.831   6.228   5.097  0.0991 -0.2871  0.8277
  127OSM   H18F13591   5.799   6.333   5.080  0.1959 -0.2794  0.6896
  127OSM   H18G13592   5.883   6.221   5.195  1.9509 -2.2106 -0.2283
  127OSM   H18H13593   5.731   6.179   5.101 -1.3608  2.2695 -1.0810
  128OSM      N13594   5.911   5.532   2.724  0.4750 -0.7766  0.7277
  128OSM    C1513595   5.805   5.564   2.625  0.7698 -0.0328  0.2741
  128OSM   H15A13596   5.736   5.483   2.609 -0.1955  0.7620  0.3195
  128OSM   H15B13597   5.845   5.599   2.532  0.3303  0.3709  0.2335
  128OSM   H15C13598   5.750   5.652   2.656 -0.1941  0.1130 -1.7411
  128OSM    C1413599   5.853   5.444   2.824 -0.7413  0.4124 -0.2028
  128OSM   H14A13600   5.787   5.511   2.878 -0.6017  0.7826 -0.4868
  128OSM   H14B13601   5.919   5.393   2.892 -3.5460 -0.8351  1.8212
  128OSM   H14C13602   5.788   5.374   2.774 -0.6287  1.2333 -1.5511
  128OSM    C1313603   6.017   5.454   2.658 -0.2911 -0.3360 -0.2254
  128OSM   H13A13604   5.971   5.365   2.618 -0.8424  0.6665 -1.9273
  128OSM   H13B13605   6.090   5.427   2.733  0.2505 -1.0406 -0.9839
  128OSM   H13C13606   6.063   5.506   2.574 -0.9154  0.4828 -0.0728
  128OSM    C1213607   5.964   5.651   2.803 -0.6079  0.3099  0.2527
  128OSM   H12A13608   6.002   5.720   2.729  0.6404 -1.7799 -1.1756
  128OSM   H12B13609   6.050   5.617   2.859 -1.3214 -3.3934 -0.6422
  128OSM    C1113610   5.868   5.722   2.898  0.0273 -0.2482 -0.4084
  128OSM   H11A13611   5.925   5.791   2.964  0.3775 -1.2514  0.3623
  128OSM   H11B13612   5.825   5.653   2.973 -2.5796  0.0288 -1.5371
  128OSM      P13613   5.791   5.926   2.765  0.3475 -0.0432 -0.0192
  128OSM    O1313614   5.920   5.920   2.694 -0.4305 -0.7047 -0.3060
  128OSM    O1413615   5.674   5.972   2.688  0.2613  0.1446 -0.2923
  128OSM    O1113616   5.809   6.012   2.898  0.6037  0.9403 -0.0845
  128OSM    O1213617   5.760   5.782   2.823  0.0123 -0.3771  0.0416
  128OSM    C1S13618   5.712   6.034   3.000 -0.8000  0.6828  0.8490
  128OSM    H1S13619   5.609   6.004   2.972 -0.2244 -0.8496  0.2867
  128OSM    H1T13620   5.707   6.145   3.011 -1.3086  0.8433 -0.7445
  128OSM     NF13621   5.623   5.989   3.215 -0.2902  0.4416 -0.0032
  128OSM    HNF13622   5.617   6.070   3.273  1.1156  0.6190 -0.0830
  128OSM    C2S13623   5.739   5.971   3.138 -0.3862  0.3602 -0.7932
  128OSM    H2S13624   5.758   5.864   3.113 -2.9042 -0.1286 -0.8281
  128OSM    C3S13625   5.868   6.033   3.192  0.2181  0.0538  0.1841
  128OSM    H3S13626   5.855   6.140   3.219  2.3959  0.1110  1.2642
  128OSM     O313627   5.976   6.028   3.102 -0.1838 -0.1595  0.4265
  128OSM    HO313628   5.931   5.997   3.023 -1.5672 -2.7353  2.0644
  128OSM    C4S13629   5.914   5.977   3.321 -0.0306  0.4790  0.5597
  128OSM    H4S13630   5.932   5.869   3.315 -3.2468 -0.1851  1.0770
  128OSM    C5S13631   5.929   6.042   3.437 -1.0757 -0.1165 -0.3387
  128OSM    H5S13632   5.922   6.151   3.425 -0.5343 -0.3848 -4.2054
  128OSM    C6S13633   5.966   5.985   3.577  0.8629 -0.5752 -0.7148
  128OSM    H6S13634   5.887   5.913   3.608  2.3864 -2.5277 -1.1120
  128OSM    H6T13635   5.968   6.066   3.652 -1.1472 -0.4598 -0.7249
  128OSM    C7S13636   6.088   5.890   3.602 -0.8568 -0.6704  0.0665
  128OSM    H7S13637   6.180   5.950   3.587 -1.3371 -0.2461 -1.3350
  128OSM    H7T13638   6.100   5.810   3.526  0.2010 -0.4570  0.0040
  128OSM    C8S13639   6.095   5.825   3.744 -0.1166 -1.0527 -0.3018
  128OSM    H8S13640   6.011   5.753   3.750 -0.2140 -1.0806 -1.6939
  128OSM    H8T13641   6.079   5.912   3.811 -1.0975 -1.6028  0.2032
  128OSM    C9S13642   6.232   5.767   3.766  0.0059  0.1912 -0.4413
  128OSM    H9S13643   6.302   5.847   3.732  0.7972  0.3957  1.5669
  128OSM    H9T13644   6.240   5.672   3.709 -1.5440  0.3913 -1.0223
  128OSM   C10S13645   6.274   5.731   3.908  0.3876  0.5445 -0.3426
  128OSM   H10S13646   6.238   5.812   3.975 -0.2654 -1.2079  1.5242
  128OSM   H10T13647   6.383   5.710   3.909  0.5852  1.4865 -1.0408
  128OSM   C11S13648   6.208   5.604   3.957 -0.3215  0.6562 -0.1927
  128OSM   H11S13649   6.239   5.518   3.894  3.5376  1.3681  0.4744
  128OSM   H11T13650   6.098   5.615   3.944 -0.6075 -0.9098  0.6139
  128OSM   C12S13651   6.231   5.575   4.111  0.5812  0.9836  0.4327
  128OSM   H12S13652   6.208   5.668   4.168  0.2964  0.8323  0.5625
  128OSM   H12T13653   6.339   5.552   4.100  1.0024  2.8600  0.2556
  128OSM   C13S13654   6.169   5.446   4.166  0.7351 -0.6302  0.2403
  128OSM   H13S13655   6.201   5.355   4.110  2.0221 -0.5635  0.8258
  128OSM   H13T13656   6.058   5.444   4.161  0.7622 -0.4271 -0.6067
  128OSM   C14S13657   6.211   5.431   4.312  0.0490 -0.5188  0.6381
  128OSM   H14S13658   6.192   5.524   4.369 -0.0005 -0.6363  0.8150
  128OSM   H14T13659   6.316   5.396   4.305 -0.2513 -1.3018 -0.1820
  128OSM   C15S13660   6.140   5.314   4.377 -0.3221  0.3852 -0.0868
  128OSM   H15S13661   6.208   5.288   4.462  0.0665 -2.2011 -1.0971
  128OSM   H15T13662   6.134   5.234   4.301 -1.1390 -0.0766  0.4444
  128OSM   C16S13663   5.997   5.340   4.426  0.0824 -0.0913  0.3376
  128OSM   H16S13664   5.945   5.244   4.443 -0.1390  0.0881  0.6847
  128OSM   H16T13665   5.941   5.387   4.342  0.2510 -0.3606  0.0738
  128OSM   C17S13666   5.991   5.422   4.557  0.6316  1.1835  0.2737
  128OSM   H17S13667   6.026   5.527   4.544  3.1279  0.5552  1.2409
  128OSM   H17T13668   6.064   5.377   4.628  0.4695 -0.9310 -0.8415
  128OSM   C18S13669   5.848   5.414   4.622 -0.1174 -0.3175  0.1315
  128OSM   H18S13670   5.759   5.436   4.558  0.9886 -0.9886 -1.7272
  128OSM   H18T13671   5.846   5.490   4.703  0.5041 -0.3381  0.1665
  128OSM   H18U13672   5.828   5.312   4.662 -0.4534 -0.6390 -0.8255
  128OSM    C1F13673   5.511   5.918   3.197 -0.0634  0.0005  0.0994
  128OSM     OF13674   5.517   5.818   3.129 -0.2437  0.3050  0.2536
  128OSM    C2F13675   5.383   5.950   3.273 -0.2910 -0.3625  0.8717
  128OSM    H2F13676   5.301   5.989   3.208 -0.0490 -1.4277 -0.1083
  128OSM    H2G13677   5.412   6.042   3.327 -1.0250  2.7674 -3.5383
  128OSM    C3F13678   5.345   5.842   3.373  0.3497  0.3684  0.4764
  128OSM    H3F13679   5.296   5.759   3.317  0.2456  1.4390 -1.0521
  128OSM    H3G13680   5.268   5.884   3.441 -0.1860 -0.4616  0.4051
  128OSM    C4F13681   5.459   5.793   3.464  0.4738 -0.2811 -0.1953
  128OSM    H4F13682   5.540   5.749   3.401  2.5853  1.1687  1.3724
  128OSM    H4G13683   5.418   5.712   3.528  0.6342  0.5449  0.9855
  128OSM    C5F13684   5.515   5.903   3.555  0.1273  0.9291 -0.0282
  128OSM    H5F13685   5.430   5.969   3.581 -0.5598  1.0726 -2.3654
  128OSM    H5G13686   5.595   5.954   3.499 -0.8113  2.4518 -0.0344
  128OSM    C6F13687   5.578   5.845   3.680  0.4444  0.1073 -0.4203
  128OSM    H6F13688   5.664   5.776   3.665  1.1157  1.0545 -1.0509
  128OSM    H6G13689   5.495   5.784   3.722  1.0279 -0.5481 -0.2013
  128OSM    C7F13690   5.629   5.953   3.780  0.4023 -0.0133 -0.3260
  128OSM    H7F13691   5.536   6.015   3.789 -1.2903 -2.3506 -0.8058
  128OSM    H7G13692   5.711   6.017   3.741 -0.6841  1.2320 -0.6748
  128OSM    C8F13693   5.670   5.892   3.914  0.0321 -0.1348  0.4865
  128OSM    H8F13694   5.736   5.806   3.888 -1.6852 -1.4039  0.1804
  128OSM    H8G13695   5.578   5.854   3.962 -0.9200  0.9416 -0.4247
  128OSM    C9F13696   5.736   6.004   3.996 -0.8761  0.0705 -0.8225
  128OSM    H9F13697   5.836   6.035   3.962 -0.4878 -0.5993 -0.3117
  128OSM   C10F13698   5.689   6.059   4.110  0.6601 -0.6804  0.2791
  128OSM   H10F13699   5.755   6.137   4.151  0.5550 -1.4474  1.9848
  128OSM   C11F13700   5.556   6.027   4.188 -0.6624  0.6402  0.8345
  128OSM   H11F13701   5.514   5.931   4.151 -0.0816  0.3095  1.0245
  128OSM   H11G13702   5.488   6.114   4.174  0.9319  1.7745 -0.2060
  128OSM   C12F13703   5.565   6.004   4.340 -0.0227 -0.1008 -0.8984
  128OSM   H12F13704   5.652   5.941   4.369 -0.5474  0.1690  1.4579
  128OSM   H12G13705   5.473   5.951   4.372  0.4350 -0.1015  0.5090
  128OSM   C13F13706   5.565   6.134   4.420  0.4282 -0.1197  0.2579
  128OSM   H13F13707   5.462   6.177   4.421  1.4044  2.6056 -2.3064
  128OSM   H13G13708   5.629   6.206   4.365 -0.8145  1.0075  0.2343
  128OSM   C14F13709   5.603   6.121   4.564 -0.4968  0.4150  0.1281
  128OSM   H14F13710   5.635   6.214   4.616  0.9558  0.3496 -0.5787
  128OSM   H14G13711   5.688   6.050   4.567 -2.3301 -2.0146 -1.4863
  128OSM   C15F13712   5.488   6.064   4.648 -0.1512 -0.7726  0.1948
  128OSM   H15F13713   5.429   5.989   4.591 -0.1570 -0.2458 -0.5003
  128OSM   H15G13714   5.413   6.142   4.671 -0.2736 -0.9382  0.3533
  128OSM   C16F13715   5.537   6.010   4.786  0.7601 -0.6559 -0.7720
  128OSM   H16F13716   5.645   6.037   4.790  0.2294  2.1734 -2.8840
  128OSM   H16G13717   5.525   5.901   4.806  2.1418 -0.9131 -1.1832
  128OSM   C17F13718   5.465   6.085   4.902 -0.0538 -0.1792  0.0530
  128OSM   H17F13719   5.483   6.194   4.892  0.7546 -0.3633 -0.6691
  128OSM   H17G13720   5.502   6.054   5.002 -2.5235 -1.6761  0.5923
  128OSM   C18F13721   5.315   6.052   4.909 -0.4969 -0.1973 -0.2876
  128OSM   H18F13722   5.307   5.949   4.949 -1.5508  0.2664  0.7363
  128OSM   H18G13723   5.278   6.061   4.805 -0.8396 -1.8661 -0.3358
  128OSM   H18H13724   5.264   6.115   4.985 -0.4031  0.0861 -0.4549
  129OSM      N13725   6.773   3.693   2.632 -0.0281  0.3817  0.0262
  129OSM    C1513726   6.905   3.643   2.678 -0.8393 -0.0946 -0.6115
  129OSM   H15A13727   6.894   3.549   2.731 -0.8148  0.8975  1.2611
  129OSM   H15B13728   6.958   3.712   2.742  0.8641 -2.1408  0.2930
  129OSM   H15C13729   6.964   3.621   2.591 -3.9795 -1.8570 -2.4790
  129OSM    C1413730   6.784   3.787   2.512  0.4926  0.4399  0.3823
  129OSM   H14A13731   6.686   3.815   2.476  0.5972 -0.1352 -0.3664
  129OSM   H14B13732   6.837   3.732   2.435  1.6998  0.6871  1.0155
  129OSM   H14C13733   6.837   3.878   2.535  3.3507 -0.9372 -0.3217
  129OSM    C1313734   6.700   3.566   2.581  0.0522  0.0612 -0.1755
  129OSM   H13A13735   6.676   3.501   2.665 -1.5610  1.7008  0.6935
  129OSM   H13B13736   6.765   3.521   2.507  2.1939  0.6297  1.2709
  129OSM   H13C13737   6.608   3.596   2.535  0.7481  3.0512  0.1533
  129OSM    C1213738   6.686   3.760   2.733 -0.3219  0.0216  0.4525
  129OSM   H12A13739   6.582   3.741   2.711 -0.5958  1.5659  0.3349
  129OSM   H12B13740   6.699   3.867   2.736  2.7168 -0.2548  2.8631
  129OSM    C1113741   6.693   3.704   2.878 -0.5855  0.5025  0.1087
  129OSM   H11A13742   6.632   3.769   2.944  0.0078  1.3142 -0.1143
  129OSM   H11B13743   6.792   3.719   2.925 -1.0233 -0.0237  1.2132
  129OSM      P13744   6.528   3.508   2.906 -0.1205  0.0007 -0.1014
  129OSM    O1313745   6.430   3.605   2.855 -0.0158  0.6372 -0.0753
  129OSM    O1413746   6.513   3.363   2.869  0.0623  0.2999  0.1552
  129OSM    O1113747   6.524   3.525   3.059  0.2241  0.1897  0.1764
  129OSM    O1213748   6.674   3.557   2.876  0.2591 -0.3882  0.4269
  129OSM    C1S13749   6.646   3.512   3.136 -0.0313 -0.9315  0.0666
  129OSM    H1S13750   6.683   3.616   3.147 -0.1532 -0.8478 -0.2990
  129OSM    H1T13751   6.722   3.444   3.091 -0.0650 -1.0946  0.2585
  129OSM     NF13752   6.724   3.484   3.365  0.3988 -0.3078 -0.0947
  129OSM    HNF13753   6.794   3.414   3.378 -1.2638 -1.8684  1.0191
  129OSM    C2S13754   6.615   3.452   3.275 -0.0660  0.1130  0.2376
  129OSM    H2S13755   6.530   3.490   3.337 -0.5820 -0.9379  0.1965
  129OSM    C3S13756   6.582   3.299   3.261  0.5476  0.6278  0.0739
  129OSM    H3S13757   6.671   3.251   3.215 -0.5190 -0.3929 -0.9896
  129OSM     O313758   6.481   3.281   3.162  0.0164  0.1207 -0.3630
  129OSM    HO313759   6.476   3.372   3.133  1.6458  0.5955  0.7255
  129OSM    C4S13760   6.546   3.234   3.390  0.3699 -0.6981 -1.0049
  129OSM    H4S13761   6.457   3.272   3.443  0.1720 -4.1752  1.4659
  129OSM    C5S13762   6.601   3.120   3.446 -0.2761  0.1443  0.5410
  129OSM    H5S13763   6.678   3.068   3.388 -0.0902  2.0173 -1.0072
  129OSM    C6S13764   6.549   3.056   3.572  0.2421  0.7084 -0.4638
  129OSM    H6S13765   6.614   2.968   3.592 -2.9481 -1.6315  0.4222
  129OSM    H6T13766   6.446   3.015   3.560  1.6767 -3.4638 -0.3296
  129OSM    C7S13767   6.539   3.151   3.694  0.2839  0.4371 -0.2405
  129OSM    H7S13768   6.458   3.226   3.680  1.3934  1.4853 -1.2596
  129OSM    H7T13769   6.632   3.210   3.707  1.0733 -0.8992  0.3671
  129OSM    C8S13770   6.508   3.070   3.819 -0.2302  0.2433 -0.4894
  129OSM    H8S13771   6.581   2.986   3.827  1.3613  1.6978  1.9182
  129OSM    H8T13772   6.409   3.027   3.799  0.8893 -1.3881 -2.9049
  129OSM    C9S13773   6.527   3.149   3.950  0.1013 -0.7569  0.1168
  129OSM    H9S13774   6.454   3.230   3.968  0.8246 -0.0912  0.0976
  129OSM    H9T13775   6.625   3.200   3.943 -1.3054  1.9395 -1.8770
  129OSM   C10S13776   6.523   3.054   4.075 -0.0293 -0.5576  0.6435
  129OSM   H10S13777   6.609   2.986   4.057  2.4002  2.7072 -1.1703
  129OSM   H10T13778   6.426   3.001   4.072 -0.4179  0.1163  0.9389
  129OSM   C11S13779   6.528   3.126   4.211 -0.1570 -0.5825 -0.5882
  129OSM   H11S13780   6.441   3.188   4.243  0.7093  0.8772 -1.0093
  129OSM   H11T13781   6.618   3.189   4.203 -0.2878 -0.2620  0.3300
  129OSM   C12S13782   6.574   3.026   4.314  0.8230  0.3054  0.2900
  129OSM   H12S13783   6.669   2.986   4.272 -0.4543 -0.2026 -2.3588
  129OSM   H12T13784   6.495   2.948   4.318  1.0036  0.1627  1.7658
  129OSM   C13S13785   6.592   3.083   4.461  0.2773  0.1017 -0.1323
  129OSM   H13S13786   6.484   3.105   4.481 -0.2520 -1.5193 -1.0232
  129OSM   H13T13787   6.658   3.172   4.463 -1.4220  1.4282  2.1264
  129OSM   C14S13788   6.642   2.975   4.557  0.0566  0.3573 -0.4220
  129OSM   H14S13789   6.731   2.927   4.513  1.6235  0.3866  2.4582
  129OSM   H14T13790   6.561   2.900   4.574  0.1753  0.5581  1.2116
  129OSM   C15S13791   6.677   3.025   4.701  0.2297 -0.6704  0.1548
  129OSM   H15S13792   6.702   2.937   4.764 -0.0493 -0.4989  0.5078
  129OSM   H15T13793   6.593   3.083   4.744 -0.2343  0.3570 -1.9965
  129OSM   C16S13794   6.797   3.119   4.701 -0.3108 -0.5409  0.2371
  129OSM   H16S13795   6.787   3.214   4.645  1.5583 -1.4159 -1.7108
  129OSM   H16T13796   6.879   3.070   4.644 -0.8389 -1.1523 -0.0046
  129OSM   C17S13797   6.835   3.150   4.846 -0.2319 -0.0497 -0.2410
  129OSM   H17S13798   6.853   3.055   4.902 -0.2211  0.3848  0.5097
  129OSM   H17T13799   6.749   3.194   4.900  0.3017 -1.6024  2.0233
  129OSM   C18S13800   6.958   3.237   4.862  0.5529 -0.4584  0.0588
  129OSM   H18S13801   7.045   3.190   4.811  1.4881  1.2676 -0.0448
  129OSM   H18T13802   6.991   3.247   4.968 -0.9350  0.2414  0.4942
  129OSM   H18U13803   6.941   3.337   4.817 -1.9010 -1.1264 -0.6491
  129OSM    C1F13804   6.748   3.618   3.386  0.3719  0.3714  0.8424
  129OSM     OF13805   6.671   3.708   3.364  0.0954  0.3948  0.4965
  129OSM    C2F13806   6.889   3.653   3.431 -0.8209 -0.2422 -0.4908
  129OSM    H2F13807   6.946   3.706   3.351  1.7168 -0.8974  0.7752
  129OSM    H2G13808   6.948   3.559   3.445 -0.4466  0.2716  1.6012
  129OSM    C3F13809   6.886   3.703   3.575 -0.8855 -0.2488 -0.5546
  129OSM    H3F13810   6.841   3.618   3.630  0.0678 -1.3760 -1.4602
  129OSM    H3G13811   6.823   3.794   3.586 -0.5591 -0.0228 -0.5196
  129OSM    C4F13812   7.014   3.746   3.648 -0.3471  0.1697  0.4923
  129OSM    H4F13813   7.068   3.655   3.682  0.8238  1.5193  2.4934
  129OSM    H4G13814   6.996   3.806   3.740  0.3324  1.3001 -0.0861
  129OSM    C5F13815   7.110   3.831   3.558 -0.4056 -0.1081 -0.1679
  129OSM    H5F13816   7.155   3.775   3.473  0.7083  1.1184 -0.4322
  129OSM    H5G13817   7.202   3.840   3.620 -0.6822 -0.2440  0.2674
  129OSM    C6F13818   7.055   3.962   3.522 -0.1339  0.2541  0.8248
  129OSM    H6F13819   7.006   4.005   3.612  0.3948 -1.4999  2.0172
  129OSM    H6G13820   6.974   3.941   3.450  0.2647  3.3584 -0.6767
  129OSM    C7F13821   7.155   4.062   3.466 -0.1726  0.8738 -0.3036
  129OSM    H7F13822   7.094   4.137   3.410 -0.4536 -0.6992 -2.2122
  129OSM    H7G13823   7.221   3.998   3.404 -0.6028 -0.4071  0.5191
  129OSM    C8F13824   7.245   4.132   3.572 -0.0877  0.5637  0.4146
  129OSM    H8F13825   7.291   4.058   3.641 -0.2401 -0.1775 -0.2571
  129OSM    H8G13826   7.187   4.192   3.645  1.3476 -0.7767  2.8010
  129OSM    C9F13827   7.349   4.211   3.502  0.3742 -0.0574  0.8176
  129OSM    H9F13828   7.307   4.283   3.429  0.4314  1.4374  2.2043
  129OSM   C10F13829   7.483   4.204   3.510  0.5645 -0.0330 -0.3848
  129OSM   H10F13830   7.554   4.264   3.451  1.8103 -2.4566 -1.4534
  129OSM   C11F13831   7.562   4.117   3.603  0.8304 -0.1861  0.1944
  129OSM   H11F13832   7.661   4.097   3.557  0.7997 -0.9758  0.4585
  129OSM   H11G13833   7.508   4.020   3.611 -1.1961  0.7898 -1.0105
  129OSM   C12F13834   7.582   4.181   3.740 -0.2503  0.4460  0.6438
  129OSM   H12F13835   7.477   4.197   3.775 -0.8812 -0.4166 -0.7644
  129OSM   H12G13836   7.646   4.270   3.729 -0.3961  0.4853  0.1229
  129OSM   C13F13837   7.656   4.085   3.839 -0.3382 -0.0277  0.6470
  129OSM   H13F13838   7.748   4.036   3.802 -0.4588  0.2561 -0.0392
  129OSM   H13G13839   7.594   3.998   3.870  0.3169 -0.7443 -0.0287
  129OSM   C14F13840   7.688   4.163   3.965 -0.6636  0.2680  0.5992
  129OSM   H14F13841   7.773   4.233   3.948  0.0868 -0.5828  0.8236
  129OSM   H14G13842   7.712   4.085   4.041 -0.3444  0.5713  0.8130
  129OSM   C15F13843   7.578   4.258   4.018  0.6020 -0.1779  0.0757
  129OSM   H15F13844   7.486   4.199   4.036  0.7369 -0.5548 -0.4498
  129OSM   H15G13845   7.547   4.340   3.949 -1.3788  0.2097  1.3423
  129OSM   C16F13846   7.623   4.323   4.150  0.4743  0.7269  0.0253
  129OSM   H16F13847   7.557   4.411   4.166 -0.7807 -0.0823 -0.5458
  129OSM   H16G13848   7.730   4.353   4.139  1.4567 -2.1834  0.5631
  129OSM   C17F13849   7.631   4.225   4.268 -0.2329  1.1140  0.1698
  129OSM   H17F13850   7.729   4.172   4.269 -0.3464  0.8787 -0.4624
  129OSM   H17G13851   7.545   4.154   4.268 -0.1840  1.0470  0.6845
  129OSM   C18F13852   7.621   4.301   4.402  0.1427 -0.6094 -0.1985
  129OSM   H18F13853   7.713   4.357   4.429  0.4886 -1.2023 -0.1234
  129OSM   H18G13854   7.598   4.233   4.487 -0.9094  1.7588  1.5128
  129OSM   H18H13855   7.539   4.374   4.415  1.4578  0.5934  1.8620
  130OSM      N13856   5.801   0.170   3.099  0.2698 -0.4378 -0.5616
  130OSM    C1513857   5.719   0.049   3.092  0.0102  0.4879 -1.0025
  130OSM   H15A13858   5.737  -0.006   3.001  0.6844  0.2501 -0.7286
  130OSM   H15B13859   5.614   0.073   3.106  0.3216  1.0091  0.7213
  130OSM   H15C13860   5.744  -0.017   3.174  2.4729  2.0690 -0.4041
  130OSM    C1413861   5.780   0.255   3.221  0.5585 -0.0111  0.1993
  130OSM   H14A13862   5.762   0.197   3.310  1.2460 -1.8609 -0.8218
  130OSM   H14B13863   5.692   0.315   3.206 -0.1541 -0.9003  0.7034
  130OSM   H14C13864   5.857   0.329   3.235  0.5694 -0.3466  2.1632
  130OSM    C1313865   5.943   0.124   3.092  0.2523  0.6091 -0.0306
  130OSM   H13A13866   5.965   0.046   3.164  2.1950  0.7772 -0.3875
  130OSM   H13B13867   6.019   0.199   3.111  1.1508 -0.0930 -0.7894
  130OSM   H13C13868   5.974   0.087   2.996 -1.0821 -0.2967 -0.1341
  130OSM    C1213869   5.770   0.246   2.977  0.8154 -0.0908 -0.2567
  130OSM   H12A13870   5.790   0.185   2.891 -1.5001 -0.7850 -0.3894
  130OSM   H12B13871   5.840   0.327   2.971  2.7591 -1.7064 -0.5942
  130OSM    C1113872   5.619   0.294   2.953 -0.1295 -0.5014  0.2126
  130OSM   H11A13873   5.561   0.199   2.950  1.6418 -1.6329  0.0139
  130OSM   H11B13874   5.614   0.347   2.855 -0.0357  0.6684  0.8259
  130OSM      P13875   5.427   0.443   3.041 -0.4541  0.0580 -0.0482
  130OSM    O1313876   5.427   0.551   2.946 -0.4183  0.4051  0.6757
  130OSM    O1413877   5.321   0.337   3.024  0.7288  0.5938 -0.0508
  130OSM    O1113878   5.405   0.506   3.190  0.3356 -0.0457 -1.1705
  130OSM    O1213879   5.572   0.382   3.058  0.5373  0.3142 -0.3557
  130OSM    C1S13880   5.392   0.405   3.297  0.2614 -0.3557  0.9234
  130OSM    H1S13881   5.474   0.331   3.304  1.0175 -0.2387 -3.5372
  130OSM    H1T13882   5.299   0.348   3.275  0.1734  0.5209 -1.2472
  130OSM     NF13883   5.396   0.367   3.553  0.0516  0.5459  0.3853
  130OSM    HNF13884   5.307   0.327   3.577  0.0037  0.3444 -0.1023
  130OSM    C2S13885   5.382   0.466   3.442 -0.1060 -0.5292  0.2000
  130OSM    H2S13886   5.467   0.536   3.455 -1.7313  1.5411  0.1032
  130OSM    C3S13887   5.254   0.558   3.456  0.2842  0.5387 -0.5426
  130OSM    H3S13888   5.162   0.497   3.456 -0.1196  1.1386 -0.8230
  130OSM     O313889   5.231   0.658   3.360  0.2572  0.1415  0.1844
  130OSM    HO313890   5.281   0.630   3.283 -0.6590 -0.0356 -0.3638
  130OSM    C4S13891   5.266   0.630   3.588  0.1848  0.4790 -0.2130
  130OSM    H4S13892   5.250   0.564   3.674  0.5150  0.0423 -0.4805
  130OSM    C5S13893   5.303   0.756   3.615  0.7789 -0.8414 -0.1342
  130OSM    H5S13894   5.333   0.814   3.527  2.2788  0.4908  1.1734
  130OSM    C6S13895   5.296   0.840   3.744  0.2843 -0.1649  0.2818
  130OSM    H6S13896   5.213   0.913   3.730 -0.2049 -0.8250 -0.3321
  130OSM    H6T13897   5.392   0.893   3.758  0.6935 -0.9750  0.5973
  130OSM    C7S13898   5.267   0.756   3.868 -0.1574  0.6725 -0.2707
  130OSM    H7S13899   5.346   0.681   3.893  0.2932  1.1772 -0.1582
  130OSM    H7T13900   5.170   0.702   3.864  0.0509  0.2531  0.1246
  130OSM    C8S13901   5.256   0.856   3.980  0.4723 -0.2470  0.1683
  130OSM    H8S13902   5.179   0.933   3.960  1.9148  1.2593  0.1122
  130OSM    H8T13903   5.350   0.911   4.006  0.1020 -0.3889  1.9660
  130OSM    C9S13904   5.221   0.802   4.115  0.0096 -0.5201  0.5554
  130OSM    H9S13905   5.303   0.735   4.149  0.5293 -0.8752 -1.2919
  130OSM    H9T13906   5.130   0.737   4.117 -1.4225  1.3924  0.9124
  130OSM   C10S13907   5.198   0.918   4.220 -0.1078 -0.4527  0.2689
  130OSM   H10S13908   5.108   0.976   4.189 -0.9253 -1.3999  0.8371
  130OSM   H10T13909   5.287   0.985   4.223  1.1838 -2.1192  0.0807
  130OSM   C11S13910   5.162   0.846   4.355 -0.1113  0.0019  0.4585
  130OSM   H11S13911   5.081   0.779   4.319  1.4613 -0.8319 -1.7533
  130OSM   H11T13912   5.118   0.922   4.424  2.8727  1.4121  0.9839
  130OSM   C12S13913   5.271   0.768   4.430 -0.6924  0.4717 -0.3488
  130OSM   H12S13914   5.349   0.839   4.465 -1.0055  0.4753  0.3536
  130OSM   H12T13915   5.328   0.723   4.346  2.2869  2.4271  0.4636
  130OSM   C13S13916   5.229   0.681   4.542 -0.6901 -0.2026 -0.1210
  130OSM   H13S13917   5.306   0.605   4.565 -0.1202  0.5176  0.3886
  130OSM   H13T13918   5.129   0.636   4.520 -1.1631 -0.6921  2.6184
  130OSM   C14S13919   5.210   0.758   4.673 -0.5659 -0.5293 -0.5114
  130OSM   H14S13920   5.153   0.852   4.660 -0.2711 -0.2017  0.5038
  130OSM   H14T13921   5.307   0.799   4.710 -0.0832 -0.3266 -1.9481
  130OSM   C15S13922   5.163   0.660   4.779  0.0868 -0.2625  0.1626
  130OSM   H15S13923   5.245   0.585   4.785  1.2552  0.2463 -4.6335
  130OSM   H15T13924   5.073   0.606   4.744  0.0797  0.3396 -0.8020
  130OSM   C16S13925   5.128   0.710   4.920  0.1157  0.1209  0.4294
  130OSM   H16S13926   5.051   0.788   4.908 -1.7491 -1.7827 -0.6623
  130OSM   H16T13927   5.215   0.764   4.964  0.1680  2.1430 -1.9478
  130OSM   C17S13928   5.071   0.606   5.012 -0.0818  0.4432  0.1417
  130OSM   H17S13929   5.150   0.528   5.006  0.3379  0.9023 -0.5483
  130OSM   H17T13930   4.976   0.565   4.972  1.8334 -3.8602 -0.4826
  130OSM   C18S13931   5.046   0.662   5.151 -0.2915 -0.2334 -0.2817
  130OSM   H18S13932   5.004   0.588   5.223 -2.8431 -0.6144 -2.0214
  130OSM   H18T13933   4.970   0.743   5.144  0.2615  0.1991 -1.9072
  130OSM   H18U13934   5.140   0.705   5.192  0.9065 -0.9458 -2.1412
  130OSM    C1F13935   5.509   0.309   3.589 -0.3063  0.7594  0.5098
  130OSM     OF13936   5.617   0.336   3.536  0.1766 -0.0633  0.2902
  130OSM    C2F13937   5.495   0.195   3.688 -0.2225  0.3814 -0.2022
  130OSM    H2F13938   5.557   0.108   3.657 -3.2522 -1.5457 -1.3223
  130OSM    H2G13939   5.388   0.166   3.682  0.1315 -0.8505 -0.8117
  130OSM    C3F13940   5.547   0.235   3.825  0.1572  0.5449 -0.8703
  130OSM    H3F13941   5.488   0.327   3.848 -1.0290 -0.1409 -1.1015
  130OSM    H3G13942   5.655   0.263   3.823  0.6957 -1.3146  0.2106
  130OSM    C4F13943   5.518   0.130   3.930 -0.4316 -0.5573 -0.5598
  130OSM    H4F13944   5.584   0.041   3.922  2.8287  1.7152 -0.9815
  130OSM    H4G13945   5.411   0.100   3.921  0.2422 -2.9290 -1.1856
  130OSM    C5F13946   5.541   0.185   4.073 -0.3160 -0.7506 -0.4806
  130OSM    H5F13947   5.502   0.289   4.085  2.2190  0.1741  0.3017
  130OSM    H5G13948   5.651   0.192   4.084 -0.5142  3.1296  0.6342
  130OSM    C6F13949   5.482   0.096   4.182  0.3460  0.3171  0.6483
  130OSM    H6F13950   5.526  -0.005   4.194 -1.8084 -0.6398  1.0706
  130OSM    H6G13951   5.376   0.077   4.153  1.1018  1.9589 -4.0696
  130OSM    C7F13952   5.495   0.159   4.321  0.1375  0.7772 -0.1291
  130OSM    H7F13953   5.464   0.083   4.395 -1.1623 -0.6533 -2.0532
  130OSM    H7G13954   5.415   0.236   4.324 -0.5015  0.2825 -2.4975
  130OSM    C8F13955   5.632   0.220   4.353  0.1675 -0.1146 -0.2528
  130OSM    H8F13956   5.631   0.271   4.452  0.2524  0.9813 -0.7938
  130OSM    H8G13957   5.644   0.307   4.284 -0.5301 -0.6177 -1.0291
  130OSM    C9F13958   5.751   0.122   4.351 -0.5199  0.4149  0.6286
  130OSM    H9F13959   5.743   0.031   4.290  1.2347 -0.3317  1.4353
  130OSM   C10F13960   5.863   0.125   4.424 -0.2572  0.4345 -0.2942
  130OSM   H10F13961   5.928   0.035   4.430 -1.1365 -0.1575  0.8227
  130OSM   C11F13962   5.906   0.225   4.527 -0.1250 -0.1384 -0.2601
  130OSM   H11F13963   5.846   0.317   4.514  1.4128  0.7642 -1.3419
  130OSM   H11G13964   6.010   0.257   4.504 -0.4775  0.0660 -1.6265
  130OSM   C12F13965   5.895   0.181   4.670  0.1001 -0.3985 -0.0314
  130OSM   H12F13966   5.885   0.071   4.667  2.3779 -0.6247 -1.0268
  130OSM   H12G13967   5.807   0.227   4.722  0.7586 -0.5317  1.2392
  130OSM   C13F13968   6.017   0.217   4.754 -0.4009 -0.3463  1.0776
  130OSM   H13F13969   6.044   0.325   4.748  0.9716 -0.6166  1.9571
  130OSM   H13G13970   6.093   0.156   4.700 -0.2894 -1.2732  2.2512
  130OSM   C14F13971   5.997   0.171   4.902  0.1552 -0.1173  0.2544
  130OSM   H14F13972   5.897   0.205   4.938 -1.3236 -1.8902 -1.9252
  130OSM   H14G13973   6.068   0.222   4.971  0.4381  0.5828 -0.5384
  130OSM   C15F13974   6.005   0.020   4.931 -0.6047  0.1504  0.8837
  130OSM   H15F13975   6.108  -0.002   4.898 -0.1389  2.4089  0.6208
  130OSM   H15G13976   5.929  -0.034   4.871  0.0562 -0.0049  0.1737
  130OSM   C16F13977   6.004  -0.018   5.086  0.5445 -0.2480 -0.6555
  130OSM   H16F13978   5.905   0.011   5.125 -0.1216 -1.5167 -1.3134
  130OSM   H16G13979   6.086   0.035   5.139  0.1422 -0.0456 -0.2399
  130OSM   C17F13980   6.026  -0.171   5.107  0.2255  0.2604 -0.2163
  130OSM   H17F13981   6.114  -0.201   5.046 -0.3103  0.5344 -1.1504
  130OSM   H17G13982   5.938  -0.221   5.061 -0.5716  1.6610 -0.2333
  130OSM   C18F13983   6.036  -0.218   5.245  0.1897 -0.4754  0.2738
  130OSM   H18F13984   6.121  -0.167   5.294 -0.8059 -0.7225  2.3686
  130OSM   H18G13985   6.039  -0.329   5.255  0.4549 -0.4734  0.2238
  130OSM   H18H13986   5.944  -0.189   5.300  0.6661  1.5947  0.0421
  131OSM      N13987   6.104   3.354   3.013 -0.8764 -0.1068 -0.0213
  131OSM    C1513988   6.004   3.331   2.909 -0.3054  0.4466  0.3059
  131OSM   H15A13989   6.035   3.345   2.807  1.4525  0.1043  0.7574
  131OSM   H15B13990   5.924   3.402   2.927  0.6074  1.1113  2.0493
  131OSM   H15C13991   5.969   3.230   2.919  0.0988  0.2113 -0.6415
  131OSM    C1413992   6.165   3.489   2.979 -0.3453 -0.2925 -0.1753
  131OSM   H14A13993   6.215   3.490   2.883  0.5614 -0.4272  0.2836
  131OSM   H14B13994   6.245   3.507   3.049 -0.4223 -1.2091  0.1604
  131OSM   H14C13995   6.094   3.571   2.984  1.1675  0.9798  2.7964
  131OSM    C1313996   6.033   3.350   3.145 -0.1902  0.3631 -0.5824
  131OSM   H13A13997   6.094   3.396   3.223 -1.5414  0.7340  0.2869
  131OSM   H13B13998   6.005   3.249   3.172  1.6453  0.4148  1.9682
  131OSM   H13C13999   5.940   3.404   3.135 -0.9703 -0.7997  0.1502
  131OSM    C1214000   6.215   3.251   3.010 -0.3681  0.6774 -0.2381
  131OSM   H12A14001   6.299   3.289   3.066 -0.7924  0.5785  0.4739
  131OSM   H12B14002   6.238   3.232   2.906 -0.3868 -3.1446  0.3230
  131OSM    C1114003   6.191   3.104   3.076 -0.5203 -0.4788  0.7938
  131OSM   H11A14004   6.197   3.117   3.186  0.9288  0.8932  0.5927
  131OSM   H11B14005   6.281   3.046   3.048 -2.4888 -1.9476 -3.3490
  131OSM      P14006   5.969   2.966   3.104  0.3804 -0.3347  0.0304
  131OSM    O1314007   5.837   3.003   3.046  0.4632 -0.2531  0.4501
  131OSM    O1414008   6.002   2.823   3.089  0.5757 -0.1345 -0.2977
  131OSM    O1114009   5.980   3.020   3.247  0.1939  0.1073  0.3722
  131OSM    O1214010   6.079   3.039   3.014  0.1111  0.2903 -0.4214
  131OSM    C1S14011   5.859   3.027   3.326  0.2770  0.2348 -0.0782
  131OSM    H1S14012   5.808   2.929   3.320 -0.1954  0.5264 -1.0515
  131OSM    H1T14013   5.795   3.112   3.294  1.6951  1.0379 -0.9430
  131OSM     NF14014   5.748   3.061   3.544 -0.4553  0.7078 -0.2967
  131OSM    HNF14015   5.696   3.144   3.564  0.5921  1.0202  1.2471
  131OSM    C2S14016   5.876   3.067   3.478 -0.4273  0.2430 -0.7540
  131OSM    H2S14017   5.941   2.983   3.510  1.8763  2.6470  1.3790
  131OSM    C3S14018   5.963   3.197   3.500  0.7996 -0.3785  1.3584
  131OSM    H3S14019   5.915   3.287   3.456  2.5434 -0.3365 -0.6061
  131OSM     O314020   6.082   3.193   3.425 -0.2802 -0.1166  0.4835
  131OSM    HO314021   6.062   3.134   3.352 -0.1653  0.6266 -0.1581
  131OSM    C4S14022   5.998   3.232   3.643  0.0586 -0.2859 -0.0187
  131OSM    H4S14023   5.914   3.254   3.711  2.2352 -0.1449  2.7870
  131OSM    C5S14024   6.123   3.232   3.697  0.2237  1.3183 -0.1512
  131OSM    H5S14025   6.202   3.201   3.626 -0.2820 -0.4387  0.0107
  131OSM    C6S14026   6.156   3.281   3.843  0.6840 -0.1014  0.0649
  131OSM    H6S14027   6.213   3.376   3.839  0.0064  0.3613  0.9904
  131OSM    H6T14028   6.219   3.204   3.892 -0.2956 -0.7495  0.3396
  131OSM    C7S14029   6.037   3.313   3.938  0.1163 -0.5618  0.3773
  131OSM    H7S14030   5.987   3.222   3.977 -1.3987 -0.6703 -1.6527
  131OSM    H7T14031   5.961   3.370   3.881  0.6378  1.0087  1.1799
  131OSM    C8S14032   6.083   3.420   4.039  0.3832 -0.1949  0.3548
  131OSM    H8S14033   5.993   3.479   4.065  1.2067  0.9237  0.7324
  131OSM    H8T14034   6.156   3.493   3.998 -1.9527  1.6655 -0.7220
  131OSM    C9S14035   6.134   3.350   4.162  0.1115  0.3265  0.0968
  131OSM    H9S14036   6.227   3.297   4.131  1.4927  3.1508 -0.9454
  131OSM    H9T14037   6.069   3.267   4.197 -1.7142  1.1531 -1.1555
  131OSM   C10S14038   6.164   3.449   4.273  0.3503 -0.7448  0.3295
  131OSM   H10S14039   6.232   3.534   4.251 -3.2211  2.0980 -0.5590
  131OSM   H10T14040   6.215   3.389   4.351  1.7578  0.9149  0.7459
  131OSM   C11S14041   6.034   3.494   4.334 -0.7103 -0.1457 -0.4342
  131OSM   H11S14042   5.957   3.416   4.345 -0.1645 -0.8274 -1.2938
  131OSM   H11T14043   5.981   3.556   4.259  1.1941  1.4164 -0.5667
  131OSM   C12S14044   6.051   3.568   4.463  0.0803 -0.6682 -0.5980
  131OSM   H12S14045   6.135   3.636   4.438 -2.0358  2.1518 -0.6749
  131OSM   H12T14046   6.087   3.505   4.546  1.3680  1.5914  0.6451
  131OSM   C13S14047   5.935   3.657   4.502  0.5225 -0.3918 -0.1991
  131OSM   H13S14048   5.847   3.595   4.528 -1.0028  1.6430 -0.2113
  131OSM   H13T14049   5.905   3.720   4.415  1.0606  1.0625  0.6229
  131OSM   C14S14050   5.991   3.742   4.619  0.2612 -0.0345 -0.0807
  131OSM   H14S14051   6.061   3.818   4.578 -0.8666  0.4436 -1.1801
  131OSM   H14T14052   6.050   3.677   4.686  0.9150  0.9040  0.2758
  131OSM   C15S14053   5.882   3.805   4.700  0.2329 -0.0859  0.6075
  131OSM   H15S14054   5.802   3.732   4.727 -1.2203  0.9926 -0.6086
  131OSM   H15T14055   5.841   3.890   4.641  1.8037 -0.4016 -1.0026
  131OSM   C16S14056   5.925   3.860   4.837 -0.0098 -0.6854  0.1909
  131OSM   H16S14057   6.020   3.912   4.816 -1.7048  1.8423 -1.7818
  131OSM   H16T14058   5.943   3.776   4.907 -2.4644 -0.9881  0.5464
  131OSM   C17S14059   5.821   3.954   4.908  0.4634  0.2362 -0.3756
  131OSM   H17S14060   5.821   4.055   4.862 -0.0856  1.3778  1.9788
  131OSM   H17T14061   5.851   3.968   5.014  0.0354  0.3891 -0.2730
  131OSM   C18S14062   5.680   3.887   4.914 -0.4372 -0.1627  0.0037
  131OSM   H18S14063   5.691   3.782   4.950 -0.9248 -0.4600 -0.6761
  131OSM   H18T14064   5.638   3.881   4.811 -1.1547 -0.9289  0.3261
  131OSM   H18U14065   5.599   3.934   4.974 -0.0483  0.7058 -0.1454
  131OSM    C1F14066   5.694   2.950   3.582 -0.1777 -0.5500 -0.2879
  131OSM     OF14067   5.732   2.839   3.544  0.8277 -0.0138 -0.1690
  131OSM    C2F14068   5.569   2.963   3.669 -0.0115 -0.5191  0.1284
  131OSM    H2F14069   5.538   2.863   3.706 -1.3292 -0.6300 -1.1722
  131OSM    H2G14070   5.496   3.015   3.603  0.6536  0.2060 -0.0413
  131OSM    C3F14071   5.594   3.048   3.796  0.6362 -0.9945 -0.0933
  131OSM    H3F14072   5.508   3.034   3.866 -0.6489  1.6965 -0.9987
  131OSM    H3G14073   5.602   3.155   3.766  1.2534 -1.1162 -0.3873
  131OSM    C4F14074   5.719   2.994   3.876  0.5013  1.5250  0.0864
  131OSM    H4F14075   5.810   3.021   3.818  1.8279 -0.1314  1.2898
  131OSM    H4G14076   5.703   2.885   3.864  2.6131  0.8465  2.5370
  131OSM    C5F14077   5.744   3.028   4.019  0.0817 -0.2033 -0.0229
  131OSM    H5F14078   5.769   3.136   4.027 -0.4994 -0.1469  1.2940
  131OSM    H5G14079   5.825   2.974   4.073 -1.4557  0.1354  2.8459
  131OSM    C6F14080   5.625   3.014   4.116  0.0086  0.8598 -0.2822
  131OSM    H6F14081   5.601   2.906   4.101 -2.0682  1.1348  0.7222
  131OSM    H6G14082   5.534   3.077   4.103  0.1836  1.0542 -0.5862
  131OSM    C7F14083   5.669   3.032   4.261  0.5364 -0.0517 -0.3339
  131OSM    H7F14084   5.692   3.139   4.278  2.4409 -0.6755  1.4408
  131OSM    H7G14085   5.757   2.970   4.288 -0.6806 -2.0774 -0.8077
  131OSM    C8F14086   5.555   3.007   4.358  0.4087 -0.4550 -0.0616
  131OSM    H8F14087   5.557   2.896   4.364 -2.3422 -0.5439  0.8410
  131OSM    H8G14088   5.462   3.041   4.308  0.4642 -1.1165 -0.6274
  131OSM    C9F14089   5.576   3.060   4.497 -0.6959 -0.7582 -0.9780
  131OSM    H9F14090   5.679   3.088   4.523 -1.1931  0.7608 -0.5465
  131OSM   C10F14091   5.478   3.103   4.577 -0.0421  0.1566 -0.1088
  131OSM   H10F14092   5.502   3.152   4.673  0.5371  0.5453 -0.4515
  131OSM   C11F14093   5.331   3.083   4.556 -0.3147 -0.2045 -0.1944
  131OSM   H11F14094   5.310   3.011   4.473 -0.1423  1.5501 -1.8457
  131OSM   H11G14095   5.288   3.180   4.522 -3.9284 -0.8790  1.9291
  131OSM   C12F14096   5.247   3.048   4.679 -0.3340 -0.4531  0.1201
  131OSM   H12F14097   5.300   2.960   4.720  2.1504  1.1297  0.5478
  131OSM   H12G14098   5.143   3.020   4.653 -0.3394  0.6134 -1.1244
  131OSM   C13F14099   5.249   3.152   4.792 -0.8881  0.4683 -0.1045
  131OSM   H13F14100   5.177   3.228   4.757  0.0162  0.7187 -1.4778
  131OSM   H13G14101   5.348   3.203   4.799  0.3300 -1.8246  0.6458
  131OSM   C14F14102   5.201   3.091   4.926  0.0714  0.9463  0.7673
  131OSM   H14F14103   5.212   3.168   5.006  1.4353 -0.0835  1.6276
  131OSM   H14G14104   5.265   3.005   4.953  0.8337  1.3441  0.2636
  131OSM   C15F14105   5.049   3.056   4.940  0.2183 -0.2964  0.1999
  131OSM   H15F14106   5.028   2.998   4.847 -1.7560  0.3536  0.1935
  131OSM   H15G14107   4.985   3.147   4.939 -0.8434 -1.0271  0.4130
  131OSM   C16F14108   5.024   2.963   5.048 -0.5586  0.1690  0.0836
  131OSM   H16F14109   5.099   2.881   5.045  1.0075  1.5722 -2.1892
  131OSM   H16G14110   4.924   2.919   5.030 -1.2896  1.0053  1.7979
  131OSM   C17F14111   5.023   3.030   5.192 -0.0493 -0.4699  0.6940
  131OSM   H17F14112   5.127   3.051   5.226  0.9333 -3.2398 -0.3680
  131OSM   H17G14113   4.977   2.955   5.260 -0.0395  1.1876  2.6609
  131OSM   C18F14114   4.928   3.156   5.204  0.3220 -0.3950 -0.0519
  131OSM   H18F14115   4.900   3.183   5.308  0.2216 -0.0097 -0.1799
  131OSM   H18G14116   4.828   3.137   5.158 -0.2035  0.3083  0.7743
  131OSM   H18H14117   4.970   3.244   5.151  1.1139 -0.8351 -0.1724
  132OSM      N14118   4.719   4.381   2.913  0.3706  0.1413 -0.3697
  132OSM    C1514119   4.605   4.367   2.815  0.0712 -0.2303 -0.8119
  132OSM   H15A14120   4.566   4.267   2.803  2.3716 -1.0613 -1.9161
  132OSM   H15B14121   4.643   4.375   2.714 -3.0156 -0.5928 -2.1299
  132OSM   H15C14122   4.535   4.448   2.828 -1.3705 -1.3236 -1.4441
  132OSM    C1414123   4.678   4.335   3.051  0.0557  0.6399  0.1666
  132OSM   H14A14124   4.614   4.250   3.034  0.5383  0.8888 -4.1940
  132OSM   H14B14125   4.616   4.406   3.104 -1.0813 -0.8514  0.8994
  132OSM   H14C14126   4.759   4.301   3.113  1.2581  0.7952 -1.2459
  132OSM    C1314127   4.817   4.286   2.866 -0.0368  0.0883  0.6671
  132OSM   H13A14128   4.860   4.306   2.770  1.6251 -0.0742  1.3418
  132OSM   H13B14129   4.783   4.184   2.850 -1.2175  0.9576 -3.3064
  132OSM   H13C14130   4.905   4.279   2.929  1.5356  0.3993 -1.4139
  132OSM    C1214131   4.769   4.522   2.911 -0.7190 -1.0506  0.0813
  132OSM   H12A14132   4.778   4.539   2.805 -0.4024 -0.5554  0.1816
  132OSM   H12B14133   4.866   4.532   2.957  0.2604 -1.3760 -1.8020
  132OSM    C1114134   4.684   4.644   2.973  0.1435  0.5350  1.1936
  132OSM   H11A14135   4.754   4.731   2.964 -0.5912  1.1920  1.7040
  132OSM   H11B14136   4.667   4.620   3.080 -0.8138 -0.2438  0.8813
  132OSM      P14137   4.509   4.807   2.885 -0.6666  0.3364  0.1509
  132OSM    O1314138   4.596   4.870   2.783 -0.8945 -0.4287  0.2690
  132OSM    O1414139   4.364   4.795   2.846 -0.7066  0.0838 -0.0109
  132OSM    O1114140   4.512   4.880   3.026 -0.3806 -0.4757 -0.4039
  132OSM    O1214141   4.556   4.660   2.908 -0.1300  0.7330 -0.3160
  132OSM    C1S14142   4.442   4.831   3.145  1.0222  0.5855 -0.0076
  132OSM    H1S14143   4.485   4.733   3.174 -2.3976 -1.2168 -0.5277
  132OSM    H1T14144   4.336   4.800   3.133  0.1131  2.9745  1.1148
  132OSM     NF14145   4.409   4.871   3.387 -0.3139 -1.0471 -0.9191
  132OSM    HNF14146   4.324   4.903   3.429  0.4760  1.6849 -1.2139
  132OSM    C2S14147   4.458   4.928   3.268 -0.0186 -0.8847  0.2168
  132OSM    H2S14148   4.569   4.936   3.280  0.7552 -5.0933 -2.0713
  132OSM    C3S14149   4.401   5.076   3.232 -0.2087 -0.1610 -0.3214
  132OSM    H3S14150   4.293   5.077   3.208 -0.0027  1.2260 -1.3451
  132OSM     O314151   4.456   5.139   3.114 -0.6474 -0.1756 -0.0701
  132OSM    HO314152   4.481   5.069   3.053  2.7951  1.7984 -1.1737
  132OSM    C4S14153   4.419   5.164   3.346  0.4243 -0.1540 -0.7744
  132OSM    H4S14154   4.336   5.143   3.416 -0.4406 -0.6706 -1.9216
  132OSM    C5S14155   4.514   5.251   3.392 -0.1568  0.2541 -0.0631
  132OSM    H5S14156   4.599   5.273   3.326 -0.1627  3.7985  0.8868
  132OSM    C6S14157   4.507   5.322   3.523  0.1332 -1.0741 -0.3465
  132OSM    H6S14158   4.573   5.262   3.589 -0.7956 -1.5026  0.2129
  132OSM    H6T14159   4.403   5.312   3.561 -0.2248  2.5707 -0.0473
  132OSM    C7S14160   4.549   5.475   3.531  0.6537  0.8260 -0.0779
  132OSM    H7S14161   4.493   5.528   3.452  0.9958  0.5729 -0.4933
  132OSM    H7T14162   4.655   5.469   3.501  1.1104 -3.6191  1.6446
  132OSM    C8S14163   4.529   5.541   3.665 -0.2316 -0.0606  0.1819
  132OSM    H8S14164   4.565   5.645   3.651 -0.3867  0.4157  2.9281
  132OSM    H8T14165   4.593   5.481   3.733 -3.1592 -2.7245  0.8050
  132OSM    C9S14166   4.388   5.566   3.710 -0.0676 -0.1474 -0.1269
  132OSM    H9S14167   4.328   5.472   3.707 -0.0104 -0.1709 -0.5462
  132OSM    H9T14168   4.340   5.647   3.651  2.3472  0.2049 -1.7267
  132OSM   C10S14169   4.371   5.600   3.865 -1.0349  0.1008  0.0692
  132OSM   H10S14170   4.443   5.682   3.888 -1.4730  0.6342 -0.4087
  132OSM   H10T14171   4.391   5.508   3.923 -4.5188 -0.8905 -0.1081
  132OSM   C11S14172   4.238   5.656   3.899 -0.2179  0.0526  0.9688
  132OSM   H11S14173   4.152   5.594   3.868 -0.2839 -0.4101  2.0343
  132OSM   H11T14174   4.224   5.743   3.831  1.5724  0.6270  1.2779
  132OSM   C12S14175   4.227   5.699   4.044  0.6289 -0.8602  0.2770
  132OSM   H12S14176   4.146   5.775   4.046  0.2176 -1.2648 -0.5187
  132OSM   H12T14177   4.318   5.759   4.064  1.6485 -1.6237 -1.8059
  132OSM   C13S14178   4.213   5.581   4.136 -0.4470 -0.1974  0.5008
  132OSM   H13S14179   4.298   5.515   4.109  0.1191  0.3731  0.8593
  132OSM   H13T14180   4.117   5.527   4.120 -1.5050  1.6258  0.4349
  132OSM   C14S14181   4.223   5.611   4.285  0.2237 -0.4506 -0.2964
  132OSM   H14S14182   4.169   5.700   4.323  0.6445 -0.4197  0.2381
  132OSM   H14T14183   4.331   5.640   4.290 -0.2931  1.4367  0.8008
  132OSM   C15S14184   4.206   5.490   4.386  0.2924  0.1484  1.0118
  132OSM   H15S14185   4.273   5.406   4.359  1.8060  1.3684  0.8755
  132OSM   H15T14186   4.105   5.444   4.373 -0.3397  2.3070 -3.8434
  132OSM   C16S14187   4.239   5.539   4.531 -0.3110 -0.4523  0.3694
  132OSM   H16S14188   4.169   5.621   4.557  0.4658  0.2931  0.1741
  132OSM   H16T14189   4.336   5.593   4.534 -1.3027  1.4053  1.6120
  132OSM   C17S14190   4.219   5.430   4.638 -0.1439  0.7957 -0.6316
  132OSM   H17S14191   4.136   5.360   4.615  0.3650  0.6866 -2.2378
  132OSM   H17T14192   4.188   5.483   4.730  2.4615 -0.4667  1.0827
  132OSM   C18S14193   4.347   5.338   4.662  0.4838  0.1334 -0.2206
  132OSM   H18S14194   4.424   5.401   4.710 -1.0652  0.0010  2.6892
  132OSM   H18T14195   4.372   5.294   4.563 -0.7259 -0.3223 -0.3552
  132OSM   H18U14196   4.315   5.256   4.731 -0.8830  0.2752 -0.6420
  132OSM    C1F14197   4.469   4.767   3.445 -0.4416  0.0166  0.3828
  132OSM     OF14198   4.570   4.720   3.398  0.0406 -0.2627  0.7059
  132OSM    C2F14199   4.412   4.717   3.572 -0.4449  0.0515 -0.2940
  132OSM    H2F14200   4.427   4.607   3.570  0.0743  0.1050 -2.8539
  132OSM    H2G14201   4.303   4.741   3.580 -0.9996 -1.4386 -2.3256
  132OSM    C3F14202   4.474   4.779   3.696 -0.1559  0.1081  0.1912
  132OSM    H3F14203   4.420   4.744   3.786 -0.3625  1.8934  0.8039
  132OSM    H3G14204   4.455   4.888   3.689  1.1837  0.2964 -0.9691
  132OSM    C4F14205   4.618   4.748   3.723 -0.1045  0.4468 -0.3039
  132OSM    H4F14206   4.682   4.766   3.634 -0.2762  1.9172 -0.1438
  132OSM    H4G14207   4.638   4.642   3.749  0.9971 -0.4907 -4.2461
  132OSM    C5F14208   4.681   4.835   3.830 -0.5298 -0.6097 -0.2459
  132OSM    H5F14209   4.668   4.938   3.789 -3.1542  0.2781  2.4091
  132OSM    H5G14210   4.788   4.808   3.832 -0.7100 -1.3261 -0.1126
  132OSM    C6F14211   4.621   4.824   3.979 -0.1198 -0.2164  0.3083
  132OSM    H6F14212   4.631   4.715   3.997  1.0248 -0.3754 -1.0517
  132OSM    H6G14213   4.513   4.850   3.977 -0.3626 -1.1150  0.9786
  132OSM    C7F14214   4.704   4.902   4.084 -0.2044  0.1713 -0.5703
  132OSM    H7F14215   4.707   5.010   4.057 -0.0325  0.2621 -0.1935
  132OSM    H7G14216   4.809   4.870   4.073  0.5634  1.4348  2.1858
  132OSM    C8F14217   4.654   4.872   4.229 -0.8533 -0.2778  0.2944
  132OSM    H8F14218   4.723   4.924   4.300 -0.9531 -0.1313  0.2865
  132OSM    H8G14219   4.668   4.762   4.237 -1.1568 -0.3326  0.0857
  132OSM    C9F14220   4.511   4.915   4.240  0.2034 -0.4981 -0.5272
  132OSM    H9F14221   4.464   4.951   4.148 -1.5182  0.1513  0.5693
  132OSM   C10F14222   4.437   4.927   4.356 -0.3553  0.0587  0.4967
  132OSM   H10F14223   4.331   4.956   4.346  0.0709  1.3696 -0.5460
  132OSM   C11F14224   4.480   4.890   4.490  0.3391  0.2554 -0.3896
  132OSM   H11F14225   4.568   4.822   4.486 -1.4988 -2.3422  0.4612
  132OSM   H11G14226   4.404   4.832   4.547  1.8994  0.4645  2.0451
  132OSM   C12F14227   4.517   5.007   4.592  0.6867  0.1533  0.0294
  132OSM   H12F14228   4.431   5.077   4.590 -0.1937 -0.8842  0.5539
  132OSM   H12G14229   4.609   5.058   4.557  0.6664  0.2156  0.0670
  132OSM   C13F14230   4.547   4.963   4.736  0.1560 -0.7701 -0.2566
  132OSM   H13F14231   4.625   4.884   4.724 -0.3071 -1.2779  0.0082
  132OSM   H13G14232   4.461   4.920   4.791 -0.6748  0.0797 -0.8818
  132OSM   C14F14233   4.599   5.069   4.824  0.3057  0.4323 -0.0518
  132OSM   H14F14234   4.518   5.129   4.870  0.2962  1.3556 -1.2018
  132OSM   H14G14235   4.681   5.134   4.786  2.0567 -0.8947  1.2988
  132OSM   C15F14236   4.660   5.011   4.960  0.1571  0.0280  0.5531
  132OSM   H15F14237   4.744   4.943   4.933  1.6035  2.2599 -0.8862
  132OSM   H15G14238   4.581   4.950   5.009  0.4310 -0.4597  0.3876
  132OSM   C16F14239   4.714   5.125   5.050  1.4273  0.8647  0.1661
  132OSM   H16F14240   4.630   5.194   5.070 -0.1875 -0.8644 -0.4106
  132OSM   H16G14241   4.795   5.190   5.010  1.8036  0.2974 -0.0232
  132OSM   C17F14242   4.769   5.062   5.183 -0.3388  0.3649  0.2375
  132OSM   H17F14243   4.862   5.116   5.211  0.3269 -0.5673 -0.1264
  132OSM   H17G14244   4.800   4.959   5.157  0.4544  0.2955  1.4091
  132OSM   C18F14245   4.661   5.082   5.297 -0.2978 -0.0072 -0.0849
  132OSM   H18F14246   4.641   5.190   5.314  1.9441  0.5009 -0.3178
  132OSM   H18G14247   4.704   5.038   5.390 -1.9903 -0.3843  0.5528
  132OSM   H18H14248   4.566   5.038   5.259 -0.8066 -0.1096  1.2494
  133OSM      N14249   1.945   0.439   3.217 -0.2692  0.2285  0.1657
  133OSM    C1514250   1.996   0.538   3.117  0.1859 -0.3450  0.2808
  133OSM   H15A14251   1.934   0.553   3.030  0.7438 -1.8192 -0.3910
  133OSM   H15B14252   2.093   0.500   3.087  0.4940  0.8765 -0.3551
  133OSM   H15C14253   2.026   0.634   3.157 -0.4894 -0.5516  1.3082
  133OSM    C1414254   1.925   0.314   3.145 -0.1853 -0.4953  0.2246
  133OSM   H14A14255   2.021   0.268   3.132  0.1085  0.1421  0.0700
  133OSM   H14B14256   1.878   0.333   3.049  0.9191 -0.1347 -0.2638
  133OSM   H14C14257   1.863   0.245   3.200  1.7195 -2.0164  0.5541
  133OSM    C1314258   2.050   0.424   3.323 -0.0466  0.0262  0.5160
  133OSM   H13A14259   2.156   0.410   3.303  0.7679  0.1030  4.0713
  133OSM   H13B14260   2.012   0.343   3.384 -2.5925  2.1668  1.9325
  133OSM   H13C14261   2.048   0.508   3.391  1.7295 -0.1867  0.8995
  133OSM    C1214262   1.812   0.479   3.279 -0.8526  0.3811 -0.4392
  133OSM   H12A14263   1.734   0.473   3.205 -1.0128  4.3031 -0.8467
  133OSM   H12B14264   1.824   0.584   3.304  0.9830 -0.0257  0.6050
  133OSM    C1114265   1.771   0.397   3.400 -0.0598  0.2839 -0.1771
  133OSM   H11A14266   1.672   0.428   3.439  0.0048  0.2951 -0.0250
  133OSM   H11B14267   1.845   0.408   3.482 -0.4955  0.3206  0.2096
  133OSM      P14268   1.808   0.142   3.437  0.4908 -0.0324 -0.4206
  133OSM    O1314269   1.811   0.033   3.337  0.6488 -0.2607  0.4278
  133OSM    O1414270   1.936   0.183   3.497 -0.0346  0.0158  0.1293
  133OSM    O1114271   1.698   0.103   3.543  0.9446  0.5917 -0.5063
  133OSM    O1214272   1.746   0.262   3.360 -0.6855  0.1251  0.3473
  133OSM    C1S14273   1.555   0.112   3.535  0.3458 -0.2364  0.1614
  133OSM    H1S14274   1.513   0.026   3.480 -2.0805  1.0251 -0.0677
  133OSM    H1T14275   1.527   0.203   3.479 -0.0446 -1.2460 -1.3401
  133OSM     NF14276   1.331   0.123   3.643  0.3305 -0.2278  0.1682
  133OSM    HNF14277   1.283   0.210   3.643  1.4493  0.4409  1.5769
  133OSM    C2S14278   1.481   0.121   3.668 -0.6902 -0.2466 -0.4529
  133OSM    H2S14279   1.501   0.032   3.731  1.8618  0.2520 -0.4669
  133OSM    C3S14280   1.529   0.239   3.754 -0.1443  0.3800  0.0723
  133OSM    H3S14281   1.489   0.327   3.699  0.9396  0.6484 -0.2996
  133OSM     O314282   1.666   0.271   3.766 -0.0621  0.6037 -0.2729
  133OSM    HO314283   1.718   0.222   3.702  0.2258 -0.4476  0.7441
  133OSM    C4S14284   1.448   0.247   3.892 -0.0202  0.4329  0.5300
  133OSM    H4S14285   1.462   0.153   3.949 -1.5325 -0.1813 -0.0581
  133OSM    C5S14286   1.375   0.343   3.945 -0.1335  0.0453  0.4427
  133OSM    H5S14287   1.375   0.444   3.900 -0.6112  0.3264  1.0641
  133OSM    C6S14288   1.299   0.329   4.077 -0.2358  0.2509  0.4043
  133OSM    H6S14289   1.232   0.241   4.087 -0.9272  0.9818  3.1611
  133OSM    H6T14290   1.232   0.418   4.085  0.3222  0.5557  1.8979
  133OSM    C7S14291   1.400   0.322   4.199 -0.6212 -0.0466  0.3993
  133OSM    H7S14292   1.476   0.403   4.190 -0.3181 -0.5159 -2.2175
  133OSM    H7T14293   1.440   0.220   4.184 -1.7534 -0.5642  0.8038
  133OSM    C8S14294   1.323   0.333   4.334  0.1974  0.0520 -0.0586
  133OSM    H8S14295   1.229   0.275   4.324  0.8403 -0.6464 -3.1921
  133OSM    H8T14296   1.280   0.434   4.353 -1.5873 -0.8135  0.7225
  133OSM    C9S14297   1.405   0.305   4.459 -0.3555 -0.5635  0.3577
  133OSM    H9S14298   1.483   0.384   4.458 -0.9542  0.0505 -0.7733
  133OSM    H9T14299   1.461   0.210   4.456  0.5134 -0.0553  0.0892
  133OSM   C10S14300   1.326   0.332   4.593  0.7315  0.5950 -0.1707
  133OSM   H10S14301   1.240   0.262   4.600  0.5824  0.9324  1.6852
  133OSM   H10T14302   1.280   0.434   4.597 -2.6455 -0.8122  0.0320
  133OSM   C11S14303   1.410   0.313   4.723 -0.4649 -0.4466  0.9095
  133OSM   H11S14304   1.490   0.390   4.728 -0.6732 -0.2234  0.8398
  133OSM   H11T14305   1.453   0.211   4.731 -0.0495 -0.3394  0.1088
  133OSM   C12S14306   1.319   0.330   4.848  0.5210 -0.4775  0.4390
  133OSM   H12S14307   1.230   0.265   4.841 -1.9162  2.7847 -1.9091
  133OSM   H12T14308   1.256   0.421   4.850  3.4447  1.8302 -1.9342
  133OSM   C13S14309   1.385   0.306   4.986  0.4162 -0.0657 -0.0529
  133OSM   H13S14310   1.464   0.384   4.990  1.3872 -1.0534  0.5894
  133OSM   H13T14311   1.437   0.207   4.992 -1.7432 -1.3185 -0.9482
  133OSM   C14S14312   1.282   0.330   5.099 -0.4708 -0.4308  0.0918
  133OSM   H14S14313   1.271   0.440   5.096  2.8376  0.0295  0.7442
  133OSM   H14T14314   1.332   0.312   5.197 -0.4484 -0.2870  0.1060
  133OSM   C15S14315   1.166   0.243   5.095  0.3549  0.5026 -0.0865
  133OSM   H15S14316   1.194   0.136   5.095  0.9845  0.6483 -1.1715
  133OSM   H15T14317   1.104   0.263   5.005 -1.5146  1.4683  1.3259
  133OSM   C16S14318   1.076   0.274   5.214  0.7145  0.1320 -0.0381
  133OSM   H16S14319   1.028   0.374   5.215  1.3321  0.4325 -0.2609
  133OSM   H16T14320   1.136   0.273   5.307  0.0626 -0.3093  0.3865
  133OSM   C17S14321   0.964   0.176   5.237  0.0392  0.3620  0.0357
  133OSM   H17S14322   1.000   0.072   5.226 -0.3346  0.1451  0.8046
  133OSM   H17T14323   0.882   0.190   5.163 -0.5423 -0.6205  0.4860
  133OSM   C18S14324   0.896   0.208   5.368  0.1943  0.5422 -0.7261
  133OSM   H18S14325   0.852   0.117   5.414 -0.7082 -0.2598 -3.0190
  133OSM   H18T14326   0.823   0.292   5.360 -0.4877 -0.1416 -1.9833
  133OSM   H18U14327   0.975   0.236   5.440  2.0903 -1.1721 -2.0155
  133OSM    C1F14328   1.266   0.023   3.582 -0.3257  0.2570  0.4830
  133OSM     OF14329   1.318  -0.088   3.556 -0.1228 -0.0226 -0.2856
  133OSM    C2F14330   1.127   0.049   3.562  0.5344 -0.0256 -0.4615
  133OSM    H2F14331   1.126   0.134   3.491 -0.7243 -0.2891 -0.7713
  133OSM    H2G14332   1.085   0.088   3.657 -1.0986 -1.5084 -0.5393
  133OSM    C3F14333   1.044  -0.068   3.517  0.1449  0.4235 -0.2880
  133OSM    H3F14334   1.081  -0.154   3.578  1.0132  2.4827  2.2524
  133OSM    H3G14335   1.073  -0.073   3.409 -0.3265 -0.7130 -0.3783
  133OSM    C4F14336   0.891  -0.052   3.495 -0.6017 -0.2894  0.3552
  133OSM    H4F14337   0.851  -0.127   3.425  0.4997  1.1985 -1.9876
  133OSM    H4G14338   0.885   0.043   3.439 -0.4080 -0.9822 -0.8765
  133OSM    C5F14339   0.816  -0.047   3.626 -0.0627 -0.1153 -0.0623
  133OSM    H5F14340   0.842   0.051   3.670  3.5291 -0.5557 -0.9172
  133OSM    H5G14341   0.845  -0.134   3.689 -1.7382 -0.1994  0.6389
  133OSM    C6F14342   0.661  -0.044   3.612  0.2933  0.0229  1.2576
  133OSM    H6F14343   0.636  -0.138   3.559  1.2786  1.2012 -1.4563
  133OSM    H6G14344   0.635   0.044   3.549 -0.4976  0.3933  2.0662
  133OSM    C7F14345   0.576  -0.050   3.747 -1.0159 -0.3033 -0.4753
  133OSM    H7F14346   0.470  -0.021   3.729 -0.2774  2.2463 -1.2116
  133OSM    H7G14347   0.622   0.032   3.808  0.6845 -0.1983 -1.8210
  133OSM    C8F14348   0.586  -0.185   3.822  0.1045  0.1234 -0.3568
  133OSM    H8F14349   0.687  -0.195   3.867  1.0956 -0.7307 -2.6224
  133OSM    H8G14350   0.580  -0.258   3.738 -0.3569 -0.2201 -0.0297
  133OSM    C9F14351   0.469  -0.197   3.922 -0.2648 -0.2528 -0.1199
  133OSM    H9F14352   0.369  -0.182   3.877 -0.6671  2.7386  1.4752
  133OSM   C10F14353   0.474  -0.217   4.056  0.9200 -0.0465 -0.1809
  133OSM   H10F14354   0.381  -0.206   4.113  1.2438  0.3623  0.2754
  133OSM   C11F14355   0.590  -0.245   4.143  0.1853 -0.0230  0.4222
  133OSM   H11F14356   0.683  -0.235   4.083  0.3017  1.9908  0.8520
  133OSM   H11G14357   0.586  -0.350   4.178 -0.6665 -0.3913 -0.6894
  133OSM   C12F14358   0.592  -0.149   4.267 -0.5864 -0.7744 -0.1353
  133OSM   H12F14359   0.502  -0.164   4.331  0.0175  0.1877  0.9792
  133OSM   H12G14360   0.596  -0.044   4.230 -1.5289 -0.5264  0.4142
  133OSM   C13F14361   0.697  -0.192   4.363  0.3137  0.3232  0.3332
  133OSM   H13F14362   0.787  -0.230   4.309 -0.1200 -1.4159  0.7836
  133OSM   H13G14363   0.664  -0.277   4.426 -1.5108 -0.3595 -1.4264
  133OSM   C14F14364   0.746  -0.076   4.457  0.4958 -0.6065  0.8479
  133OSM   H14F14365   0.661  -0.042   4.519 -1.1108 -3.0570  0.1099
  133OSM   H14G14366   0.793   0.001   4.392 -3.3881  0.8886 -0.4500
  133OSM   C15F14367   0.862  -0.131   4.547  0.7861 -0.0428  0.3873
  133OSM   H15F14368   0.942  -0.173   4.482  1.4314  1.2963  0.2864
  133OSM   H15G14369   0.823  -0.225   4.592 -0.0034 -0.5587 -1.2784
  133OSM   C16F14370   0.925  -0.028   4.636  1.0414  0.0322 -0.9662
  133OSM   H16F14371   0.942   0.061   4.573  1.0429 -0.1744 -1.2593
  133OSM   H16G14372   1.015  -0.071   4.685  0.1068 -1.1391 -0.1967
  133OSM   C17F14373   0.836   0.010   4.763 -0.1718 -0.0539  0.3614
  133OSM   H17F14374   0.824  -0.085   4.819  0.1197  0.4633  1.3342
  133OSM   H17G14375   0.737   0.041   4.725 -0.1249 -0.3775 -0.0271
  133OSM   C18F14376   0.886   0.120   4.857  0.8053 -0.0325 -0.3097
  133OSM   H18F14377   0.988   0.089   4.887  1.6448  0.7226 -2.2132
  133OSM   H18G14378   0.821   0.134   4.946  0.1160 -0.9449 -0.6573
  133OSM   H18H14379   0.905   0.217   4.806  1.0101 -0.9319 -2.0064
  134OSM      N14380   1.506   0.134   3.004  0.1739 -0.7643 -0.4212
  134OSM    C1514381   1.641   0.145   3.065 -0.4237  0.3340 -0.6060
  134OSM   H15A14382   1.665   0.232   3.125  0.3836 -1.6978  2.2136
  134OSM   H15B14383   1.723   0.153   2.995 -0.4080 -0.7328 -0.7178
  134OSM   H15C14384   1.661   0.054   3.120  2.4559  1.0722 -0.2895
  134OSM    C1414385   1.489   0.242   2.899  0.4907  0.1233  0.1598
  134OSM   H14A14386   1.401   0.225   2.839  0.9787  1.3072 -0.9345
  134OSM   H14B14387   1.571   0.253   2.830  0.3231  0.1181 -0.0401
  134OSM   H14C14388   1.478   0.339   2.943  1.4075  1.2067 -1.8625
  134OSM    C1314389   1.486   0.005   2.922  0.6396 -0.4280  0.2595
  134OSM   H13A14390   1.576  -0.023   2.869  0.7870 -2.3888  1.4455
  134OSM   H13B14391   1.408   0.017   2.848  0.7585  0.4895  0.2722
  134OSM   H13C14392   1.463  -0.079   2.986  0.9314 -0.3159  0.5092
  134OSM    C1214393   1.407   0.132   3.114  0.1041  0.3358  0.2763
  134OSM   H12A14394   1.425   0.044   3.174 -1.5678 -0.6812 -0.6578
  134OSM   H12B14395   1.311   0.120   3.068  1.6078 -2.9300 -2.3736
  134OSM    C1114396   1.396   0.260   3.204 -0.1677 -0.4989  0.2666
  134OSM   H11A14397   1.494   0.274   3.255  0.4415  1.4040 -1.2600
  134OSM   H11B14398   1.324   0.240   3.286  1.4334 -0.1940  1.8196
  134OSM      P14399   1.440   0.520   3.153  0.2593  0.1515 -0.4026
  134OSM    O1314400   1.572   0.525   3.078  0.0837  0.1307  0.4372
  134OSM    O1414401   1.346   0.625   3.111 -0.7208 -0.5716 -0.3621
  134OSM    O1114402   1.464   0.523   3.313 -0.3435  0.0770  0.5424
  134OSM    O1214403   1.367   0.378   3.124 -0.3503  0.0385 -0.1126
  134OSM    C1S14404   1.362   0.569   3.400 -0.2308 -0.1256 -0.1229
  134OSM    H1S14405   1.276   0.499   3.396  0.6106 -1.2619  0.7705
  134OSM    H1T14406   1.317   0.663   3.364 -1.3278 -0.0904  1.2406
  134OSM     NF14407   1.300   0.593   3.636 -0.2948  0.3345  0.5188
  134OSM    HNF14408   1.298   0.683   3.679  2.9219  0.5587  0.4657
  134OSM    C2S14409   1.416   0.582   3.548 -0.7699 -0.3925  0.4884
  134OSM    H2S14410   1.465   0.485   3.575  0.5702 -0.1649 -0.9908
  134OSM    C3S14411   1.515   0.699   3.565  0.7502 -0.5670 -1.1148
  134OSM    H3S14412   1.452   0.791   3.561  1.4127  0.2135  2.4329
  134OSM     O314413   1.592   0.717   3.453  0.1273  0.7625 -0.6109
  134OSM    HO314414   1.540   0.662   3.394  0.5017  0.0222 -0.2654
  134OSM    C4S14415   1.599   0.690   3.698 -0.3163 -0.3144  0.2392
  134OSM    H4S14416   1.544   0.703   3.793 -0.4032  0.8454  0.0407
  134OSM    C5S14417   1.719   0.635   3.715  0.5497 -0.1935  0.5227
  134OSM    H5S14418   1.767   0.567   3.642  0.4372 -1.1447  1.3057
  134OSM    C6S14419   1.788   0.613   3.851 -0.0115  1.0200  0.0108
  134OSM    H6S14420   1.873   0.684   3.860 -0.1867  1.2947 -0.4468
  134OSM    H6T14421   1.842   0.517   3.857 -0.6702  0.6027 -0.5865
  134OSM    C7S14422   1.696   0.626   3.973  1.0058 -0.2355 -0.2119
  134OSM    H7S14423   1.611   0.554   3.960  1.6604 -1.1306  0.3408
  134OSM    H7T14424   1.652   0.728   3.967 -0.2800 -0.8301 -1.6407
  134OSM    C8S14425   1.768   0.602   4.105 -0.0328 -0.1299 -0.3753
  134OSM    H8S14426   1.871   0.641   4.112 -0.2525  0.2987  0.6540
  134OSM    H8T14427   1.771   0.492   4.119  2.6696 -0.1559 -0.8167
  134OSM    C9S14428   1.701   0.662   4.231  0.9890  0.1769  0.2890
  134OSM    H9S14429   1.593   0.635   4.231  0.9480  0.1331 -2.4224
  134OSM    H9T14430   1.692   0.771   4.211  1.0353  0.3357  1.0885
  134OSM   C10S14431   1.781   0.631   4.358  0.2507 -0.2696  0.1383
  134OSM   H10S14432   1.889   0.656   4.356  0.0135  0.8218 -0.0411
  134OSM   H10T14433   1.777   0.520   4.365  1.1271 -0.5323 -2.5309
  134OSM   C11S14434   1.714   0.691   4.478  0.1225 -0.3033  0.2282
  134OSM   H11S14435   1.754   0.652   4.575 -0.6630 -1.8375 -0.0354
  134OSM   H11T14436   1.607   0.664   4.472 -0.2507  1.4056 -2.6911
  134OSM   C12S14437   1.731   0.844   4.483  0.0046 -0.4033 -0.8232
  134OSM   H12S14438   1.723   0.890   4.383 -1.8315  0.3086 -0.3854
  134OSM   H12T14439   1.822   0.882   4.536 -1.0775  0.1913  0.6865
  134OSM   C13S14440   1.602   0.900   4.557 -0.0816 -0.4057 -0.3458
  134OSM   H13S14441   1.568   0.860   4.655 -3.4652  2.1330 -0.3057
  134OSM   H13T14442   1.524   0.892   4.479 -0.1002 -0.1850 -0.3504
  134OSM   C14S14443   1.612   1.055   4.568 -0.6350  0.1067 -0.4977
  134OSM   H14S14444   1.509   1.088   4.592 -0.5360  0.0729 -0.0092
  134OSM   H14T14445   1.657   1.090   4.473  0.0783 -0.7259 -0.4811
  134OSM   C15S14446   1.710   1.106   4.675  0.4564  0.0473 -0.5728
  134OSM   H15S14447   1.719   1.217   4.675  0.1447  0.1967  3.1994
  134OSM   H15T14448   1.811   1.067   4.650  0.7515  1.2634 -1.3969
  134OSM   C16S14449   1.687   1.069   4.819  0.3330  0.9010 -0.8855
  134OSM   H16S14450   1.744   0.975   4.836  0.6115  1.2760  0.3655
  134OSM   H16T14451   1.578   1.057   4.837  0.4283  0.8342 -0.3364
  134OSM   C17S14452   1.725   1.173   4.922 -0.5955  0.3209  0.4106
  134OSM   H17S14453   1.649   1.153   5.001 -1.6640 -3.2770 -1.3096
  134OSM   H17T14454   1.713   1.280   4.894  1.8309  0.4563 -0.3012
  134OSM   C18S14455   1.866   1.155   4.980  0.1896  0.8952 -0.0052
  134OSM   H18S14456   1.886   1.250   5.035  1.2877  0.8982 -0.3918
  134OSM   H18T14457   1.944   1.162   4.901  1.0716 -0.0619  0.7524
  134OSM   H18U14458   1.889   1.061   5.034  0.9804  0.3605 -1.2289
  134OSM    C1F14459   1.212   0.490   3.654  0.3046  0.1003  0.3146
  134OSM     OF14460   1.218   0.386   3.592 -0.4198 -0.2726 -0.2154
  134OSM    C2F14461   1.099   0.506   3.753 -0.4961 -1.3801 -0.5719
  134OSM    H2F14462   1.038   0.598   3.740 -0.0568 -0.6745  1.8958
  134OSM    H2G14463   1.154   0.516   3.849 -0.0556  1.2815 -1.0343
  134OSM    C3F14464   1.013   0.385   3.768  0.5115  0.4977 -0.5854
  134OSM    H3F14465   1.081   0.296   3.765  0.9067  0.7735 -0.0814
  134OSM    H3G14466   0.947   0.374   3.680  0.1378 -1.6081 -0.0990
  134OSM    C4F14467   0.930   0.393   3.903 -0.7914  0.3712  0.0460
  134OSM    H4F14468   0.864   0.482   3.891  0.7565  1.4997 -0.4415
  134OSM    H4G14469   0.995   0.412   3.991  0.3848  0.1245 -0.7574
  134OSM    C5F14470   0.851   0.271   3.940  0.4452  0.1877  0.4169
  134OSM    H5F14471   0.771   0.248   3.867  0.0992  2.7984 -0.1422
  134OSM    H5G14472   0.804   0.287   4.039  0.7589 -1.9174  0.9446
  134OSM    C6F14473   0.947   0.157   3.956 -0.5234  0.0570  0.4668
  134OSM    H6F14474   1.008   0.198   4.039 -0.9059  2.1440 -0.2170
  134OSM    H6G14475   1.018   0.132   3.874  2.0483  0.1647  2.5527
  134OSM    C7F14476   0.868   0.038   4.015 -0.0604  0.1849  0.2554
  134OSM    H7F14477   0.778  -0.002   3.963 -0.1278 -0.0628  0.5625
  134OSM    H7G14478   0.839   0.071   4.116  1.4946 -1.7387  1.3994
  134OSM    C8F14479   0.949  -0.091   4.042  0.1055  1.1078 -0.4272
  134OSM    H8F14480   0.892  -0.176   4.085  1.5403  0.1884 -0.2889
  134OSM    H8G14481   1.022  -0.075   4.124 -0.5754 -2.6799  1.1328
  134OSM    C9F14482   1.018  -0.134   3.917 -0.9308  0.1963  0.2975
  134OSM    H9F14483   0.948  -0.185   3.849  1.5582 -2.2324 -0.5951
  134OSM   C10F14484   1.146  -0.126   3.876 -0.0366 -0.0427 -0.4468
  134OSM   H10F14485   1.178  -0.166   3.779 -1.8929  0.9128 -1.5100
  134OSM   C11F14486   1.251  -0.053   3.949  1.1953  0.6662 -0.0726
  134OSM   H11F14487   1.198  -0.013   4.039  0.6188 -0.7801  0.2653
  134OSM   H11G14488   1.294   0.028   3.886  1.5309  0.4613 -0.1071
  134OSM   C12F14489   1.349  -0.158   4.014  0.2935 -0.1320  0.0978
  134OSM   H12F14490   1.449  -0.113   4.027 -0.4446  1.5946  0.1477
  134OSM   H12G14491   1.358  -0.248   3.950  1.9351  0.2270 -0.2018
  134OSM   C13F14492   1.312  -0.189   4.163 -0.9307  0.1660  0.3783
  134OSM   H13F14493   1.365  -0.282   4.193 -1.0334  0.3744  1.2128
  134OSM   H13G14494   1.203  -0.209   4.157 -0.4249 -3.0221 -0.1955
  134OSM   C14F14495   1.338  -0.068   4.257  0.0000 -0.7706  0.1542
  134OSM   H14F14496   1.302   0.028   4.215  0.2513  1.1396  3.8545
  134OSM   H14G14497   1.445  -0.065   4.287 -0.4078 -0.1518  1.6437
  134OSM   C15F14498   1.265  -0.088   4.389  1.4058 -0.0132  0.4801
  134OSM   H15F14499   1.157  -0.112   4.381  1.4117 -0.5229  1.6470
  134OSM   H15G14500   1.260   0.001   4.456 -2.5616 -0.0754  0.4990
  134OSM   C16F14501   1.329  -0.197   4.479  1.1488 -0.5969 -0.0752
  134OSM   H16F14502   1.439  -0.185   4.488  0.9918  0.1156  1.2246
  134OSM   H16G14503   1.311  -0.293   4.427  1.4835 -1.7181  1.7660
  134OSM   C17F14504   1.262  -0.212   4.618  0.2051 -1.1339  0.2221
  134OSM   H17F14505   1.153  -0.228   4.604 -0.0884  0.3927  0.5832
  134OSM   H17G14506   1.271  -0.114   4.670 -0.8998 -0.1347 -1.3689
  134OSM   C18F14507   1.313  -0.329   4.689 -0.3850  0.4134 -0.0459
  134OSM   H18F14508   1.422  -0.309   4.702 -0.5157  1.3780 -0.4144
  134OSM   H18G14509   1.290  -0.423   4.634  1.6737  0.2088 -0.6547
  134OSM   H18H14510   1.271  -0.349   4.790  0.7701  0.6535  0.5056
  135OSM      N14511   5.172   3.110   3.283 -0.3845  0.1408 -0.2414
  135OSM    C1514512   5.292   3.015   3.252  0.0114 -0.2473  0.0585
  135OSM   H15A14513   5.383   3.065   3.224 -1.4417  2.1706 -0.6823
  135OSM   H15B14514   5.266   2.959   3.163  0.5977  0.8940 -0.8521
  135OSM   H15C14515   5.316   2.945   3.331 -2.2075 -0.0301  1.0113
  135OSM    C1414516   5.048   3.022   3.289  0.2527 -0.8155  0.7489
  135OSM   H14A14517   5.070   2.936   3.350 -1.3363 -1.2462  0.7623
  135OSM   H14B14518   5.038   2.978   3.191 -0.8874  1.9712 -0.4792
  135OSM   H14C14519   4.962   3.078   3.323  1.7894  1.3377  1.2659
  135OSM    C1314520   5.203   3.170   3.414 -0.3205 -1.0966  0.6375
  135OSM   H13A14521   5.301   3.213   3.428 -1.0898  0.0647  3.0654
  135OSM   H13B14522   5.181   3.105   3.497  0.4978 -0.3647  1.4483
  135OSM   H13C14523   5.126   3.246   3.420  0.2799 -0.3570 -0.6338
  135OSM    C1214524   5.153   3.216   3.183  0.6663 -0.1841  0.3105
  135OSM   H12A14525   5.160   3.184   3.080  3.2425 -0.3239  0.4519
  135OSM   H12B14526   5.237   3.284   3.188 -0.9360  1.9174 -0.0696
  135OSM    C1114527   5.036   3.318   3.191 -0.9391 -0.4771  0.3053
  135OSM   H11A14528   5.044   3.375   3.096 -2.4404  2.3567  1.7344
  135OSM   H11B14529   5.061   3.391   3.272  0.2328 -0.5478  0.0282
  135OSM      P14530   4.787   3.364   3.243  0.1418 -0.2731  0.1152
  135OSM    O1314531   4.795   3.471   3.140  0.0880 -0.3490  0.3046
  135OSM    O1414532   4.667   3.283   3.253  0.3435 -0.1142 -0.3958
  135OSM    O1114533   4.826   3.441   3.374 -0.2849  0.4790 -1.0232
  135OSM    O1214534   4.907   3.263   3.223 -0.5827  0.3138  0.1285
  135OSM    C1S14535   4.776   3.394   3.501  0.6826  0.5942 -0.6890
  135OSM    H1S14536   4.817   3.293   3.522 -1.3446 -0.1134  0.0990
  135OSM    H1T14537   4.668   3.370   3.501  1.3004 -2.7629  0.8215
  135OSM     NF14538   4.737   3.441   3.743  0.6986 -0.3424  0.5372
  135OSM    HNF14539   4.679   3.502   3.796 -0.4939  0.7572 -1.8836
  135OSM    C2S14540   4.798   3.497   3.622  0.6976 -0.2052  0.0996
  135OSM    H2S14541   4.908   3.513   3.635  0.4801  0.5052  1.2166
  135OSM    C3S14542   4.727   3.632   3.582 -0.3772 -0.2507 -0.6530
  135OSM    H3S14543   4.618   3.610   3.590 -0.7108  0.0038 -3.4724
  135OSM     O314544   4.730   3.675   3.442 -0.5479  0.1898  0.3296
  135OSM    HO314545   4.770   3.600   3.396  2.4701 -0.0597  3.0287
  135OSM    C4S14546   4.749   3.748   3.669 -0.1459 -0.0846 -0.0464
  135OSM    H4S14547   4.679   3.743   3.753 -0.1970 -0.0150 -0.0845
  135OSM    C5S14548   4.830   3.850   3.662 -0.1929  0.1562  0.5033
  135OSM    H5S14549   4.895   3.854   3.573 -2.0667 -1.5036 -1.0298
  135OSM    C6S14550   4.849   3.971   3.749 -0.4178  0.1307 -0.2590
  135OSM    H6S14551   4.817   4.060   3.691  0.6923 -0.5228 -1.9675
  135OSM    H6T14552   4.954   3.981   3.784 -0.8577  1.6313  0.7152
  135OSM    C7S14553   4.762   3.964   3.877  0.0015  0.2158 -0.1882
  135OSM    H7S14554   4.779   3.872   3.936 -1.3823  0.4323  0.6000
  135OSM    H7T14555   4.656   3.965   3.844 -0.1616 -0.5554  0.2885
  135OSM    C8S14556   4.782   4.076   3.986 -0.0114  0.7251 -0.1336
  135OSM    H8S14557   4.756   4.173   3.939  0.6400  1.3531  0.7806
  135OSM    H8T14558   4.886   4.085   4.025  0.0706 -1.6376  0.3804
  135OSM    C9S14559   4.701   4.045   4.110  0.5473  0.3681  0.4471
  135OSM    H9S14560   4.723   3.942   4.145 -1.2567  0.4837  2.1143
  135OSM    H9T14561   4.594   4.042   4.079 -0.2067  2.1604  2.5873
  135OSM   C10S14562   4.731   4.152   4.218  0.3065  0.0380 -0.6137
  135OSM   H10S14563   4.679   4.248   4.196 -0.1367 -0.1838 -0.5484
  135OSM   H10T14564   4.841   4.165   4.213  0.2002  0.9651 -0.7626
  135OSM   C11S14565   4.685   4.103   4.357 -0.6441  0.5166  0.0101
  135OSM   H11S14566   4.720   3.997   4.364 -1.0764  0.4664  2.5239
  135OSM   H11T14567   4.576   4.082   4.360 -0.7910  0.9851 -1.3596
  135OSM   C12S14568   4.755   4.190   4.464  0.9086  0.0786 -0.4642
  135OSM   H12S14569   4.705   4.289   4.470 -1.4799 -1.0754  0.2674
  135OSM   H12T14570   4.860   4.216   4.440  1.1781 -1.1395 -0.6585
  135OSM   C13S14571   4.738   4.131   4.605 -0.1759 -0.3397 -0.3468
  135OSM   H13S14572   4.749   4.226   4.662 -1.0045  1.0244 -2.3035
  135OSM   H13T14573   4.825   4.064   4.620 -1.7072 -2.2494  0.4410
  135OSM   C14S14574   4.610   4.060   4.641  0.2762  0.5472 -0.1809
  135OSM   H14S14575   4.593   3.978   4.568  4.5625 -2.2728  1.5334
  135OSM   H14T14576   4.526   4.132   4.637  0.6990  0.9998 -0.8700
  135OSM   C15S14577   4.616   3.995   4.777 -0.3067 -0.4632 -1.1577
  135OSM   H15S14578   4.672   4.059   4.848 -1.9915  1.8494 -1.8121
  135OSM   H15T14579   4.665   3.895   4.766 -2.1602 -1.3350 -2.0398
  135OSM   C16S14580   4.483   3.966   4.836  0.2514  0.1222  0.4017
  135OSM   H16S14581   4.428   3.920   4.751  1.2380 -0.7422  0.2164
  135OSM   H16T14582   4.429   4.058   4.869 -2.8329 -1.0178 -1.0013
  135OSM   C17S14583   4.486   3.872   4.957  0.0751  0.1030  0.0971
  135OSM   H17S14584   4.561   3.903   5.034 -1.1720 -1.8873  2.2502
  135OSM   H17T14585   4.523   3.775   4.919  1.6005  1.5419 -2.3445
  135OSM   C18S14586   4.352   3.873   5.023 -0.1767 -0.4118 -0.1933
  135OSM   H18S14587   4.334   3.975   5.063 -2.5449 -0.3273 -1.3118
  135OSM   H18T14588   4.344   3.791   5.098  0.8049 -2.1868 -1.9478
  135OSM   H18U14589   4.278   3.858   4.942 -2.0987 -0.1164  1.4170
  135OSM    C1F14590   4.802   3.338   3.799  0.1887 -0.3004 -0.6828
  135OSM     OF14591   4.910   3.300   3.757 -0.7909 -1.0480 -0.1201
  135OSM    C2F14592   4.745   3.286   3.927 -0.0084  1.3577  0.0156
  135OSM    H2F14593   4.711   3.181   3.908  0.6381  0.8351  1.5860
  135OSM    H2G14594   4.657   3.346   3.959 -0.1787  1.4513 -0.6065
  135OSM    C3F14595   4.856   3.262   4.037 -0.2522 -0.4969 -0.0497
  135OSM    H3F14596   4.902   3.362   4.053  0.2329 -0.5799 -0.8957
  135OSM    H3G14597   4.939   3.192   4.015 -0.8765 -1.3881  0.3616
  135OSM    C4F14598   4.787   3.204   4.164 -0.3782 -0.1665 -0.4275
  135OSM    H4F14599   4.751   3.102   4.138 -2.4443  0.8581 -1.7498
  135OSM    H4G14600   4.705   3.272   4.195  0.2447  1.6141 -2.4736
  135OSM    C5F14601   4.882   3.211   4.283  0.1008 -0.0584  0.0465
  135OSM    H5F14602   4.921   3.314   4.298  0.5212  0.0467 -1.5361
  135OSM    H5G14603   4.975   3.152   4.263  0.3295  0.1751  0.4122
  135OSM    C6F14604   4.822   3.167   4.418 -0.5010 -0.0023  0.0749
  135OSM    H6F14605   4.805   3.057   4.421  1.6834 -0.4528 -1.4820
  135OSM    H6G14606   4.717   3.203   4.424 -0.8773 -0.7866 -1.2695
  135OSM    C7F14607   4.910   3.211   4.537  0.0556 -0.0243 -0.5459
  135OSM    H7F14608   4.924   3.320   4.552  2.2971 -0.1642 -1.2698
  135OSM    H7G14609   5.011   3.171   4.514 -0.5796 -1.6156 -0.7217
  135OSM    C8F14610   4.874   3.151   4.668 -0.7405  0.9398  0.0221
  135OSM    H8F14611   4.963   3.169   4.732  1.8913 -2.2414 -2.3727
  135OSM    H8G14612   4.879   3.040   4.674 -1.2153  0.9829  2.3497
  135OSM    C9F14613   4.745   3.212   4.730  0.0196 -0.3637 -0.5722
  135OSM    H9F14614   4.745   3.321   4.716 -0.6106 -0.4375 -1.1827
  135OSM   C10F14615   4.640   3.151   4.789 -0.6828  0.7862 -0.7784
  135OSM   H10F14616   4.557   3.210   4.829 -0.6602  0.7344 -0.6547
  135OSM   C11F14617   4.609   3.011   4.825 -0.9016 -0.2630 -0.4474
  135OSM   H11F14618   4.701   2.950   4.840  0.6339  1.1785 -3.0911
  135OSM   H11G14619   4.555   2.967   4.738 -0.4579 -2.1967  0.2032
  135OSM   C12F14620   4.512   2.993   4.938 -0.5026 -0.0710  0.4977
  135OSM   H12F14621   4.465   2.893   4.922 -0.8898  0.1495  0.2422
  135OSM   H12G14622   4.431   3.068   4.925  0.8731  1.5026  0.6774
  135OSM   C13F14623   4.587   3.016   5.064 -0.2534 -0.3554 -0.6271
  135OSM   H13F14624   4.611   3.123   5.080  1.8486 -1.1034  2.0018
  135OSM   H13G14625   4.687   2.966   5.069  0.7978  1.6137 -1.1259
  135OSM   C14F14626   4.520   2.974   5.190  0.4499 -0.1009 -0.2797
  135OSM   H14F14627   4.519   2.863   5.202 -0.2734 -0.1575 -0.8134
  135OSM   H14G14628   4.415   3.010   5.185  0.7533  0.7142 -1.1140
  135OSM   C15F14629   4.592   3.025   5.315 -0.2775  0.0738 -0.2700
  135OSM   H15F14630   4.591   3.136   5.313 -0.7053  0.1342  1.5637
  135OSM   H15G14631   4.699   2.999   5.317 -0.2867 -0.0103  2.9072
  135OSM   C16F14632   4.526   2.976   5.442  0.2941 -0.5830  0.1405
  135OSM   H16F14633   4.508   2.867   5.438  1.0092 -0.6764 -1.1815
  135OSM   H16G14634   4.421   3.013   5.444 -0.1514 -1.8290  0.3243
  135OSM   C17F14635   4.611   3.016   5.574  0.0542 -0.2174 -0.0098
  135OSM   H17F14636   4.672   3.105   5.549 -0.2152 -0.4044 -1.4043
  135OSM   H17G14637   4.680   2.935   5.606  0.3070 -0.3700 -0.9299
  135OSM   C18F14638   4.516   3.051   5.687  0.0710 -0.5550 -0.1493
  135OSM   H18F14639   4.444   3.130   5.656  0.7057  0.3503  0.6315
  135OSM   H18G14640   4.571   3.088   5.777  0.0941 -0.8077 -0.0584
  135OSM   H18H14641   4.444   2.970   5.713  1.4729 -1.7074  0.2637
  136OSM      N14642   5.431   1.641   3.086  0.3059 -0.1766  0.2721
  136OSM    C1514643   5.548   1.545   3.105 -0.3258  0.2941 -0.8946
  136OSM   H15A14644   5.632   1.584   3.160 -0.8772 -0.3565  0.4698
  136OSM   H15B14645   5.575   1.508   3.007  0.2325  1.8757 -1.3608
  136OSM   H15C14646   5.508   1.461   3.160 -1.9512  1.5230 -0.1187
  136OSM    C1414647   5.466   1.763   3.016  0.5734 -0.5153  0.1999
  136OSM   H14A14648   5.527   1.829   3.076  0.2960 -1.4242  1.5510
  136OSM   H14B14649   5.375   1.817   2.995  1.0457  0.7908  1.3593
  136OSM   H14C14650   5.514   1.757   2.920  0.4312 -0.1483  0.1057
  136OSM    C1314651   5.336   1.566   3.003  1.0963 -1.2102  0.2600
  136OSM   H13A14652   5.351   1.573   2.896  0.6257 -1.4625  0.1799
  136OSM   H13B14653   5.233   1.595   3.013  1.3344  0.6778 -1.8948
  136OSM   H13C14654   5.331   1.461   3.028  0.3833 -0.6685  2.6850
  136OSM    C1214655   5.372   1.674   3.228 -0.2174  0.0652 -0.6743
  136OSM   H12A14656   5.336   1.580   3.269  3.7487 -1.3172  0.0977
  136OSM   H12B14657   5.286   1.739   3.217 -1.5951 -1.5348  0.0806
  136OSM    C1114658   5.469   1.727   3.337 -0.4263  0.1180 -0.6734
  136OSM   H11A14659   5.548   1.650   3.349 -0.3931  0.0354 -1.3683
  136OSM   H11B14660   5.413   1.729   3.433  2.0300 -0.4817  0.8654
  136OSM      P14661   5.431   1.982   3.314  0.0508 -0.2290  0.0018
  136OSM    O1314662   5.492   2.090   3.221  0.1769  0.5175  0.2620
  136OSM    O1414663   5.289   1.942   3.290 -0.0797 -0.3510 -0.0369
  136OSM    O1114664   5.447   2.020   3.470  0.1643 -0.3211 -0.3227
  136OSM    O1214665   5.524   1.851   3.295 -0.7390 -0.2688 -0.1184
  136OSM    C1S14666   5.581   2.050   3.519 -0.1611  0.2384 -0.1664
  136OSM    H1S14667   5.613   2.150   3.481  0.0758  0.6672  1.1019
  136OSM    H1T14668   5.661   1.981   3.487  1.4182  1.2016  1.4751
  136OSM     NF14669   5.684   2.174   3.712  0.2605  0.0850  0.3165
  136OSM    HNF14670   5.777   2.145   3.733  0.0501 -0.0860  1.0653
  136OSM    C2S14671   5.591   2.062   3.678  0.0525  0.4105  0.5934
  136OSM    H2S14672   5.493   2.106   3.707 -0.5053 -0.0849 -0.4981
  136OSM    C3S14673   5.587   1.924   3.742  0.3128  0.6943  0.3475
  136OSM    H3S14674   5.686   1.879   3.722  0.3625  0.4932  1.0253
  136OSM     O314675   5.494   1.828   3.678  0.0530 -0.3407  0.2736
  136OSM    HO314676   5.493   1.861   3.588  0.3652  0.3696  0.5195
  136OSM    C4S14677   5.570   1.937   3.889  0.4987  0.2066  0.5138
  136OSM    H4S14678   5.667   1.928   3.940  1.4121  1.0635 -1.0100
  136OSM    C5S14679   5.456   1.982   3.953 -0.1672 -0.5183 -0.0483
  136OSM    H5S14680   5.364   2.017   3.902 -1.8741 -1.5800  2.1549
  136OSM    C6S14681   5.467   2.021   4.101  0.7219  1.0717  0.3951
  136OSM    H6S14682   5.547   1.960   4.147  0.5908  0.4370 -0.2035
  136OSM    H6T14683   5.372   2.010   4.158  0.4758  0.2180 -0.1676
  136OSM    C7S14684   5.510   2.166   4.114 -0.2051  0.8865 -0.4907
  136OSM    H7S14685   5.427   2.230   4.078 -1.7408 -0.8135 -0.1209
  136OSM    H7T14686   5.604   2.183   4.058  0.4888 -0.5616  0.1761
  136OSM    C8S14687   5.536   2.207   4.259 -0.1296 -0.1221  0.9486
  136OSM    H8S14688   5.528   2.317   4.260  1.6108  0.0352  1.5383
  136OSM    H8T14689   5.635   2.165   4.289  0.0176 -0.2319  0.3278
  136OSM    C9S14690   5.438   2.150   4.358 -0.4226  0.2869  0.2019
  136OSM    H9S14691   5.451   2.040   4.369  2.1727  0.6746  1.9235
  136OSM    H9T14692   5.338   2.171   4.315 -1.1767 -0.2379  1.6090
  136OSM   C10S14693   5.449   2.214   4.500 -0.7826  0.1895  0.2760
  136OSM   H10S14694   5.368   2.290   4.502  2.2280  3.6491  1.2650
  136OSM   H10T14695   5.551   2.258   4.503 -0.2866 -0.7560 -1.1877
  136OSM   C11S14696   5.428   2.098   4.599  1.2401 -0.1917  0.6114
  136OSM   H11S14697   5.504   2.019   4.587  0.4876 -0.8062 -0.2792
  136OSM   H11T14698   5.336   2.043   4.570  0.9561 -0.0714  1.2582
  136OSM   C12S14699   5.427   2.150   4.744 -0.6659  0.0768  0.0838
  136OSM   H12S14700   5.509   2.223   4.765  1.4285 -1.6749 -1.4829
  136OSM   H12T14701   5.449   2.058   4.803  0.8895  0.6037  0.3692
  136OSM   C13S14702   5.296   2.215   4.783 -0.0385  0.0728  0.2474
  136OSM   H13S14703   5.209   2.163   4.737 -0.5948 -0.3936  1.7552
  136OSM   H13T14704   5.291   2.317   4.739  0.9528 -0.0507 -0.1661
  136OSM   C14S14705   5.261   2.216   4.932 -0.3439  0.3814 -0.2720
  136OSM   H14S14706   5.265   2.116   4.981  0.1063 -0.0963 -1.2530
  136OSM   H14T14707   5.155   2.247   4.944 -0.1753  2.7381 -3.6945
  136OSM   C15S14708   5.362   2.307   5.016 -0.5339 -1.0449  0.2327
  136OSM   H15S14709   5.357   2.402   4.958 -1.0942 -0.8708  0.5510
  136OSM   H15T14710   5.469   2.278   5.020 -0.3394 -0.2495  1.4042
  136OSM   C16S14711   5.323   2.347   5.164 -0.5622  0.3104  0.0375
  136OSM   H16S14712   5.349   2.254   5.220  1.6259  1.1925  0.5810
  136OSM   H16T14713   5.213   2.366   5.168 -0.4124  1.7665 -1.6377
  136OSM   C17S14714   5.393   2.463   5.238 -0.5839 -0.2056  0.5438
  136OSM   H17S14715   5.503   2.448   5.241 -0.7163 -1.6755 -0.7448
  136OSM   H17T14716   5.361   2.468   5.345  0.3285  0.6498  0.7914
  136OSM   C18S14717   5.362   2.594   5.170 -0.2751 -0.2213  0.1525
  136OSM   H18S14718   5.252   2.588   5.159 -0.4136 -2.0938  1.9404
  136OSM   H18T14719   5.415   2.603   5.072  1.1171 -2.1633  0.6679
  136OSM   H18U14720   5.391   2.672   5.244  0.7685 -0.1527 -0.3076
  136OSM    C1F14721   5.653   2.300   3.686  0.2124 -0.2553 -0.0943
  136OSM     OF14722   5.536   2.322   3.652  0.0491 -0.2887 -0.5291
  136OSM    C2F14723   5.750   2.414   3.699  0.6793 -0.2305  0.2463
  136OSM    H2F14724   5.722   2.490   3.622  0.2337  1.0114  1.5981
  136OSM    H2G14725   5.853   2.385   3.671 -0.1571 -2.0422 -1.1619
  136OSM    C3F14726   5.761   2.463   3.840  0.0239 -0.0445 -0.2140
  136OSM    H3F14727   5.844   2.537   3.845 -0.5843  0.5776  2.1796
  136OSM    H3G14728   5.804   2.380   3.900  1.1654  0.3684 -0.4140
  136OSM    C4F14729   5.639   2.521   3.906  0.1865 -0.2922  0.2627
  136OSM    H4F14730   5.578   2.434   3.940 -0.4111  0.3412  0.8323
  136OSM    H4G14731   5.587   2.581   3.828 -1.7894 -0.5325  1.3229
  136OSM    C5F14732   5.671   2.613   4.029  0.2017  0.4364  0.4813
  136OSM    H5F14733   5.574   2.667   4.038 -0.8467 -1.1136 -0.8306
  136OSM    H5G14734   5.751   2.684   4.001  1.5637 -1.4418 -0.6491
  136OSM    C6F14735   5.707   2.546   4.163 -0.2878  0.4478  0.3271
  136OSM    H6F14736   5.797   2.483   4.151  0.0660  1.3545 -2.4473
  136OSM    H6G14737   5.624   2.477   4.186  0.4315 -0.2768  0.8163
  136OSM    C7F14738   5.746   2.653   4.281  0.1697 -0.7038  0.3587
  136OSM    H7F14739   5.658   2.720   4.293 -0.4059 -1.5299  0.8715
  136OSM    H7G14740   5.834   2.709   4.244 -0.0278 -0.6859 -0.0912
  136OSM    C8F14741   5.786   2.594   4.412 -0.4485  0.1809 -0.5284
  136OSM    H8F14742   5.815   2.685   4.469  0.6505 -0.0244 -0.7449
  136OSM    H8G14743   5.879   2.542   4.382 -0.6354  1.0498 -2.9311
  136OSM    C9F14744   5.699   2.506   4.503  0.6623  0.4910 -0.1042
  136OSM    H9F14745   5.697   2.396   4.491 -1.1857  0.4811 -0.0275
  136OSM   C10F14746   5.626   2.547   4.608  0.0980  0.2235 -0.6691
  136OSM   H10F14747   5.565   2.473   4.661 -0.9183  2.8221  2.0447
  136OSM   C11F14748   5.612   2.689   4.657 -0.6585  0.7018 -1.1959
  136OSM   H11F14749   5.515   2.736   4.633 -1.7189 -0.9125 -0.2661
  136OSM   H11G14750   5.689   2.750   4.606  1.2320 -2.0607 -1.8909
  136OSM   C12F14751   5.621   2.708   4.813 -0.1496  0.7438  0.0571
  136OSM   H12F14752   5.717   2.673   4.856 -0.3175  0.4106  0.1728
  136OSM   H12G14753   5.540   2.640   4.849  0.7587 -0.2262  0.3146
  136OSM   C13F14754   5.583   2.850   4.845 -0.2832 -0.3671 -0.2604
  136OSM   H13F14755   5.480   2.875   4.813 -0.3779 -1.7844 -1.1177
  136OSM   H13G14756   5.644   2.916   4.779 -0.8834  0.8736  0.3771
  136OSM   C14F14757   5.628   2.890   4.985 -0.2038 -0.1192  0.1228
  136OSM   H14F14758   5.733   2.867   5.011  0.8556  1.1204 -2.6336
  136OSM   H14G14759   5.576   2.824   5.058  0.1297  0.0232  0.4921
  136OSM   C15F14760   5.598   3.042   5.018 -0.6506  0.3582 -0.0625
  136OSM   H15F14761   5.509   3.079   4.962  0.4325  1.6757 -0.9935
  136OSM   H15G14762   5.677   3.110   4.980 -1.8554  1.5924 -0.4444
  136OSM   C16F14763   5.583   3.067   5.167  0.5980 -0.4951  0.5554
  136OSM   H16F14764   5.664   3.027   5.232  1.6179  1.5811  0.6507
  136OSM   H16G14765   5.492   3.014   5.201  0.4803 -1.1313 -0.7156
  136OSM   C17F14766   5.549   3.216   5.192  0.5642  0.5700 -0.2825
  136OSM   H17F14767   5.481   3.254   5.113 -0.0725 -0.1483 -0.0899
  136OSM   H17G14768   5.646   3.272   5.191  0.6786  0.3770 -1.6885
  136OSM   C18F14769   5.484   3.239   5.325 -0.1483 -0.2151 -0.1181
  136OSM   H18F14770   5.376   3.217   5.328  0.0216 -0.9619  1.6265
  136OSM   H18G14771   5.489   3.346   5.355 -0.4389 -0.4330  0.7207
  136OSM   H18H14772   5.538   3.181   5.403  0.0410 -1.1490 -0.9319
  137OSM      N14773   6.615   4.898   2.843  0.2114  0.1822 -0.0909
  137OSM    C1514774   6.713   4.805   2.783 -0.7637  0.4067  0.3912
  137OSM   H15A14775   6.685   4.775   2.683  1.5588  0.6726 -0.4031
  137OSM   H15B14776   6.729   4.718   2.845 -1.5702 -0.1271 -0.1254
  137OSM   H15C14777   6.804   4.862   2.774 -1.1206  1.0185  0.6206
  137OSM    C1414778   6.487   4.824   2.836  0.2331 -0.1725  0.3448
  137OSM   H14A14779   6.497   4.725   2.877 -0.6444  0.2585  1.6410
  137OSM   H14B14780   6.455   4.817   2.732  2.4342 -0.7669 -0.3398
  137OSM   H14C14781   6.417   4.872   2.902  2.4844  1.4825  1.6207
  137OSM    C1314782   6.639   4.927   2.983 -0.3127 -0.0894 -0.2172
  137OSM   H13A14783   6.552   4.983   3.013  0.5814  2.4161 -1.9660
  137OSM   H13B14784   6.731   4.981   3.002  1.0001 -1.8999 -1.0997
  137OSM   H13C14785   6.637   4.835   3.040  0.9045 -0.7603 -1.1900
  137OSM    C1214786   6.609   5.025   2.759  0.6787 -0.4318  0.5673
  137OSM   H12A14787   6.594   5.004   2.654  0.7368  1.4271  0.1591
  137OSM   H12B14788   6.705   5.074   2.764  0.0649  0.8645  0.1468
  137OSM    C1114789   6.509   5.136   2.785  0.0724  0.6601  0.2563
  137OSM   H11A14790   6.525   5.225   2.722  0.9956 -0.9703 -1.9446
  137OSM   H11B14791   6.535   5.153   2.892  0.3700 -0.3694  0.3633
  137OSM      P14792   6.243   5.157   2.811  0.6206  0.2402  0.3642
  137OSM    O1314793   6.270   5.291   2.770 -0.0968  0.1152  0.0750
  137OSM    O1414794   6.130   5.086   2.747  0.6972  0.0742 -0.7137
  137OSM    O1114795   6.224   5.149   2.965 -0.1844 -0.2990 -0.2967
  137OSM    O1214796   6.379   5.082   2.783 -0.1347  0.7756  0.4352
  137OSM    C1S14797   6.249   5.023   3.017 -0.0336 -0.2817 -0.3136
  137OSM    H1S14798   6.358   5.002   3.028 -0.8227 -3.8983  2.8267
  137OSM    H1T14799   6.206   4.942   2.954 -0.1566 -1.0257  0.6977
  137OSM     NF14800   6.193   4.895   3.221 -0.0003 -0.3962  0.3289
  137OSM    HNF14801   6.115   4.835   3.212 -1.1186  1.2178 -1.5915
  137OSM    C2S14802   6.179   5.023   3.154 -0.4479 -0.2566 -0.1670
  137OSM    H2S14803   6.229   5.107   3.208  3.2655 -2.5819  0.3516
  137OSM    C3S14804   6.026   5.060   3.143 -0.3794 -0.4362 -0.0650
  137OSM    H3S14805   5.988   4.985   3.069 -1.3213 -0.5090  0.4665
  137OSM     O314806   5.986   5.185   3.076  0.3409  0.5783 -0.1592
  137OSM    HO314807   6.069   5.212   3.036  1.1902 -0.2479  0.9798
  137OSM    C4S14808   5.951   5.035   3.270  0.4174  0.6523 -0.3907
  137OSM    H4S14809   5.984   5.089   3.360 -0.8768  1.1680 -0.2082
  137OSM    C5S14810   5.831   4.970   3.280 -0.1568  0.0164 -0.2333
  137OSM    H5S14811   5.793   4.920   3.190 -2.0184  0.6148  0.1775
  137OSM    C6S14812   5.753   4.950   3.404  0.5164 -0.6821  0.5571
  137OSM    H6S14813   5.743   4.840   3.420 -0.6786 -0.5527  0.7884
  137OSM    H6T14814   5.652   4.995   3.395  0.2738 -1.6015 -1.9178
  137OSM    C7S14815   5.820   5.004   3.531  0.2214 -0.0001 -0.5510
  137OSM    H7S14816   5.841   5.113   3.520 -0.2504  0.1842  0.3135
  137OSM    H7T14817   5.919   4.959   3.555 -0.2087 -0.3945  0.5502
  137OSM    C8S14818   5.733   4.975   3.660  0.0517 -0.1864  0.0403
  137OSM    H8S14819   5.688   4.874   3.653 -0.9688  0.2992 -0.7003
  137OSM    H8T14820   5.655   5.054   3.661  0.8103  0.5781  0.1864
  137OSM    C9S14821   5.810   4.982   3.795  0.1334 -0.1798 -0.0277
  137OSM    H9S14822   5.852   5.082   3.821  0.1966 -0.0007 -0.7886
  137OSM    H9T14823   5.885   4.900   3.781 -0.1587 -0.3956 -0.3286
  137OSM   C10S14824   5.744   4.947   3.928  0.0939 -0.2429 -0.2224
  137OSM   H10S14825   5.683   4.858   3.902 -0.2542  0.4107 -1.7321
  137OSM   H10T14826   5.687   5.037   3.960  2.0401  0.6722  0.8312
  137OSM   C11S14827   5.839   4.915   4.039  0.5327  0.1028 -0.8613
  137OSM   H11S14828   5.893   5.009   4.062 -1.8350  0.8503  2.2012
  137OSM   H11T14829   5.915   4.835   4.019 -0.3333 -1.5916  2.0950
  137OSM   C12S14830   5.778   4.894   4.180 -0.3231  0.1993 -0.2778
  137OSM   H12S14831   5.740   4.790   4.178  0.7003 -0.2118 -3.5954
  137OSM   H12T14832   5.694   4.964   4.199 -0.6101 -0.2195  0.0259
  137OSM   C13S14833   5.878   4.920   4.299  0.0511  0.3858  0.4587
  137OSM   H13S14834   5.822   4.908   4.394  0.9141  0.6561  1.0150
  137OSM   H13T14835   5.914   5.024   4.283  0.5836 -0.0102 -1.1685
  137OSM   C14S14836   6.000   4.832   4.306 -0.6262  0.3853  0.1209
  137OSM   H14S14837   6.055   4.825   4.209  0.7784  1.7843  0.7826
  137OSM   H14T14838   5.969   4.730   4.338  0.4620 -0.6023 -1.7406
  137OSM   C15S14839   6.111   4.900   4.398  0.1270 -0.0411  0.2109
  137OSM   H15S14840   6.133   4.996   4.346 -0.1945  0.7206  1.4207
  137OSM   H15T14841   6.193   4.825   4.403 -1.4888 -2.4763 -4.2724
  137OSM   C16S14842   6.065   4.927   4.544  0.0223  0.2351  0.2179
  137OSM   H16S14843   5.977   4.994   4.536 -0.5574 -0.7405 -3.2288
  137OSM   H16T14844   6.146   4.974   4.603  0.7056 -2.0779  1.2581
  137OSM   C17S14845   6.022   4.801   4.622  0.4493 -0.0011  0.7375
  137OSM   H17S14846   6.098   4.721   4.606  2.5081  1.9602  0.2135
  137OSM   H17T14847   5.925   4.757   4.590 -0.9102  2.6196  1.0095
  137OSM   C18S14848   6.027   4.824   4.768 -0.1371  0.6690 -0.1000
  137OSM   H18S14849   6.106   4.897   4.794  3.1273 -2.8666  0.7290
  137OSM   H18T14850   6.052   4.731   4.823 -0.5830  1.0669  0.7992
  137OSM   H18U14851   5.927   4.860   4.802 -0.9879 -1.2061 -0.4847
  137OSM    C1F14852   6.308   4.848   3.260  0.1568 -0.5105  0.5982
  137OSM     OF14853   6.413   4.912   3.254 -0.2308 -0.0438 -0.5287
  137OSM    C2F14854   6.301   4.704   3.317 -0.7991 -0.4648  0.1053
  137OSM    H2F14855   6.359   4.648   3.241 -1.9592 -1.7602  0.1464
  137OSM    H2G14856   6.196   4.668   3.322 -1.3464  0.7367 -1.6170
  137OSM    C3F14857   6.372   4.699   3.456  0.3916  0.3157  0.0238
  137OSM    H3F14858   6.480   4.717   3.437  0.3774 -1.0528 -1.5860
  137OSM    H3G14859   6.357   4.599   3.501 -3.0131  0.5033 -0.4405
  137OSM    C4F14860   6.313   4.807   3.550 -0.2083 -0.0072 -0.2594
  137OSM    H4F14861   6.203   4.813   3.537 -0.3503 -0.4482  0.6020
  137OSM    H4G14862   6.362   4.901   3.517 -0.4154  0.1099 -0.2352
  137OSM    C5F14863   6.345   4.772   3.697 -0.4802  0.3880 -0.5814
  137OSM    H5F14864   6.451   4.740   3.690 -0.4836  0.7641 -3.0483
  137OSM    H5G14865   6.281   4.684   3.718 -0.8076  1.0248  1.3449
  137OSM    C6F14866   6.325   4.877   3.806  0.3068 -0.2350 -0.0354
  137OSM    H6F14867   6.218   4.904   3.820  0.3684  0.1839 -0.3396
  137OSM    H6G14868   6.372   4.971   3.771 -0.1980 -0.0948 -0.3483
  137OSM    C7F14869   6.374   4.823   3.944  0.0287  0.2081  0.4787
  137OSM    H7F14870   6.483   4.806   3.931 -0.1970 -1.7112  0.8204
  137OSM    H7G14871   6.322   4.730   3.973  1.3817  0.0472  2.6690
  137OSM    C8F14872   6.350   4.922   4.054 -0.3038  0.1271 -0.2275
  137OSM    H8F14873   6.360   4.874   4.154  1.0374  0.8461  0.0178
  137OSM    H8G14874   6.246   4.960   4.053 -0.7053 -0.9501 -0.1064
  137OSM    C9F14875   6.442   5.039   4.037  0.3105  0.2151  0.4033
  137OSM    H9F14876   6.435   5.093   3.942  1.4363  0.2119  0.3005
  137OSM   C10F14877   6.539   5.085   4.121  0.2943 -0.6804  0.3261
  137OSM   H10F14878   6.581   5.179   4.083 -0.3676 -0.9391 -1.1339
  137OSM   C11F14879   6.577   5.048   4.263  0.2364  0.4640  0.2363
  137OSM   H11F14880   6.675   5.079   4.305  0.2960 -2.1039  2.2821
  137OSM   H11G14881   6.601   4.940   4.260 -0.3440  0.3441 -1.4057
  137OSM   C12F14882   6.474   5.065   4.377  0.9509  0.3493  0.3124
  137OSM   H12F14883   6.370   5.039   4.347  1.0618  1.9016 -1.6278
  137OSM   H12G14884   6.472   5.171   4.410 -2.5035  0.7490 -0.7744
  137OSM   C13F14885   6.518   4.975   4.493 -0.5019  0.5292  0.5378
  137OSM   H13F14886   6.628   4.982   4.502  0.0181 -1.0984 -2.7648
  137OSM   H13G14887   6.500   4.869   4.463 -0.3962  0.4268  0.8344
  137OSM   C14F14888   6.439   4.989   4.623  0.3616 -0.9761 -0.6035
  137OSM   H14F14889   6.349   4.926   4.616 -1.5969  1.3312  1.5014
  137OSM   H14G14890   6.394   5.091   4.627 -1.5836 -1.6724 -3.0455
  137OSM   C15F14891   6.510   4.949   4.757 -0.3034  0.0942  0.2749
  137OSM   H15F14892   6.616   4.984   4.759 -0.3581  0.5871 -2.0330
  137OSM   H15G14893   6.527   4.839   4.757  4.0972  0.5800  0.7894
  137OSM   C16F14894   6.437   5.003   4.885 -0.6109 -0.4763 -0.2790
  137OSM   H16F14895   6.333   4.964   4.894 -0.2463 -1.3326  0.3175
  137OSM   H16G14896   6.417   5.113   4.884  1.8541  0.0640 -2.4521
  137OSM   C17F14897   6.522   4.976   5.010  0.9204  0.7056 -0.2018
  137OSM   H17F14898   6.615   5.034   5.025  1.4606 -0.2563  0.2626
  137OSM   H17G14899   6.543   4.867   5.012  0.4749  0.5766 -1.5204
  137OSM   C18F14900   6.444   5.012   5.133 -0.3684  0.1469 -0.3571
  137OSM   H18F14901   6.407   5.117   5.132 -0.0328  0.2724 -1.9587
  137OSM   H18G14902   6.494   4.995   5.231 -0.1258  0.0546 -0.4974
  137OSM   H18H14903   6.350   4.954   5.145 -0.1319 -0.2533 -0.4339
  138OSM      N14904   4.083   3.905   3.177  0.2042 -0.2096  0.5028
  138OSM    C1514905   4.132   3.813   3.286  0.2560 -0.0324  1.0144
  138OSM   H15A14906   4.132   3.863   3.382  0.0639  0.2422  0.8706
  138OSM   H15B14907   4.232   3.778   3.263  0.8832  1.3126  1.5752
  138OSM   H15C14908   4.062   3.731   3.297  0.6295 -0.4055  0.6608
  138OSM    C1414909   4.157   4.031   3.190 -0.1638  0.9041  0.3852
  138OSM   H14A14910   4.263   4.019   3.177 -0.4086 -1.6135  0.0830
  138OSM   H14B14911   4.136   4.074   3.286  0.0879  0.3058  0.7156
  138OSM   H14C14912   4.147   4.107   3.114 -1.3878  1.1293  0.7460
  138OSM    C1314913   4.109   3.847   3.047 -0.5750  0.5899  0.1929
  138OSM   H13A14914   4.190   3.775   3.052  0.0085  1.2219  0.1146
  138OSM   H13B14915   4.120   3.919   2.968  0.3349 -0.1142 -0.3435
  138OSM   H13C14916   4.034   3.782   3.005  0.1578  0.2118 -0.5635
  138OSM    C1214917   3.934   3.935   3.192  0.1031 -0.2571  0.1761
  138OSM   H12A14918   3.905   3.981   3.099  1.4849  1.3193  0.4852
  138OSM   H12B14919   3.906   4.007   3.267 -0.1736 -0.4459  0.2558
  138OSM    C1114920   3.838   3.814   3.211  0.2185  0.5996  0.1690
  138OSM   H11A14921   3.732   3.847   3.218 -0.4166 -1.1753 -0.4109
  138OSM   H11B14922   3.856   3.759   3.306  0.2549 -2.8969 -1.6995
  138OSM      P14923   3.896   3.579   3.109  0.0344  0.2468 -0.0410
  138OSM    O1314924   3.777   3.493   3.096  0.0939  0.1286  0.0196
  138OSM    O1414925   4.013   3.552   3.023 -0.1744 -0.1906 -0.2582
  138OSM    O1114926   3.939   3.555   3.258  0.7688 -0.4288 -0.2300
  138OSM    O1214927   3.856   3.721   3.092  0.1906 -0.8220  0.0913
  138OSM    C1S14928   4.045   3.465   3.299  0.9158  0.4758 -0.3629
  138OSM    H1S14929   4.145   3.504   3.271  2.3072 -3.4900 -1.4386
  138OSM    H1T14930   4.028   3.366   3.253 -0.7764  1.2659 -1.5742
  138OSM     NF14931   4.137   3.334   3.473  0.5529 -0.1961 -0.0281
  138OSM    HNF14932   4.118   3.236   3.472  1.7378 -0.4681 -2.3472
  138OSM    C2S14933   4.029   3.430   3.447  0.4838 -0.1815  0.0517
  138OSM    H2S14934   4.049   3.527   3.497  0.7245  0.0581 -0.4971
  138OSM    C3S14935   3.885   3.377   3.487 -0.5131 -0.1502 -0.6836
  138OSM    H3S14936   3.868   3.280   3.435 -1.3126  0.6428 -1.9437
  138OSM     O314937   3.770   3.452   3.443 -0.3727  0.0441  0.1650
  138OSM    HO314938   3.802   3.520   3.382 -1.7014  0.2995 -0.2738
  138OSM    C4S14939   3.861   3.363   3.633 -0.2559 -0.5174 -0.7538
  138OSM    H4S14940   3.835   3.455   3.689  0.8254 -0.0403 -1.0075
  138OSM    C5S14941   3.859   3.245   3.701 -0.5511 -0.1802 -0.5625
  138OSM    H5S14942   3.889   3.152   3.652 -0.9537 -1.1545  0.9376
  138OSM    C6S14943   3.848   3.233   3.852 -0.1782  0.1985  0.6336
  138OSM    H6S14944   3.935   3.289   3.893  1.1939 -0.0127 -1.7907
  138OSM    H6T14945   3.856   3.125   3.879 -4.0153 -0.2151  0.5612
  138OSM    C7S14946   3.726   3.293   3.912  0.0587 -0.3282 -0.1775
  138OSM    H7S14947   3.635   3.236   3.881 -1.4376  0.5518  2.3071
  138OSM    H7T14948   3.713   3.399   3.881  0.9993 -0.1036  0.1931
  138OSM    C8S14949   3.726   3.297   4.065 -0.3022 -0.1846  0.2092
  138OSM    H8S14950   3.636   3.357   4.091  0.3989  1.0208 -0.1059
  138OSM    H8T14951   3.820   3.350   4.089  0.5241 -1.2086 -0.6326
  138OSM    C9S14952   3.747   3.162   4.137 -0.0365  0.8997  0.0325
  138OSM    H9S14953   3.844   3.111   4.119 -0.2519 -0.1332  1.5788
  138OSM    H9T14954   3.664   3.101   4.096 -1.4398  2.3718  0.5598
  138OSM   C10S14955   3.716   3.181   4.285  0.0478 -0.1624  0.4658
  138OSM   H10S14956   3.719   3.076   4.322 -1.3369 -1.7291 -3.3514
  138OSM   H10T14957   3.616   3.228   4.293  0.6646  1.6076 -1.2488
  138OSM   C11S14958   3.821   3.239   4.376 -0.0499 -0.3677 -0.7830
  138OSM   H11S14959   3.814   3.350   4.375  0.4686 -0.2167  2.0732
  138OSM   H11T14960   3.927   3.216   4.353  0.9566  0.7443  2.1955
  138OSM   C12S14961   3.788   3.207   4.525  0.6065 -0.5916  0.2632
  138OSM   H12S14962   3.841   3.115   4.555  1.0909 -1.2034 -2.2483
  138OSM   H12T14963   3.680   3.191   4.544  0.8394  0.7022  3.2597
  138OSM   C13S14964   3.840   3.323   4.617  0.1695  0.5807  1.2842
  138OSM   H13S14965   3.812   3.421   4.573 -1.2632 -0.3757 -0.0153
  138OSM   H13T14966   3.950   3.323   4.610  0.0754 -0.6424 -1.2121
  138OSM   C14S14967   3.786   3.317   4.755  0.3031  0.3633 -0.1646
  138OSM   H14S14968   3.810   3.214   4.791 -0.5579  0.5204  0.9319
  138OSM   H14T14969   3.676   3.329   4.758  0.0530 -1.3231 -0.9249
  138OSM   C15S14970   3.835   3.429   4.847 -0.6828  0.3125  0.0939
  138OSM   H15S14971   3.791   3.523   4.808  0.7659  1.0334  0.1202
  138OSM   H15T14972   3.945   3.439   4.836 -0.8423  1.4729 -0.6547
  138OSM   C16S14973   3.791   3.421   4.994 -0.2162 -0.0397  0.7882
  138OSM   H16S14974   3.852   3.497   5.047  2.1140 -1.1419 -0.1446
  138OSM   H16T14975   3.800   3.319   5.037  0.0346  0.2556  1.4449
  138OSM   C17S14976   3.654   3.473   5.020  0.4843 -0.6160 -0.4445
  138OSM   H17S14977   3.586   3.412   4.957 -0.3142 -0.1094 -0.0861
  138OSM   H17T14978   3.644   3.573   4.972 -0.5681 -0.6528 -0.3123
  138OSM   C18S14979   3.617   3.487   5.164 -0.2511  0.6629  1.0458
  138OSM   H18S14980   3.697   3.547   5.214 -1.2268  2.1544  0.8556
  138OSM   H18T14981   3.602   3.385   5.207  2.1339 -0.2903 -0.2193
  138OSM   H18U14982   3.527   3.550   5.180 -0.7369  0.1646  0.3029
  138OSM    C1F14983   4.267   3.370   3.483 -0.2884  0.0138 -1.1495
  138OSM     OF14984   4.299   3.490   3.484  0.6165  0.3304  0.0541
  138OSM    C2F14985   4.374   3.267   3.487  0.2807  0.8911  0.3084
  138OSM    H2F14986   4.462   3.294   3.426  1.2317 -3.6089 -0.6589
  138OSM    H2G14987   4.337   3.173   3.442 -0.0056  1.2765 -0.2625
  138OSM    C3F14988   4.428   3.251   3.634 -0.3149 -0.0133 -0.6629
  138OSM    H3F14989   4.457   3.351   3.671 -0.9176  0.0028 -0.2291
  138OSM    H3G14990   4.520   3.189   3.629  0.3842  0.8842  0.5214
  138OSM    C4F14991   4.335   3.188   3.738 -0.3298 -0.1743 -0.6168
  138OSM    H4F14992   4.304   3.087   3.703  0.6325  0.2759 -2.9688
  138OSM    H4G14993   4.241   3.247   3.735 -0.1483  0.1307 -3.2268
  138OSM    C5F14994   4.395   3.185   3.882  0.2706  0.6810  0.3332
  138OSM    H5F14995   4.448   3.279   3.908 -1.7722  1.8635  0.4431
  138OSM    H5G14996   4.467   3.100   3.878 -0.4048  0.1407 -2.6283
  138OSM    C6F14997   4.281   3.169   3.987  0.2346  0.2686 -0.3558
  138OSM    H6F14998   4.194   3.119   3.939 -0.0814  1.8694 -1.5379
  138OSM    H6G14999   4.236   3.264   4.024  0.3596  0.3241 -0.3474
  138OSM    C7F15000   4.334   3.090   4.103  0.8092 -0.4659  0.1142
  138OSM    H7F15001   4.402   3.009   4.069  0.0456 -0.5211 -1.3832
  138OSM    H7G15002   4.249   3.030   4.143  1.7672 -1.3817  0.8135
  138OSM    C8F15003   4.411   3.166   4.213  0.3952  0.4325  0.7190
  138OSM    H8F15004   4.349   3.251   4.247 -1.1801 -0.6612  0.7029
  138OSM    H8G15005   4.494   3.205   4.150  0.1533  0.3342  0.3316
  138OSM    C9F15006   4.452   3.067   4.319 -0.0131 -1.1281 -0.3756
  138OSM    H9F15007   4.530   2.995   4.292 -1.0709 -1.2884 -3.4571
  138OSM   C10F15008   4.416   3.075   4.446 -0.5131  0.0467  0.2954
  138OSM   H10F15009   4.459   3.009   4.523 -0.1639  0.3505  0.3634
  138OSM   C11F15010   4.335   3.178   4.511  0.6809 -0.0047  0.2493
  138OSM   H11F15011   4.299   3.259   4.445 -0.2835  0.1718  0.9580
  138OSM   H11G15012   4.388   3.236   4.590 -1.2115  0.3047  1.3447
  138OSM   C12F15013   4.214   3.113   4.581 -0.2546 -0.0035  0.3750
  138OSM   H12F15014   4.188   3.025   4.520 -0.0566  0.7995 -0.9042
  138OSM   H12G15015   4.128   3.183   4.577 -0.6888 -0.5689 -0.4951
  138OSM   C13F15016   4.251   3.061   4.725 -0.0468  0.3994  0.3233
  138OSM   H13F15017   4.272   3.149   4.789  1.0816 -0.1741  0.7738
  138OSM   H13G15018   4.340   2.994   4.725  0.7048  1.3830  0.2645
  138OSM   C14F15019   4.140   2.993   4.800  0.1801  0.3332  0.3890
  138OSM   H14F15020   4.105   2.900   4.751  1.9843  0.1722 -0.6821
  138OSM   H14G15021   4.057   3.067   4.807 -2.8389 -2.7258 -0.6112
  138OSM   C15F15022   4.180   2.959   4.946 -0.4244  0.1469  0.2661
  138OSM   H15F15023   4.222   3.051   4.991  0.7683 -0.0477 -0.4186
  138OSM   H15G15024   4.258   2.881   4.956  0.6109  1.2923  1.5370
  138OSM   C16F15025   4.044   2.924   5.015 -0.5165  0.3881 -0.2785
  138OSM   H16F15026   3.997   2.846   4.952 -0.2740  0.3308 -0.3896
  138OSM   H16G15027   3.971   3.007   5.002 -0.8760 -0.0518 -1.1667
  138OSM   C17F15028   4.054   2.900   5.165  0.7446  0.2291 -0.1399
  138OSM   H17F15029   3.950   2.869   5.188  0.4790  0.4450 -1.0109
  138OSM   H17G15030   4.061   2.993   5.224 -1.8321  1.8042 -2.0982
  138OSM   C18F15031   4.155   2.797   5.214 -0.5313  0.3019  0.4877
  138OSM   H18F15032   4.256   2.841   5.200 -0.0220 -0.7138  0.9297
  138OSM   H18G15033   4.161   2.706   5.152 -1.6714  0.8748 -0.5247
  138OSM   H18H15034   4.142   2.771   5.321 -0.3991 -0.1726  0.3873
  139OSM      N15035   6.493   6.580   2.810  0.3689  0.3179 -0.0984
  139OSM    C1515036   6.418   6.643   2.707 -0.4918 -0.2676  0.3943
  139OSM   H15A15037   6.490   6.665   2.630  0.2079 -2.8745  0.2185
  139OSM   H15B15038   6.364   6.728   2.747 -0.4695  0.1118 -0.3587
  139OSM   H15C15039   6.350   6.578   2.653 -1.0541  1.0126 -0.4965
  139OSM    C1415040   6.582   6.466   2.754 -0.0407 -0.4341  0.0186
  139OSM   H14A15041   6.649   6.499   2.676  2.0481 -1.1020  1.4754
  139OSM   H14B15042   6.509   6.394   2.717  0.4655 -1.6004  1.2104
  139OSM   H14C15043   6.634   6.424   2.838 -2.2872 -2.4772  0.5372
  139OSM    C1315044   6.586   6.683   2.866  0.1575 -0.1454 -0.5996
  139OSM   H13A15045   6.652   6.731   2.795 -0.7163 -0.9353 -1.9827
  139OSM   H13B15046   6.645   6.642   2.947 -0.8286 -0.5474 -0.0681
  139OSM   H13C15047   6.532   6.765   2.911  1.5018  1.5761 -1.9612
  139OSM    C1215048   6.411   6.522   2.923  0.4385 -0.3206  0.0887
  139OSM   H12A15049   6.358   6.440   2.878 -1.2190  1.1566 -0.8047
  139OSM   H12B15050   6.353   6.607   2.958  3.6124  2.2689 -0.4573
  139OSM    C1115051   6.479   6.468   3.050 -0.3544 -0.5909 -0.4739
  139OSM   H11A15052   6.401   6.452   3.127 -0.6966  0.1738 -0.6452
  139OSM   H11B15053   6.550   6.541   3.095 -0.7065 -0.4710 -0.1026
  139OSM      P15054   6.487   6.221   2.992 -0.2946 -0.1953 -0.0597
  139OSM    O1315055   6.417   6.242   2.863 -0.4558 -0.0977 -0.4149
  139OSM    O1415056   6.582   6.106   3.004  0.2769 -0.0455 -0.3305
  139OSM    O1115057   6.380   6.223   3.111 -0.1407  0.0307  0.2300
  139OSM    O1215058   6.559   6.352   3.035  0.9087 -0.3609  0.8321
  139OSM    C1S15059   6.434   6.179   3.240  0.1200  0.3539  0.6146
  139OSM    H1S15060   6.395   6.248   3.319  0.8238  0.3373  0.9812
  139OSM    H1T15061   6.544   6.182   3.253  0.5392 -0.9049 -1.9831
  139OSM     NF15062   6.451   6.008   3.428  0.1206  0.3600 -0.3423
  139OSM    HNF15063   6.521   5.939   3.443 -1.1356 -1.0978 -0.8367
  139OSM    C2S15064   6.394   6.033   3.298 -1.0764  0.2730 -0.6646
  139OSM    H2S15065   6.285   6.047   3.316 -1.2534  2.5854 -2.9447
  139OSM    C3S15066   6.407   5.916   3.188  0.8061 -0.4332 -0.5271
  139OSM    H3S15067   6.514   5.900   3.162  0.6206  0.0244 -1.6635
  139OSM     O315068   6.329   5.948   3.070  0.2313  0.4295 -0.3957
  139OSM    HO315069   6.309   6.039   3.094 -0.6165  0.2439 -0.3819
  139OSM    C4S15070   6.362   5.793   3.252  0.0498  0.3894  0.7332
  139OSM    H4S15071   6.448   5.738   3.293  0.2379 -1.0323 -1.4337
  139OSM    C5S15072   6.240   5.741   3.275  0.2590 -0.0588  0.0805
  139OSM    H5S15073   6.151   5.792   3.234 -1.6041 -2.8612  0.3481
  139OSM    C6S15074   6.204   5.614   3.349 -0.3974  0.7604 -0.0483
  139OSM    H6S15075   6.161   5.623   3.451 -2.7112 -2.1385 -0.6095
  139OSM    H6T15076   6.295   5.551   3.361  0.4162  1.6675 -1.1745
  139OSM    C7S15077   6.097   5.528   3.268 -0.1226 -0.0235  0.2028
  139OSM    H7S15078   6.114   5.426   3.309  1.0242 -0.3153 -0.9235
  139OSM    H7T15079   6.118   5.517   3.159 -1.0895  0.3966 -0.0339
  139OSM    C8S15080   5.948   5.561   3.268  0.3538  0.0349  0.5800
  139OSM    H8S15081   5.931   5.657   3.215  1.0413  0.8880  1.8667
  139OSM    H8T15082   5.925   5.574   3.376 -1.9117 -3.2811  0.6466
  139OSM    C9S15083   5.849   5.442   3.241  0.4194 -0.4726 -0.3427
  139OSM    H9S15084   5.898   5.349   3.276  2.7999  0.0825 -1.9487
  139OSM    H9T15085   5.834   5.432   3.131 -1.0383  3.2742 -0.6298
  139OSM   C10S15086   5.714   5.455   3.312  0.1091 -0.1247  0.1975
  139OSM   H10S15087   5.689   5.561   3.331 -2.7878 -0.5615 -0.6267
  139OSM   H10T15088   5.716   5.395   3.405 -0.1863  0.7050  0.7460
  139OSM   C11S15089   5.607   5.397   3.219  0.6290 -1.0504 -0.0428
  139OSM   H11S15090   5.625   5.288   3.207 -0.7293 -1.2211 -0.7991
  139OSM   H11T15091   5.615   5.441   3.117  3.1274 -0.5190  0.3280
  139OSM   C12S15092   5.462   5.398   3.272  0.0615  0.7436  0.4833
  139OSM   H12S15093   5.408   5.331   3.201  1.4064 -0.9470  1.0010
  139OSM   H12T15094   5.421   5.501   3.282 -0.6978  0.2931  2.5961
  139OSM   C13S15095   5.443   5.339   3.418  0.2721 -0.5845 -0.2133
  139OSM   H13S15096   5.437   5.426   3.487 -0.4957 -0.2724 -0.6637
  139OSM   H13T15097   5.529   5.270   3.430  1.0802  0.4495  0.0977
  139OSM   C14S15098   5.314   5.267   3.449 -0.0021  0.2679 -0.0098
  139OSM   H14S15099   5.297   5.187   3.374  0.0177  0.5212 -0.2879
  139OSM   H14T15100   5.225   5.332   3.440  0.8569  1.3461 -1.2109
  139OSM   C15S15101   5.309   5.199   3.588 -1.0830 -0.5720  0.6685
  139OSM   H15S15102   5.401   5.139   3.605 -0.3989  0.4816  0.7892
  139OSM   H15T15103   5.215   5.140   3.592 -1.4800  0.0527  0.7548
  139OSM   C16S15104   5.283   5.309   3.701 -0.2502  0.5354  0.3544
  139OSM   H16S15105   5.199   5.375   3.672  0.8611  0.9971 -2.0097
  139OSM   H16T15106   5.377   5.365   3.719  0.1048 -0.1102  0.5210
  139OSM   C17S15107   5.252   5.245   3.834  0.2401  0.3466 -0.3543
  139OSM   H17S15108   5.331   5.174   3.866 -0.7224 -0.7219 -0.3112
  139OSM   H17T15109   5.166   5.177   3.816 -0.9266  1.8558 -0.6995
  139OSM   C18S15110   5.222   5.344   3.938  0.7117 -0.3528 -0.7438
  139OSM   H18S15111   5.185   5.305   4.036  1.6038  0.5755 -0.0080
  139OSM   H18T15112   5.141   5.414   3.909 -0.8105 -1.4761  0.5749
  139OSM   H18U15113   5.311   5.408   3.956 -0.6393  1.7594 -1.1672
  139OSM    C1F15114   6.431   6.078   3.534  0.1115  0.4423  0.5689
  139OSM     OF15115   6.345   6.160   3.534 -0.3642  0.5246  0.2668
  139OSM    C2F15116   6.514   6.050   3.655  0.0086  0.3794 -0.0563
  139OSM    H2F15117   6.622   6.049   3.629  0.2893 -1.4425  0.9271
  139OSM    H2G15118   6.502   5.941   3.675  1.2065  0.1066 -0.7805
  139OSM    C3F15119   6.478   6.134   3.773 -0.0463  0.5606 -0.1450
  139OSM    H3F15120   6.370   6.145   3.795 -0.4568  1.8655 -2.4472
  139OSM    H3G15121   6.513   6.237   3.748 -0.5603  0.3607 -1.7705
  139OSM    C4F15122   6.562   6.076   3.899 -0.0664 -0.5678 -0.3633
  139OSM    H4F15123   6.666   6.056   3.867  1.3555  1.9154  2.1894
  139OSM    H4G15124   6.517   5.977   3.923 -1.4011  0.0435 -0.2341
  139OSM    C5F15125   6.560   6.174   4.018  0.5559  0.4929  0.3741
  139OSM    H5F15126   6.467   6.235   4.023  1.1263  1.4515 -0.3042
  139OSM    H5G15127   6.645   6.245   4.002  0.3819  0.4193 -0.9911
  139OSM    C6F15128   6.578   6.105   4.153  0.1020  0.1414  0.2517
  139OSM    H6F15129   6.601   6.193   4.217  0.0010  1.3064 -1.2722
  139OSM    H6G15130   6.670   6.042   4.156 -0.1765 -0.3397  3.7658
  139OSM    C7F15131   6.456   6.024   4.198  0.4654 -0.1897 -0.4904
  139OSM    H7F15132   6.426   5.945   4.126  3.6614  0.6493 -2.9872
  139OSM    H7G15133   6.372   6.097   4.197 -0.1617 -0.9035 -1.0183
  139OSM    C8F15134   6.467   5.977   4.347 -0.7700  0.2320 -0.0584
  139OSM    H8F15135   6.362   5.944   4.367 -0.0980 -1.6383  0.6227
  139OSM    H8G15136   6.477   6.069   4.408 -1.2820  1.5552 -1.8794
  139OSM    C9F15137   6.564   5.863   4.375 -0.1945 -0.1115  0.4425
  139OSM    H9F15138   6.666   5.892   4.344  0.2401 -0.4165  1.5738
  139OSM   C10F15139   6.543   5.754   4.443 -0.6214 -0.5823  0.1881
  139OSM   H10F15140   6.628   5.687   4.462  0.5853  0.8444 -0.0465
  139OSM   C11F15141   6.410   5.718   4.509  0.5542  0.4092  0.9421
  139OSM   H11F15142   6.352   5.645   4.449  0.9126  0.2635  0.7680
  139OSM   H11G15143   6.351   5.808   4.534  0.9705  2.4454 -4.1212
  139OSM   C12F15144   6.447   5.651   4.646  0.0765  0.1592  0.4086
  139OSM   H12F15145   6.532   5.582   4.629  1.1878  1.6140 -0.1621
  139OSM   H12G15146   6.357   5.591   4.670 -0.6450  0.9507 -0.2297
  139OSM   C13F15147   6.470   5.749   4.758  0.1557 -0.6438 -0.4427
  139OSM   H13F15148   6.379   5.800   4.794  1.4604  1.2456  0.3627
  139OSM   H13G15149   6.540   5.826   4.719  1.1238 -1.5295 -0.5025
  139OSM   C14F15150   6.525   5.680   4.881 -0.7366  0.2423  0.2006
  139OSM   H14F15151   6.522   5.569   4.885  1.5955  0.0794 -1.0671
  139OSM   H14G15152   6.468   5.714   4.970 -0.7039  0.7554  0.0308
  139OSM   C15F15153   6.669   5.724   4.915 -0.1936 -0.3586 -0.0306
  139OSM   H15F15154   6.667   5.831   4.945 -3.4816 -1.1203  3.1351
  139OSM   H15G15155   6.724   5.723   4.819 -0.3553 -0.0783 -0.1277
  139OSM   C16F15156   6.735   5.639   5.022 -0.7639  0.1287  0.1663
  139OSM   H16F15157   6.727   5.531   4.998 -1.6944 -0.1664  1.6554
  139OSM   H16G15158   6.694   5.651   5.124 -0.7062 -0.6510  0.2843
  139OSM   C17F15159   6.887   5.669   5.019  0.3129 -0.4331 -0.1165
  139OSM   H17F15160   6.890   5.779   5.039  0.6427 -0.4345 -0.1498
  139OSM   H17G15161   6.921   5.629   4.921  2.6454  1.5338 -0.2317
  139OSM   C18F15162   6.972   5.610   5.131 -0.5041 -0.5270  0.4683
  139OSM   H18F15163   6.948   5.505   5.160  1.2779 -0.8914  0.6956
  139OSM   H18G15164   6.947   5.659   5.227  0.4064  0.7318  0.0863
  139OSM   H18H15165   7.081   5.620   5.115 -0.5749 -0.8241 -0.2574
  140OSM      N15166   3.831   2.087   2.847  0.2298 -0.4628 -0.3104
  140OSM    C1515167   3.785   2.227   2.823 -0.4002  0.2762 -0.1634
  140OSM   H15A15168   3.688   2.238   2.870  0.4079  1.9821  1.2099
  140OSM   H15B15169   3.787   2.237   2.716 -0.1479  0.7112 -0.1195
  140OSM   H15C15170   3.865   2.283   2.869  2.1610 -1.8995 -1.6440
  140OSM    C1415171   3.733   1.998   2.774 -0.3379  0.3757  0.1680
  140OSM   H14A15172   3.640   1.997   2.829 -0.2068  2.0912  0.4742
  140OSM   H14B15173   3.771   1.899   2.756  1.5326  0.6792  2.0065
  140OSM   H14C15174   3.709   2.035   2.676 -1.6963 -2.2737 -0.5805
  140OSM    C1315175   3.970   2.066   2.788 -0.0203 -0.3230  0.0437
  140OSM   H13A15176   3.968   2.095   2.684  1.0187 -1.0114 -0.1862
  140OSM   H13B15177   4.003   1.965   2.807 -0.5207 -0.1992  1.6794
  140OSM   H13C15178   4.043   2.138   2.821 -1.6581  2.0437 -1.1475
  140OSM    C1215179   3.829   2.060   3.000 -0.6882 -0.6742 -0.1279
  140OSM   H12A15180   3.909   2.118   3.043 -1.7950  0.5180  0.3893
  140OSM   H12B15181   3.869   1.960   3.004  2.0290  0.3170 -0.7305
  140OSM    C1115182   3.696   2.070   3.087 -0.8662  0.1027 -0.2387
  140OSM   H11A15183   3.723   2.029   3.187  0.6877  0.4048 -0.5176
  140OSM   H11B15184   3.622   1.997   3.048  1.1843 -2.4868  0.4174
  140OSM      P15185   3.501   2.240   3.054 -0.1346  0.3197 -0.0153
  140OSM    O1315186   3.498   2.339   2.952 -0.2843 -0.2924 -0.0379
  140OSM    O1415187   3.408   2.123   3.042 -0.0406 -0.0567  0.0984
  140OSM    O1115188   3.458   2.311   3.188  0.3269  0.2073 -0.2496
  140OSM    O1215189   3.645   2.198   3.086  0.3490 -0.6932 -0.2350
  140OSM    C1S15190   3.537   2.410   3.259  0.0953 -0.1381  0.4803
  140OSM    H1S15191   3.533   2.511   3.212  2.2439  0.2727  1.0923
  140OSM    H1T15192   3.643   2.383   3.274 -0.2257 -0.0897  3.4789
  140OSM     NF15193   3.568   2.547   3.465 -1.0738 -0.0738  0.1090
  140OSM    HNF15194   3.639   2.529   3.533  1.4827 -0.6896 -2.5189
  140OSM    C2S15195   3.491   2.434   3.408  0.0937  0.1855  0.2234
  140OSM    H2S15196   3.384   2.462   3.422  0.6605  2.6276  0.1581
  140OSM    C3S15197   3.508   2.302   3.485  0.2433  0.0141  0.1839
  140OSM    H3S15198   3.610   2.263   3.464 -0.0350 -0.2675 -0.6729
  140OSM     O315199   3.406   2.201   3.450  0.2902 -0.7758 -0.2082
  140OSM    HO315200   3.367   2.219   3.364  0.2539  1.0687  0.1454
  140OSM    C4S15201   3.473   2.322   3.630  0.0940 -0.0579  0.0401
  140OSM    H4S15202   3.371   2.359   3.648  0.6092  0.6281  1.7317
  140OSM    C5S15203   3.559   2.306   3.732  0.2156  0.3747  0.0226
  140OSM    H5S15204   3.661   2.269   3.714  0.1007 -0.9564  1.9171
  140OSM    C6S15205   3.526   2.328   3.881 -0.1756  0.3130 -0.3771
  140OSM    H6S15206   3.499   2.225   3.914  0.5089 -0.1242 -1.1222
  140OSM    H6T15207   3.445   2.401   3.901 -1.2126 -0.5192 -1.3500
  140OSM    C7S15208   3.650   2.376   3.955  0.4569  0.3490 -0.0077
  140OSM    H7S15209   3.664   2.478   3.913  3.0779  0.3967  0.8256
  140OSM    H7T15210   3.738   2.315   3.924  0.1257  0.2564 -0.8182
  140OSM    C8S15211   3.623   2.392   4.109  0.1119 -0.1934 -0.1501
  140OSM    H8S15212   3.513   2.400   4.123 -0.0889 -1.4554 -0.8383
  140OSM    H8T15213   3.679   2.481   4.145  2.1085 -1.7155  0.7138
  140OSM    C9S15214   3.670   2.266   4.186 -0.4241  0.0079  0.0907
  140OSM    H9S15215   3.779   2.247   4.174 -0.2152  1.6192 -0.8676
  140OSM    H9T15216   3.614   2.184   4.135  0.3092 -0.6702  0.3543
  140OSM   C10S15217   3.642   2.281   4.338 -0.2442 -0.0819 -0.0042
  140OSM   H10S15218   3.540   2.319   4.359 -0.2017 -0.9854  2.0415
  140OSM   H10T15219   3.716   2.354   4.376 -0.5177 -0.1467  0.6568
  140OSM   C11S15220   3.645   2.150   4.420  0.0497 -0.1525 -0.2853
  140OSM   H11S15221   3.751   2.117   4.430  0.2798  0.7525  0.3652
  140OSM   H11T15222   3.591   2.077   4.355  0.9687 -0.9401 -0.1771
  140OSM   C12S15223   3.591   2.157   4.560 -0.3351 -0.8748  0.7290
  140OSM   H12S15224   3.547   2.056   4.574 -0.7116 -1.2369 -2.3060
  140OSM   H12T15225   3.503   2.224   4.571 -0.0268 -0.6805  2.0880
  140OSM   C13S15226   3.694   2.196   4.666 -0.0579  0.3568 -0.2539
  140OSM   H13S15227   3.742   2.290   4.632  1.1207  0.4515  1.5153
  140OSM   H13T15228   3.773   2.119   4.657  0.3503  0.9731 -2.7605
  140OSM   C14S15229   3.622   2.217   4.803  0.5426 -0.3662 -0.0812
  140OSM   H14S15230   3.565   2.124   4.825  1.8063 -0.8371  1.3568
  140OSM   H14T15231   3.542   2.294   4.811  0.1079 -0.6548 -1.4123
  140OSM   C15S15232   3.728   2.241   4.909 -0.1955  0.4015 -0.2675
  140OSM   H15S15233   3.781   2.333   4.878 -1.4730  0.3291 -2.9582
  140OSM   H15T15234   3.803   2.161   4.925 -1.2435 -0.4260  0.7796
  140OSM   C16S15235   3.673   2.253   5.052  1.4168  0.1306  0.5334
  140OSM   H16S15236   3.587   2.323   5.047  0.3810 -1.1832 -2.0728
  140OSM   H16T15237   3.751   2.289   5.122  1.2441  1.8640 -0.1260
  140OSM   C17S15238   3.617   2.119   5.099  0.2384 -0.3946  0.6079
  140OSM   H17S15239   3.706   2.052   5.098  0.5966  0.0569 -1.1898
  140OSM   H17T15240   3.546   2.082   5.022 -1.0998  1.2666  1.0006
  140OSM   C18S15241   3.543   2.135   5.235  0.2320 -0.0233  0.2075
  140OSM   H18S15242   3.481   2.044   5.251 -1.9337  1.1942 -0.8073
  140OSM   H18T15243   3.472   2.219   5.219 -1.5845 -1.8217 -1.9112
  140OSM   H18U15244   3.615   2.141   5.319  2.4664 -0.2023 -1.5960
  140OSM    C1F15245   3.557   2.671   3.417  0.7348  0.0660 -0.2548
  140OSM     OF15246   3.463   2.703   3.340  0.3776  0.3248  0.0450
  140OSM    C2F15247   3.659   2.773   3.456 -0.0076  0.4387  0.1841
  140OSM    H2F15248   3.727   2.786   3.368 -2.6022 -0.6440 -2.1359
  140OSM    H2G15249   3.725   2.732   3.536 -0.0593 -0.6861 -0.3269
  140OSM    C3F15250   3.602   2.905   3.504  0.0085  0.7123  0.0051
  140OSM    H3F15251   3.546   2.949   3.419 -0.0792 -1.3719 -1.0846
  140OSM    H3G15252   3.688   2.973   3.523 -0.0198  0.9212 -0.6148
  140OSM    C4F15253   3.524   2.916   3.636 -0.4349 -0.1919 -0.0387
  140OSM    H4F15254   3.429   2.858   3.634  0.7476 -2.1949 -0.6647
  140OSM    H4G15255   3.498   3.022   3.655  0.2600 -0.2092  1.0272
  140OSM    C5F15256   3.591   2.867   3.764  0.1007  0.0817 -0.1028
  140OSM    H5F15257   3.701   2.886   3.766  0.3299 -0.7130  3.9036
  140OSM    H5G15258   3.579   2.756   3.762  1.7309 -0.1137 -1.7460
  140OSM    C6F15259   3.524   2.928   3.885 -0.0207 -0.0553  0.9613
  140OSM    H6F15260   3.414   2.925   3.874 -0.0488 -0.2350  1.2707
  140OSM    H6G15261   3.550   3.034   3.906 -0.6907 -0.1113  2.1663
  140OSM    C7F15262   3.553   2.852   4.014  0.0973 -0.2435  0.5655
  140OSM    H7F15263   3.520   2.923   4.093 -1.6377  0.0914 -0.4164
  140OSM    H7G15264   3.664   2.843   4.016 -0.0174 -2.2811 -0.4772
  140OSM    C8F15265   3.482   2.715   4.029 -0.4118  0.3374 -0.1976
  140OSM    H8F15266   3.535   2.659   4.109  0.1654  2.1541  0.7317
  140OSM    H8G15267   3.481   2.643   3.943 -2.6466 -0.5443  0.4797
  140OSM    C9F15268   3.333   2.745   4.053  0.7125  0.9195 -0.1996
  140OSM    H9F15269   3.273   2.805   3.984  0.8820  0.5547 -0.6667
  140OSM   C10F15270   3.274   2.708   4.167  0.0314  0.4359 -0.5804
  140OSM   H10F15271   3.172   2.750   4.173 -0.8649 -1.3655 -2.1171
  140OSM   C11F15272   3.331   2.638   4.291 -0.2209 -0.8966 -0.1095
  140OSM   H11F15273   3.439   2.614   4.282 -0.1313 -0.2899 -0.7968
  140OSM   H11G15274   3.279   2.541   4.308 -2.4418 -0.4659 -3.4289
  140OSM   C12F15275   3.315   2.734   4.416 -0.1259  0.5334  0.1136
  140OSM   H12F15276   3.207   2.761   4.427  0.3594  2.1604  1.2382
  140OSM   H12G15277   3.369   2.829   4.396 -0.5542  0.4401 -1.6760
  140OSM   C13F15278   3.369   2.681   4.544  0.1783  0.0068  0.5916
  140OSM   H13F15279   3.475   2.658   4.520  0.0790  1.1856 -1.1557
  140OSM   H13G15280   3.329   2.578   4.558 -1.3165  0.4819  0.0674
  140OSM   C14F15281   3.356   2.772   4.662 -0.0327 -0.0862  0.6502
  140OSM   H14F15282   3.403   2.868   4.631  0.0245 -0.7301 -1.4160
  140OSM   H14G15283   3.411   2.730   4.749  0.6167  1.9316  1.2588
  140OSM   C15F15284   3.209   2.780   4.703 -0.4459 -0.1812 -0.1131
  140OSM   H15F15285   3.161   2.680   4.700  0.3681 -0.6319  1.0301
  140OSM   H15G15286   3.158   2.840   4.625  1.7010  0.0632 -1.4182
  140OSM   C16F15287   3.186   2.842   4.839 -0.4260 -0.6482 -0.2751
  140OSM   H16F15288   3.077   2.857   4.853 -0.7161 -1.7548 -1.1873
  140OSM   H16G15289   3.224   2.946   4.833  0.8208 -1.0648  0.0208
  140OSM   C17F15290   3.229   2.768   4.963  0.5132 -0.1997 -0.1916
  140OSM   H17F15291   3.339   2.773   4.974  0.5741 -1.5217 -0.0702
  140OSM   H17G15292   3.205   2.660   4.969  2.5836 -0.6635  0.6557
  140OSM   C18F15293   3.175   2.824   5.093 -0.5617 -0.2869 -0.5273
  140OSM   H18F15294   3.177   2.934   5.102  1.1702 -0.3406 -0.0236
  140OSM   H18G15295   3.229   2.785   5.181  1.5076  0.7150 -1.2966
  140OSM   H18H15296   3.066   2.798   5.090 -0.8544  0.9285 -0.9666
  141OSM      N15297   5.073   0.523   2.826 -0.4353  0.2462 -1.1347
  141OSM    C1515298   5.144   0.660   2.846  0.3647  0.1607 -0.8299
  141OSM   H15A15299   5.238   0.633   2.892 -0.3561 -1.3626 -0.1696
  141OSM   H15B15300   5.092   0.727   2.913  1.5738  1.3480 -1.0286
  141OSM   H15C15301   5.151   0.702   2.747 -0.4727 -0.5449 -1.2026
  141OSM    C1415302   4.938   0.535   2.776  0.1085  0.3522  0.3800
  141OSM   H14A15303   4.870   0.595   2.835  0.9202 -1.7753  3.7516
  141OSM   H14B15304   4.892   0.438   2.766  0.2673  0.4533 -1.5445
  141OSM   H14C15305   4.935   0.577   2.677  0.2338  1.1087  0.6888
  141OSM    C1315306   5.158   0.437   2.732 -0.1056 -0.7839  0.3095
  141OSM   H13A15307   5.112   0.341   2.712 -0.6413 -0.5479  0.3753
  141OSM   H13B15308   5.251   0.418   2.783 -1.5096 -0.3469  3.2114
  141OSM   H13C15309   5.178   0.498   2.645 -0.5145 -2.0845 -0.7458
  141OSM    C1215310   5.064   0.461   2.968 -0.1984 -0.2636  0.1871
  141OSM   H12A15311   5.163   0.421   2.984 -0.1758 -0.4716 -0.4473
  141OSM   H12B15312   4.995   0.378   2.968 -0.1846 -0.2842 -0.6094
  141OSM    C1115313   5.035   0.556   3.089 -0.1007 -0.0377 -0.6827
  141OSM   H11A15314   5.136   0.592   3.120  0.0954 -0.0890 -1.2613
  141OSM   H11B15315   5.014   0.491   3.177 -0.2086  0.2400 -0.5011
  141OSM      P15316   4.778   0.663   3.086  0.2206  0.4043 -0.4050
  141OSM    O1315317   4.736   0.806   3.108  0.1792  0.2827 -0.2941
  141OSM    O1415318   4.708   0.595   2.974 -0.1692 -0.2228 -0.2429
  141OSM    O1115319   4.746   0.577   3.214 -0.5332 -0.0095  0.0177
  141OSM    O1215320   4.934   0.655   3.067 -0.4270  0.2286 -0.2090
  141OSM    C1S15321   4.793   0.630   3.341 -0.0588 -0.3395  0.4706
  141OSM    H1S15322   4.739   0.724   3.366  0.1405  0.0560 -0.5602
  141OSM    H1T15323   4.903   0.636   3.345  0.1625 -3.0906  0.5411
  141OSM     NF15324   4.820   0.573   3.590 -0.3104  0.8526  0.1596
  141OSM    HNF15325   4.865   0.500   3.640 -1.1482  0.3834  0.2474
  141OSM    C2S15326   4.761   0.531   3.463  0.0001  0.2066  0.5005
  141OSM    H2S15327   4.652   0.538   3.482  0.3005 -2.0556  3.8163
  141OSM    C3S15328   4.800   0.382   3.430 -0.1399 -1.0958 -0.1009
  141OSM    H3S15329   4.909   0.373   3.454 -0.1997 -1.1228  0.1666
  141OSM     O315330   4.786   0.334   3.301  0.0846  0.0082 -0.5773
  141OSM    HO315331   4.766   0.415   3.252  0.7906  2.6325  3.0421
  141OSM    C4S15332   4.732   0.305   3.544  0.0415  0.0240 -0.1148
  141OSM    H4S15333   4.793   0.286   3.633 -1.4013 -0.9578  0.7124
  141OSM    C5S15334   4.600   0.263   3.547 -0.3509 -0.7863 -0.3700
  141OSM    H5S15335   4.540   0.279   3.456 -0.0177 -0.3248 -0.5124
  141OSM    C6S15336   4.530   0.196   3.672 -0.8722 -0.2455 -0.0172
  141OSM    H6S15337   4.499   0.092   3.652 -1.0377 -0.5643  1.7791
  141OSM    H6T15338   4.446   0.266   3.692  0.4083  2.0484 -2.0578
  141OSM    C7S15339   4.617   0.190   3.803 -0.2739  0.5161  0.5402
  141OSM    H7S15340   4.665   0.287   3.829  3.3717 -1.0437  0.1617
  141OSM    H7T15341   4.691   0.108   3.799 -2.1898 -1.4708  2.4731
  141OSM    C8S15342   4.538   0.145   3.921 -1.3514 -0.3721 -0.4588
  141OSM    H8S15343   4.470   0.065   3.884 -0.0712 -1.5283 -0.3913
  141OSM    H8T15344   4.476   0.233   3.948  0.6026  0.5608  1.2406
  141OSM    C9S15345   4.622   0.090   4.042 -0.5378 -0.3911  0.3792
  141OSM    H9S15346   4.697   0.169   4.065 -1.8416  0.8005  0.7320
  141OSM    H9T15347   4.680   0.003   4.005 -0.2456  0.3977 -1.0817
  141OSM   C10S15348   4.537   0.064   4.162 -0.0502  0.4962 -0.2174
  141OSM   H10S15349   4.457  -0.008   4.135  0.1235  0.7129 -1.3712
  141OSM   H10T15350   4.485   0.158   4.190  0.6393 -0.1082  3.6930
  141OSM   C11S15351   4.632   0.011   4.274 -0.7025 -0.9612  0.8853
  141OSM   H11S15352   4.726   0.070   4.279 -1.1263 -0.2650  0.6754
  141OSM   H11T15353   4.674  -0.089   4.251 -0.2851 -0.6293  0.1798
  141OSM   C12S15354   4.564  -0.001   4.413  0.0660  0.1827  0.6542
  141OSM   H12S15355   4.466  -0.054   4.408  0.0591  0.2228  0.3600
  141OSM   H12T15356   4.550   0.106   4.441  0.6306  0.6387 -0.7244
  141OSM   C13S15357   4.654  -0.068   4.511  0.3784 -0.0488 -0.2034
  141OSM   H13S15358   4.744  -0.004   4.522  1.5234 -1.8558  1.7487
  141OSM   H13T15359   4.688  -0.168   4.476 -2.4238 -0.8055 -0.9753
  141OSM   C14S15360   4.599  -0.079   4.655 -0.2680 -0.4408  0.0825
  141OSM   H14S15361   4.536  -0.170   4.645  0.5866 -0.8487 -2.1539
  141OSM   H14T15362   4.547   0.014   4.684  0.9116 -0.1597  1.4212
  141OSM   C15S15363   4.701  -0.111   4.762  0.0795  0.4533 -0.2447
  141OSM   H15S15364   4.789  -0.043   4.759  1.0418 -0.6553  1.3850
  141OSM   H15T15365   4.739  -0.214   4.751  0.3665  0.8034 -3.2749
  141OSM   C16S15366   4.632  -0.096   4.901  0.5371 -0.2637 -0.3916
  141OSM   H16S15367   4.691  -0.153   4.976 -1.4148 -0.4402  1.0917
  141OSM   H16T15368   4.534  -0.149   4.901  0.9253 -1.0028 -1.2146
  141OSM   C17S15369   4.615   0.048   4.954  0.0427  0.1330  0.4720
  141OSM   H17S15370   4.528   0.083   4.894  2.5574  1.2794 -2.7795
  141OSM   H17T15371   4.701   0.096   4.903 -0.1907 -0.4450 -0.5008
  141OSM   C18S15372   4.616   0.064   5.106 -0.0620 -0.1304  0.1319
  141OSM   H18S15373   4.720   0.050   5.143  0.9339  2.8343 -1.2264
  141OSM   H18T15374   4.556  -0.015   5.156  1.9765 -1.0663  1.2370
  141OSM   H18U15375   4.581   0.163   5.142  1.1392  0.9614 -1.5461
  141OSM    C1F15376   4.795   0.684   3.651 -0.7202 -0.1312 -0.0670
  141OSM     OF15377   4.704   0.760   3.621  0.8051 -0.1342 -0.0636
  141OSM    C2F15378   4.901   0.729   3.744  0.1152 -0.3820  0.7151
  141OSM    H2F15379   4.973   0.801   3.699 -0.6879  0.7067  1.1155
  141OSM    H2G15380   4.967   0.644   3.770  0.8542  0.0137  0.1752
  141OSM    C3F15381   4.851   0.811   3.859  0.2948  0.0596 -0.3128
  141OSM    H3F15382   4.809   0.906   3.820  1.8444  0.9383  0.0906
  141OSM    H3G15383   4.930   0.832   3.934 -1.7436  0.9035  1.7377
  141OSM    C4F15384   4.733   0.741   3.940  0.3983 -0.4436  0.4854
  141OSM    H4F15385   4.757   0.640   3.978 -1.4446 -1.5545 -1.0920
  141OSM    H4G15386   4.653   0.713   3.868 -0.7356 -1.8296  2.2081
  141OSM    C5F15387   4.683   0.837   4.049 -0.0728 -0.7705  0.4346
  141OSM    H5F15388   4.579   0.808   4.078  0.2174 -3.2641 -0.7374
  141OSM    H5G15389   4.672   0.938   4.004  2.9230 -0.2834  0.6101
  141OSM    C6F15390   4.770   0.834   4.172  0.6161 -0.5112 -0.3610
  141OSM    H6F15391   4.869   0.882   4.157  0.3847 -0.1839 -0.8652
  141OSM    H6G15392   4.784   0.727   4.197  0.4074 -0.7258 -1.1130
  141OSM    C7F15393   4.705   0.910   4.286 -0.2393  0.6795 -0.6493
  141OSM    H7F15394   4.643   0.840   4.346  0.3027  1.4310  0.8548
  141OSM    H7G15395   4.641   0.991   4.246 -0.2106  1.1805  0.2937
  141OSM    C8F15396   4.820   0.966   4.379  0.3333  0.6803  0.5024
  141OSM    H8F15397   4.885   1.035   4.320 -0.6484  0.0724 -1.3798
  141OSM    H8G15398   4.888   0.883   4.407 -0.8554 -0.6896 -0.5566
  141OSM    C9F15399   4.765   1.016   4.508  0.2121 -0.1951  0.3791
  141OSM    H9F15400   4.708   1.109   4.494 -0.9349 -0.7874  1.0076
  141OSM   C10F15401   4.781   0.973   4.633  0.3904  0.2517  0.1586
  141OSM   H10F15402   4.743   1.037   4.713 -0.1023  0.8380 -0.5298
  141OSM   C11F15403   4.856   0.849   4.684 -0.1825 -0.5384  0.0629
  141OSM   H11F15404   4.932   0.890   4.755 -0.1700 -0.1994 -0.1414
  141OSM   H11G15405   4.910   0.794   4.604  2.1869  0.8360  0.5938
  141OSM   C12F15406   4.769   0.742   4.760 -0.2154  0.4114 -0.0369
  141OSM   H12F15407   4.848   0.666   4.779  1.1830  1.9892  0.7302
  141OSM   H12G15408   4.690   0.704   4.692  0.2008 -2.0453  0.7440
  141OSM   C13F15409   4.714   0.790   4.897 -0.5453  0.0696  0.3782
  141OSM   H13F15410   4.622   0.848   4.870 -1.0234 -0.8214  0.0488
  141OSM   H13G15411   4.791   0.855   4.945  0.4771 -1.3635  0.7361
  141OSM   C14F15412   4.688   0.672   4.981 -0.0630 -0.1810 -0.1008
  141OSM   H14F15413   4.789   0.638   5.013  0.8967  2.0032 -0.6434
  141OSM   H14G15414   4.650   0.587   4.920  1.1138 -0.4891 -0.4188
  141OSM   C15F15415   4.603   0.675   5.106 -1.0010  0.1017  0.1957
  141OSM   H15F15416   4.503   0.709   5.071 -0.2295  1.7076 -0.5950
  141OSM   H15G15417   4.653   0.749   5.172 -0.0700  1.3158 -1.7550
  141OSM   C16F15418   4.582   0.543   5.178  0.7548 -0.2913  0.1082
  141OSM   H16F15419   4.538   0.464   5.114  1.9161 -0.7566 -0.1532
  141OSM   H16G15420   4.498   0.560   5.248  0.5026 -1.0415 -0.0095
  141OSM   C17F15421   4.703   0.491   5.249  0.3885  0.2094 -0.1262
  141OSM   H17F15422   4.794   0.502   5.188  0.1197  1.1701 -0.3810
  141OSM   H17G15423   4.689   0.384   5.277 -0.3674  0.6980  1.5276
  141OSM   C18F15424   4.722   0.572   5.380  0.0776 -0.3172  0.0753
  141OSM   H18F15425   4.629   0.608   5.429 -0.6440 -0.7593 -0.9299
  141OSM   H18G15426   4.784   0.661   5.357 -1.0964  1.0442  1.8896
  141OSM   H18H15427   4.778   0.506   5.449 -3.2319 -2.8988  0.5616
  142OSM      N15428   3.981   3.153   2.893  0.2469 -0.3237  0.2921
  142OSM    C1515429   4.108   3.160   2.818 -0.3631 -0.2101 -0.1273
  142OSM   H15A15430   4.100   3.170   2.711 -2.4695  2.9958  0.2056
  142OSM   H15B15431   4.166   3.074   2.849  4.0257  2.3241 -0.3365
  142OSM   H15C15432   4.171   3.241   2.851  0.5743 -0.2198 -1.7516
  142OSM    C1415433   3.908   3.280   2.863  0.9005 -1.1995 -0.6261
  142OSM   H14A15434   3.879   3.286   2.759  0.6789 -1.7163 -0.5984
  142OSM   H14B15435   3.973   3.365   2.875 -0.0027 -0.4858 -0.7312
  142OSM   H14C15436   3.821   3.299   2.923  1.0031  0.1887 -0.8784
  142OSM    C1315437   3.897   3.050   2.825 -0.1858  0.1743 -0.0888
  142OSM   H13A15438   3.809   3.039   2.885  1.3813  0.6203  2.4449
  142OSM   H13B15439   3.940   2.951   2.830 -0.6141  0.0004  0.0928
  142OSM   H13C15440   3.868   3.080   2.725 -0.4558 -1.4015 -0.5045
  142OSM    C1215441   3.993   3.134   3.036  0.3137  0.7625  0.4203
  142OSM   H12A15442   3.898   3.142   3.086  0.4715  3.4722  0.4482
  142OSM   H12B15443   4.045   3.220   3.077  0.9421  0.5404  0.1034
  142OSM    C1115444   4.059   3.011   3.088  0.1590  0.3409 -0.0299
  142OSM   H11A15445   4.010   2.924   3.038  1.8422 -2.3185  2.5946
  142OSM   H11B15446   4.036   3.005   3.197  0.1511 -0.4886 -0.0677
  142OSM      P15447   4.307   3.064   3.163  0.5256 -0.0140  0.1837
  142OSM    O1315448   4.438   3.018   3.115  0.1453 -0.2222  0.1350
  142OSM    O1415449   4.274   3.209   3.167  0.5044  0.6892  0.3873
  142OSM    O1115450   4.284   3.001   3.307  0.1348  0.4087  0.1675
  142OSM    O1215451   4.200   2.998   3.075  0.4028 -0.4196  0.0568
  142OSM    C1S15452   4.260   2.858   3.325  0.1782  0.0597 -0.3204
  142OSM    H1S15453   4.359   2.808   3.312 -0.6674 -1.4906 -1.0944
  142OSM    H1T15454   4.190   2.821   3.247 -2.3685 -0.2503  1.9659
  142OSM     NF15455   4.191   2.676   3.472 -0.3900 -0.3690 -0.2142
  142OSM    HNF15456   4.106   2.634   3.442  0.0991  0.1618 -2.5460
  142OSM    C2S15457   4.202   2.818   3.466  0.1306 -0.1696  0.1048
  142OSM    H2S15458   4.279   2.860   3.534 -1.7160 -0.1678  2.3219
  142OSM    C3S15459   4.071   2.899   3.503 -0.2892 -0.1845 -0.3688
  142OSM    H3S15460   4.003   2.873   3.420 -1.0931 -2.3725  0.8937
  142OSM     O315461   4.094   3.040   3.506  0.2585 -0.3504 -0.1942
  142OSM    HO315462   4.183   3.054   3.473 -0.9665  0.5015 -3.5434
  142OSM    C4S15463   4.003   2.853   3.629 -0.9557 -0.3806 -0.0648
  142OSM    H4S15464   3.965   2.752   3.614 -0.4350 -0.2953 -2.1975
  142OSM    C5S15465   4.012   2.916   3.754 -0.0863  0.3898  0.3316
  142OSM    H5S15466   4.087   2.995   3.767  0.9716 -0.5857  0.3149
  142OSM    C6S15467   3.980   2.855   3.884 -0.0508 -0.3695  0.3573
  142OSM    H6S15468   3.917   2.764   3.871 -0.2138 -0.0982 -0.9203
  142OSM    H6T15469   3.914   2.931   3.932 -0.8226 -1.4573  1.0811
  142OSM    C7S15470   4.096   2.823   3.980 -0.0588 -0.4766  0.0776
  142OSM    H7S15471   4.146   2.915   4.017 -0.2050 -0.7324  0.9382
  142OSM    H7T15472   4.176   2.768   3.927  1.0426 -0.0641  1.2546
  142OSM    C8S15473   4.044   2.757   4.107 -0.4454 -0.1293  0.0516
  142OSM    H8S15474   4.137   2.748   4.166  0.1482 -1.6118 -1.0596
  142OSM    H8T15475   4.001   2.655   4.102 -0.9322 -0.0805  2.2639
  142OSM    C9S15476   3.950   2.850   4.184 -0.0487 -0.8958 -0.8404
  142OSM    H9S15477   3.855   2.872   4.131 -0.0367  0.5983 -0.3151
  142OSM    H9T15478   3.999   2.950   4.189  2.3145 -1.9920 -1.0352
  142OSM   C10S15479   3.933   2.811   4.330  0.7674  0.1084  0.2315
  142OSM   H10S15480   3.924   2.893   4.404 -1.7081  0.0168  0.1013
  142OSM   H10T15481   4.026   2.763   4.369 -1.0736 -2.4193  1.8491
  142OSM   C11S15482   3.838   2.693   4.342  0.1351  0.3178  0.0168
  142OSM   H11S15483   3.868   2.616   4.268 -1.2409 -0.0699 -0.1634
  142OSM   H11T15484   3.734   2.716   4.311  0.1044  2.1518  1.2760
  142OSM   C12S15485   3.839   2.623   4.485  1.6714  0.3666  0.3168
  142OSM   H12S15486   3.931   2.563   4.502  0.8934 -0.4709  1.7247
  142OSM   H12T15487   3.755   2.551   4.489  0.8951  1.2484  0.1955
  142OSM   C13S15488   3.815   2.712   4.605  0.1214  0.0667 -0.1970
  142OSM   H13S15489   3.719   2.766   4.589 -1.2282 -1.8052  1.1663
  142OSM   H13T15490   3.892   2.792   4.607 -0.4937  0.6795 -0.4319
  142OSM   C14S15491   3.815   2.624   4.737  0.2938 -0.4323 -0.3966
  142OSM   H14S15492   3.917   2.606   4.778  0.3897  2.8959  1.1534
  142OSM   H14T15493   3.746   2.539   4.720  0.7448 -1.0834  0.9693
  142OSM   C15S15494   3.742   2.692   4.855  0.1544 -0.4958 -0.2888
  142OSM   H15S15495   3.652   2.747   4.819  0.0193 -1.6320 -1.8075
  142OSM   H15T15496   3.812   2.768   4.896  0.3724 -0.3623 -0.8987
  142OSM   C16S15497   3.691   2.605   4.971 -0.0858 -0.4102  0.3125
  142OSM   H16S15498   3.778   2.546   5.007  0.0421 -0.4068  0.0097
  142OSM   H16T15499   3.617   2.539   4.922  0.5410  0.2250 -1.5669
  142OSM   C17S15500   3.637   2.686   5.092 -0.0671  0.3698  0.2050
  142OSM   H17S15501   3.533   2.713   5.063 -0.2071  1.2274  1.4494
  142OSM   H17T15502   3.702   2.774   5.111  0.9240 -0.4940  0.9272
  142OSM   C18S15503   3.636   2.602   5.218  0.6528  0.0174  0.2505
  142OSM   H18S15504   3.733   2.589   5.271  0.1356 -1.0996  0.9543
  142OSM   H18T15505   3.600   2.501   5.191  2.1529 -1.3708  3.0456
  142OSM   H18U15506   3.570   2.646   5.296 -0.8073 -1.1725 -0.2680
  142OSM    C1F15507   4.295   2.597   3.466  0.0251 -0.1319 -0.3633
  142OSM     OF15508   4.408   2.640   3.481  0.2453  0.3180  0.2164
  142OSM    C2F15509   4.264   2.452   3.438  0.3138 -0.3231 -0.2929
  142OSM    H2F15510   4.357   2.394   3.453 -1.1062 -2.1209  2.2108
  142OSM    H2G15511   4.223   2.447   3.335 -0.9851  2.0700  0.0440
  142OSM    C3F15512   4.161   2.394   3.544  0.4444 -0.1080  0.7874
  142OSM    H3F15513   4.140   2.286   3.530 -0.3486 -0.6398  4.8199
  142OSM    H3G15514   4.060   2.437   3.529 -0.3980 -1.9248  0.9412
  142OSM    C4F15515   4.215   2.400   3.686 -0.2499  0.1614 -0.1557
  142OSM    H4F15516   4.236   2.503   3.722  0.2197  0.0494 -0.1064
  142OSM    H4G15517   4.317   2.360   3.700  0.5343  2.3775  0.9423
  142OSM    C5F15518   4.134   2.323   3.790 -0.1971 -0.1674  0.3432
  142OSM    H5F15519   4.135   2.214   3.769 -0.0768  0.2750 -2.2942
  142OSM    H5G15520   4.033   2.367   3.775 -1.5027 -2.9453  0.3740
  142OSM    C6F15521   4.197   2.338   3.930  0.1321  0.2663 -0.1983
  142OSM    H6F15522   4.217   2.445   3.948 -0.1977  0.4242 -0.7505
  142OSM    H6G15523   4.296   2.288   3.936  0.3157  0.4021 -1.6376
  142OSM    C7F15524   4.099   2.289   4.041 -0.2473 -0.1322 -0.0739
  142OSM    H7F15525   4.105   2.178   4.044  2.8560 -0.0475  0.1930
  142OSM    H7G15526   3.995   2.326   4.023  0.2592  0.7146 -1.4032
  142OSM    C8F15527   4.142   2.346   4.179 -0.3637 -0.2601 -0.1105
  142OSM    H8F15528   4.166   2.453   4.162 -2.3467 -0.0470 -2.1080
  142OSM    H8G15529   4.228   2.290   4.220 -0.9289  0.1876  1.7839
  142OSM    C9F15530   4.035   2.328   4.280 -0.1824 -0.9524 -0.1699
  142OSM    H9F15531   3.944   2.385   4.255  0.8407  0.9301  0.2459
  142OSM   C10F15532   4.040   2.274   4.404  0.3002 -0.4785  0.6244
  142OSM   H10F15533   3.948   2.255   4.461 -0.1406 -4.2168 -1.0182
  142OSM   C11F15534   4.162   2.207   4.458 -0.2850 -0.1132  0.9153
  142OSM   H11F15535   4.158   2.245   4.562 -3.5483 -1.1695  1.2914
  142OSM   H11G15536   4.255   2.243   4.409  0.1743 -0.5392  1.4791
  142OSM   C12F15537   4.169   2.049   4.469  0.2079 -0.5341 -0.1109
  142OSM   H12F15538   4.275   2.035   4.500  0.9360 -0.3911 -2.3164
  142OSM   H12G15539   4.160   2.007   4.366  1.0188  2.7528 -1.6697
  142OSM   C13F15540   4.079   1.986   4.579  0.3159 -0.0791 -0.8437
  142OSM   H13F15541   4.088   1.875   4.585 -0.4267 -0.1727 -1.3610
  142OSM   H13G15542   3.974   2.010   4.552 -0.5666 -1.4126  1.1191
  142OSM   C14F15543   4.095   2.039   4.721  0.1593  0.1661  0.8073
  142OSM   H14F15544   4.045   2.138   4.729  0.0326  0.0305  1.8035
  142OSM   H14G15545   4.206   2.047   4.727  0.2182 -0.7059  1.0370
  142OSM   C15F15546   4.031   1.948   4.834 -1.1916 -0.0062  0.2684
  142OSM   H15F15547   4.049   1.839   4.826 -0.2484  0.1845 -0.3284
  142OSM   H15G15548   3.920   1.948   4.824 -1.1960  0.3010  0.3149
  142OSM   C16F15549   4.070   1.997   4.976  0.0653 -0.5403 -0.5194
  142OSM   H16F15550   4.021   2.096   4.988 -0.0532 -0.7191  0.5471
  142OSM   H16G15551   4.180   2.015   4.978  0.0409 -0.3542 -0.7960
  142OSM   C17F15552   4.043   1.905   5.095  0.6133  1.0818 -0.9108
  142OSM   H17F15553   4.072   1.801   5.069  2.7451  1.6109 -0.8402
  142OSM   H17G15554   3.934   1.899   5.119  0.9098  0.7040  0.4333
  142OSM   C18F15555   4.107   1.961   5.228 -0.5412 -0.3249 -0.7168
  142OSM   H18F15556   4.043   2.044   5.266  0.5286  0.1906  0.0028
  142OSM   H18G15557   4.200   2.018   5.212  0.2693 -1.9472 -2.1792
  142OSM   H18H15558   4.111   1.884   5.308 -1.1605  0.1222 -0.2453
  143OSM      N15559   5.712   0.737   3.084 -0.0498  0.3670  0.6332
  143OSM    C1515560   5.662   0.755   2.943  0.3122 -0.3764  0.2609
  143OSM   H15A15561   5.660   0.860   2.920  0.0171 -0.0257  1.7664
  143OSM   H15B15562   5.563   0.711   2.935  1.0237 -2.2180  0.9779
  143OSM   H15C15563   5.731   0.707   2.875  0.2234 -0.0292 -0.0747
  143OSM    C1415564   5.779   0.610   3.091 -0.2849  0.4063 -0.2460
  143OSM   H14A15565   5.705   0.533   3.071  1.5080 -1.0507 -1.6387
  143OSM   H14B15566   5.811   0.581   3.190 -2.2342  2.1167  0.9806
  143OSM   H14C15567   5.856   0.592   3.018 -1.5105  2.4259 -2.1686
  143OSM    C1315568   5.807   0.852   3.114 -0.4860 -0.1655 -0.0713
  143OSM   H13A15569   5.743   0.937   3.092  1.4819  1.3864 -0.1071
  143OSM   H13B15570   5.890   0.839   3.046 -1.4408 -0.2576 -1.2549
  143OSM   H13C15571   5.838   0.853   3.218  0.1654 -0.4965 -0.2568
  143OSM    C1215572   5.598   0.737   3.186 -0.2192  0.1528 -0.4221
  143OSM   H12A15573   5.636   0.752   3.286  0.4318  0.6797 -0.7332
  143OSM   H12B15574   5.553   0.639   3.195 -0.3120  0.3840  2.4326
  143OSM    C1115575   5.484   0.832   3.157  0.5688 -0.3945  0.4256
  143OSM   H11A15576   5.422   0.838   3.249 -0.0245  0.7155 -0.0176
  143OSM   H11B15577   5.407   0.800   3.084 -0.3902  1.0003  0.7797
  143OSM      P15578   5.539   1.084   3.230 -0.1911  0.0968  0.0532
  143OSM    O1315579   5.644   1.176   3.193 -0.1155 -0.4509  0.9295
  143OSM    O1415580   5.408   1.139   3.263 -0.0528 -0.1956 -0.1867
  143OSM    O1115581   5.598   0.998   3.353  0.2388 -0.6087 -0.1581
  143OSM    O1215582   5.531   0.969   3.124  0.0587  0.1884  0.3639
  143OSM    C1S15583   5.631   1.075   3.473 -0.3266  0.6980  1.0143
  143OSM    H1S15584   5.587   1.177   3.479  1.3242  1.5749 -0.7901
  143OSM    H1T15585   5.740   1.095   3.472 -0.3746  0.9811  1.2484
  143OSM     NF15586   5.603   1.070   3.730  0.1565 -0.2571 -0.0061
  143OSM    HNF15587   5.679   1.056   3.792 -1.1886 -2.2163  1.2968
  143OSM    C2S15588   5.602   0.997   3.606  1.1634  0.3743  0.4671
  143OSM    H2S15589   5.499   0.956   3.596  0.4694  2.2597 -0.7686
  143OSM    C3S15590   5.697   0.870   3.608  0.4259 -0.3148  0.8184
  143OSM    H3S15591   5.802   0.900   3.586 -0.5008  2.5743 -0.1116
  143OSM     O315592   5.668   0.795   3.489 -0.0824 -0.5447 -0.2366
  143OSM    HO315593   5.621   0.859   3.435 -0.7428 -0.9813 -0.1939
  143OSM    C4S15594   5.673   0.793   3.733  0.7113  0.7604 -0.2956
  143OSM    H4S15595   5.690   0.858   3.820  1.0390  1.4293 -0.8483
  143OSM    C5S15596   5.631   0.666   3.751  0.1335 -0.0106  0.4453
  143OSM    H5S15597   5.594   0.612   3.663  0.7601  0.5303 -0.1615
  143OSM    C6S15598   5.619   0.602   3.882  0.4298  0.1727  0.3404
  143OSM    H6S15599   5.694   0.521   3.893  0.8279  0.3050 -1.2053
  143OSM    H6T15600   5.525   0.543   3.873  1.6054 -1.6321 -0.9406
  143OSM    C7S15601   5.621   0.699   4.003 -0.5976  0.0045 -0.1813
  143OSM    H7S15602   5.527   0.758   4.004 -1.0474 -0.6900 -0.7002
  143OSM    H7T15603   5.709   0.766   4.007  0.7015 -1.5605 -1.0296
  143OSM    C8S15604   5.616   0.628   4.140 -0.7444  0.4047 -0.0423
  143OSM    H8S15605   5.690   0.545   4.147 -2.6891 -1.2963  2.3504
  143OSM    H8T15606   5.520   0.574   4.156 -0.5603  0.5554  1.7821
  143OSM    C9S15607   5.637   0.714   4.263 -0.2293  0.0751 -0.3670
  143OSM    H9S15608   5.550   0.783   4.262  0.7625  1.3951  0.1757
  143OSM    H9T15609   5.734   0.768   4.253 -0.8191  1.2035 -0.1759
  143OSM   C10S15610   5.622   0.635   4.396 -0.3606 -0.3769  0.1006
  143OSM   H10S15611   5.704   0.560   4.391  0.8637  0.7906  1.7832
  143OSM   H10T15612   5.525   0.581   4.398 -0.6639  0.1894  0.7644
  143OSM   C11S15613   5.630   0.727   4.516  0.1608  0.2039 -0.0623
  143OSM   H11S15614   5.553   0.807   4.512 -2.1868 -1.9468 -0.4190
  143OSM   H11T15615   5.729   0.777   4.519 -1.0632  2.8849 -0.9984
  143OSM   C12S15616   5.595   0.658   4.650 -0.2579 -0.4890  0.3492
  143OSM   H12S15617   5.648   0.561   4.662 -2.0839 -1.5661  0.0947
  143OSM   H12T15618   5.486   0.638   4.655 -0.8090  1.9442 -0.6642
  143OSM   C13S15619   5.638   0.744   4.763 -0.2614 -0.3548 -0.3003
  143OSM   H13S15620   5.617   0.853   4.756  1.0905  0.0477  1.2887
  143OSM   H13T15621   5.749   0.736   4.772  0.0393  2.5924 -0.3257
  143OSM   C14S15622   5.586   0.705   4.903  0.2055 -0.3358 -0.3237
  143OSM   H14S15623   5.477   0.717   4.918  0.3218 -0.9172  1.1876
  143OSM   H14T15624   5.625   0.766   4.987  2.6348 -0.9012 -0.9463
  143OSM   C15S15625   5.595   0.555   4.936 -0.8016  0.0144 -0.3305
  143OSM   H15S15626   5.700   0.521   4.931 -1.2160 -1.3653 -0.0662
  143OSM   H15T15627   5.540   0.487   4.867 -0.7610  0.2409 -0.5932
  143OSM   C16S15628   5.529   0.521   5.077  0.2726  0.3271  0.5633
  143OSM   H16S15629   5.436   0.581   5.077  1.1304  1.9152 -3.0176
  143OSM   H16T15630   5.595   0.543   5.163  0.9200 -0.9452  0.4146
  143OSM   C17S15631   5.491   0.371   5.100  0.1464 -0.2005  0.6921
  143OSM   H17S15632   5.406   0.344   5.033  0.8558 -2.0574  0.4717
  143OSM   H17T15633   5.448   0.373   5.202  1.1322 -2.3084  1.2186
  143OSM   C18S15634   5.598   0.273   5.076 -0.3146 -0.2495  0.1049
  143OSM   H18S15635   5.670   0.273   5.160  0.7527  0.1127 -0.7894
  143OSM   H18T15636   5.650   0.289   4.979 -0.5546 -1.7405 -0.3080
  143OSM   H18U15637   5.549   0.173   5.063  0.8483 -0.7467 -0.5954
  143OSM    C1F15638   5.510   1.164   3.758  0.2524 -0.1458 -0.1305
  143OSM     OF15639   5.414   1.184   3.688 -0.0613 -0.0035 -0.2971
  143OSM    C2F15640   5.539   1.245   3.881 -0.1494 -0.8804 -0.0893
  143OSM    H2F15641   5.468   1.330   3.899  2.9696  2.2766 -1.5169
  143OSM    H2G15642   5.640   1.290   3.883 -0.5744  0.3602 -2.3780
  143OSM    C3F15643   5.533   1.152   4.007 -0.3659  0.4900  0.0202
  143OSM    H3F15644   5.596   1.062   3.994 -0.4899  0.2960  0.7291
  143OSM    H3G15645   5.430   1.116   4.029  0.1611 -0.7454  0.5600
  143OSM    C4F15646   5.595   1.209   4.132 -0.3372 -0.6224  0.2223
  143OSM    H4F15647   5.542   1.305   4.148 -0.5238 -0.4763 -1.1199
  143OSM    H4G15648   5.694   1.258   4.128 -1.7275  2.4782  0.5149
  143OSM    C5F15649   5.595   1.128   4.259  0.1407 -0.7580  0.1198
  143OSM    H5F15650   5.670   1.046   4.256  0.8142 -0.1797  0.7104
  143OSM    H5G15651   5.492   1.095   4.283  0.2823 -0.1976  1.5821
  143OSM    C6F15652   5.618   1.218   4.390  0.5915  0.0171 -0.7913
  143OSM    H6F15653   5.539   1.295   4.380  0.7810  0.4498  0.8484
  143OSM    H6G15654   5.716   1.270   4.381  1.0823 -0.7445  0.0294
  143OSM    C7F15655   5.616   1.144   4.528  0.0522 -0.2193  0.3282
  143OSM    H7F15656   5.712   1.090   4.541 -0.4382 -0.9273  1.1157
  143OSM    H7G15657   5.526   1.079   4.529 -0.1846  0.1061  0.9485
  143OSM    C8F15658   5.590   1.242   4.646  0.2198  0.0711 -0.7062
  143OSM    H8F15659   5.505   1.311   4.630 -1.0873 -1.0908  0.9375
  143OSM    H8G15660   5.681   1.304   4.664  0.5455 -0.2029 -1.3438
  143OSM    C9F15661   5.574   1.163   4.772  0.7894 -0.3450  0.3930
  143OSM    H9F15662   5.632   1.069   4.773  0.9989 -0.2513 -0.9024
  143OSM   C10F15663   5.500   1.191   4.883  0.5079 -0.4637  0.5443
  143OSM   H10F15664   5.512   1.120   4.966  0.5815  0.6438  1.5093
  143OSM   C11F15665   5.419   1.309   4.921 -0.7866 -0.8818  1.2074
  143OSM   H11F15666   5.314   1.271   4.925 -0.7829 -1.2177 -0.8879
  143OSM   H11G15667   5.429   1.383   4.839 -3.2457 -1.5467  0.2317
  143OSM   C12F15668   5.448   1.378   5.055  0.4219 -1.0718  0.4037
  143OSM   H12F15669   5.387   1.469   5.071 -0.4355 -1.4569 -0.6067
  143OSM   H12G15670   5.555   1.408   5.054  0.1252  0.0202  0.2977
  143OSM   C13F15671   5.421   1.285   5.176 -0.2040 -0.4893  0.4238
  143OSM   H13F15672   5.487   1.196   5.178 -1.0584 -1.1867 -0.7329
  143OSM   H13G15673   5.315   1.252   5.164  0.3676 -1.7884 -1.7929
  143OSM   C14F15674   5.433   1.367   5.303  0.2548 -0.4496 -0.1818
  143OSM   H14F15675   5.391   1.467   5.281 -3.0536 -1.9868 -1.5858
  143OSM   H14G15676   5.543   1.370   5.311  0.4619  0.3762 -2.5822
  143OSM   C15F15677   5.368   1.288   5.418 -0.0059 -0.8620 -0.8381
  143OSM   H15F15678   5.267   1.245   5.406  0.2148 -1.5475 -0.3603
  143OSM   H15G15679   5.367   1.366   5.497  2.4416 -0.5152 -1.0728
  143OSM   C16F15680   5.456   1.169   5.462 -0.0443  0.0625 -0.1183
  143OSM   H16F15681   5.564   1.192   5.475 -0.7373  4.5106 -0.8331
  143OSM   H16G15682   5.450   1.096   5.379 -1.7433  0.7803 -0.6642
  143OSM   C17F15683   5.416   1.094   5.594 -0.6607 -0.0082  0.1052
  143OSM   H17F15684   5.484   1.006   5.597  1.8822  1.8312 -0.1713
  143OSM   H17G15685   5.309   1.063   5.587 -0.0742 -2.8045  2.0849
  143OSM   C18F15686   5.437   1.179   5.717 -0.4003 -0.3518  0.4449
  143OSM   H18F15687   5.398   1.281   5.696  2.0862  0.7323  0.7993
  143OSM   H18G15688   5.546   1.184   5.738 -0.1516 -0.8925 -0.6275
  143OSM   H18H15689   5.386   1.142   5.809  0.4506  0.1865  1.1442
  144OSM      N15690   0.523   1.572   2.486 -0.1257  0.1570  0.1989
  144OSM    C1515691   0.479   1.530   2.348 -0.1181 -0.4214  0.1781
  144OSM   H15A15692   0.436   1.430   2.348  1.0746 -0.9531  0.2822
  144OSM   H15B15693   0.562   1.530   2.278  1.0720 -3.2580  1.4082
  144OSM   H15C15694   0.398   1.593   2.315 -0.0147 -0.3155  0.1270
  144OSM    C1415695   0.659   1.530   2.501  0.0348 -0.0559  0.1799
  144OSM   H14A15696   0.714   1.561   2.589 -1.1469  1.1938  0.5106
  144OSM   H14B15697   0.718   1.565   2.418 -0.1406  0.5205  0.2860
  144OSM   H14C15698   0.665   1.423   2.510 -0.5679 -0.0638  0.5001
  144OSM    C1315699   0.514   1.723   2.476 -0.3640  0.6815 -0.1996
  144OSM   H13A15700   0.570   1.757   2.390 -0.5629 -0.2329 -0.7134
  144OSM   H13B15701   0.566   1.762   2.561  0.4877 -0.2319 -0.2815
  144OSM   H13C15702   0.414   1.764   2.482 -0.8388 -0.6535  3.8252
  144OSM    C1215703   0.445   1.520   2.599  0.9212  0.6704 -0.3203
  144OSM   H12A15704   0.343   1.554   2.594  0.4359 -0.3971  1.4238
  144OSM   H12B15705   0.482   1.555   2.695 -1.0663 -0.6160  0.9853
  144OSM    C1115706   0.434   1.368   2.613  0.4688  0.0220 -0.2486
  144OSM   H11A15707   0.381   1.317   2.530  0.5818 -1.2163  0.4230
  144OSM   H11B15708   0.364   1.366   2.699 -0.4949 -1.7432 -1.0480
  144OSM      P15709   0.560   1.184   2.748  0.0809  0.0855  0.1222
  144OSM    O1315710   0.528   1.057   2.683  0.1983 -0.1465  0.0741
  144OSM    O1415711   0.682   1.190   2.827 -0.2820  0.1041 -0.4912
  144OSM    O1115712   0.446   1.216   2.858 -0.0973 -0.4116  0.3392
  144OSM    O1215713   0.559   1.303   2.645  0.7834 -0.5235 -0.7238
  144OSM    C1S15714   0.352   1.129   2.924 -0.5129 -0.1744 -0.2180
  144OSM    H1S15715   0.401   1.030   2.934 -0.9164 -0.4568 -0.9499
  144OSM    H1T15716   0.263   1.111   2.860 -0.9060 -1.8453  0.7523
  144OSM     NF15717   0.240   1.091   3.148 -0.3447  0.4452  0.8131
  144OSM    HNF15718   0.141   1.087   3.156 -0.7168  2.0376 -1.9020
  144OSM    C2S15719   0.300   1.189   3.055 -0.1949 -0.3842 -0.2377
  144OSM    H2S15720   0.386   1.234   3.108 -1.5850  1.2066  0.7871
  144OSM    C3S15721   0.212   1.309   3.018  1.2492  0.1188 -0.4530
  144OSM    H3S15722   0.136   1.279   2.943  0.6304  1.5895 -0.4544
  144OSM     O315723   0.278   1.408   2.942  0.3603  0.4754  0.1509
  144OSM    HO315724   0.362   1.369   2.915  0.3125  0.5435 -0.0975
  144OSM    C4S15725   0.144   1.368   3.141  0.2953  0.4457  0.1266
  144OSM    H4S15726   0.050   1.325   3.177 -0.0193 -1.5475 -2.7095
  144OSM    C5S15727   0.194   1.464   3.216  0.1964  0.9415 -0.1876
  144OSM    H5S15728   0.288   1.512   3.184  0.8690 -0.8634 -1.0493
  144OSM    C6S15729   0.134   1.523   3.337 -0.3007  0.1052  0.0088
  144OSM    H6S15730   0.085   1.610   3.290 -1.3554 -1.5236 -2.0430
  144OSM    H6T15731   0.215   1.569   3.398  0.5527 -0.5207 -0.6127
  144OSM    C7S15732   0.031   1.441   3.418  0.1699  1.1945 -0.2909
  144OSM    H7S15733   0.077   1.353   3.468 -1.8420 -0.3235 -0.9845
  144OSM    H7T15734  -0.035   1.405   3.336 -0.2099  0.4093  0.3385
  144OSM    C8S15735  -0.040   1.527   3.515  0.3455 -0.4116  0.8480
  144OSM    H8S15736  -0.138   1.481   3.541  1.1418 -1.1151  2.8158
  144OSM    H8T15737  -0.055   1.626   3.466 -0.1424 -1.2976 -0.8775
  144OSM    C9S15738   0.025   1.566   3.645 -0.0592 -0.0449  0.1079
  144OSM    H9S15739   0.107   1.638   3.624  0.1897 -1.0724 -2.9904
  144OSM    H9T15740   0.074   1.475   3.683 -0.0377 -0.0998 -0.0486
  144OSM   C10S15741  -0.069   1.627   3.752  0.2905 -1.0817  0.2690
  144OSM   H10S15742  -0.168   1.575   3.750  0.0271 -0.5736 -1.0684
  144OSM   H10T15743  -0.098   1.731   3.729  2.7476  0.2278  2.5319
  144OSM   C11S15744  -0.007   1.624   3.887 -0.3382  0.0157 -0.7609
  144OSM   H11S15745   0.068   1.706   3.892  0.0565 -0.4228  1.3554
  144OSM   H11T15746   0.042   1.524   3.890 -0.2520  0.0732 -0.0763
  144OSM   C12S15747  -0.104   1.637   3.998 -0.8661 -0.2619 -0.5078
  144OSM   H12S15748  -0.190   1.579   3.959 -1.4072  0.2166 -0.0330
  144OSM   H12T15749  -0.134   1.742   4.017 -0.0435  0.2238 -1.7928
  144OSM   C13S15750  -0.062   1.583   4.140 -0.0707 -0.3208  1.1068
  144OSM   H13S15751   0.012   1.644   4.196 -0.2866  1.3797 -0.3383
  144OSM   H13T15752  -0.023   1.481   4.122  1.1297  0.3496 -0.4006
  144OSM   C14S15753  -0.189   1.575   4.226 -0.0440  0.8847  0.2502
  144OSM   H14S15754  -0.261   1.506   4.175 -0.2911  1.9955 -0.9573
  144OSM   H14T15755  -0.228   1.679   4.234 -1.4735  0.2340  3.2633
  144OSM   C15S15756  -0.163   1.535   4.369  0.1277 -0.0700  0.0122
  144OSM   H15S15757  -0.103   1.612   4.422  1.0877 -0.1720 -0.8934
  144OSM   H15T15758  -0.105   1.441   4.362 -0.6502 -0.5599  0.0426
  144OSM   C16S15759  -0.280   1.508   4.468  0.0346 -0.1591  0.8767
  144OSM   H16S15760  -0.364   1.468   4.407  1.0133  0.1756 -0.7554
  144OSM   H16T15761  -0.315   1.597   4.525 -2.5581  1.7756 -3.2335
  144OSM   C17S15762  -0.244   1.400   4.568  0.4520 -0.8054  0.4712
  144OSM   H17S15763  -0.236   1.310   4.504 -0.0458  0.5907 -1.6476
  144OSM   H17T15764  -0.327   1.376   4.639 -0.2773  1.0857  0.3336
  144OSM   C18S15765  -0.118   1.425   4.652  0.5156  0.0596  0.0889
  144OSM   H18S15766  -0.131   1.521   4.706  1.2628 -0.0499  0.4818
  144OSM   H18T15767  -0.026   1.436   4.591  1.3085 -1.8454  0.8439
  144OSM   H18U15768  -0.090   1.353   4.733  1.2410 -2.1801 -2.0351
  144OSM    C1F15769   0.309   0.993   3.214  0.9748 -0.4675  0.2843
  144OSM     OF15770   0.424   0.960   3.180  0.0552 -0.4323  0.2622
  144OSM    C2F15771   0.244   0.922   3.328 -0.2514  0.5316 -0.2879
  144OSM    H2F15772   0.138   0.955   3.332 -0.4021  0.0378 -0.1484
  144OSM    H2G15773   0.296   0.966   3.415  1.8973 -0.1175 -1.1926
  144OSM    C3F15774   0.246   0.762   3.325  0.6696  0.1940  0.7004
  144OSM    H3F15775   0.351   0.731   3.310  0.4908 -0.0708 -0.0107
  144OSM    H3G15776   0.197   0.728   3.232  2.3611  1.5340 -0.7382
  144OSM    C4F15777   0.159   0.704   3.439 -0.0946 -0.0383  0.7511
  144OSM    H4F15778   0.158   0.593   3.437  2.4175 -0.1204  0.6209
  144OSM    H4G15779   0.053   0.736   3.432 -0.2104  0.3279  3.0811
  144OSM    C5F15780   0.212   0.738   3.580  0.3208  0.0396 -0.1093
  144OSM    H5F15781   0.195   0.847   3.594 -2.3244 -0.3555  0.3384
  144OSM    H5G15782   0.322   0.727   3.577  0.1966 -1.1888 -0.6968
  144OSM    C6F15783   0.145   0.658   3.693 -0.5263  0.5464 -0.1227
  144OSM    H6F15784   0.147   0.551   3.666  1.3443  0.3206  0.7080
  144OSM    H6G15785   0.039   0.679   3.717 -0.2116  1.3722  0.6022
  144OSM    C7F15786   0.222   0.679   3.820 -0.4949  0.2886 -0.1246
  144OSM    H7F15787   0.210   0.784   3.855  0.7957  1.1598 -2.1100
  144OSM    H7G15788   0.328   0.670   3.788 -0.5816 -1.7442  0.0422
  144OSM    C8F15789   0.195   0.586   3.941 -0.1195 -0.2559 -0.7424
  144OSM    H8F15790   0.237   0.484   3.926 -0.8477 -0.7558  0.4565
  144OSM    H8G15791   0.085   0.579   3.946 -0.3504  1.3186 -2.4653
  144OSM    C9F15792   0.269   0.642   4.065  0.3369  0.1801 -0.0157
  144OSM    H9F15793   0.364   0.694   4.047  1.4992 -1.5460  0.8610
  144OSM   C10F15794   0.221   0.629   4.196 -0.1066 -0.2979  0.3216
  144OSM   H10F15795   0.286   0.686   4.264 -2.5263  1.3065  1.4217
  144OSM   C11F15796   0.099   0.557   4.249 -0.1392 -0.3058  0.3329
  144OSM   H11F15797   0.087   0.464   4.189  4.1869  0.0068 -1.3936
  144OSM   H11G15798   0.009   0.618   4.224 -0.6615 -0.6725  1.2537
  144OSM   C12F15799   0.103   0.514   4.395  0.5925 -0.2048 -0.0536
  144OSM   H12F15800   0.190   0.446   4.408  0.7615 -0.0804 -0.5182
  144OSM   H12G15801   0.013   0.449   4.399 -1.3610  2.2701 -0.9066
  144OSM   C13F15802   0.100   0.633   4.489 -0.1664 -0.3845 -0.2055
  144OSM   H13F15803  -0.004   0.653   4.522 -0.1662 -0.4485 -0.1675
  144OSM   H13G15804   0.148   0.720   4.439  0.5475 -0.8567 -0.3707
  144OSM   C14F15805   0.174   0.601   4.620 -0.1171  0.2029  0.3771
  144OSM   H14F15806   0.279   0.573   4.597 -0.1498  0.7930 -0.5105
  144OSM   H14G15807   0.128   0.512   4.668 -0.9263  0.5414  0.2389
  144OSM   C15F15808   0.165   0.712   4.725 -0.1550  0.3748 -0.4267
  144OSM   H15F15809   0.058   0.730   4.745 -0.4807  0.5030 -2.1570
  144OSM   H15G15810   0.214   0.808   4.698  0.2503  0.5622  0.8975
  144OSM   C16F15811   0.238   0.676   4.858 -0.3828 -0.0363  0.1487
  144OSM   H16F15812   0.347   0.689   4.842  0.0285 -2.1409  0.8962
  144OSM   H16G15813   0.222   0.570   4.889 -1.5608 -0.1765 -0.8350
  144OSM   C17F15814   0.204   0.760   4.982 -0.2389 -0.5119  0.2889
  144OSM   H17F15815   0.094   0.771   4.991 -0.0531  0.4624  1.7672
  144OSM   H17G15816   0.242   0.861   4.955  1.7306 -1.2958 -0.0654
  144OSM   C18F15817   0.275   0.714   5.108  0.7083 -0.6174  0.0124
  144OSM   H18F15818   0.249   0.610   5.138 -0.5220 -0.4764 -0.5314
  144OSM   H18G15819   0.242   0.792   5.180  1.1066 -0.1070 -0.3548
  144OSM   H18H15820   0.385   0.729   5.098  0.8052 -0.9172  0.5472
  145SAPE     N15821   5.936   6.688   7.759  0.0162 -0.3492 -0.4713
  145SAPE   HN115822   6.012   6.721   7.822 -0.1706  0.0472 -0.4479
  145SAPE   HN215823   5.855   6.743   7.795  1.8766  1.7032  0.8539
  145SAPE   HN315824   5.924   6.585   7.770  2.0539 -0.7615 -1.4881
  145SAPE   C1215825   5.971   6.727   7.616  0.5575 -0.1555  0.3779
  145SAPE  H12A15826   6.069   6.686   7.585  0.0120 -0.5570 -0.8628
  145SAPE  H12B15827   5.968   6.838   7.609  0.4412 -0.2598 -2.7448
  145SAPE   C1115828   5.860   6.674   7.515 -0.1719 -0.2705 -0.3393
  145SAPE  H11A15829   5.875   6.711   7.411  0.2713  0.3459 -0.0573
  145SAPE  H11B15830   5.765   6.713   7.555  1.1651 -0.0809  2.9284
  145SAPE     P15831   5.792   6.432   7.419  0.0178  0.8081  0.0631
  145SAPE   O1315832   5.897   6.333   7.384 -0.6212  0.6886 -0.2608
  145SAPE   O1415833   5.657   6.388   7.462 -0.0146  0.2686  0.4808
  145SAPE   O1215834   5.858   6.533   7.518 -0.1988  0.4390 -0.3841
  145SAPE   O1115835   5.783   6.515   7.289 -0.4348  0.0309  0.2475
  145SAPE    C115836   5.666   6.592   7.261  0.0641 -0.0219 -0.4553
  145SAPE    HA15837   5.628   6.635   7.356 -0.7144 -1.6973  0.0422
  145SAPE    HB15838   5.688   6.671   7.187 -1.1266  0.9341  0.1788
  145SAPE    C215839   5.556   6.499   7.200 -0.4652  0.7565  0.0584
  145SAPE    HS15840   5.540   6.414   7.269  0.8803  2.2059  2.2811
  145SAPE   O2115841   5.614   6.446   7.073 -0.5545  0.4284 -0.3146
  145SAPE   C2115842   5.641   6.314   7.070 -0.7906  0.8390  1.3116
  145SAPE   O2215843   5.609   6.234   7.159 -0.0470  0.0053 -0.0265
  145SAPE   C2215844   5.735   6.275   6.952 -0.0418 -0.3569  0.5071
  145SAPE   H2R15845   5.674   6.293   6.861  0.8346 -0.6357 -0.1409
  145SAPE   H2S15846   5.826   6.339   6.958 -0.1171 -0.3735  2.7861
  145SAPE    C315847   5.419   6.554   7.171  0.6507  0.2092  0.2506
  145SAPE    HX15848   5.421   6.638   7.097 -1.5981 -0.5879 -0.8160
  145SAPE    HY15849   5.372   6.599   7.262 -2.2111 -0.7792 -0.6126
  145SAPE   O3115850   5.319   6.464   7.113 -0.3846 -0.1424  0.0894
  145SAPE   C3115851   5.280   6.374   7.194  0.1994 -0.2623 -0.4612
  145SAPE   O3215852   5.341   6.340   7.298  0.7557 -0.4680  0.2261
  145SAPE   C3215853   5.162   6.307   7.128 -1.0004 -0.0864  0.0758
  145SAPE   H2X15854   5.076   6.377   7.136 -2.6607 -2.2174  2.7393
  145SAPE   H2Y15855   5.140   6.214   7.185 -0.1071  0.5280  1.4625
  145SAPE   C2315856   5.800   6.130   6.963  0.4756 -0.5221 -0.2930
  145SAPE   H3R15857   5.844   6.110   6.864 -0.0298 -2.0663 -0.2415
  145SAPE   H3S15858   5.720   6.054   6.976 -0.8112  0.8740  0.2934
  145SAPE   C2415859   5.901   6.126   7.074  0.0024  0.1706 -0.5671
  145SAPE   H4R15860   5.848   6.159   7.166 -1.7509  0.1685 -1.5336
  145SAPE   H4S15861   5.984   6.194   7.043  0.8794 -1.0723 -1.0281
  145SAPE   C2515862   5.930   5.982   7.108  0.3495  0.3728  0.8428
  145SAPE   H5R15863   5.850   5.910   7.132 -0.3382  0.7077 -0.3982
  145SAPE   C2615864   6.055   5.934   7.123  0.4996  0.7712  0.1732
  145SAPE   H6R15865   6.077   5.828   7.143 -1.6388  0.4683  1.2021
  145SAPE   C2715866   6.175   6.018   7.113 -0.2423  0.2292  0.7883
  145SAPE   H7R15867   6.163   6.110   7.174  1.5188 -1.2802  3.6230
  145SAPE   H7S15868   6.188   6.055   7.009 -1.7478  1.5090  1.0268
  145SAPE   C2815869   6.297   5.943   7.164 -0.0354  0.3538  0.5384
  145SAPE   H8R15870   6.280   5.902   7.265 -0.2468 -2.3144 -0.5041
  145SAPE   C2915871   6.402   5.913   7.090 -0.2147 -0.3421  0.0998
  145SAPE   H9R15872   6.473   5.843   7.137  0.7280  2.3379  2.9748
  145SAPE  C21015873   6.429   5.940   6.940 -0.2057  0.4091  0.1446
  145SAPE  H10R15874   6.338   5.959   6.879  1.5916  1.9752 -2.2305
  145SAPE  H10S15875   6.462   5.843   6.897 -2.0620 -0.0993 -0.2410
  145SAPE  C21115876   6.520   6.056   6.905 -0.9879  0.3113  0.1030
  145SAPE  H11R15877   6.540   6.118   6.994 -2.1651 -0.7694  1.1491
  145SAPE  C21215878   6.570   6.094   6.786 -0.4848 -0.3131 -0.2432
  145SAPE  H12R15879   6.624   6.189   6.785 -1.1223  0.0522 -0.4305
  145SAPE  C21315880   6.564   6.027   6.651 -0.4883 -0.0933  0.0669
  145SAPE  H13R15881   6.522   5.924   6.660  0.6048 -0.4656  1.0900
  145SAPE  H13S15882   6.667   6.002   6.620 -0.0009  1.1574  0.6195
  145SAPE  C21415883   6.483   6.098   6.544 -0.2664 -0.0249 -0.2679
  145SAPE  H14R15884   6.375   6.079   6.538 -0.6082  2.0885 -4.4654
  145SAPE  C21515885   6.525   6.171   6.444 -0.0343  0.3153  0.1625
  145SAPE  H15R15886   6.461   6.217   6.368 -0.2995  0.4141  0.4427
  145SAPE  C21615887   6.676   6.197   6.426  0.5400 -0.5118  0.0260
  145SAPE  H16R15888   6.752   6.172   6.503  2.5083  1.8300 -1.0096
  145SAPE  H16S15889   6.680   6.305   6.403 -0.7234 -0.6918 -1.1865
  145SAPE  C21715890   6.734   6.124   6.299  0.0105 -0.0430  0.2025
  145SAPE  H17R15891   6.712   6.016   6.313  0.9277 -0.3296 -0.5047
  145SAPE  H17S15892   6.844   6.128   6.308 -0.0500 -0.7782  1.5724
  145SAPE  C21815893   6.688   6.182   6.167  0.4536 -0.7226 -0.2691
  145SAPE  H18R15894   6.714   6.290   6.167  1.5455 -0.9355  1.6481
  145SAPE  H18S15895   6.577   6.173   6.165  0.4775 -0.9253 -0.6763
  145SAPE  C21915896   6.751   6.119   6.046 -0.4942 -0.1849 -0.1451
  145SAPE  H19R15897   6.721   6.013   6.035  0.7399 -0.9405  2.8508
  145SAPE  H19S15898   6.861   6.108   6.055 -0.5790  0.5064  2.2726
  145SAPE  C22015899   6.716   6.192   5.916  0.0034  0.6678  1.1105
  145SAPE  H20R15900   6.606   6.209   5.919 -0.5981 -2.2167 -0.5840
  145SAPE  H20S15901   6.736   6.122   5.832 -2.8592  0.6804  0.3176
  145SAPE  H20T15902   6.780   6.282   5.912  0.1640  0.4968 -1.1685
  145SAPE   C3315903   5.189   6.264   6.979 -0.3063  0.2101 -0.2310
  145SAPE   H3X15904   5.288   6.214   6.983  1.1486  2.8878 -0.9374
  145SAPE   H3Y15905   5.213   6.352   6.917 -0.5501  1.7359  1.7373
  145SAPE   C3415906   5.078   6.181   6.915 -0.1246  0.3524 -0.0983
  145SAPE   H4X15907   5.054   6.205   6.809 -4.0157 -0.7001  0.3715
  145SAPE   H4Y15908   4.983   6.214   6.963  0.4084  0.8785  0.6198
  145SAPE   C3515909   5.091   6.030   6.918 -0.3025  0.0150 -0.0596
  145SAPE   H5X15910   5.003   5.974   6.879  0.7501 -1.7458 -0.0143
  145SAPE   H5Y15911   5.093   5.997   7.024 -0.7476 -0.7786 -0.2895
  145SAPE   C3615912   5.219   5.976   6.844 -0.6816  0.2124 -1.2109
  145SAPE   H6X15913   5.240   5.875   6.887 -1.0852  0.9993  0.9523
  145SAPE   H6Y15914   5.306   6.041   6.868 -0.4418 -1.0598  1.8493
  145SAPE   C3715915   5.185   5.973   6.698 -0.0438  0.4255 -0.3406
  145SAPE   H7X15916   5.109   6.051   6.674 -0.2978  0.5302  0.7355
  145SAPE   H7Y15917   5.129   5.878   6.687 -2.1278  1.5992 -0.4703
  145SAPE   C3815918   5.298   5.973   6.596 -0.3288 -0.1526  0.2995
  145SAPE   H8X15919   5.374   5.895   6.619  0.5754  0.9331  1.1485
  145SAPE   H8Y15920   5.349   6.072   6.600  0.3472 -0.4614 -0.3708
  145SAPE   C3915921   5.238   5.968   6.453 -0.0346 -0.3848 -0.5774
  145SAPE   H9X15922   5.167   6.054   6.454  0.5165  0.0800  0.8625
  145SAPE   H9Y15923   5.170   5.881   6.440 -0.0685 -0.2010 -1.7545
  145SAPE  C31015924   5.338   5.990   6.338 -0.3805  0.6325  0.3092
  145SAPE  H10X15925   5.413   5.907   6.344  0.9565  1.6953 -1.0809
  145SAPE  H10Y15926   5.392   6.086   6.349  1.0301  0.1847 -2.0051
  145SAPE  C31115927   5.278   5.995   6.194 -0.7115 -0.1800  0.1715
  145SAPE  H11X15928   5.361   6.036   6.132 -1.4477  0.9761 -0.0904
  145SAPE  H11Y15929   5.192   6.066   6.185 -0.2866  0.2650 -0.5301
  145SAPE  C31215930   5.246   5.863   6.124 -0.8161 -0.2561  0.1832
  145SAPE  H12X15931   5.167   5.798   6.168 -1.7181  1.7866  1.7801
  145SAPE  H12Y15932   5.340   5.804   6.118 -0.8173 -0.1325 -1.9922
  145SAPE  C31315933   5.214   5.874   5.974 -0.0446  0.2285  0.5821
  145SAPE  H13X15934   5.167   5.780   5.939  2.8777 -0.5457 -1.6327
  145SAPE  H13Y15935   5.303   5.888   5.909 -0.6875  2.9212  0.1914
  145SAPE  C31415936   5.114   5.987   5.940  0.0735  1.1257  0.2976
  145SAPE  H14X15937   5.162   6.087   5.938  1.0659  0.6693  0.3341
  145SAPE  H14Y15938   5.036   5.984   6.019  0.0664 -2.1295  0.3172
  145SAPE  C31515939   5.045   5.973   5.800 -0.6193  0.8523  0.0869
  145SAPE  H15X15940   4.949   6.029   5.802 -1.1097  0.1224  3.2776
  145SAPE  H15Y15941   5.016   5.868   5.778  2.3837  0.2505 -1.5230
  145SAPE  C31615942   5.149   6.019   5.691  0.1816  0.8948  0.3051
  145SAPE  H16X15943   5.231   5.944   5.686  0.1702  0.9231 -0.2743
  145SAPE  H16Y15944   5.194   6.116   5.722  1.5073 -0.3089  2.3928
  145SAPE  C31715945   5.086   6.045   5.553 -0.0021  0.7113  0.0599
  145SAPE  H17X15946   5.067   5.952   5.496 -0.0137 -0.3034  1.6413
  145SAPE  H17Y15947   5.170   6.080   5.490  0.2643  0.0845  0.0631
  145SAPE  C31815948   4.978   6.152   5.565 -0.1918 -0.1759  0.9745
  145SAPE  H18X15949   5.001   6.224   5.646  1.4520  1.1121 -0.5508
  145SAPE  H18Y15950   4.883   6.102   5.592  0.2123 -1.5246  0.0214
  145SAPE  H18Z15951   4.962   6.207   5.470  0.6578 -0.6915  0.5241
  146SAPE     N15952   2.447   5.028   7.312 -0.1649  0.5359  0.3755
  146SAPE   HN115953   2.379   5.093   7.358 -3.0866 -1.3756 -0.9797
  146SAPE   HN215954   2.399   4.936   7.309  1.5341 -0.3771 -0.0341
  146SAPE   HN315955   2.528   5.023   7.378 -0.2754 -1.5616  0.4017
  146SAPE   C1215956   2.484   5.080   7.177  0.2085 -0.4039 -0.1625
  146SAPE  H12A15957   2.535   4.999   7.121 -1.7249 -1.9530  0.1876
  146SAPE  H12B15958   2.567   5.153   7.186 -1.7958  2.0782 -0.5029
  146SAPE   C1115959   2.363   5.155   7.107  0.6502 -0.1135 -0.3121
  146SAPE  H11A15960   2.276   5.087   7.109 -0.4746  1.2724 -0.3364
  146SAPE  H11B15961   2.393   5.179   7.003 -1.1218  1.9300 -0.4325
  146SAPE     P15962   2.221   5.300   7.285 -0.1050 -0.1887  0.1020
  146SAPE   O1315963   2.244   5.198   7.387 -0.1315  0.2669 -0.1432
  146SAPE   O1415964   2.221   5.439   7.336 -0.0060 -0.7787 -0.2262
  146SAPE   O1215965   2.325   5.280   7.164  0.2675  0.0908  0.0616
  146SAPE   O1115966   2.071   5.272   7.223  0.4300 -0.3446  0.6805
  146SAPE    C115967   2.034   5.262   7.091  0.3342  0.1568 -0.5381
  146SAPE    HA15968   2.118   5.239   7.022 -1.7610  0.8193 -3.5176
  146SAPE    HB15969   1.968   5.173   7.080  0.8072 -0.0839 -1.5347
  146SAPE    C215970   1.973   5.393   7.040  0.4232  0.1505  0.0871
  146SAPE    HS15971   1.950   5.471   7.116 -0.2977 -1.3221  1.4322
  146SAPE   O2115972   1.850   5.356   6.968 -0.3622 -0.0664 -0.5234
  146SAPE   C2115973   1.759   5.307   7.052  0.4525  0.3512  0.4764
  146SAPE   O2215974   1.757   5.333   7.170  0.3927  0.2954  0.7479
  146SAPE   C2215975   1.643   5.235   6.975  0.0547 -0.3011  0.1832
  146SAPE   H2R15976   1.616   5.145   7.034  1.9656 -1.2292 -0.2835
  146SAPE   H2S15977   1.558   5.305   6.988 -0.1113 -1.0495  5.0814
  146SAPE    C315978   2.063   5.457   6.923 -0.2658 -0.6298 -0.6628
  146SAPE    HX15979   2.080   5.384   6.841  1.6877 -1.3830  0.3318
  146SAPE    HY15980   2.164   5.479   6.964 -0.6287  0.4090 -0.2869
  146SAPE   O3115981   1.999   5.574   6.860  0.1317 -0.1937  0.5129
  146SAPE   C3115982   2.022   5.692   6.923 -0.2696  0.3556  0.1187
  146SAPE   O3215983   2.080   5.708   7.030  0.9358 -0.2208  0.2636
  146SAPE   C3215984   1.959   5.808   6.848 -0.1032 -0.3514 -0.2079
  146SAPE   H2X15985   1.956   5.892   6.921 -1.0838  0.7540 -1.4855
  146SAPE   H2Y15986   1.853   5.785   6.827  0.2782 -4.1196  1.1811
  146SAPE   C2315987   1.659   5.194   6.830 -0.3140 -0.0569  0.0033
  146SAPE   H3R15988   1.710   5.095   6.831  2.5481  1.3265  1.7370
  146SAPE   H3S15989   1.729   5.265   6.781 -0.3702 -0.5687 -0.8317
  146SAPE   C2415990   1.533   5.206   6.743 -0.7328  0.4352 -1.1964
  146SAPE   H4R15991   1.561   5.172   6.641 -1.6300 -0.3002 -1.2080
  146SAPE   H4S15992   1.500   5.312   6.740 -1.3692  0.3247  0.6021
  146SAPE   C2515993   1.411   5.121   6.781  0.1668 -0.3307 -0.0131
  146SAPE   H5R15994   1.358   5.137   6.876 -0.2584 -2.8026  0.2443
  146SAPE   C2615995   1.338   5.047   6.696 -0.5699 -0.3487  0.1219
  146SAPE   H6R15996   1.260   4.982   6.738  0.5640 -2.1817 -0.5381
  146SAPE   C2715997   1.360   5.021   6.548  0.0350 -0.3708  0.2169
  146SAPE   H7R15998   1.461   5.052   6.514  0.2434 -3.1985 -2.2113
  146SAPE   H7S15999   1.298   5.084   6.479  0.8750 -0.7593 -0.9265
  146SAPE   C2816000   1.349   4.874   6.506  0.7858 -0.2820  0.0014
  146SAPE   H8R16001   1.291   4.800   6.564  0.3941 -0.1695 -0.2381
  146SAPE   C2916002   1.386   4.831   6.381  0.8010  0.0607 -0.5591
  146SAPE   H9R16003   1.370   4.724   6.358  0.2401  0.0238 -0.0242
  146SAPE  C21016004   1.445   4.915   6.274  0.2164 -0.0152 -0.3666
  146SAPE  H10R16005   1.535   4.866   6.230  1.2528 -0.1180  1.7585
  146SAPE  H10S16006   1.469   5.022   6.294 -0.9219  0.5023 -1.6019
  146SAPE  C21116007   1.340   4.914   6.162  0.2756  0.1196  0.1603
  146SAPE  H11R16008   1.272   5.001   6.161  0.0863 -0.0315 -0.2663
  146SAPE  C21216009   1.324   4.822   6.064 -1.3755 -0.4119  0.3105
  146SAPE  H12R16010   1.248   4.849   5.990 -0.5257  4.9262  0.9523
  146SAPE  C21316011   1.413   4.698   6.049  0.3575 -0.3141  0.2241
  146SAPE  H13R16012   1.423   4.643   6.145  2.3090 -2.5548 -1.1494
  146SAPE  H13S16013   1.515   4.732   6.021  1.1722 -0.3246  2.8493
  146SAPE  C21416014   1.370   4.613   5.930  0.2718  0.3422 -0.6401
  146SAPE  H14R16015   1.268   4.572   5.937  0.1856  0.5014 -0.9181
  146SAPE  C21516016   1.444   4.583   5.826 -0.4048  0.5978  0.3572
  146SAPE  H15R16017   1.391   4.543   5.739 -0.8646  1.7102  0.1246
  146SAPE  C21616018   1.581   4.641   5.795 -0.4612  0.1497  0.1514
  146SAPE  H16R16019   1.650   4.561   5.761  3.0566  1.4484  3.6008
  146SAPE  H16S16020   1.639   4.656   5.888  2.5481 -1.1481 -1.3763
  146SAPE  C21716021   1.570   4.751   5.685  0.1122  0.4711 -0.4273
  146SAPE  H17R16022   1.675   4.784   5.669  0.7492 -0.5982  1.3200
  146SAPE  H17S16023   1.504   4.839   5.700 -1.5049 -0.7319 -0.2697
  146SAPE  C21816024   1.531   4.692   5.555  1.1086 -0.3799  0.0890
  146SAPE  H18R16025   1.432   4.645   5.573  0.4406  1.2828  0.9317
  146SAPE  H18S16026   1.607   4.619   5.518  1.3270 -0.9770  1.6162
  146SAPE  C21916027   1.538   4.804   5.454  0.4866 -0.3153  0.0754
  146SAPE  H19R16028   1.634   4.857   5.443  0.1622  0.2856  0.1053
  146SAPE  H19S16029   1.469   4.884   5.491  3.3488  2.2721  0.1954
  146SAPE  C22016030   1.489   4.760   5.318 -0.4359 -0.1195  0.2026
  146SAPE  H20R16031   1.402   4.691   5.322 -2.3086  2.2090  1.9687
  146SAPE  H20S16032   1.572   4.711   5.263  0.1322 -0.6214  1.4671
  146SAPE  H20T16033   1.451   4.850   5.265 -0.4374 -0.7771 -0.9608
  146SAPE   C3316034   2.028   5.855   6.716  0.3046 -0.0437 -0.4309
  146SAPE   H3X16035   1.964   5.935   6.672 -1.0310 -1.3018 -0.8671
  146SAPE   H3Y16036   2.022   5.772   6.643 -1.0892 -1.6474  1.3924
  146SAPE   C3416037   2.176   5.903   6.736 -0.4862 -0.5554 -0.4553
  146SAPE   H4X16038   2.223   5.836   6.811  0.8667 -0.8877 -1.5530
  146SAPE   H4Y16039   2.166   6.000   6.789  0.4751  0.7195 -2.4570
  146SAPE   C3516040   2.249   5.924   6.601 -0.0544 -0.0835  0.0550
  146SAPE   H5X16041   2.254   5.833   6.537 -1.9839 -0.4235  0.3204
  146SAPE   H5Y16042   2.354   5.957   6.614 -0.1248 -0.3812  1.6133
  146SAPE   C3616043   2.178   6.030   6.510 -0.1067  0.1090 -0.5695
  146SAPE   H6X16044   2.186   6.134   6.548  0.5995  1.8159 -4.8034
  146SAPE   H6Y16045   2.075   5.995   6.491 -0.5769  1.2617 -0.2345
  146SAPE   C3716046   2.248   6.041   6.372 -0.8729  0.3651  0.4451
  146SAPE   H7X16047   2.240   5.944   6.320 -1.2451 -0.4089  1.8710
  146SAPE   H7Y16048   2.355   6.064   6.390 -0.7501  0.1148  0.0461
  146SAPE   C3816049   2.203   6.154   6.284  0.1561 -0.2605 -0.0191
  146SAPE   H8X16050   2.233   6.246   6.338 -2.6363  1.4919 -1.2489
  146SAPE   H8Y16051   2.093   6.165   6.294  0.0667  1.4407 -2.1731
  146SAPE   C3916052   2.273   6.142   6.148  0.3740  0.0946  0.3485
  146SAPE   H9X16053   2.284   6.037   6.115 -3.8320  0.0370 -1.5647
  146SAPE   H9Y16054   2.374   6.185   6.163  1.0395 -1.2049 -0.3006
  146SAPE  C31016055   2.206   6.209   6.032  0.2550  0.1509  0.3506
  146SAPE  H10X16056   2.265   6.206   5.938 -2.8219  0.8460 -1.7973
  146SAPE  H10Y16057   2.201   6.317   6.059  0.3258  0.1090  0.5315
  146SAPE  C31116058   2.066   6.153   5.993 -0.3271 -0.3392  0.1025
  146SAPE  H11X16059   1.995   6.167   6.078  0.0942 -0.1691  0.4306
  146SAPE  H11Y16060   2.080   6.043   5.984 -0.1869 -0.3337  0.2461
  146SAPE  C31216061   2.010   6.201   5.858  0.0927  0.4583  0.3196
  146SAPE  H12X16062   1.935   6.130   5.818  0.0998  1.0154 -0.7146
  146SAPE  H12Y16063   2.093   6.208   5.785 -1.2177  0.4474 -1.2234
  146SAPE  C31316064   1.946   6.332   5.876 -0.0700  0.8692 -0.4658
  146SAPE  H13X16065   2.021   6.404   5.916 -0.0658 -0.0959  1.4136
  146SAPE  H13Y16066   1.863   6.328   5.950  0.2395  0.0210 -0.1473
  146SAPE  C31416067   1.893   6.401   5.748 -0.8510  0.2716 -0.3293
  146SAPE  H14X16068   1.963   6.406   5.662 -1.5397  2.5472 -0.8500
  146SAPE  H14Y16069   1.866   6.504   5.780  0.7078  1.7623 -3.3696
  146SAPE  C31516070   1.777   6.323   5.684 -0.5093 -0.5661 -0.9943
  146SAPE  H15X16071   1.690   6.304   5.752  0.7018 -2.0419  0.2236
  146SAPE  H15Y16072   1.804   6.227   5.637 -0.0646 -0.5295 -0.8164
  146SAPE  C31616073   1.713   6.399   5.563 -0.1916 -0.1495  0.1975
  146SAPE  H16X16074   1.782   6.411   5.476 -0.3049  1.2468  0.2716
  146SAPE  H16Y16075   1.672   6.497   5.597 -0.1226 -0.4526  1.1746
  146SAPE  C31716076   1.591   6.316   5.497 -1.0288 -0.3871 -0.0760
  146SAPE  H17X16077   1.511   6.306   5.574 -1.3751  3.2928  0.2182
  146SAPE  H17Y16078   1.616   6.209   5.483 -2.6245 -1.0849  1.8921
  146SAPE  C31816079   1.532   6.361   5.368 -0.0112 -0.5408  0.7322
  146SAPE  H18X16080   1.611   6.366   5.290  1.7206 -2.4356  2.2514
  146SAPE  H18Y16081   1.477   6.457   5.377  0.1617 -0.5037  1.4887
  146SAPE  H18Z16082   1.463   6.278   5.342  1.8162 -2.0568  0.4901
  147SAPE     N16083   1.753   3.790   7.547 -0.3252  0.1270 -0.2534
  147SAPE   HN116084   1.825   3.828   7.482  1.3293 -0.9806  0.8426
  147SAPE   HN216085   1.666   3.844   7.564  0.1193  0.0085  3.1387
  147SAPE   HN316086   1.802   3.788   7.639  0.0449 -0.7402 -0.4577
  147SAPE   C1216087   1.722   3.644   7.511  0.2253 -0.0925 -0.4855
  147SAPE  H12A16088   1.679   3.639   7.409  1.0167 -3.9131 -0.7738
  147SAPE  H12B16089   1.643   3.609   7.581 -0.6428  0.8712 -0.9628
  147SAPE   C1116090   1.840   3.548   7.535  0.3595 -0.3872  0.5881
  147SAPE  H11A16091   1.811   3.447   7.497  3.6591 -2.0522  2.0348
  147SAPE  H11B16092   1.840   3.538   7.646 -2.3816  0.5553  0.7429
  147SAPE     P16093   2.011   3.575   7.340  0.2554  0.1549 -0.0430
  147SAPE   O1316094   1.926   3.645   7.245  0.0290  0.6941 -0.0491
  147SAPE   O1416095   2.153   3.616   7.333 -0.7890  0.7772  0.5268
  147SAPE   O1216096   1.962   3.597   7.487  0.0208  0.0755  0.4654
  147SAPE   O1116097   1.992   3.423   7.321  0.2357 -0.0203 -0.4784
  147SAPE    C116098   1.896   3.360   7.239 -1.2220  0.1974 -0.3642
  147SAPE    HA16099   1.890   3.258   7.283 -0.2023  1.5983  3.4122
  147SAPE    HB16100   1.799   3.413   7.255 -0.8512  0.3854  1.5385
  147SAPE    C216101   1.934   3.325   7.086  0.5299 -0.1205 -0.0503
  147SAPE    HS16102   1.917   3.217   7.067 -1.7194 -0.0670  1.3448
  147SAPE   O2116103   2.069   3.356   7.050  0.1685 -0.0730 -0.0254
  147SAPE   C2116104   2.159   3.272   7.090 -0.5347  0.4447 -0.1372
  147SAPE   O2216105   2.140   3.174   7.159  0.2462  0.0527  0.0573
  147SAPE   C2216106   2.300   3.314   7.051 -0.3827  0.0810 -0.0358
  147SAPE   H2R16107   2.309   3.416   7.093  0.3253  0.8431 -1.9689
  147SAPE   H2S16108   2.377   3.264   7.114 -1.1431 -0.8488  0.1794
  147SAPE    C316109   1.837   3.407   6.996 -0.3542 -0.2961 -0.3997
  147SAPE    HX16110   1.867   3.392   6.890  0.4371 -0.1795 -0.2021
  147SAPE    HY16111   1.848   3.517   7.005 -0.6181 -0.1799 -1.3372
  147SAPE   O3116112   1.700   3.365   7.012  0.4336 -0.3137  0.0603
  147SAPE   C3116113   1.641   3.287   6.922  0.3867 -0.5826  0.0638
  147SAPE   O3216114   1.699   3.236   6.827 -0.2785  0.0599 -0.1438
  147SAPE   C3216115   1.489   3.275   6.953  0.1152 -0.2494 -0.6303
  147SAPE   H2X16116   1.431   3.369   6.954 -0.1219 -0.3765 -1.6361
  147SAPE   H2Y16117   1.487   3.232   7.056  2.2936 -0.8088 -0.7551
  147SAPE   C2316118   2.321   3.326   6.896  0.2267 -0.0777  0.6549
  147SAPE   H3R16119   2.226   3.358   6.848 -0.4278  0.3692  2.1669
  147SAPE   H3S16120   2.353   3.225   6.861 -0.4308  0.1907 -0.7794
  147SAPE   C2416121   2.432   3.426   6.857  0.0081 -0.0495  0.4626
  147SAPE   H4R16122   2.451   3.403   6.750 -2.4692 -0.1236 -0.0034
  147SAPE   H4S16123   2.525   3.391   6.908  0.7537  3.6182  1.9031
  147SAPE   C2516124   2.400   3.569   6.889 -0.3866  0.1342 -0.0806
  147SAPE   H5R16125   2.433   3.606   6.987  0.5855  0.0625 -0.3661
  147SAPE   C2616126   2.333   3.648   6.802 -0.6562 -0.6584 -0.1040
  147SAPE   H6R16127   2.306   3.750   6.834 -1.3271 -1.0174  0.5046
  147SAPE   C2716128   2.293   3.614   6.662 -0.4191  0.6703 -0.2894
  147SAPE   H7R16129   2.187   3.639   6.641 -0.4334  0.7929 -0.0740
  147SAPE   H7S16130   2.267   3.507   6.648 -1.3578  0.8695 -0.1493
  147SAPE   C2816131   2.386   3.658   6.551 -0.4101 -0.5751  0.1273
  147SAPE   H8R16132   2.489   3.622   6.560  0.6028  1.4691 -2.1194
  147SAPE   C2916133   2.349   3.719   6.438 -0.0111  0.1580  0.3557
  147SAPE   H9R16134   2.433   3.742   6.371 -0.1678 -1.9469 -0.6426
  147SAPE  C21016135   2.212   3.769   6.406  0.8287  0.3218  0.0158
  147SAPE  H10R16136   2.220   3.868   6.355  2.2339 -0.4083 -1.2506
  147SAPE  H10S16137   2.153   3.776   6.500  0.5357 -1.9228  0.0577
  147SAPE  C21116138   2.141   3.661   6.331  0.3122  0.8550 -0.5018
  147SAPE  H11R16139   2.074   3.602   6.395  1.9091 -1.3109 -0.7080
  147SAPE  C21216140   2.139   3.648   6.194 -0.4540 -0.0073 -0.6118
  147SAPE  H12R16141   2.092   3.561   6.147 -3.5539  1.4055 -0.3563
  147SAPE  C21316142   2.226   3.737   6.107 -0.6098 -0.2530  0.2041
  147SAPE  H13R16143   2.278   3.814   6.167 -0.7158  0.5404 -0.6881
  147SAPE  H13S16144   2.165   3.794   6.033 -1.8716 -3.0812 -1.1041
  147SAPE  C21416145   2.344   3.663   6.041 -0.4991  0.0492 -0.5319
  147SAPE  H14R16146   2.420   3.640   6.118  1.0859 -1.6114 -2.4814
  147SAPE  C21516147   2.387   3.663   5.911 -0.4949 -0.1381 -0.6777
  147SAPE  H15R16148   2.471   3.593   5.898  2.7768  3.1896  0.5766
  147SAPE  C21616149   2.320   3.718   5.793 -0.4249  0.0868  0.2735
  147SAPE  H16R16150   2.351   3.815   5.747 -2.3980  0.6532  0.0551
  147SAPE  H16S16151   2.212   3.735   5.813 -0.3901  1.0976 -0.2835
  147SAPE  C21716152   2.317   3.599   5.691  0.2875 -0.4020 -0.5117
  147SAPE  H17R16153   2.264   3.515   5.741  0.0401 -0.1544 -0.3609
  147SAPE  H17S16154   2.421   3.579   5.657  0.0784  0.7348 -1.8971
  147SAPE  C21816155   2.241   3.627   5.554 -0.5367 -0.7668 -0.9338
  147SAPE  H18R16156   2.291   3.702   5.490 -0.5719  0.9358  0.9046
  147SAPE  H18S16157   2.143   3.667   5.589  0.9645  1.4455  1.1167
  147SAPE  C21916158   2.215   3.501   5.476  0.2958  0.6984  0.2123
  147SAPE  H19R16159   2.201   3.422   5.554 -1.4007  3.2628  2.7160
  147SAPE  H19S16160   2.302   3.481   5.410 -0.5496 -0.5140 -0.5965
  147SAPE  C22016161   2.089   3.490   5.382 -1.0923 -0.3720 -0.0706
  147SAPE  H20R16162   2.055   3.385   5.373 -0.8202 -0.3871 -1.0510
  147SAPE  H20S16163   2.108   3.539   5.284 -0.4565 -2.1001 -0.8534
  147SAPE  H20T16164   2.002   3.538   5.432  0.8392  3.6817 -0.1281
  147SAPE   C3316165   1.407   3.182   6.857 -0.8272 -0.0983 -0.3534
  147SAPE   H3X16166   1.300   3.172   6.884 -1.2922  0.2035 -2.0355
  147SAPE   H3Y16167   1.445   3.077   6.860 -0.6905 -0.0337  0.4339
  147SAPE   C3416168   1.411   3.241   6.718 -0.5556  0.0496  0.0977
  147SAPE   H4X16169   1.509   3.221   6.669 -0.1035  2.7536 -0.2599
  147SAPE   H4Y16170   1.386   3.350   6.718 -3.5594 -0.5538  0.7646
  147SAPE   C3516171   1.309   3.178   6.622  0.1717 -0.0849  0.0458
  147SAPE   H5X16172   1.212   3.223   6.650 -0.7530  0.7605 -3.8071
  147SAPE   H5Y16173   1.291   3.069   6.632 -1.5128  0.0762 -0.8025
  147SAPE   C3616174   1.338   3.223   6.481  0.1398 -0.4154  0.5568
  147SAPE   H6X16175   1.413   3.152   6.441  0.8747 -1.7377  3.9328
  147SAPE   H6Y16176   1.364   3.332   6.477  0.8099 -0.4741  2.4213
  147SAPE   C3716177   1.219   3.203   6.378  0.2541 -0.5017  0.0359
  147SAPE   H7X16178   1.140   3.273   6.413  0.4986 -0.2987  0.1814
  147SAPE   H7Y16179   1.172   3.104   6.400 -3.0573  1.0180  0.4702
  147SAPE   C3816180   1.244   3.225   6.232 -0.2294  0.4353 -0.0408
  147SAPE   H8X16181   1.315   3.144   6.206 -0.6454 -0.9443  2.7281
  147SAPE   H8Y16182   1.300   3.321   6.222 -4.2636  3.1940  1.2561
  147SAPE   C3916183   1.119   3.229   6.139 -0.7571 -0.6709  0.2597
  147SAPE   H9X16184   1.056   3.318   6.161  0.0213 -0.2769  0.9817
  147SAPE   H9Y16185   1.051   3.141   6.148 -1.5500  0.1193  2.7874
  147SAPE  C31016186   1.155   3.247   5.989  0.4200 -0.0492 -1.0243
  147SAPE  H10X16187   1.207   3.342   5.966 -0.2168  0.6076  0.1546
  147SAPE  H10Y16188   1.059   3.258   5.933  0.6930  1.4086 -1.2499
  147SAPE  C31116189   1.239   3.136   5.930 -0.6906  0.2370  0.3332
  147SAPE  H11X16190   1.195   3.040   5.965  1.2726 -0.8688 -0.1329
  147SAPE  H11Y16191   1.346   3.138   5.960 -0.6483  1.0784  0.1747
  147SAPE  C31216192   1.221   3.124   5.776  0.0956 -0.4264 -0.2121
  147SAPE  H12X16193   1.111   3.120   5.761 -0.5522 -2.1059  3.6088
  147SAPE  H12Y16194   1.270   3.027   5.751  2.7057 -0.2496  3.4342
  147SAPE  C31316195   1.293   3.240   5.699  0.0641 -0.5301 -0.3151
  147SAPE  H13X16196   1.401   3.221   5.713  0.3471  2.3191  2.3751
  147SAPE  H13Y16197   1.261   3.334   5.749 -0.8269 -1.9574  1.9676
  147SAPE  C31416198   1.250   3.234   5.549 -0.6013  0.1607  0.1707
  147SAPE  H14X16199   1.234   3.128   5.518 -0.0924 -0.2243  1.1565
  147SAPE  H14Y16200   1.325   3.277   5.480 -0.9692  1.5954  0.6443
  147SAPE  C31516201   1.128   3.321   5.534  0.2683 -0.2401  0.8035
  147SAPE  H15X16202   1.122   3.415   5.592 -1.7042  0.0038  0.2826
  147SAPE  H15Y16203   1.037   3.262   5.558 -0.5992  0.4639 -0.5767
  147SAPE  C31616204   1.101   3.368   5.389 -0.2040  0.1355 -0.6705
  147SAPE  H16X16205   1.095   3.288   5.313  2.5234 -0.2180 -0.6266
  147SAPE  H16Y16206   1.188   3.436   5.376 -0.6190  0.7751 -0.1720
  147SAPE  C31716207   0.974   3.453   5.380 -0.3208 -0.7930  0.1204
  147SAPE  H17X16208   0.976   3.535   5.455  1.8446  1.1991 -1.9679
  147SAPE  H17Y16209   0.888   3.386   5.400 -0.7427 -0.2248  0.2378
  147SAPE  C31816210   0.959   3.516   5.234  0.0290  0.4450 -0.0907
  147SAPE  H18X16211   0.919   3.430   5.176 -2.0578  0.8575  0.6408
  147SAPE  H18Y16212   1.058   3.538   5.189 -0.0183  1.4849  0.2991
  147SAPE  H18Z16213   0.887   3.599   5.228 -0.0003  0.3027 -2.3447
  148SAPE     N16214   5.153   4.178   7.523  0.5057 -0.2273  0.1019
  148SAPE   HN116215   5.240   4.130   7.493 -0.8243 -3.2382  0.7127
  148SAPE   HN216216   5.178   4.255   7.588 -2.8457  1.4369 -0.3802
  148SAPE   HN316217   5.088   4.109   7.565 -0.2056 -1.0019 -2.1411
  148SAPE   C1216218   5.089   4.231   7.398  0.0789 -0.4938 -0.1469
  148SAPE  H12A16219   4.979   4.231   7.418  0.2337  2.8729  1.3003
  148SAPE  H12B16220   5.126   4.169   7.313  2.7237  0.0263  0.5541
  148SAPE   C1116221   5.120   4.383   7.388  0.2665  0.5138  0.2218
  148SAPE  H11A16222   5.059   4.418   7.302  1.2400 -2.4998 -1.8456
  148SAPE  H11B16223   5.230   4.395   7.374  0.5865  0.4299  2.2906
  148SAPE     P16224   5.088   4.595   7.531 -0.0935 -0.0424 -0.2575
  148SAPE   O1316225   5.010   4.630   7.653 -0.3618  0.3516  0.1618
  148SAPE   O1416226   5.234   4.625   7.537 -0.2946 -0.5587  0.0762
  148SAPE   O1216227   5.078   4.440   7.512  0.6838 -0.2114  0.1772
  148SAPE   O1116228   5.024   4.656   7.404 -0.1216 -0.2917 -0.4019
  148SAPE    C116229   4.895   4.620   7.368  0.2940  0.1614 -0.2983
  148SAPE    HA16230   4.863   4.519   7.403  0.5698 -0.5803 -2.0375
  148SAPE    HB16231   4.820   4.694   7.403  0.0170 -0.5969  0.7629
  148SAPE    C216232   4.874   4.614   7.208  0.1021  0.6956  0.1458
  148SAPE    HS16233   4.935   4.531   7.167  0.3244  1.3008 -0.7607
  148SAPE   O2116234   4.904   4.740   7.148  0.2746  0.7283  0.0923
  148SAPE   C2116235   5.034   4.765   7.122 -0.2652  0.5463  0.1382
  148SAPE   O2216236   5.115   4.678   7.132 -0.6824  0.2773  0.0667
  148SAPE   C2216237   5.045   4.912   7.072 -0.3511  0.2994  0.2327
  148SAPE   H2R16238   4.943   4.956   7.066 -0.0982  0.8397 -0.1672
  148SAPE   H2S16239   5.106   4.966   7.147 -1.2946  0.9316  0.5621
  148SAPE    C316240   4.727   4.568   7.173 -0.1867  0.4562 -0.7150
  148SAPE    HX16241   4.668   4.642   7.230  1.1297  2.0698 -1.3725
  148SAPE    HY16242   4.701   4.471   7.220 -0.1086  0.9949  0.4649
  148SAPE   O3116243   4.709   4.567   7.029 -0.1302 -0.5953  0.3228
  148SAPE   C3116244   4.600   4.618   6.981  0.1898  0.5901 -0.1192
  148SAPE   O3216245   4.507   4.657   7.050  0.3025 -0.5171  0.0038
  148SAPE   C3216246   4.608   4.620   6.829 -0.1401 -0.3458 -0.1732
  148SAPE   H2X16247   4.602   4.518   6.786  1.5326 -0.5333 -0.0338
  148SAPE   H2Y16248   4.701   4.668   6.793 -0.5796 -0.8263 -2.0489
  148SAPE   C2316249   5.138   4.923   6.941 -0.4645 -0.4389 -0.5466
  148SAPE   H3R16250   5.225   4.862   6.973 -2.2325 -1.5991  2.5082
  148SAPE   H3S16251   5.165   5.028   6.920 -1.7096 -0.1812 -0.9349
  148SAPE   C2416252   5.085   4.847   6.819  0.5646 -0.7564 -0.1980
  148SAPE   H4R16253   5.069   4.739   6.839 -1.5089 -0.1258  2.1580
  148SAPE   H4S16254   5.151   4.853   6.730 -0.4244 -0.2731 -0.9192
  148SAPE   C2516255   4.952   4.903   6.769  0.3055 -0.9468 -0.5961
  148SAPE   H5R16256   4.871   4.905   6.843  1.2290  0.8352  0.4279
  148SAPE   C2616257   4.923   4.959   6.650 -0.2191 -0.5321  0.2566
  148SAPE   H6R16258   4.821   5.000   6.638 -0.4247 -1.3968 -1.1180
  148SAPE   C2716259   5.016   4.967   6.535 -0.4385 -0.2447  0.2176
  148SAPE   H7R16260   5.108   4.907   6.555  0.2816  0.4974 -0.7173
  148SAPE   H7S16261   5.051   5.073   6.538  2.1511 -1.0343  0.5658
  148SAPE   C2816262   4.968   4.949   6.392  0.2986  0.4567  0.9941
  148SAPE   H8R16263   4.877   4.886   6.389 -1.1697  2.4444  1.3208
  148SAPE   C2916264   5.004   5.007   6.270 -0.0685 -0.1225 -0.7645
  148SAPE   H9R16265   4.947   4.985   6.179  1.1731  0.5429 -1.7292
  148SAPE  C21016266   5.110   5.106   6.246  0.6147  0.2336 -0.3344
  148SAPE  H10R16267   5.190   5.055   6.189  0.2706  0.2214 -0.8122
  148SAPE  H10S16268   5.159   5.152   6.335 -0.1849  0.0254  0.2234
  148SAPE  C21116269   5.046   5.221   6.165 -0.4853 -0.5044  0.0977
  148SAPE  H11R16270   4.972   5.286   6.213  2.5710  2.9064  0.5777
  148SAPE  C21216271   5.075   5.246   6.035 -0.1140 -0.1187  1.0154
  148SAPE  H12R16272   5.031   5.329   5.977  0.3010 -0.6363 -0.0607
  148SAPE  C21316273   5.182   5.189   5.943  0.2770  0.3158  0.0904
  148SAPE  H13R16274   5.137   5.186   5.842  0.5017  0.9739 -0.0339
  148SAPE  H13S16275   5.212   5.084   5.965  2.3704  0.8611  0.0297
  148SAPE  C21416276   5.307   5.269   5.944 -0.0298 -0.4829 -0.4763
  148SAPE  H14R16277   5.396   5.216   5.983 -0.5126 -1.4762 -0.6968
  148SAPE  C21516278   5.319   5.396   5.894  0.1942 -0.6335  0.1065
  148SAPE  H15R16279   5.414   5.449   5.906 -0.7376  0.9474  0.9739
  148SAPE  C21616280   5.213   5.470   5.825  0.4084 -0.2175 -0.2854
  148SAPE  H16R16281   5.192   5.566   5.876  0.3608  0.6946 -1.9527
  148SAPE  H16S16282   5.117   5.414   5.823  1.8421 -3.0133  1.7032
  148SAPE  C21716283   5.244   5.485   5.676  0.0329 -0.1755 -0.4569
  148SAPE  H17R16284   5.150   5.497   5.619 -1.0222 -1.0791  1.0070
  148SAPE  H17S16285   5.281   5.390   5.633 -1.7246 -0.4499 -1.4554
  148SAPE  C21816286   5.333   5.602   5.644 -0.3766 -0.1471  0.0065
  148SAPE  H18R16287   5.425   5.605   5.706  0.0044 -0.5591 -0.5374
  148SAPE  H18S16288   5.286   5.701   5.665  2.2030  0.9477  0.9596
  148SAPE  C21916289   5.403   5.584   5.505 -0.4866 -1.0177 -0.2475
  148SAPE  H19R16290   5.447   5.482   5.497 -0.5187 -1.0639  0.1477
  148SAPE  H19S16291   5.477   5.665   5.490 -1.8714  0.7689  1.9005
  148SAPE  C22016292   5.311   5.578   5.381 -0.0767  0.1793 -0.4888
  148SAPE  H20R16293   5.256   5.674   5.369 -1.0395 -0.4942 -1.6985
  148SAPE  H20S16294   5.243   5.493   5.406 -1.1696  0.4730 -2.3276
  148SAPE  H20T16295   5.375   5.548   5.296  1.7745  0.1734  0.8370
  148SAPE   C3316296   4.486   4.700   6.769 -0.0939  0.5684 -0.1566
  148SAPE   H3X16297   4.485   4.798   6.823  1.6235  0.2529  0.4991
  148SAPE   H3Y16298   4.393   4.642   6.788 -0.6710  1.3940 -0.4289
  148SAPE   C3416299   4.507   4.737   6.618 -0.5572  0.5016  0.0598
  148SAPE   H4X16300   4.588   4.810   6.601 -1.6687  1.3800 -1.8914
  148SAPE   H4Y16301   4.418   4.787   6.573 -1.7469 -2.1121 -0.6947
  148SAPE   C3516302   4.533   4.617   6.523 -0.0569  0.1096  0.2825
  148SAPE   H5X16303   4.434   4.567   6.515 -1.0590  1.6437  2.2910
  148SAPE   H5Y16304   4.605   4.543   6.564 -0.7610 -0.5205  0.4071
  148SAPE   C3616305   4.590   4.654   6.384  0.1412  0.0681  0.8801
  148SAPE   H6X16306   4.585   4.556   6.332  0.2643 -1.3725  3.4404
  148SAPE   H6Y16307   4.694   4.691   6.388  0.0631  0.3406  0.4620
  148SAPE   C3716308   4.508   4.760   6.299 -0.4572 -0.5141  0.7753
  148SAPE   H7X16309   4.499   4.847   6.367  0.0822 -0.3481  0.6375
  148SAPE   H7Y16310   4.400   4.737   6.288 -0.1952 -0.6630 -2.7811
  148SAPE   C3816311   4.586   4.810   6.182 -0.8821  0.2719 -0.7931
  148SAPE   H8X16312   4.604   4.723   6.115  3.1193 -0.5156  0.9736
  148SAPE   H8Y16313   4.680   4.847   6.230 -0.8515 -0.5002 -0.2403
  148SAPE   C3916314   4.533   4.923   6.102 -0.3355  0.0813 -0.5528
  148SAPE   H9X16315   4.523   5.015   6.163  0.5674 -0.7462  0.8792
  148SAPE   H9Y16316   4.431   4.886   6.077  0.2184 -1.0198 -1.2678
  148SAPE  C31016317   4.623   4.971   5.984 -0.3456 -0.1318 -0.3804
  148SAPE  H10X16318   4.664   4.881   5.934  0.2061 -1.2277  1.9079
  148SAPE  H10Y16319   4.706   5.030   6.029 -1.0083  0.1213  0.5503
  148SAPE  C31116320   4.560   5.064   5.883  0.0477  0.9761  0.2732
  148SAPE  H11X16321   4.504   5.147   5.931  0.3014  1.0245  0.4900
  148SAPE  H11Y16322   4.498   5.000   5.818 -0.8459  1.0499  1.0351
  148SAPE  C31216323   4.657   5.135   5.783 -0.5731 -0.5742  0.4883
  148SAPE  H12X16324   4.709   5.213   5.843  1.2138 -1.3019 -0.0693
  148SAPE  H12Y16325   4.613   5.173   5.689 -1.7416 -2.5341  0.1771
  148SAPE  C31316326   4.774   5.044   5.715  0.2328 -0.2555 -0.1820
  148SAPE  H13X16327   4.722   4.986   5.636 -2.9705  2.0886  0.0257
  148SAPE  H13Y16328   4.808   4.986   5.804  1.5641  0.7463  0.0090
  148SAPE  C31416329   4.883   5.140   5.667  0.1546 -0.6053 -0.1830
  148SAPE  H14X16330   4.913   5.211   5.746 -0.3428  0.3205 -0.8133
  148SAPE  H14Y16331   4.854   5.197   5.577  2.9792 -0.6698 -1.2274
  148SAPE  C31516332   5.007   5.061   5.627 -0.3884 -0.6177  0.0443
  148SAPE  H15X16333   4.978   4.991   5.546 -0.8595  0.0769 -0.4053
  148SAPE  H15Y16334   5.044   5.004   5.715 -1.4523  0.0054  0.9172
  148SAPE  C31616335   5.122   5.148   5.583  0.5390  0.9603  0.8712
  148SAPE  H16X16336   5.216   5.093   5.561  1.1541  2.1485  0.3894
  148SAPE  H16Y16337   5.154   5.227   5.655  0.8045  2.7996 -1.1549
  148SAPE  C31716338   5.094   5.233   5.452 -0.3707  0.2826  0.4518
  148SAPE  H17X16339   5.133   5.335   5.469  0.6870 -0.0036 -0.1987
  148SAPE  H17Y16340   4.990   5.226   5.412  0.0714  0.7153 -0.8234
  148SAPE  C31816341   5.174   5.168   5.329  0.2936 -0.1858  1.1294
  148SAPE  H18X16342   5.128   5.191   5.231 -0.5310  0.6925  1.7133
  148SAPE  H18Y16343   5.180   5.057   5.329  0.9154 -0.1843  2.6833
  148SAPE  H18Z16344   5.278   5.208   5.328 -0.1370  1.0088 -1.1849
  149SAPE     N16345   1.000   1.723   7.746 -0.0071  0.2302  0.3976
  149SAPE   HN116346   0.910   1.718   7.796 -0.7950 -0.9398 -1.0563
  149SAPE   HN216347   1.073   1.785   7.786 -0.9347  1.7579 -0.1794
  149SAPE   HN316348   0.979   1.763   7.652 -1.1279 -0.1406  0.4863
  149SAPE   C1216349   1.063   1.589   7.723 -0.0717  0.8671 -0.5576
  149SAPE  H12A16350   1.063   1.543   7.824 -0.0403 -0.8190 -1.2910
  149SAPE  H12B16351   1.163   1.595   7.676 -1.2077  0.7607 -3.1645
  149SAPE   C1116352   0.978   1.491   7.637 -0.1584  0.2636  0.1120
  149SAPE  H11A16353   1.018   1.389   7.654 -0.4859  0.2032  0.5450
  149SAPE  H11B16354   0.988   1.523   7.531  0.0887 -1.6771 -0.4899
  149SAPE     P16355   0.739   1.396   7.657  0.1926  0.4815  0.0557
  149SAPE   O1316356   0.783   1.289   7.751  0.0317  0.1076 -0.2043
  149SAPE   O1416357   0.607   1.453   7.680 -0.0175  0.2307 -0.3898
  149SAPE   O1216358   0.841   1.508   7.665  0.1551 -0.2973 -0.2999
  149SAPE   O1116359   0.759   1.343   7.508 -0.3476  0.4688 -0.1971
  149SAPE    C116360   0.785   1.203   7.473  0.3461  0.1846  0.8495
  149SAPE    HA16361   0.892   1.190   7.498  0.2422  0.4923  1.5057
  149SAPE    HB16362   0.724   1.130   7.531  0.2983  0.4329  1.1142
  149SAPE    C216363   0.759   1.189   7.322 -0.2814 -0.6687 -0.2709
  149SAPE    HS16364   0.752   1.080   7.299  2.1060 -0.3947 -2.8516
  149SAPE   O2116365   0.871   1.250   7.249  0.2994  0.4723  0.1006
  149SAPE   C2116366   0.975   1.164   7.238 -0.6460 -0.1041 -0.2070
  149SAPE   O2216367   0.993   1.065   7.304 -0.3203 -0.1451 -0.0163
  149SAPE   C2216368   1.089   1.229   7.147  0.1454  1.3865  0.7600
  149SAPE   H2R16369   1.047   1.302   7.075 -1.2950 -1.5808 -1.6750
  149SAPE   H2S16370   1.161   1.266   7.222  0.9103  0.1425  0.6770
  149SAPE    C316371   0.630   1.254   7.272 -0.2676  0.6401  0.4827
  149SAPE    HX16372   0.640   1.365   7.268  0.8140  0.5605  0.6034
  149SAPE    HY16373   0.554   1.237   7.351 -0.5018 -1.6278 -0.1584
  149SAPE   O3116374   0.593   1.200   7.143 -0.4883  0.1751  0.0868
  149SAPE   C3116375   0.475   1.239   7.105 -0.4766 -0.1550  0.1406
  149SAPE   O3216376   0.392   1.303   7.169 -0.1749  0.3552  0.5752
  149SAPE   C3216377   0.448   1.184   6.960 -0.7037 -0.3900 -0.2938
  149SAPE   H2X16378   0.401   1.084   6.967 -1.2171 -0.4132 -3.1308
  149SAPE   H2Y16379   0.550   1.178   6.918  0.0207  0.0329  1.3194
  149SAPE   C2316380   1.177   1.131   7.070 -0.0647  0.6746 -0.6006
  149SAPE   H3R16381   1.107   1.061   7.019  0.3285 -1.6639  1.8450
  149SAPE   H3S16382   1.220   1.073   7.154 -1.0797  0.2564 -0.3447
  149SAPE   C2416383   1.281   1.190   6.968  0.0267  0.2584  0.2974
  149SAPE   H4R16384   1.326   1.277   7.021  1.1398  1.0537 -1.8469
  149SAPE   H4S16385   1.222   1.234   6.885 -0.4261  0.7298  0.8635
  149SAPE   C2516386   1.391   1.104   6.914 -0.0361  0.5966 -0.1256
  149SAPE   H5R16387   1.454   1.061   6.993  0.9491 -0.0813 -1.2313
  149SAPE   C2616388   1.429   1.075   6.792  0.4618 -1.3413  0.5870
  149SAPE   H6R16389   1.521   1.018   6.778  1.1137 -0.5074  1.3489
  149SAPE   C2716390   1.366   1.136   6.674  0.4534  0.3958  0.0593
  149SAPE   H7R16391   1.443   1.154   6.595  1.3676 -1.7249  0.3972
  149SAPE   H7S16392   1.329   1.237   6.704 -1.0431 -0.2252  0.3549
  149SAPE   C2816393   1.256   1.058   6.616  0.2266  0.0396  0.0802
  149SAPE   H8R16394   1.220   0.972   6.675  2.3006 -1.9473 -1.4119
  149SAPE   C2916395   1.197   1.087   6.500 -0.5700  0.1923  0.4250
  149SAPE   H9R16396   1.120   1.016   6.465 -1.2602  1.6751 -1.1976
  149SAPE  C21016397   1.243   1.182   6.386  1.0669 -0.6727 -0.8617
  149SAPE  H10R16398   1.290   1.272   6.431  1.4562 -0.4874 -1.6204
  149SAPE  H10S16399   1.153   1.221   6.334  1.4212  1.0745 -0.2232
  149SAPE  C21116400   1.330   1.120   6.283 -0.2750 -0.3124 -0.1973
  149SAPE  H11R16401   1.425   1.083   6.324 -1.1344 -1.7003  0.6206
  149SAPE  C21216402   1.323   1.090   6.148  0.4408 -0.4920 -0.1919
  149SAPE  H12R16403   1.395   1.022   6.100 -0.1465 -0.9845 -0.3864
  149SAPE  C21316404   1.214   1.128   6.049 -0.1145 -0.0884 -0.3259
  149SAPE  H13R16405   1.250   1.204   5.975 -0.6670 -0.2345 -0.7481
  149SAPE  H13S16406   1.135   1.182   6.105  0.4606 -0.7039  1.1306
  149SAPE  C21416407   1.160   1.020   5.966 -0.0951 -0.0180  0.2528
  149SAPE  H14R16408   1.078   0.963   6.013 -0.5134  0.6568  0.3493
  149SAPE  C21516409   1.208   0.980   5.845 -0.4098  0.1655  0.6394
  149SAPE  H15R16410   1.160   0.900   5.788  2.2566 -1.7078  0.8796
  149SAPE  C21616411   1.332   1.040   5.783  0.2171  0.4436 -0.6990
  149SAPE  H16R16412   1.387   0.958   5.733 -0.6570 -1.1107  0.7902
  149SAPE  H16S16413   1.399   1.083   5.860  0.8208  1.3686 -1.7081
  149SAPE  C21716414   1.310   1.154   5.679 -0.0299  0.4835  0.6543
  149SAPE  H17R16415   1.392   1.227   5.660 -0.1721  0.4256 -0.2533
  149SAPE  H17S16416   1.215   1.206   5.706 -2.6433 -2.6696 -1.7034
  149SAPE  C21816417   1.271   1.100   5.539 -0.3366  0.3944 -0.0459
  149SAPE  H18R16418   1.176   1.043   5.541 -1.5305  2.2736 -0.4847
  149SAPE  H18S16419   1.352   1.029   5.512  2.2775  1.6969  3.5336
  149SAPE  C21916420   1.266   1.213   5.434 -0.2657  0.4889  0.1284
  149SAPE  H19R16421   1.363   1.266   5.439  0.4253 -0.8481  1.0688
  149SAPE  H19S16422   1.179   1.278   5.461 -0.6930  0.7404 -1.7083
  149SAPE  C22016423   1.251   1.166   5.283 -0.3432  0.6073  1.4143
  149SAPE  H20R16424   1.333   1.096   5.256 -1.7181 -1.2121  1.7785
  149SAPE  H20S16425   1.238   1.251   5.212  2.3962  0.3586  0.4638
  149SAPE  H20T16426   1.156   1.111   5.269  0.4100 -0.2636 -0.7791
  149SAPE   C3316427   0.367   1.281   6.871 -0.7084  0.3327  0.0939
  149SAPE   H3X16428   0.413   1.382   6.879  0.1972 -0.1310  0.8884
  149SAPE   H3Y16429   0.261   1.288   6.902 -0.3786  1.9817  0.9998
  149SAPE   C3416430   0.381   1.225   6.729 -0.1268  0.2265 -0.1109
  149SAPE   H4X16431   0.336   1.124   6.733 -0.0938  0.2362  0.6132
  149SAPE   H4Y16432   0.489   1.210   6.708  0.2197 -0.7503  2.0282
  149SAPE   C3516433   0.309   1.298   6.619  0.9362 -0.8567 -0.0814
  149SAPE   H5X16434   0.365   1.385   6.579 -1.9469  0.8069 -0.7275
  149SAPE   H5Y16435   0.214   1.335   6.662  0.0990  1.2540 -3.4107
  149SAPE   C3616436   0.266   1.218   6.498  0.2431 -0.3900  0.8882
  149SAPE   H6X16437   0.155   1.207   6.501 -0.2383  3.0961  0.4945
  149SAPE   H6Y16438   0.308   1.117   6.518 -0.6286 -0.6793  1.3339
  149SAPE   C3716439   0.309   1.264   6.354 -0.1138 -0.7920 -0.7372
  149SAPE   H7X16440   0.419   1.278   6.354 -0.0290 -1.1289  1.6126
  149SAPE   H7Y16441   0.277   1.369   6.335 -0.8102 -0.9618 -0.5578
  149SAPE   C3816442   0.263   1.186   6.236  0.0057  0.1026  0.0689
  149SAPE   H8X16443   0.152   1.179   6.236 -0.0527  0.6151  1.6634
  149SAPE   H8Y16444   0.298   1.080   6.238 -1.5423 -0.4341 -0.3740
  149SAPE   C3916445   0.324   1.244   6.109 -0.3246 -0.2550  0.1930
  149SAPE   H9X16446   0.434   1.255   6.114 -0.3021 -0.1787 -0.3595
  149SAPE   H9Y16447   0.274   1.341   6.088  1.2290  1.1969  2.7322
  149SAPE  C31016448   0.297   1.146   5.988 -0.0949 -0.3459 -0.2550
  149SAPE  H10X16449   0.190   1.152   5.956  0.8200 -1.3085 -3.9864
  149SAPE  H10Y16450   0.308   1.041   6.024  0.2964  1.1608  4.7349
  149SAPE  C31116451   0.384   1.176   5.860  0.3924  0.3435  0.6983
  149SAPE  H11X16452   0.414   1.085   5.804 -0.4389 -0.2275  1.1465
  149SAPE  H11Y16453   0.484   1.210   5.896  0.7455  1.3705 -1.1759
  149SAPE  C31216454   0.322   1.262   5.748 -0.4281 -0.1749 -0.5057
  149SAPE  H12X16455   0.309   1.366   5.786  1.9392 -0.5252  1.4871
  149SAPE  H12Y16456   0.227   1.209   5.729  0.1535 -0.8423 -1.6747
  149SAPE  C31316457   0.412   1.290   5.623 -0.0276 -0.1352  0.1485
  149SAPE  H13X16458   0.425   1.188   5.583  0.9953  0.1479 -0.2898
  149SAPE  H13Y16459   0.511   1.324   5.659 -0.2096 -0.8076  1.3340
  149SAPE  C31416460   0.364   1.392   5.516  0.0486  0.2586  0.2286
  149SAPE  H14X16461   0.380   1.497   5.549 -1.3074  0.4532  0.3435
  149SAPE  H14Y16462   0.253   1.383   5.509 -0.0244  2.0249 -3.1883
  149SAPE  C31516463   0.436   1.362   5.377  0.6993 -0.0701  0.3676
  149SAPE  H15X16464   0.410   1.267   5.325 -0.2224  0.4012 -0.0530
  149SAPE  H15Y16465   0.542   1.351   5.410 -0.0617 -0.3565  2.9932
  149SAPE  C31616466   0.419   1.475   5.270 -0.3011 -0.6600  0.5757
  149SAPE  H16X16467   0.428   1.570   5.326  1.0298  0.6262 -1.6547
  149SAPE  H16Y16468   0.312   1.474   5.241 -0.3433  2.8369  0.2114
  149SAPE  C31716469   0.512   1.474   5.144  0.7869  0.7971 -0.6614
  149SAPE  H17X16470   0.465   1.539   5.068 -2.4771 -1.0063 -0.3638
  149SAPE  H17Y16471   0.515   1.372   5.101  0.5045  0.3877  0.2645
  149SAPE  C31816472   0.658   1.508   5.175 -0.3621  0.1334  0.1624
  149SAPE  H18X16473   0.707   1.437   5.246  0.4723  0.7273  0.2009
  149SAPE  H18Y16474   0.662   1.610   5.219  0.0683  0.3613 -0.3888
  149SAPE  H18Z16475   0.709   1.521   5.077  0.0663 -1.2714  0.1860
  150SAPE     N16476   2.269   1.901   7.703  0.4009 -0.5403 -0.6432
  150SAPE   HN116477   2.265   1.821   7.770 -3.0325  1.0627  1.4039
  150SAPE   HN216478   2.315   1.987   7.739 -0.3413  0.4295 -1.9158
  150SAPE   HN316479   2.171   1.937   7.701  0.6733  0.1867 -2.4472
  150SAPE   C1216480   2.306   1.852   7.567 -0.2817  0.2488 -0.5036
  150SAPE  H12A16481   2.349   1.930   7.501  0.1802  0.5803  0.1811
  150SAPE  H12B16482   2.212   1.813   7.521 -1.0852  0.0699  1.2025
  150SAPE   C1116483   2.412   1.742   7.578 -0.4306  0.4398 -0.1541
  150SAPE  H11A16484   2.500   1.774   7.638  0.2274 -0.4401 -0.6304
  150SAPE  H11B16485   2.448   1.710   7.478  0.7046  2.2206 -0.3582
  150SAPE     P16486   2.261   1.522   7.577  0.0302  0.0661  0.0593
  150SAPE   O1316487   2.288   1.403   7.662 -0.4241  0.0746 -0.2015
  150SAPE   O1416488   2.122   1.565   7.544 -0.2951 -0.8137  0.2044
  150SAPE   O1216489   2.344   1.638   7.647 -0.0108 -0.5496 -0.0193
  150SAPE   O1116490   2.350   1.508   7.445 -0.4072  0.6447 -0.2084
  150SAPE    C116491   2.303   1.527   7.313 -0.3171 -0.0404  0.4858
  150SAPE    HA16492   2.237   1.616   7.307  0.0207  0.1084 -1.9796
  150SAPE    HB16493   2.388   1.574   7.258 -0.4091  1.2285  1.3714
  150SAPE    C216494   2.256   1.396   7.252 -0.1302 -1.3017 -0.3657
  150SAPE    HS16495   2.221   1.334   7.337  0.6008 -0.7042  0.3899
  150SAPE   O2116496   2.368   1.336   7.180  0.5450  0.3234  0.1070
  150SAPE   C2116497   2.367   1.207   7.175  0.3843  0.6563 -0.3732
  150SAPE   O2216498   2.278   1.132   7.225 -0.9437 -0.1566  0.0690
  150SAPE   C2216499   2.494   1.159   7.110 -0.6197  0.1364 -1.2260
  150SAPE   H2R16500   2.520   1.229   7.028  0.9498  0.3590 -0.5806
  150SAPE   H2S16501   2.571   1.171   7.189 -1.0947 -0.5580 -0.6441
  150SAPE    C316502   2.136   1.429   7.157  0.6184  0.2571 -0.1362
  150SAPE    HX16503   2.172   1.494   7.074  0.5505 -0.8274 -1.0281
  150SAPE    HY16504   2.063   1.490   7.215  0.2375 -1.2048  0.9708
  150SAPE   O3116505   2.074   1.310   7.094  0.1414 -0.0451 -0.0461
  150SAPE   C3116506   1.991   1.240   7.177  0.2258 -0.6646 -0.1284
  150SAPE   O3216507   1.959   1.277   7.289 -1.2237 -0.2326  0.1703
  150SAPE   C3216508   1.955   1.108   7.110  0.1820  0.6738  0.5705
  150SAPE   H2X16509   1.980   1.024   7.178  0.5464  1.8594  1.9314
  150SAPE   H2Y16510   2.002   1.108   7.009 -1.5482 -1.2375 -0.3166
  150SAPE   C2316511   2.482   1.009   7.061 -0.1252  0.2849 -0.9152
  150SAPE   H3R16512   2.425   1.020   6.967 -0.7442  2.4405 -0.3514
  150SAPE   H3S16513   2.427   0.937   7.126  0.7142 -0.3298 -0.8617
  150SAPE   C2416514   2.620   0.947   7.024 -0.7004 -0.0644  0.5632
  150SAPE   H4R16515   2.599   0.873   6.944  0.7654 -0.1492  0.2221
  150SAPE   H4S16516   2.657   0.890   7.112  0.6723  2.1468  1.5253
  150SAPE   C2516517   2.726   1.037   6.980 -0.6033  0.1303  0.5065
  150SAPE   H5R16518   2.815   1.052   7.041  0.2266 -0.0284 -0.6335
  150SAPE   C2616519   2.735   1.088   6.853 -0.2165  0.3990 -0.3415
  150SAPE   H6R16520   2.827   1.141   6.825  1.5679 -1.3569  1.7779
  150SAPE   C2716521   2.644   1.078   6.737 -0.3910  0.1384  0.6486
  150SAPE   H7R16522   2.647   1.177   6.686  0.1657  0.7363  1.8057
  150SAPE   H7S16523   2.544   1.076   6.785 -0.2583  1.8334  1.0820
  150SAPE   C2816524   2.654   0.965   6.636 -0.4628  0.0410 -0.9523
  150SAPE   H8R16525   2.673   0.869   6.688 -0.4994  0.6905  0.3064
  150SAPE   C2916526   2.651   0.962   6.507 -0.1520  0.0390  0.5534
  150SAPE   H9R16527   2.649   0.860   6.465  0.0950 -0.3410  1.4455
  150SAPE  C21016528   2.625   1.074   6.408 -0.3435  0.0353 -0.2229
  150SAPE  H10R16529   2.655   1.167   6.460 -0.4751 -1.2682  2.3715
  150SAPE  H10S16530   2.518   1.096   6.388 -0.3941  0.6126  0.6060
  150SAPE  C21116531   2.727   1.059   6.303  0.2991  0.0059 -0.1249
  150SAPE  H11R16532   2.830   1.051   6.341  0.0592  1.7800  1.0144
  150SAPE  C21216533   2.704   1.071   6.177  0.7799 -0.5559  0.7616
  150SAPE  H12R16534   2.789   1.061   6.109 -1.2288  1.6493 -2.3712
  150SAPE  C21316535   2.569   1.088   6.110  0.2190 -0.2103  0.2372
  150SAPE  H13R16536   2.547   1.197   6.105 -0.3546 -0.2119  2.0248
  150SAPE  H13S16537   2.482   1.047   6.166  1.2953  0.0872  2.2426
  150SAPE  C21416538   2.573   1.056   5.961  0.0504  0.5012 -0.3411
  150SAPE  H14R16539   2.576   1.139   5.889  0.8385  0.3603 -0.4806
  150SAPE  C21516540   2.557   0.932   5.911  0.5737  0.4530 -0.0180
  150SAPE  H15R16541   2.555   0.927   5.801 -1.0934  0.7290 -0.0320
  150SAPE  C21616542   2.527   0.802   5.993 -0.0337  0.6954 -0.3558
  150SAPE  H16R16543   2.434   0.758   5.950  1.2611 -1.2884 -1.2873
  150SAPE  H16S16544   2.499   0.822   6.099 -1.8874 -1.5724 -0.3350
  150SAPE  C21716545   2.630   0.694   5.963  0.0387 -0.4433  0.0608
  150SAPE  H17R16546   2.646   0.672   5.855 -2.3902  0.5800 -0.5724
  150SAPE  H17S16547   2.611   0.593   6.006  0.2777 -0.6094 -0.2202
  150SAPE  C21816548   2.768   0.725   6.025 -0.2806 -0.5589  0.0689
  150SAPE  H18R16549   2.757   0.757   6.130  2.6313  2.3475 -0.3398
  150SAPE  H18S16550   2.814   0.811   5.971 -1.5289  1.0285  1.4346
  150SAPE  C21916551   2.863   0.607   6.027 -0.0967  0.0139 -0.5042
  150SAPE  H19R16552   2.821   0.511   5.990  1.7393 -1.1075  0.1414
  150SAPE  H19S16553   2.908   0.586   6.126  2.8453 -0.6301 -1.8323
  150SAPE  C22016554   2.976   0.627   5.931 -0.2601  0.5928  0.8741
  150SAPE  H20R16555   3.041   0.709   5.970  1.8205 -0.2692 -0.6123
  150SAPE  H20S16556   2.949   0.670   5.832  0.3996 -0.1795  0.3510
  150SAPE  H20T16557   3.037   0.535   5.921 -0.2474  0.6941 -0.0539
  150SAPE   C3316558   1.802   1.106   7.086  0.5827  0.2016  0.0354
  150SAPE   H3X16559   1.748   1.178   7.151  3.3263 -0.0466  2.7991
  150SAPE   H3Y16560   1.766   1.001   7.085  1.7700 -0.2331 -0.8058
  150SAPE   C3416561   1.763   1.166   6.950  0.2410 -0.0317 -0.6548
  150SAPE   H4X16562   1.813   1.266   6.953 -0.1585  0.1459  1.7609
  150SAPE   H4Y16563   1.653   1.184   6.950 -0.2813 -2.8138  0.9073
  150SAPE   C3516564   1.803   1.088   6.823 -0.3991  1.2134 -0.5501
  150SAPE   H5X16565   1.765   0.985   6.832  0.3092  1.1313  3.8129
  150SAPE   H5Y16566   1.913   1.079   6.809 -0.1141  0.9284  1.5089
  150SAPE   C3616567   1.767   1.175   6.704  0.5369 -0.7003 -0.3987
  150SAPE   H6X16568   1.809   1.277   6.715 -1.7637  0.3824 -1.0259
  150SAPE   H6Y16569   1.657   1.190   6.701  0.3744 -1.4930  0.8132
  150SAPE   C3716570   1.789   1.115   6.562 -0.4164  0.0304 -0.2573
  150SAPE   H7X16571   1.749   1.013   6.547 -1.7484  0.2653  1.4359
  150SAPE   H7Y16572   1.898   1.091   6.560 -0.4654 -0.2709  0.6543
  150SAPE   C3816573   1.754   1.187   6.435  0.6080 -0.1713 -0.2199
  150SAPE   H8X16574   1.831   1.266   6.429  0.8177 -0.3217  0.4121
  150SAPE   H8Y16575   1.651   1.229   6.436 -0.0568 -1.5190  3.1043
  150SAPE   C3916576   1.778   1.103   6.306  0.7021  0.2605 -0.6865
  150SAPE   H9X16577   1.685   1.047   6.282 -0.1418  1.7659 -1.0248
  150SAPE   H9Y16578   1.869   1.040   6.323 -0.2878 -0.5304  2.2623
  150SAPE  C31016579   1.815   1.196   6.192 -0.0606  0.2318 -0.0469
  150SAPE  H10X16580   1.858   1.135   6.110 -1.6899 -0.1430 -0.6716
  150SAPE  H10Y16581   1.884   1.274   6.232 -2.3308  1.2182  2.2580
  150SAPE  C31116582   1.684   1.254   6.128 -0.1876  0.1746  0.5679
  150SAPE  H11X16583   1.668   1.342   6.194  1.2684  0.8421  0.0681
  150SAPE  H11Y16584   1.603   1.177   6.130  1.4442 -1.6206  0.8116
  150SAPE  C31216585   1.704   1.302   5.990  0.3681 -0.0236 -0.3061
  150SAPE  H12X16586   1.778   1.383   5.976  0.7190  0.4982  3.4187
  150SAPE  H12Y16587   1.612   1.353   5.957  0.5583  0.2188 -0.4668
  150SAPE  C31316588   1.734   1.187   5.891  0.1506  0.3382 -0.6641
  150SAPE  H13X16589   1.663   1.102   5.903  2.4882 -1.5650  0.4416
  150SAPE  H13Y16590   1.839   1.157   5.911  0.1287  0.2666 -0.6564
  150SAPE  C31416591   1.718   1.222   5.745 -0.3739  0.4035  0.1835
  150SAPE  H14X16592   1.767   1.321   5.732 -0.1701  0.0322 -2.2979
  150SAPE  H14Y16593   1.608   1.219   5.728 -0.8010 -0.4843  2.6704
  150SAPE  C31516594   1.808   1.125   5.661 -0.6486  0.1979 -0.0223
  150SAPE  H15X16595   1.769   1.025   5.686  0.2854 -0.4349 -1.0257
  150SAPE  H15Y16596   1.914   1.137   5.693 -0.4395  0.2959 -0.7414
  150SAPE  C31616597   1.812   1.138   5.502 -0.5093  0.3447 -0.2342
  150SAPE  H16X16598   1.890   1.068   5.465 -1.8399 -0.4096 -1.7292
  150SAPE  H16Y16599   1.847   1.241   5.481  0.6094  0.0574  0.1886
  150SAPE  C31716600   1.679   1.096   5.447 -0.4221 -0.1885  0.1901
  150SAPE  H17X16601   1.603   1.165   5.489  0.6129  0.8945  0.3736
  150SAPE  H17Y16602   1.656   0.994   5.483 -0.6536  0.1437  1.0173
  150SAPE  C31816603   1.674   1.111   5.296 -0.1608 -1.1563 -0.4430
  150SAPE  H18X16604   1.571   1.114   5.255 -0.2103 -0.5484 -0.2798
  150SAPE  H18Y16605   1.722   1.039   5.226 -1.1970 -0.7176 -1.6497
  150SAPE  H18Z16606   1.733   1.204   5.279 -1.1482  0.3455  3.3802
  151SAPE     N16607   6.039   3.993   7.129  0.5538  0.3973 -0.5116
  151SAPE   HN116608   6.074   4.080   7.083  2.5105 -0.4032 -0.6604
  151SAPE   HN216609   5.955   3.962   7.076  1.2596 -2.9398  0.1226
  151SAPE   HN316610   5.996   4.022   7.219 -1.0535 -0.7252 -0.8772
  151SAPE   C1216611   6.155   3.902   7.159 -0.0427  0.8243  0.4059
  151SAPE  H12A16612   6.244   3.935   7.102 -0.6064  0.8109 -0.4991
  151SAPE  H12B16613   6.143   3.802   7.113  1.3606 -0.0954  1.9254
  151SAPE   C1116614   6.182   3.912   7.311  0.4090  0.0117  0.5777
  151SAPE  H11A16615   6.266   3.844   7.335 -0.0741 -1.1288 -0.8540
  151SAPE  H11B16616   6.089   3.892   7.369  0.6118  1.1953  1.3472
  151SAPE     P16617   6.362   4.104   7.320  0.1876 -0.3919  0.1469
  151SAPE   O1316618   6.357   4.181   7.194 -0.3627  0.2744 -0.0692
  151SAPE   O1416619   6.402   4.181   7.438 -0.1120 -0.0293  0.0213
  151SAPE   O1216620   6.218   4.044   7.347 -0.2206  0.2999  0.4604
  151SAPE   O1116621   6.460   3.981   7.289 -0.0871 -0.3768 -0.3300
  151SAPE    C116622   6.600   3.976   7.319 -0.1691  0.3046 -0.4581
  151SAPE    HA16623   6.624   4.011   7.422  2.0341 -1.2134 -0.3874
  151SAPE    HB16624   6.629   3.870   7.306  1.5864  0.7716 -0.5901
  151SAPE    C216625   6.680   4.055   7.219 -0.5867 -0.1093 -0.2366
  151SAPE    HS16626   6.655   4.161   7.241  1.9526  0.9318 -1.8786
  151SAPE   O2116627   6.644   4.016   7.091  0.6414  0.1792  0.0613
  151SAPE   C2116628   6.646   4.110   6.998  0.6271  0.0975  0.7467
  151SAPE   O2216629   6.667   4.229   7.017  0.3698 -0.4002 -0.4461
  151SAPE   C2216630   6.618   4.052   6.863  0.1141  0.0735 -0.4888
  151SAPE   H2R16631   6.695   3.981   6.827 -2.3553 -1.9377 -2.2116
  151SAPE   H2S16632   6.524   3.992   6.873  0.6467 -0.4136  2.4889
  151SAPE    C316633   6.839   4.042   7.234 -0.1554  0.2109 -0.3229
  151SAPE    HX16634   6.864   3.934   7.232 -1.2913 -0.0420 -1.6695
  151SAPE    HY16635   6.852   4.087   7.335  1.1014  1.6715 -1.0835
  151SAPE   O3116636   6.909   4.111   7.129 -0.3247  0.6089 -0.0561
  151SAPE   C3116637   7.036   4.148   7.166 -0.0875  0.6900  0.5156
  151SAPE   O3216638   7.071   4.160   7.283 -0.1420 -0.0262  0.6439
  151SAPE   C3216639   7.122   4.179   7.048  0.1614  0.3924 -0.2366
  151SAPE   H2X16640   7.213   4.116   7.053 -0.6690 -1.3060 -3.5412
  151SAPE   H2Y16641   7.156   4.284   7.058  0.3719  0.1765  1.7120
  151SAPE   C2316642   6.605   4.157   6.748 -0.2864  0.2452 -0.5414
  151SAPE   H3R16643   6.691   4.227   6.745 -0.8229  0.9140 -0.6014
  151SAPE   H3S16644   6.519   4.218   6.782  0.2257  0.3239  0.6821
  151SAPE   C2416645   6.598   4.099   6.604 -0.2089 -0.2610 -0.3763
  151SAPE   H4R16646   6.688   4.042   6.575  1.1071 -0.1372  2.9994
  151SAPE   H4S16647   6.599   4.188   6.538 -3.2218  0.0859 -0.0956
  151SAPE   C2516648   6.473   4.021   6.580  0.5841  0.4770 -0.0950
  151SAPE   H5R16649   6.458   3.945   6.658 -0.9834  0.9448  0.0995
  151SAPE   C2616650   6.407   3.993   6.467 -0.1132 -0.1447 -0.6997
  151SAPE   H6R16651   6.328   3.917   6.479  0.5141 -0.5986  0.7884
  151SAPE   C2716652   6.434   4.058   6.334 -0.5206 -0.6054  0.1897
  151SAPE   H7R16653   6.428   3.989   6.248  0.0332  0.4144 -0.6837
  151SAPE   H7S16654   6.540   4.092   6.325 -0.5044 -0.9971 -1.3669
  151SAPE   C2816655   6.348   4.183   6.311 -0.1074  1.1373 -0.2433
  151SAPE   H8R16656   6.331   4.247   6.399  0.3124  0.9738 -0.0380
  151SAPE   C2916657   6.308   4.227   6.192  0.1490 -0.1083 -0.6286
  151SAPE   H9R16658   6.245   4.315   6.176  0.4537  0.6691  1.9362
  151SAPE  C21016659   6.328   4.149   6.068 -0.6161  0.0617  0.2498
  151SAPE  H10R16660   6.241   4.173   6.003 -1.6639 -2.2720  0.6765
  151SAPE  H10S16661   6.295   4.045   6.087 -0.1241  0.0159  0.8979
  151SAPE  C21116662   6.469   4.141   6.018  0.6766 -0.3883  0.0236
  151SAPE  H11R16663   6.546   4.088   6.077  0.9761  0.3785  0.3304
  151SAPE  C21216664   6.499   4.194   5.902  0.0327 -0.1875 -0.2422
  151SAPE  H12R16665   6.604   4.193   5.871 -0.1469  0.0328 -0.8881
  151SAPE  C21316666   6.403   4.252   5.797 -0.3708 -0.1298 -0.5994
  151SAPE  H13R16667   6.329   4.306   5.861  1.4338  0.8462  0.7630
  151SAPE  H13S16668   6.338   4.175   5.749 -1.8265  0.7032 -0.0459
  151SAPE  C21416669   6.473   4.348   5.702 -0.6501 -0.3949  0.8382
  151SAPE  H14R16670   6.494   4.447   5.746 -0.9833 -0.2877  0.7568
  151SAPE  C21516671   6.505   4.327   5.571  0.2497  0.1456 -0.8258
  151SAPE  H15R16672   6.565   4.402   5.518  0.4184  0.8090  0.2904
  151SAPE  C21616673   6.493   4.186   5.506 -0.2403 -0.0848 -0.8550
  151SAPE  H16R16674   6.461   4.185   5.399  2.5406  0.1449 -1.7630
  151SAPE  H16S16675   6.425   4.117   5.561  1.3796 -1.7613 -0.8330
  151SAPE  C21716676   6.635   4.114   5.501 -0.0896  0.9086 -0.0605
  151SAPE  H17R16677   6.662   4.101   5.608  1.5440 -2.9894 -0.7874
  151SAPE  H17S16678   6.704   4.187   5.454  0.8959 -1.2746 -2.1792
  151SAPE  C21816679   6.660   3.976   5.424 -0.0734  0.2900  0.0791
  151SAPE  H18R16680   6.639   3.891   5.492  2.2492  0.5290  1.1963
  151SAPE  H18S16681   6.769   3.981   5.404  0.0646 -0.9622  0.4693
  151SAPE  C21916682   6.590   3.965   5.286  0.0283 -0.1567 -0.3550
  151SAPE  H19R16683   6.591   4.061   5.229 -0.6054  0.1397  0.1212
  151SAPE  H19S16684   6.484   3.933   5.288  0.2489 -1.0807 -1.9664
  151SAPE  C22016685   6.657   3.861   5.199 -0.6123  0.0716  0.3056
  151SAPE  H20R16686   6.768   3.864   5.196 -0.5506 -2.0477 -1.0830
  151SAPE  H20S16687   6.622   3.878   5.095  3.3420  2.7955 -0.8073
  151SAPE  H20T16688   6.628   3.761   5.236 -1.2066  0.8539  2.1022
  151SAPE   C3316689   7.052   4.147   6.915  0.4357 -0.7774  0.4697
  151SAPE   H3X16690   6.951   4.192   6.903 -0.4631 -2.9816 -0.7749
  151SAPE   H3Y16691   7.020   4.040   6.912  0.7622 -0.8572 -1.4888
  151SAPE   C3416692   7.146   4.164   6.799 -0.3211  0.1726  0.3506
  151SAPE   H4X16693   7.236   4.104   6.826  0.3457  0.1771 -1.6522
  151SAPE   H4Y16694   7.181   4.269   6.810  1.3540 -0.3855  0.6319
  151SAPE   C3516695   7.098   4.130   6.657 -1.0965  0.6644 -0.1135
  151SAPE   H5X16696   7.007   4.193   6.641 -1.0103  0.6531 -0.6639
  151SAPE   H5Y16697   7.067   4.025   6.640 -5.2443  1.5100  0.9513
  151SAPE   C3616698   7.198   4.174   6.550  0.1045 -0.2513 -0.1896
  151SAPE   H6X16699   7.288   4.112   6.569 -0.8282 -1.4891  0.3619
  151SAPE   H6Y16700   7.220   4.282   6.559  2.3627 -0.2187 -4.1217
  151SAPE   C3716701   7.145   4.157   6.411 -0.3530 -0.3947  0.3850
  151SAPE   H7X16702   7.055   4.221   6.394  1.4192  2.0386 -0.3230
  151SAPE   H7Y16703   7.104   4.055   6.390  1.4223 -0.7413 -1.8623
  151SAPE   C3816704   7.259   4.180   6.308  0.1500 -0.4611 -0.0524
  151SAPE   H8X16705   7.339   4.106   6.329  1.4734  0.7117 -0.7904
  151SAPE   H8Y16706   7.300   4.282   6.318 -2.8709  0.7065  1.9194
  151SAPE   C3916707   7.217   4.159   6.166  0.0098 -0.1017  0.6096
  151SAPE   H9X16708   7.108   4.169   6.148  0.3268 -0.4450 -1.8350
  151SAPE   H9Y16709   7.223   4.048   6.162  1.0768 -0.1850  2.8747
  151SAPE  C31016710   7.310   4.229   6.063  0.9074 -0.3943 -0.3647
  151SAPE  H10X16711   7.420   4.230   6.084  0.6822  1.8204  1.0197
  151SAPE  H10Y16712   7.278   4.335   6.052 -2.2739 -1.2209  0.1120
  151SAPE  C31116713   7.285   4.169   5.926  0.5065 -0.3241 -0.7174
  151SAPE  H11X16714   7.178   4.194   5.905  0.2738 -0.0030  0.7679
  151SAPE  H11Y16715   7.291   4.058   5.929 -0.1511 -0.3998 -1.6026
  151SAPE  C31216716   7.370   4.232   5.811 -0.0064  0.6373  0.6825
  151SAPE  H12X16717   7.474   4.193   5.809  0.3998  1.7106 -0.3268
  151SAPE  H12Y16718   7.367   4.342   5.826  1.7724  0.8031  0.0357
  151SAPE  C31316719   7.303   4.214   5.668 -0.2730  0.2033  0.0082
  151SAPE  H13X16720   7.198   4.246   5.682  0.4175  2.7957 -0.1918
  151SAPE  H13Y16721   7.290   4.111   5.627 -2.8970 -1.1946  3.7762
  151SAPE  C31416722   7.362   4.305   5.558 -0.3362 -0.7471  0.6127
  151SAPE  H14X16723   7.289   4.312   5.474  0.2158  1.0053  0.2414
  151SAPE  H14Y16724   7.457   4.256   5.527  0.9588  1.6157  0.6163
  151SAPE  C31516725   7.400   4.451   5.601 -0.1017  0.4614 -0.0678
  151SAPE  H15X16726   7.492   4.447   5.664 -0.3844 -1.5738  0.2968
  151SAPE  H15Y16727   7.317   4.481   5.669  1.1279 -2.2078  2.8811
  151SAPE  C31616728   7.418   4.542   5.485 -0.0465 -0.4775 -0.9083
  151SAPE  H16X16729   7.451   4.635   5.535  0.2489 -0.4131 -1.2177
  151SAPE  H16Y16730   7.315   4.550   5.444 -0.9148 -1.3099  0.9930
  151SAPE  C31716731   7.529   4.501   5.377  0.0638 -0.9190  0.1627
  151SAPE  H17X16732   7.508   4.408   5.320  0.4288 -1.2045  0.4830
  151SAPE  H17Y16733   7.624   4.489   5.434  1.9186  2.1151 -1.9549
  151SAPE  C31816734   7.560   4.616   5.281  0.3396 -0.1998  0.2275
  151SAPE  H18X16735   7.469   4.637   5.222  0.4464 -1.5055 -0.4493
  151SAPE  H18Y16736   7.637   4.574   5.212  0.5763 -0.5081  0.6683
  151SAPE  H18Z16737   7.599   4.709   5.328  0.7692  0.4022 -1.2628
  152SAPE     N16738   4.722   5.169   7.214  0.5538 -0.4596  0.3734
  152SAPE   HN116739   4.767   5.165   7.121  0.4163  0.1643  0.2746
  152SAPE   HN216740   4.646   5.240   7.213  2.1358  1.3171  0.4960
  152SAPE   HN316741   4.788   5.203   7.287  0.8060 -1.0921  0.4423
  152SAPE   C1216742   4.647   5.042   7.257  0.2164  0.0460 -0.4712
  152SAPE  H12A16743   4.643   5.050   7.368  2.0043  0.4219 -0.4091
  152SAPE  H12B16744   4.710   4.955   7.229 -0.3026 -0.5519  0.1912
  152SAPE   C1116745   4.505   5.039   7.207  0.0925 -0.5770 -0.7585
  152SAPE  H11A16746   4.457   4.945   7.240 -2.6530  1.3021  1.0902
  152SAPE  H11B16747   4.509   5.030   7.096 -1.2672  0.5598 -0.9298
  152SAPE     P16748   4.304   5.149   7.329  0.5114 -0.4254  0.2808
  152SAPE   O1316749   4.308   5.048   7.437 -0.4766 -1.1545  0.0190
  152SAPE   O1416750   4.267   5.285   7.369  0.2269  0.4546  0.0104
  152SAPE   O1216751   4.435   5.161   7.244  0.1080 -0.2516 -0.3105
  152SAPE   O1116752   4.204   5.090   7.230 -0.2812 -0.4607 -0.1159
  152SAPE    C116753   4.133   5.160   7.130  0.5010 -0.2773 -0.5085
  152SAPE    HA16754   4.025   5.146   7.156 -0.2627  4.6550 -0.2176
  152SAPE    HB16755   4.143   5.270   7.141 -1.9578  0.0208 -0.5405
  152SAPE    C216756   4.169   5.121   6.989 -0.4592  0.6528  0.1357
  152SAPE    HS16757   4.183   5.010   6.992 -3.9569  0.0876 -0.1598
  152SAPE   O2116758   4.293   5.188   6.964  0.2146  0.4018  0.6620
  152SAPE   C2116759   4.377   5.136   6.875 -0.3729 -0.0173  0.2495
  152SAPE   O2216760   4.372   5.028   6.814 -0.6203  0.1713  0.0222
  152SAPE   C2216761   4.477   5.235   6.836 -0.0783  0.5767  0.3742
  152SAPE   H2R16762   4.433   5.337   6.825 -1.1978  0.0058 -0.6222
  152SAPE   H2S16763   4.550   5.227   6.919  0.5949 -0.4014 -0.2829
  152SAPE    C316764   4.059   5.151   6.889  0.1708 -0.0149 -0.0760
  152SAPE    HX16765   4.030   5.258   6.881 -0.9977 -0.2719  0.4931
  152SAPE    HY16766   3.966   5.105   6.929 -1.7886  3.1865 -0.5965
  152SAPE   O3116767   4.075   5.088   6.763 -0.0415 -0.7257  0.3701
  152SAPE   C3116768   4.140   5.163   6.676 -0.5162 -0.2777 -1.3831
  152SAPE   O3216769   4.185   5.274   6.700 -0.2096  0.0681 -0.0674
  152SAPE   C3216770   4.163   5.079   6.553 -0.4089  0.1180  0.1207
  152SAPE   H2X16771   4.062   5.052   6.515 -1.5732  2.3974  1.4386
  152SAPE   H2Y16772   4.225   4.992   6.585  1.1463  0.9169 -0.6315
  152SAPE   C2316773   4.537   5.185   6.698  0.1878 -0.3441 -0.4037
  152SAPE   H3R16774   4.451   5.206   6.631 -1.8978 -0.5387  2.1028
  152SAPE   H3S16775   4.578   5.082   6.692 -0.8371 -0.7269 -1.1548
  152SAPE   C2416776   4.653   5.271   6.641  0.1217 -0.3838  0.5848
  152SAPE   H4R16777   4.690   5.215   6.552  0.1133  1.4125 -0.5992
  152SAPE   H4S16778   4.736   5.267   6.714 -1.0255 -1.1309  1.8842
  152SAPE   C2516779   4.610   5.416   6.612 -0.3611 -0.5745 -0.3738
  152SAPE   H5R16780   4.555   5.468   6.692 -0.3030 -0.0526 -0.6738
  152SAPE   C2616781   4.605   5.474   6.493 -0.3226  0.2302  0.0573
  152SAPE   H6R16782   4.586   5.582   6.491  2.9757  0.9102  0.3746
  152SAPE   C2716783   4.664   5.403   6.365 -0.5202 -0.1706 -1.0886
  152SAPE   H7R16784   4.589   5.328   6.330 -0.6404 -0.1574 -0.8656
  152SAPE   H7S16785   4.759   5.349   6.381 -1.2048 -1.2525 -0.4977
  152SAPE   C2816786   4.688   5.509   6.261 -0.4515 -0.4703  0.1010
  152SAPE   H8R16787   4.776   5.574   6.274 -0.4985 -0.0678 -1.4018
  152SAPE   C2916788   4.618   5.521   6.144  0.2095 -0.1157  0.0991
  152SAPE   H9R16789   4.657   5.594   6.071  1.1744 -0.6145  0.0959
  152SAPE  C21016790   4.507   5.441   6.101 -0.4290  0.6041  0.6827
  152SAPE  H10R16791   4.538   5.338   6.128 -0.5158  0.8556  1.7801
  152SAPE  H10S16792   4.487   5.449   5.992 -0.1455 -1.2386  0.4570
  152SAPE  C21116793   4.376   5.453   6.174 -0.5074 -0.7489  0.5334
  152SAPE  H11R16794   4.383   5.487   6.278 -0.0235 -2.4701  1.0857
  152SAPE  C21216795   4.250   5.432   6.138 -0.3044 -0.0553  0.5909
  152SAPE  H12R16796   4.169   5.466   6.204  0.5392  2.2852  0.5182
  152SAPE  C21316797   4.200   5.387   6.003 -0.0781 -0.1443 -0.6273
  152SAPE  H13R16798   4.093   5.364   6.022 -0.0863 -1.3727 -1.9625
  152SAPE  H13S16799   4.251   5.293   5.973 -0.7687 -0.6281 -0.3146
  152SAPE  C21416800   4.218   5.492   5.894  0.6630 -0.0899  0.1345
  152SAPE  H14R16801   4.212   5.596   5.930 -0.6492  0.2296 -0.9269
  152SAPE  C21516802   4.259   5.466   5.771  0.1941  0.2208  0.0693
  152SAPE  H15R16803   4.269   5.544   5.694  2.4485  0.6591  0.7405
  152SAPE  C21616804   4.279   5.328   5.715 -0.0225 -0.7250  0.5084
  152SAPE  H16R16805   4.205   5.262   5.765  0.9353 -0.7455  1.9684
  152SAPE  H16S16806   4.383   5.292   5.732  0.4764 -0.0308 -0.9589
  152SAPE  C21716807   4.267   5.329   5.562  0.7097  0.0243  0.0775
  152SAPE  H17R16808   4.174   5.376   5.523  1.2702 -0.0172 -1.3401
  152SAPE  H17S16809   4.275   5.222   5.534  1.8939 -0.3608  1.7347
  152SAPE  C21816810   4.386   5.417   5.497 -0.3017  0.1936  0.4466
  152SAPE  H18R16811   4.488   5.373   5.491  0.7150  2.5915 -1.8616
  152SAPE  H18S16812   4.389   5.517   5.546 -0.0415  0.3669  0.0795
  152SAPE  C21916813   4.346   5.449   5.354 -0.0638  0.1779  0.3378
  152SAPE  H19R16814   4.255   5.512   5.351 -0.9908 -1.0574  1.1744
  152SAPE  H19S16815   4.321   5.354   5.303  0.1859 -0.1652  0.8340
  152SAPE  C22016816   4.461   5.490   5.267  0.1560 -0.6524  0.4155
  152SAPE  H20R16817   4.480   5.599   5.279 -1.1860 -0.1742 -1.2840
  152SAPE  H20S16818   4.431   5.478   5.160 -0.7312 -0.3961  0.6239
  152SAPE  H20T16819   4.556   5.435   5.283 -0.6326 -2.1525  0.1195
  152SAPE   C3316820   4.222   5.161   6.437 -0.0071 -0.3251  0.8944
  152SAPE   H3X16821   4.323   5.201   6.464  0.4424 -0.6170 -0.2769
  152SAPE   H3Y16822   4.167   5.256   6.424  0.3933 -0.1952  0.0864
  152SAPE   C3416823   4.242   5.086   6.308 -0.1739 -0.0513  0.1254
  152SAPE   H4X16824   4.295   4.989   6.322 -0.5179 -0.2449  0.0824
  152SAPE   H4Y16825   4.303   5.153   6.244  0.2228  1.0185  1.5638
  152SAPE   C3516826   4.118   5.074   6.234  0.3882  0.8924 -0.1126
  152SAPE   H5X16827   4.064   5.168   6.211  1.6806  1.3282 -1.5099
  152SAPE   H5Y16828   4.048   5.000   6.280  0.8298  0.3664 -0.2740
  152SAPE   C3616829   4.158   5.026   6.094  0.2884  0.3239 -0.5113
  152SAPE   H6X16830   4.194   4.921   6.101  0.8614  0.6356  3.5324
  152SAPE   H6Y16831   4.245   5.081   6.052 -0.3596  1.1807 -0.7799
  152SAPE   C3716832   4.041   5.027   5.990  0.1365 -0.1538  0.1087
  152SAPE   H7X16833   4.023   5.134   5.966 -0.2437 -0.3016 -0.2777
  152SAPE   H7Y16834   3.957   4.984   6.049  0.9147  0.8251  2.0154
  152SAPE   C3816835   4.072   4.955   5.857 -0.0470 -0.3383  0.0055
  152SAPE   H8X16836   4.039   4.849   5.852 -4.0769  0.8033 -3.3311
  152SAPE   H8Y16837   4.182   4.963   5.850  0.2170 -2.0064  1.5095
  152SAPE   C3916838   4.018   5.020   5.731  0.3862  0.0130 -0.4452
  152SAPE   H9X16839   4.024   5.131   5.737  2.1582 -0.1148  0.6429
  152SAPE   H9Y16840   3.909   4.998   5.722  0.3644  0.0770 -0.3385
  152SAPE  C31016841   4.101   4.990   5.606  0.4077  0.6542 -0.1591
  152SAPE  H10X16842   4.210   5.007   5.617  0.9641 -0.9636 -2.4588
  152SAPE  H10Y16843   4.062   5.064   5.532 -0.7842 -0.9449 -1.1974
  152SAPE  C31116844   4.088   4.849   5.556  0.2890 -0.0099 -0.3298
  152SAPE  H11X16845   3.983   4.824   5.531  0.2639  1.0658 -1.4064
  152SAPE  H11Y16846   4.132   4.782   5.633  0.0724  1.0508  0.7443
  152SAPE  C31216847   4.153   4.828   5.419 -0.0552 -0.0310 -0.2828
  152SAPE  H12X16848   4.160   4.718   5.413  1.1526 -0.4130  4.4420
  152SAPE  H12Y16849   4.255   4.872   5.416 -0.3106  0.5294 -1.3686
  152SAPE  C31316850   4.067   4.877   5.304 -0.4098 -0.1487 -0.7469
  152SAPE  H13X16851   4.036   4.983   5.309 -1.0073 -0.3034 -1.0364
  152SAPE  H13Y16852   3.970   4.822   5.303  0.0554 -1.0236 -3.0335
  152SAPE  C31416853   4.135   4.871   5.169 -0.5486 -0.0029  0.0314
  152SAPE  H14X16854   4.068   4.904   5.087 -1.0168  0.5363  0.6254
  152SAPE  H14Y16855   4.162   4.765   5.150 -0.2147  0.2547 -1.0030
  152SAPE  C31516856   4.269   4.946   5.160  0.1100  0.7275  0.2605
  152SAPE  H15X16857   4.300   4.930   5.055  2.8636  0.2675  1.0576
  152SAPE  H15Y16858   4.337   4.888   5.226  2.0742  0.4722 -1.8423
  152SAPE  C31616859   4.272   5.091   5.203 -0.0207 -0.1540  0.0221
  152SAPE  H16X16860   4.373   5.137   5.203 -0.0876  0.0637 -2.1313
  152SAPE  H16Y16861   4.232   5.090   5.307  0.7682  0.0643  0.3311
  152SAPE  C31716862   4.192   5.186   5.116  0.2721 -0.0576 -0.1965
  152SAPE  H17X16863   4.171   5.265   5.191  0.5481 -1.8445  1.8736
  152SAPE  H17Y16864   4.099   5.134   5.084 -0.8608  2.2094 -0.8050
  152SAPE  C31816865   4.252   5.236   4.988 -0.9874 -0.2723 -0.2211
  152SAPE  H18X16866   4.336   5.300   5.022 -1.4787  0.5177 -0.4543
  152SAPE  H18Y16867   4.191   5.300   4.920  0.1318  0.5756 -0.4475
  152SAPE  H18Z16868   4.285   5.141   4.942  2.4176  0.2690  0.8572
  153SAPE     N16869   6.074   4.755   7.289 -0.0303 -0.0552  0.0081
  153SAPE   HN116870   6.082   4.844   7.236 -0.4736 -0.6521 -1.0969
  153SAPE   HN216871   6.165   4.705   7.280  0.4500  0.6698  0.6326
  153SAPE   HN316872   6.000   4.693   7.252  1.1048 -0.3795 -1.8531
  153SAPE   C1216873   6.039   4.789   7.436  0.4016 -0.8427  0.1759
  153SAPE  H12A16874   6.110   4.872   7.458 -0.7304  0.5092 -1.1223
  153SAPE  H12B16875   6.061   4.702   7.502  0.1360 -1.0944 -0.0675
  153SAPE   C1116876   5.893   4.826   7.434 -0.2104  0.0584  0.2311
  153SAPE  H11A16877   5.872   4.867   7.536  2.1076  0.5185  0.5868
  153SAPE  H11B16878   5.838   4.730   7.427  1.1520 -0.7034 -0.3784
  153SAPE     P16879   5.725   4.989   7.319 -0.3126  0.1035 -0.0577
  153SAPE   O1316880   5.630   4.940   7.425  0.2972  0.3759  0.2467
  153SAPE   O1416881   5.756   5.133   7.327 -0.1185  0.7422  1.5391
  153SAPE   O1216882   5.853   4.909   7.327  0.0267  0.0603 -0.2784
  153SAPE   O1116883   5.661   4.952   7.179  0.5591  0.2454 -0.1063
  153SAPE    C116884   5.740   4.931   7.060  0.5976 -0.3022  0.3916
  153SAPE    HA16885   5.848   4.950   7.081 -0.1578  1.5394  3.2471
  153SAPE    HB16886   5.726   4.828   7.020  1.5465 -0.3640  0.1856
  153SAPE    C216887   5.715   5.032   6.934  0.1889  0.7269  0.9653
  153SAPE    HS16888   5.609   5.021   6.902  0.4649  1.2770 -0.1458
  153SAPE   O2116889   5.807   5.010   6.826 -0.0959 -0.1242 -0.2811
  153SAPE   C2116890   5.789   4.896   6.759  0.3667 -0.3912  1.1437
  153SAPE   O2216891   5.697   4.820   6.772  0.6661  0.7706 -0.1792
  153SAPE   C2216892   5.901   4.886   6.662  0.5409 -0.4621  0.4589
  153SAPE   H2R16893   5.923   4.984   6.614 -0.0004 -1.0787 -1.1134
  153SAPE   H2S16894   5.986   4.865   6.731  1.8734 -1.7741 -1.4796
  153SAPE    C316895   5.730   5.177   6.986 -0.3844 -0.5841  0.5983
  153SAPE    HX16896   5.821   5.196   7.047  0.7927  0.3567 -1.3511
  153SAPE    HY16897   5.647   5.194   7.059 -0.5976 -1.6717  0.6282
  153SAPE   O3116898   5.722   5.273   6.879 -0.4494 -0.5350 -0.1257
  153SAPE   C3116899   5.842   5.319   6.830  0.1359  0.3319 -0.5192
  153SAPE   O3216900   5.947   5.307   6.881 -0.2760  0.6767 -0.3010
  153SAPE   C3216901   5.815   5.395   6.704 -0.7160 -0.5312 -0.6576
  153SAPE   H2X16902   5.837   5.504   6.709 -0.6898 -0.5614 -0.1012
  153SAPE   H2Y16903   5.705   5.394   6.694 -0.8984  1.6607  0.4775
  153SAPE   C2316904   5.886   4.785   6.545 -0.5032 -0.4243 -0.4450
  153SAPE   H3R16905   5.780   4.765   6.522 -1.0187  0.5907  0.9029
  153SAPE   H3S16906   5.927   4.688   6.583  0.0220 -0.2711 -0.6007
  153SAPE   C2416907   5.972   4.824   6.429  0.0777  0.6501  0.3130
  153SAPE   H4R16908   5.998   4.727   6.381 -0.6577  0.3635  0.4904
  153SAPE   H4S16909   6.069   4.871   6.458  0.4387  2.2090 -2.9939
  153SAPE   C2516910   5.912   4.926   6.338  0.0550 -0.3028  0.6187
  153SAPE   H5R16911   5.836   4.996   6.376  0.4565  1.1783 -1.1221
  153SAPE   C2616912   5.956   4.959   6.210  0.2247 -0.1118  0.0890
  153SAPE   H6R16913   5.913   5.051   6.168  0.5657 -0.1313 -0.3166
  153SAPE   C2716914   6.066   4.890   6.136 -0.2967 -0.2776 -0.0809
  153SAPE   H7R16915   6.136   4.845   6.210  0.5852  1.1755  0.0163
  153SAPE   H7S16916   6.130   4.968   6.088 -1.7309  0.6062 -0.6372
  153SAPE   C2816917   6.028   4.788   6.025 -0.2219  0.2533 -0.3479
  153SAPE   H8R16918   6.031   4.681   6.051  1.1459  0.5306  0.7936
  153SAPE   C2916919   6.006   4.825   5.896 -0.5475 -0.1524 -0.0726
  153SAPE   H9R16920   5.981   4.750   5.820  1.0149  0.2286 -0.9994
  153SAPE  C21016921   6.014   4.963   5.837  0.1973 -0.0774  0.3529
  153SAPE  H10R16922   5.972   5.034   5.912  1.5342 -0.5154  1.5713
  153SAPE  H10S16923   5.946   4.979   5.751  0.1532 -1.9126  0.0074
  153SAPE  C21116924   6.159   4.998   5.810  0.1289  0.3727 -0.1012
  153SAPE  H11R16925   6.206   5.051   5.895  0.2851 -0.6965  0.4959
  153SAPE  C21216926   6.223   4.996   5.696  0.1666  0.5564  0.6156
  153SAPE  H12R16927   6.328   5.028   5.689  0.5824 -0.9721 -1.0788
  153SAPE  C21316928   6.171   4.927   5.567  0.2388 -0.0495 -0.3074
  153SAPE  H13R16929   6.080   4.867   5.589  0.0460  0.4383  0.2521
  153SAPE  H13S16930   6.245   4.855   5.527 -2.4336 -1.6264 -2.8129
  153SAPE  C21416931   6.141   5.036   5.466  0.1984  0.1825 -0.0587
  153SAPE  H14R16932   6.230   5.099   5.452  1.2284 -1.3133 -0.6306
  153SAPE  C21516933   6.023   5.063   5.407  0.6307 -0.2180  0.6399
  153SAPE  H15R16934   6.022   5.147   5.335 -2.9125 -1.5526 -1.0958
  153SAPE  C21616935   5.888   4.999   5.424  0.5342  0.3856 -0.3180
  153SAPE  H16R16936   5.902   4.903   5.478  1.5106  0.3803 -0.5627
  153SAPE  H16S16937   5.846   4.969   5.326 -0.0136  0.6699 -0.1775
  153SAPE  C21716938   5.787   5.086   5.496  0.8103  0.1804 -0.5608
  153SAPE  H17R16939   5.813   5.113   5.600  3.7659 -2.8240 -0.3326
  153SAPE  H17S16940   5.695   5.024   5.505  0.1238  1.3638  1.1011
  153SAPE  C21816941   5.755   5.220   5.424 -1.2765 -1.2624  0.0182
  153SAPE  H18R16942   5.648   5.248   5.433 -0.5929  3.1385 -2.8035
  153SAPE  H18S16943   5.774   5.199   5.317 -0.2171 -1.7209  0.2818
  153SAPE  C21916944   5.830   5.347   5.476  0.6472 -0.3344 -0.9970
  153SAPE  H19R16945   5.941   5.336   5.470  0.8042 -1.0405  1.7967
  153SAPE  H19S16946   5.811   5.346   5.585  0.8043 -0.6243 -0.9708
  153SAPE  C22016947   5.792   5.484   5.416 -0.6684 -0.6541  0.4783
  153SAPE  H20R16948   5.851   5.575   5.440 -0.2324 -0.7693 -0.1316
  153SAPE  H20S16949   5.684   5.507   5.425 -0.7246 -1.0028  0.6925
  153SAPE  H20T16950   5.807   5.478   5.306  1.2705 -0.7230  0.7137
  153SAPE   C3316951   5.889   5.331   6.587  0.1130  0.6087  0.2006
  153SAPE   H3X16952   5.829   5.241   6.563  1.1760 -0.1765  0.4322
  153SAPE   H3Y16953   5.992   5.307   6.621 -0.5492 -1.8323  0.6999
  153SAPE   C3416954   5.896   5.411   6.459 -0.1678  0.5368  0.1608
  153SAPE   H4X16955   5.949   5.506   6.482  2.0082 -0.0092 -2.1886
  153SAPE   H4Y16956   5.789   5.431   6.435 -0.2722 -0.2367 -0.0511
  153SAPE   C3516957   5.962   5.330   6.343 -0.2061  0.4236 -0.0528
  153SAPE   H5X16958   5.911   5.233   6.326  0.7488 -0.3176  1.0923
  153SAPE   H5Y16959   6.070   5.321   6.369  0.0341  1.8624 -0.4594
  153SAPE   C3616960   5.977   5.413   6.211 -0.8231 -0.2870  0.2494
  153SAPE   H6X16961   6.047   5.496   6.237  0.9510 -2.0664  1.5069
  153SAPE   H6Y16962   5.878   5.455   6.183 -1.5239 -3.0377 -1.7739
  153SAPE   C3716963   6.024   5.340   6.087  1.1345 -0.1995  0.5525
  153SAPE   H7X16964   5.949   5.266   6.053  1.7429 -1.6407  2.2087
  153SAPE   H7Y16965   6.122   5.292   6.107  1.5944  1.2234  1.9624
  153SAPE   C3816966   6.047   5.447   5.973 -0.0548  0.2222 -0.8410
  153SAPE   H8X16967   6.119   5.522   6.012 -0.0336 -0.3430  0.2362
  153SAPE   H8Y16968   5.951   5.497   5.946  0.7595  2.5387  0.2955
  153SAPE   C3916969   6.098   5.371   5.852 -0.4130 -0.6837 -0.1180
  153SAPE   H9X16970   6.023   5.293   5.828 -0.8460 -0.2716 -0.1302
  153SAPE   H9Y16971   6.198   5.327   5.872 -0.7392 -1.2363  0.3614
  153SAPE  C31016972   6.107   5.461   5.732 -0.4475 -0.8152  0.2275
  153SAPE  H10X16973   6.168   5.548   5.765 -0.9885 -0.2672 -0.1861
  153SAPE  H10Y16974   6.008   5.506   5.707 -0.1204 -0.7960 -1.1174
  153SAPE  C31116975   6.165   5.396   5.600 -0.0790 -0.1008 -0.1592
  153SAPE  H11X16976   6.101   5.308   5.576 -1.2770  0.7255 -0.0331
  153SAPE  H11Y16977   6.270   5.359   5.605  0.4980  1.4858  0.0275
  153SAPE  C31216978   6.171   5.485   5.473 -0.1843 -0.2433 -0.0617
  153SAPE  H12X16979   6.230   5.576   5.498  0.4451 -0.9408  1.1171
  153SAPE  H12Y16980   6.071   5.522   5.441 -0.6154 -1.8736 -0.6610
  153SAPE  C31316981   6.235   5.411   5.358 -0.4847 -0.2146  1.2004
  153SAPE  H13X16982   6.185   5.312   5.350  0.9059 -0.7999 -2.0649
  153SAPE  H13Y16983   6.340   5.387   5.384  0.4651  2.0522 -0.2634
  153SAPE  C31416984   6.207   5.495   5.233 -0.3885 -0.2692  0.3251
  153SAPE  H14X16985   6.223   5.605   5.242 -0.5164 -0.1708 -0.5718
  153SAPE  H14Y16986   6.099   5.502   5.205 -0.0620  4.1233 -0.6185
  153SAPE  C31516987   6.291   5.446   5.115 -0.2153 -0.5229  0.5259
  153SAPE  H15X16988   6.316   5.339   5.131  0.3302 -0.3183  1.0609
  153SAPE  H15Y16989   6.388   5.499   5.122 -0.9089  0.6841  1.4906
  153SAPE  C31616990   6.261   5.479   4.972  0.4657  0.7007 -0.0425
  153SAPE  H16X16991   6.342   5.435   4.911  0.6875 -1.3173  1.6309
  153SAPE  H16Y16992   6.251   5.590   4.967 -0.0705  0.7154  1.0118
  153SAPE  C31716993   6.119   5.423   4.933  0.4604 -0.5931  0.7214
  153SAPE  H17X16994   6.087   5.458   4.833 -0.8827 -1.8504  0.6821
  153SAPE  H17Y16995   6.058   5.475   5.010  1.5664 -0.6864  1.6926
  153SAPE  C31816996   6.121   5.274   4.937  0.0878  0.4483 -0.1693
  153SAPE  H18X16997   6.031   5.223   4.895  1.7003 -1.7964 -1.1506
  153SAPE  H18Y16998   6.148   5.235   5.037  1.2913  0.2601 -0.5445
  153SAPE  H18Z16999   6.204   5.236   4.874  0.3225 -1.5584  1.2464
  154SAPE     N17000   0.771   2.254   7.501 -0.1427  0.7290 -0.7989
  154SAPE   HN117001   0.683   2.301   7.472 -1.0709 -0.3548  0.1555
  154SAPE   HN217002   0.838   2.271   7.424  1.5731 -2.2729 -0.1462
  154SAPE   HN317003   0.765   2.150   7.499  1.5876  0.5638  0.3610
  154SAPE   C1217004   0.816   2.305   7.634  0.6727 -0.3926  0.4262
  154SAPE  H12A17005   0.748   2.264   7.712 -0.3620 -0.4265 -0.4697
  154SAPE  H12B17006   0.809   2.416   7.629 -0.1515 -0.4891 -0.9924
  154SAPE   C1117007   0.962   2.269   7.662 -0.1358  0.3124 -0.0206
  154SAPE  H11A17008   0.990   2.337   7.745 -0.4723  0.9184 -0.3975
  154SAPE  H11B17009   1.015   2.291   7.568 -1.1777 -0.6509 -0.8646
  154SAPE     P17010   1.132   2.095   7.698  0.0216 -0.0224 -0.0760
  154SAPE   O1317011   1.190   2.193   7.793  0.2240 -0.0996  0.2051
  154SAPE   O1417012   1.144   1.950   7.720 -0.2311 -0.0228 -0.2738
  154SAPE   O1217013   0.979   2.135   7.698  0.0066 -0.5926  0.2003
  154SAPE   O1117014   1.179   2.114   7.549 -0.2866 -0.1263 -0.0552
  154SAPE    C117015   1.276   2.206   7.489  0.1904  0.0350 -0.8430
  154SAPE    HA17016   1.301   2.288   7.560  2.5929 -1.0567 -0.3235
  154SAPE    HB17017   1.367   2.152   7.456  0.6541  0.9221 -1.0255
  154SAPE    C217018   1.215   2.263   7.363 -0.3757 -0.3509 -0.5868
  154SAPE    HS17019   1.134   2.333   7.393 -0.7500 -1.8719  2.2581
  154SAPE   O2117020   1.169   2.162   7.282  0.2849  0.9446  0.1185
  154SAPE   C2117021   1.035   2.148   7.261 -0.0844 -0.1199  0.2278
  154SAPE   O2217022   0.954   2.233   7.299 -0.1880 -0.9537  0.2173
  154SAPE   C2217023   1.008   2.018   7.190  1.4121 -0.5953 -0.5011
  154SAPE   H2R17024   1.097   1.981   7.134  1.5380  1.6169 -1.8860
  154SAPE   H2S17025   0.990   1.941   7.267 -0.9540  0.7067  0.3342
  154SAPE    C317026   1.323   2.354   7.288  0.6321 -0.1967 -0.6011
  154SAPE    HX17027   1.404   2.287   7.252  0.1215 -0.7169 -0.7819
  154SAPE    HY17028   1.360   2.434   7.356 -3.3054  0.7487  0.6808
  154SAPE   O3117029   1.266   2.425   7.176  0.3660  0.6308 -0.2812
  154SAPE   C3117030   1.344   2.460   7.075  0.0782  0.2716  0.0347
  154SAPE   O3217031   1.462   2.440   7.082 -0.0547 -0.0319 -0.9545
  154SAPE   C3217032   1.267   2.527   6.958  0.2748  0.6182 -0.3865
  154SAPE   H2X17033   1.258   2.637   6.969 -1.5575  0.4727 -0.0629
  154SAPE   H2Y17034   1.160   2.498   6.970  0.9620 -1.3817  1.5201
  154SAPE   C2317035   0.890   2.020   7.091 -0.5430 -0.3472 -0.4543
  154SAPE   H3R17036   0.797   2.052   7.142 -1.3784  1.1160 -2.7228
  154SAPE   H3S17037   0.875   1.919   7.048 -1.2327  0.0290 -1.1190
  154SAPE   C2417038   0.900   2.113   6.975 -0.0186 -0.2272  0.2616
  154SAPE   H4R17039   0.892   2.217   7.013 -1.5477  0.9301 -2.8517
  154SAPE   H4S17040   0.809   2.105   6.911  0.6001 -1.6960 -0.4937
  154SAPE   C2517041   1.025   2.107   6.888  0.1478 -0.2334 -0.9410
  154SAPE   H5R17042   1.114   2.142   6.943 -0.7462  0.4491  0.1199
  154SAPE   C2617043   1.033   2.094   6.756  0.0051  0.2745 -0.2128
  154SAPE   H6R17044   1.130   2.082   6.705 -1.7693 -0.3725 -3.7493
  154SAPE   C2717045   0.919   2.079   6.658  0.1497 -0.0748  0.0546
  154SAPE   H7R17046   0.964   2.109   6.561 -1.7310 -0.9794 -1.1570
  154SAPE   H7S17047   0.839   2.147   6.695 -0.3850 -0.1186 -0.9899
  154SAPE   C2817048   0.865   1.937   6.640 -0.6788  0.3203 -0.6038
  154SAPE   H8R17049   0.846   1.896   6.740  1.6339  1.3737  0.3585
  154SAPE   C2917050   0.853   1.877   6.516  0.4842 -0.8790 -0.1215
  154SAPE   H9R17051   0.831   1.769   6.521 -0.4085 -0.6495  1.4492
  154SAPE  C21017052   0.862   1.935   6.376 -0.5087 -0.1401  0.0721
  154SAPE  H10R17053   0.835   2.042   6.361  2.7150  0.9199  1.1978
  154SAPE  H10S17054   0.795   1.869   6.316  0.9695 -0.5487 -1.2023
  154SAPE  C21117055   0.988   1.912   6.307 -0.1713  0.1862  0.2693
  154SAPE  H11R17056   1.055   1.841   6.360 -0.7317 -1.6865 -1.4029
  154SAPE  C21217057   1.027   1.958   6.186 -0.6261 -0.2964  0.1754
  154SAPE  H12R17058   1.128   1.932   6.153 -0.0888 -0.4986  1.8823
  154SAPE  C21317059   0.957   2.062   6.098  0.2066  0.7506  0.2443
  154SAPE  H13R17060   1.017   2.103   6.014 -1.5045  0.4178 -1.2173
  154SAPE  H13S17061   0.928   2.145   6.166 -2.1009 -0.4760  0.8648
  154SAPE  C21417062   0.839   1.993   6.032 -0.4728 -0.6221 -0.7004
  154SAPE  H14R17063   0.749   2.011   6.093 -0.4426  0.8950 -1.0609
  154SAPE  C21517064   0.826   1.932   5.918  0.7286  0.2692  0.6147
  154SAPE  H15R17065   0.728   1.893   5.888  0.0864  0.5780  2.1831
  154SAPE  C21617066   0.923   1.904   5.805  0.0540 -0.3907  0.1005
  154SAPE  H16R17067   0.936   1.795   5.789  1.5171 -0.1690 -0.3373
  154SAPE  H16S17068   1.021   1.950   5.831 -0.8017  1.6893 -0.1218
  154SAPE  C21717069   0.884   1.977   5.681  0.6132 -0.1105 -0.1215
  154SAPE  H17R17070   0.959   1.965   5.600 -1.1153 -1.0515 -1.6618
  154SAPE  H17S17071   0.883   2.086   5.703 -1.6669  0.1803 -1.3609
  154SAPE  C21817072   0.757   1.924   5.620  1.2394 -0.2225 -0.1029
  154SAPE  H18R17073   0.738   1.965   5.518  1.9867  0.6556  0.0999
  154SAPE  H18S17074   0.671   1.955   5.682 -0.3986 -1.4820 -1.6390
  154SAPE  C21917075   0.750   1.767   5.616 -0.1225  0.6401  0.2869
  154SAPE  H19R17076   0.738   1.736   5.722  0.3463 -0.5913 -0.0073
  154SAPE  H19S17077   0.843   1.731   5.568  0.2774  0.3588  1.2612
  154SAPE  C22017078   0.624   1.708   5.542 -0.1663 -0.6080 -0.4534
  154SAPE  H20R17079   0.619   1.597   5.551  2.5634 -0.8755 -1.1918
  154SAPE  H20S17080   0.625   1.738   5.435 -0.6252  3.6305  0.5655
  154SAPE  H20T17081   0.527   1.749   5.576 -0.1151  1.3274 -2.4233
  154SAPE   C3317082   1.305   2.478   6.818 -0.3435  0.7584  0.0220
  154SAPE   H3X17083   1.329   2.370   6.824  1.3470  1.1479  0.9229
  154SAPE   H3Y17084   1.392   2.541   6.790 -1.2686  2.2409  0.3944
  154SAPE   C3417085   1.190   2.483   6.716  0.0983  0.1037 -0.0723
  154SAPE   H4X17086   1.157   2.589   6.714  2.0318  0.7222 -0.5781
  154SAPE   H4Y17087   1.113   2.415   6.760  0.3928 -0.5752 -0.5966
  154SAPE   C3517088   1.244   2.440   6.581 -0.3457  0.0465  0.0767
  154SAPE   H5X17089   1.305   2.349   6.598 -1.4501 -1.2374 -2.3311
  154SAPE   H5Y17090   1.303   2.521   6.533 -0.2578  1.0823  1.8493
  154SAPE   C3617091   1.127   2.403   6.490 -0.0098  0.2026 -0.8788
  154SAPE   H6X17092   1.050   2.481   6.470 -0.1086  0.6754  1.1653
  154SAPE   H6Y17093   1.085   2.318   6.546  0.9710 -0.2033 -0.7333
  154SAPE   C3717094   1.168   2.345   6.354  0.1439 -0.5279  0.0708
  154SAPE   H7X17095   1.083   2.320   6.288  1.2197  0.7503 -1.8796
  154SAPE   H7Y17096   1.225   2.250   6.367 -0.1480 -0.5616  1.2655
  154SAPE   C3817097   1.234   2.458   6.261  0.7656  0.3744 -0.6677
  154SAPE   H8X17098   1.327   2.484   6.316  0.3397  1.8967 -0.5986
  154SAPE   H8Y17099   1.167   2.547   6.254 -0.0041 -0.1539 -0.1887
  154SAPE   C3917100   1.266   2.405   6.118 -0.8030  0.0352 -0.5318
  154SAPE   H9X17101   1.284   2.295   6.116 -1.9972 -0.1808 -0.4606
  154SAPE   H9Y17102   1.356   2.460   6.084 -1.1477  2.5038  2.1321
  154SAPE  C31017103   1.155   2.440   6.014  0.6582  0.5366  0.2303
  154SAPE  H10X17104   1.153   2.548   5.992  0.0784  0.6250  0.6676
  154SAPE  H10Y17105   1.056   2.404   6.049  0.2770  0.1421 -1.1864
  154SAPE  C31117106   1.193   2.363   5.891  0.1719  0.4668  0.5118
  154SAPE  H11X17107   1.173   2.255   5.909  0.6865  0.6007  1.9633
  154SAPE  H11Y17108   1.299   2.375   5.859 -0.2421 -0.0201 -1.1398
  154SAPE  C31217109   1.107   2.401   5.767  0.4308 -0.0131  0.5028
  154SAPE  H12X17110   1.112   2.509   5.745 -0.6408 -0.0593 -0.0337
  154SAPE  H12Y17111   0.999   2.391   5.793  0.2289  0.9778  0.0670
  154SAPE  C31317112   1.151   2.317   5.650  0.2630 -0.6319 -0.5848
  154SAPE  H13X17113   1.144   2.208   5.671 -1.3005 -0.9058 -2.2931
  154SAPE  H13Y17114   1.250   2.358   5.622  0.1627  0.5958  0.7356
  154SAPE  C31417115   1.049   2.333   5.530 -0.2469  0.2611 -0.2779
  154SAPE  H14X17116   1.032   2.441   5.513  1.0329  0.3690 -1.0109
  154SAPE  H14Y17117   0.948   2.296   5.556 -0.1702  0.8961  0.9869
  154SAPE  C31517118   1.095   2.276   5.400  0.2032  0.0642  0.4436
  154SAPE  H15X17119   1.199   2.310   5.377  0.5253 -1.0593  0.1792
  154SAPE  H15Y17120   1.030   2.328   5.327 -2.3965 -1.8629  1.2342
  154SAPE  C31617121   1.072   2.129   5.377 -0.1901  1.1284  0.1489
  154SAPE  H16X17122   0.966   2.095   5.388 -0.5719  1.7451 -1.4039
  154SAPE  H16Y17123   1.125   2.077   5.460  0.5969  2.7178  0.6687
  154SAPE  C31717124   1.136   2.077   5.244 -0.5157  0.5163  0.3106
  154SAPE  H17X17125   1.127   1.968   5.225 -1.9226  0.8086 -0.8592
  154SAPE  H17Y17126   1.245   2.096   5.254 -0.0135 -1.5591 -0.7659
  154SAPE  C31817127   1.086   2.149   5.116 -0.5451  0.3877 -0.0544
  154SAPE  H18X17128   1.134   2.106   5.025  1.6724 -0.5697  1.4822
  154SAPE  H18Y17129   1.112   2.257   5.125 -0.2091  0.4549 -1.5282
  154SAPE  H18Z17130   0.976   2.132   5.106 -0.8404  1.7847  0.5579
  155SAPE     N17131   2.063   6.846   7.372 -0.4836  0.0072  0.3620
  155SAPE   HN117132   2.103   6.906   7.447  1.2183 -1.0825  0.3701
  155SAPE   HN217133   1.994   6.900   7.315 -2.0923  0.4872  2.6408
  155SAPE   HN317134   1.995   6.776   7.407  2.5395 -2.5904  1.4769
  155SAPE   C1217135   2.169   6.781   7.290  0.4462 -0.0038 -0.0730
  155SAPE  H12A17136   2.215   6.867   7.238 -1.1424  0.9709  0.0785
  155SAPE  H12B17137   2.123   6.697   7.233 -0.4569 -0.3149  1.0718
  155SAPE   C1117138   2.277   6.717   7.387 -0.1181 -0.2596  0.8193
  155SAPE  H11A17139   2.336   6.795   7.439 -0.6092 -0.0555  1.0847
  155SAPE  H11B17140   2.357   6.669   7.328  0.3083  0.8963  0.4263
  155SAPE     P17141   2.315   6.554   7.590 -0.2045  0.0840 -0.2187
  155SAPE   O1317142   2.398   6.659   7.652 -0.3199  0.5750 -0.1477
  155SAPE   O1417143   2.220   6.474   7.679 -0.2340 -0.0812 -0.0725
  155SAPE   O1217144   2.227   6.622   7.478 -0.4808 -0.2571  0.1539
  155SAPE   O1117145   2.407   6.446   7.508  0.2875  0.0452 -0.3781
  155SAPE    C117146   2.365   6.347   7.415  0.9439 -0.0596 -0.1281
  155SAPE    HA17147   2.370   6.254   7.477 -0.9051  0.3586  0.7199
  155SAPE    HB17148   2.259   6.354   7.381  0.2592 -0.3554  1.7996
  155SAPE    C217149   2.456   6.331   7.290  0.7168 -0.4373  0.8660
  155SAPE    HS17150   2.562   6.330   7.325  1.0136  1.3946  0.1430
  155SAPE   O2117151   2.432   6.439   7.199  0.4065  0.3945 -0.3114
  155SAPE   C2117152   2.533   6.482   7.130 -0.5319 -0.5206  0.2458
  155SAPE   O2217153   2.645   6.430   7.139 -0.1141  0.2476  0.0125
  155SAPE   C2217154   2.493   6.600   7.047  0.0856  0.4181 -0.0917
  155SAPE   H2R17155   2.436   6.559   6.961  0.9811  1.3084 -1.1473
  155SAPE   H2S17156   2.427   6.663   7.110  1.4737  0.0512  1.8163
  155SAPE    C317157   2.417   6.202   7.215  0.0933  0.0713  0.9512
  155SAPE    HX17158   2.313   6.221   7.182  0.5464 -1.5384 -1.6345
  155SAPE    HY17159   2.430   6.104   7.266  1.6828 -0.4378 -0.3184
  155SAPE   O3117160   2.495   6.190   7.098  0.0676  0.0732 -0.0549
  155SAPE   C3117161   2.466   6.085   7.023 -0.3699 -0.3106 -0.6906
  155SAPE   O3217162   2.363   6.020   7.027 -0.1221  1.0398 -0.0768
  155SAPE   C3217163   2.593   6.042   6.945 -0.2630 -0.5476  0.0306
  155SAPE   H2X17164   2.566   5.951   6.888 -0.4873 -1.0420  0.9145
  155SAPE   H2Y17165   2.672   6.019   7.019  0.2513 -0.6506 -0.5485
  155SAPE   C2317166   2.619   6.668   6.983 -0.4217 -0.1195 -0.7721
  155SAPE   H3R17167   2.672   6.606   6.907  0.8541  0.7126 -0.6043
  155SAPE   H3S17168   2.699   6.674   7.061 -0.1413 -0.9961 -0.9814
  155SAPE   C2417169   2.581   6.810   6.927 -0.1452  0.0539 -0.6622
  155SAPE   H4R17170   2.679   6.862   6.917 -0.5327  1.4486  1.9070
  155SAPE   H4S17171   2.539   6.866   7.012 -0.0807  0.7510 -1.0835
  155SAPE   C2517172   2.493   6.809   6.804  0.4905  0.5708 -0.2875
  155SAPE   H5R17173   2.538   6.754   6.720 -0.0800 -0.1652 -0.1177
  155SAPE   C2617174   2.380   6.867   6.789  0.0373 -1.2304 -0.1575
  155SAPE   H6R17175   2.328   6.858   6.692 -0.2711  0.4487 -0.1741
  155SAPE   C2717176   2.303   6.929   6.899 -0.6393 -0.1098 -0.5780
  155SAPE   H7R17177   2.350   7.022   6.935 -0.1342 -0.7371  0.4236
  155SAPE   H7S17178   2.299   6.856   6.983  1.2970  0.2536 -0.1254
  155SAPE   C2817179   2.162   6.945   6.845  0.1413 -0.0624  0.0237
  155SAPE   H8R17180   2.091   6.867   6.876 -1.7779  0.9329 -1.6055
  155SAPE   C2917181   2.105   7.048   6.779 -0.1979 -0.0769 -0.1504
  155SAPE   H9R17182   1.998   7.037   6.753  0.6791 -2.3767 -3.3769
  155SAPE  C21017183   2.183   7.165   6.731 -0.1351 -0.0166 -0.0511
  155SAPE  H10R17184   2.280   7.178   6.785  0.1744  0.7339 -0.7729
  155SAPE  H10S17185   2.113   7.248   6.757 -3.0903 -2.2524 -0.3632
  155SAPE  C21117186   2.227   7.139   6.591 -0.0054  0.2095 -0.5213
  155SAPE  H11R17187   2.337   7.134   6.588 -0.0237  0.1260 -1.0573
  155SAPE  C21217188   2.161   7.134   6.475  0.7904  0.2365 -0.1599
  155SAPE  H12R17189   2.233   7.110   6.395 -0.7309  0.6939 -1.7307
  155SAPE  C21317190   2.011   7.139   6.436 -0.1759 -0.2301 -0.1939
  155SAPE  H13R17191   1.943   7.085   6.506  0.3248  0.1551  0.6021
  155SAPE  H13S17192   2.004   7.089   6.337 -2.5754  3.3939 -2.0597
  155SAPE  C21417193   1.949   7.280   6.422 -0.3047  0.8582  0.3073
  155SAPE  H14R17194   1.954   7.330   6.519 -3.3586 -1.7458  2.0070
  155SAPE  C21517195   1.905   7.338   6.305 -0.6005 -0.0654 -0.1327
  155SAPE  H15R17196   1.868   7.442   6.309  0.6336  0.4112 -0.6300
  155SAPE  C21617197   1.887   7.270   6.170  0.1992 -0.1371 -0.5065
  155SAPE  H16R17198   1.781   7.292   6.144  0.6554  2.7675 -0.1740
  155SAPE  H16S17199   1.909   7.162   6.184  3.2031  0.0428 -2.8731
  155SAPE  C21717200   1.988   7.309   6.062 -0.6566  0.4863  0.3424
  155SAPE  H17R17201   2.095   7.291   6.083 -0.2601  1.6117 -0.6098
  155SAPE  H17S17202   2.003   7.418   6.047  1.5699  0.0887 -0.6880
  155SAPE  C21817203   1.945   7.247   5.928 -0.3281  0.9218 -0.0647
  155SAPE  H18R17204   1.859   7.301   5.882 -0.2461  1.6574  0.6334
  155SAPE  H18S17205   1.932   7.141   5.959  1.5872 -0.1040 -2.4686
  155SAPE  C21917206   2.072   7.247   5.835  0.4658  0.1918 -0.3941
  155SAPE  H19R17207   2.060   7.160   5.767 -1.2136 -0.5729  0.8163
  155SAPE  H19S17208   2.161   7.238   5.901 -0.0939 -1.1175  0.2041
  155SAPE  C22017209   2.090   7.378   5.760 -0.0269  0.3396 -0.1621
  155SAPE  H20R17210   2.188   7.381   5.707 -0.0731  1.9619 -0.1959
  155SAPE  H20S17211   2.077   7.456   5.838  2.4759 -0.0495  0.7379
  155SAPE  H20T17212   2.022   7.413   5.680  0.0196  0.9724  0.0734
  155SAPE   C3317213   2.630   6.168   6.851 -0.2175  0.1921 -0.2327
  155SAPE   H3X17214   2.722   6.135   6.798 -0.6547  2.4475 -2.5819
  155SAPE   H3Y17215   2.664   6.259   6.905 -1.0492  2.1061 -2.7264
  155SAPE   C3417216   2.523   6.206   6.755  0.4362  0.2599  0.3689
  155SAPE   H4X17217   2.432   6.255   6.795 -1.3245 -2.1250 -0.5299
  155SAPE   H4Y17218   2.489   6.114   6.704  1.5000  1.3280 -2.4685
  155SAPE   C3517219   2.594   6.278   6.644  0.2040  0.0032 -0.0960
  155SAPE   H5X17220   2.675   6.211   6.607 -1.1127 -2.0018  0.5226
  155SAPE   H5Y17221   2.636   6.371   6.688  0.9026 -0.9707  1.3681
  155SAPE   C3617222   2.502   6.315   6.526 -0.1461  0.5958  0.2200
  155SAPE   H6X17223   2.448   6.402   6.569  2.3733  1.6934  1.3723
  155SAPE   H6Y17224   2.419   6.246   6.502  0.2195  0.3403 -0.3393
  155SAPE   C3717225   2.579   6.350   6.398  0.4044  0.3472  0.5822
  155SAPE   H7X17226   2.618   6.259   6.348  1.2014  0.3979  1.0848
  155SAPE   H7Y17227   2.669   6.411   6.423  1.8517 -1.9538  1.3516
  155SAPE   C3817228   2.491   6.430   6.304  1.1353  0.1102 -0.3711
  155SAPE   H8X17229   2.471   6.536   6.330  0.8179  0.3852 -1.6982
  155SAPE   H8Y17230   2.385   6.397   6.303  1.0852  0.2346  0.3636
  155SAPE   C3917231   2.555   6.447   6.160  0.5183  0.5482 -0.7811
  155SAPE   H9X17232   2.543   6.350   6.106 -2.2718 -0.3806  1.3050
  155SAPE   H9Y17233   2.665   6.459   6.174  0.4598 -0.8745  1.5011
  155SAPE  C31017234   2.498   6.572   6.092 -0.1665  0.5009  0.0155
  155SAPE  H10X17235   2.557   6.655   6.138 -0.2085 -0.1862  1.3726
  155SAPE  H10Y17236   2.393   6.594   6.122 -0.3855  0.2400 -0.5585
  155SAPE  C31117237   2.527   6.571   5.939  0.2390  0.0671  0.0206
  155SAPE  H11X17238   2.630   6.531   5.932  0.7456  1.6043 -2.9693
  155SAPE  H11Y17239   2.528   6.675   5.898 -2.3825  0.7793  1.5523
  155SAPE  C31217240   2.421   6.488   5.859 -0.0032 -0.0615  0.2210
  155SAPE  H12X17241   2.331   6.551   5.873  0.7121  0.7671  1.1816
  155SAPE  H12Y17242   2.396   6.388   5.902 -2.9216 -0.2130 -1.5998
  155SAPE  C31317243   2.472   6.469   5.716  0.0378  0.3423 -0.3822
  155SAPE  H13X17244   2.571   6.419   5.707  0.1245  0.6344 -1.2043
  155SAPE  H13Y17245   2.482   6.572   5.675  2.9425  1.1350  1.9112
  155SAPE  C31417246   2.386   6.393   5.619  0.6663 -0.3554  0.1310
  155SAPE  H14X17247   2.404   6.425   5.514  1.2921 -0.8229  0.0878
  155SAPE  H14Y17248   2.277   6.407   5.634  0.8354  0.7434  0.4739
  155SAPE  C31517249   2.404   6.239   5.623  0.4700  0.4670  0.4469
  155SAPE  H15X17250   2.399   6.202   5.727 -0.5581 -1.5545 -0.2721
  155SAPE  H15Y17251   2.506   6.221   5.583  0.3423  0.7282  0.0001
  155SAPE  C31617252   2.305   6.157   5.539  0.2067  0.7800  0.0729
  155SAPE  H16X17253   2.314   6.168   5.429  0.0343  1.0734  0.0870
  155SAPE  H16Y17254   2.204   6.187   5.576 -0.8733 -1.8150 -0.5796
  155SAPE  C31717255   2.328   6.002   5.559  0.3918 -0.4711  0.3989
  155SAPE  H17X17256   2.432   5.988   5.523  0.8661  0.0360  1.5051
  155SAPE  H17Y17257   2.258   5.944   5.495 -0.7677 -1.3960  2.4192
  155SAPE  C31817258   2.306   5.949   5.695  0.2217 -0.3015 -0.0801
  155SAPE  H18X17259   2.205   5.969   5.738  0.0242  1.3181 -1.2046
  155SAPE  H18Y17260   2.369   5.996   5.775 -1.4468 -0.4611  1.3942
  155SAPE  H18Z17261   2.328   5.841   5.701 -1.7748 -0.7074  0.8444
  156SAPE     N17262   4.964   6.490   7.555 -0.0314 -0.6835 -0.0534
  156SAPE   HN117263   4.967   6.414   7.485  0.1738 -1.4989  0.8196
  156SAPE   HN217264   5.005   6.467   7.648  0.1999  1.3555  0.4080
  156SAPE   HN317265   4.862   6.506   7.569 -0.3156 -0.4827 -2.1254
  156SAPE   C1217266   5.044   6.610   7.495 -0.1997 -0.0253  0.4402
  156SAPE  H12A17267   5.024   6.617   7.386  0.3396 -1.3077  0.2344
  156SAPE  H12B17268   5.151   6.586   7.510 -0.1228 -1.7550 -2.1215
  156SAPE   C1117269   5.027   6.738   7.568 -0.5040 -0.3083  0.7707
  156SAPE  H11A17270   5.111   6.802   7.535  0.8658 -1.8008  1.2378
  156SAPE  H11B17271   5.023   6.719   7.677 -4.5166  1.0540  1.0136
  156SAPE     P17272   4.779   6.816   7.605 -0.5285 -0.3050  0.3049
  156SAPE   O1317273   4.748   6.680   7.652  0.3661  0.0422  0.7617
  156SAPE   O1417274   4.792   6.925   7.701 -0.1809  0.5057 -0.0871
  156SAPE   O1217275   4.911   6.809   7.525 -0.1591 -0.6760 -0.3884
  156SAPE   O1117276   4.676   6.856   7.492  0.3191 -0.2495 -0.2331
  156SAPE    C117277   4.629   6.761   7.390 -0.3294 -0.2219 -0.1140
  156SAPE    HA17278   4.619   6.655   7.423 -0.3713 -0.6928 -1.5847
  156SAPE    HB17279   4.531   6.798   7.355 -0.3866 -1.7925 -1.7285
  156SAPE    C217280   4.717   6.760   7.263  0.5424 -0.2085 -0.2147
  156SAPE    HS17281   4.812   6.718   7.300  0.3650  0.2243  0.7742
  156SAPE   O2117282   4.740   6.894   7.229  0.1058 -0.0198 -0.2668
  156SAPE   C2117283   4.848   6.917   7.158 -0.6181 -0.0541 -0.5589
  156SAPE   O2217284   4.931   6.833   7.126  0.2034 -0.4929 -0.1137
  156SAPE   C2217285   4.849   7.065   7.115 -0.0551 -0.1186  0.3746
  156SAPE   H2R17286   4.748   7.101   7.085  0.1467  2.6153  2.4928
  156SAPE   H2S17287   4.890   7.126   7.198  0.6260 -1.3946  1.0096
  156SAPE    C317288   4.650   6.670   7.156  0.1068  0.2701  0.4448
  156SAPE    HX17289   4.545   6.703   7.140  0.1586 -0.1250 -0.7565
  156SAPE    HY17290   4.638   6.571   7.205 -0.3128 -0.9852 -2.0324
  156SAPE   O3117291   4.727   6.659   7.037  0.2260 -0.2253  0.6853
  156SAPE   C3117292   4.836   6.582   7.038 -0.0294  0.5100  0.8488
  156SAPE   O3217293   4.867   6.511   7.131  0.3685  0.4477  0.6612
  156SAPE   C3217294   4.898   6.585   6.899  0.1487 -0.1618 -0.6338
  156SAPE   H2X17295   4.963   6.495   6.898 -0.9556 -1.0022 -2.4077
  156SAPE   H2Y17296   4.963   6.673   6.882  0.1649 -0.1921 -0.7295
  156SAPE   C2317297   4.936   7.107   6.986 -0.4304  0.5963  0.2676
  156SAPE   H3R17298   5.029   7.047   6.999  0.8204  2.1140 -1.1989
  156SAPE   H3S17299   4.962   7.215   6.993 -1.0920  0.9267 -1.7410
  156SAPE   C2417300   4.847   7.081   6.868 -0.1715 -1.3452 -0.1562
  156SAPE   H4R17301   4.761   7.148   6.891  1.6300  0.3174  2.1017
  156SAPE   H4S17302   4.809   6.977   6.863  0.4373 -1.6657  1.3806
  156SAPE   C2517303   4.919   7.126   6.743 -1.2371  0.6783 -0.5620
  156SAPE   H5R17304   4.930   7.234   6.725  2.2373  0.4390 -0.6076
  156SAPE   C2617305   5.010   7.047   6.676  0.4826 -0.4349 -0.1513
  156SAPE   H6R17306   5.067   7.090   6.593  0.3208  1.2080  0.5539
  156SAPE   C2717307   5.059   6.913   6.713 -0.4287  0.0345  0.3259
  156SAPE   H7R17308   5.029   6.852   6.625  1.1454  0.4564 -0.5664
  156SAPE   H7S17309   5.002   6.883   6.803 -1.2295  3.0040  0.9360
  156SAPE   C2817310   5.207   6.905   6.745  0.5875  0.3890 -0.1692
  156SAPE   H8R17311   5.250   6.982   6.810  2.2209 -0.9073  0.3825
  156SAPE   C2917312   5.302   6.828   6.685  0.2193 -0.9159 -0.7491
  156SAPE   H9R17313   5.410   6.851   6.689  0.4210 -1.6181 -1.7916
  156SAPE  C21017314   5.279   6.722   6.589  0.6269 -0.1824  0.0735
  156SAPE  H10R17315   5.375   6.709   6.535  0.5586  1.0789 -0.3793
  156SAPE  H10S17316   5.200   6.753   6.517  0.7197 -1.6587 -0.7054
  156SAPE  C21117317   5.243   6.587   6.652 -0.0371  0.1426  0.5758
  156SAPE  H11R17318   5.174   6.600   6.737 -0.0018 -0.2075  0.6597
  156SAPE  C21217319   5.290   6.470   6.613 -0.1073  0.0665 -0.0885
  156SAPE  H12R17320   5.264   6.382   6.675  1.3882 -0.1654  0.2506
  156SAPE  C21317321   5.388   6.447   6.502 -0.3855 -0.7919 -0.2416
  156SAPE  H13R17322   5.410   6.535   6.438  2.4071 -0.8103  0.5367
  156SAPE  H13S17323   5.337   6.380   6.430 -1.5279 -0.2460  0.0412
  156SAPE  C21417324   5.513   6.379   6.553 -0.8529  0.1304 -0.3443
  156SAPE  H14R17325   5.513   6.336   6.654 -0.0713 -0.6545 -0.6554
  156SAPE  C21517326   5.613   6.330   6.474  0.3301 -0.3799  0.2135
  156SAPE  H15R17327   5.704   6.281   6.513  1.3364  1.0191 -0.2969
  156SAPE  C21617328   5.628   6.375   6.331  0.0102 -0.0683 -0.1146
  156SAPE  H16R17329   5.728   6.423   6.322 -0.0821  0.6688  2.2806
  156SAPE  H16S17330   5.557   6.455   6.300  0.8954  0.3808 -1.0451
  156SAPE  C21717331   5.640   6.261   6.235  0.1058 -0.0432  0.0342
  156SAPE  H17R17332   5.564   6.180   6.246 -0.2858  0.2511 -0.4699
  156SAPE  H17S17333   5.736   6.214   6.264  0.5201  0.2829 -0.7637
  156SAPE  C21817334   5.643   6.291   6.089 -0.3592 -0.5105  0.2112
  156SAPE  H18R17335   5.726   6.360   6.062 -1.2237 -0.0305 -1.3154
  156SAPE  H18S17336   5.548   6.337   6.057 -0.9508 -1.1651  0.9897
  156SAPE  C21917337   5.678   6.160   6.023 -0.3012 -0.0228  0.8586
  156SAPE  H19R17338   5.630   6.084   6.089 -0.7882  1.2598  2.0219
  156SAPE  H19S17339   5.787   6.142   6.029 -0.3135  0.2634  2.2261
  156SAPE  C22017340   5.631   6.162   5.879 -0.2700 -0.5282 -0.1429
  156SAPE  H20R17341   5.635   6.060   5.837  2.4943  0.2390 -2.0593
  156SAPE  H20S17342   5.703   6.219   5.816  3.0828 -1.5082  2.5239
  156SAPE  H20T17343   5.525   6.196   5.872  0.3568  2.0180  1.2261
  156SAPE   C3317344   4.798   6.539   6.791  0.1430 -0.1575  0.1225
  156SAPE   H3X17345   4.731   6.623   6.765  1.1314  0.7457  0.4169
  156SAPE   H3Y17346   4.740   6.447   6.816 -0.7364  0.1544 -0.7501
  156SAPE   C3417347   4.884   6.516   6.669  0.4869  0.4094  0.1071
  156SAPE   H4X17348   4.960   6.442   6.703  0.2180  0.3548  0.5888
  156SAPE   H4Y17349   4.925   6.614   6.635  1.2415 -0.3157 -1.1156
  156SAPE   C3517350   4.812   6.448   6.555  0.2202  1.1050 -0.5584
  156SAPE   H5X17351   4.721   6.507   6.532 -0.7051  0.7141  1.8895
  156SAPE   H5Y17352   4.782   6.347   6.588 -1.0603  1.4073 -0.7361
  156SAPE   C3617353   4.895   6.429   6.427  0.6191  0.0913 -0.3127
  156SAPE   H6X17354   4.854   6.351   6.360  0.5531  1.0766 -1.4571
  156SAPE   H6Y17355   4.996   6.394   6.455  0.3579 -0.3872  0.0525
  156SAPE   C3717356   4.900   6.560   6.336  0.3924  1.2457  0.4036
  156SAPE   H7X17357   4.954   6.638   6.393 -0.0322  2.9448 -1.4304
  156SAPE   H7Y17358   4.801   6.592   6.296  0.6000  2.0831  0.5395
  156SAPE   C3817359   4.994   6.546   6.218 -0.0310 -0.2371 -0.1402
  156SAPE   H8X17360   5.098   6.532   6.256 -0.4848 -0.2478  1.1386
  156SAPE   H8Y17361   4.991   6.639   6.156  0.4625  0.1766  0.4504
  156SAPE   C3917362   4.968   6.431   6.122  0.0465 -0.0273  0.4015
  156SAPE   H9X17363   4.860   6.433   6.099  0.1554  0.4571 -0.0863
  156SAPE   H9Y17364   4.989   6.337   6.178 -4.8532 -1.3959  0.3343
  156SAPE  C31017365   5.046   6.419   5.983 -0.4672 -0.7401 -0.4777
  156SAPE  H10X17366   4.995   6.459   5.893  3.5526 -1.8737 -3.5178
  156SAPE  H10Y17367   5.052   6.308   5.971 -5.0011 -1.1388 -1.0075
  156SAPE  C31117368   5.171   6.489   5.998 -0.3114 -0.0474 -1.2499
  156SAPE  H11X17369   5.229   6.466   6.090  1.2025 -0.1678 -2.1835
  156SAPE  H11Y17370   5.154   6.599   5.996  0.2073  0.1494  1.1902
  156SAPE  C31217371   5.267   6.443   5.887 -0.5647  0.1539 -0.0889
  156SAPE  H12X17372   5.298   6.337   5.898 -0.0179  0.0816 -2.0607
  156SAPE  H12Y17373   5.364   6.497   5.890  0.9159 -2.3338 -0.2430
  156SAPE  C31317374   5.206   6.473   5.741 -0.5108  0.2472 -0.5028
  156SAPE  H13X17375   5.151   6.568   5.753 -1.2900 -0.3304  0.6925
  156SAPE  H13Y17376   5.121   6.402   5.731 -0.8429  0.7537 -1.3247
  156SAPE  C31417377   5.310   6.465   5.630  0.3149 -0.4920 -0.1674
  156SAPE  H14X17378   5.383   6.388   5.661  0.7700  0.4207  1.1585
  156SAPE  H14Y17379   5.367   6.560   5.640  1.5509 -1.2295  0.0332
  156SAPE  C31517380   5.251   6.442   5.487  0.1105 -0.2852 -0.0234
  156SAPE  H15X17381   5.173   6.522   5.487  0.4790  0.0829  0.4375
  156SAPE  H15Y17382   5.198   6.345   5.476  0.2854 -0.3743 -0.0779
  156SAPE  C31617383   5.355   6.471   5.371 -0.6437  0.1972 -1.0420
  156SAPE  H16X17384   5.399   6.569   5.399 -0.1489 -0.4186  0.4510
  156SAPE  H16Y17385   5.300   6.473   5.275 -1.0950 -0.2422 -0.7997
  156SAPE  C31717386   5.467   6.365   5.363  0.4644  0.1899  0.5568
  156SAPE  H17X17387   5.471   6.308   5.459 -0.4679 -0.2389  0.3474
  156SAPE  H17Y17388   5.569   6.407   5.347  1.3726 -2.0074  0.2520
  156SAPE  C31817389   5.456   6.267   5.245  0.0867 -0.7323 -0.4907
  156SAPE  H18X17390   5.538   6.195   5.265  0.3668  0.1510  1.8729
  156SAPE  H18Y17391   5.467   6.315   5.146 -1.4191 -0.0596 -0.3696
  156SAPE  H18Z17392   5.364   6.204   5.243 -0.1025 -0.4614 -2.9826
  157SAPE     N17393   3.653   4.645   7.342  0.7536 -0.4063  0.1119
  157SAPE   HN117394   3.561   4.682   7.375  1.3094  1.2936 -0.1317
  157SAPE   HN217395   3.706   4.717   7.288 -2.5425  3.2537  1.2894
  157SAPE   HN317396   3.631   4.566   7.278  2.0654 -0.8663  0.2026
  157SAPE   C1217397   3.725   4.603   7.463 -0.9240 -0.1965 -0.2894
  157SAPE  H12A17398   3.833   4.593   7.439 -0.9242 -0.1320 -0.3169
  157SAPE  H12B17399   3.682   4.505   7.490 -2.9444  0.5006 -0.7804
  157SAPE   C1117400   3.708   4.709   7.578 -0.0223  0.1851 -0.1623
  157SAPE  H11A17401   3.701   4.813   7.541  1.1165  1.4050  2.6929
  157SAPE  H11B17402   3.799   4.702   7.641 -1.3739 -1.1892  1.7552
  157SAPE     P17403   3.463   4.738   7.653  0.6723  0.7029  0.5453
  157SAPE   O1317404   3.360   4.631   7.689  0.5734  0.8625 -0.0932
  157SAPE   O1417405   3.459   4.863   7.742  0.3044  0.4379  0.4961
  157SAPE   O1217406   3.603   4.669   7.665  0.1345 -0.0930  0.2759
  157SAPE   O1117407   3.451   4.778   7.502  0.4946 -0.2684 -0.9062
  157SAPE    C117408   3.334   4.838   7.446 -0.0957  0.2938  0.0289
  157SAPE    HA17409   3.243   4.787   7.485 -0.1533  0.5656  0.2512
  157SAPE    HB17410   3.333   4.940   7.489  1.4501  1.0357 -1.5717
  157SAPE    C217411   3.329   4.865   7.293  0.3489 -0.7098 -0.1549
  157SAPE    HS17412   3.235   4.916   7.262  1.1020  0.2098 -0.9760
  157SAPE   O2117413   3.326   4.735   7.223  0.6165  0.0713  0.3689
  157SAPE   C2117414   3.205   4.680   7.224  0.5469  0.1559  0.3206
  157SAPE   O2217415   3.106   4.730   7.275  0.4351  0.1144 -0.4428
  157SAPE   C2217416   3.211   4.551   7.148  0.7235 -0.6450  0.7305
  157SAPE   H2R17417   3.260   4.582   7.053  1.3885  0.3266  1.3675
  157SAPE   H2S17418   3.280   4.476   7.193  2.9322  0.7572 -0.1061
  157SAPE    C317419   3.459   4.940   7.243 -0.5721 -0.0282  0.5079
  157SAPE    HX17420   3.542   4.876   7.278  0.2345 -0.6790 -2.2988
  157SAPE    HY17421   3.447   5.036   7.298  1.3322  0.5719 -0.0682
  157SAPE   O3117422   3.462   4.956   7.102 -0.1313  0.7911  0.1033
  157SAPE   C3117423   3.533   4.862   7.033  0.4696 -0.0902 -0.0498
  157SAPE   O3217424   3.589   4.764   7.083 -0.0077  0.2840  0.1720
  157SAPE   C3217425   3.510   4.898   6.878 -0.0471  0.2853 -0.5825
  157SAPE   H2X17426   3.450   4.992   6.868  0.5570  0.7896  0.3878
  157SAPE   H2Y17427   3.438   4.821   6.844 -1.7312  1.2108  0.6997
  157SAPE   C2317428   3.061   4.502   7.130  0.6558 -0.8905  0.3367
  157SAPE   H3R17429   2.996   4.589   7.109  1.9072  0.4710  1.7907
  157SAPE   H3S17430   3.016   4.458   7.221 -0.8674  0.7646  0.4388
  157SAPE   C2417431   3.054   4.391   7.024 -0.7378  0.1627 -0.5129
  157SAPE   H4R17432   3.070   4.428   6.920  2.1096  1.3390  0.2617
  157SAPE   H4S17433   2.947   4.359   7.017 -0.1951 -2.0536  0.5464
  157SAPE   C2517434   3.136   4.274   7.068  0.3296  0.3070  0.2291
  157SAPE   H5R17435   3.091   4.213   7.148 -3.0603  0.3720 -1.4812
  157SAPE   C2617436   3.256   4.229   7.017  0.3018  0.2590  0.2993
  157SAPE   H6R17437   3.315   4.146   7.060  2.2068  0.9479 -0.8683
  157SAPE   C2717438   3.321   4.279   6.896  0.1349 -0.1273 -0.0102
  157SAPE   H7R17439   3.249   4.347   6.845 -1.3563 -1.0439  0.8133
  157SAPE   H7S17440   3.348   4.195   6.829 -1.4320  1.0206 -2.2258
  157SAPE   C2817441   3.453   4.345   6.920 -0.1807  1.1645  0.3433
  157SAPE   H8R17442   3.492   4.314   7.019 -1.3632 -2.4083 -0.1777
  157SAPE   C2917443   3.515   4.431   6.844 -0.7327  0.5033  0.3955
  157SAPE   H9R17444   3.613   4.471   6.874 -1.0578  0.1087  2.1408
  157SAPE  C21017445   3.471   4.481   6.703 -0.0142  0.1762  0.6709
  157SAPE  H10R17446   3.543   4.563   6.681 -2.1604  1.9641  0.0026
  157SAPE  H10S17447   3.376   4.538   6.698  0.7530  1.3983 -2.2454
  157SAPE  C21117448   3.480   4.384   6.592 -0.2706 -0.4708 -0.4468
  157SAPE  H11R17449   3.499   4.282   6.628 -1.3223 -0.3306  0.5614
  157SAPE  C21217450   3.471   4.419   6.459 -0.3516  0.0480 -0.0239
  157SAPE  H12R17451   3.476   4.336   6.387 -1.8167 -0.3718  0.3230
  157SAPE  C21317452   3.454   4.563   6.414  0.3162  0.2344 -0.5121
  157SAPE  H13R17453   3.547   4.603   6.368  0.4373  0.3599 -0.1613
  157SAPE  H13S17454   3.425   4.626   6.500 -0.9536  2.3895 -2.4004
  157SAPE  C21417455   3.340   4.567   6.313  0.1871 -0.2121  0.5092
  157SAPE  H14R17456   3.284   4.474   6.297  0.5444 -0.5206  0.9979
  157SAPE  C21517457   3.324   4.661   6.216  0.0496  0.8589  0.4889
  157SAPE  H15R17458   3.247   4.647   6.139  2.0736 -1.2697 -1.3016
  157SAPE  C21617459   3.404   4.783   6.186 -0.2533  0.1105  0.5612
  157SAPE  H16R17460   3.472   4.800   6.273 -1.9900 -1.7588  2.3923
  157SAPE  H16S17461   3.346   4.876   6.175  0.3892  0.4430 -0.1178
  157SAPE  C21717462   3.482   4.762   6.057  0.3585  0.0221  0.3483
  157SAPE  H17R17463   3.514   4.861   6.018 -0.5365  0.1603 -0.0466
  157SAPE  H17S17464   3.416   4.710   5.985 -0.0178 -0.8259  1.2802
  157SAPE  C21817465   3.618   4.688   6.074 -1.0786 -0.3045  0.4662
  157SAPE  H18R17466   3.602   4.591   6.127  1.8269 -1.8063 -1.1631
  157SAPE  H18S17467   3.682   4.757   6.134 -0.8995 -0.5828  0.5960
  157SAPE  C21917468   3.700   4.657   5.941  0.2095  0.6402 -0.8508
  157SAPE  H19R17469   3.645   4.574   5.892  2.7002 -2.3114  0.9918
  157SAPE  H19S17470   3.793   4.602   5.967 -0.7112 -0.1951  0.8334
  157SAPE  C22017471   3.718   4.773   5.850  0.0350 -0.5576  0.2526
  157SAPE  H20R17472   3.614   4.807   5.835 -0.3899 -2.0769 -0.4005
  157SAPE  H20S17473   3.777   4.743   5.761  2.1812 -0.3901  1.5228
  157SAPE  H20T17474   3.772   4.862   5.891  0.2011 -0.7444  0.4446
  157SAPE   C3317475   3.644   4.899   6.800  0.1178 -0.6376 -0.3108
  157SAPE   H3X17476   3.710   4.812   6.819 -1.8847 -2.4011 -1.0969
  157SAPE   H3Y17477   3.704   4.987   6.833  1.4183 -1.7127  0.2730
  157SAPE   C3417478   3.618   4.906   6.652  0.5361 -0.0995 -0.4551
  157SAPE   H4X17479   3.558   4.993   6.617 -1.5814 -1.7937 -1.2974
  157SAPE   H4Y17480   3.560   4.821   6.609  0.5621 -0.6690  0.6114
  157SAPE   C3517481   3.754   4.915   6.580  0.0824  0.0489  0.6641
  157SAPE   H5X17482   3.808   4.819   6.597 -1.0049 -0.3446  2.1089
  157SAPE   H5Y17483   3.822   4.990   6.625 -1.0940  2.0218 -0.7118
  157SAPE   C3617484   3.730   4.939   6.428 -0.7445 -0.5853 -0.4160
  157SAPE   H6X17485   3.670   4.851   6.396 -2.0662  0.1009  0.0798
  157SAPE   H6Y17486   3.824   4.942   6.370 -1.8594  0.8446 -2.2785
  157SAPE   C3717487   3.647   5.060   6.396  0.6617  0.0658  0.3078
  157SAPE   H7X17488   3.692   5.149   6.445 -2.2409  1.1334  1.2339
  157SAPE   H7Y17489   3.548   5.034   6.440  1.1441 -0.6810  0.9801
  157SAPE   C3817490   3.630   5.089   6.246 -0.5134 -0.0253 -0.1452
  157SAPE   H8X17491   3.536   5.143   6.224  0.3719  2.0037  0.7913
  157SAPE   H8Y17492   3.620   4.991   6.194 -0.6930 -0.1524  0.1264
  157SAPE   C3917493   3.740   5.176   6.180 -0.3026 -0.4391 -0.2265
  157SAPE   H9X17494   3.846   5.144   6.188 -0.6354 -1.2754  1.2377
  157SAPE   H9Y17495   3.733   5.279   6.220 -0.2068  0.1430 -1.6760
  157SAPE  C31017496   3.706   5.183   6.029  0.4533 -0.2469  0.3375
  157SAPE  H10X17497   3.598   5.185   6.005  0.7770 -0.9398 -1.3490
  157SAPE  H10Y17498   3.743   5.092   5.977  1.1746 -0.0524  0.4962
  157SAPE  C31117499   3.771   5.299   5.959 -0.1259 -0.3276  0.3962
  157SAPE  H11X17500   3.882   5.302   5.970  0.1920 -0.2972 -2.1833
  157SAPE  H11Y17501   3.727   5.384   6.017 -0.0581  0.8839 -1.2461
  157SAPE  C31217502   3.735   5.305   5.810  0.0448  0.2014 -0.5560
  157SAPE  H12X17503   3.625   5.305   5.793 -0.1730  0.1088  0.7139
  157SAPE  H12Y17504   3.783   5.213   5.770  0.6410 -0.8730  2.3763
  157SAPE  C31317505   3.787   5.429   5.735  0.1121 -0.6649  0.7257
  157SAPE  H13X17506   3.898   5.437   5.737  0.2617 -1.5419 -1.3617
  157SAPE  H13Y17507   3.737   5.519   5.777 -0.0067 -0.2506 -0.2721
  157SAPE  C31417508   3.747   5.433   5.578 -0.0356 -0.1598 -0.1582
  157SAPE  H14X17509   3.795   5.524   5.536 -0.4479  0.2564  0.2641
  157SAPE  H14Y17510   3.638   5.455   5.574 -0.3174 -1.5055 -0.0977
  157SAPE  C31517511   3.783   5.309   5.504  0.2734  0.2596 -0.2056
  157SAPE  H15X17512   3.719   5.223   5.535  1.6700 -0.9205 -0.4862
  157SAPE  H15Y17513   3.883   5.277   5.540  1.6109  1.4436 -2.6528
  157SAPE  C31617514   3.769   5.315   5.353  0.4771 -0.6745  0.5931
  157SAPE  H16X17515   3.841   5.391   5.316  0.7422 -0.6406  1.1603
  157SAPE  H16Y17516   3.663   5.336   5.329  0.6981  0.2375  0.3842
  157SAPE  C31717517   3.818   5.186   5.288 -0.3759  0.3925 -0.1523
  157SAPE  H17X17518   3.749   5.103   5.312 -2.2494  1.3072 -2.0327
  157SAPE  H17Y17519   3.913   5.163   5.340 -0.6758  0.4469  0.4292
  157SAPE  C31817520   3.851   5.198   5.135 -0.0441  0.2636 -0.1117
  157SAPE  H18X17521   3.911   5.290   5.122  0.7424 -0.1899  0.2294
  157SAPE  H18Y17522   3.756   5.220   5.083  0.8038  0.3080 -1.6748
  157SAPE  H18Z17523   3.883   5.099   5.097 -4.6509 -1.4496 -0.2042
  158SAPE     N17524   0.532   1.682   7.779 -0.3197  0.1024 -0.0885
  158SAPE   HN117525   0.465   1.700   7.856  0.6320  0.0783  0.7633
  158SAPE   HN217526   0.548   1.580   7.767 -3.1880 -0.2027 -2.2880
  158SAPE   HN317527   0.631   1.708   7.796  0.4567 -1.5443 -1.6897
  158SAPE   C1217528   0.474   1.739   7.659 -0.8511 -0.4393  0.4072
  158SAPE  H12A17529   0.452   1.845   7.686  0.5310 -0.1358  0.4194
  158SAPE  H12B17530   0.375   1.691   7.642 -1.1963  0.1178  0.8004
  158SAPE   C1117531   0.564   1.751   7.532  0.3346  0.9033 -0.3910
  158SAPE  H11A17532   0.518   1.831   7.470  0.1254  0.6708 -0.5341
  158SAPE  H11B17533   0.560   1.653   7.482  2.2100 -0.4816  1.9575
  158SAPE     P17534   0.793   1.852   7.459 -0.4150  1.2369 -0.7514
  158SAPE   O1317535   0.750   1.990   7.439  0.0413 -0.2197 -0.4936
  158SAPE   O1417536   0.935   1.831   7.503 -0.0024  0.0513 -0.1926
  158SAPE   O1217537   0.703   1.780   7.566  1.2292  0.2513  0.2761
  158SAPE   O1117538   0.772   1.772   7.324 -0.6853  0.0032  0.0158
  158SAPE    C117539   0.802   1.638   7.301 -0.0814 -0.7411  0.1994
  158SAPE    HA17540   0.895   1.615   7.357  0.1497  1.3710  0.7794
  158SAPE    HB17541   0.713   1.580   7.333  0.0375 -0.3281  1.3198
  158SAPE    C217542   0.829   1.620   7.149  0.6367  0.0032 -0.6448
  158SAPE    HS17543   0.832   1.509   7.139 -1.9990 -0.5592  2.7175
  158SAPE   O2117544   0.954   1.684   7.114  0.1431 -0.2214  0.1066
  158SAPE   C2117545   1.072   1.616   7.147  0.5179  0.1522  0.7563
  158SAPE   O2217546   1.072   1.522   7.226 -0.3593 -0.0448 -0.6079
  158SAPE   C2217547   1.196   1.668   7.070 -0.4985 -0.1453  0.0284
  158SAPE   H2R17548   1.171   1.771   7.037 -1.5226  0.4387  2.3885
  158SAPE   H2S17549   1.279   1.671   7.144 -0.6797 -1.9778  0.3519
  158SAPE    C317550   0.716   1.682   7.066 -0.0350 -0.7264 -0.6517
  158SAPE    HX17551   0.723   1.791   7.084 -2.7328 -1.0199  3.8030
  158SAPE    HY17552   0.626   1.645   7.120  0.9911 -0.0270  1.7050
  158SAPE   O3117553   0.720   1.648   6.927 -0.0156 -0.5299  0.3762
  158SAPE   C3117554   0.607   1.603   6.869  0.3350 -0.4118 -0.2155
  158SAPE   O3217555   0.495   1.590   6.924  0.3517  0.0177  0.0904
  158SAPE   C3217556   0.638   1.571   6.723  0.1220 -0.7584 -0.0254
  158SAPE   H2X17557   0.633   1.460   6.722 -1.4700 -0.7092  0.0772
  158SAPE   H2Y17558   0.740   1.596   6.689  0.2238 -3.8449 -2.4561
  158SAPE   C2317559   1.243   1.566   6.954  0.3897 -0.4620 -0.1216
  158SAPE   H3R17560   1.269   1.469   7.000 -2.2889 -1.4801 -0.5795
  158SAPE   H3S17561   1.331   1.607   6.899 -0.3242 -0.3965 -1.2527
  158SAPE   C2417562   1.144   1.528   6.845  0.2463  0.1849  0.0053
  158SAPE   H4R17563   1.051   1.476   6.875  0.5297 -0.0407  0.5006
  158SAPE   H4S17564   1.201   1.463   6.775 -0.2271  0.0212 -0.2294
  158SAPE   C2517565   1.112   1.648   6.757 -0.3804  0.3985  0.1894
  158SAPE   H5R17566   1.037   1.709   6.809  1.3286  0.0536  3.3794
  158SAPE   C2617567   1.132   1.675   6.625 -0.3668 -0.1988 -0.5024
  158SAPE   H6R17568   1.106   1.778   6.594  3.2027  1.1161  0.3592
  158SAPE   C2717569   1.202   1.592   6.523 -0.2725  0.2077  0.2608
  158SAPE   H7R17570   1.284   1.539   6.575  0.7838  1.3536 -0.1738
  158SAPE   H7S17571   1.267   1.662   6.465  1.2596  0.9271  2.7047
  158SAPE   C2817572   1.123   1.518   6.422  0.4351 -0.0485  0.1443
  158SAPE   H8R17573   1.040   1.452   6.452  2.1845 -1.4589  2.1843
  158SAPE   C2917574   1.125   1.538   6.282 -0.6630 -0.1290  0.7247
  158SAPE   H9R17575   1.057   1.482   6.216 -0.7230  0.3073  0.4124
  158SAPE  C21017576   1.205   1.638   6.209  0.0306  0.3875 -0.7066
  158SAPE  H10R17577   1.313   1.613   6.212 -0.4904 -1.9889  0.4624
  158SAPE  H10S17578   1.196   1.730   6.271  0.3168  0.0236 -0.1122
  158SAPE  C21117579   1.146   1.649   6.072  1.1044  0.1961 -0.6432
  158SAPE  H11R17580   1.050   1.702   6.067 -0.6667 -2.2833  2.5015
  158SAPE  C21217581   1.190   1.607   5.954 -0.9569 -0.1839 -0.0265
  158SAPE  H12R17582   1.148   1.644   5.859 -0.5854 -0.9779 -0.5021
  158SAPE  C21317583   1.325   1.530   5.928  0.6037 -0.5700 -0.4763
  158SAPE  H13R17584   1.311   1.445   5.858 -0.0217 -0.1813 -0.8322
  158SAPE  H13S17585   1.353   1.489   6.027 -2.4326 -0.9691  0.3326
  158SAPE  C21417586   1.425   1.622   5.867 -0.4509  0.1936  0.6121
  158SAPE  H14R17587   1.482   1.671   5.948  1.6479  0.5817 -1.0196
  158SAPE  C21517588   1.472   1.631   5.746 -0.3485  0.6745 -0.3305
  158SAPE  H15R17589   1.562   1.689   5.722 -0.1086  1.0605  1.3423
  158SAPE  C21617590   1.417   1.554   5.631  0.1965  0.3134 -0.0520
  158SAPE  H16R17591   1.402   1.445   5.649 -0.1546  0.1938 -1.0252
  158SAPE  H16S17592   1.487   1.556   5.545  2.6211 -1.9144  1.6972
  158SAPE  C21717593   1.282   1.599   5.591 -0.0907  0.7046 -0.5995
  158SAPE  H17R17594   1.272   1.708   5.608  0.5479  0.9239 -1.5194
  158SAPE  H17S17595   1.197   1.552   5.645 -1.3764  1.8480 -1.5681
  158SAPE  C21817596   1.254   1.587   5.442  0.5193 -0.4448  0.6395
  158SAPE  H18R17597   1.269   1.484   5.405  0.2398 -0.6604  1.1137
  158SAPE  H18S17598   1.328   1.659   5.399 -2.1170  1.9790 -0.1621
  158SAPE  C21917599   1.112   1.644   5.400 -0.2318 -0.0224 -0.1803
  158SAPE  H19R17600   1.106   1.750   5.432 -0.3462 -0.1775  0.3132
  158SAPE  H19S17601   1.042   1.578   5.454 -0.8795  0.7972 -0.0054
  158SAPE  C22017602   1.076   1.648   5.250  0.1538 -0.5951  0.1626
  158SAPE  H20R17603   1.045   1.550   5.207 -2.3834  0.4732 -0.6190
  158SAPE  H20S17604   1.154   1.686   5.180  1.0919 -1.6755  0.5943
  158SAPE  H20T17605   0.981   1.703   5.233 -0.0945 -1.0671  0.0006
  158SAPE   C3317606   0.540   1.625   6.619 -0.0942  0.3190  0.5731
  158SAPE   H3X17607   0.554   1.733   6.597  1.6138 -0.2556 -1.4997
  158SAPE   H3Y17608   0.435   1.605   6.650 -0.3948  0.9444 -0.0270
  158SAPE   C3417609   0.552   1.562   6.478 -0.1506  0.2263 -0.0632
  158SAPE   H4X17610   0.511   1.459   6.471 -1.7395  0.9412 -3.8193
  158SAPE   H4Y17611   0.663   1.555   6.469 -0.1833 -1.5373  0.4327
  158SAPE   C3517612   0.505   1.660   6.373 -0.5240  0.2772  0.3779
  158SAPE   H5X17613   0.572   1.749   6.367  0.2307 -0.3405 -0.9123
  158SAPE   H5Y17614   0.403   1.695   6.399 -0.5213 -0.6653  1.7316
  158SAPE   C3617615   0.508   1.597   6.228 -0.3656 -0.1940  0.1970
  158SAPE   H6X17616   0.444   1.652   6.154  0.1450 -0.5580 -0.5309
  158SAPE   H6Y17617   0.470   1.493   6.230  0.3197 -0.4482  0.1026
  158SAPE   C3717618   0.641   1.599   6.158  0.0358 -0.4092  0.2683
  158SAPE   H7X17619   0.716   1.563   6.232 -0.3004  1.3673  1.5306
  158SAPE   H7Y17620   0.674   1.703   6.138  1.0585 -0.4397  1.6215
  158SAPE   C3817621   0.633   1.520   6.026 -0.0668 -0.1922 -0.3528
  158SAPE   H8X17622   0.563   1.569   5.955  0.7542 -0.1594 -1.1720
  158SAPE   H8Y17623   0.575   1.426   6.040 -0.9734  0.6414  1.8633
  158SAPE   C3917624   0.777   1.505   5.957 -0.2101  0.5917 -0.6809
  158SAPE   H9X17625   0.844   1.452   6.028  0.0409 -0.6340 -1.7870
  158SAPE   H9Y17626   0.820   1.602   5.923 -0.5048  0.4277 -1.5543
  158SAPE  C31017627   0.772   1.412   5.834  0.3802  0.5720  0.2010
  158SAPE  H10X17628   0.680   1.441   5.779  1.0134  0.5201 -0.9188
  158SAPE  H10Y17629   0.760   1.306   5.864 -0.2491  0.0055 -1.8743
  158SAPE  C31117630   0.894   1.429   5.741 -0.7837  0.0337 -0.2257
  158SAPE  H11X17631   0.988   1.405   5.795  0.0071  0.9772 -1.1523
  158SAPE  H11Y17632   0.904   1.534   5.707 -1.3865  0.5376  1.0653
  158SAPE  C31217633   0.878   1.339   5.609  0.2345 -0.0141  0.0944
  158SAPE  H12X17634   0.964   1.372   5.548  1.4081  0.0533  1.7011
  158SAPE  H12Y17635   0.787   1.379   5.559  1.8041  2.3918 -0.9755
  158SAPE  C31317636   0.877   1.186   5.634 -0.0667  0.4035 -0.7482
  158SAPE  H13X17637   0.786   1.163   5.694  0.6723 -0.5351  0.0313
  158SAPE  H13Y17638   0.966   1.169   5.698 -0.7135 -2.8650 -0.5184
  158SAPE  C31417639   0.887   1.108   5.502  0.1837  0.0792  0.1023
  158SAPE  H14X17640   0.932   1.016   5.544  1.0603  0.4458 -0.0041
  158SAPE  H14Y17641   0.954   1.155   5.426 -0.9962 -0.8947 -1.6161
  158SAPE  C31517642   0.753   1.084   5.438  0.1722 -0.1890  0.5453
  158SAPE  H15X17643   0.713   1.182   5.404 -0.2119  0.2461  2.1545
  158SAPE  H15Y17644   0.672   1.064   5.512 -3.4899 -1.2657 -3.3681
  158SAPE  C31617645   0.745   0.984   5.317  0.0177 -0.4076  0.2458
  158SAPE  H16X17646   0.751   0.879   5.352  0.2178 -0.8006 -0.9143
  158SAPE  H16Y17647   0.830   1.002   5.247  1.1095  1.3447  1.9349
  158SAPE  C31717648   0.618   0.990   5.236  0.8498 -0.3707  0.2370
  158SAPE  H17X17649   0.600   1.095   5.205  0.2208 -0.4505  0.3080
  158SAPE  H17Y17650   0.544   0.965   5.316  2.4323 -0.5299  1.7119
  158SAPE  C31817651   0.628   0.891   5.108 -0.7940 -0.3218 -1.3052
  158SAPE  H18X17652   0.553   0.927   5.035 -2.3037 -0.4440  0.1182
  158SAPE  H18Y17653   0.598   0.787   5.134  0.4142 -1.3176 -3.5981
  158SAPE  H18Z17654   0.722   0.890   5.049 -0.7180 -0.6599 -1.1810
  159SAPE     N17655   3.148   4.735   2.978  0.3359  0.2121 -0.4096
  159SAPE   HN117656   3.166   4.755   2.878  0.1704  0.2070 -0.4397
  159SAPE   HN217657   3.190   4.641   2.990  1.7620  0.7087 -1.2077
  159SAPE   HN317658   3.047   4.745   3.000  0.3323  2.2069 -1.0983
  159SAPE   C1217659   3.239   4.830   3.061  0.7043  0.1875 -0.4030
  159SAPE  H12A17660   3.196   4.828   3.164 -0.6058  1.2210 -0.9042
  159SAPE  H12B17661   3.218   4.931   3.021 -0.6669 -0.0596 -0.3589
  159SAPE   C1117662   3.384   4.791   3.064  0.0128  0.0158 -0.7703
  159SAPE  H11A17663   3.396   4.699   3.126 -0.8945  0.1319 -0.4120
  159SAPE  H11B17664   3.431   4.874   3.121 -1.3840 -0.1936  0.7565
  159SAPE     P17665   3.527   4.859   2.859 -0.0225 -0.0588 -0.0610
  159SAPE   O1317666   3.639   4.772   2.810 -0.5595 -0.1910 -0.0139
  159SAPE   O1417667   3.447   4.908   2.746  0.8143 -0.0739  0.3891
  159SAPE   O1217668   3.433   4.763   2.938 -0.2051  0.1198  0.1354
  159SAPE   O1117669   3.573   4.971   2.948  0.0836 -0.3579  0.1443
  159SAPE    C117670   3.615   5.098   2.912  0.4147  0.5002  0.5983
  159SAPE    HA17671   3.707   5.096   2.850  0.9636 -0.3224  1.4048
  159SAPE    HB17672   3.530   5.135   2.850  0.1723  0.9677  1.2011
  159SAPE    C217673   3.627   5.196   3.032  0.6506  0.4642  0.4461
  159SAPE    HS17674   3.658   5.286   2.974 -0.3260  0.7104  0.2888
  159SAPE   O2117675   3.726   5.143   3.123 -0.2125  0.2449 -0.2354
  159SAPE   C2117676   3.775   5.243   3.195 -0.0074 -0.0553 -0.0257
  159SAPE   O2217677   3.746   5.360   3.174  0.9597  0.3868  0.0053
  159SAPE   C2217678   3.852   5.193   3.314 -1.0747 -1.1304  0.2098
  159SAPE   H2R17679   3.822   5.087   3.329  0.0609 -1.8392 -2.0830
  159SAPE   H2S17680   3.960   5.191   3.286 -1.3867 -0.3871 -1.1063
  159SAPE    C317681   3.483   5.200   3.091  0.3935 -0.0955 -0.8324
  159SAPE    HX17682   3.452   5.098   3.121  0.2570  0.6240  1.7282
  159SAPE    HY17683   3.412   5.234   3.013 -0.8827  0.6467  0.5900
  159SAPE   O3117684   3.475   5.292   3.205 -0.5142  0.3604  0.0229
  159SAPE   C3117685   3.443   5.416   3.178  0.5291  0.4241  0.2424
  159SAPE   O3217686   3.400   5.462   3.073 -0.0870  0.4903 -0.1142
  159SAPE   C3217687   3.475   5.510   3.305 -0.5594 -0.0935 -0.1860
  159SAPE   H2X17688   3.486   5.618   3.281 -0.1509 -0.5571 -2.3758
  159SAPE   H2Y17689   3.579   5.473   3.320 -0.2427  0.0092 -1.8686
  159SAPE   C2317690   3.826   5.283   3.438 -0.3824 -0.7554 -0.0615
  159SAPE   H3R17691   3.718   5.300   3.453 -0.5774  0.3228 -2.3076
  159SAPE   H3S17692   3.868   5.386   3.426 -0.5829 -0.5845  0.6352
  159SAPE   C2417693   3.889   5.227   3.573  1.2020  1.0081 -0.1687
  159SAPE   H4R17694   3.994   5.202   3.549  1.1681  0.6060  0.1006
  159SAPE   H4S17695   3.836   5.132   3.596  1.4264  0.8381 -0.3527
  159SAPE   C2517696   3.865   5.331   3.674 -0.5951 -0.1044 -0.3145
  159SAPE   H5R17697   3.762   5.370   3.673  0.7883  4.0368 -2.6557
  159SAPE   C2617698   3.957   5.379   3.765  0.0092  0.6422  0.6657
  159SAPE   H6R17699   3.936   5.466   3.829 -1.6144  0.9372 -0.2244
  159SAPE   C2717700   4.096   5.319   3.769  0.1080  0.0330 -0.2909
  159SAPE   H7R17701   4.149   5.372   3.851  2.0263 -0.3704 -1.2250
  159SAPE   H7S17702   4.158   5.347   3.681 -0.9517  0.5500 -0.8970
  159SAPE   C2817703   4.107   5.174   3.796 -0.2374 -0.0236  0.0085
  159SAPE   H8R17704   4.011   5.120   3.790  0.0310 -0.4434 -0.6543
  159SAPE   C2917705   4.217   5.111   3.842  0.0209  0.4454 -0.3505
  159SAPE   H9R17706   4.214   5.004   3.865  0.6965  0.6136  0.5721
  159SAPE  C21017707   4.352   5.169   3.846  0.6057 -0.0786  0.1431
  159SAPE  H10R17708   4.365   5.252   3.774 -3.2108 -0.2543 -0.9864
  159SAPE  H10S17709   4.418   5.083   3.820 -1.8103 -1.9983 -0.0019
  159SAPE  C21117710   4.396   5.213   3.987 -0.5891 -0.2429 -0.4426
  159SAPE  H11R17711   4.328   5.179   4.067 -0.5695  1.3675  0.2839
  159SAPE  C21217712   4.508   5.282   4.027 -0.3833  0.0062 -0.2520
  159SAPE  H12R17713   4.515   5.294   4.136  0.7684  0.7032 -0.3888
  159SAPE  C21317714   4.631   5.324   3.957 -0.0548 -0.4048  0.3373
  159SAPE  H13R17715   4.634   5.435   3.960 -0.0343 -0.4113  0.6189
  159SAPE  H13S17716   4.614   5.308   3.849  4.1768  0.3194 -0.6429
  159SAPE  C21417717   4.770   5.271   3.995  0.3889 -0.8647  0.2692
  159SAPE  H14R17718   4.779   5.249   4.102 -3.0740 -0.4620  0.7585
  159SAPE  C21517719   4.877   5.259   3.926 -0.2440  0.0731  0.5924
  159SAPE  H15R17720   4.961   5.218   3.983 -0.0740  0.7447  0.8358
  159SAPE  C21617721   4.883   5.283   3.775  0.5617  0.4663 -0.2566
  159SAPE  H16R17722   4.979   5.324   3.735 -0.1243  1.3247 -1.0768
  159SAPE  H16S17723   4.804   5.358   3.755 -1.6607 -2.3162 -3.0012
  159SAPE  C21717724   4.863   5.158   3.686  0.0635  0.4686  0.5859
  159SAPE  H17R17725   4.763   5.110   3.696 -0.5239  0.9414 -2.3145
  159SAPE  H17S17726   4.943   5.084   3.707  1.7661  1.6667 -1.3003
  159SAPE  C21817727   4.873   5.174   3.531  0.2785 -0.9703 -0.3492
  159SAPE  H18R17728   4.975   5.201   3.497 -0.5112 -1.0668 -3.0581
  159SAPE  H18S17729   4.815   5.264   3.502  0.3134 -0.0160  2.3016
  159SAPE  C21917730   4.822   5.039   3.477 -0.6680  0.6224 -0.1720
  159SAPE  H19R17731   4.730   4.996   3.521 -0.8491  1.3045  0.1283
  159SAPE  H19S17732   4.898   4.966   3.512 -0.9302 -0.2393 -1.3618
  159SAPE  C22017733   4.832   5.006   3.327  0.2112 -0.3723 -0.3980
  159SAPE  H20R17734   4.802   4.901   3.308 -4.2606  0.6569 -0.0978
  159SAPE  H20S17735   4.936   5.017   3.290  1.3765 -1.9837  2.0752
  159SAPE  H20T17736   4.763   5.075   3.273  0.2387  2.7497  3.1383
  159SAPE   C3317737   3.389   5.493   3.430  0.5134  0.2943  0.1797
  159SAPE   H3X17738   3.459   5.524   3.511  0.6596  1.3517 -0.3238
  159SAPE   H3Y17739   3.377   5.384   3.447 -0.2463  0.1593 -1.1411
  159SAPE   C3417740   3.257   5.564   3.438  0.7369  0.2227 -0.3096
  159SAPE   H4X17741   3.214   5.522   3.345  1.7445 -0.8027 -0.3362
  159SAPE   H4Y17742   3.280   5.672   3.427  0.8878  0.3386  0.9644
  159SAPE   C3517743   3.181   5.549   3.566  0.7453 -0.8907  0.6037
  159SAPE   H5X17744   3.159   5.440   3.563  1.8848 -1.0933 -0.8445
  159SAPE   H5Y17745   3.088   5.611   3.561  0.7756 -0.7585  1.3939
  159SAPE   C3617746   3.264   5.588   3.685 -0.0834  0.5544 -0.0742
  159SAPE   H6X17747   3.308   5.689   3.673  2.5738 -0.5062 -0.0041
  159SAPE   H6Y17748   3.345   5.512   3.690  0.6710  1.4025  0.8495
  159SAPE   C3717749   3.189   5.577   3.818  0.0955  0.4191 -0.1393
  159SAPE   H7X17750   3.164   5.472   3.844 -0.5215  0.9389  1.4544
  159SAPE   H7Y17751   3.098   5.639   3.811  0.7068  1.4500  0.8042
  159SAPE   C3817752   3.278   5.619   3.935  0.7825 -0.4993 -0.9416
  159SAPE   H8X17753   3.323   5.717   3.910 -1.4386  0.7973 -0.1351
  159SAPE   H8Y17754   3.346   5.538   3.968  1.0099 -0.0627 -0.3050
  159SAPE   C3917755   3.196   5.662   4.058  0.4288 -0.0778 -0.4274
  159SAPE   H9X17756   3.136   5.575   4.093  0.8290  0.9300  3.1583
  159SAPE   H9Y17757   3.124   5.736   4.019 -0.0878 -0.3354  0.0152
  159SAPE  C31017758   3.269   5.715   4.184  0.0909  0.0598 -0.2550
  159SAPE  H10X17759   3.330   5.804   4.156  0.9631  0.7310  3.3662
  159SAPE  H10Y17760   3.345   5.642   4.220  0.9233  0.9765 -0.0949
  159SAPE  C31117761   3.177   5.750   4.298 -0.0961  0.0810  0.1912
  159SAPE  H11X17762   3.111   5.662   4.312 -0.6914  0.1016 -2.1347
  159SAPE  H11Y17763   3.102   5.826   4.265 -1.1283 -0.9147  0.1908
  159SAPE  C31217764   3.244   5.799   4.431 -0.1760 -0.3225 -0.0937
  159SAPE  H12X17765   3.293   5.896   4.410  1.5036 -0.9913  0.5107
  159SAPE  H12Y17766   3.332   5.732   4.447  0.2252  0.2967  0.3358
  159SAPE  C31317767   3.145   5.805   4.541 -0.2944  0.5588 -0.5046
  159SAPE  H13X17768   3.102   5.704   4.560 -2.2756  1.1221 -1.5809
  159SAPE  H13Y17769   3.057   5.850   4.490 -1.3891 -0.8162  0.0834
  159SAPE  C31417770   3.184   5.876   4.664 -0.2173 -0.3403 -1.0173
  159SAPE  H14X17771   3.218   5.980   4.644  3.3252 -1.0881  0.3529
  159SAPE  H14Y17772   3.272   5.841   4.722 -0.3797  1.3853  0.3649
  159SAPE  C31517773   3.078   5.879   4.770 -0.1957 -0.1860 -0.7550
  159SAPE  H15X17774   3.051   5.779   4.809 -1.0746  1.1835  2.4993
  159SAPE  H15Y17775   2.987   5.932   4.733  1.1786  1.0278 -2.5809
  159SAPE  C31617776   3.139   5.955   4.893  1.2517  0.2482 -0.0996
  159SAPE  H16X17777   3.120   6.062   4.869  1.0891 -0.2875 -2.6319
  159SAPE  H16Y17778   3.247   5.929   4.897  1.3965  0.8753  0.1306
  159SAPE  C31717779   3.062   5.914   5.024 -0.8086 -0.0664  0.0070
  159SAPE  H17X17780   3.074   5.803   5.022  0.4140  0.0638 -0.5923
  159SAPE  H17Y17781   2.955   5.943   5.032 -0.7167 -0.1589  3.3836
  159SAPE  C31817782   3.136   5.975   5.140  0.3784 -0.0921 -0.7495
  159SAPE  H18X17783   3.089   5.935   5.233 -2.0354 -0.4014 -2.0476
  159SAPE  H18Y17784   3.124   6.085   5.138  0.7463 -0.0562 -1.1749
  159SAPE  H18Z17785   3.241   5.937   5.139 -0.0422 -1.5297  1.1945
  160SAPE     N17786   2.307   6.108   2.705  0.6177 -0.4195 -0.5782
  160SAPE   HN117787   2.356   6.017   2.715  0.2976 -0.4286  1.3017
  160SAPE   HN217788   2.210   6.084   2.676  1.0039 -1.4825 -1.0230
  160SAPE   HN317789   2.353   6.171   2.636  0.6871 -0.5684 -0.6699
  160SAPE   C1217790   2.307   6.152   2.851 -0.4211 -0.5023 -0.4927
  160SAPE  H12A17791   2.267   6.255   2.859  0.4197 -0.2744  1.1999
  160SAPE  H12B17792   2.413   6.147   2.883 -0.2489  4.3226  0.3053
  160SAPE   C1117793   2.230   6.055   2.942 -0.1931  0.1259 -0.2481
  160SAPE  H11A17794   2.122   6.077   2.929 -0.4051 -0.3640  0.5667
  160SAPE  H11B17795   2.257   6.094   3.042 -0.6340 -0.1922  0.0003
  160SAPE     P17796   2.232   5.796   2.993  0.5978  0.4362  0.3566
  160SAPE   O1317797   2.115   5.760   2.913 -0.1306 -0.1891 -0.2696
  160SAPE   O1417798   2.339   5.695   3.004 -0.1247 -0.9837 -0.4748
  160SAPE   O1217799   2.272   5.923   2.921  0.1471 -0.2312  0.5394
  160SAPE   O1117800   2.188   5.855   3.130 -0.1694 -0.0404 -0.5964
  160SAPE    C117801   2.295   5.891   3.224  0.1921 -0.5841  0.4960
  160SAPE    HA17802   2.365   5.951   3.163  0.1509  1.4582  2.2972
  160SAPE    HB17803   2.250   5.959   3.300  0.6778  0.3706 -0.0496
  160SAPE    C217804   2.373   5.776   3.302  0.3988  0.6187 -0.1296
  160SAPE    HS17805   2.394   5.691   3.234 -3.2748 -2.1676  1.8437
  160SAPE   O2117806   2.280   5.732   3.405 -0.1025  0.0082  0.1327
  160SAPE   C2117807   2.293   5.603   3.441 -0.2939 -0.2782  0.4807
  160SAPE   O2217808   2.381   5.528   3.404  0.5614 -0.2465  0.2804
  160SAPE   C2217809   2.196   5.582   3.567  1.0535 -1.1705  0.1854
  160SAPE   H2R17810   2.122   5.665   3.568  1.8229 -0.4471 -0.7511
  160SAPE   H2S17811   2.131   5.497   3.538  0.6395 -1.1321  0.9606
  160SAPE    C317812   2.506   5.821   3.361  0.2991 -0.5339 -0.0492
  160SAPE    HX17813   2.569   5.851   3.274 -1.7753  0.3850 -1.3067
  160SAPE    HY17814   2.556   5.727   3.392 -0.8659 -0.9803  0.5371
  160SAPE   O3117815   2.490   5.915   3.479 -0.0839  1.0161  0.8119
  160SAPE   C3117816   2.510   6.042   3.456  0.3152 -0.4273  0.3514
  160SAPE   O3217817   2.545   6.088   3.347 -0.0182 -0.7196 -0.3269
  160SAPE   C3217818   2.493   6.131   3.581 -0.1639  0.5636  0.2496
  160SAPE   H2X17819   2.494   6.076   3.677  1.2915  1.6590  0.8975
  160SAPE   H2Y17820   2.399   6.188   3.568 -0.7285 -0.4112 -0.0537
  160SAPE   C2317821   2.257   5.564   3.700 -0.6930 -0.2775 -0.3965
  160SAPE   H3R17822   2.337   5.641   3.696 -0.6612 -0.3664 -1.8271
  160SAPE   H3S17823   2.304   5.463   3.703 -1.1187 -0.6179 -3.0813
  160SAPE   C2417824   2.164   5.602   3.816 -0.2657 -0.1668  0.1013
  160SAPE   H4R17825   2.082   5.528   3.812 -1.8728  1.5198  0.6213
  160SAPE   H4S17826   2.111   5.699   3.805  1.1194  0.6747  0.5333
  160SAPE   C2517827   2.230   5.602   3.955 -0.3481  0.0194  0.3120
  160SAPE   H5R17828   2.234   5.504   4.004 -1.0357  0.3293  1.0150
  160SAPE   C2617829   2.279   5.711   4.023  0.6211  0.0699 -1.3132
  160SAPE   H6R17830   2.321   5.707   4.124  1.9721  0.3655 -1.8498
  160SAPE   C2717831   2.263   5.855   3.963  0.1447  0.3617 -0.4410
  160SAPE   H7R17832   2.224   5.926   4.039  2.3207  2.2706 -1.0182
  160SAPE   H7S17833   2.187   5.858   3.882 -0.6843 -0.4850  0.2844
  160SAPE   C2817834   2.394   5.912   3.928  0.5592 -0.1407 -0.0744
  160SAPE   H8R17835   2.423   5.896   3.823 -0.9120  0.5884 -0.6083
  160SAPE   C2917836   2.487   5.974   4.011  0.1814  0.7196 -0.1087
  160SAPE   H9R17837   2.583   6.006   3.968 -0.5406  0.3241 -2.1368
  160SAPE  C21017838   2.466   6.009   4.157 -0.6811  0.2040 -0.3337
  160SAPE  H10R17839   2.561   6.035   4.208 -1.9256  0.5870  1.8657
  160SAPE  H10S17840   2.424   5.920   4.209 -1.2430  1.1495  0.8726
  160SAPE  C21117841   2.377   6.126   4.177 -0.4477 -0.0443 -0.4200
  160SAPE  H11R17842   2.316   6.154   4.089  0.4046 -0.4584 -1.1634
  160SAPE  C21217843   2.370   6.191   4.295 -0.2001  0.4974 -1.3455
  160SAPE  H12R17844   2.294   6.270   4.301 -0.9234 -0.1810 -1.3437
  160SAPE  C21317845   2.448   6.154   4.420 -0.0717 -0.0762  0.1541
  160SAPE  H13R17846   2.511   6.237   4.457  1.2546 -0.5046 -1.0595
  160SAPE  H13S17847   2.528   6.079   4.399 -1.5011 -0.9576 -2.5240
  160SAPE  C21417848   2.364   6.086   4.526 -0.4136 -0.2503 -0.2684
  160SAPE  H14R17849   2.337   5.980   4.514  0.5825 -0.3012 -2.5081
  160SAPE  C21517850   2.332   6.146   4.648  0.8057  0.2149 -0.2067
  160SAPE  H15R17851   2.273   6.088   4.721  1.7180 -0.5484 -0.0562
  160SAPE  C21617852   2.361   6.283   4.691  0.2390 -0.5147 -0.1941
  160SAPE  H16R17853   2.270   6.347   4.684 -0.8210 -2.0214 -0.8646
  160SAPE  H16S17854   2.448   6.330   4.640  1.0067  1.0380  2.3158
  160SAPE  C21717855   2.407   6.268   4.840  0.2468 -0.5887  0.2386
  160SAPE  H17R17856   2.462   6.363   4.861 -2.1497  1.0687 -0.5757
  160SAPE  H17S17857   2.487   6.192   4.850  0.0156 -0.7503  0.8742
  160SAPE  C21817858   2.290   6.255   4.938 -0.0553  1.0357  0.4426
  160SAPE  H18R17859   2.232   6.161   4.946 -1.0888  1.6837  0.7363
  160SAPE  H18S17860   2.214   6.327   4.902 -1.3871 -0.5362  0.0184
  160SAPE  C21917861   2.332   6.289   5.082 -0.5675 -0.9256 -0.5060
  160SAPE  H19R17862   2.251   6.343   5.136 -0.2404 -0.8982 -0.0370
  160SAPE  H19S17863   2.417   6.359   5.070 -0.2223 -1.0546  1.0017
  160SAPE  C22017864   2.388   6.178   5.168 -0.1295  0.7148  0.7711
  160SAPE  H20R17865   2.311   6.110   5.211  0.4607 -0.0300  0.6595
  160SAPE  H20S17866   2.442   6.218   5.257 -0.7055 -1.5912  2.2307
  160SAPE  H20T17867   2.457   6.123   5.101 -1.0760  3.2825 -2.6234
  160SAPE   C3317868   2.605   6.234   3.605 -0.4399 -0.3026  0.0724
  160SAPE   H3X17869   2.616   6.309   3.523 -0.5188  0.1395  0.4600
  160SAPE   H3Y17870   2.702   6.183   3.622 -0.8094 -1.0721 -0.1158
  160SAPE   C3417871   2.596   6.308   3.733  0.3463 -0.7402 -0.0067
  160SAPE   H4X17872   2.697   6.346   3.759  0.6588  1.5395 -3.8059
  160SAPE   H4Y17873   2.578   6.230   3.811  1.0519 -2.6979 -1.6936
  160SAPE   C3517874   2.487   6.406   3.732 -0.2247  0.4602 -0.2037
  160SAPE   H5X17875   2.414   6.394   3.649 -3.0827  1.5081  1.9857
  160SAPE   H5Y17876   2.539   6.500   3.705  3.3334 -0.1883  3.5801
  160SAPE   C3617877   2.406   6.419   3.862 -0.3276 -0.2780  0.1580
  160SAPE   H6X17878   2.471   6.421   3.953  0.3972 -2.1176 -0.2709
  160SAPE   H6Y17879   2.354   6.322   3.875  3.3240 -2.4301  0.0687
  160SAPE   C3717880   2.313   6.539   3.864  0.4260 -0.2984  0.9824
  160SAPE   H7X17881   2.252   6.538   3.771  0.8726 -0.0355  0.6766
  160SAPE   H7Y17882   2.369   6.635   3.854 -2.1765  1.2884  0.7746
  160SAPE   C3817883   2.223   6.550   3.989 -0.0180  0.2651  0.7378
  160SAPE   H8X17884   2.163   6.457   4.001  1.4526 -0.7978  0.1475
  160SAPE   H8Y17885   2.153   6.633   3.966  0.9926  0.7992 -0.4832
  160SAPE   C3917886   2.300   6.594   4.115 -0.2522  0.1430 -0.0518
  160SAPE   H9X17887   2.370   6.675   4.086 -0.5541  1.5519  2.7765
  160SAPE   H9Y17888   2.353   6.501   4.145  0.2950  0.0299 -1.3137
  160SAPE  C31017889   2.211   6.656   4.226 -0.5900 -0.0575  0.0812
  160SAPE  H10X17890   2.134   6.586   4.264 -1.2588 -0.8496 -2.5942
  160SAPE  H10Y17891   2.146   6.737   4.188  0.0954  1.3063  1.6756
  160SAPE  C31117892   2.291   6.710   4.341 -0.1431 -0.1255 -0.2892
  160SAPE  H11X17893   2.225   6.755   4.419  1.0907  1.9966 -0.3866
  160SAPE  H11Y17894   2.353   6.797   4.311 -0.8615  0.6197  0.3264
  160SAPE  C31217895   2.379   6.608   4.414  0.0145  0.6514 -0.1900
  160SAPE  H12X17896   2.440   6.544   4.348  1.2486  2.0587 -0.4690
  160SAPE  H12Y17897   2.315   6.536   4.470  1.0965 -0.0782  0.1330
  160SAPE  C31317898   2.472   6.687   4.515 -1.1784  0.7220  0.0558
  160SAPE  H13X17899   2.405   6.735   4.589 -2.8938 -0.4240 -0.6909
  160SAPE  H13Y17900   2.532   6.762   4.459 -0.4221  1.4406  1.7727
  160SAPE  C31417901   2.573   6.597   4.590  0.8961  0.8681 -0.3755
  160SAPE  H14X17902   2.639   6.531   4.530 -0.4458 -0.1236 -0.7887
  160SAPE  H14Y17903   2.514   6.517   4.640 -0.9331  1.5980 -1.2889
  160SAPE  C31517904   2.655   6.669   4.694  0.0019 -0.0022  0.0393
  160SAPE  H15X17905   2.716   6.747   4.643  0.0708  0.9838  1.5585
  160SAPE  H15Y17906   2.722   6.601   4.751 -1.3912 -0.3057  1.3828
  160SAPE  C31617907   2.570   6.737   4.808 -0.8431  0.2208 -0.4361
  160SAPE  H16X17908   2.501   6.814   4.767  0.3644 -0.1983 -3.5604
  160SAPE  H16Y17909   2.642   6.785   4.878 -0.7023 -0.8690  0.1880
  160SAPE  C31717910   2.492   6.636   4.898  0.1125  0.2087  0.5468
  160SAPE  H17X17911   2.568   6.563   4.931  2.8332  2.7704  0.4064
  160SAPE  H17Y17912   2.427   6.572   4.835  1.9724 -1.1700 -0.0514
  160SAPE  C31817913   2.433   6.707   5.017  0.4466 -0.4088  0.2986
  160SAPE  H18X17914   2.503   6.788   5.046 -0.5162  0.6846 -0.3288
  160SAPE  H18Y17915   2.412   6.635   5.099 -0.1998 -1.2374 -0.5728
  160SAPE  H18Z17916   2.337   6.753   4.984 -0.0049 -1.2788  0.3675
  161SAPE     N17917   6.630   3.116   2.869  0.3254 -0.3761  0.5300
  161SAPE   HN117918   6.577   3.027   2.871  3.4974 -2.3859  1.4857
  161SAPE   HN217919   6.571   3.202   2.873 -0.3385 -0.8199  0.4548
  161SAPE   HN317920   6.694   3.117   2.787 -0.1935 -2.3637  0.0487
  161SAPE   C1217921   6.728   3.113   2.987  0.1788  0.1031  0.2961
  161SAPE  H12A17922   6.729   3.213   3.034 -1.4317 -1.1392  3.2339
  161SAPE  H12B17923   6.823   3.082   2.938 -0.0709  1.9482 -1.5156
  161SAPE   C1117924   6.685   3.005   3.090  0.5735  0.2149  0.6565
  161SAPE  H11A17925   6.595   3.038   3.145 -0.1103 -1.7790  0.8117
  161SAPE  H11B17926   6.771   3.000   3.160  1.1842  0.9099 -0.0297
  161SAPE     P17927   6.684   2.744   3.100  0.1553  0.4408  0.6209
  161SAPE   O1317928   6.708   2.636   3.004  0.5487 -0.6301 -0.0689
  161SAPE   O1417929   6.791   2.762   3.203  0.1085  0.6417  0.0422
  161SAPE   O1217930   6.668   2.874   3.020  0.5352 -0.0790 -0.1642
  161SAPE   O1117931   6.541   2.715   3.171 -0.4322 -0.0576  0.3407
  161SAPE    C117932   6.495   2.811   3.274  0.6530  0.4358  0.6219
  161SAPE    HA17933   6.581   2.833   3.342  0.0891  1.1976  1.0961
  161SAPE    HB17934   6.463   2.905   3.226 -0.3083 -0.5356 -0.7083
  161SAPE    C217935   6.374   2.742   3.356 -0.0802 -0.3998  0.8667
  161SAPE    HS17936   6.290   2.729   3.285 -2.6970 -1.5928  3.9669
  161SAPE   O2117937   6.336   2.823   3.472 -0.2274  0.1088 -0.0048
  161SAPE   C2117938   6.214   2.795   3.516  0.0750  0.2850 -0.6225
  161SAPE   O2217939   6.140   2.719   3.462 -0.0023 -0.4217  0.4376
  161SAPE   C2217940   6.180   2.869   3.647 -0.0905 -0.1111 -0.0576
  161SAPE   H2R17941   6.278   2.879   3.700 -0.3399 -0.6530  0.5216
  161SAPE   H2S17942   6.149   2.972   3.622 -1.0077 -0.8109 -2.0373
  161SAPE    C317943   6.402   2.595   3.393 -0.3219  0.1904 -0.2039
  161SAPE    HX17944   6.415   2.542   3.296 -1.2637 -4.3779  1.8438
  161SAPE    HY17945   6.314   2.553   3.447 -1.0559  2.4892  0.4944
  161SAPE   O3117946   6.523   2.581   3.468  0.2007 -0.1718  0.3763
  161SAPE   C3117947   6.490   2.573   3.599 -0.2525  0.0430  0.2234
  161SAPE   O3217948   6.380   2.586   3.650  0.7348 -0.3597 -0.0776
  161SAPE   C3217949   6.613   2.514   3.675  0.2400  0.3472  0.6408
  161SAPE   H2X17950   6.668   2.455   3.600 -0.7163  0.0457  0.1606
  161SAPE   H2Y17951   6.577   2.461   3.766 -0.6218  0.2627  0.2618
  161SAPE   C2317952   6.071   2.784   3.717  0.2658  0.2629  0.1106
  161SAPE   H3R17953   6.100   2.677   3.717 -1.4739 -0.2565  1.6399
  161SAPE   H3S17954   5.973   2.795   3.666 -0.1411  1.4429  1.0912
  161SAPE   C2417955   6.046   2.828   3.868 -0.2083  0.0563  0.4430
  161SAPE   H4R17956   5.948   2.777   3.882 -0.8600  0.4009 -2.3032
  161SAPE   H4S17957   6.025   2.937   3.874  0.8285  0.2077  2.1905
  161SAPE   C2517958   6.147   2.780   3.971  0.8855  0.3363 -0.5458
  161SAPE   H5R17959   6.204   2.692   3.937 -0.9825 -0.5412 -1.5896
  161SAPE   C2617960   6.173   2.823   4.096 -0.0425 -0.2976 -0.1101
  161SAPE   H6R17961   6.234   2.765   4.167 -1.7916  0.7741  2.4381
  161SAPE   C2717962   6.106   2.945   4.165 -0.0145 -0.0467  0.3192
  161SAPE   H7R17963   6.016   2.910   4.219  0.4481 -0.7010  0.6739
  161SAPE   H7S17964   6.065   3.021   4.094 -2.3543 -0.3504  1.2673
  161SAPE   C2817965   6.195   3.014   4.269 -0.3557 -0.7349  0.6003
  161SAPE   H8R17966   6.301   3.004   4.243 -0.6156 -1.1639 -0.3292
  161SAPE   C2917967   6.163   3.088   4.377  0.5143  0.1995 -0.0066
  161SAPE   H9R17968   6.237   3.126   4.449 -0.7947 -1.0158  2.0975
  161SAPE  C21017969   6.025   3.128   4.420 -0.3462 -0.0953 -0.3512
  161SAPE  H10R17970   5.954   3.135   4.336 -0.8788  3.6524  0.2456
  161SAPE  H10S17971   6.041   3.222   4.477  0.6870 -1.8423  2.4611
  161SAPE  C21117972   5.979   3.024   4.521 -0.3241 -0.1453  0.3926
  161SAPE  H11R17973   5.980   2.922   4.479  1.0420  0.2488 -0.5953
  161SAPE  C21217974   5.942   3.037   4.649  0.2107  0.0874 -0.4411
  161SAPE  H12R17975   5.918   2.949   4.712  0.8883  0.7629  0.7868
  161SAPE  C21317976   5.958   3.169   4.726  0.0053 -0.0960 -0.0231
  161SAPE  H13R17977   6.058   3.211   4.702  1.3385 -2.3181  1.3003
  161SAPE  H13S17978   5.970   3.138   4.831  0.8487  0.3687  0.0223
  161SAPE  C21417979   5.854   3.271   4.714  0.6600 -0.1717  0.4166
  161SAPE  H14R17980   5.813   3.287   4.613 -0.5966  1.6654  1.1785
  161SAPE  C21517981   5.799   3.347   4.812  0.7090 -0.0315 -0.0315
  161SAPE  H15R17982   5.726   3.424   4.783  0.3963 -0.1303  0.4848
  161SAPE  C21617983   5.839   3.355   4.955 -0.1503 -0.2637 -0.7741
  161SAPE  H16R17984   5.929   3.292   4.968  0.1102 -0.3142 -2.5682
  161SAPE  H16S17985   5.765   3.328   5.034  3.5966 -0.5852  2.9823
  161SAPE  C21717986   5.876   3.500   4.994  0.5554  0.3323 -0.2714
  161SAPE  H17R17987   5.785   3.563   4.991 -0.6568 -1.1085  2.3244
  161SAPE  H17S17988   5.946   3.541   4.918 -0.0724 -2.7462 -2.7110
  161SAPE  C21817989   5.931   3.510   5.138 -0.1127 -0.1889 -0.2008
  161SAPE  H18R17990   6.014   3.437   5.147 -0.0757 -0.1256 -0.0119
  161SAPE  H18S17991   5.849   3.492   5.212  1.0043  0.1305  1.1571
  161SAPE  C21917992   5.979   3.656   5.166 -0.3185 -0.2087 -0.3608
  161SAPE  H19R17993   5.906   3.739   5.162  0.8172  0.8442  0.2237
  161SAPE  H19S17994   6.062   3.675   5.095  1.3535 -0.9434  1.2832
  161SAPE  C22017995   6.054   3.659   5.297  0.5607 -0.1330  0.1687
  161SAPE  H20R17996   6.101   3.757   5.321  1.2590 -0.6016  0.8097
  161SAPE  H20S17997   6.135   3.583   5.296  0.5230 -0.2777  2.5228
  161SAPE  H20T17998   5.985   3.637   5.381 -0.6075 -1.2119 -1.0452
  161SAPE   C3317999   6.715   2.615   3.729  0.5109  0.2015 -0.2339
  161SAPE   H3X18000   6.748   2.695   3.660  4.7092 -1.1000 -0.0000
  161SAPE   H3Y18001   6.804   2.557   3.759  0.5084  0.3667  0.0968
  161SAPE   C3418002   6.672   2.678   3.861  0.1562  0.1782  0.4034
  161SAPE   H4X18003   6.562   2.686   3.852  0.2565  0.0611 -1.2622
  161SAPE   H4Y18004   6.716   2.779   3.879  0.2203  0.5536 -1.6487
  161SAPE   C3518005   6.706   2.596   3.986  0.5421 -0.5875 -0.0752
  161SAPE   H5X18006   6.817   2.584   3.985  0.6776  0.5583 -1.1955
  161SAPE   H5Y18007   6.653   2.499   3.984 -1.6721  0.4874  2.1225
  161SAPE   C3618008   6.684   2.675   4.118  0.4639 -0.0127  0.3175
  161SAPE   H6X18009   6.575   2.693   4.118  0.8181  2.6150  2.0616
  161SAPE   H6Y18010   6.738   2.772   4.126 -2.0456  1.4469  0.6801
  161SAPE   C3718011   6.727   2.587   4.245  0.3028 -1.1492  0.4000
  161SAPE   H7X18012   6.826   2.538   4.236  1.2468  0.7228  0.2109
  161SAPE   H7Y18013   6.646   2.511   4.255 -1.5625  0.6472 -0.2050
  161SAPE   C3818014   6.735   2.665   4.373  0.2922 -0.1516  0.5888
  161SAPE   H8X18015   6.638   2.713   4.399  0.1084  0.7007 -1.4885
  161SAPE   H8Y18016   6.813   2.744   4.365 -1.0684  1.0731 -1.5764
  161SAPE   C3918017   6.780   2.581   4.496  0.3644 -0.5659  0.1082
  161SAPE   H9X18018   6.823   2.651   4.571 -0.8462  0.1020  0.2238
  161SAPE   H9Y18019   6.860   2.511   4.467  2.2370  1.7328 -0.5961
  161SAPE  C31018020   6.663   2.500   4.560  0.6468 -0.1273  0.0925
  161SAPE  H10X18021   6.603   2.463   4.473  1.9256 -1.9783 -0.0562
  161SAPE  H10Y18022   6.589   2.562   4.616  0.8444  1.0662 -0.9048
  161SAPE  C31118023   6.714   2.393   4.648  0.4765  0.1553  0.3768
  161SAPE  H11X18024   6.777   2.431   4.732  1.7701 -1.5742  0.2468
  161SAPE  H11Y18025   6.785   2.330   4.590  0.5504  1.1079 -0.6050
  161SAPE  C31218026   6.614   2.288   4.697 -0.2745  0.0604 -0.2487
  161SAPE  H12X18027   6.557   2.262   4.606 -0.4652  2.1618 -0.7905
  161SAPE  H12Y18028   6.555   2.335   4.778  1.2817  0.9280  0.4350
  161SAPE  C31318029   6.689   2.166   4.761 -0.3009  0.2738  0.0464
  161SAPE  H13X18030   6.743   2.209   4.847  0.0857  0.0298 -0.0684
  161SAPE  H13Y18031   6.775   2.130   4.699  2.0183  1.6715  2.2847
  161SAPE  C31418032   6.599   2.049   4.786 -0.1254  0.4231  0.0357
  161SAPE  H14X18033   6.615   1.973   4.707  1.0871  0.1523  0.5168
  161SAPE  H14Y18034   6.493   2.072   4.762 -0.7391 -0.3555  1.8342
  161SAPE  C31518035   6.615   1.991   4.927  0.0311 -0.1305  0.3145
  161SAPE  H15X18036   6.581   2.069   4.999  0.1462  0.0318  0.1933
  161SAPE  H15Y18037   6.723   1.977   4.949  0.3103  1.0997 -0.2081
  161SAPE  C31618038   6.543   1.854   4.939  0.1554  0.2971 -0.9408
  161SAPE  H16X18039   6.435   1.859   4.913  0.1112 -0.3959 -0.9313
  161SAPE  H16Y18040   6.563   1.830   5.046  1.8877  2.0378 -0.8352
  161SAPE  C31718041   6.621   1.734   4.881 -0.1508  0.1024 -0.3529
  161SAPE  H17X18042   6.725   1.735   4.921 -0.6833  0.1322  1.0724
  161SAPE  H17Y18043   6.622   1.751   4.771  1.5413  0.7466 -0.2772
  161SAPE  C31818044   6.555   1.596   4.919 -0.2584 -0.0670  0.5876
  161SAPE  H18X18045   6.621   1.514   4.882 -0.8395 -0.6519  0.8347
  161SAPE  H18Y18046   6.469   1.581   4.851  0.9195 -1.2960 -0.7173
  161SAPE  H18Z18047   6.524   1.575   5.023  0.3243  1.7080  1.1416
  162SAPE     N18048   1.164   6.377   2.906 -0.5898 -0.5766 -0.2450
  162SAPE   HN118049   1.205   6.284   2.927 -0.6600 -0.4015  0.6866
  162SAPE   HN218050   1.179   6.400   2.806  1.4216 -1.6830 -0.2488
  162SAPE   HN318051   1.219   6.447   2.960 -0.0478 -1.3121  0.1763
  162SAPE   C1218052   1.028   6.371   2.963 -0.5641  0.5241  0.0178
  162SAPE  H12A18053   0.971   6.452   2.911  0.7811 -0.1955 -2.7685
  162SAPE  H12B18054   1.025   6.381   3.073 -0.6540 -2.5854  0.3771
  162SAPE   C1118055   0.962   6.234   2.921 -0.3138  0.2802  0.3854
  162SAPE  H11A18056   0.931   6.229   2.814  0.6844  1.2599  0.0264
  162SAPE  H11B18057   0.878   6.222   2.992 -0.6445 -0.3297 -0.1048
  162SAPE     P18058   1.034   5.987   2.882  0.1655  0.2239 -0.1500
  162SAPE   O1318059   0.931   5.994   2.782 -0.2145  0.1000  0.0547
  162SAPE   O1418060   1.168   5.941   2.843 -0.5174 -0.2922 -0.0455
  162SAPE   O1218061   1.057   6.131   2.954 -0.0543  0.0361  0.2149
  162SAPE   O1118062   0.987   5.900   3.006  0.0886 -0.1859 -0.4730
  162SAPE    C118063   0.936   5.955   3.123 -0.1826  0.3955  0.1819
  162SAPE    HA18064   0.873   6.043   3.096 -0.1687 -0.4122 -2.9139
  162SAPE    HB18065   0.852   5.895   3.165  0.9654  0.2661  2.4012
  162SAPE    C218066   1.041   5.967   3.235  0.0924 -0.4021 -1.0486
  162SAPE    HS18067   1.141   5.949   3.191  0.2470 -0.8025 -0.5443
  162SAPE   O2118068   1.012   5.872   3.344 -0.5001  0.8712 -0.2920
  162SAPE   C2118069   1.071   5.749   3.348 -0.1712 -0.3732  0.1353
  162SAPE   O2218070   1.145   5.706   3.259 -0.3531 -0.0248  0.0078
  162SAPE   C2218071   1.027   5.685   3.471 -0.2930 -0.2461 -0.0274
  162SAPE   H2R18072   1.043   5.759   3.553 -0.3757  0.0215 -0.2522
  162SAPE   H2S18073   0.920   5.655   3.466  0.2415 -2.6731  1.4840
  162SAPE    C318074   1.055   6.118   3.283 -0.2771  1.0174  0.2931
  162SAPE    HX18075   1.071   6.166   3.184  0.5103 -1.3491 -0.8050
  162SAPE    HY18076   1.149   6.131   3.341 -0.4806  2.5624  0.3271
  162SAPE   O3118077   0.950   6.191   3.357 -0.2112  0.1979 -0.5250
  162SAPE   C3118078   0.966   6.325   3.367  0.0718  0.2632 -0.4952
  162SAPE   O3218079   1.064   6.383   3.331  0.0718 -0.4595 -0.1996
  162SAPE   C3218080   0.849   6.390   3.441 -0.5701  0.3394 -0.1567
  162SAPE   H2X18081   0.762   6.323   3.430  0.5428 -0.9300 -1.8248
  162SAPE   H2Y18082   0.830   6.477   3.375 -0.3117 -0.4477 -1.3070
  162SAPE   C2318083   1.084   5.545   3.499 -0.3285 -0.2828 -0.0257
  162SAPE   H3R18084   1.195   5.547   3.510  0.0976  1.1730 -3.2996
  162SAPE   H3S18085   1.069   5.492   3.402 -2.1333 -2.4901  1.3527
  162SAPE   C2418086   1.011   5.474   3.620 -0.5073 -0.1978 -0.0703
  162SAPE   H4R18087   0.901   5.474   3.599 -0.8266 -0.9966  1.4757
  162SAPE   H4S18088   1.021   5.519   3.720 -1.2059 -0.2662  0.0348
  162SAPE   C2518089   1.045   5.329   3.634 -0.0748  0.2066  0.7151
  162SAPE   H5R18090   1.136   5.289   3.589 -0.6296 -0.9815  0.6227
  162SAPE   C2618091   0.966   5.235   3.686 -0.2297 -0.1697 -1.0219
  162SAPE   H6R18092   0.998   5.131   3.668  0.9749  0.2490 -1.3939
  162SAPE   C2718093   0.844   5.263   3.767 -0.4389  0.1079  0.8308
  162SAPE   H7R18094   0.764   5.258   3.691  0.9364 -1.7577 -0.6017
  162SAPE   H7S18095   0.841   5.365   3.811  0.6443  0.9704 -0.9596
  162SAPE   C2818096   0.798   5.154   3.864  0.1883 -0.8557  0.3262
  162SAPE   H8R18097   0.783   5.053   3.824 -4.9656  0.4114 -1.6882
  162SAPE   C2918098   0.778   5.172   3.992 -0.0815 -0.3330  0.3101
  162SAPE   H9R18099   0.736   5.086   4.047  0.9620 -0.2168  1.3330
  162SAPE  C21018100   0.792   5.302   4.067 -0.1091 -0.2492  0.3016
  162SAPE  H10R18101   0.723   5.302   4.154  0.1485  1.7379  0.5581
  162SAPE  H10S18102   0.764   5.392   4.007 -1.8096 -0.0971  1.2747
  162SAPE  C21118103   0.931   5.321   4.125  0.1520 -0.3391 -0.2349
  162SAPE  H11R18104   1.000   5.338   4.041 -1.8395  1.0907 -1.6785
  162SAPE  C21218105   0.971   5.293   4.250 -0.4551  0.3435 -0.2857
  162SAPE  H12R18106   1.078   5.292   4.275 -0.9828  0.1062  2.1970
  162SAPE  C21318107   0.893   5.271   4.372  0.6213  0.5257  0.1756
  162SAPE  H13R18108   0.952   5.225   4.454 -0.2792  1.3630  1.3199
  162SAPE  H13S18109   0.827   5.187   4.343  3.2041 -0.8971 -2.0842
  162SAPE  C21418110   0.798   5.377   4.436 -0.5908 -0.6744  1.1541
  162SAPE  H14R18111   0.751   5.441   4.360 -0.6666 -1.0011  0.9217
  162SAPE  C21518112   0.767   5.388   4.561 -0.6166 -0.3998 -0.2834
  162SAPE  H15R18113   0.697   5.467   4.593  1.0873  0.2574  2.1010
  162SAPE  C21618114   0.829   5.319   4.681 -0.0398  0.2810  0.1941
  162SAPE  H16R18115   0.939   5.313   4.666 -0.1645 -2.4400 -0.1530
  162SAPE  H16S18116   0.795   5.213   4.680  0.4207  0.1218  0.7971
  162SAPE  C21718117   0.797   5.373   4.819 -0.1083 -0.0332  0.2912
  162SAPE  H17R18118   0.851   5.467   4.844  0.5215  0.2796 -2.0348
  162SAPE  H17S18119   0.843   5.299   4.889  0.8843 -0.2410 -0.5609
  162SAPE  C21818120   0.643   5.395   4.846 -0.1366 -0.5088 -0.0713
  162SAPE  H18R18121   0.588   5.299   4.849 -1.1571  0.0873  1.3751
  162SAPE  H18S18122   0.596   5.468   4.776  2.4358  1.0236 -0.3631
  162SAPE  C21918123   0.633   5.450   4.994  0.0776 -0.7369  0.0183
  162SAPE  H19R18124   0.632   5.561   4.992 -1.8418 -0.7281 -0.5649
  162SAPE  H19S18125   0.721   5.420   5.055  0.6591 -0.7691 -0.8183
  162SAPE  C22018126   0.505   5.402   5.065  0.3580  0.3806 -0.0930
  162SAPE  H20R18127   0.503   5.296   5.098  0.1861  0.7898  1.2588
  162SAPE  H20S18128   0.415   5.410   5.000 -1.0527 -0.9503  1.5954
  162SAPE  H20T18129   0.489   5.470   5.151  0.7156 -0.4489  0.6546
  162SAPE   C3318130   0.892   6.439   3.581  0.4455 -0.2490  0.4393
  162SAPE   H3X18131   0.806   6.488   3.631 -2.4624 -2.6227 -1.8286
  162SAPE   H3Y18132   0.975   6.511   3.569  2.0516 -1.0200  4.9728
  162SAPE   C3418133   0.919   6.326   3.690  0.5083 -0.7487  0.2708
  162SAPE   H4X18134   1.015   6.278   3.661  1.6544  2.0773 -0.8908
  162SAPE   H4Y18135   0.831   6.258   3.692 -1.7076  1.9324  0.4007
  162SAPE   C3518136   0.928   6.380   3.835 -0.1483  0.1531 -0.2350
  162SAPE   H5X18137   0.848   6.455   3.855  0.8318  0.4246  3.4997
  162SAPE   H5Y18138   1.019   6.443   3.843  1.3818 -1.8417 -1.1001
  162SAPE   C3618139   0.934   6.282   3.954  1.0207 -0.5470 -0.5946
  162SAPE   H6X18140   1.022   6.214   3.944 -0.0439 -1.9128 -0.9703
  162SAPE   H6Y18141   0.840   6.224   3.948 -0.7322  2.0317  0.2234
  162SAPE   C3718142   0.945   6.348   4.091  0.3540 -0.7183 -0.1707
  162SAPE   H7X18143   0.841   6.378   4.117  0.1130 -0.5619 -1.2740
  162SAPE   H7Y18144   1.010   6.437   4.101 -0.1380 -0.5022  1.4553
  162SAPE   C3818145   0.986   6.258   4.210  0.0327  0.2199  0.1500
  162SAPE   H8X18146   1.084   6.210   4.190 -0.8182 -1.3620 -0.3467
  162SAPE   H8Y18147   0.915   6.174   4.229  1.1948 -0.6732  0.6232
  162SAPE   C3918148   0.998   6.344   4.335 -0.5501  0.3252 -0.2230
  162SAPE   H9X18149   0.908   6.408   4.342 -0.4173  0.4964 -0.0628
  162SAPE   H9Y18150   1.089   6.408   4.327  0.6665 -1.1391  1.1684
  162SAPE  C31018151   1.003   6.269   4.469 -0.2205 -0.3550  0.2532
  162SAPE  H10X18152   0.909   6.225   4.508 -1.4311  2.0229  0.2122
  162SAPE  H10Y18153   1.024   6.348   4.545 -1.3632 -1.8386  2.1700
  162SAPE  C31118154   1.127   6.168   4.486  0.6354 -0.4273  0.1000
  162SAPE  H11X18155   1.201   6.216   4.419  0.6803  1.3730  1.3554
  162SAPE  H11Y18156   1.091   6.080   4.428  1.3687  0.1646 -1.2872
  162SAPE  C31218157   1.176   6.151   4.629  0.0692 -0.3314  0.0965
  162SAPE  H12X18158   1.095   6.101   4.686 -0.6784 -0.4685 -1.0542
  162SAPE  H12Y18159   1.189   6.248   4.680  1.9436 -0.5575  0.1027
  162SAPE  C31318160   1.302   6.071   4.646 -0.3319 -0.4052 -0.0312
  162SAPE  H13X18161   1.390   6.123   4.601 -0.2323 -0.1628  0.4373
  162SAPE  H13Y18162   1.307   5.968   4.606 -0.3015 -0.5271  0.2835
  162SAPE  C31418163   1.347   6.063   4.793 -0.0144 -0.2027  0.3838
  162SAPE  H14X18164   1.258   6.036   4.854 -0.4541  2.5124  1.0943
  162SAPE  H14Y18165   1.368   6.166   4.829  0.7086  0.1865 -1.0925
  162SAPE  C31518166   1.460   5.962   4.829 -0.4598 -0.1985 -0.6138
  162SAPE  H15X18167   1.560   6.006   4.809 -1.1338  1.8872  0.3438
  162SAPE  H15Y18168   1.447   5.868   4.771 -3.4978  0.7959 -1.7453
  162SAPE  C31618169   1.453   5.919   4.977  1.1922 -0.3407  0.0754
  162SAPE  H16X18170   1.359   5.860   4.989  0.3126  1.1048  0.5587
  162SAPE  H16Y18171   1.441   6.008   5.042 -1.7384 -1.4330  1.1851
  162SAPE  C31718172   1.573   5.838   5.028  0.0363  0.0838 -0.3249
  162SAPE  H17X18173   1.580   5.839   5.139 -0.0682  0.1632 -0.3192
  162SAPE  H17Y18174   1.663   5.877   4.974  1.7839 -3.3919 -0.1907
  162SAPE  C31818175   1.571   5.689   4.979  0.6613 -0.3359 -0.9680
  162SAPE  H18X18176   1.586   5.689   4.869 -0.9132  0.6980 -1.2135
  162SAPE  H18Y18177   1.473   5.643   5.003  0.2225  0.6949 -0.7321
  162SAPE  H18Z18178   1.646   5.629   5.036 -0.5577 -0.7223  0.2755
  163SAPE     N18179   4.567   1.618   3.259 -0.8383 -0.9852  0.1187
  163SAPE   HN118180   4.623   1.562   3.325  0.3667  0.6168  0.5185
  163SAPE   HN218181   4.478   1.646   3.306  0.2122  5.5335 -0.7887
  163SAPE   HN318182   4.553   1.562   3.172 -1.4999 -0.1375 -0.3416
  163SAPE   C1218183   4.630   1.741   3.215  0.4128  0.0882 -0.4899
  163SAPE  H12A18184   4.669   1.789   3.307 -0.0937  0.1097 -0.2829
  163SAPE  H12B18185   4.546   1.802   3.177 -1.1052  0.6285  3.2245
  163SAPE   C1118186   4.746   1.704   3.122 -0.0445 -0.2748  0.2541
  163SAPE  H11A18187   4.791   1.789   3.065  1.4181 -2.3284 -1.8549
  163SAPE  H11B18188   4.700   1.641   3.042 -1.3257  0.6371  0.2440
  163SAPE     P18189   4.962   1.705   3.268  0.2898  0.0948 -0.4821
  163SAPE   O1318190   5.088   1.685   3.194 -0.5219 -0.4404 -0.7634
  163SAPE   O1418191   4.912   1.842   3.286  0.5065 -0.0958  0.0771
  163SAPE   O1218192   4.846   1.626   3.188  0.0177 -0.7184 -0.0729
  163SAPE   O1118193   4.967   1.627   3.406  0.0972 -0.4869  0.0628
  163SAPE    C118194   5.018   1.492   3.415 -0.0762 -0.2851 -0.7073
  163SAPE    HA18195   5.056   1.460   3.316 -2.0456 -1.5792 -1.1027
  163SAPE    HB18196   5.107   1.496   3.481 -0.0245  0.3452 -0.8043
  163SAPE    C218197   4.916   1.393   3.477  0.3206  0.4923  0.8725
  163SAPE    HS18198   4.842   1.370   3.397 -0.5030  2.2373  1.0915
  163SAPE   O2118199   4.862   1.453   3.597  0.4327  0.1617  0.2407
  163SAPE   C2118200   4.753   1.514   3.577  0.1327  0.1253  0.0131
  163SAPE   O2218201   4.690   1.519   3.471  0.2041 -0.6976 -0.6729
  163SAPE   C2218202   4.709   1.588   3.711 -0.1734 -0.1360 -0.7010
  163SAPE   H2R18203   4.749   1.530   3.797  0.7515 -0.3435 -1.2540
  163SAPE   H2S18204   4.785   1.669   3.711  0.1000 -0.3885 -1.1517
  163SAPE    C318205   4.983   1.264   3.519 -0.3308  0.7525 -0.4139
  163SAPE    HX18206   5.043   1.222   3.435  0.5169 -0.0584  0.5638
  163SAPE    HY18207   4.902   1.191   3.543  1.6037 -2.0703 -1.9718
  163SAPE   O3118208   5.076   1.300   3.625 -0.6921  0.0710 -0.5193
  163SAPE   C3118209   5.049   1.239   3.739  0.4620 -0.0701 -0.6200
  163SAPE   O3218210   4.947   1.173   3.765 -0.1183  0.0316  0.4372
  163SAPE   C3218211   5.154   1.278   3.843 -0.5207  0.8077  0.3679
  163SAPE   H2X18212   5.207   1.368   3.806 -1.0855  0.8342 -0.4020
  163SAPE   H2Y18213   5.225   1.194   3.852  1.1614  2.2330  0.8620
  163SAPE   C2318214   4.562   1.634   3.712  0.8311 -0.0757 -0.0052
  163SAPE   H3R18215   4.494   1.547   3.701  0.9634 -0.3204  1.0884
  163SAPE   H3S18216   4.533   1.695   3.624  0.4102  1.6414  1.2852
  163SAPE   C2418217   4.514   1.706   3.838  0.0670  0.5949  0.0534
  163SAPE   H4R18218   4.551   1.651   3.927 -0.2349 -1.5283 -1.0864
  163SAPE   H4S18219   4.403   1.700   3.837  0.1354 -2.4542  1.5739
  163SAPE   C2518220   4.557   1.847   3.843  0.1729  0.3538 -0.0885
  163SAPE   H5R18221   4.639   1.875   3.775  0.5693  3.3338  1.4472
  163SAPE   C2618222   4.516   1.931   3.935 -0.2351 -0.3612  0.4360
  163SAPE   H6R18223   4.540   2.038   3.922 -1.8732  0.1619  1.3768
  163SAPE   C2718224   4.400   1.897   4.030 -0.6407 -0.2903  0.0361
  163SAPE   H7R18225   4.408   1.803   4.089  0.5361  1.3297  2.6137
  163SAPE   H7S18226   4.302   1.897   3.977  0.4616 -1.0367 -2.1333
  163SAPE   C2818227   4.398   2.012   4.131  0.1099  0.1780 -0.1894
  163SAPE   H8R18228   4.342   2.102   4.101  1.1321  0.1397 -2.4208
  163SAPE   C2918229   4.459   2.017   4.253 -0.1372  0.1081  0.3205
  163SAPE   H9R18230   4.454   2.106   4.318  1.7055  0.7060 -0.2936
  163SAPE  C21018231   4.537   1.905   4.312  0.2213 -0.8653  0.1331
  163SAPE  H10R18232   4.624   1.943   4.369  2.0587 -0.9767 -2.4267
  163SAPE  H10S18233   4.592   1.866   4.224  0.2035 -0.0546 -0.2439
  163SAPE  C21118234   4.450   1.795   4.375 -0.1664  0.5891  0.0596
  163SAPE  H11R18235   4.375   1.750   4.307  1.0257 -3.0342  0.8808
  163SAPE  C21218236   4.439   1.752   4.504 -0.1168 -0.1301  0.2408
  163SAPE  H12R18237   4.369   1.674   4.538  0.8838 -1.7282 -1.2590
  163SAPE  C21318238   4.523   1.795   4.627  0.8203  0.9066  0.8405
  163SAPE  H13R18239   4.592   1.877   4.596  0.4256  0.7602 -0.5294
  163SAPE  H13S18240   4.588   1.711   4.658 -0.1898 -0.4982 -0.6728
  163SAPE  C21418241   4.438   1.852   4.738  0.4709 -0.7859 -0.7953
  163SAPE  H14R18242   4.333   1.863   4.707  0.2087  0.2880  0.3921
  163SAPE  C21518243   4.483   1.893   4.853 -0.5151 -0.0938 -0.1176
  163SAPE  H15R18244   4.411   1.927   4.929  0.8000  2.6418  0.0425
  163SAPE  C21618245   4.626   1.899   4.893  0.0649 -0.8226 -0.4043
  163SAPE  H16R18246   4.698   1.899   4.809  2.2040 -0.1581  1.3218
  163SAPE  H16S18247   4.652   1.804   4.947 -0.9383 -1.1192 -0.4220
  163SAPE  C21718248   4.652   2.010   4.992  0.3054  0.8298  0.1085
  163SAPE  H17R18249   4.628   2.109   4.947  0.9101 -0.9794 -4.8532
  163SAPE  H17S18250   4.760   2.018   5.016 -0.0221  0.3619  1.9317
  163SAPE  C21818251   4.570   1.992   5.121  0.5844  0.5388 -0.3915
  163SAPE  H18R18252   4.592   1.891   5.161 -0.7701  0.4561  0.2120
  163SAPE  H18S18253   4.460   2.001   5.107  1.0375  4.2928 -3.2710
  163SAPE  C21918254   4.611   2.088   5.229  0.8861  0.2639 -1.4099
  163SAPE  H19R18255   4.592   2.196   5.209 -2.3578  0.6076  2.2486
  163SAPE  H19S18256   4.718   2.070   5.252  0.5786  0.3943  0.2788
  163SAPE  C22018257   4.527   2.065   5.361 -0.6335 -0.0534 -0.6135
  163SAPE  H20R18258   4.581   2.111   5.446 -3.0794  0.6929  0.6307
  163SAPE  H20S18259   4.531   1.956   5.383 -2.4247 -0.8757 -3.7932
  163SAPE  H20T18260   4.424   2.106   5.365 -0.9822 -0.9865  1.2865
  163SAPE   C3318261   5.098   1.303   3.982 -0.3744  0.2921 -0.2075
  163SAPE   H3X18262   5.028   1.224   4.015  1.4448 -0.9130  0.9245
  163SAPE   H3Y18263   5.031   1.392   3.974  0.9243  1.3203  0.0280
  163SAPE   C3418264   5.190   1.314   4.102 -0.2401  0.4613 -0.0947
  163SAPE   H4X18265   5.243   1.412   4.092 -1.7004  1.2485 -0.4894
  163SAPE   H4Y18266   5.269   1.237   4.089  1.8415  2.3575  0.6323
  163SAPE   C3518267   5.112   1.301   4.233 -0.1131 -0.3417  0.6788
  163SAPE   H5X18268   5.060   1.202   4.235 -3.6005  1.3239  2.6988
  163SAPE   H5Y18269   5.037   1.383   4.240 -0.6375 -0.7859  0.3811
  163SAPE   C3618270   5.207   1.308   4.358  0.1764  0.2061 -0.1731
  163SAPE   H6X18271   5.255   1.408   4.365  0.1176  0.2531 -0.4513
  163SAPE   H6Y18272   5.285   1.229   4.345  0.2171  0.2706 -0.3215
  163SAPE   C3718273   5.128   1.282   4.486 -0.3328 -0.0306 -0.0709
  163SAPE   H7X18274   5.064   1.195   4.456  0.7471 -0.4712 -1.1977
  163SAPE   H7Y18275   5.062   1.367   4.511  2.5168  1.1763  4.4819
  163SAPE   C3818276   5.209   1.238   4.615 -0.1180  0.3253  0.1317
  163SAPE   H8X18277   5.251   1.330   4.660  0.7222 -0.1010  0.2379
  163SAPE   H8Y18278   5.289   1.174   4.570 -0.2139  2.2176 -3.0356
  163SAPE   C3918279   5.128   1.156   4.719 -0.1141 -0.5982 -0.0878
  163SAPE   H9X18280   5.198   1.110   4.792 -0.4555  1.6820  1.7833
  163SAPE   H9Y18281   5.066   1.076   4.674 -1.3025  0.2636 -0.0196
  163SAPE  C31018282   5.039   1.259   4.799  0.6776  0.1534 -0.2275
  163SAPE  H10X18283   4.966   1.304   4.728 -2.4218 -0.8895  2.0874
  163SAPE  H10Y18284   5.102   1.336   4.849  1.8257 -1.3252  0.6984
  163SAPE  C31118285   4.959   1.205   4.914  0.3347 -0.9256 -0.0636
  163SAPE  H11X18286   4.910   1.112   4.876 -0.8265  0.1505 -1.2962
  163SAPE  H11Y18287   4.877   1.264   4.959 -2.5721 -3.6043 -1.4187
  163SAPE  C31218288   5.039   1.169   5.041 -1.0572 -0.3376  0.0408
  163SAPE  H12X18289   5.073   1.261   5.093 -1.0715 -0.2715 -0.0650
  163SAPE  H12Y18290   5.132   1.120   5.004 -0.3211  2.9744 -3.0554
  163SAPE  C31318291   4.966   1.078   5.137 -0.1040  0.3041  0.3322
  163SAPE  H13X18292   4.917   0.987   5.096  0.5891 -0.0196  0.2054
  163SAPE  H13Y18293   4.880   1.140   5.170 -2.0963 -1.7818 -0.6344
  163SAPE  C31418294   5.056   1.033   5.257  0.0766  0.7301 -0.7976
  163SAPE  H14X18295   5.128   1.118   5.266  1.3944 -0.3091 -1.2195
  163SAPE  H14Y18296   5.099   0.937   5.222 -3.6774 -1.6848  0.6664
  163SAPE  C31518297   4.980   1.010   5.392  0.3786  0.1652 -0.3538
  163SAPE  H15X18298   4.926   0.915   5.369  0.5761  0.1932 -0.9481
  163SAPE  H15Y18299   4.903   1.091   5.392  1.5292  1.3437 -2.4960
  163SAPE  C31618300   5.058   0.991   5.514  0.1172  0.0138 -0.1472
  163SAPE  H16X18301   5.089   1.093   5.545  1.0460 -0.6084  1.0631
  163SAPE  H16Y18302   5.143   0.922   5.496 -1.9727 -2.6750 -0.3476
  163SAPE  C31718303   4.981   0.929   5.629  0.0011  0.4499 -1.5073
  163SAPE  H17X18304   4.975   0.818   5.618  3.0007  0.3283 -2.8535
  163SAPE  H17Y18305   4.876   0.965   5.629 -0.4138 -0.5055  0.9844
  163SAPE  C31818306   5.027   0.961   5.766  0.1863  0.9720 -0.4186
  163SAPE  H18X18307   4.952   0.937   5.844 -0.7192 -1.0730 -1.8457
  163SAPE  H18Y18308   5.040   1.071   5.776  0.3023  0.7786  2.4867
  163SAPE  H18Z18309   5.125   0.916   5.793  0.0449  1.7708  1.6742
  164SAPE     N18310   2.446   1.771   3.394 -0.3262 -0.5099 -0.0738
  164SAPE   HN118311   2.361   1.805   3.345 -1.5235 -0.0727  2.1246
  164SAPE   HN218312   2.524   1.808   3.336 -0.4420  0.6062  0.4556
  164SAPE   HN318313   2.433   1.668   3.394  0.7194 -0.6735  1.1639
  164SAPE   C1218314   2.479   1.834   3.530 -0.1120 -0.3388  0.3874
  164SAPE  H12A18315   2.451   1.763   3.610 -2.6731  0.8700  0.6655
  164SAPE  H12B18316   2.411   1.922   3.541 -1.0372 -0.8558 -0.9092
  164SAPE   C1118317   2.625   1.883   3.545 -0.4851  0.1183  0.2829
  164SAPE  H11A18318   2.640   1.910   3.651  0.7115 -1.1858  0.4815
  164SAPE  H11B18319   2.622   1.968   3.473 -1.0523 -1.0473 -1.1378
  164SAPE     P18320   2.863   1.813   3.477 -0.0258  0.4464  0.0761
  164SAPE   O1318321   2.926   1.695   3.408 -0.5521 -0.2933 -0.1483
  164SAPE   O1418322   2.864   1.937   3.403 -0.5276  0.3508  0.1288
  164SAPE   O1218323   2.714   1.775   3.510 -0.3342 -0.2850 -0.9579
  164SAPE   O1118324   2.923   1.844   3.617  0.1737 -0.1393  0.0564
  164SAPE    C118325   2.981   1.750   3.707  0.3145 -0.2983 -0.1454
  164SAPE    HA18326   2.983   1.648   3.663 -1.7463  0.1576 -1.4057
  164SAPE    HB18327   3.082   1.790   3.729 -0.8255  2.9258 -0.3092
  164SAPE    C218328   2.893   1.736   3.832  0.0217 -1.1379 -0.2978
  164SAPE    HS18329   2.942   1.668   3.905 -2.0306 -2.4220 -0.0572
  164SAPE   O2118330   2.762   1.691   3.799  0.8238 -0.2397 -0.3149
  164SAPE   C2118331   2.738   1.566   3.767  0.5334  0.0603  0.1800
  164SAPE   O2218332   2.819   1.477   3.770 -0.5949 -0.5072  0.4642
  164SAPE   C2218333   2.597   1.551   3.723 -0.1033 -0.2300 -0.4359
  164SAPE   H2R18334   2.538   1.610   3.797 -0.9590 -0.9262 -0.5489
  164SAPE   H2S18335   2.594   1.589   3.619  4.0115 -0.1926 -0.6841
  164SAPE    C318336   2.882   1.881   3.891  0.2442 -0.7937 -0.2998
  164SAPE    HX18337   2.801   1.930   3.834  0.8544  3.3043  1.9576
  164SAPE    HY18338   2.979   1.932   3.872 -0.7815  1.6061  0.5786
  164SAPE   O3118339   2.858   1.872   4.036  0.1935  0.0322  0.5736
  164SAPE   C3118340   2.816   1.981   4.086  0.4391  0.4522  0.4025
  164SAPE   O3218341   2.802   2.090   4.028  0.4399  0.0533  0.0837
  164SAPE   C3218342   2.795   1.963   4.233 -0.2597  0.2829  0.0001
  164SAPE   H2X18343   2.694   1.926   4.260 -0.2254  0.3284  0.1937
  164SAPE   H2Y18344   2.803   2.066   4.275  1.4897  0.1136  0.1711
  164SAPE   C2318345   2.532   1.416   3.739  0.2028  0.2623 -0.4106
  164SAPE   H3R18346   2.586   1.337   3.684 -2.1351  0.2649 -2.9546
  164SAPE   H3S18347   2.429   1.424   3.698 -0.3671 -0.0779  0.8996
  164SAPE   C2418348   2.503   1.381   3.884  0.2969 -0.6807  0.5197
  164SAPE   H4R18349   2.423   1.447   3.923  0.7171  0.6496 -0.7599
  164SAPE   H4S18350   2.588   1.416   3.947  0.3291  2.2091 -0.9191
  164SAPE   C2518351   2.473   1.241   3.901  0.3519  0.8829  0.2856
  164SAPE   H5R18352   2.390   1.198   3.843  1.2934 -1.9373  0.8655
  164SAPE   C2618353   2.535   1.153   3.980 -0.8102 -0.1082  0.1296
  164SAPE   H6R18354   2.505   1.047   3.983 -0.0278 -0.3271  1.2527
  164SAPE   C2718355   2.657   1.188   4.061  0.5826 -0.0668  0.4801
  164SAPE   H7R18356   2.616   1.234   4.153  2.4532 -1.9619  2.3784
  164SAPE   H7S18357   2.730   1.254   4.010  0.3691  0.1722  0.4783
  164SAPE   C2818358   2.731   1.063   4.095 -0.2443  0.4288 -0.1684
  164SAPE   H8R18359   2.777   1.005   4.014 -1.5143 -0.9221  0.0485
  164SAPE   C2918360   2.743   1.005   4.217  0.0288  0.1263 -0.3884
  164SAPE   H9R18361   2.804   0.914   4.228  1.0427  0.9386  1.1134
  164SAPE  C21018362   2.705   1.054   4.351  0.2052  0.0312 -0.2434
  164SAPE  H10R18363   2.622   0.988   4.382  0.5843  0.9049  3.1004
  164SAPE  H10S18364   2.673   1.161   4.352 -1.0871 -0.3458  0.2452
  164SAPE  C21118365   2.808   1.042   4.451 -0.5105  0.4577 -0.5546
  164SAPE  H11R18366   2.872   1.130   4.461  0.5321 -0.5300  2.6636
  164SAPE  C21218367   2.828   0.935   4.541 -0.3509 -0.4727  0.0007
  164SAPE  H12R18368   2.918   0.932   4.604  0.7995 -0.1473 -1.5712
  164SAPE  C21318369   2.742   0.816   4.559 -0.2966  0.1674 -0.1881
  164SAPE  H13R18370   2.746   0.765   4.460  0.7115  2.2401 -1.2794
  164SAPE  H13S18371   2.635   0.843   4.573 -0.0797  0.5083  0.8677
  164SAPE  C21418372   2.792   0.729   4.674 -0.6404  0.2787  0.4972
  164SAPE  H14R18373   2.824   0.633   4.631  2.3740  1.3768  0.0316
  164SAPE  C21518374   2.791   0.750   4.809  0.2619  0.0729  0.0231
  164SAPE  H15R18375   2.825   0.673   4.880 -2.1842 -1.4283 -0.3090
  164SAPE  C21618376   2.728   0.875   4.871  1.1185 -0.1241 -0.6218
  164SAPE  H16R18377   2.702   0.941   4.786  0.0184 -0.0988 -0.2740
  164SAPE  H16S18378   2.796   0.937   4.934 -2.6338  2.5525  1.1376
  164SAPE  C21718379   2.596   0.847   4.950 -0.3912 -0.2369 -0.1825
  164SAPE  H17R18380   2.622   0.763   5.019 -0.5580 -0.3237 -0.2267
  164SAPE  H17S18381   2.517   0.822   4.877 -0.3130  0.4747 -0.5188
  164SAPE  C21818382   2.551   0.956   5.045  0.0975 -0.3451 -1.1710
  164SAPE  H18R18383   2.614   0.954   5.137  0.7589  1.6930 -1.5311
  164SAPE  H18S18384   2.448   0.941   5.085  0.6175 -0.6660  0.0856
  164SAPE  C21918385   2.541   1.105   4.988 -0.1990 -0.1254  0.5762
  164SAPE  H19R18386   2.643   1.144   4.968 -0.8120  0.6993 -1.2238
  164SAPE  H19S18387   2.507   1.175   5.067  0.9817 -0.5397  1.4846
  164SAPE  C22018388   2.452   1.122   4.865 -0.3977 -0.1625 -0.2178
  164SAPE  H20R18389   2.347   1.104   4.896 -0.4533 -1.2217 -0.9522
  164SAPE  H20S18390   2.497   1.052   4.790 -0.8383 -1.5222  0.7440
  164SAPE  H20T18391   2.455   1.222   4.818 -0.4888 -0.7376 -1.5102
  164SAPE   C3318392   2.910   1.886   4.305 -0.4397 -0.1333 -0.1873
  164SAPE   H3X18393   3.004   1.946   4.294 -0.3380 -0.4730 -1.4089
  164SAPE   H3Y18394   2.944   1.794   4.252 -0.4743 -0.2232 -0.0530
  164SAPE   C3418395   2.876   1.856   4.454 -0.2854 -0.2802  1.1132
  164SAPE   H4X18396   2.949   1.783   4.495 -1.2029 -0.8038  1.8442
  164SAPE   H4Y18397   2.783   1.797   4.466  1.0400 -3.1579 -1.5296
  164SAPE   C3518398   2.871   1.974   4.546  0.7305 -0.5448  0.2653
  164SAPE   H5X18399   2.802   2.049   4.502 -0.1424 -0.3932  1.8466
  164SAPE   H5Y18400   2.971   2.020   4.560  1.5053 -2.2233  0.5627
  164SAPE   C3618401   2.812   1.941   4.683  0.8221  0.5238 -0.6177
  164SAPE   H6X18402   2.871   1.863   4.736 -0.9097 -0.0455  0.5450
  164SAPE   H6Y18403   2.712   1.894   4.679  1.6218 -1.5092  1.3906
  164SAPE   C3718404   2.800   2.064   4.774  0.1270  0.4063 -0.1999
  164SAPE   H7X18405   2.754   2.154   4.728  0.2149 -0.3669 -1.8525
  164SAPE   H7Y18406   2.908   2.086   4.788  0.2480 -1.3681  2.4146
  164SAPE   C3818407   2.737   2.026   4.904 -0.5292 -0.4284 -0.2109
  164SAPE   H8X18408   2.784   1.934   4.945  0.2312  0.6594  1.4835
  164SAPE   H8Y18409   2.627   2.011   4.897 -0.6134  0.9215 -3.8941
  164SAPE   C3918410   2.765   2.125   5.017  0.0449 -0.8403  0.6739
  164SAPE   H9X18411   2.703   2.214   4.995 -1.9576 -2.1956  0.5123
  164SAPE   H9Y18412   2.871   2.156   5.029  0.1256 -0.5455 -0.6766
  164SAPE  C31018413   2.728   2.076   5.164  1.0216  0.4920  0.2761
  164SAPE  H10X18414   2.771   1.974   5.176  4.2168  1.8657  1.6313
  164SAPE  H10Y18415   2.618   2.067   5.165  1.1492 -1.2573  1.3764
  164SAPE  C31118416   2.760   2.175   5.278  0.9070  0.0427 -0.1072
  164SAPE  H11X18417   2.721   2.271   5.239  1.1740  0.1734 -0.0494
  164SAPE  H11Y18418   2.868   2.173   5.302  0.6655 -1.7230  1.0464
  164SAPE  C31218419   2.691   2.146   5.419  0.2183  0.3860 -0.8880
  164SAPE  H12X18420   2.728   2.048   5.454 -2.5130 -1.0934 -1.7999
  164SAPE  H12Y18421   2.583   2.125   5.401 -0.3909  0.8072  1.8102
  164SAPE  C31318422   2.705   2.266   5.518  0.0217  0.4580 -0.7264
  164SAPE  H13X18423   2.646   2.342   5.462  0.6178  1.2016 -0.3558
  164SAPE  H13Y18424   2.813   2.291   5.510 -0.0434  0.2595 -2.6163
  164SAPE  C31418425   2.635   2.257   5.654  0.4916  0.1679  0.2714
  164SAPE  H14X18426   2.525   2.265   5.642  0.4269 -1.2844 -0.2943
  164SAPE  H14Y18427   2.668   2.351   5.704  1.8239 -0.1338 -0.0042
  164SAPE  C31518428   2.663   2.127   5.724  0.4724  0.5641 -0.2058
  164SAPE  H15X18429   2.675   2.162   5.829 -0.3926  0.1380  0.0427
  164SAPE  H15Y18430   2.761   2.081   5.703  0.5897  1.8070 -2.7447
  164SAPE  C31618431   2.544   2.022   5.717  0.0291  0.2153  0.2232
  164SAPE  H16X18432   2.555   1.972   5.618 -0.7425 -0.7559  0.6084
  164SAPE  H16Y18433   2.443   2.068   5.719 -0.2304 -0.3546  1.1782
  164SAPE  C31718434   2.548   1.927   5.838 -0.4226 -0.5991 -0.0520
  164SAPE  H17X18435   2.558   1.989   5.930  0.6727  0.7160 -1.0209
  164SAPE  H17Y18436   2.644   1.871   5.839  0.2951  0.5101  2.3954
  164SAPE  C31818437   2.429   1.831   5.852 -0.4344  0.1000  0.0557
  164SAPE  H18X18438   2.435   1.766   5.762 -2.2808 -0.6334  0.4161
  164SAPE  H18Y18439   2.333   1.887   5.864 -0.2292  0.5670 -0.3951
  164SAPE  H18Z18440   2.451   1.767   5.939  0.2013  0.6253  0.2912
  165SAPE     N18441   3.152   2.137   3.126 -0.6102  0.0144 -0.8773
  165SAPE   HN118442   3.134   2.200   3.207 -1.0737  0.5382 -1.3875
  165SAPE   HN218443   3.252   2.126   3.100 -0.7412  1.4138 -2.1046
  165SAPE   HN318444   3.101   2.174   3.044 -1.7400 -1.4117 -0.8741
  165SAPE   C1218445   3.088   2.004   3.165  0.7147 -0.4550  0.3996
  165SAPE  H12A18446   3.089   1.938   3.076 -0.7060  1.9076 -1.4849
  165SAPE  H12B18447   2.980   2.012   3.189  0.9960  0.1813  1.5437
  165SAPE   C1118448   3.165   1.949   3.286  0.1320 -0.2433 -0.2754
  165SAPE  H11A18449   3.120   1.850   3.311  0.1048 -0.5325 -1.4177
  165SAPE  H11B18450   3.163   2.013   3.377  0.7223  0.1749 -0.5526
  165SAPE     P18451   3.375   1.789   3.261  0.0991  0.2012  0.3812
  165SAPE   O1318452   3.281   1.675   3.238  0.4020  0.1118  0.0976
  165SAPE   O1418453   3.501   1.790   3.185  0.6326  0.2426  0.7294
  165SAPE   O1218454   3.298   1.925   3.263 -0.1429 -0.0089  0.0534
  165SAPE   O1118455   3.406   1.783   3.417 -0.4245 -0.2494  0.9039
  165SAPE    C118456   3.513   1.861   3.463 -0.3016 -0.7478  0.1878
  165SAPE    HA18457   3.604   1.836   3.404 -0.2410  0.9181 -0.4627
  165SAPE    HB18458   3.494   1.969   3.448  0.9312 -0.7619 -2.0500
  165SAPE    C218459   3.561   1.838   3.612  0.5332 -0.0386 -0.0099
  165SAPE    HS18460   3.665   1.873   3.634  1.3778 -3.1635  1.6333
  165SAPE   O2118461   3.555   1.697   3.630 -0.0786  0.6997  0.0952
  165SAPE   C2118462   3.651   1.623   3.579  0.3916  0.2037 -0.0332
  165SAPE   O2218463   3.761   1.667   3.540  0.4304  0.0070  0.0321
  165SAPE   C2218464   3.614   1.477   3.593  0.0191  0.5267  0.8009
  165SAPE   H2R18465   3.507   1.473   3.624 -1.2636 -1.0410 -3.1966
  165SAPE   H2S18466   3.627   1.426   3.495  0.8227  5.6027 -2.1147
  165SAPE    C318467   3.478   1.910   3.723  1.1038 -0.2531  0.3890
  165SAPE    HX18468   3.375   1.917   3.683  1.5958 -2.2015 -1.4101
  165SAPE    HY18469   3.527   2.010   3.726  1.5218 -0.2983 -2.2836
  165SAPE   O3118470   3.492   1.858   3.856 -0.0401  0.1150 -0.9851
  165SAPE   C3118471   3.400   1.779   3.902 -0.0065  0.0065  0.1024
  165SAPE   O3218472   3.311   1.727   3.832 -0.3792  0.7209  0.0780
  165SAPE   C3218473   3.438   1.746   4.053  0.3649 -0.4276 -0.4475
  165SAPE   H2X18474   3.531   1.797   4.085  1.3247 -3.4391  1.9303
  165SAPE   H2Y18475   3.457   1.640   4.076  0.2736 -0.8047 -1.9816
  165SAPE   C2318476   3.707   1.417   3.697 -0.3852 -0.3635  0.4356
  165SAPE   H3R18477   3.812   1.439   3.669 -0.9322  1.9984  0.0057
  165SAPE   H3S18478   3.709   1.306   3.694  0.1394 -0.3384 -1.7851
  165SAPE   C2418479   3.694   1.481   3.839 -0.3546  0.5354  0.4272
  165SAPE   H4R18480   3.693   1.592   3.836  0.4985  0.5348 -0.3294
  165SAPE   H4S18481   3.790   1.448   3.883 -1.8920 -1.9509  2.1648
  165SAPE   C2518482   3.573   1.429   3.919 -1.0826  0.1355 -0.5039
  165SAPE   H5R18483   3.478   1.455   3.871 -1.1205 -1.2951 -1.2495
  165SAPE   C2618484   3.566   1.351   4.029  0.4473 -0.9030 -0.2188
  165SAPE   H6R18485   3.471   1.332   4.082  0.3785  1.0135  0.4011
  165SAPE   C2718486   3.676   1.278   4.107  0.6388 -0.7686  0.2004
  165SAPE   H7R18487   3.757   1.248   4.037  0.0552 -0.3245 -0.6775
  165SAPE   H7S18488   3.630   1.186   4.149  1.4283 -0.6365  1.4163
  165SAPE   C2818489   3.746   1.359   4.203 -0.6017 -0.1650 -0.1448
  165SAPE   H8R18490   3.802   1.443   4.158  1.3315 -0.7895  0.9739
  165SAPE   C2918491   3.729   1.359   4.336  0.5623 -1.1665  0.3083
  165SAPE   H9R18492   3.787   1.430   4.397 -0.5348 -0.4640  0.5639
  165SAPE  C21018493   3.634   1.270   4.412  0.2450  0.2612 -0.5116
  165SAPE  H10R18494   3.587   1.192   4.349  0.9000 -0.2044 -0.4292
  165SAPE  H10S18495   3.550   1.333   4.451 -1.5528 -3.4728  2.2957
  165SAPE  C21118496   3.699   1.208   4.533  0.5318  0.4149  0.2130
  165SAPE  H11R18497   3.805   1.184   4.520  0.1680 -0.0864 -2.2668
  165SAPE  C21218498   3.643   1.183   4.654 -0.4470  0.2201 -0.1066
  165SAPE  H12R18499   3.707   1.153   4.738 -1.3564 -1.4547  0.0452
  165SAPE  C21318500   3.501   1.197   4.693  0.7560 -0.2874 -0.1510
  165SAPE  H13R18501   3.437   1.239   4.612  0.4869 -0.8206 -0.2153
  165SAPE  H13S18502   3.477   1.265   4.778 -0.4707  0.5637 -1.1232
  165SAPE  C21418503   3.450   1.059   4.725 -0.0047 -0.1515  0.5388
  165SAPE  H14R18504   3.393   1.001   4.650 -0.5302  1.1163 -0.0800
  165SAPE  C21518505   3.470   0.997   4.844  0.0063 -0.3650 -0.0408
  165SAPE  H15R18506   3.432   0.894   4.853 -0.0761 -0.3138  0.1974
  165SAPE  C21618507   3.546   1.042   4.958 -0.0801  0.0009 -0.5321
  165SAPE  H16R18508   3.469   1.054   5.036 -0.5471 -1.9983 -0.6421
  165SAPE  H16S18509   3.593   1.141   4.939 -0.6042  0.6323  1.2504
  165SAPE  C21718510   3.657   0.944   4.997 -0.9724 -0.1681 -0.7759
  165SAPE  H17R18511   3.747   0.960   4.934  0.6064  1.9755  1.8159
  165SAPE  H17S18512   3.622   0.839   4.980  2.2606 -0.9784 -3.2548
  165SAPE  C21818513   3.694   0.978   5.142 -0.5103 -0.6415 -0.0688
  165SAPE  H18R18514   3.614   0.939   5.209 -0.4752  1.3678  1.2186
  165SAPE  H18S18515   3.708   1.087   5.157  0.4559 -0.9358  1.4327
  165SAPE  C21918516   3.820   0.898   5.197  0.9326 -0.7975 -0.3612
  165SAPE  H19R18517   3.895   0.917   5.117  1.0958  1.4854  0.2745
  165SAPE  H19S18518   3.794   0.790   5.206 -3.2063 -0.0544 -1.4311
  165SAPE  C22018519   3.888   0.947   5.321  0.0858  0.0219 -0.5195
  165SAPE  H20R18520   3.827   0.927   5.411  1.2478 -0.3247  0.2171
  165SAPE  H20S18521   3.898   1.058   5.313 -0.0694 -0.0404 -1.6957
  165SAPE  H20T18522   3.993   0.911   5.316  0.4598  0.9992 -0.0179
  165SAPE   C3318523   3.323   1.786   4.155 -0.3726 -0.4174 -0.5839
  165SAPE   H3X18524   3.233   1.747   4.102  0.1187 -0.4921 -1.3787
  165SAPE   H3Y18525   3.316   1.896   4.149 -1.0431 -0.3677  0.7546
  165SAPE   C3418526   3.351   1.734   4.297  0.2370 -0.2968  0.0892
  165SAPE   H4X18527   3.451   1.776   4.324  0.9359 -0.8739 -1.4676
  165SAPE   H4Y18528   3.352   1.624   4.284  1.6228 -0.6014  2.2925
  165SAPE   C3518529   3.250   1.783   4.404 -0.4046 -0.6431  1.1244
  165SAPE   H5X18530   3.152   1.741   4.372 -0.3909  0.3407 -0.3082
  165SAPE   H5Y18531   3.233   1.893   4.400  0.5952 -0.5317 -1.1149
  165SAPE   C3618532   3.288   1.762   4.549 -0.4220  0.1404 -0.7751
  165SAPE   H6X18533   3.385   1.814   4.566  1.2033 -3.1893  1.1829
  165SAPE   H6Y18534   3.302   1.654   4.568  1.7835  0.2181 -1.6408
  165SAPE   C3718535   3.194   1.816   4.644  0.4122 -0.4965  0.4227
  165SAPE   H7X18536   3.111   1.742   4.635  2.3732 -2.5955 -1.6724
  165SAPE   H7Y18537   3.171   1.920   4.612  0.6496 -0.7278 -0.5384
  165SAPE   C3818538   3.250   1.806   4.789 -0.0136 -0.7031  0.6861
  165SAPE   H8X18539   3.342   1.868   4.797 -1.5369  1.7240  0.4871
  165SAPE   H8Y18540   3.280   1.703   4.816 -2.5809 -1.7354 -0.1373
  165SAPE   C3918541   3.163   1.860   4.903 -0.3734 -1.0499  0.2734
  165SAPE   H9X18542   3.072   1.796   4.898  0.0319 -1.7316  1.2334
  165SAPE   H9Y18543   3.122   1.960   4.878  2.0730 -0.4043 -1.5085
  165SAPE  C31018544   3.217   1.857   5.045  1.5619 -0.1659  0.0454
  165SAPE  H10X18545   3.306   1.924   5.047  2.4739 -1.3143 -0.4737
  165SAPE  H10Y18546   3.249   1.755   5.076 -1.9823 -1.2483  0.6152
  165SAPE  C31118547   3.121   1.918   5.149  0.3935 -0.1365 -0.5881
  165SAPE  H11X18548   3.030   1.854   5.143  0.0211  0.3468 -0.1063
  165SAPE  H11Y18549   3.091   2.023   5.132  0.1152  0.4741  2.9417
  165SAPE  C31218550   3.171   1.914   5.295  0.0180  0.6909  0.0995
  165SAPE  H12X18551   3.260   1.977   5.315 -0.7550  3.0651 -3.0954
  165SAPE  H12Y18552   3.194   1.810   5.326  0.0818  1.0026  1.1419
  165SAPE  C31318553   3.062   1.966   5.394 -0.7568 -0.3040  0.1991
  165SAPE  H13X18554   2.966   1.911   5.378 -1.0405  0.2576 -0.0619
  165SAPE  H13Y18555   3.038   2.073   5.381 -2.7849 -0.7625 -0.2530
  165SAPE  C31418556   3.108   1.932   5.538  0.4544  0.4347  0.2224
  165SAPE  H14X18557   3.211   1.962   5.566  0.6078 -0.1051  0.2437
  165SAPE  H14Y18558   3.110   1.822   5.548 -0.2265  0.3503 -0.4457
  165SAPE  C31518559   3.007   1.980   5.649  0.2052 -0.1040  0.5363
  165SAPE  H15X18560   2.913   1.925   5.627  0.1363  0.5984 -1.1002
  165SAPE  H15Y18561   2.992   2.089   5.630  2.6277  0.1492 -0.2481
  165SAPE  C31618562   3.046   1.954   5.786  0.4105 -0.2093  0.3495
  165SAPE  H16X18563   3.122   2.027   5.821  1.8356 -0.5503 -1.8583
  165SAPE  H16Y18564   3.079   1.848   5.794  1.0011  0.0480  1.5313
  165SAPE  C31718565   2.935   1.956   5.890 -0.0790  0.1222 -0.3214
  165SAPE  H17X18566   2.847   1.899   5.855  0.0763 -0.7026  0.5868
  165SAPE  H17Y18567   2.897   2.060   5.897 -0.3480  0.1439 -1.8085
  165SAPE  C31818568   2.982   1.905   6.030  0.1925  0.0437  0.6877
  165SAPE  H18X18569   3.065   1.970   6.065  1.9190 -1.5629 -0.2801
  165SAPE  H18Y18570   3.031   1.807   6.014  0.1507 -0.0240  0.9734
  165SAPE  H18Z18571   2.893   1.896   6.095  0.2641 -1.0655  0.6468
  166SAPE     N18572   1.351   1.539   2.867 -0.8838  0.3176 -0.1542
  166SAPE   HN118573   1.274   1.517   2.933  0.1789  0.7725  1.2881
  166SAPE   HN218574   1.398   1.630   2.887  0.2277 -0.2834  0.0635
  166SAPE   HN318575   1.313   1.554   2.772  3.8030  1.3504 -2.1719
  166SAPE   C1218576   1.460   1.442   2.845 -0.9919 -0.6382 -0.3476
  166SAPE  H12A18577   1.534   1.481   2.772 -0.6082  0.1786  0.4484
  166SAPE  H12B18578   1.421   1.349   2.799 -2.8455 -0.0933  0.0457
  166SAPE   C1118579   1.537   1.407   2.977  0.2726  0.0216 -0.4197
  166SAPE  H11A18580   1.616   1.334   2.951 -0.7733 -1.2339 -0.1490
  166SAPE  H11B18581   1.448   1.372   3.033 -0.3834  1.2706 -0.6422
  166SAPE     P18582   1.688   1.521   3.155  0.1866  0.3255  0.0307
  166SAPE   O1318583   1.658   1.397   3.235  0.4449 -0.4638  0.0982
  166SAPE   O1418584   1.825   1.528   3.096  0.2672  0.4944 -0.1397
  166SAPE   O1218585   1.582   1.532   3.033 -0.3049 -0.0983  0.4593
  166SAPE   O1118586   1.643   1.648   3.241 -0.3398  0.5114 -0.3689
  166SAPE    C118587   1.621   1.775   3.184  0.2553  0.3781  0.1218
  166SAPE    HA18588   1.683   1.857   3.225 -0.0018  0.7348 -0.1952
  166SAPE    HB18589   1.618   1.775   3.073  0.5767 -2.8926  0.0217
  166SAPE    C218590   1.488   1.826   3.227  0.1102  0.0259  0.4214
  166SAPE    HS18591   1.462   1.914   3.165 -2.3570 -0.0234  1.2998
  166SAPE   O2118592   1.505   1.870   3.358 -0.3900  0.4822 -0.5997
  166SAPE   C2118593   1.426   1.963   3.404  0.0937 -0.4491 -0.4158
  166SAPE   O2218594   1.330   2.006   3.345  0.3598 -0.2009  0.2280
  166SAPE   C2218595   1.483   2.021   3.531  0.0592 -0.4877 -0.4528
  166SAPE   H2R18596   1.478   2.130   3.512 -0.8332 -0.3534  0.4378
  166SAPE   H2S18597   1.413   2.000   3.615  3.3113 -1.0608  2.3519
  166SAPE    C318598   1.379   1.715   3.213  0.4227 -0.8567  0.3451
  166SAPE    HX18599   1.406   1.613   3.248  3.8028 -0.1782  0.0518
  166SAPE    HY18600   1.383   1.687   3.106  0.5098 -0.6894  0.3035
  166SAPE   O3118601   1.246   1.754   3.253  0.0889  0.0992  0.4244
  166SAPE   C3118602   1.199   1.707   3.369 -0.1784  0.0806  0.2263
  166SAPE   O3218603   1.274   1.642   3.445 -0.1305 -0.9674 -0.0648
  166SAPE   C3218604   1.051   1.755   3.399  0.8043  0.8104  0.1128
  166SAPE   H2X18605   0.992   1.721   3.312  0.4689  1.3430  0.1327
  166SAPE   H2Y18606   1.055   1.865   3.393  1.9681  0.7604 -0.3400
  166SAPE   C2318607   1.617   1.975   3.579  0.1574  0.1234 -0.3449
  166SAPE   H3R18608   1.698   1.965   3.504  1.0754 -0.1543  0.6535
  166SAPE   H3S18609   1.599   1.868   3.603 -0.0160  1.0166  4.5872
  166SAPE   C2418610   1.674   2.043   3.707  0.8058  0.0330 -0.8610
  166SAPE   H4R18611   1.613   2.023   3.798  0.9550 -0.7550 -0.9205
  166SAPE   H4S18612   1.673   2.152   3.690 -0.4178  0.3186  0.7687
  166SAPE   C2518613   1.813   1.987   3.736  0.6026 -0.5548 -0.6710
  166SAPE   H5R18614   1.853   1.907   3.672 -1.9106 -2.6679  0.2248
  166SAPE   C2618615   1.884   2.020   3.844  0.3042 -0.3296  0.6554
  166SAPE   H6R18616   1.981   1.972   3.862  0.5006  0.1569  0.9024
  166SAPE   C2718617   1.841   2.104   3.961 -0.0243 -0.1618 -0.0723
  166SAPE   H7R18618   1.863   2.048   4.054 -1.3763 -2.2753 -0.9690
  166SAPE   H7S18619   1.731   2.106   3.972  0.2518  0.5755  6.0627
  166SAPE   C2818620   1.888   2.254   3.959  0.2478  0.2866 -0.3666
  166SAPE   H8R18621   1.842   2.328   3.893  2.5831  2.5697  0.4061
  166SAPE   C2918622   1.995   2.291   4.034 -0.1097  0.7683  0.2031
  166SAPE   H9R18623   2.037   2.392   4.018  0.8488  0.1385 -1.5826
  166SAPE  C21018624   2.071   2.212   4.139 -0.2685  0.1782 -0.2234
  166SAPE  H10R18625   2.059   2.107   4.105 -0.9859  0.9033 -2.3807
  166SAPE  H10S18626   2.016   2.210   4.236  2.6929 -3.5774  1.6030
  166SAPE  C21118627   2.210   2.262   4.164 -0.6006  0.2029  0.6494
  166SAPE  H11R18628   2.271   2.273   4.073  0.4677  1.0267  1.4382
  166SAPE  C21218629   2.269   2.283   4.282  0.2064  0.0030 -0.3046
  166SAPE  H12R18630   2.377   2.305   4.279  0.5746 -1.4915  0.7756
  166SAPE  C21318631   2.212   2.263   4.427 -0.4180 -0.2794  0.7485
  166SAPE  H13R18632   2.271   2.183   4.477  1.3203  0.0156 -0.7352
  166SAPE  H13S18633   2.108   2.222   4.426  0.0688 -1.6766 -1.8519
  166SAPE  C21418634   2.215   2.399   4.494  0.3728 -0.6292  0.5815
  166SAPE  H14R18635   2.163   2.479   4.439  1.7517  0.8821  1.3763
  166SAPE  C21518636   2.279   2.429   4.609 -0.2534 -0.1623  0.4236
  166SAPE  H15R18637   2.269   2.536   4.635 -1.0817  0.0313 -0.5796
  166SAPE  C21618638   2.365   2.344   4.695  0.8416 -0.5341 -1.3391
  166SAPE  H16R18639   2.379   2.243   4.653  1.3563  0.6114 -4.1283
  166SAPE  H16S18640   2.301   2.325   4.784  0.9841  0.6421 -0.9709
  166SAPE  C21718641   2.504   2.403   4.723 -0.1242  0.1997 -0.3934
  166SAPE  H17R18642   2.548   2.341   4.804  1.1049  0.0163 -1.1730
  166SAPE  H17S18643   2.480   2.503   4.764 -2.3475 -0.0123 -1.0293
  166SAPE  C21818644   2.607   2.405   4.609  0.5265  0.7696 -0.0435
  166SAPE  H18R18645   2.577   2.444   4.509  2.6944  0.3414 -0.9071
  166SAPE  H18S18646   2.634   2.300   4.585  0.3176  0.9150 -0.9407
  166SAPE  C21918647   2.727   2.481   4.662  0.4762  0.5912  0.0319
  166SAPE  H19R18648   2.747   2.455   4.768 -0.9832  1.4478  0.5514
  166SAPE  H19S18649   2.701   2.588   4.648  0.1512  0.6322  0.9028
  166SAPE  C22018650   2.858   2.466   4.582  0.2407  0.1316 -0.3208
  166SAPE  H20R18651   2.900   2.363   4.589 -0.7330 -0.2439  0.0766
  166SAPE  H20S18652   2.938   2.536   4.614  0.3364 -0.2938  0.3852
  166SAPE  H20T18653   2.838   2.499   4.478  1.2752 -2.0361 -1.2767
  166SAPE   C3318654   0.986   1.711   3.534  0.3921  0.9766  0.4336
  166SAPE   H3X18655   1.026   1.614   3.571  2.1276  1.3990 -0.2415
  166SAPE   H3Y18656   0.876   1.694   3.528  0.4745  0.8904 -1.1724
  166SAPE   C3418657   1.019   1.816   3.634 -0.0306  0.2435 -0.5815
  166SAPE   H4X18658   0.987   1.916   3.597  1.4626  0.2956 -1.8253
  166SAPE   H4Y18659   1.130   1.815   3.645 -0.2490 -1.9334  3.3721
  166SAPE   C3518660   0.954   1.791   3.770  0.1587  0.2794 -0.0259
  166SAPE   H5X18661   0.972   1.683   3.787  1.2920 -0.2050 -3.5688
  166SAPE   H5Y18662   0.843   1.795   3.777  0.1601 -0.9080  1.0215
  166SAPE   C3618663   1.015   1.881   3.873 -0.6838 -0.8216 -0.6004
  166SAPE   H6X18664   0.969   1.982   3.862  1.0345 -0.2402 -3.4285
  166SAPE   H6Y18665   1.118   1.901   3.835 -0.8290 -1.8042 -1.5609
  166SAPE   C3718666   1.018   1.822   4.020 -0.5599 -0.5229  1.1808
  166SAPE   H7X18667   1.069   1.725   4.004  1.0215  0.1836  1.7818
  166SAPE   H7Y18668   0.920   1.788   4.061 -0.2836  0.0745  2.3957
  166SAPE   C3818669   1.109   1.889   4.117 -0.2687 -0.0255  0.6506
  166SAPE   H8X18670   1.076   1.992   4.142  0.8399  0.5236 -0.0374
  166SAPE   H8Y18671   1.215   1.896   4.085 -0.2477  4.0056  1.0341
  166SAPE   C3918672   1.100   1.808   4.248  0.4366  0.3905 -0.3130
  166SAPE   H9X18673   1.132   1.703   4.231  1.0229  0.4237  0.5616
  166SAPE   H9Y18674   0.994   1.798   4.279 -0.0402 -0.8847 -2.1629
  166SAPE  C31018675   1.185   1.884   4.351 -0.0877  0.0081  0.4231
  166SAPE  H10X18676   1.121   1.958   4.404 -1.3032 -0.2363 -0.6577
  166SAPE  H10Y18677   1.257   1.951   4.300 -1.4647 -0.0459 -1.7328
  166SAPE  C31118678   1.262   1.793   4.452 -0.0762 -0.2590  0.5697
  166SAPE  H11X18679   1.318   1.725   4.385 -2.1878 -0.3674 -1.2269
  166SAPE  H11Y18680   1.181   1.741   4.507 -1.5742 -0.5743 -1.7976
  166SAPE  C31218681   1.371   1.870   4.536  0.2201  0.1897 -0.4144
  166SAPE  H12X18682   1.368   1.978   4.510  1.8794  1.2275  3.1176
  166SAPE  H12Y18683   1.474   1.829   4.524  0.1299  0.0416 -0.7007
  166SAPE  C31318684   1.345   1.858   4.690 -0.0065 -0.1596  0.3574
  166SAPE  H13X18685   1.347   1.750   4.714 -2.2982 -0.1593  0.7868
  166SAPE  H13Y18686   1.244   1.902   4.704  0.4251  1.7733 -2.0011
  166SAPE  C31418687   1.443   1.946   4.776 -0.0612 -0.7324 -0.0092
  166SAPE  H14X18688   1.421   2.047   4.733 -1.3988 -0.5473  1.0590
  166SAPE  H14Y18689   1.550   1.923   4.755  0.0168 -1.6356  1.2841
  166SAPE  C31518690   1.420   1.946   4.926  0.1677 -0.0183 -0.2819
  166SAPE  H15X18691   1.450   1.848   4.970 -0.6656 -0.1940 -0.0890
  166SAPE  H15Y18692   1.311   1.955   4.943  0.1175  1.7416 -1.3298
  166SAPE  C31618693   1.494   2.043   5.007 -0.2414 -0.3357  0.2843
  166SAPE  H16X18694   1.450   2.144   4.999  1.2145  0.2665 -0.5630
  166SAPE  H16Y18695   1.592   2.064   4.959 -0.4663 -0.5017 -0.2606
  166SAPE  C31718696   1.516   2.005   5.153  0.2066  0.6597  0.5796
  166SAPE  H17X18697   1.596   1.929   5.171 -0.5516 -0.0287  1.1646
  166SAPE  H17Y18698   1.416   1.976   5.193 -1.2135  4.0036 -0.1944
  166SAPE  C31818699   1.576   2.128   5.235 -0.4889 -0.6990 -0.4895
  166SAPE  H18X18700   1.515   2.220   5.223 -1.1444 -0.8633  1.3342
  166SAPE  H18Y18701   1.682   2.141   5.205  0.3729 -3.1341  1.1872
  166SAPE  H18Z18702   1.588   2.109   5.344  4.1200 -1.2086 -0.9061
  167SAPE     N18703   2.854   0.561   3.361  0.6067  0.1961  0.5058
  167SAPE   HN118704   2.817   0.642   3.307  1.1256 -0.2838 -0.5955
  167SAPE   HN218705   2.954   0.580   3.377  0.2687  1.0309  1.7284
  167SAPE   HN318706   2.842   0.478   3.299  1.4984  1.8439 -2.0273
  167SAPE   C1218707   2.766   0.548   3.485  0.6270 -0.4292  0.4678
  167SAPE  H12A18708   2.760   0.649   3.530  1.3868  0.6977 -1.7672
  167SAPE  H12B18709   2.805   0.465   3.547  2.6712 -0.6479 -0.9869
  167SAPE   C1118710   2.622   0.517   3.443 -0.2822  0.7041 -0.0280
  167SAPE  H11A18711   2.568   0.597   3.388 -2.3610 -0.0922  0.7356
  167SAPE  H11B18712   2.564   0.499   3.536 -0.3136 -1.4837 -0.4021
  167SAPE     P18713   2.486   0.348   3.311 -0.0318 -0.3193 -0.7480
  167SAPE   O1318714   2.401   0.462   3.274  0.3840  0.0583  0.6218
  167SAPE   O1418715   2.509   0.250   3.211 -0.6363  0.3439  0.2573
  167SAPE   O1218716   2.628   0.395   3.363  0.0052  0.3488 -0.4336
  167SAPE   O1118717   2.426   0.276   3.440 -0.5055  0.1344 -0.1339
  167SAPE    C118718   2.507   0.212   3.543  0.0959  0.8285 -0.0349
  167SAPE    HA18719   2.617   0.224   3.542  0.0415  1.3973  0.4437
  167SAPE    HB18720   2.475   0.249   3.643  2.1031  0.1940  0.8979
  167SAPE    C218721   2.470   0.060   3.544  0.1359  0.1890 -0.3931
  167SAPE    HS18722   2.470   0.037   3.435 -1.8114  1.1836 -0.6467
  167SAPE   O2118723   2.336   0.040   3.592 -0.7075 -0.2005 -0.1823
  167SAPE   C2118724   2.281  -0.075   3.564  0.2896 -0.5602 -0.6980
  167SAPE   O2218725   2.321  -0.152   3.477 -0.1531 -0.2196 -0.2114
  167SAPE   C2218726   2.152  -0.085   3.642 -0.1581  0.3268  0.4685
  167SAPE   H2R18727   2.184  -0.093   3.749  2.9745  0.5847 -0.3348
  167SAPE   H2S18728   2.088   0.005   3.632 -0.9837 -0.2212  0.7565
  167SAPE    C318729   2.575  -0.034   3.603 -0.4179  0.4656 -0.5336
  167SAPE    HX18730   2.681  -0.009   3.585 -0.5128  1.3910  0.1228
  167SAPE    HY18731   2.558  -0.131   3.551 -0.3682  1.1566 -1.8654
  167SAPE   O3118732   2.548  -0.047   3.749  0.0543 -0.8071  0.2642
  167SAPE   C3118733   2.622   0.034   3.826  0.7251  0.8650  0.2573
  167SAPE   O3218734   2.704   0.116   3.785 -0.6607  0.0354 -0.3026
  167SAPE   C3218735   2.602   0.006   3.971  0.2456 -0.3463  0.5687
  167SAPE   H2X18736   2.663  -0.081   4.001  0.9439  0.2302  0.8344
  167SAPE   H2Y18737   2.493  -0.014   3.987  0.2686  0.3684  1.7115
  167SAPE   C2318738   2.071  -0.205   3.586  0.2163 -0.0220 -0.0724
  167SAPE   H3R18739   2.145  -0.287   3.574 -1.2334 -1.2198 -1.1985
  167SAPE   H3S18740   2.025  -0.179   3.488  0.7357  0.7182 -0.1206
  167SAPE   C2418741   1.958  -0.257   3.678  0.0455 -0.5621 -0.2371
  167SAPE   H4R18742   2.019  -0.259   3.771  0.3171 -0.6509 -0.4172
  167SAPE   H4S18743   1.918  -0.357   3.652  1.6493 -1.5191  0.8661
  167SAPE   C2518744   1.844  -0.154   3.694  0.1705  0.0994 -0.6622
  167SAPE   H5R18745   1.810  -0.110   3.599  0.2104  2.2911  0.2775
  167SAPE   C2618746   1.808  -0.097   3.809  1.1051  0.5871 -0.3070
  167SAPE   H6R18747   1.725  -0.025   3.817  1.1282  0.7051 -1.0542
  167SAPE   C2718748   1.860  -0.133   3.950  0.4660  0.1203  0.0258
  167SAPE   H7R18749   1.955  -0.078   3.961  0.4273  0.4265 -1.1252
  167SAPE   H7S18750   1.881  -0.242   3.941 -1.4067 -0.1122 -2.5366
  167SAPE   C2818751   1.764  -0.091   4.063  0.5222 -0.2833 -0.0952
  167SAPE   H8R18752   1.729   0.013   4.061 -1.1677 -0.8293 -0.5828
  167SAPE   C2918753   1.718  -0.169   4.164 -0.1057  0.5078 -0.1260
  167SAPE   H9R18754   1.646  -0.131   4.238  0.4736  0.5111  0.4448
  167SAPE  C21018755   1.749  -0.316   4.186 -0.2223 -0.2486  0.5668
  167SAPE  H10R18756   1.847  -0.317   4.237  0.4309 -0.3553 -0.6422
  167SAPE  H10S18757   1.770  -0.360   4.086  1.1372  0.7716  0.3818
  167SAPE  C21118758   1.640  -0.399   4.256  0.1543  0.1215 -0.7636
  167SAPE  H11R18759   1.565  -0.436   4.186 -0.1645  1.8584 -1.3892
  167SAPE  C21218760   1.634  -0.423   4.390 -0.0775  0.2376  0.1965
  167SAPE  H12R18761   1.553  -0.487   4.425  0.3783 -0.8188 -0.6399
  167SAPE  C21318762   1.739  -0.375   4.493 -0.1317  0.0988  0.0471
  167SAPE  H13R18763   1.836  -0.374   4.439 -0.1407 -0.1393  0.0257
  167SAPE  H13S18764   1.753  -0.452   4.573 -1.4497  2.7130  3.0095
  167SAPE  C21418765   1.726  -0.239   4.555 -0.0289  0.8863 -0.8419
  167SAPE  H14R18766   1.649  -0.176   4.508 -1.2955 -0.3758 -0.5282
  167SAPE  C21518767   1.799  -0.191   4.658  0.1706  0.8544  0.4182
  167SAPE  H15R18768   1.782  -0.085   4.678  1.9450  1.3029 -0.3086
  167SAPE  C21618769   1.918  -0.262   4.727 -0.2421  0.3248 -0.0482
  167SAPE  H16R18770   2.013  -0.211   4.701  1.1092 -2.1398 -0.2541
  167SAPE  H16S18771   1.939  -0.366   4.695 -0.4749  0.4842 -0.7278
  167SAPE  C21718772   1.903  -0.282   4.885  0.1159  0.0762  0.0534
  167SAPE  H17R18773   1.824  -0.354   4.917  0.2940  0.5436  1.6437
  167SAPE  H17S18774   1.867  -0.183   4.920  2.7786  0.3881  2.2285
  167SAPE  C21818775   2.025  -0.301   4.973 -0.6309  0.1147  0.0684
  167SAPE  H18R18776   2.107  -0.256   4.913 -1.9551  1.5000 -0.7959
  167SAPE  H18S18777   2.053  -0.408   4.985  0.2335  0.3678  0.4130
  167SAPE  C21918778   2.018  -0.240   5.112  0.3460 -0.0787  1.0049
  167SAPE  H19R18779   1.963  -0.144   5.104 -1.7499 -1.2560  0.3523
  167SAPE  H19S18780   2.126  -0.236   5.139 -0.4040  0.8368  4.3361
  167SAPE  C22018781   1.944  -0.331   5.208 -0.3214  0.6754 -1.0140
  167SAPE  H20R18782   1.948  -0.292   5.312  0.3581 -0.5699 -0.5604
  167SAPE  H20S18783   1.990  -0.431   5.220 -1.1098  0.4063 -0.0730
  167SAPE  H20T18784   1.837  -0.341   5.180 -0.2845 -1.6735 -0.5285
  167SAPE   C3318785   2.645   0.128   4.057  0.1552  0.5545 -0.1748
  167SAPE   H3X18786   2.580   0.219   4.048  1.3375  1.4201 -0.1924
  167SAPE   H3Y18787   2.749   0.160   4.036  0.0347  0.3891 -1.0832
  167SAPE   C3418788   2.641   0.083   4.207  0.0364 -0.6306  0.0792
  167SAPE   H4X18789   2.691  -0.016   4.208  1.6800  0.1610  0.8694
  167SAPE   H4Y18790   2.535   0.067   4.236  0.2806 -1.6913  0.4211
  167SAPE   C3518791   2.715   0.170   4.309 -0.2905  0.2661  0.4132
  167SAPE   H5X18792   2.681   0.275   4.302 -1.6140 -0.0323  1.8391
  167SAPE   H5Y18793   2.824   0.174   4.289 -0.2786  2.7760  0.6539
  167SAPE   C3618794   2.696   0.117   4.455 -0.4785  0.1002 -0.0249
  167SAPE   H6X18795   2.739   0.015   4.463  1.1664  0.6927 -0.8680
  167SAPE   H6Y18796   2.588   0.110   4.478 -0.8972  3.4696 -0.4345
  167SAPE   C3718797   2.778   0.209   4.554 -0.2539 -0.4120  0.8410
  167SAPE   H7X18798   2.751   0.316   4.546  2.9883  0.5820  1.6111
  167SAPE   H7Y18799   2.883   0.204   4.518 -0.3069  0.2300  0.5824
  167SAPE   C3818800   2.771   0.170   4.698  0.3626 -0.2545 -0.4382
  167SAPE   H8X18801   2.805   0.066   4.716 -2.0222 -1.2133 -1.1145
  167SAPE   H8Y18802   2.670   0.189   4.741  1.5907  0.0509  2.5643
  167SAPE   C3918803   2.867   0.259   4.779 -0.4000  0.6971  0.1051
  167SAPE   H9X18804   2.844   0.364   4.753  2.3517  0.5588 -3.6420
  167SAPE   H9Y18805   2.965   0.235   4.732 -0.0065  2.3587  0.0208
  167SAPE  C31018806   2.865   0.230   4.928 -0.3458  0.2601  0.2040
  167SAPE  H10X18807   2.895   0.126   4.955 -2.2177 -1.0446 -2.3309
  167SAPE  H10Y18808   2.759   0.219   4.961 -0.1255 -1.3214  0.4736
  167SAPE  C31118809   2.950   0.324   5.006 -0.1926  0.0745 -0.0512
  167SAPE  H11X18810   2.932   0.429   4.976  1.6528  0.6057  0.5467
  167SAPE  H11Y18811   3.057   0.310   4.978 -0.0878  0.7461  0.0128
  167SAPE  C31218812   2.928   0.309   5.164 -0.0943 -0.2802 -0.1165
  167SAPE  H12X18813   2.957   0.204   5.186  3.7072  0.3464 -1.3187
  167SAPE  H12Y18814   2.822   0.335   5.186  0.1841  1.2147 -0.4267
  167SAPE  C31318815   3.022   0.398   5.250 -0.5172 -0.2315 -0.5732
  167SAPE  H13X18816   2.999   0.506   5.238  0.3024 -0.0497 -0.5457
  167SAPE  H13Y18817   3.129   0.391   5.221 -0.8206  0.8108 -2.0637
  167SAPE  C31418818   3.009   0.360   5.394  0.9027  0.0583  0.6597
  167SAPE  H14X18819   3.033   0.252   5.399 -0.7636 -0.3697  0.0247
  167SAPE  H14Y18820   2.904   0.357   5.429  0.0674  1.8973 -1.3865
  167SAPE  C31518821   3.098   0.432   5.495 -0.3473 -0.4208 -0.4810
  167SAPE  H15X18822   3.059   0.535   5.509  0.4975 -0.1894  0.2365
  167SAPE  H15Y18823   3.195   0.428   5.440 -0.6263 -2.9428 -0.9142
  167SAPE  C31618824   3.116   0.367   5.633 -0.1765  0.6008 -0.0920
  167SAPE  H16X18825   3.013   0.363   5.676 -0.1446  2.3987  0.2323
  167SAPE  H16Y18826   3.177   0.436   5.696 -1.6012 -0.1622  2.2822
  167SAPE  C31718827   3.193   0.226   5.637  0.7965  0.1658 -0.6244
  167SAPE  H17X18828   3.136   0.144   5.590 -0.0656  0.8702 -0.8445
  167SAPE  H17Y18829   3.212   0.214   5.745 -1.5941  2.3991  0.1469
  167SAPE  C31818830   3.318   0.224   5.563 -0.1237  0.0598  0.5735
  167SAPE  H18X18831   3.309   0.223   5.453 -2.2578 -1.0063  0.7012
  167SAPE  H18Y18832   3.368   0.130   5.597 -0.2779  0.5212  2.1844
  167SAPE  H18Z18833   3.382   0.303   5.608 -0.1052  0.1523  0.3807
  168SAPE     N18834   6.374   3.843   3.015  0.6411  0.0590 -0.4534
  168SAPE   HN118835   6.275   3.867   2.994 -0.5098 -3.3853  0.3497
  168SAPE   HN218836   6.422   3.931   2.987 -0.8081  0.2742 -2.5198
  168SAPE   HN318837   6.393   3.765   2.949 -2.1005 -1.2698  0.1743
  168SAPE   C1218838   6.407   3.824   3.163 -0.2814 -0.9770 -0.2919
  168SAPE  H12A18839   6.411   3.918   3.222 -0.7279 -1.3727  0.3707
  168SAPE  H12B18840   6.511   3.783   3.168 -1.0565 -3.1111 -0.6311
  168SAPE   C1118841   6.299   3.734   3.228 -1.0552 -0.2791  0.2993
  168SAPE  H11A18842   6.306   3.731   3.338  1.4750  1.8100  0.2964
  168SAPE  H11B18843   6.324   3.629   3.201 -0.7586  0.1217 -1.1129
  168SAPE     P18844   6.031   3.739   3.235  0.1081 -0.1233 -0.1928
  168SAPE   O1318845   5.967   3.845   3.318  0.0054  0.6108 -0.1334
  168SAPE   O1418846   5.950   3.676   3.132  0.0513 -0.2477  0.4588
  168SAPE   O1218847   6.172   3.780   3.182 -0.2999 -0.2589  0.3389
  168SAPE   O1118848   6.071   3.626   3.337  0.3651  0.5581  0.1223
  168SAPE    C118849   6.021   3.639   3.472 -0.7981 -0.8327 -0.4238
  168SAPE    HA18850   5.917   3.677   3.478 -0.2352  0.8350 -0.6658
  168SAPE    HB18851   6.017   3.536   3.513  0.8502 -0.8660 -0.2860
  168SAPE    C218852   6.113   3.709   3.578 -0.3841  0.2819 -0.4287
  168SAPE    HS18853   6.141   3.811   3.544  1.3763 -0.1025 -0.2554
  168SAPE   O2118854   6.230   3.624   3.585 -0.4610  0.2871  0.1022
  168SAPE   C2118855   6.342   3.668   3.630 -0.1191  0.3340 -0.3626
  168SAPE   O2218856   6.374   3.788   3.639 -0.3108  0.4460 -0.5735
  168SAPE   C2218857   6.428   3.562   3.684  0.4735  0.4645 -0.2396
  168SAPE   H2R18858   6.361   3.481   3.720 -0.7299  1.4169 -0.2709
  168SAPE   H2S18859   6.495   3.532   3.600  2.0111  3.7826 -0.3779
  168SAPE    C318860   6.041   3.716   3.714 -0.2040 -0.1542  0.5394
  168SAPE    HX18861   5.989   3.619   3.733 -1.2900  0.2172 -0.4287
  168SAPE    HY18862   5.971   3.796   3.683 -0.2003 -1.3863 -3.0422
  168SAPE   O3118863   6.136   3.757   3.810 -0.2057 -0.3793  0.1470
  168SAPE   C3118864   6.102   3.784   3.928  0.2455  0.5152 -0.6902
  168SAPE   O3218865   5.989   3.758   3.974 -0.1941 -0.3799 -0.0714
  168SAPE   C3218866   6.208   3.851   4.009  0.0646 -0.0724 -0.5208
  168SAPE   H2X18867   6.233   3.947   3.960 -0.6211  0.0350 -0.6731
  168SAPE   H2Y18868   6.302   3.793   3.997 -1.4077 -2.1776 -2.8073
  168SAPE   C2318869   6.521   3.616   3.792  0.4894  0.4116  1.0442
  168SAPE   H3R18870   6.454   3.661   3.869 -1.2186 -0.0143 -0.1251
  168SAPE   H3S18871   6.589   3.690   3.745  0.1661 -0.0415 -0.1624
  168SAPE   C2418872   6.601   3.502   3.855  0.9111  0.0707 -0.6368
  168SAPE   H4R18873   6.647   3.442   3.774  2.6019  1.8780 -1.1195
  168SAPE   H4S18874   6.530   3.429   3.898 -1.0821  1.2219 -1.7835
  168SAPE   C2518875   6.707   3.553   3.956  0.6188  0.2592  0.8822
  168SAPE   H5R18876   6.774   3.624   3.905  1.7864 -0.8325  0.8288
  168SAPE   C2618877   6.715   3.543   4.090 -0.3469  0.5224  0.0462
  168SAPE   H6R18878   6.802   3.594   4.134 -0.2014 -0.8298  1.4174
  168SAPE   C2718879   6.615   3.474   4.177 -0.0918 -0.1598  0.7874
  168SAPE   H7R18880   6.665   3.413   4.255  0.7199 -0.3697  0.1128
  168SAPE   H7S18881   6.563   3.400   4.111 -1.2834  0.8359  0.5776
  168SAPE   C2818882   6.517   3.578   4.225 -0.2231  0.3207 -0.8988
  168SAPE   H8R18883   6.474   3.648   4.152  0.2037  0.2990 -1.1729
  168SAPE   C2918884   6.506   3.599   4.364 -0.3279  0.2169 -0.3790
  168SAPE   H9R18885   6.466   3.695   4.399  1.0629 -0.0679  2.2514
  168SAPE  C21018886   6.566   3.517   4.479  0.2124  0.4738  0.1287
  168SAPE  H10R18887   6.575   3.585   4.566  1.5025  1.3375 -0.6315
  168SAPE  H10S18888   6.668   3.481   4.453  0.5749  2.6933 -1.8604
  168SAPE  C21118889   6.472   3.402   4.505  1.0681 -0.1794 -0.0508
  168SAPE  H11R18890   6.462   3.322   4.431 -0.9523  0.3263 -0.3831
  168SAPE  C21218891   6.396   3.386   4.616  0.1204 -0.7460  0.3468
  168SAPE  H12R18892   6.335   3.295   4.629 -1.8565  0.4873  0.1072
  168SAPE  C21318893   6.403   3.475   4.736  0.1255 -0.3728  0.5589
  168SAPE  H13R18894   6.434   3.579   4.712  2.5785 -0.8123  1.4869
  168SAPE  H13S18895   6.486   3.443   4.803 -0.5914 -3.9979 -0.0466
  168SAPE  C21418896   6.283   3.471   4.823  0.2751 -0.5637 -0.5975
  168SAPE  H14R18897   6.214   3.557   4.820 -1.5545 -1.8065  1.8552
  168SAPE  C21518898   6.255   3.373   4.909  0.6564  0.1942  0.0597
  168SAPE  H15R18899   6.167   3.379   4.976  1.0014 -2.2817  0.8515
  168SAPE  C21618900   6.335   3.242   4.931 -0.1379  0.5558 -0.5827
  168SAPE  H16R18901   6.423   3.234   4.864  1.0004  0.4638  0.8571
  168SAPE  H16S18902   6.270   3.154   4.912  1.1941 -0.6121  0.0894
  168SAPE  C21718903   6.411   3.233   5.071 -0.3512  0.1863  0.0911
  168SAPE  H17R18904   6.343   3.254   5.156 -0.5206  0.9775 -0.2280
  168SAPE  H17S18905   6.483   3.317   5.064  0.3672 -0.4633 -0.5214
  168SAPE  C21818906   6.480   3.106   5.092 -0.3140 -0.2955 -0.5732
  168SAPE  H18R18907   6.552   3.084   5.010  0.7175  1.3449 -0.1607
  168SAPE  H18S18908   6.402   3.027   5.080 -1.8827  0.7440  2.0455
  168SAPE  C21918909   6.541   3.091   5.232  0.6946  0.8503  0.7813
  168SAPE  H19R18910   6.454   3.090   5.301  0.0781  1.8127  0.0369
  168SAPE  H19S18911   6.612   3.174   5.252  1.0059  1.0934 -1.1570
  168SAPE  C22018912   6.597   2.946   5.257 -0.3651  0.0234  0.6473
  168SAPE  H20R18913   6.648   2.938   5.355  1.4222  3.8023  0.2199
  168SAPE  H20S18914   6.662   2.907   5.176 -0.4008 -0.8163  1.0132
  168SAPE  H20T18915   6.503   2.887   5.261 -1.4799  1.7574  1.1231
  168SAPE   C3318916   6.183   3.872   4.164  0.2762 -0.1756  0.0564
  168SAPE   H3X18917   6.177   3.771   4.210 -0.6033  0.0550  0.4695
  168SAPE   H3Y18918   6.078   3.907   4.180  1.0237  2.6969 -0.6907
  168SAPE   C3418919   6.295   3.965   4.217 -0.4009  0.2235  0.0550
  168SAPE   H4X18920   6.318   4.059   4.162  0.0629 -0.7667 -1.5137
  168SAPE   H4Y18921   6.387   3.904   4.220 -0.2970  0.4012  0.5347
  168SAPE   C3518922   6.275   4.000   4.366  0.4820 -0.1783 -0.1675
  168SAPE   H5X18923   6.219   3.916   4.413 -0.1950  1.5025  2.2061
  168SAPE   H5Y18924   6.197   4.079   4.373 -0.1548 -0.8112  0.0205
  168SAPE   C3618925   6.403   4.057   4.428 -0.0429 -0.4354 -0.5095
  168SAPE   H6X18926   6.450   4.139   4.370  1.0158 -0.2194  0.6252
  168SAPE   H6Y18927   6.476   3.974   4.422 -1.2280 -1.8489  2.4144
  168SAPE   C3718928   6.402   4.105   4.565 -0.0376 -0.5162  0.2880
  168SAPE   H7X18929   6.316   4.175   4.570 -0.2739 -0.7887  0.0817
  168SAPE   H7Y18930   6.496   4.154   4.598 -0.0720 -0.9058  0.9789
  168SAPE   C3818931   6.375   3.984   4.657 -0.7181 -0.4600  0.1761
  168SAPE   H8X18932   6.457   3.910   4.642  0.7554  1.2751 -0.8578
  168SAPE   H8Y18933   6.289   3.929   4.614 -1.3886  1.6146 -1.2447
  168SAPE   C3918934   6.364   4.018   4.805  0.4543  0.6260  0.6134
  168SAPE   H9X18935   6.298   4.107   4.818  0.0503  0.6176 -1.1087
  168SAPE   H9Y18936   6.461   4.054   4.845  1.2772  0.7379 -1.3495
  168SAPE  C31018937   6.326   3.902   4.896  0.1110  0.3041 -0.9151
  168SAPE  H10X18938   6.403   3.824   4.880  1.1568  1.3524 -1.1725
  168SAPE  H10Y18939   6.229   3.861   4.862 -0.4305  1.3610 -0.6903
  168SAPE  C31118940   6.300   3.941   5.042 -0.6280 -0.0255 -0.4084
  168SAPE  H11X18941   6.391   3.995   5.076  0.5062 -1.0673 -1.6810
  168SAPE  H11Y18942   6.283   3.853   5.107  0.1988  0.6644  0.7827
  168SAPE  C31218943   6.172   4.029   5.063  0.0407 -0.1329 -0.5850
  168SAPE  H12X18944   6.083   3.963   5.057 -1.1597  1.5450 -2.3530
  168SAPE  H12Y18945   6.151   4.102   4.982  0.3916  0.8957  0.2416
  168SAPE  C31318946   6.180   4.100   5.200 -0.1006  0.8104  0.1966
  168SAPE  H13X18947   6.280   4.148   5.206 -0.0756  0.9089 -0.8249
  168SAPE  H13Y18948   6.163   4.025   5.280 -0.5176  0.0218 -0.6148
  168SAPE  C31418949   6.070   4.216   5.201 -1.1147 -0.1165 -0.4515
  168SAPE  H14X18950   5.976   4.157   5.200 -1.0024 -0.4064  1.8247
  168SAPE  H14Y18951   6.065   4.280   5.110  0.2119 -0.5910 -0.8867
  168SAPE  C31518952   6.078   4.304   5.325  0.9150 -0.7582 -0.5253
  168SAPE  H15X18953   6.172   4.361   5.312  0.9152  0.0809  2.4047
  168SAPE  H15Y18954   6.082   4.249   5.422 -1.4022 -0.8647 -0.4298
  168SAPE  C31618955   5.960   4.398   5.336 -0.1768 -0.0356  0.1776
  168SAPE  H16X18956   5.873   4.350   5.384 -1.5216  0.3278 -1.7815
  168SAPE  H16Y18957   5.923   4.413   5.232 -0.8819 -3.1204 -0.0949
  168SAPE  C31718958   5.990   4.517   5.425 -0.6103  0.3033  0.3409
  168SAPE  H17X18959   6.063   4.587   5.379  0.0285  0.8326  2.0866
  168SAPE  H17Y18960   6.036   4.483   5.520 -0.2640 -0.5108 -0.1016
  168SAPE  C31818961   5.867   4.593   5.469 -0.1107  0.1013 -0.1276
  168SAPE  H18X18962   5.894   4.668   5.547 -0.3159 -1.1304  1.1578
  168SAPE  H18Y18963   5.791   4.522   5.507  1.3927 -1.3047  0.3726
  168SAPE  H18Z18964   5.824   4.648   5.383  0.6955  0.2045 -0.4817
  169SAPE     N18965   5.118   4.750   2.761  0.2090  0.3057 -0.4084
  169SAPE   HN118966   5.019   4.780   2.770  0.0012 -0.5874  0.5859
  169SAPE   HN218967   5.162   4.794   2.678  0.9912  2.5176  1.0843
  169SAPE   HN318968   5.103   4.650   2.736  1.0794  0.8440 -3.5866
  169SAPE   C1218969   5.199   4.766   2.887  0.1006 -0.0387 -0.7935
  169SAPE  H12A18970   5.224   4.872   2.906  2.4306 -0.6284 -0.3063
  169SAPE  H12B18971   5.300   4.721   2.881  0.8601  1.4904  0.1055
  169SAPE   C1118972   5.131   4.703   3.012  0.1334 -0.6946  0.4947
  169SAPE  H11A18973   5.037   4.760   3.029  1.5293  1.9546 -0.0092
  169SAPE  H11B18974   5.199   4.722   3.098  0.0001  1.3687  0.1961
  169SAPE     P18975   5.201   4.450   3.033  0.1805 -0.2510 -0.4792
  169SAPE   O1318976   5.141   4.321   2.998  0.7956 -0.1400  0.5034
  169SAPE   O1418977   5.337   4.475   2.976  0.3491  0.0668  0.0091
  169SAPE   O1218978   5.100   4.565   2.993  0.0180 -0.3594  0.7464
  169SAPE   O1118979   5.203   4.450   3.196  0.1889  0.2574  0.3450
  169SAPE    C118980   5.081   4.469   3.274 -0.6473  0.1657 -0.2709
  169SAPE    HA18981   4.992   4.467   3.207  0.0935  0.0080 -1.2819
  169SAPE    HB18982   5.064   4.387   3.347  0.0841 -0.0018 -0.2737
  169SAPE    C218983   5.078   4.605   3.352 -0.9776  0.1395 -0.3395
  169SAPE    HS18984   5.131   4.684   3.294  1.7072 -0.1015  1.6356
  169SAPE   O2118985   5.151   4.580   3.479 -0.7754  0.1075  0.5768
  169SAPE   C2118986   5.192   4.695   3.540  0.3103  0.0774 -1.0104
  169SAPE   O2218987   5.182   4.802   3.483 -0.3676 -0.1213 -0.4255
  169SAPE   C2218988   5.237   4.675   3.687 -1.0307 -0.2981 -0.1634
  169SAPE   H2R18989   5.151   4.647   3.751 -0.2590  0.6929  1.3631
  169SAPE   H2S18990   5.290   4.578   3.697 -0.0907  0.1320 -0.8190
  169SAPE    C318991   4.936   4.659   3.374 -0.7056  0.0627 -0.2056
  169SAPE    HX18992   4.893   4.676   3.273  2.2646  0.6294 -1.4960
  169SAPE    HY18993   4.931   4.750   3.437  1.4571 -0.3457  0.6487
  169SAPE   O3118994   4.854   4.558   3.445 -0.1882  0.2793 -0.0133
  169SAPE   C3118995   4.866   4.559   3.576  0.3511 -0.3875 -0.3480
  169SAPE   O3218996   4.907   4.655   3.641  0.2091  0.4398  0.0539
  169SAPE   C3218997   4.802   4.432   3.636 -0.2991 -0.1767 -1.1240
  169SAPE   H2X18998   4.814   4.346   3.567  0.3818 -1.1044  0.1111
  169SAPE   H2Y18999   4.693   4.455   3.642 -0.0026  1.1676 -0.4044
  169SAPE   C2319000   5.325   4.789   3.753  0.3639 -0.6968 -0.1860
  169SAPE   H3R19001   5.258   4.877   3.756  0.1983 -0.6849 -2.3020
  169SAPE   H3S19002   5.397   4.812   3.671 -0.8013 -1.4984 -1.4721
  169SAPE   C2419003   5.380   4.741   3.888 -0.0431 -0.5062  0.6238
  169SAPE   H4R19004   5.443   4.818   3.939  0.1867  0.2241 -0.7186
  169SAPE   H4S19005   5.455   4.662   3.866  0.0446 -0.0355 -0.8722
  169SAPE   C2519006   5.280   4.685   3.992  0.1037 -0.1482 -0.6583
  169SAPE   H5R19007   5.295   4.580   4.019 -0.3134  0.3629  1.7542
  169SAPE   C2619008   5.172   4.754   4.039 -0.9797  0.9710 -0.2967
  169SAPE   H6R19009   5.096   4.703   4.100 -0.6566 -1.2255 -1.5768
  169SAPE   C2719010   5.136   4.898   4.010  0.1349 -0.5750 -0.2438
  169SAPE   H7R19011   5.061   4.887   3.928  1.5221 -0.3165 -1.5839
  169SAPE   H7S19012   5.212   4.956   3.953 -2.1032  2.5788 -0.2670
  169SAPE   C2819013   5.107   4.980   4.133 -0.1452  1.0104  0.7608
  169SAPE   H8R19014   4.999   4.991   4.153 -1.1544  1.7187 -3.9443
  169SAPE   C2919015   5.195   5.029   4.217  0.0991  0.1120  0.0701
  169SAPE   H9R19016   5.154   5.085   4.302 -2.2871 -0.7097 -0.4561
  169SAPE  C21019017   5.340   5.011   4.198 -1.0782  0.7144 -0.7096
  169SAPE  H10R19018   5.376   4.937   4.124  0.1303 -1.8681  2.2511
  169SAPE  H10S19019   5.380   4.957   4.286 -1.7399  0.0476 -0.8113
  169SAPE  C21119020   5.417   5.146   4.184  0.7313  0.0845  0.6612
  169SAPE  H11R19021   5.412   5.178   4.079 -3.0797  1.3846  1.0670
  169SAPE  C21219022   5.461   5.220   4.284 -0.1389 -0.1760 -0.8491
  169SAPE  H12R19023   5.524   5.307   4.262 -0.8371  0.2401 -1.2465
  169SAPE  C21319024   5.454   5.185   4.434 -0.2223 -1.0419  0.0523
  169SAPE  H13R19025   5.383   5.101   4.451  0.0306 -1.1602  0.5356
  169SAPE  H13S19026   5.410   5.273   4.485  2.0336 -0.3222  0.8706
  169SAPE  C21419027   5.582   5.159   4.506  0.2014  0.5743  0.4184
  169SAPE  H14R19028   5.663   5.230   4.483 -0.6548  1.6597  0.6706
  169SAPE  C21519029   5.616   5.066   4.603  0.3162 -0.0098 -0.1561
  169SAPE  H15R19030   5.715   5.071   4.650 -0.4577 -1.2777  1.7075
  169SAPE  C21619031   5.526   4.967   4.679  0.0439 -0.2691  0.6648
  169SAPE  H16R19032   5.418   4.980   4.658 -0.5145 -0.4212  3.1328
  169SAPE  H16S19033   5.537   4.977   4.789  1.0295  0.3776  0.5262
  169SAPE  C21719034   5.564   4.822   4.646 -0.5893 -0.4838 -0.7394
  169SAPE  H17R19035   5.664   4.790   4.681 -1.0390 -0.9377  0.1375
  169SAPE  H17S19036   5.554   4.814   4.535 -2.1254 -2.0705 -0.5288
  169SAPE  C21819037   5.459   4.738   4.723 -0.0630  0.1078 -0.7343
  169SAPE  H18R19038   5.357   4.780   4.719 -0.8535 -1.7942 -1.7902
  169SAPE  H18S19039   5.486   4.728   4.830 -2.1968  0.5513 -0.1113
  169SAPE  C21919040   5.443   4.595   4.657  0.2912 -0.2398  0.4426
  169SAPE  H19R19041   5.542   4.547   4.663 -0.0378 -0.9732  0.1179
  169SAPE  H19S19042   5.434   4.612   4.548 -0.8766 -2.1882  0.1935
  169SAPE  C22019043   5.320   4.505   4.691  0.3298  0.0788  0.1740
  169SAPE  H20R19044   5.307   4.419   4.623 -1.4683 -0.6024  1.3109
  169SAPE  H20S19045   5.229   4.569   4.686  2.0257  2.6607  0.6201
  169SAPE  H20T19046   5.328   4.448   4.786  1.8607  0.2971  0.2010
  169SAPE   C3319047   4.865   4.395   3.776  0.0069 -0.6801 -0.3029
  169SAPE   H3X19048   4.974   4.412   3.758 -0.1326  1.3226  0.4792
  169SAPE   H3Y19049   4.832   4.290   3.793  3.5636 -1.9014  0.1170
  169SAPE   C3419050   4.823   4.475   3.903 -0.8948 -0.2690  0.6064
  169SAPE   H4X19051   4.713   4.457   3.913 -1.2661 -1.0996 -3.2173
  169SAPE   H4Y19052   4.833   4.585   3.891  1.1171 -0.4199  0.5893
  169SAPE   C3519053   4.903   4.434   4.028  0.0080  0.2894 -0.5181
  169SAPE   H5X19054   5.002   4.478   4.006 -0.1403  0.6789 -0.4191
  169SAPE   H5Y19055   4.915   4.324   4.027 -0.8042  0.1936 -0.5039
  169SAPE   C3619056   4.844   4.482   4.161 -0.1015 -0.0739  0.3909
  169SAPE   H6X19057   4.745   4.433   4.165 -1.0517  1.0723 -4.0153
  169SAPE   H6Y19058   4.827   4.592   4.153  0.2937  0.1375  2.0317
  169SAPE   C3719059   4.940   4.450   4.279  0.8699 -0.5950  0.4868
  169SAPE   H7X19060   5.042   4.493   4.264  1.0943 -1.0747  0.6115
  169SAPE   H7Y19061   4.960   4.341   4.283  1.9203 -0.4036  1.0252
  169SAPE   C3819062   4.886   4.504   4.411 -0.2467  0.3951 -0.3833
  169SAPE   H8X19063   4.940   4.470   4.502 -0.1821  1.1395 -0.1392
  169SAPE   H8Y19064   4.777   4.485   4.414 -0.6960  2.6579 -0.9231
  169SAPE   C3919065   4.910   4.662   4.413 -0.4362 -0.2572  0.6051
  169SAPE   H9X19066   4.846   4.712   4.338 -0.2041  2.0740  1.8785
  169SAPE   H9Y19067   5.010   4.702   4.387 -0.4002  1.3396  2.8518
  169SAPE  C31019068   4.865   4.723   4.544  0.7849 -0.2031  0.7699
  169SAPE  H10X19069   4.775   4.677   4.590  1.0247 -1.8739 -0.3319
  169SAPE  H10Y19070   4.828   4.821   4.507  1.7890  0.2591  0.9554
  169SAPE  C31119071   4.981   4.756   4.639  0.0794 -0.4129 -0.4466
  169SAPE  H11X19072   5.062   4.800   4.578  0.4427 -0.2075  0.1761
  169SAPE  H11Y19073   5.010   4.659   4.684 -2.9899 -1.2518 -0.0318
  169SAPE  C31219074   4.942   4.847   4.755  0.4952 -0.4433  0.0413
  169SAPE  H12X19075   4.871   4.797   4.824  0.8149  0.0173  0.7244
  169SAPE  H12Y19076   4.892   4.935   4.710 -1.9819 -1.4817  0.6227
  169SAPE  C31319077   5.070   4.891   4.840 -0.0903  0.0292  0.1887
  169SAPE  H13X19078   5.040   4.980   4.898  1.2585  0.4713  0.2408
  169SAPE  H13Y19079   5.138   4.926   4.759 -0.2761  0.2108  0.1114
  169SAPE  C31419080   5.144   4.778   4.917 -0.3328  0.2613 -0.6226
  169SAPE  H14X19081   5.162   4.702   4.839 -3.7290  0.6851 -1.9931
  169SAPE  H14Y19082   5.083   4.722   4.991  1.6955 -1.0180  0.1311
  169SAPE  C31519083   5.260   4.834   4.997 -1.1731  0.0737  0.2551
  169SAPE  H15X19084   5.228   4.910   5.070 -2.1415 -1.0915  1.0867
  169SAPE  H15Y19085   5.320   4.874   4.912 -1.0097  0.1567  0.4084
  169SAPE  C31619086   5.344   4.734   5.070  0.0413  0.5706 -0.5090
  169SAPE  H16X19087   5.376   4.657   4.997  1.6240 -0.1884  0.8964
  169SAPE  H16Y19088   5.295   4.680   5.154  0.7711 -0.0517 -0.4677
  169SAPE  C31719089   5.477   4.789   5.131 -0.1597  0.4849 -0.1251
  169SAPE  H17X19090   5.535   4.842   5.053  1.8394  0.6452  1.3774
  169SAPE  H17Y19091   5.542   4.711   5.178 -0.1919  1.0834  0.9605
  169SAPE  C31819092   5.451   4.895   5.241  1.0672  0.0072  0.2154
  169SAPE  H18X19093   5.543   4.954   5.263 -0.2000  2.2325 -0.1424
  169SAPE  H18Y19094   5.408   4.848   5.331 -0.8464 -0.8936 -1.1225
  169SAPE  H18Z19095   5.366   4.962   5.217  0.4214 -0.2028  1.7762
  170SAPE     N19096   2.360   2.459   2.815  0.4723  0.0973  0.2055
  170SAPE   HN119097   2.294   2.405   2.875 -1.0691 -0.7335 -2.0897
  170SAPE   HN219098   2.343   2.561   2.830  2.9378  0.8374 -1.3800
  170SAPE   HN319099   2.347   2.460   2.712  0.8242  2.4341  0.1199
  170SAPE   C1219100   2.500   2.415   2.851 -0.5794  0.1406  0.0654
  170SAPE  H12A19101   2.520   2.422   2.961 -0.3408 -0.6145  0.0697
  170SAPE  H12B19102   2.563   2.498   2.812  2.6627 -1.4263  1.5492
  170SAPE   C1119103   2.525   2.267   2.799 -0.8539 -0.4623  0.6598
  170SAPE  H11A19104   2.626   2.243   2.839  0.6679  1.7061 -1.5926
  170SAPE  H11B19105   2.523   2.268   2.688 -3.0365  5.1781  0.4109
  170SAPE     P19106   2.444   2.097   2.977  0.2705 -0.0236 -0.1192
  170SAPE   O1319107   2.328   2.007   2.978  0.0074  0.7197 -0.0130
  170SAPE   O1419108   2.579   2.037   2.971 -0.1614  0.1476  0.2509
  170SAPE   O1219109   2.427   2.180   2.846  0.1435  0.2154  0.0480
  170SAPE   O1119110   2.433   2.212   3.083  0.0395 -0.3553  0.3022
  170SAPE    C119111   2.397   2.181   3.222 -0.5779 -0.1154 -0.1564
  170SAPE    HA19112   2.296   2.134   3.224 -2.0266  2.6770 -1.3002
  170SAPE    HB19113   2.473   2.110   3.260 -0.8639 -0.5989 -0.4790
  170SAPE    C219114   2.398   2.308   3.314  0.1268  0.5275  0.1678
  170SAPE    HS19115   2.340   2.383   3.257 -0.7995 -1.7288 -2.0175
  170SAPE   O2119116   2.533   2.343   3.346  0.5122 -0.0729 -0.0036
  170SAPE   C2119117   2.558   2.466   3.380 -0.6097  0.2718 -0.2807
  170SAPE   O2219118   2.482   2.558   3.363 -0.5782 -0.2126 -0.0404
  170SAPE   C2219119   2.706   2.485   3.431  0.2704 -0.1503 -0.0853
  170SAPE   H2R19120   2.758   2.395   3.392 -0.4379 -0.3453 -0.6017
  170SAPE   H2S19121   2.751   2.570   3.375 -1.0615 -0.7810 -2.2471
  170SAPE    C319122   2.314   2.275   3.452  0.7665 -0.1986  0.7056
  170SAPE    HX19123   2.359   2.179   3.484 -0.7133 -1.3565 -0.5236
  170SAPE    HY19124   2.210   2.241   3.433  0.8577 -0.6689  1.0389
  170SAPE   O3119125   2.326   2.382   3.547  0.4307  0.5539 -0.5241
  170SAPE   C3119126   2.254   2.486   3.510 -0.3452 -0.1544 -0.1781
  170SAPE   O3219127   2.188   2.498   3.408  0.1746  0.5740  0.3022
  170SAPE   C3219128   2.262   2.599   3.620  0.5155 -0.6854  0.7207
  170SAPE   H2X19129   2.177   2.667   3.597  0.8687 -0.6565 -0.5887
  170SAPE   H2Y19130   2.358   2.653   3.604 -0.5789  1.6070  1.3819
  170SAPE   C2319131   2.726   2.494   3.581 -0.2112  0.3499  0.0506
  170SAPE   H3R19132   2.826   2.458   3.615 -0.8798 -1.8421 -0.1507
  170SAPE   H3S19133   2.663   2.420   3.634 -0.7851  3.1647  3.7112
  170SAPE   C2419134   2.716   2.637   3.646 -0.2367 -0.1771  0.3323
  170SAPE   H4R19135   2.728   2.620   3.755  0.7209 -4.1926 -0.2368
  170SAPE   H4S19136   2.625   2.695   3.619  0.3974  1.1357  0.8810
  170SAPE   C2519137   2.828   2.720   3.595  0.4371  0.0377  0.6654
  170SAPE   H5R19138   2.867   2.701   3.494 -1.4347 -0.1708 -0.0658
  170SAPE   C2619139   2.876   2.821   3.662  0.2309 -0.1233  0.0793
  170SAPE   H6R19140   2.956   2.879   3.613  0.8588 -0.1558  1.0184
  170SAPE   C2719141   2.831   2.866   3.798 -0.0374  0.6828 -0.4607
  170SAPE   H7R19142   2.730   2.823   3.818  0.5404 -0.6077 -0.2211
  170SAPE   H7S19143   2.829   2.977   3.805 -0.1757  0.5568  2.7807
  170SAPE   C2819144   2.905   2.818   3.921 -0.0347 -0.0054 -0.0344
  170SAPE   H8R19145   2.890   2.709   3.928 -0.2383 -0.2120 -2.5365
  170SAPE   C2919146   2.979   2.891   4.001  0.5223 -0.0127  0.0485
  170SAPE   H9R19147   3.020   2.844   4.092  0.7452  2.5139  1.3554
  170SAPE  C21019148   2.992   3.037   4.008  0.2541  0.1181  0.2365
  170SAPE  H10R19149   2.974   3.071   4.112  1.3100 -0.2481  0.5423
  170SAPE  H10S19150   2.908   3.088   3.956  1.6602  1.0216 -1.2398
  170SAPE  C21119151   3.116   3.106   3.967 -0.3190  0.2202  0.0578
  170SAPE  H11R19152   3.107   3.133   3.861 -1.8787  1.6063  0.5008
  170SAPE  C21219153   3.223   3.135   4.040 -0.7180 -0.0274 -0.0191
  170SAPE  H12R19154   3.301   3.191   3.987 -0.4276 -0.3094  0.1099
  170SAPE  C21319155   3.241   3.106   4.187 -0.5637  0.5378 -0.6795
  170SAPE  H13R19156   3.308   3.018   4.200  0.3422  0.9406 -2.3999
  170SAPE  H13S19157   3.141   3.076   4.225 -0.5031  0.0821 -0.8791
  170SAPE  C21419158   3.281   3.232   4.253 -0.1453 -0.1084 -0.7289
  170SAPE  H14R19159   3.263   3.321   4.190  0.9121  0.4757 -0.2413
  170SAPE  C21519160   3.324   3.250   4.380  0.5921  0.1345  0.5447
  170SAPE  H15R19161   3.345   3.351   4.417  0.3951  0.2355  0.3846
  170SAPE  C21619162   3.332   3.151   4.491  0.0628  0.2231 -0.4808
  170SAPE  H16R19163   3.431   3.149   4.541 -1.2590 -2.4730  2.3308
  170SAPE  H16S19164   3.300   3.052   4.453  0.1326  0.2783 -0.6814
  170SAPE  C21719165   3.239   3.177   4.614 -0.2650 -0.3385 -0.1865
  170SAPE  H17R19166   3.215   3.081   4.664 -3.3221  0.3833 -0.0751
  170SAPE  H17S19167   3.148   3.213   4.562  1.3369 -0.6190 -3.4621
  170SAPE  C21819168   3.296   3.290   4.711  0.1694  0.7548  0.2149
  170SAPE  H18R19169   3.292   3.382   4.648 -0.0207  0.6350  0.0480
  170SAPE  H18S19170   3.404   3.277   4.733  0.1091  1.7636  1.1702
  170SAPE  C21919171   3.238   3.301   4.849  0.4268 -0.3175 -0.1959
  170SAPE  H19R19172   3.300   3.374   4.905  1.0148 -1.9100  1.3295
  170SAPE  H19S19173   3.248   3.201   4.896 -0.4728 -1.6848 -2.7561
  170SAPE  C22019174   3.086   3.340   4.857  0.2715  0.3201  1.0517
  170SAPE  H20R19175   3.072   3.421   4.782 -1.8705 -0.7611  0.2255
  170SAPE  H20S19176   3.069   3.368   4.963 -1.0713  1.8839  0.4599
  170SAPE  H20T19177   3.018   3.254   4.838 -0.9944  1.4719  0.1988
  170SAPE   C3319178   2.252   2.545   3.768  0.4124 -0.0570  0.7106
  170SAPE   H3X19179   2.322   2.460   3.786 -1.0200 -1.3452  0.4888
  170SAPE   H3Y19180   2.149   2.504   3.784 -0.7718  1.6757 -1.7428
  170SAPE   C3419181   2.284   2.658   3.863 -0.0201 -0.1163  0.4942
  170SAPE   H4X19182   2.212   2.740   3.840 -2.5367 -2.3515 -0.1590
  170SAPE   H4Y19183   2.390   2.684   3.842 -0.3862 -1.1007 -3.3105
  170SAPE   C3519184   2.264   2.603   4.011 -0.1543  0.2657  0.6896
  170SAPE   H5X19185   2.302   2.499   4.009 -2.8950 -0.8130 -0.3783
  170SAPE   H5Y19186   2.157   2.594   4.040 -0.1735 -1.7044  0.1412
  170SAPE   C3619187   2.319   2.701   4.115 -0.3041 -0.1640  0.1207
  170SAPE   H6X19188   2.274   2.801   4.094 -0.4711 -0.2311  0.1532
  170SAPE   H6Y19189   2.429   2.709   4.104  0.1531 -1.6618  2.7802
  170SAPE   C3719190   2.287   2.668   4.259 -0.0230 -0.0534  0.1560
  170SAPE   H7X19191   2.353   2.588   4.299 -0.4137  0.1595  1.2723
  170SAPE   H7Y19192   2.181   2.634   4.265  0.0009 -0.4102 -1.1745
  170SAPE   C3819193   2.320   2.793   4.349  0.2644  0.3199 -0.5776
  170SAPE   H8X19194   2.258   2.885   4.341 -0.6917 -0.4089 -1.9420
  170SAPE   H8Y19195   2.418   2.833   4.315  1.3615  0.0379  1.9934
  170SAPE   C3919196   2.333   2.749   4.494 -0.4428 -0.2570 -0.2988
  170SAPE   H9X19197   2.406   2.665   4.489  0.2518  0.3275 -0.3240
  170SAPE   H9Y19198   2.236   2.710   4.532  1.0352 -3.4147  0.5855
  170SAPE  C31019199   2.381   2.870   4.576 -0.4871 -0.2755  0.2206
  170SAPE  H10X19200   2.300   2.922   4.631  0.8651 -0.3885  2.4390
  170SAPE  H10Y19201   2.443   2.936   4.511  1.0988 -0.5987  1.3649
  170SAPE  C31119202   2.478   2.838   4.695 -0.2507  0.0389 -0.1520
  170SAPE  H11X19203   2.560   2.773   4.659 -0.3663 -0.2917  0.1748
  170SAPE  H11Y19204   2.414   2.786   4.770 -2.3341 -0.4950 -2.1992
  170SAPE  C31219205   2.536   2.969   4.753  0.0384 -0.2351 -0.0616
  170SAPE  H12X19206   2.468   3.047   4.792 -0.5371  0.7466 -2.7578
  170SAPE  H12Y19207   2.605   3.019   4.680 -0.2061  0.4670  0.1768
  170SAPE  C31319208   2.621   2.936   4.873  0.1156 -0.5125 -0.1922
  170SAPE  H13X19209   2.696   2.857   4.851  0.1948 -0.8539  1.2384
  170SAPE  H13Y19210   2.547   2.897   4.946 -1.3711  1.3178 -0.6519
  170SAPE  C31419211   2.699   3.056   4.924  0.4429 -0.0642  0.0070
  170SAPE  H14X19212   2.621   3.127   4.961  1.8441  0.3634  2.3161
  170SAPE  H14Y19213   2.763   3.101   4.845 -0.6397  1.9940  0.2383
  170SAPE  C31519214   2.792   3.013   5.040  0.1066 -0.7289  0.1590
  170SAPE  H15X19215   2.875   2.954   4.995 -0.3190 -0.3318 -1.1737
  170SAPE  H15Y19216   2.734   2.950   5.112  0.0556 -0.3191  0.4765
  170SAPE  C31619217   2.842   3.131   5.127 -0.1724 -0.3835  0.1543
  170SAPE  H16X19218   2.753   3.186   5.164 -1.6425 -0.0213 -3.5823
  170SAPE  H16Y19219   2.883   3.216   5.069 -2.3180 -0.7545 -2.0431
  170SAPE  C31719220   2.934   3.094   5.243  0.5150 -0.2467 -0.1901
  170SAPE  H17X19221   3.023   3.034   5.213 -1.3104 -2.1361 -2.1735
  170SAPE  H17Y19222   2.871   3.035   5.313  2.4749 -0.0349  1.8910
  170SAPE  C31819223   2.969   3.221   5.323 -0.8743  1.2009 -0.9457
  170SAPE  H18X19224   2.884   3.282   5.359 -1.8390  0.4723 -1.9367
  170SAPE  H18Y19225   3.036   3.279   5.256  0.1718  0.4780 -0.5519
  170SAPE  H18Z19226   3.031   3.185   5.408  1.4467 -1.9115 -3.6932
  171SAPE     N19227   1.545   1.432   3.467 -0.1206 -0.1884  0.2077
  171SAPE   HN119228   1.601   1.446   3.380 -0.2307 -0.2059  0.1344
  171SAPE   HN219229   1.571   1.345   3.516  2.1249 -0.4645 -1.3396
  171SAPE   HN319230   1.446   1.415   3.440 -0.0345  0.6133 -0.6717
  171SAPE   C1219231   1.543   1.555   3.552  0.7820 -0.5251  0.7158
  171SAPE  H12A19232   1.451   1.545   3.612 -0.1539 -0.2039 -0.6081
  171SAPE  H12B19233   1.545   1.649   3.493 -0.0580  0.1937  1.8144
  171SAPE   C1119234   1.671   1.549   3.642  0.7177 -0.1623  0.1449
  171SAPE  H11A19235   1.668   1.464   3.712 -0.1516 -0.2650 -0.0048
  171SAPE  H11B19236   1.671   1.647   3.694 -1.6229  0.7689 -1.3967
  171SAPE     P19237   1.888   1.412   3.551  0.2634 -0.1221 -0.2600
  171SAPE   O1319238   1.828   1.284   3.595 -0.7805 -0.2694 -0.6189
  171SAPE   O1419239   1.955   1.414   3.418 -0.4869  0.1941 -0.3304
  171SAPE   O1219240   1.785   1.538   3.558  0.3638 -0.5016  0.1858
  171SAPE   O1119241   1.992   1.451   3.660 -0.2805  0.4939  0.4242
  171SAPE    C119242   1.969   1.418   3.795 -0.4591 -0.1702 -0.6891
  171SAPE    HA19243   1.862   1.432   3.819 -0.7331  1.3253 -2.5023
  171SAPE    HB19244   2.005   1.314   3.813  1.3191  0.3785 -0.9191
  171SAPE    C219245   2.041   1.508   3.890 -1.0312 -0.5895 -0.2201
  171SAPE    HS19246   2.150   1.496   3.873 -0.5702  2.1927  0.1863
  171SAPE   O2119247   2.002   1.483   4.025  0.4448  0.0601  0.5086
  171SAPE   C2119248   2.074   1.399   4.088  0.3536  1.3129  1.4934
  171SAPE   O2219249   2.177   1.345   4.050  0.4326 -0.5288  0.7860
  171SAPE   C2219250   2.015   1.363   4.221 -0.0257  0.2321  0.2289
  171SAPE   H2R19251   1.947   1.448   4.244  0.3805  1.2816 -2.1320
  171SAPE   H2S19252   1.949   1.274   4.218 -2.5135  1.9248  0.9525
  171SAPE    C319253   2.014   1.658   3.859  0.4199 -0.4382 -0.4786
  171SAPE    HX19254   1.908   1.675   3.889  0.9912 -1.2875  2.3872
  171SAPE    HY19255   2.028   1.692   3.755 -2.0399  1.9986 -0.1267
  171SAPE   O3119256   2.101   1.734   3.949  0.2800 -0.2740 -0.2278
  171SAPE   C3119257   2.219   1.779   3.899  0.9181 -0.1100 -0.6914
  171SAPE   O3219258   2.266   1.755   3.793 -0.3658  0.7080  0.2083
  171SAPE   C3219259   2.289   1.866   4.000  0.1284 -0.6098 -0.0497
  171SAPE   H2X19260   2.225   1.886   4.089 -0.8195 -1.8615 -0.4234
  171SAPE   H2Y19261   2.290   1.965   3.950  0.9317 -0.3776  0.3992
  171SAPE   C2319262   2.120   1.344   4.332 -0.2085  0.1435 -0.6442
  171SAPE   H3R19263   2.189   1.429   4.349 -0.4750  0.1634  0.3985
  171SAPE   H3S19264   2.181   1.255   4.306 -0.1137 -0.1192  0.4250
  171SAPE   C2419265   2.044   1.322   4.470 -0.0779 -0.2025  0.2871
  171SAPE   H4R19266   1.975   1.237   4.449 -1.2005  1.2679 -2.4335
  171SAPE   H4S19267   1.981   1.410   4.494  0.4797 -0.2675  2.1235
  171SAPE   C2519268   2.134   1.290   4.585 -0.4321  0.7214 -0.5670
  171SAPE   H5R19269   2.183   1.194   4.563 -0.1395  1.1530 -1.9465
  171SAPE   C2619270   2.146   1.360   4.703  0.0207 -0.4200  0.1371
  171SAPE   H6R19271   2.215   1.322   4.781  0.9375  1.0873  0.0964
  171SAPE   C2719272   2.072   1.487   4.743 -0.8438 -0.8770 -0.5092
  171SAPE   H7R19273   1.971   1.471   4.787 -1.4297  1.4687 -0.8560
  171SAPE   H7S19274   2.045   1.548   4.654 -1.9117  2.2207  1.7569
  171SAPE   C2819275   2.162   1.585   4.829 -0.1160  0.4282 -0.0157
  171SAPE   H8R19276   2.220   1.653   4.765  2.3837 -2.1213 -0.6061
  171SAPE   C2919277   2.163   1.592   4.958  1.1092 -0.7014 -0.2026
  171SAPE   H9R19278   2.237   1.659   5.004  0.7677 -0.3941 -0.0928
  171SAPE  C21019279   2.091   1.494   5.050 -0.3076  0.2761  0.0083
  171SAPE  H10R19280   2.168   1.417   5.072 -2.2686 -1.4471  1.2207
  171SAPE  H10S19281   2.011   1.431   5.005 -0.0571  0.6541 -0.9867
  171SAPE  C21119282   2.039   1.570   5.172 -0.0565 -0.3637 -0.4870
  171SAPE  H11R19283   1.960   1.642   5.148  0.5371  0.1987 -0.7865
  171SAPE  C21219284   2.077   1.554   5.302 -0.0003 -0.2000  0.3590
  171SAPE  H12R19285   2.028   1.621   5.374 -0.3813  2.2436 -1.9972
  171SAPE  C21319286   2.186   1.459   5.342 -0.0567  0.3913 -0.5235
  171SAPE  H13R19287   2.211   1.474   5.449 -1.8735  0.0502 -0.0134
  171SAPE  H13S19288   2.279   1.481   5.286  2.0421 -2.4966  1.5614
  171SAPE  C21419289   2.166   1.308   5.336  0.0534 -0.1400 -0.7339
  171SAPE  H14R19290   2.068   1.283   5.293 -1.4695  0.1691  2.2653
  171SAPE  C21519291   2.252   1.218   5.386 -1.0960  0.3780  0.4884
  171SAPE  H15R19292   2.221   1.114   5.368 -0.1017  0.0942  0.3151
  171SAPE  C21619293   2.389   1.247   5.437 -0.0986 -0.1622 -0.2003
  171SAPE  H16R19294   2.387   1.268   5.546 -2.0044 -0.7172 -0.1031
  171SAPE  H16S19295   2.433   1.339   5.391  0.5444 -0.4023 -0.0794
  171SAPE  C21719296   2.476   1.126   5.410  0.3914 -0.3884  0.4452
  171SAPE  H17R19297   2.471   1.091   5.305  1.5918 -0.9382  0.5463
  171SAPE  H17S19298   2.430   1.041   5.464 -0.2531 -1.7425 -2.1062
  171SAPE  C21819299   2.622   1.142   5.451  0.2249  0.0402 -0.4379
  171SAPE  H18R19300   2.623   1.139   5.562 -0.4081  0.3774 -0.4195
  171SAPE  H18S19301   2.668   1.236   5.414 -1.1981  1.1652  0.5671
  171SAPE  C21919302   2.711   1.030   5.399 -0.4184 -0.8326  0.1626
  171SAPE  H19R19303   2.705   1.017   5.289 -0.6393 -1.6311  0.2628
  171SAPE  H19S19304   2.686   0.928   5.434 -2.3492 -0.9990 -1.5224
  171SAPE  C22019305   2.856   1.060   5.422  0.5679  0.1988 -0.3864
  171SAPE  H20R19306   2.931   1.004   5.362 -0.8328  0.5352 -2.5741
  171SAPE  H20S19307   2.871   1.046   5.531 -0.1932 -0.6574 -0.3796
  171SAPE  H20T19308   2.877   1.167   5.399  2.8545  0.0783  0.8573
  171SAPE   C3319309   2.438   1.819   4.022 -0.1973 -0.0490  0.4083
  171SAPE   H3X19310   2.498   1.897   4.072 -1.0937 -1.1732  3.4389
  171SAPE   H3Y19311   2.484   1.791   3.925 -1.1410 -1.7103  0.3984
  171SAPE   C3419312   2.448   1.709   4.120  0.4528  0.8620 -0.3675
  171SAPE   H4X19313   2.386   1.628   4.078  0.4483  1.0077 -0.6421
  171SAPE   H4Y19314   2.399   1.742   4.215  0.4079 -3.1239  1.1771
  171SAPE   C3519315   2.584   1.644   4.139 -0.7470  0.2722  0.3624
  171SAPE   H5X19316   2.666   1.709   4.174  1.7382 -1.4208 -1.9473
  171SAPE   H5Y19317   2.624   1.621   4.038  2.4488  0.2122  1.5479
  171SAPE   C3619318   2.566   1.510   4.218  0.4492 -0.1088  0.9168
  171SAPE   H6X19319   2.634   1.433   4.177  1.1412  1.1765 -0.4680
  171SAPE   H6Y19320   2.464   1.473   4.195  0.4008  0.8456 -0.5137
  171SAPE   C3719321   2.575   1.527   4.372 -0.2354  0.0602  1.0702
  171SAPE   H7X19322   2.487   1.584   4.410  1.0235  1.6274  1.7308
  171SAPE   H7Y19323   2.663   1.589   4.396  0.2281 -0.0413 -0.2892
  171SAPE   C3819324   2.598   1.399   4.448 -0.3088 -0.7292  0.3159
  171SAPE   H8X19325   2.698   1.363   4.414  0.1428  0.5043  0.2763
  171SAPE   H8Y19326   2.531   1.319   4.411 -0.5866  0.1453 -1.1601
  171SAPE   C3919327   2.602   1.419   4.602  0.7627 -0.2947  0.4370
  171SAPE   H9X19328   2.653   1.330   4.645  0.4185 -0.0299  1.4399
  171SAPE   H9Y19329   2.501   1.440   4.642 -0.5208 -3.1417 -1.0505
  171SAPE  C31019330   2.693   1.530   4.665  0.3019 -0.0378  0.5866
  171SAPE  H10X19331   2.652   1.625   4.623 -0.8652 -1.7798 -2.5538
  171SAPE  H10Y19332   2.799   1.508   4.643 -0.2344 -0.9191 -1.3152
  171SAPE  C31119333   2.670   1.544   4.816  0.0549 -0.1980  0.1814
  171SAPE  H11X19334   2.755   1.600   4.858  0.0845  0.1951 -0.3937
  171SAPE  H11Y19335   2.682   1.447   4.868  1.9560  0.0722  0.2911
  171SAPE  C31219336   2.536   1.613   4.865 -1.0208 -0.6748 -0.2949
  171SAPE  H12X19337   2.461   1.532   4.877 -0.9220 -0.7825 -0.4014
  171SAPE  H12Y19338   2.502   1.688   4.790  0.8240  0.2298 -0.2780
  171SAPE  C31319339   2.540   1.694   4.997 -0.3815 -0.0096 -0.2421
  171SAPE  H13X19340   2.455   1.765   4.996 -1.3421 -1.1298 -0.4153
  171SAPE  H13Y19341   2.634   1.753   5.010 -0.1515  0.0506 -1.9525
  171SAPE  C31419342   2.533   1.594   5.119 -0.1010 -0.6537  0.5323
  171SAPE  H14X19343   2.626   1.534   5.111 -0.6207 -1.5580  1.1025
  171SAPE  H14Y19344   2.453   1.518   5.107  0.0655 -1.0819  1.9155
  171SAPE  C31519345   2.540   1.668   5.253  0.3748 -0.1843  1.1767
  171SAPE  H15X19346   2.636   1.723   5.248 -0.7619  2.0548  2.2897
  171SAPE  H15Y19347   2.542   1.599   5.341  1.9602 -2.9888 -0.9009
  171SAPE  C31619348   2.415   1.760   5.277  1.0083 -0.2448  0.1383
  171SAPE  H16X19349   2.320   1.704   5.262 -0.2287  1.8561 -0.2897
  171SAPE  H16Y19350   2.409   1.833   5.194  0.2220 -0.5416 -0.0768
  171SAPE  C31719351   2.419   1.827   5.414 -0.1360 -0.0900 -0.0323
  171SAPE  H17X19352   2.513   1.883   5.429 -0.7991  0.7642  0.9950
  171SAPE  H17Y19353   2.443   1.754   5.494  2.7489 -0.2574 -0.9226
  171SAPE  C31819354   2.305   1.932   5.436  0.1555  0.2050 -0.2976
  171SAPE  H18X19355   2.305   2.000   5.348 -1.5328  1.7691  0.8407
  171SAPE  H18Y19356   2.319   1.995   5.526 -2.9177  1.9852 -0.8977
  171SAPE  H18Z19357   2.204   1.885   5.442  0.7441 -1.0822 -0.2696
  172SAPE     N19358   3.327   3.603   3.342 -0.2043 -0.7566  0.0468
  172SAPE   HN119359   3.234   3.602   3.296  0.2048  0.1506 -0.8401
  172SAPE   HN219360   3.292   3.641   3.432  0.4274  2.0198 -0.7638
  172SAPE   HN319361   3.388   3.671   3.292 -1.4859 -0.3789 -1.0539
  172SAPE   C1219362   3.409   3.475   3.366 -0.5914  0.0811  0.5818
  172SAPE  H12A19363   3.345   3.398   3.413 -0.4982  1.5310  3.2980
  172SAPE  H12B19364   3.487   3.502   3.441  0.0316  0.6690 -0.2586
  172SAPE   C1119365   3.462   3.429   3.226 -0.0904 -0.2091  0.3025
  172SAPE  H11A19366   3.526   3.341   3.243  3.1014  1.2547 -2.8095
  172SAPE  H11B19367   3.526   3.514   3.192  0.8828 -1.6036 -1.4977
  172SAPE     P19368   3.304   3.259   3.107  0.0558 -0.0533 -0.1529
  172SAPE   O1319369   3.181   3.280   3.032  0.6801  0.0029  0.6631
  172SAPE   O1419370   3.408   3.180   3.048 -0.2464  0.0165  0.4844
  172SAPE   O1219371   3.357   3.403   3.133 -0.2507 -0.6828 -0.3942
  172SAPE   O1119372   3.272   3.200   3.245  0.3063 -0.3101 -0.4474
  172SAPE    C119373   3.287   3.061   3.270 -0.2630 -0.6159 -0.0380
  172SAPE    HA19374   3.360   2.998   3.214  1.0828  0.5927  0.3148
  172SAPE    HB19375   3.296   3.039   3.379  0.6182 -3.3786 -0.5765
  172SAPE    C219376   3.151   2.991   3.235  0.3138  0.8305 -0.5672
  172SAPE    HS19377   3.130   2.994   3.126 -0.3967  1.1109 -0.4268
  172SAPE   O2119378   3.048   3.064   3.304  0.0310  0.5481 -0.1249
  172SAPE   C2119379   2.924   3.036   3.274  0.2433  0.2504  0.0358
  172SAPE   O2219380   2.887   2.954   3.195 -0.6526  0.5412  0.5742
  172SAPE   C2219381   2.843   3.129   3.353 -0.2535  0.3599 -0.4275
  172SAPE   H2R19382   2.882   3.131   3.457 -1.0968  1.0520 -0.1196
  172SAPE   H2S19383   2.845   3.234   3.317 -1.8514  0.3142 -0.7048
  172SAPE    C319384   3.145   2.833   3.276  0.0001 -1.0989 -0.2706
  172SAPE    HX19385   3.224   2.784   3.214  0.6136  1.3094 -1.4992
  172SAPE    HY19386   3.043   2.796   3.250 -0.3990 -1.2783  1.4291
  172SAPE   O3119387   3.177   2.814   3.422 -0.5315  0.3226  0.4631
  172SAPE   C3119388   3.180   2.679   3.458  0.5823 -0.0168  0.0479
  172SAPE   O3219389   3.159   2.588   3.385  1.1040  0.0864  0.0472
  172SAPE   C3219390   3.212   2.663   3.607 -0.6256  0.7906  0.0938
  172SAPE   H2X19391   3.199   2.755   3.668  1.4965  1.4078 -0.3098
  172SAPE   H2Y19392   3.322   2.655   3.601 -0.7334  0.3339 -1.8680
  172SAPE   C2319393   2.695   3.078   3.376 -0.4792 -0.7296  0.2200
  172SAPE   H3R19394   2.706   2.973   3.410 -2.0022 -1.5232 -1.5639
  172SAPE   H3S19395   2.643   3.077   3.278 -2.9910 -0.3760  1.4709
  172SAPE   C2419396   2.622   3.160   3.483  0.0592 -0.3608 -0.0434
  172SAPE   H4R19397   2.514   3.144   3.465  0.6464 -5.0966 -0.5354
  172SAPE   H4S19398   2.643   3.267   3.458 -1.0218  0.6638  3.0105
  172SAPE   C2519399   2.654   3.125   3.622 -0.1236  0.2331  0.0812
  172SAPE   H5R19400   2.746   3.064   3.631 -1.4268 -1.7829  0.4779
  172SAPE   C2619401   2.579   3.134   3.735 -0.1491 -0.1322 -0.5808
  172SAPE   H6R19402   2.617   3.105   3.834 -3.9898  0.0301  1.1579
  172SAPE   C2719403   2.447   3.198   3.751 -0.3599 -0.1231 -0.5560
  172SAPE   H7R19404   2.386   3.226   3.662 -2.4207 -1.4882  0.3716
  172SAPE   H7S19405   2.469   3.290   3.809 -0.0403 -0.6590  0.1752
  172SAPE   C2819406   2.349   3.109   3.831 -0.6386  0.9878 -0.4622
  172SAPE   H8R19407   2.288   3.043   3.769 -2.7072  3.4695 -1.2229
  172SAPE   C2919408   2.340   3.110   3.972 -0.4211 -0.6177  0.4875
  172SAPE   H9R19409   2.280   3.031   4.019  0.1197 -1.3960 -0.1043
  172SAPE  C21019410   2.420   3.212   4.057  0.1127 -0.1980  0.1978
  172SAPE  H10R19411   2.373   3.312   4.051  0.4392 -0.1230 -1.7041
  172SAPE  H10S19412   2.521   3.221   4.011  0.4250  1.0979  1.0734
  172SAPE  C21119413   2.428   3.168   4.203  0.3215 -1.2808 -0.0874
  172SAPE  H11R19414   2.340   3.190   4.266 -0.5691 -0.1728 -1.6385
  172SAPE  C21219415   2.523   3.089   4.257 -0.1915 -0.5379  0.0364
  172SAPE  H12R19416   2.514   3.083   4.367  0.0636  0.8627  0.1499
  172SAPE  C21319417   2.643   3.031   4.193 -0.5736 -0.0911 -1.8618
  172SAPE  H13R19418   2.662   3.075   4.093  2.5322 -0.1981 -1.4002
  172SAPE  H13S19419   2.615   2.930   4.154 -0.8083 -0.1299 -1.5955
  172SAPE  C21419420   2.765   3.033   4.280 -0.0451  0.3942 -0.2551
  172SAPE  H14R19421   2.818   3.129   4.280  0.8653 -0.0959  0.6378
  172SAPE  C21519422   2.807   2.934   4.365  0.5968 -0.9981 -0.0284
  172SAPE  H15R19423   2.899   2.938   4.426  0.1247  0.6926  0.6245
  172SAPE  C21619424   2.732   2.803   4.373 -0.2588 -0.0381 -0.1185
  172SAPE  H16R19425   2.622   2.810   4.361 -0.1449 -2.2393 -3.8176
  172SAPE  H16S19426   2.760   2.753   4.468  1.6086 -1.8055 -1.5020
  172SAPE  C21719427   2.771   2.715   4.259 -0.1013  0.1089 -0.5750
  172SAPE  H17R19428   2.879   2.691   4.254 -0.0308  0.2576  0.1329
  172SAPE  H17S19429   2.738   2.767   4.167  1.0069  0.6794 -0.6657
  172SAPE  C21819430   2.704   2.577   4.258 -0.0482 -0.7031  0.6582
  172SAPE  H18R19431   2.598   2.605   4.242  0.5337  1.4097  0.1282
  172SAPE  H18S19432   2.705   2.527   4.357 -2.2151 -1.7660  0.1970
  172SAPE  C21919433   2.764   2.491   4.151 -0.8931 -0.2253 -1.0941
  172SAPE  H19R19434   2.866   2.456   4.178 -0.8453 -1.7831 -3.0220
  172SAPE  H19S19435   2.770   2.542   4.052 -0.7608 -0.3846 -1.1682
  172SAPE  C22019436   2.677   2.373   4.136 -0.2944  0.4574  0.2071
  172SAPE  H20R19437   2.721   2.315   4.052 -0.9448 -0.0226  0.1915
  172SAPE  H20S19438   2.584   2.407   4.085  0.2557  0.3050 -0.9399
  172SAPE  H20T19439   2.670   2.310   4.227  2.8017  1.9501  1.6328
  172SAPE   C3319440   3.140   2.541   3.678  0.4490 -0.4769 -0.2138
  172SAPE   H3X19441   3.163   2.444   3.629 -1.1418 -0.0670 -1.8736
  172SAPE   H3Y19442   3.031   2.558   3.669  0.0921 -2.2288  0.3488
  172SAPE   C3419443   3.172   2.540   3.826 -0.2677 -0.6343 -0.3918
  172SAPE   H4X19444   3.087   2.604   3.859  0.4477  2.7510 -4.3064
  172SAPE   H4Y19445   3.269   2.593   3.832  0.5036 -2.0004 -0.5505
  172SAPE   C3519446   3.175   2.393   3.884 -0.3263 -0.0998 -0.6147
  172SAPE   H5X19447   3.254   2.336   3.831 -0.7234 -1.8586  0.5703
  172SAPE   H5Y19448   3.077   2.342   3.874  0.1570 -1.0635 -0.6315
  172SAPE   C3619449   3.209   2.375   4.032 -0.1585 -0.7810 -0.6650
  172SAPE   H6X19450   3.145   2.443   4.092 -0.3303  1.3139 -3.0472
  172SAPE   H6Y19451   3.315   2.399   4.054 -0.8253  0.2187  1.8226
  172SAPE   C3719452   3.199   2.229   4.077  0.5174 -0.1471  0.0036
  172SAPE   H7X19453   3.248   2.158   4.007 -1.0252  0.2053 -1.4836
  172SAPE   H7Y19454   3.094   2.196   4.072 -0.3494  2.3001  0.6324
  172SAPE   C3819455   3.239   2.208   4.223 -0.1623  0.4852 -0.1016
  172SAPE   H8X19456   3.346   2.240   4.221  0.0234 -0.1191  0.0396
  172SAPE   H8Y19457   3.256   2.100   4.243  2.2662  1.2590  2.6051
  172SAPE   C3919458   3.166   2.267   4.344  0.5449 -0.3151 -0.3171
  172SAPE   H9X19459   3.062   2.237   4.369  0.2753  1.7854  1.3068
  172SAPE   H9Y19460   3.155   2.376   4.324  1.3987  0.0140  0.8639
  172SAPE  C31019461   3.251   2.250   4.467 -0.6321  0.1187  0.6437
  172SAPE  H10X19462   3.337   2.318   4.445 -2.3956  1.4972 -2.7633
  172SAPE  H10Y19463   3.276   2.142   4.464  3.0424  0.7655  2.1324
  172SAPE  C31119464   3.185   2.292   4.593  0.2935  0.2054 -0.8319
  172SAPE  H11X19465   3.106   2.218   4.618  0.2751  0.2465 -0.7675
  172SAPE  H11Y19466   3.145   2.395   4.579 -1.3017  0.1336  2.3959
  172SAPE  C31219467   3.290   2.301   4.713 -0.0810 -0.0099  0.3409
  172SAPE  H12X19468   3.379   2.353   4.672 -0.2003  0.2758  0.4447
  172SAPE  H12Y19469   3.310   2.201   4.756 -0.6516 -1.2200 -2.0656
  172SAPE  C31319470   3.233   2.387   4.829 -0.3615 -0.2988  0.3723
  172SAPE  H13X19471   3.217   2.492   4.796  1.2126  0.5749  2.2110
  172SAPE  H13Y19472   3.319   2.387   4.899  0.3570  3.8315 -0.2719
  172SAPE  C31419473   3.112   2.326   4.895 -0.8109  0.4854 -0.4145
  172SAPE  H14X19474   3.124   2.222   4.934 -1.7655  0.8773  1.0229
  172SAPE  H14Y19475   3.029   2.326   4.821 -0.8253  0.4424 -0.3984
  172SAPE  C31519476   3.049   2.414   5.012 -0.4926  0.5563  0.1202
  172SAPE  H15X19477   2.941   2.407   5.037 -0.2811  3.0401  2.2294
  172SAPE  H15Y19478   3.065   2.522   4.987  2.4166  1.1646  3.7984
  172SAPE  C31619479   3.130   2.408   5.148  0.1718  0.7092  0.5976
  172SAPE  H16X19480   3.237   2.433   5.132  0.4518 -0.3430  0.7888
  172SAPE  H16Y19481   3.137   2.300   5.171  1.1223  0.0527 -2.2656
  172SAPE  C31719482   3.072   2.492   5.258 -0.3118  0.5195 -1.0041
  172SAPE  H17X19483   2.966   2.460   5.263  0.0911 -0.9229 -1.1348
  172SAPE  H17Y19484   3.071   2.602   5.244 -0.1628  0.3669 -2.2852
  172SAPE  C31819485   3.128   2.450   5.398  0.1048 -0.7004 -0.3568
  172SAPE  H18X19486   3.100   2.519   5.481 -0.1674  0.9058 -1.7367
  172SAPE  H18Y19487   3.237   2.429   5.399  0.2485  0.0066 -0.8128
  172SAPE  H18Z19488   3.071   2.357   5.419  0.2520 -0.8482 -0.6220
  173SLPC     N19489   4.305   6.604   7.775  0.3042 -0.0874 -0.4725
  173SLPC   C1319490   4.417   6.701   7.804  0.1769  0.1743 -0.2770
  173SLPC  H13A19491   4.400   6.802   7.772 -2.5538  0.3044  1.2476
  173SLPC  H13B19492   4.431   6.708   7.911  1.0305  2.0089 -0.4767
  173SLPC  H13C19493   4.511   6.664   7.765 -0.1762  0.8396 -1.8206
  173SLPC   C1419494   4.185   6.662   7.836 -0.3133  0.0983  0.1632
  173SLPC  H14A19495   4.154   6.758   7.798  0.3415  1.1541  2.1604
  173SLPC  H14B19496   4.103   6.592   7.848  1.3734 -1.9556  0.3469
  173SLPC  H14C19497   4.208   6.680   7.940  2.5040 -2.6191  0.1510
  173SLPC   C1519498   4.348   6.471   7.825 -0.3630  0.0521 -0.2198
  173SLPC  H15A19499   4.381   6.484   7.927  1.6194 -1.4614 -0.5988
  173SLPC  H15B19500   4.268   6.398   7.827  1.1116 -1.7007 -1.3607
  173SLPC  H15C19501   4.431   6.435   7.766 -0.2927 -1.9060  0.9928
  173SLPC   C1219502   4.287   6.590   7.621  0.6873  0.1956  0.3648
  173SLPC  H12A19503   4.373   6.572   7.559  1.0743  0.8631  0.6916
  173SLPC  H12B19504   4.250   6.686   7.587  0.2054  0.3073  1.1747
  173SLPC   C1119505   4.191   6.483   7.575 -0.6868 -0.7037  0.0746
  173SLPC  H11A19506   4.178   6.499   7.466  0.1613  4.3140  0.4644
  173SLPC  H11B19507   4.092   6.495   7.623  0.0406 -1.1844  1.7675
  173SLPC     P19508   4.363   6.287   7.515  0.6202  0.1107  0.7108
  173SLPC   O1319509   4.451   6.384   7.443  0.0680 -0.3784  0.3457
  173SLPC   O1419510   4.434   6.192   7.603 -0.3804  0.0942  0.0341
  173SLPC   O1219511   4.247   6.358   7.598 -0.4600  0.4957 -0.0613
  173SLPC   O1119512   4.274   6.189   7.420 -0.5110 -0.2617  0.3020
  173SLPC    C119513   4.346   6.100   7.341 -0.4148  0.4855  0.1906
  173SLPC    HA19514   4.455   6.120   7.333 -0.2047 -0.8323 -0.5249
  173SLPC    HB19515   4.329   5.999   7.383 -2.1521  1.0731  0.9935
  173SLPC    C219516   4.309   6.104   7.191  0.1587  0.1950  0.3400
  173SLPC    HS19517   4.366   6.025   7.138  0.5539  0.4363  0.3982
  173SLPC   O2119518   4.324   6.238   7.144  0.0113 -0.2441  0.1796
  173SLPC   C2119519   4.443   6.265   7.101 -0.3771  0.5223 -0.0529
  173SLPC   O2219520   4.537   6.188   7.102 -0.1824 -0.1989  0.7800
  173SLPC   C2219521   4.452   6.401   7.031  0.0625 -0.8538  0.5144
  173SLPC   H2R19522   4.397   6.474   7.095 -1.3204 -0.3648 -1.1687
  173SLPC   H2S19523   4.558   6.434   7.022 -0.5617  1.0232 -0.5754
  173SLPC    C319524   4.163   6.071   7.162  0.6504 -0.2912  0.4280
  173SLPC    HX19525   4.103   6.158   7.197  1.6928  0.5665  0.1384
  173SLPC    HY19526   4.152   5.981   7.226 -0.5396  0.8371  1.8757
  173SLPC   O3119527   4.126   6.045   7.023  0.2452  0.8291  0.6466
  173SLPC   C3119528   4.049   6.136   6.955  0.0611  0.0778 -0.0084
  173SLPC   O3219529   3.999   6.238   7.003  0.1598  0.0646  0.1545
  173SLPC   C3219530   4.069   6.104   6.812  0.2257  0.1610  0.7476
  173SLPC   H2X19531   4.056   5.997   6.786  2.3543  0.1876 -0.6832
  173SLPC   H2Y19532   4.180   6.111   6.809  0.5354 -1.0398  4.3316
  173SLPC   C2319533   4.405   6.403   6.886  0.2132 -0.0417  0.1358
  173SLPC   H3R19534   4.300   6.367   6.892  0.2009  0.1341  1.1770
  173SLPC   H3S19535   4.474   6.339   6.827  0.7185 -0.5401  1.2544
  173SLPC   C2419536   4.392   6.541   6.831  0.3413 -0.6553  0.0976
  173SLPC   H4R19537   4.488   6.596   6.818 -0.1711  0.1352 -0.4613
  173SLPC   H4S19538   4.344   6.621   6.891 -0.4001  0.0068 -1.3026
  173SLPC   C2519539   4.316   6.540   6.701 -0.5783  0.1042  0.1269
  173SLPC   H5R19540   4.253   6.629   6.677  1.1685  0.9896 -1.4216
  173SLPC   H5S19541   4.247   6.454   6.701  0.8609 -1.1040 -1.0594
  173SLPC   C2619542   4.393   6.514   6.569  0.7786  0.2978 -0.1914
  173SLPC   H6R19543   4.452   6.419   6.571  0.2484 -0.0453 -0.5024
  173SLPC   H6S19544   4.470   6.593   6.562  0.5300  0.9175  2.8935
  173SLPC   C2719545   4.308   6.511   6.439  0.2527 -0.3423 -0.4599
  173SLPC   H7R19546   4.257   6.610   6.430  1.4624  0.4994  1.3177
  173SLPC   H7S19547   4.227   6.436   6.436  2.5129 -2.9247 -0.2384
  173SLPC   C2819548   4.398   6.491   6.317 -0.0020  0.4309 -0.5069
  173SLPC   H8R19549   4.434   6.386   6.314 -0.5382  0.2515 -0.8493
  173SLPC   H8S19550   4.488   6.553   6.338  0.0440  0.5169 -0.9295
  173SLPC   C2919551   4.337   6.525   6.180  0.1864  0.6177  0.9813
  173SLPC   H9R19552   4.228   6.539   6.177  0.1262  0.1761 -1.3746
  173SLPC  C21019553   4.400   6.526   6.060 -0.1207 -0.1852 -0.1069
  173SLPC  H10R19554   4.350   6.576   5.976  0.0500 -0.8324 -0.6086
  173SLPC  C21119555   4.552   6.508   6.033  1.0203  0.4777 -0.6676
  173SLPC  H11R19556   4.609   6.494   6.128 -2.0203  0.9731  1.3600
  173SLPC  H11S19557   4.583   6.609   6.000  0.0264  1.4782  1.2662
  173SLPC  C21219558   4.583   6.394   5.935  0.3585 -0.7339 -0.4164
  173SLPC  H12R19559   4.551   6.292   5.961 -0.2257 -1.1118 -2.4964
  173SLPC  C21319560   4.649   6.413   5.819 -0.2548 -0.6886 -0.9715
  173SLPC  H13R19561   4.660   6.327   5.751 -1.7518  0.4239 -2.7178
  173SLPC  C21419562   4.715   6.543   5.769  0.2567  0.3744  0.1312
  173SLPC  H14R19563   4.800   6.521   5.702  0.1390 -0.2478  0.1781
  173SLPC  H14S19564   4.762   6.585   5.861 -1.7115 -1.6152  2.1706
  173SLPC  C21519565   4.625   6.636   5.684 -0.2665  0.6919 -0.2695
  173SLPC  H15R19566   4.676   6.723   5.636  2.0774 -1.4468 -1.8900
  173SLPC  H15S19567   4.543   6.669   5.752 -1.4536 -0.3060 -1.1839
  173SLPC  C21619568   4.554   6.566   5.558  0.2871  0.9247  0.1688
  173SLPC  H16R19569   4.454   6.613   5.554 -0.1883 -0.1229 -1.0395
  173SLPC  H16S19570   4.538   6.456   5.558 -0.0298  0.9502 -1.0006
  173SLPC  C21719571   4.641   6.592   5.433  0.3029  0.9417  0.0832
  173SLPC  H17R19572   4.739   6.541   5.446  1.5376  2.7571 -1.5629
  173SLPC  H17S19573   4.655   6.702   5.422  2.3832  0.8265  1.1082
  173SLPC  C21819574   4.577   6.537   5.310  0.2132 -0.2278  0.5705
  173SLPC  H18R19575   4.570   6.426   5.305 -2.7663 -0.0824 -0.3502
  173SLPC  H18S19576   4.633   6.573   5.221 -2.8396  1.4870 -0.8117
  173SLPC  H18T19577   4.475   6.579   5.307  1.1662  2.3267  1.4710
  173SLPC   C3319578   4.004   6.195   6.710 -0.3399 -0.1165 -0.5914
  173SLPC   H3X19579   4.000   6.300   6.748 -2.9038 -0.1247 -0.6739
  173SLPC   H3Y19580   3.896   6.178   6.696 -0.6170  0.7642  0.3460
  173SLPC   C3419581   4.071   6.199   6.565 -0.0829 -0.3382 -0.5377
  173SLPC   H4X19582   4.177   6.228   6.583 -0.5215  0.1402  1.4857
  173SLPC   H4Y19583   4.024   6.275   6.500 -1.2779 -0.8246 -0.2697
  173SLPC   C3519584   4.047   6.069   6.488  0.1720  0.0239  0.3584
  173SLPC   H5X19585   3.938   6.044   6.492  0.4014 -0.8227  1.8037
  173SLPC   H5Y19586   4.101   5.988   6.540  0.5681  0.6602  0.9504
  173SLPC   C3619587   4.083   6.077   6.342 -0.3146 -0.4985 -0.3038
  173SLPC   H6X19588   4.079   5.973   6.302 -0.3322 -0.8236  0.5147
  173SLPC   H6Y19589   4.183   6.122   6.323  0.5112 -1.2648  1.8986
  173SLPC   C3719590   3.980   6.151   6.257  0.9524 -1.8611 -0.0953
  173SLPC   H7X19591   3.981   6.258   6.289  0.6516 -2.0850  0.7144
  173SLPC   H7Y19592   3.876   6.122   6.285 -0.6298  1.0724 -2.3488
  173SLPC   C3819593   4.002   6.137   6.104  0.5870 -0.3399 -0.0941
  173SLPC   H8X19594   3.906   6.151   6.051 -0.1811  0.1211  1.3570
  173SLPC   H8Y19595   4.036   6.033   6.083  1.2613 -0.0231 -0.6125
  173SLPC   C3919596   4.108   6.233   6.047  0.9415  0.4650 -0.2912
  173SLPC   H9X19597   4.196   6.208   6.109 -0.4271 -1.4776  0.9913
  173SLPC   H9Y19598   4.084   6.340   6.065  1.7364  0.8154 -1.2144
  173SLPC  C31019599   4.134   6.198   5.903 -0.4489 -0.4664  0.3697
  173SLPC  H10X19600   4.040   6.187   5.846  0.3486  0.0245 -1.0933
  173SLPC  H10Y19601   4.191   6.103   5.892  0.3797  0.0565  0.0861
  173SLPC  C31119602   4.212   6.316   5.836  0.9017  0.2535  0.5204
  173SLPC  H11X19603   4.310   6.330   5.886  0.1296 -1.6770  2.7180
  173SLPC  H11Y19604   4.155   6.411   5.844 -1.9220 -1.3023  0.1260
  173SLPC  C31219605   4.255   6.310   5.684  0.5861 -0.3830 -0.3573
  173SLPC  H12X19606   4.320   6.394   5.652  0.1395 -0.3479 -1.2095
  173SLPC  H12Y19607   4.164   6.325   5.621 -0.5466  1.2351  1.5593
  173SLPC  C31319608   4.327   6.180   5.663  0.0153  0.0633 -0.5904
  173SLPC  H13X19609   4.254   6.096   5.668 -0.6205  0.6854  1.9744
  173SLPC  H13Y19610   4.395   6.165   5.749 -2.3918  2.0365  1.7991
  173SLPC  C31419611   4.405   6.167   5.526 -0.5919 -0.6777 -0.4510
  173SLPC  H14X19612   4.483   6.245   5.518 -1.5304  0.3438  0.1756
  173SLPC  H14Y19613   4.324   6.187   5.451  0.4488  0.3518 -1.3398
  173SLPC  C31519614   4.480   6.035   5.509  0.0735 -0.2876  0.2654
  173SLPC  H15X19615   4.410   5.959   5.549  0.0545 -0.3218  0.1668
  173SLPC  H15Y19616   4.569   6.042   5.575  0.6303 -0.8610 -0.4098
  173SLPC  C31619617   4.533   6.028   5.366 -0.2849 -0.5024 -0.8641
  173SLPC  H16X19618   4.582   5.928   5.367 -0.2466 -0.5568  2.2665
  173SLPC  H16Y19619   4.605   6.113   5.368 -1.3064  0.3955  1.2232
  173SLPC  C31719620   4.436   6.045   5.254  0.1122  0.0423 -0.3243
  173SLPC  H17X19621   4.483   6.031   5.155  1.1673 -1.8049  0.3908
  173SLPC  H17Y19622   4.393   6.147   5.260  2.7237  1.1414  1.9828
  173SLPC  C31819623   4.322   5.939   5.275  0.0456 -0.5649  0.1609
  173SLPC  H18X19624   4.365   5.838   5.290  1.5627  0.0794  0.4138
  173SLPC  H18Y19625   4.251   5.939   5.189  2.2297 -0.5761 -1.7545
  173SLPC  H18Z19626   4.269   5.958   5.370  0.0307 -2.2435  0.5126
  174SLPC     N19627   6.577   4.904   7.355  0.0680  0.2980 -0.1812
  174SLPC   C1319628   6.555   4.803   7.464 -0.5469 -0.2238 -0.2631
  174SLPC  H13A19629   6.458   4.810   7.510 -0.6690 -0.3589 -0.5010
  174SLPC  H13B19630   6.569   4.701   7.430 -2.5380 -0.1015 -1.5782
  174SLPC  H13C19631   6.616   4.821   7.552  1.1749  0.2591 -1.4841
  174SLPC   C1419632   6.478   5.020   7.379  1.2121 -0.5782 -0.1158
  174SLPC  H14A19633   6.486   5.100   7.307 -0.9495  0.5461  0.7988
  174SLPC  H14B19634   6.375   4.992   7.361  1.5489 -0.3484 -2.8586
  174SLPC  H14C19635   6.490   5.066   7.476  0.6934 -2.3173  0.8176
  174SLPC   C1519636   6.553   4.840   7.223  0.5113 -0.0599  0.4400
  174SLPC  H15A19637   6.548   4.907   7.138 -1.2411  0.9068  1.2306
  174SLPC  H15B19638   6.629   4.768   7.196 -0.8257 -1.2290 -0.3725
  174SLPC  H15C19639   6.455   4.793   7.223  1.3146 -1.8388 -0.5784
  174SLPC   C1219640   6.719   4.950   7.344 -0.4740  0.2308  0.4951
  174SLPC  H12A19641   6.720   5.014   7.257  1.9809 -0.3997 -0.0125
  174SLPC  H12B19642   6.788   4.872   7.315 -0.8645 -0.4448  1.3517
  174SLPC   C1119643   6.787   5.023   7.451 -0.3352 -0.0528  0.9476
  174SLPC  H11A19644   6.724   5.111   7.474  1.1985  1.0872  0.9375
  174SLPC  H11B19645   6.885   5.065   7.419  0.3965 -0.8411  2.0655
  174SLPC     P19646   6.934   4.836   7.571 -0.2777 -0.1381 -0.0122
  174SLPC   O1319647   7.053   4.904   7.635  0.4869 -0.4211  0.0840
  174SLPC   O1419648   6.880   4.710   7.629  0.1482 -0.0129  0.4799
  174SLPC   O1219649   6.807   4.932   7.563  0.1602 -0.8469  0.1869
  174SLPC   O1119650   6.967   4.808   7.421 -0.3534 -0.3926 -0.0471
  174SLPC    C119651   7.095   4.825   7.357  0.6621 -0.0849  0.4341
  174SLPC    HA19652   7.140   4.917   7.398  1.2323 -0.5341  0.8398
  174SLPC    HB19653   7.157   4.735   7.379  1.1801  0.7171  2.4237
  174SLPC    C219654   7.092   4.847   7.198 -0.5249 -0.0054 -0.1892
  174SLPC    HS19655   7.019   4.921   7.159  0.3336  0.6089 -0.6813
  174SLPC   O2119656   7.056   4.714   7.148 -0.1127 -0.6158 -0.2137
  174SLPC   C2119657   6.924   4.700   7.127  0.0429 -0.4919 -0.6171
  174SLPC   O2219658   6.838   4.785   7.146 -0.2930  0.0179  0.3241
  174SLPC   C2219659   6.906   4.554   7.074 -0.6229 -0.9636  0.3279
  174SLPC   H2R19660   6.986   4.489   7.114 -0.7594 -2.0187 -1.0507
  174SLPC   H2S19661   6.813   4.519   7.122 -1.3188 -1.8934 -1.6145
  174SLPC    C319662   7.231   4.880   7.139  0.6605  0.0248  0.1628
  174SLPC    HX19663   7.306   4.799   7.149  1.5107  0.5823 -1.4527
  174SLPC    HY19664   7.284   4.963   7.191  2.1886  0.2761 -1.6918
  174SLPC   O3119665   7.218   4.927   6.998  0.0849  0.0885 -0.5052
  174SLPC   C3119666   7.272   4.867   6.900  0.1819  0.9352  0.0463
  174SLPC   O3219667   7.351   4.771   6.905  0.1922  0.1866 -0.4072
  174SLPC   C3219668   7.217   4.914   6.766  0.9906  0.3094 -0.6538
  174SLPC   H2X19669   7.173   5.015   6.778  3.6768  1.3464  1.4209
  174SLPC   H2Y19670   7.137   4.841   6.739  1.1735  0.1018 -0.6372
  174SLPC   C2319671   6.896   4.544   6.922 -0.0854  0.1093 -0.0479
  174SLPC   H3R19672   6.826   4.625   6.892  2.7223  2.9019  0.3680
  174SLPC   H3S19673   6.843   4.455   6.883  1.1497 -0.3254 -0.7936
  174SLPC   C2419674   7.027   4.564   6.835  0.6152  0.7304 -0.6952
  174SLPC   H4R19675   7.101   4.491   6.876 -0.0391  1.2994  1.6736
  174SLPC   H4S19676   7.071   4.666   6.843  0.3659  0.7717  0.4166
  174SLPC   C2519677   6.997   4.532   6.683 -0.0586  0.2554  0.0469
  174SLPC   H5R19678   6.910   4.595   6.656  1.6261  2.0946 -1.3371
  174SLPC   H5S19679   6.975   4.427   6.653  1.8057  0.4707 -2.3714
  174SLPC   C2619680   7.107   4.579   6.580 -0.3725 -0.4209 -0.6680
  174SLPC   H6R19681   7.188   4.505   6.595 -0.9825 -1.0235 -0.2973
  174SLPC   H6S19682   7.137   4.681   6.613  0.9930 -1.3664  1.2405
  174SLPC   C2719683   7.065   4.574   6.435  0.2755 -1.4415 -0.1455
  174SLPC   H7R19684   6.964   4.618   6.423  0.4424  0.1497  3.2910
  174SLPC   H7S19685   7.052   4.467   6.407  3.2494 -1.8041 -0.4286
  174SLPC   C2819686   7.155   4.632   6.330 -0.2330 -0.7878 -0.6771
  174SLPC   H8R19687   7.258   4.592   6.342  0.4837  1.3524  1.1300
  174SLPC   H8S19688   7.170   4.741   6.347  1.6606 -0.9329 -1.1720
  174SLPC   C2919689   7.088   4.613   6.198 -0.2725 -0.3285  0.0262
  174SLPC   H9R19690   6.988   4.566   6.193 -0.9032  1.1404 -2.2977
  174SLPC  C21019691   7.114   4.682   6.089 -0.8402 -0.6154  0.1855
  174SLPC  H10R19692   7.059   4.663   5.995  2.8646 -2.0470 -1.9429
  174SLPC  C21119693   7.227   4.785   6.072  0.1505 -0.1709 -0.3428
  174SLPC  H11R19694   7.288   4.792   6.165 -0.5020  2.0982 -0.0513
  174SLPC  H11S19695   7.180   4.882   6.048 -0.4654 -0.4819 -0.3945
  174SLPC  C21219696   7.325   4.759   5.962  0.1638  0.2822 -0.1659
  174SLPC  H12R19697   7.426   4.737   6.001 -0.3397 -0.3420  0.8226
  174SLPC  C21319698   7.304   4.777   5.828  0.1624  0.7883 -0.6545
  174SLPC  H13R19699   7.388   4.764   5.759 -1.0473  1.1731 -2.2664
  174SLPC  C21419700   7.169   4.813   5.760  0.5977 -0.1499  0.0380
  174SLPC  H14R19701   7.196   4.905   5.704 -0.0257 -1.8029 -3.2140
  174SLPC  H14S19702   7.089   4.844   5.831 -1.1371 -0.6420 -1.6334
  174SLPC  C21519703   7.109   4.713   5.653 -0.5173 -0.0467 -0.7805
  174SLPC  H15R19704   7.189   4.686   5.582  1.6324  1.4130  0.9524
  174SLPC  H15S19705   7.028   4.774   5.609 -0.3290  1.8430  1.2794
  174SLPC  C21619706   7.045   4.594   5.719 -0.2689 -0.4560  0.1507
  174SLPC  H16R19707   6.960   4.622   5.784 -0.2262  1.6125 -0.6065
  174SLPC  H16S19708   7.122   4.541   5.779  0.9059 -0.1435 -1.0189
  174SLPC  C21719709   6.996   4.494   5.615 -0.3228  0.1433  0.7197
  174SLPC  H17R19710   7.086   4.458   5.561  0.2142  1.2928  0.8299
  174SLPC  H17S19711   6.936   4.544   5.536  2.1160 -0.2201 -1.4662
  174SLPC  C21819712   6.921   4.377   5.682 -0.1849 -0.3664  0.0918
  174SLPC  H18R19713   6.887   4.293   5.618  0.5895 -1.3199  0.8859
  174SLPC  H18S19714   6.838   4.412   5.748 -0.9842 -1.5860 -0.2320
  174SLPC  H18T19715   6.991   4.332   5.756  0.6466 -0.3635 -0.6804
  174SLPC   C3319716   7.332   4.927   6.667  0.9603  0.9995  0.3651
  174SLPC   H3X19717   7.385   4.831   6.652 -0.2282  0.1409  1.4318
  174SLPC   H3Y19718   7.403   5.005   6.702  1.8417  0.2732  0.2152
  174SLPC   C3419719   7.274   4.976   6.533  0.1880  0.6507  0.6171
  174SLPC   H4X19720   7.211   5.068   6.539  2.1860  2.1276 -0.2227
  174SLPC   H4Y19721   7.206   4.906   6.480  0.6607  1.3714 -0.9969
  174SLPC   C3519722   7.388   5.003   6.431 -0.9332 -0.2411  0.1458
  174SLPC   H5X19723   7.442   4.907   6.420 -1.2230 -0.3050 -0.8246
  174SLPC   H5Y19724   7.463   5.076   6.469 -1.2351  0.5461 -0.7258
  174SLPC   C3619725   7.344   5.061   6.296  0.4427 -0.2409  0.1798
  174SLPC   H6X19726   7.315   5.167   6.315  0.7764 -0.3896  1.5728
  174SLPC   H6Y19727   7.253   5.002   6.274 -0.0498 -0.5146  2.6580
  174SLPC   C3719728   7.439   5.049   6.183 -0.3433 -0.0594 -0.2985
  174SLPC   H7X19729   7.468   4.943   6.166 -0.9014 -0.0973 -1.0657
  174SLPC   H7Y19730   7.536   5.096   6.211  1.7350 -3.3567 -1.3885
  174SLPC   C3819731   7.384   5.100   6.054 -0.0277  0.3171 -0.0520
  174SLPC   H8X19732   7.345   5.203   6.061 -3.1702 -0.8038  0.3819
  174SLPC   H8Y19733   7.291   5.041   6.039  0.4580 -0.9415  1.6240
  174SLPC   C3919734   7.477   5.083   5.927  0.1837 -0.2899  0.0905
  174SLPC   H9X19735   7.507   4.977   5.917 -1.3237 -0.6255 -1.3645
  174SLPC   H9Y19736   7.574   5.137   5.937  0.5713 -0.9831  0.1094
  174SLPC  C31019737   7.412   5.120   5.788  0.2598  0.4716 -0.2245
  174SLPC  H10X19738   7.393   5.229   5.782 -0.6071  0.4012  0.9563
  174SLPC  H10Y19739   7.310   5.082   5.767 -0.4107  1.7471  0.6103
  174SLPC  C31119740   7.503   5.066   5.671  0.2810 -0.0566 -0.0551
  174SLPC  H11X19741   7.502   4.955   5.667  0.2826 -0.0268 -1.0672
  174SLPC  H11Y19742   7.609   5.094   5.690  0.2265  0.3653 -0.3567
  174SLPC  C31219743   7.452   5.113   5.535 -1.1358 -0.6403 -0.6436
  174SLPC  H12X19744   7.453   5.224   5.526  0.5834 -0.7574 -2.4023
  174SLPC  H12Y19745   7.348   5.085   5.504 -1.7030  1.9530 -1.3074
  174SLPC  C31319746   7.538   5.060   5.418 -0.8936  0.3699 -0.2138
  174SLPC  H13X19747   7.525   4.949   5.417 -0.0441  0.2614 -1.9768
  174SLPC  H13Y19748   7.644   5.091   5.431 -0.8821  0.4302 -0.4489
  174SLPC  C31419749   7.484   5.101   5.279 -0.0072 -0.4547 -0.5239
  174SLPC  H14X19750   7.474   5.212   5.285  0.6638 -0.4019 -0.2454
  174SLPC  H14Y19751   7.381   5.058   5.277 -0.3498  0.3572 -0.7241
  174SLPC  C31519752   7.561   5.047   5.163  0.3905  0.1413  0.3309
  174SLPC  H15X19753   7.501   5.049   5.070  1.2450  1.3622 -0.2253
  174SLPC  H15Y19754   7.571   4.936   5.168  2.4146  0.2138 -0.7002
  174SLPC  C31619755   7.693   5.119   5.129 -0.6880 -0.5193 -0.8119
  174SLPC  H16X19756   7.749   5.115   5.224  0.8884  0.1481 -1.6735
  174SLPC  H16Y19757   7.682   5.228   5.110  1.9911 -0.3895 -2.0694
  174SLPC  C31719758   7.747   5.057   5.000 -0.1323 -0.2009  0.3039
  174SLPC  H17X19759   7.697   5.095   4.909 -1.1102 -2.5198 -0.1898
  174SLPC  H17Y19760   7.727   4.948   5.002  0.1910 -0.2700  2.3627
  174SLPC  C31819761   7.902   5.071   4.995  0.3823  0.2978 -0.2130
  174SLPC  H18X19762   7.935   5.177   4.989  1.3176  0.0547  0.3745
  174SLPC  H18Y19763   7.930   5.035   4.893 -2.6001  1.1083 -1.4360
  174SLPC  H18Z19764   7.955   5.021   5.079 -0.1709  1.7958  1.0692
  175SLPC     N19765   1.505   0.468   7.931  0.1004  0.0342  0.5046
  175SLPC   C1319766   1.490   0.608   7.995 -0.7474  0.3738 -0.5156
  175SLPC  H13A19767   1.537   0.612   8.092 -0.4561  0.9357 -0.6745
  175SLPC  H13B19768   1.532   0.681   7.927 -0.8937 -0.9731 -2.1263
  175SLPC  H13C19769   1.386   0.626   8.016 -0.2278  1.8022  1.0794
  175SLPC   C1419770   1.457   0.366   8.030  0.5710  0.1444  0.7793
  175SLPC  H14A19771   1.481   0.273   7.981  1.6958  0.7285  0.1746
  175SLPC  H14B19772   1.512   0.378   8.122  1.3077 -2.0875  0.6978
  175SLPC  H14C19773   1.351   0.373   8.050 -0.0263 -1.7098 -1.3101
  175SLPC   C1519774   1.649   0.451   7.900 -0.7877 -0.8683 -0.6086
  175SLPC  H15A19775   1.674   0.354   7.860  0.3583 -0.2285 -1.4873
  175SLPC  H15B19776   1.689   0.517   7.825  0.6748 -0.7180  0.2694
  175SLPC  H15C19777   1.711   0.468   7.987 -3.4388 -0.1790  1.2933
  175SLPC   C1219778   1.423   0.462   7.807 -0.1546 -0.4850  0.6566
  175SLPC  H12A19779   1.325   0.504   7.827 -1.4507 -0.4936 -4.2309
  175SLPC  H12B19780   1.395   0.361   7.780 -2.6360  0.1002  0.7732
  175SLPC   C1119781   1.475   0.527   7.679  0.0068 -0.2094  0.3614
  175SLPC  H11A19782   1.519   0.626   7.704 -0.1758  0.4819 -1.8286
  175SLPC  H11B19783   1.392   0.539   7.606  0.3414 -0.2849 -0.0308
  175SLPC     P19784   1.537   0.304   7.556  0.2059 -0.3324 -0.4580
  175SLPC   O1319785   1.661   0.235   7.512  0.0244  0.1742  0.2541
  175SLPC   O1419786   1.452   0.222   7.644  0.1951 -0.0819 -0.1148
  175SLPC   O1219787   1.571   0.439   7.624  0.3064 -0.2512 -0.4452
  175SLPC   O1119788   1.452   0.334   7.428  0.0625 -0.2699 -0.6432
  175SLPC    C119789   1.463   0.454   7.345  0.0873  0.6422 -0.0903
  175SLPC    HA19790   1.369   0.512   7.334  0.4777  1.6384  1.4275
  175SLPC    HB19791   1.524   0.532   7.396  1.0079  0.0307 -0.2392
  175SLPC    C219792   1.521   0.431   7.207 -0.5917 -0.3533  0.3885
  175SLPC    HS19793   1.516   0.527   7.153 -0.7560  0.6989  2.2120
  175SLPC   O2119794   1.442   0.330   7.143 -0.2507  0.7034  0.0844
  175SLPC   C2119795   1.345   0.367   7.068 -0.7394 -0.1831 -0.1151
  175SLPC   O2219796   1.301   0.480   7.067  0.5788  0.4617  0.3505
  175SLPC   C2219797   1.297   0.257   6.981  0.6673  0.0974 -0.0341
  175SLPC   H2R19798   1.314   0.155   7.022 -2.9625 -0.7353 -0.1869
  175SLPC   H2S19799   1.186   0.252   6.994  0.9912 -2.0360  3.0355
  175SLPC    C319800   1.671   0.386   7.210 -0.8579  0.1474  0.5286
  175SLPC    HX19801   1.673   0.289   7.264 -1.2169 -2.3466 -3.4994
  175SLPC    HY19802   1.735   0.462   7.259 -3.1303  2.0952  0.6787
  175SLPC   O3119803   1.724   0.351   7.081  0.6559 -0.2267 -0.1752
  175SLPC   C3119804   1.758   0.455   7.003 -0.2544  0.1832 -0.4564
  175SLPC   O3219805   1.751   0.575   7.031  0.0425 -0.1748 -0.4646
  175SLPC   C3219806   1.820   0.407   6.875 -0.1530 -0.5760 -0.1136
  175SLPC   H2X19807   1.838   0.297   6.870 -0.2943 -0.5376 -2.2024
  175SLPC   H2Y19808   1.917   0.460   6.863 -2.0669  3.1967 -0.3233
  175SLPC   C2319809   1.347   0.278   6.840  0.1474  0.1502 -0.1052
  175SLPC   H3R19810   1.343   0.183   6.783 -1.4890  1.1645 -1.7571
  175SLPC   H3S19811   1.452   0.314   6.843 -0.0678  0.7426  1.5507
  175SLPC   C2419812   1.255   0.376   6.765 -0.2328 -0.0434  0.4429
  175SLPC   H4R19813   1.259   0.485   6.785  1.5478 -0.1846  1.0689
  175SLPC   H4S19814   1.150   0.344   6.780 -0.1505 -1.2151 -1.2528
  175SLPC   C2519815   1.284   0.361   6.613  0.0848  0.9245 -0.2240
  175SLPC   H5R19816   1.256   0.258   6.582  3.2010 -0.0434 -0.1659
  175SLPC   H5S19817   1.394   0.374   6.603 -0.0941  2.8335 -0.0854
  175SLPC   C2619818   1.220   0.465   6.522 -0.1207 -0.1662 -0.9678
  175SLPC   H6R19819   1.254   0.564   6.562 -2.2479  1.0798 -2.0974
  175SLPC   H6S19820   1.111   0.482   6.533 -0.1345 -1.0570  0.5744
  175SLPC   C2719821   1.244   0.451   6.377 -0.0886  0.4957 -0.2105
  175SLPC   H7R19822   1.227   0.344   6.350 -3.2976  0.5108  1.3224
  175SLPC   H7S19823   1.350   0.476   6.351  0.5887 -2.8046 -1.1258
  175SLPC   C2819824   1.161   0.542   6.287  0.2488 -0.0233 -0.1490
  175SLPC   H8R19825   1.198   0.535   6.182 -0.9028  1.0545 -0.6573
  175SLPC   H8S19826   1.173   0.652   6.302  0.1963 -0.2752  2.0022
  175SLPC   C2919827   1.014   0.500   6.271 -0.2232  0.0479  0.2630
  175SLPC   H9R19828   0.992   0.393   6.286 -0.3683 -0.4878 -3.0450
  175SLPC  C21019829   0.911   0.578   6.261 -0.1022 -0.4334  0.2732
  175SLPC  H10R19830   0.817   0.525   6.245  0.9119 -2.1425 -0.2897
  175SLPC  C21119831   0.907   0.733   6.273  0.5449  0.2153 -0.0588
  175SLPC  H11R19832   0.807   0.773   6.247  0.9872  1.2465 -0.2154
  175SLPC  H11S19833   0.968   0.777   6.191 -0.0397  0.5967 -0.2960
  175SLPC  C21219834   0.962   0.795   6.397  0.4597 -0.0167 -0.3369
  175SLPC  H12R19835   1.071   0.793   6.412  0.2090  0.4026  1.9289
  175SLPC  C21319836   0.896   0.840   6.507  0.3204 -0.0023  0.6953
  175SLPC  H13R19837   0.961   0.889   6.582  1.5224 -1.0287  0.3654
  175SLPC  C21419838   0.747   0.837   6.512 -0.3672  0.3470 -0.6146
  175SLPC  H14R19839   0.714   0.842   6.406  0.5060 -0.5779 -0.9499
  175SLPC  H14S19840   0.711   0.926   6.567 -1.7092 -1.0876  0.9386
  175SLPC  C21519841   0.687   0.717   6.590 -0.0636  0.6883 -0.2183
  175SLPC  H15R19842   0.745   0.704   6.683 -0.5683  0.1606  0.0230
  175SLPC  H15S19843   0.710   0.627   6.530 -0.8393 -0.2183  0.8178
  175SLPC  C21619844   0.542   0.722   6.612 -0.1847 -0.1594 -0.2910
  175SLPC  H16R19845   0.495   0.622   6.619 -1.0765  0.3273  0.8900
  175SLPC  H16S19846   0.486   0.776   6.533  2.6486  0.2954 -2.1343
  175SLPC  C21719847   0.509   0.787   6.751 -0.1420  0.2441  0.0407
  175SLPC  H17R19848   0.552   0.889   6.748  2.6203 -0.8304  0.3634
  175SLPC  H17S19849   0.563   0.740   6.836 -1.8271  2.5313  2.5220
  175SLPC  C21819850   0.358   0.777   6.785 -0.2896  0.6158 -0.1408
  175SLPC  H18R19851   0.336   0.814   6.888  3.3358  1.4475  0.4636
  175SLPC  H18S19852   0.330   0.670   6.774  0.3783  0.6837 -3.5260
  175SLPC  H18T19853   0.299   0.831   6.708 -1.5631  2.3025  1.9169
  175SLPC   C3319854   1.735   0.454   6.757 -0.1034  0.0469 -0.0068
  175SLPC   H3X19855   1.628   0.435   6.780  0.1344  1.2943  2.3986
  175SLPC   H3Y19856   1.761   0.381   6.677 -0.5934 -3.9685  3.1563
  175SLPC   C3419857   1.745   0.595   6.699  0.7571 -0.5841 -0.4330
  175SLPC   H4X19858   1.727   0.587   6.590  3.3257  0.9630 -1.0718
  175SLPC   H4Y19859   1.841   0.647   6.718  0.0902  0.5532 -0.0503
  175SLPC   C3519860   1.645   0.696   6.760 -0.0305 -0.7951  0.5376
  175SLPC   H5X19861   1.698   0.791   6.783 -0.9843 -0.1004 -0.0537
  175SLPC   H5Y19862   1.617   0.659   6.861  2.3955  2.5040  2.6367
  175SLPC   C3619863   1.520   0.734   6.669 -0.8054 -0.0754  0.6092
  175SLPC   H6X19864   1.465   0.791   6.746  0.3530 -0.6380  1.8842
  175SLPC   H6Y19865   1.483   0.635   6.634 -0.8110  0.5691 -1.3613
  175SLPC   C3719866   1.565   0.813   6.546  0.5941  1.0274  0.8869
  175SLPC   H7X19867   1.676   0.823   6.545  0.7536 -0.3068 -1.1311
  175SLPC   H7Y19868   1.508   0.906   6.524 -0.2762  0.5384  1.0156
  175SLPC   C3819869   1.529   0.727   6.426  0.1428 -0.2584  0.7023
  175SLPC   H8X19870   1.419   0.711   6.425 -0.6769  3.7967  3.2723
  175SLPC   H8Y19871   1.575   0.625   6.436  1.1072  0.1641  0.7321
  175SLPC   C3919872   1.570   0.781   6.293  0.0557 -0.0195 -0.9380
  175SLPC   H9X19873   1.681   0.781   6.293  0.0588 -0.2481 -0.5170
  175SLPC   H9Y19874   1.538   0.888   6.290  0.9255  0.2970  0.3387
  175SLPC  C31019875   1.510   0.713   6.174 -0.1649 -0.3919 -0.1320
  175SLPC  H10X19876   1.405   0.738   6.148  0.6906  1.3394 -2.2949
  175SLPC  H10Y19877   1.526   0.604   6.189 -0.7286 -0.5618 -0.6867
  175SLPC  C31119878   1.581   0.770   6.050  0.2999 -0.1028  0.6233
  175SLPC  H11X19879   1.687   0.737   6.061 -0.1624 -1.5354  1.0557
  175SLPC  H11Y19880   1.589   0.880   6.040 -0.6767 -0.0226  0.6270
  175SLPC  C31219881   1.536   0.715   5.914  0.1005 -0.5453 -0.7891
  175SLPC  H12X19882   1.435   0.761   5.900  0.5721  1.3432  1.3245
  175SLPC  H12Y19883   1.530   0.605   5.923  0.6089 -0.5418 -0.3900
  175SLPC  C31319884   1.633   0.748   5.804  0.2756 -0.2767  0.6952
  175SLPC  H13X19885   1.736   0.723   5.837  0.4620  0.6242  0.8446
  175SLPC  H13Y19886   1.636   0.858   5.787  0.5532 -0.4557 -0.4454
  175SLPC  C31419887   1.609   0.673   5.671  0.4228 -0.0116  0.7744
  175SLPC  H14X19888   1.510   0.697   5.627  0.1008 -0.4490  1.2434
  175SLPC  H14Y19889   1.589   0.564   5.687  0.3713 -0.4834 -2.0904
  175SLPC  C31519890   1.723   0.689   5.574 -0.1039  0.0907  0.1020
  175SLPC  H15X19891   1.822   0.660   5.616  0.9073  0.1847 -2.1117
  175SLPC  H15Y19892   1.740   0.793   5.537 -1.3655  0.5551  0.7693
  175SLPC  C31619893   1.711   0.605   5.448  0.2502 -0.0720  0.3282
  175SLPC  H16X19894   1.725   0.499   5.476  0.5867  0.1141  0.8910
  175SLPC  H16Y19895   1.795   0.639   5.384  1.1589 -0.5221  1.2363
  175SLPC  C31719896   1.588   0.631   5.364 -0.5813  0.2096  0.4336
  175SLPC  H17X19897   1.560   0.736   5.345 -2.3153  0.0566  1.9244
  175SLPC  H17Y19898   1.507   0.587   5.425  0.4926  0.4316  2.0717
  175SLPC  C31819899   1.592   0.561   5.229 -1.1244  0.2185 -0.0907
  175SLPC  H18X19900   1.600   0.450   5.240 -2.8585  0.1890  1.3873
  175SLPC  H18Y19901   1.682   0.591   5.171 -1.3976  2.1304  0.4073
  175SLPC  H18Z19902   1.504   0.585   5.167 -0.1706 -2.1858 -2.5844
  176SLPC     N19903   4.230   5.522   7.862  0.5404  0.5636  0.3702
  176SLPC   C1319904   4.308   5.645   7.884 -0.0661 -0.7593 -0.1441
  176SLPC  H13A19905   4.414   5.635   7.864  0.5821  0.9154  2.0034
  176SLPC  H13B19906   4.275   5.719   7.813 -0.4843  2.3036  2.9357
  176SLPC  H13C19907   4.294   5.692   7.981  0.3546  0.5346 -0.6902
  176SLPC   C1419908   4.087   5.538   7.859  0.3025  0.4224  0.7361
  176SLPC  H14A19909   4.062   5.588   7.951  0.3259 -0.0392  0.9973
  176SLPC  H14B19910   4.050   5.582   7.768 -0.1068 -0.5321  0.4201
  176SLPC  H14C19911   4.046   5.438   7.870  0.2117  0.1712 -1.4415
  176SLPC   C1519912   4.266   5.427   7.977  0.0642 -0.0057  0.6234
  176SLPC  H15A19913   4.196   5.345   7.981 -0.8789  0.3749 -3.6403
  176SLPC  H15B19914   4.369   5.395   7.966  0.8873  2.5262  0.2315
  176SLPC  H15C19915   4.259   5.474   8.074 -2.3829 -1.9986  1.5167
  176SLPC   C1219916   4.269   5.454   7.733 -0.1133 -1.3886  0.4102
  176SLPC  H12A19917   4.238   5.350   7.733  2.3099 -2.1908  0.7121
  176SLPC  H12B19918   4.377   5.453   7.730 -0.1068 -0.8386 -2.8936
  176SLPC   C1119919   4.232   5.522   7.597 -0.3134 -1.0784  0.3252
  176SLPC  H11A19920   4.121   5.530   7.589 -0.1474  2.5557 -0.2452
  176SLPC  H11B19921   4.267   5.468   7.507  0.3909  4.2325 -3.0144
  176SLPC     P19922   4.442   5.674   7.553  0.2221 -0.1665  0.0431
  176SLPC   O1319923   4.497   5.753   7.657 -0.0790  0.0924 -0.2001
  176SLPC   O1419924   4.505   5.545   7.525  0.4527  0.5659 -0.1189
  176SLPC   O1219925   4.285   5.652   7.587 -0.3138  0.0518  0.6109
  176SLPC   O1119926   4.439   5.752   7.422 -0.1189 -0.0753  0.3429
  176SLPC    C119927   4.352   5.700   7.318  0.5503 -0.2768 -0.3402
  176SLPC    HA19928   4.265   5.638   7.346  1.3665 -1.3335 -0.0675
  176SLPC    HB19929   4.310   5.782   7.255 -0.5474 -1.5733 -1.3367
  176SLPC    C219930   4.418   5.582   7.232 -0.7603  0.1778  0.1534
  176SLPC    HS19931   4.452   5.500   7.299 -0.0491 -0.2416 -0.6849
  176SLPC   O2119932   4.542   5.631   7.170 -0.3029  0.1469 -0.1064
  176SLPC   C2119933   4.627   5.538   7.125 -0.6393  0.2251 -0.3681
  176SLPC   O2219934   4.608   5.417   7.117  0.6951 -0.2274 -0.8547
  176SLPC   C2219935   4.768   5.607   7.091  0.1195 -0.5730  0.4270
  176SLPC   H2R19936   4.754   5.716   7.104  1.1064 -0.6467  2.5542
  176SLPC   H2S19937   4.834   5.576   7.175 -0.1828 -0.4449  0.7112
  176SLPC    C319938   4.316   5.520   7.129 -0.3164 -0.1212 -0.3259
  176SLPC    HX19939   4.225   5.490   7.185  0.0915 -0.4966  0.1481
  176SLPC    HY19940   4.366   5.435   7.078 -0.3843  1.2414 -2.8162
  176SLPC   O3119941   4.286   5.624   7.036 -0.2464  0.1105  0.1439
  176SLPC   C3119942   4.175   5.601   6.967  0.3300  0.4831 -0.6591
  176SLPC   O3219943   4.105   5.505   6.981 -0.0468  0.6929 -0.4716
  176SLPC   C3219944   4.135   5.725   6.890  0.0296  0.8355  0.1948
  176SLPC   H2X19945   4.220   5.791   6.864 -0.9002  2.3541  0.9256
  176SLPC   H2Y19946   4.062   5.778   6.954 -0.2033  1.7023 -0.7707
  176SLPC   C2319947   4.817   5.569   6.952 -0.3075 -0.1265 -0.0289
  176SLPC   H3R19948   4.758   5.611   6.869  1.8988 -1.2834 -2.3199
  176SLPC   H3S19949   4.826   5.459   6.942 -1.6767 -0.1633 -0.9631
  176SLPC   C2419950   4.954   5.634   6.915 -0.2109 -0.5914  0.3010
  176SLPC   H4R19951   5.028   5.590   6.986  2.2764  1.6651 -0.7303
  176SLPC   H4S19952   4.960   5.743   6.932  0.4094 -0.2877 -1.6151
  176SLPC   C2519953   5.013   5.607   6.776 -0.0643  0.1370 -0.6679
  176SLPC   H5R19954   5.039   5.502   6.750 -0.8879  0.5676 -3.5642
  176SLPC   H5S19955   5.104   5.670   6.781  0.4244 -0.6378  1.8920
  176SLPC   C2619956   4.928   5.664   6.665 -0.2506  0.0975  0.0112
  176SLPC   H6R19957   4.891   5.766   6.686 -0.8689 -0.1460  0.1145
  176SLPC   H6S19958   4.839   5.597   6.664  0.0512 -0.3185 -1.0177
  176SLPC   C2719959   5.000   5.663   6.531 -0.1130  0.3005  0.7403
  176SLPC   H7R19960   5.080   5.740   6.525 -0.0030  0.1689  0.5011
  176SLPC   H7S19961   4.922   5.700   6.462 -0.1270  0.2020  0.7028
  176SLPC   C2819962   5.052   5.524   6.483 -0.5829  0.8562 -0.0773
  176SLPC   H8R19963   4.969   5.452   6.496  0.1326  0.2881  1.6848
  176SLPC   H8S19964   5.120   5.489   6.563  1.6940  0.3341 -2.1446
  176SLPC   C2919965   5.105   5.537   6.347 -0.3641 -0.1026  0.0598
  176SLPC   H9R19966   5.026   5.542   6.271  1.0396  0.4623 -1.4354
  176SLPC  C21019967   5.226   5.538   6.295 -0.3754  0.1801 -0.4078
  176SLPC  H10R19968   5.234   5.538   6.186 -2.1959 -2.6886 -0.6328
  176SLPC  C21119969   5.355   5.550   6.367 -0.2698  0.5747  0.0801
  176SLPC  H11R19970   5.348   5.562   6.478  1.6647 -1.4913  0.5041
  176SLPC  H11S19971   5.391   5.650   6.334 -0.2589 -0.0872 -2.0045
  176SLPC  C21219972   5.467   5.447   6.332  0.2429 -0.1675  0.4548
  176SLPC  H12R19973   5.477   5.350   6.382 -1.5814 -0.9149 -0.5370
  176SLPC  C21319974   5.560   5.476   6.238  0.1693 -0.1052 -0.7602
  176SLPC  H13R19975   5.626   5.391   6.216 -0.0853 -0.1683 -1.3000
  176SLPC  C21419976   5.563   5.607   6.152 -0.4915 -0.1795 -0.0962
  176SLPC  H14R19977   5.601   5.681   6.226 -2.0429  0.4433  0.1216
  176SLPC  H14S19978   5.461   5.637   6.118  0.5164  3.3085 -0.4998
  176SLPC  C21519979   5.666   5.601   6.032  0.5875  0.1753  0.8178
  176SLPC  H15R19980   5.667   5.505   5.977  0.3733  0.2033  0.7645
  176SLPC  H15S19981   5.771   5.624   6.060  0.6380  1.6984 -0.4308
  176SLPC  C21619982   5.631   5.708   5.923 -0.3440  0.0967 -0.4818
  176SLPC  H16R19983   5.637   5.808   5.972 -1.6143  0.0471 -0.1823
  176SLPC  H16S19984   5.525   5.692   5.893 -0.6872  2.7697 -0.9353
  176SLPC  C21719985   5.728   5.705   5.800 -0.1095  0.3428  0.0583
  176SLPC  H17R19986   5.733   5.604   5.756  0.4997  0.2317  0.3606
  176SLPC  H17S19987   5.835   5.715   5.830  0.7004  0.0803 -2.5283
  176SLPC  C21819988   5.677   5.792   5.690  0.2499 -0.3625 -0.7036
  176SLPC  H18R19989   5.710   5.896   5.708 -1.1723 -0.0258  0.1061
  176SLPC  H18S19990   5.568   5.771   5.681  0.2016  0.2288 -1.5369
  176SLPC  H18T19991   5.715   5.777   5.587 -0.3305  2.8278 -1.4854
  176SLPC   C3319992   4.056   5.689   6.761  0.6235  0.2399 -0.1920
  176SLPC   H3X19993   3.989   5.770   6.725  0.2501  0.6700  1.3852
  176SLPC   H3Y19994   3.980   5.612   6.788  1.8096 -0.0566  2.6600
  176SLPC   C3419995   4.149   5.638   6.648 -0.2040 -0.8103 -0.7751
  176SLPC   H4X19996   4.246   5.598   6.685  0.0527  0.7711  0.3807
  176SLPC   H4Y19997   4.180   5.730   6.594 -0.5619  0.5987  1.3048
  176SLPC   C3519998   4.089   5.553   6.535  0.1258 -1.0111  0.2713
  176SLPC   H5X19999   4.037   5.462   6.571 -0.3096 -0.2713  1.5697
  176SLPC   H5Y20000   4.177   5.524   6.474 -0.7340  0.6038 -1.9006
  176SLPC   C3620001   3.978   5.636   6.465  0.5234  0.7782  0.3923
  176SLPC   H6X20002   4.037   5.717   6.415  3.3161 -0.7359  1.0237
  176SLPC   H6Y20003   3.896   5.683   6.524 -1.2901  0.8826 -2.0578
  176SLPC   C3720004   3.896   5.543   6.376 -0.5606  0.1423  0.0547
  176SLPC   H7X20005   3.823   5.484   6.435  1.4587 -1.3444  1.1500
  176SLPC   H7Y20006   3.965   5.475   6.323 -1.3119  1.4383 -2.7998
  176SLPC   C3820007   3.809   5.606   6.265 -0.1566 -0.0291 -0.0165
  176SLPC   H8X20008   3.726   5.663   6.313 -1.6977 -2.6164  0.5568
  176SLPC   H8Y20009   3.762   5.524   6.208 -1.6732 -1.1135  2.5975
  176SLPC   C3920010   3.877   5.705   6.170  0.7159 -0.0413  0.7100
  176SLPC   H9X20011   3.972   5.669   6.126 -0.0310  0.2291 -1.2137
  176SLPC   H9Y20012   3.902   5.792   6.234  2.8634  0.6446 -0.9222
  176SLPC  C31020013   3.772   5.751   6.061 -0.8085 -0.1196 -0.2683
  176SLPC  H10X20014   3.686   5.805   6.107 -0.4897 -0.5246  0.8199
  176SLPC  H10Y20015   3.725   5.666   6.007 -1.5812  0.3548 -0.3670
  176SLPC  C31120016   3.835   5.836   5.944  0.4985  0.0061 -0.4183
  176SLPC  H11X20017   3.926   5.777   5.919  0.7893 -0.2973  1.2289
  176SLPC  H11Y20018   3.868   5.936   5.983 -0.1109  0.8930 -2.1022
  176SLPC  C31220019   3.747   5.856   5.825 -0.6741  0.1367 -0.1887
  176SLPC  H12X20020   3.653   5.913   5.842 -0.9274 -0.7667  1.6967
  176SLPC  H12Y20021   3.713   5.756   5.792  0.3140  0.1977 -1.4954
  176SLPC  C31320022   3.841   5.925   5.711  0.7697  0.0714 -0.2496
  176SLPC  H13X20023   3.928   5.860   5.687  0.5097 -0.7561  0.9469
  176SLPC  H13Y20024   3.888   6.018   5.748  2.0075 -0.2453 -0.9766
  176SLPC  C31420025   3.760   5.948   5.583 -0.2644  0.3618 -0.4755
  176SLPC  H14X20026   3.674   6.014   5.607 -0.0194  0.0417  1.4188
  176SLPC  H14Y20027   3.714   5.850   5.557 -3.3201  0.4361  3.6625
  176SLPC  C31520028   3.839   6.024   5.474  0.0482 -0.0186  0.1144
  176SLPC  H15X20029   3.940   5.980   5.460  0.9126  1.2528  1.9850
  176SLPC  H15Y20030   3.855   6.133   5.491 -0.4122  0.3101 -1.4248
  176SLPC  C31620031   3.783   6.017   5.327 -0.4089 -0.6240 -0.0258
  176SLPC  H16X20032   3.672   6.012   5.319 -0.6924  1.3225  1.8089
  176SLPC  H16Y20033   3.823   5.923   5.283  0.0181  0.1546 -1.3698
  176SLPC  C31720034   3.832   6.124   5.237  0.6509 -0.3676 -0.4186
  176SLPC  H17X20035   3.940   6.103   5.219  0.5580 -0.0338 -1.3906
  176SLPC  H17Y20036   3.836   6.227   5.279  4.0734 -0.5615  0.0854
  176SLPC  C31820037   3.771   6.142   5.096  0.1505 -0.3685 -0.0851
  176SLPC  H18X20038   3.833   6.210   5.034 -2.2764  1.7540 -0.3628
  176SLPC  H18Y20039   3.666   6.178   5.106  0.6751  1.6050 -1.1162
  176SLPC  H18Z20040   3.778   6.050   5.034  1.2666 -0.0891 -0.4002
  177SLPC     N20041   3.794   0.899   7.727 -0.0309 -0.1260 -0.3964
  177SLPC   C1320042   3.685   0.992   7.774  0.0984  0.3560  0.4514
  177SLPC  H13A20043   3.665   1.071   7.703  1.1930 -0.3104 -0.6330
  177SLPC  H13B20044   3.588   0.943   7.778 -0.1209  0.5684 -1.2428
  177SLPC  H13C20045   3.722   1.039   7.864  3.8601 -1.4366  0.0460
  177SLPC   C1420046   3.826   0.807   7.840  0.1949  0.4902 -0.1557
  177SLPC  H14A20047   3.915   0.750   7.817 -0.7906 -0.7929 -0.9437
  177SLPC  H14B20048   3.851   0.859   7.932  3.2107  0.6028 -0.9230
  177SLPC  H14C20049   3.747   0.735   7.854 -1.2647  2.1889  0.6529
  177SLPC   C1520050   3.913   0.977   7.703 -0.2174 -0.3732 -0.4116
  177SLPC  H15A20051   3.914   1.037   7.613 -0.9939  0.2161 -0.0393
  177SLPC  H15B20052   3.924   1.043   7.787 -0.7907 -1.3525  0.4507
  177SLPC  H15C20053   4.008   0.929   7.725 -1.0050 -1.6905  0.2460
  177SLPC   C1220054   3.747   0.818   7.607 -0.2876  0.8208  0.1428
  177SLPC  H12A20055   3.735   0.882   7.520 -1.4544 -0.9308 -1.0498
  177SLPC  H12B20056   3.647   0.779   7.623 -0.3207 -0.5917 -2.8447
  177SLPC   C1120057   3.843   0.712   7.562 -0.1238  0.0402  0.0645
  177SLPC  H11A20058   3.943   0.756   7.545  0.3111 -0.3613  1.4403
  177SLPC  H11B20059   3.805   0.678   7.463  0.3489 -1.8499  0.4895
  177SLPC     P20060   3.762   0.472   7.646  0.1097 -0.1898  0.1048
  177SLPC   O1320061   3.809   0.398   7.765  0.3881  0.2102  0.5448
  177SLPC   O1420062   3.614   0.494   7.639 -0.0549 -0.0193 -0.1695
  177SLPC   O1220063   3.848   0.606   7.644  0.1297 -0.4654  0.2153
  177SLPC   O1120064   3.810   0.410   7.513  0.5040 -0.2903  0.3116
  177SLPC    C120065   3.929   0.339   7.499 -0.7038  0.3079 -0.4273
  177SLPC    HA20066   4.016   0.407   7.510 -1.2776  0.7499  1.7245
  177SLPC    HB20067   3.941   0.252   7.568 -1.6429  0.6815  0.2181
  177SLPC    C220068   3.929   0.280   7.354 -0.1699  0.0054 -0.1585
  177SLPC    HS20069   4.032   0.242   7.336 -0.1821 -0.9015  1.4612
  177SLPC   O2120070   3.899   0.371   7.251  0.5192  0.3969 -0.0828
  177SLPC   C2120071   3.986   0.470   7.239  0.7701  0.2169  0.6330
  177SLPC   O2220072   4.082   0.496   7.310 -0.5039  0.6135 -0.3554
  177SLPC   C2220073   3.955   0.551   7.117 -0.5175 -0.4839  0.3049
  177SLPC   H2R20074   3.862   0.510   7.071 -1.1113 -1.0469  1.9109
  177SLPC   H2S20075   3.939   0.655   7.154 -2.2616 -0.3381 -0.7347
  177SLPC    C320076   3.819   0.164   7.348 -1.3784 -0.7080  0.4170
  177SLPC    HX20077   3.729   0.196   7.406 -0.4108  2.2532  0.4845
  177SLPC    HY20078   3.872   0.086   7.406  2.0284  1.5989  0.7077
  177SLPC   O3120079   3.799   0.117   7.212 -0.7382  0.6993 -0.0084
  177SLPC   C3120080   3.687   0.159   7.160 -0.2136 -0.1711  0.5319
  177SLPC   O3220081   3.612   0.246   7.206  0.5353  0.0131 -0.6283
  177SLPC   C3220082   3.652   0.080   7.042  0.3948  0.2684  0.0007
  177SLPC   H2X20083   3.668  -0.028   7.064  1.2968  0.6318  1.2082
  177SLPC   H2Y20084   3.723   0.100   6.959  2.6029 -0.9790  1.5010
  177SLPC   C2320085   4.083   0.566   7.033 -0.2796 -0.3982 -0.8326
  177SLPC   H3R20086   4.102   0.467   6.985 -0.6761  0.6333 -3.2751
  177SLPC   H3S20087   4.172   0.587   7.096 -0.2415  1.5214 -1.4550
  177SLPC   C2420088   4.068   0.675   6.925 -0.7078  0.9541  0.6574
  177SLPC   H4R20089   4.032   0.764   6.982 -1.5486  1.8384 -1.1742
  177SLPC   H4S20090   3.986   0.646   6.856  1.1757 -1.1805 -0.8178
  177SLPC   C2520091   4.190   0.702   6.844 -0.8005 -0.5690  0.4808
  177SLPC   H5R20092   4.209   0.611   6.783  0.2202 -0.0550  0.0118
  177SLPC   H5S20093   4.280   0.729   6.903 -0.8884  1.9645 -0.4277
  177SLPC   C2620094   4.158   0.810   6.744  0.2964 -0.3494  0.7255
  177SLPC   H6R20095   4.178   0.895   6.813  0.4531  0.3654 -0.1791
  177SLPC   H6S20096   4.051   0.804   6.713  1.2115  0.0625 -3.0428
  177SLPC   C2720097   4.242   0.801   6.609  0.1263  0.2669 -0.3770
  177SLPC   H7R20098   4.263   0.691   6.607  0.6062  0.3460  0.0793
  177SLPC   H7S20099   4.338   0.857   6.617  0.0304  0.3561  0.1901
  177SLPC   C2820100   4.165   0.848   6.479  0.2171  0.5396 -0.2446
  177SLPC   H8R20101   4.165   0.958   6.494 -2.9875  0.5798  0.1378
  177SLPC   H8S20102   4.059   0.816   6.482 -0.2942  2.1224 -0.5040
  177SLPC   C2920103   4.239   0.803   6.355 -0.1081 -0.1640  0.1665
  177SLPC   H9R20104   4.323   0.865   6.322 -1.6107  0.3655 -2.9993
  177SLPC  C21020105   4.198   0.696   6.277 -0.9374 -0.5236 -0.7769
  177SLPC  H10R20106   4.259   0.675   6.188  0.7687 -0.2427  0.2770
  177SLPC  C21120107   4.073   0.613   6.302  0.2562 -0.0899  0.0461
  177SLPC  H11R20108   4.036   0.582   6.202  0.0870 -2.3469  0.7645
  177SLPC  H11S20109   3.988   0.666   6.350  0.3561  0.2720 -0.1689
  177SLPC  C21220110   4.114   0.492   6.395  0.0785 -0.0737 -0.2549
  177SLPC  H12R20111   4.207   0.441   6.366  1.0462  0.9411  0.9270
  177SLPC  C21320112   4.047   0.446   6.507  0.4557  0.4085 -0.1975
  177SLPC  H13R20113   4.099   0.365   6.560 -0.0414  0.1331 -0.1263
  177SLPC  C21420114   3.911   0.498   6.565  0.4142  0.7472 -0.3198
  177SLPC  H14R20115   3.859   0.578   6.507  1.1636  0.6168 -1.1903
  177SLPC  H14S20116   3.930   0.544   6.665 -2.1659  2.2613 -0.4601
  177SLPC  C21520117   3.818   0.385   6.579  0.4935  0.0450  0.1608
  177SLPC  H15R20118   3.878   0.299   6.616  1.3124  0.2959 -0.5696
  177SLPC  H15S20119   3.780   0.349   6.481  0.0404  1.7125 -0.2924
  177SLPC  C21620120   3.693   0.432   6.662  0.1136  0.0422 -0.1491
  177SLPC  H16R20121   3.615   0.356   6.638  0.9331 -1.0512  0.5499
  177SLPC  H16S20122   3.660   0.533   6.630  0.6074  0.6532  1.1900
  177SLPC  C21720123   3.721   0.421   6.812  0.3297  0.6163 -0.3965
  177SLPC  H17R20124   3.801   0.487   6.853  1.9398 -2.3675  1.5760
  177SLPC  H17S20125   3.764   0.323   6.840 -0.4914  0.8904  2.0398
  177SLPC  C21820126   3.587   0.439   6.879 -0.4502 -0.0849  0.2286
  177SLPC  H18R20127   3.557   0.546   6.878  1.6111  0.5381 -0.4090
  177SLPC  H18S20128   3.584   0.411   6.987 -0.5537  1.7649  0.7461
  177SLPC  H18T20129   3.512   0.381   6.821  0.6522 -2.7082  1.2743
  177SLPC   C3320130   3.500   0.085   7.004 -0.8622 -0.5746 -0.1622
  177SLPC   H3X20131   3.478   0.191   6.977 -0.4531 -0.6355 -0.7599
  177SLPC   H3Y20132   3.444   0.052   7.094 -0.2103  0.5688  0.6847
  177SLPC   C3420133   3.455  -0.006   6.888  0.0454  0.1405 -0.1284
  177SLPC   H4X20134   3.345  -0.016   6.888 -0.2321  2.4936  0.7605
  177SLPC   H4Y20135   3.499  -0.106   6.905  0.7239  0.3885 -0.3799
  177SLPC   C3520136   3.490   0.049   6.743 -0.6333 -0.4342  0.2900
  177SLPC   H5X20137   3.601   0.055   6.735 -0.6450 -1.1351 -0.5659
  177SLPC   H5Y20138   3.439   0.147   6.728 -0.9612 -0.6492 -0.0060
  177SLPC   C3620139   3.443  -0.051   6.641  0.2811 -0.6646 -0.0612
  177SLPC   H6X20140   3.332  -0.052   6.642  0.2837 -2.2645  0.7017
  177SLPC   H6Y20141   3.474  -0.156   6.660 -0.0188 -0.7181  0.1477
  177SLPC   C3720142   3.487  -0.010   6.497  0.3530 -0.5405  0.7648
  177SLPC   H7X20143   3.597  -0.023   6.492  0.3903 -0.0110 -0.0394
  177SLPC   H7Y20144   3.460   0.096   6.479 -0.5026 -1.2059 -2.7750
  177SLPC   C3820145   3.410  -0.097   6.390  0.0094  0.1664  0.4451
  177SLPC   H8X20146   3.300  -0.099   6.404 -0.1655 -2.3391 -0.7836
  177SLPC   H8Y20147   3.450  -0.199   6.409  1.4096  1.0650  2.9160
  177SLPC   C3920148   3.454  -0.050   6.244 -0.5892  0.7459 -0.1731
  177SLPC   H9X20149   3.564  -0.034   6.249 -0.0746 -2.1346 -0.5890
  177SLPC   H9Y20150   3.420   0.052   6.218 -2.0795  0.5443  0.8763
  177SLPC  C31020151   3.399  -0.143   6.135 -0.0388 -0.5184  0.4269
  177SLPC  H10X20152   3.290  -0.122   6.129  0.2859  1.1684 -0.3268
  177SLPC  H10Y20153   3.424  -0.247   6.163  1.8046 -0.0440  0.6607
  177SLPC  C31120154   3.475  -0.115   6.008  0.7985 -0.6134  0.3408
  177SLPC  H11X20155   3.456  -0.202   5.942  0.6302 -0.9452  0.8205
  177SLPC  H11Y20156   3.584  -0.106   6.026  1.5967  0.1295 -3.8006
  177SLPC  C31220157   3.429   0.007   5.930  0.2510  0.1143  0.2375
  177SLPC  H12X20158   3.412   0.090   6.002  0.6606  0.3696  0.0443
  177SLPC  H12Y20159   3.331  -0.017   5.885 -0.0940 -0.6825  1.3667
  177SLPC  C31320160   3.527   0.066   5.823  0.0959 -0.2915 -0.0175
  177SLPC  H13X20161   3.480   0.159   5.787  2.3092  0.7850 -0.2817
  177SLPC  H13Y20162   3.552   0.001   5.737 -2.2312 -0.9779 -0.2388
  177SLPC  C31420163   3.661   0.120   5.885 -1.3078  0.0232 -0.0067
  177SLPC  H14X20164   3.732   0.139   5.801 -0.5748  0.6992  0.7378
  177SLPC  H14Y20165   3.707   0.037   5.942  2.7683  1.4061 -0.9349
  177SLPC  C31520166   3.646   0.249   5.965  0.2153 -0.4781  0.2686
  177SLPC  H15X20167   3.572   0.232   6.046  0.0660  0.7536  0.4092
  177SLPC  H15Y20168   3.593   0.326   5.905 -0.0624 -0.3473  0.6740
  177SLPC  C31620169   3.763   0.316   6.033  0.1783  0.3376 -0.6392
  177SLPC  H16X20170   3.794   0.249   6.117 -0.5049  1.3864  0.4711
  177SLPC  H16Y20171   3.740   0.411   6.085  0.3755  1.3820 -2.3777
  177SLPC  C31720172   3.870   0.349   5.921 -0.2897  0.2533 -0.0315
  177SLPC  H17X20173   3.815   0.410   5.846 -0.6857  2.0090  1.6097
  177SLPC  H17Y20174   3.898   0.252   5.877  0.3116 -0.1192  1.1455
  177SLPC  C31820175   3.990   0.427   5.969 -0.6924  1.0623 -0.2164
  177SLPC  H18X20176   4.061   0.436   5.884 -2.3622  2.2206 -1.5651
  177SLPC  H18Y20177   4.050   0.378   6.048 -0.8928  0.3087 -0.5177
  177SLPC  H18Z20178   3.968   0.527   6.010 -1.4625  0.1150  1.8261
  178SLPC     N20179   5.500   3.474   7.628  0.1804 -0.3882 -0.0684
  178SLPC   C1320180   5.581   3.553   7.723 -0.0212  1.2212 -0.7627
  178SLPC  H13A20181   5.571   3.658   7.700 -3.5994  1.2015  0.1277
  178SLPC  H13B20182   5.547   3.532   7.823  1.7020 -1.9704 -0.6948
  178SLPC  H13C20183   5.687   3.533   7.720 -0.2875 -0.2725 -1.0894
  178SLPC   C1420184   5.363   3.535   7.626  0.3152  0.0657 -0.4961
  178SLPC  H14A20185   5.290   3.471   7.578 -0.3811 -0.6208  1.3915
  178SLPC  H14B20186   5.316   3.549   7.722 -1.1636 -0.2384 -1.1498
  178SLPC  H14C20187   5.364   3.633   7.582 -0.5079  0.4542  0.3223
  178SLPC   C1520188   5.485   3.331   7.672  0.1296 -0.1070  0.0885
  178SLPC  H15A20189   5.470   3.327   7.779  1.4973 -1.2601  0.2721
  178SLPC  H15B20190   5.399   3.286   7.624 -1.1756  1.5604  0.7852
  178SLPC  H15C20191   5.565   3.265   7.642  0.0694 -0.4226  0.6126
  178SLPC   C1220192   5.551   3.486   7.485  0.6114 -0.3641  0.4483
  178SLPC  H12A20193   5.538   3.590   7.457 -0.4328 -0.0168  2.1091
  178SLPC  H12B20194   5.490   3.434   7.412 -0.1088  1.4070 -0.2829
  178SLPC   C1120195   5.698   3.463   7.464  0.1087  0.8743  0.2679
  178SLPC  H11A20196   5.703   3.464   7.353 -3.2558  3.8826 -0.0551
  178SLPC  H11B20197   5.725   3.362   7.501  1.2221 -0.0422 -2.7723
  178SLPC     P20198   5.915   3.568   7.576 -0.1106  0.1716  0.3248
  178SLPC   O1320199   5.965   3.704   7.580 -0.9822  0.6353 -0.0721
  178SLPC   O1420200   5.922   3.486   7.705 -0.0770  0.1728  0.2991
  178SLPC   O1220201   5.774   3.577   7.508 -0.0749  0.3831 -0.7282
  178SLPC   O1120202   6.011   3.503   7.462 -0.4314  0.1078 -0.2005
  178SLPC    C120203   5.997   3.544   7.326 -0.2378 -0.9190  0.1519
  178SLPC    HA20204   5.889   3.560   7.304 -1.3837 -3.5871  3.1430
  178SLPC    HB20205   6.053   3.636   7.297 -1.2305  0.2140  1.6864
  178SLPC    C220206   6.033   3.433   7.227  0.0365  0.2438 -0.1572
  178SLPC    HS20207   6.014   3.335   7.277 -1.6045  0.4853 -0.2723
  178SLPC   O2120208   6.175   3.431   7.191  0.5037  0.5731  0.0618
  178SLPC   C2120209   6.229   3.319   7.170 -0.3592  0.6085  0.1022
  178SLPC   O2220210   6.170   3.213   7.183  0.2481  0.6111 -0.1765
  178SLPC   C2220211   6.375   3.349   7.127 -0.3049  0.3399 -0.4877
  178SLPC   H2R20212   6.404   3.455   7.136  0.5257  0.1524 -0.8747
  178SLPC   H2S20213   6.446   3.278   7.175 -0.1650  0.0384 -1.1221
  178SLPC    C320214   5.942   3.452   7.097 -1.3182  0.0054 -0.6347
  178SLPC    HX20215   5.974   3.553   7.064 -0.9008  0.2494  0.4609
  178SLPC    HY20216   5.834   3.454   7.119 -1.1456  2.6169  0.3681
  178SLPC   O3120217   5.977   3.355   7.000  0.0454  0.8215  0.2783
  178SLPC   C3120218   5.954   3.405   6.874  0.0916  0.1737  0.2104
  178SLPC   O3220219   5.905   3.514   6.846 -0.0394 -0.2281 -0.3469
  178SLPC   C3220220   6.006   3.304   6.762 -0.1060  0.6413 -0.1500
  178SLPC   H2X20221   6.108   3.333   6.728 -0.4319  0.4168 -1.3462
  178SLPC   H2Y20222   5.947   3.320   6.670  3.5481  0.0299 -2.8105
  178SLPC   C2320223   6.385   3.331   6.973 -0.3425 -0.5252 -0.2121
  178SLPC   H3R20224   6.287   3.359   6.928 -0.7710 -1.7358 -0.0542
  178SLPC   H3S20225   6.394   3.226   6.938 -4.3618 -0.9004 -0.5428
  178SLPC   C2420226   6.506   3.404   6.921  0.2123  0.1466 -0.3223
  178SLPC   H4R20227   6.591   3.384   6.989 -1.1678 -0.0886  1.4281
  178SLPC   H4S20228   6.485   3.513   6.920 -0.8465 -0.0425 -1.0082
  178SLPC   C2520229   6.542   3.358   6.772  1.2056  0.1173 -0.1851
  178SLPC   H5R20230   6.595   3.261   6.767 -0.1408 -0.8768  2.7179
  178SLPC   H5S20231   6.606   3.433   6.720  0.6430 -0.1925 -1.3711
  178SLPC   C2620232   6.428   3.343   6.666 -0.0383  0.4121 -0.2611
  178SLPC   H6R20233   6.342   3.288   6.709 -2.6033  3.4357 -1.1280
  178SLPC   H6S20234   6.460   3.279   6.582 -2.3027 -3.2683  1.4579
  178SLPC   C2720235   6.389   3.485   6.622  0.2523 -0.3398  0.0442
  178SLPC   H7R20236   6.475   3.540   6.578 -1.1670  1.7289 -0.3138
  178SLPC   H7S20237   6.352   3.547   6.706  0.3620 -0.1666 -0.0332
  178SLPC   C2820238   6.270   3.489   6.523 -0.2363 -0.1238 -0.8750
  178SLPC   H8R20239   6.176   3.470   6.580  0.6254 -1.1819  0.2519
  178SLPC   H8S20240   6.279   3.400   6.457  0.5947 -0.5478 -0.2023
  178SLPC   C2920241   6.279   3.624   6.456  0.3176  0.5513 -0.6191
  178SLPC   H9R20242   6.278   3.708   6.527 -0.5079  0.4151 -0.4538
  178SLPC  C21020243   6.287   3.644   6.332 -0.5666  0.1942  0.4193
  178SLPC  H10R20244   6.286   3.750   6.301 -0.0139  0.9295  2.7401
  178SLPC  C21120245   6.293   3.531   6.231  0.1294 -0.3079  0.1179
  178SLPC  H11R20246   6.218   3.454   6.256 -1.1350 -0.2857 -3.1035
  178SLPC  H11S20247   6.396   3.492   6.245  0.9734  2.2460  1.7161
  178SLPC  C21220248   6.273   3.564   6.084  0.0047 -0.3074  0.2553
  178SLPC  H12R20249   6.171   3.600   6.067  0.3248 -0.1628 -1.5612
  178SLPC  C21320250   6.365   3.556   5.985 -1.0102  0.5762 -0.4684
  178SLPC  H13R20251   6.328   3.574   5.883 -1.9529 -2.0862 -0.6884
  178SLPC  C21420252   6.508   3.511   5.984  0.6634 -0.5888 -0.1945
  178SLPC  H14R20253   6.557   3.517   6.083 -2.3172  0.8679  1.3053
  178SLPC  H14S20254   6.560   3.572   5.908 -0.9901  0.1149 -0.8181
  178SLPC  C21520255   6.538   3.369   5.937  0.3801  0.4578 -0.3871
  178SLPC  H15R20256   6.646   3.346   5.954 -0.4532 -3.8022  0.1011
  178SLPC  H15S20257   6.511   3.358   5.830 -0.7495 -2.1439  0.0929
  178SLPC  C21620258   6.461   3.260   6.012  0.1231 -0.2483  0.4754
  178SLPC  H16R20259   6.355   3.285   5.995  0.8744  2.4034 -0.8396
  178SLPC  H16S20260   6.491   3.262   6.119  1.4688  2.6229  0.1357
  178SLPC  C21720261   6.507   3.127   5.965  0.2355  0.5067  0.1259
  178SLPC  H17R20262   6.460   3.052   6.033 -1.3483  0.9913 -0.4038
  178SLPC  H17S20263   6.616   3.114   5.979  0.5833  1.4887 -1.4465
  178SLPC  C21820264   6.476   3.097   5.822  0.5698 -0.1949  0.4251
  178SLPC  H18R20265   6.528   3.008   5.781  0.7412  0.1788 -0.1776
  178SLPC  H18S20266   6.508   3.180   5.756  1.7021 -2.5335 -2.1692
  178SLPC  H18T20267   6.366   3.078   5.823  0.4853  0.3026  1.3823
  178SLPC   C3320268   6.018   3.157   6.813 -0.0353  0.0001  0.5880
  178SLPC   H3X20269   5.939   3.126   6.885  0.6731 -4.9353 -0.4387
  178SLPC   H3Y20270   6.118   3.146   6.859  1.0992  0.1344 -1.6613
  178SLPC   C3420271   6.023   3.047   6.708 -0.2284  0.3683  0.4114
  178SLPC   H4X20272   6.076   2.959   6.752 -0.1317  0.7650  1.0953
  178SLPC   H4Y20273   6.094   3.081   6.629 -1.8678  1.3889 -0.6703
  178SLPC   C3520274   5.890   3.008   6.656  0.5527  0.4746  0.4121
  178SLPC   H5X20275   5.849   3.106   6.625 -1.8247 -0.5905 -0.0950
  178SLPC   H5Y20276   5.825   2.971   6.739  0.4634 -1.8497 -0.6101
  178SLPC   C3620277   5.878   2.909   6.540  0.4404  0.7914  0.8414
  178SLPC   H6X20278   5.927   2.956   6.452 -0.3071 -0.2479 -0.1509
  178SLPC   H6Y20279   5.770   2.896   6.519 -0.1027  1.1353  3.1020
  178SLPC   C3720280   5.931   2.766   6.569  0.0196 -0.8241  0.3560
  178SLPC   H7X20281   5.875   2.709   6.646 -2.0454  1.2617  0.4918
  178SLPC   H7Y20282   6.029   2.776   6.621  1.5657 -3.1910 -1.8100
  178SLPC   C3820283   5.944   2.676   6.440 -0.2621  0.0093 -0.7476
  178SLPC   H8X20284   5.982   2.583   6.487  0.5072  0.2530 -0.8791
  178SLPC   H8Y20285   6.021   2.726   6.378  0.2852  0.8557  0.5727
  178SLPC   C3920286   5.813   2.660   6.365 -0.7803  0.0067  0.3510
  178SLPC   H9X20287   5.797   2.764   6.329  1.9451  0.2828 -0.3249
  178SLPC   H9Y20288   5.724   2.639   6.428  0.3917  0.4514  2.2135
  178SLPC  C31020289   5.833   2.568   6.240 -0.0490 -0.3507 -0.0866
  178SLPC  H10X20290   5.843   2.460   6.265  0.8742 -0.2802 -0.1225
  178SLPC  H10Y20291   5.928   2.600   6.191  1.5807  0.9292  3.6122
  178SLPC  C31120292   5.724   2.588   6.131  0.2847  0.2411  0.4174
  178SLPC  H11X20293   5.719   2.693   6.094 -1.3017  0.0582  0.0504
  178SLPC  H11Y20294   5.623   2.559   6.166 -1.7879  4.1388 -1.5727
  178SLPC  C31220295   5.768   2.520   5.998  0.0490 -0.5250  0.2693
  178SLPC  H12X20296   5.778   2.412   6.021  2.9679 -0.5597 -0.6999
  178SLPC  H12Y20297   5.870   2.553   5.969  0.4474  0.0779  2.2134
  178SLPC  C31320298   5.672   2.550   5.896  0.8061  0.1474  0.4917
  178SLPC  H13X20299   5.657   2.658   5.874 -0.4004 -0.1883 -0.4706
  178SLPC  H13Y20300   5.569   2.526   5.930  1.0654 -0.9722  0.5111
  178SLPC  C31420301   5.713   2.478   5.768  0.3469  0.1160 -0.0732
  178SLPC  H14X20302   5.823   2.479   5.750  0.7830 -1.2149  2.1306
  178SLPC  H14Y20303   5.677   2.527   5.675  0.9051  0.2950 -0.1990
  178SLPC  C31520304   5.660   2.329   5.780  0.4964  0.2394 -0.4411
  178SLPC  H15X20305   5.552   2.338   5.804  0.1568 -0.9684 -1.4351
  178SLPC  H15Y20306   5.705   2.286   5.872 -1.0339  0.6108  0.5165
  178SLPC  C31620307   5.684   2.238   5.659  1.0550  0.0758  0.2281
  178SLPC  H16X20308   5.655   2.142   5.705  0.8690  0.9898  2.0925
  178SLPC  H16Y20309   5.794   2.238   5.641  0.9228 -0.4057 -0.6542
  178SLPC  C31720310   5.590   2.254   5.537  0.1130 -0.7002  0.4323
  178SLPC  H17X20311   5.623   2.335   5.469 -0.7121 -0.8982 -0.2225
  178SLPC  H17Y20312   5.487   2.280   5.570 -0.1842 -0.6342 -0.5105
  178SLPC  C31820313   5.587   2.130   5.455 -0.0067 -0.0197  0.0912
  178SLPC  H18X20314   5.547   2.168   5.359 -1.5807  4.5940  2.2758
  178SLPC  H18Y20315   5.518   2.059   5.504 -2.3752  2.3989  0.4853
  178SLPC  H18Z20316   5.686   2.080   5.448 -0.3077 -0.5876 -0.1173
  179SLPC     N20317   0.353   6.008   2.631 -0.0263 -0.1565 -0.2204
  179SLPC   C1320318   0.213   5.980   2.604 -0.0150 -0.7295 -0.6904
  179SLPC  H13A20319   0.200   5.967   2.498  0.7321  1.1107 -1.0526
  179SLPC  H13B20320   0.188   5.885   2.650  0.9947 -1.1660 -1.0210
  179SLPC  H13C20321   0.152   6.065   2.632  1.9956  0.6347 -0.2069
  179SLPC   C1420322   0.426   5.891   2.564 -0.5987  0.3266  0.1612
  179SLPC  H14A20323   0.414   5.893   2.457 -0.4001 -0.0541  0.1289
  179SLPC  H14B20324   0.533   5.895   2.579 -0.4026 -1.6684 -0.3034
  179SLPC  H14C20325   0.387   5.799   2.606  0.5895  0.5163  1.8010
  179SLPC   C1520326   0.388   6.020   2.778 -0.1236 -0.3234  0.3577
  179SLPC  H15A20327   0.493   6.046   2.789 -0.0129 -0.6016 -0.0401
  179SLPC  H15B20328   0.322   6.097   2.813  1.6235  2.4378 -1.9877
  179SLPC  H15C20329   0.356   5.935   2.836 -0.8734  0.0550  0.5106
  179SLPC   C1220330   0.384   6.134   2.559 -0.3546 -1.0606 -0.3926
  179SLPC  H12A20331   0.371   6.121   2.453 -2.1140 -0.2230 -0.3165
  179SLPC  H12B20332   0.488   6.150   2.582 -1.2076  1.4764  2.3845
  179SLPC   C1120333   0.314   6.264   2.608  0.1391 -0.6027 -0.4746
  179SLPC  H11A20334   0.347   6.356   2.555 -1.2670  0.0405 -0.2628
  179SLPC  H11B20335   0.351   6.284   2.711  2.1773 -0.7515 -1.1258
  179SLPC     P20336   0.088   6.305   2.739 -0.1982 -0.2667 -0.1434
  179SLPC   O1320337   0.045   6.444   2.714  0.1698  0.2149 -0.7030
  179SLPC   O1420338  -0.017   6.203   2.755 -0.4847  0.0934  0.0217
  179SLPC   O1220339   0.177   6.261   2.610  0.4318  0.1072  0.3438
  179SLPC   O1120340   0.196   6.293   2.859  0.1284 -0.0170  0.1326
  179SLPC    C120341   0.158   6.230   2.978  0.3406 -0.3618 -0.5132
  179SLPC    HA20342   0.087   6.146   2.960 -0.1608 -0.5327  1.9347
  179SLPC    HB20343   0.250   6.180   3.013 -0.9852 -2.4565  0.1622
  179SLPC    C220344   0.114   6.330   3.087  0.6229  0.1817 -0.0734
  179SLPC    HS20345   0.039   6.401   3.047  0.5415 -0.0833 -0.3876
  179SLPC   O2120346   0.233   6.398   3.137 -0.0894 -0.9841  0.0652
  179SLPC   C2120347   0.213   6.520   3.189 -0.1815  0.6103  0.0239
  179SLPC   O2220348   0.106   6.567   3.222 -0.2422  0.3270 -0.1186
  179SLPC   C2220349   0.349   6.578   3.235  0.6504 -0.1154 -0.2110
  179SLPC   H2R20350   0.426   6.517   3.183  0.2550 -0.3583 -0.5186
  179SLPC   H2S20351   0.366   6.682   3.199 -0.0250 -0.1901 -0.7596
  179SLPC    C320352   0.049   6.258   3.204  0.5988  0.1566  0.1917
  179SLPC    HX20353  -0.039   6.203   3.165  0.6366 -0.3456  0.8014
  179SLPC    HY20354   0.016   6.337   3.274 -1.3629  0.2120 -0.7454
  179SLPC   O3120355   0.139   6.176   3.282  0.1278 -0.3158 -0.0476
  179SLPC   C3120356   0.075   6.092   3.362 -0.6838 -0.1926  0.3601
  179SLPC   O3220357  -0.044   6.062   3.361 -0.2213 -0.1137 -0.5842
  179SLPC   C3220358   0.164   6.040   3.471 -0.0950 -0.3391 -1.0826
  179SLPC   H2X20359   0.197   6.136   3.516 -0.4804 -0.8069  0.2359
  179SLPC   H2Y20360   0.253   5.991   3.427  1.4725  1.8489 -0.5112
  179SLPC   C2320361   0.365   6.580   3.390 -0.7293  0.9512  0.2438
  179SLPC   H3R20362   0.305   6.662   3.435  1.6142  1.4287  2.7661
  179SLPC   H3S20363   0.472   6.608   3.400 -0.3338  0.7421 -2.5312
  179SLPC   C2420364   0.330   6.443   3.457 -0.1647 -0.6449 -0.7531
  179SLPC   H4R20365   0.372   6.359   3.396 -0.7400 -1.6914  0.2421
  179SLPC   H4S20366   0.220   6.426   3.460 -0.6260  2.1023  1.8945
  179SLPC   C2520367   0.378   6.441   3.597  0.5982  0.1769 -0.4809
  179SLPC   H5R20368   0.296   6.499   3.646 -0.6164 -0.8529 -1.2070
  179SLPC   H5S20369   0.480   6.483   3.607  0.2908  0.5999  1.1972
  179SLPC   C2620370   0.390   6.300   3.654  0.7265 -0.4661  0.9413
  179SLPC   H6R20371   0.422   6.233   3.571  1.6676 -0.3770  1.2173
  179SLPC   H6S20372   0.290   6.261   3.681 -0.2162  0.1960 -1.2976
  179SLPC   C2720373   0.480   6.283   3.780 -0.2603 -0.4410  0.5924
  179SLPC   H7R20374   0.468   6.366   3.852  1.3776 -0.0582  0.4794
  179SLPC   H7S20375   0.581   6.302   3.737 -0.0640  1.1129  1.6709
  179SLPC   C2820376   0.457   6.147   3.863 -0.4930 -0.6663 -0.0650
  179SLPC   H8R20377   0.476   6.069   3.786  2.3775  1.2404 -1.5160
  179SLPC   H8S20378   0.351   6.157   3.893 -1.7292  2.7600 -4.4693
  179SLPC   C2920379   0.553   6.131   3.978  0.0063 -0.7187 -0.1458
  179SLPC   H9R20380   0.554   6.217   4.046 -1.5755 -1.9198  1.4948
  179SLPC  C21020381   0.652   6.037   3.998  0.8115 -0.1865 -0.2922
  179SLPC  H10R20382   0.699   6.042   4.097 -1.7711  4.0333  0.9801
  179SLPC  C21120383   0.668   5.906   3.922  0.1243  0.3061 -0.3818
  179SLPC  H11R20384   0.586   5.908   3.848  0.9287  0.3592 -1.2930
  179SLPC  H11S20385   0.643   5.826   3.995  3.9615 -0.6015  0.1732
  179SLPC  C21220386   0.791   5.859   3.845  0.3670 -0.1943  0.2369
  179SLPC  H12R20387   0.845   5.773   3.887  1.3337 -0.3315 -1.2105
  179SLPC  C21320388   0.827   5.890   3.719 -0.5685 -0.5130 -0.0441
  179SLPC  H13R20389   0.906   5.837   3.664  1.2086  2.9037 -1.0204
  179SLPC  C21420390   0.754   5.993   3.635 -0.5215  0.2611  0.0423
  179SLPC  H14R20391   0.830   6.067   3.601  1.3286 -1.6667 -0.2067
  179SLPC  H14S20392   0.682   6.057   3.691  0.2377  0.9998  0.2016
  179SLPC  C21520393   0.690   5.933   3.505 -0.1834 -0.5921 -0.2823
  179SLPC  H15R20394   0.598   5.881   3.539 -1.9757  1.5972 -1.4674
  179SLPC  H15S20395   0.767   5.864   3.466  0.1899 -0.0042 -0.5855
  179SLPC  C21620396   0.629   6.034   3.402 -0.1576  0.0958  0.0973
  179SLPC  H16R20397   0.724   6.069   3.356 -0.3583  0.1279 -0.2916
  179SLPC  H16S20398   0.584   6.125   3.447  0.8134  1.0912 -0.8696
  179SLPC  C21720399   0.539   5.962   3.297  0.0333  0.6311 -0.0505
  179SLPC  H17R20400   0.448   5.929   3.351  0.0054 -2.0240 -1.5436
  179SLPC  H17S20401   0.592   5.877   3.248 -1.1300  0.1922 -0.5781
  179SLPC  C21820402   0.492   6.050   3.177 -0.4247  0.4513 -0.2092
  179SLPC  H18R20403   0.559   6.070   3.091  0.7642 -0.3432  0.5016
  179SLPC  H18S20404   0.437   6.145   3.195 -1.6752 -0.1364 -0.7934
  179SLPC  H18T20405   0.411   5.983   3.142 -1.2153  0.7479  1.0026
  179SLPC   C3320406   0.096   5.949   3.574  0.3779  0.7355 -0.2341
  179SLPC   H3X20407   0.098   5.847   3.530 -1.2635  1.2703 -1.6701
  179SLPC   H3Y20408  -0.012   5.970   3.592  0.1503 -0.8428  0.3726
  179SLPC   C3420409   0.170   5.944   3.710 -0.2336 -0.4779 -0.0527
  179SLPC   H4X20410   0.181   6.043   3.759  0.8005 -0.5734 -0.0574
  179SLPC   H4Y20411   0.274   5.912   3.686  0.6333  1.3037  1.0460
  179SLPC   C3520412   0.127   5.837   3.805 -0.6843  0.2356 -0.8535
  179SLPC   H5X20413   0.031   5.868   3.851  0.2150 -0.7623  1.9078
  179SLPC   H5Y20414   0.116   5.748   3.741 -4.2318  0.6241 -0.9928
  179SLPC   C3620415   0.251   5.816   3.899 -0.7280 -0.7200  0.8981
  179SLPC   H6X20416   0.249   5.913   3.953  0.0189 -0.1327 -0.0874
  179SLPC   H6Y20417   0.344   5.807   3.838 -0.5134  1.0839  0.9055
  179SLPC   C3720418   0.237   5.699   3.997  1.0153  0.4252  0.2088
  179SLPC   H7X20419   0.243   5.610   3.931  2.1018  1.4085 -1.0762
  179SLPC   H7Y20420   0.135   5.709   4.041  0.6790 -1.1665 -0.1475
  179SLPC   C3820421   0.335   5.689   4.110  0.6873  0.0838 -0.0309
  179SLPC   H8X20422   0.352   5.783   4.166 -0.0569 -0.6850  1.5424
  179SLPC   H8Y20423   0.434   5.667   4.065  1.2781  1.8143  0.3497
  179SLPC   C3920424   0.297   5.570   4.202  0.2129 -0.1616 -0.4325
  179SLPC   H9X20425   0.292   5.486   4.129  2.4989 -0.9254  0.2090
  179SLPC   H9Y20426   0.197   5.589   4.247  0.5655  0.5390  0.0799
  179SLPC  C31020427   0.416   5.526   4.288  0.9800  0.7757  0.7145
  179SLPC  H10X20428   0.502   5.497   4.223 -1.0952 -4.3709 -0.2562
  179SLPC  H10Y20429   0.380   5.427   4.325  0.0229 -0.3007 -2.7368
  179SLPC  C31120430   0.454   5.623   4.404 -0.6027  0.2578  0.7407
  179SLPC  H11X20431   0.453   5.724   4.359 -0.0284 -0.0892 -0.0791
  179SLPC  H11Y20432   0.551   5.600   4.453 -0.1959  1.0186  0.3030
  179SLPC  C31220433   0.344   5.629   4.508  0.6026 -0.0872 -0.9218
  179SLPC  H12X20434   0.319   5.524   4.534 -0.5167  0.6950  1.5003
  179SLPC  H12Y20435   0.257   5.673   4.456  0.4244 -1.4525 -1.8177
  179SLPC  C31320436   0.387   5.699   4.639  0.0223 -0.1705  0.3900
  179SLPC  H13X20437   0.452   5.631   4.698  1.0809 -0.0463 -0.5872
  179SLPC  H13Y20438   0.294   5.720   4.696 -0.6079  1.6908 -1.1999
  179SLPC  C31420439   0.446   5.832   4.621  0.0509 -0.4200 -0.8987
  179SLPC  H14X20440   0.364   5.898   4.583 -0.2112 -0.3486 -0.2253
  179SLPC  H14Y20441   0.528   5.835   4.546  0.8168  0.7675 -0.0496
  179SLPC  C31520442   0.480   5.901   4.756 -0.4826  0.5066  0.0481
  179SLPC  H15X20443   0.532   5.997   4.736 -0.9799  1.4513  2.7682
  179SLPC  H15Y20444   0.555   5.848   4.818 -0.6756  0.2878  0.0964
  179SLPC  C31620445   0.359   5.932   4.840  0.7093 -0.8711 -0.0285
  179SLPC  H16X20446   0.281   5.858   4.869  0.0339  0.5402  1.9687
  179SLPC  H16Y20447   0.306   6.020   4.797 -2.3490 -1.9094  1.3118
  179SLPC  C31720448   0.407   5.972   4.981 -0.0162 -0.7902 -0.0946
  179SLPC  H17X20449   0.474   6.061   4.978  0.4837 -1.0172  2.3950
  179SLPC  H17Y20450   0.472   5.888   5.013  0.6052 -0.2253  0.1415
  179SLPC  C31820451   0.296   5.997   5.079 -0.3629 -0.9026  0.3785
  179SLPC  H18X20452   0.239   6.088   5.050 -0.4421 -1.8472 -2.7585
  179SLPC  H18Y20453   0.339   6.015   5.180 -0.6944  0.2168  0.3261
  179SLPC  H18Z20454   0.225   5.912   5.090 -0.1944 -0.9166  1.5154
  180SLPC     N20455   4.505   2.388   3.054  0.5909 -0.0883  0.0988
  180SLPC   C1320456   4.637   2.469   3.041  0.0674 -0.0542  0.0144
  180SLPC  H13A20457   4.713   2.412   2.990  0.7391  1.1105 -0.3165
  180SLPC  H13B20458   4.607   2.558   2.988 -4.4099 -0.9235  0.6928
  180SLPC  H13C20459   4.680   2.498   3.136  1.0828  1.6492 -0.9167
  180SLPC   C1420460   4.478   2.319   2.932  0.2816  0.1644  0.8062
  180SLPC  H14A20461   4.485   2.389   2.850  2.7317 -2.5766 -1.6002
  180SLPC  H14B20462   4.555   2.244   2.917  0.7382  0.3537  2.1218
  180SLPC  H14C20463   4.383   2.268   2.934 -0.8259  1.7643 -2.7506
  180SLPC   C1520464   4.392   2.485   3.079 -0.0520 -0.4761  0.2563
  180SLPC  H15A20465   4.374   2.554   2.998  1.7805  0.3344  0.4954
  180SLPC  H15B20466   4.302   2.427   3.094 -1.8066  1.8676 -0.6957
  180SLPC  H15C20467   4.411   2.558   3.155 -1.9782  3.5169 -2.7539
  180SLPC   C1220468   4.521   2.284   3.166  0.1506 -0.5899  0.2159
  180SLPC  H12A20469   4.556   2.338   3.253  2.3792 -0.5888 -0.5991
  180SLPC  H12B20470   4.600   2.211   3.155 -0.1344 -1.0058  0.8743
  180SLPC   C1120471   4.399   2.199   3.211  0.6327  0.5230 -0.5617
  180SLPC  H11A20472   4.336   2.270   3.269  1.1274  1.1813 -0.8186
  180SLPC  H11B20473   4.450   2.133   3.284  3.5761  2.2879 -0.8513
  180SLPC     P20474   4.189   2.068   3.130 -0.0337 -0.3043 -0.2428
  180SLPC   O1320475   4.085   2.171   3.115  0.5613 -0.2424  0.5258
  180SLPC   O1420476   4.182   1.956   3.036 -0.0677  0.6702 -0.5173
  180SLPC   O1220477   4.336   2.125   3.107 -0.2306 -0.3926  0.1385
  180SLPC   O1120478   4.175   2.007   3.275  0.2615 -0.1867  0.3314
  180SLPC    C120479   4.269   1.907   3.311 -0.0294  0.1677  0.3876
  180SLPC    HA20480   4.267   1.820   3.241 -0.1296  0.2296  0.3124
  180SLPC    HB20481   4.373   1.945   3.309  0.1017 -0.1308  1.3094
  180SLPC    C220482   4.236   1.859   3.457 -0.1600  1.6024 -0.3831
  180SLPC    HS20483   4.330   1.836   3.511  1.3217  1.5906 -2.8385
  180SLPC   O2120484   4.140   1.749   3.458 -0.1343  0.3859  0.3633
  180SLPC   C2120485   4.197   1.628   3.431  0.0156 -0.9890  0.1633
  180SLPC   O2220486   4.316   1.623   3.387 -0.3521  0.0061  0.1557
  180SLPC   C2220487   4.108   1.504   3.456  0.1114 -0.2365  0.3176
  180SLPC   H2R20488   3.999   1.522   3.453  0.3118  1.0999  0.1627
  180SLPC   H2S20489   4.123   1.435   3.370 -3.4512  0.7672 -1.2627
  180SLPC    C320490   4.184   1.963   3.559 -0.3990  0.0087  0.5896
  180SLPC    HX20491   4.107   2.015   3.498 -0.9870 -0.3849  0.9849
  180SLPC    HY20492   4.261   2.040   3.579  1.1889 -0.5587 -2.7322
  180SLPC   O3120493   4.128   1.905   3.685  1.0736  0.2292 -0.2257
  180SLPC   C3120494   3.997   1.924   3.711 -0.0295 -0.1550 -0.2360
  180SLPC   O3220495   3.917   1.982   3.641  0.6120 -0.5161 -0.0823
  180SLPC   C3220496   3.967   1.880   3.857 -0.0954  0.0276 -0.8087
  180SLPC   H2X20497   4.062   1.893   3.913 -0.4062  0.3238 -0.3431
  180SLPC   H2Y20498   3.929   1.776   3.866  1.0360 -0.3305  0.2404
  180SLPC   C2320499   4.142   1.435   3.584  0.3833 -0.4523  0.5176
  180SLPC   H3R20500   4.248   1.412   3.563  0.4398 -1.1884  1.5195
  180SLPC   H3S20501   4.083   1.341   3.584  1.4093 -1.1252 -0.8765
  180SLPC   C2420502   4.144   1.527   3.704  0.1964  0.0227  0.0277
  180SLPC   H4R20503   4.056   1.595   3.696 -0.4307 -0.9392 -1.8204
  180SLPC   H4S20504   4.236   1.589   3.698 -0.0736  0.3053 -3.0158
  180SLPC   C2520505   4.137   1.443   3.833 -0.3878 -0.0185  0.0936
  180SLPC   H5R20506   4.226   1.376   3.833 -1.4379 -1.4600  0.6385
  180SLPC   H5S20507   4.055   1.369   3.844  1.6467 -2.4682 -0.4656
  180SLPC   C2620508   4.137   1.535   3.955 -1.0324 -0.4940 -0.3120
  180SLPC   H6R20509   4.046   1.600   3.951 -0.0854  1.1555  2.3570
  180SLPC   H6S20510   4.226   1.601   3.957  0.0985 -1.9802  0.5754
  180SLPC   C2720511   4.153   1.445   4.080 -0.1748 -0.5317  0.1584
  180SLPC   H7R20512   4.240   1.381   4.055  1.8063  1.8483  0.6586
  180SLPC   H7S20513   4.074   1.368   4.092  1.1602 -2.4589 -2.4203
  180SLPC   C2820514   4.165   1.513   4.211 -0.7915 -0.4458  0.3927
  180SLPC   H8R20515   4.075   1.575   4.234 -0.1969  0.8355 -0.5767
  180SLPC   H8S20516   4.253   1.581   4.213  2.0436 -3.7503 -1.0179
  180SLPC   C2920517   4.195   1.417   4.320  0.2497  0.2898  0.5595
  180SLPC   H9R20518   4.263   1.337   4.289 -1.0135 -0.1752 -1.2324
  180SLPC  C21020519   4.149   1.415   4.440  1.9094  0.1216 -0.0387
  180SLPC  H10R20520   4.178   1.338   4.513 -1.1096 -1.1591 -0.0490
  180SLPC  C21120521   4.061   1.519   4.497  0.4075  0.5064 -0.0592
  180SLPC  H11R20522   3.969   1.466   4.527  0.3278 -0.0624 -1.2897
  180SLPC  H11S20523   4.028   1.600   4.429  1.1184 -0.0022 -1.0299
  180SLPC  C21220524   4.118   1.577   4.621  0.2244 -0.1142  0.2575
  180SLPC  H12R20525   4.185   1.661   4.595  0.5717 -1.1237 -2.5026
  180SLPC  C21320526   4.107   1.541   4.748 -0.2322 -1.0260 -0.8570
  180SLPC  H13R20527   4.177   1.589   4.818 -0.2533 -1.8358 -0.2693
  180SLPC  C21420528   4.026   1.425   4.804  0.1549  0.0258  0.3289
  180SLPC  H14R20529   4.091   1.341   4.837  2.5491  2.0183  1.0315
  180SLPC  H14S20530   3.962   1.378   4.726  0.8186  0.2082 -0.3444
  180SLPC  C21520531   3.939   1.452   4.923  1.0597  0.1896 -0.2820
  180SLPC  H15R20532   3.865   1.370   4.932  0.1827  0.9303 -0.5962
  180SLPC  H15S20533   3.871   1.539   4.908  0.1577 -0.0721  1.9593
  180SLPC  C21620534   4.011   1.487   5.049  0.1724 -0.1433 -0.2644
  180SLPC  H16R20535   3.956   1.571   5.097 -0.3183 -1.0967  0.8857
  180SLPC  H16S20536   4.110   1.527   5.018  2.0645 -3.2743  1.3256
  180SLPC  C21720537   4.048   1.376   5.153  0.4289 -0.4632  0.3750
  180SLPC  H17R20538   4.104   1.302   5.091 -1.5342 -1.8859  0.2012
  180SLPC  H17S20539   3.951   1.330   5.182 -1.2072  2.0399 -0.7879
  180SLPC  C21820540   4.118   1.433   5.277  0.0431 -0.5026  0.6953
  180SLPC  H18R20541   4.223   1.454   5.248 -0.9507  1.1419 -2.0591
  180SLPC  H18S20542   4.121   1.352   5.353  1.3630 -1.2164 -0.0725
  180SLPC  H18T20543   4.065   1.522   5.316 -0.4965  1.6264 -4.1887
  180SLPC   C3320544   3.865   1.973   3.933  1.2217  0.2347  0.0578
  180SLPC   H3X20545   3.757   1.956   3.913  1.3501 -0.3613 -0.1287
  180SLPC   H3Y20546   3.884   2.080   3.908 -1.9623  0.8662 -0.1559
  180SLPC   C3420547   3.890   1.973   4.087 -0.0244 -0.2914  0.5983
  180SLPC   H4X20548   3.825   2.048   4.137  1.7440  1.4886  0.3592
  180SLPC   H4Y20549   3.998   1.993   4.102  0.3375 -1.7418  0.0924
  180SLPC   C3520550   3.843   1.841   4.163 -0.5159 -0.3577  0.6515
  180SLPC   H5X20551   3.877   1.748   4.114  0.6198  0.6403 -0.5125
  180SLPC   H5Y20552   3.732   1.836   4.168 -0.4549 -0.5470  3.8030
  180SLPC   C3620553   3.870   1.839   4.312 -1.1314 -0.0201  0.4717
  180SLPC   H6X20554   3.841   1.939   4.351 -1.9462  0.3944 -1.1329
  180SLPC   H6Y20555   3.977   1.842   4.340 -0.2329  0.4017 -2.6525
  180SLPC   C3720556   3.779   1.737   4.382 -0.1547 -0.5112  0.2797
  180SLPC   H7X20557   3.807   1.631   4.362 -0.1111 -0.9235  2.2966
  180SLPC   H7Y20558   3.673   1.752   4.353  0.2242  0.9501 -0.4066
  180SLPC   C3820559   3.783   1.747   4.538  0.1715 -0.0513 -0.1020
  180SLPC   H8X20560   3.747   1.848   4.567  1.3356  0.2729  0.2908
  180SLPC   H8Y20561   3.877   1.737   4.597 -0.0228 -0.5024  0.1302
  180SLPC   C3920562   3.688   1.645   4.603  0.1411  0.4217  0.6912
  180SLPC   H9X20563   3.719   1.539   4.591  2.6095  1.0201  1.2184
  180SLPC   H9Y20564   3.598   1.651   4.538  1.4596 -0.2644 -1.2987
  180SLPC  C31020565   3.652   1.666   4.746 -0.0671 -0.1094 -0.1053
  180SLPC  H10X20566   3.589   1.756   4.759  2.2203  1.6625 -0.5867
  180SLPC  H10Y20567   3.748   1.678   4.801 -0.2741  3.3124 -0.3011
  180SLPC  C31120568   3.574   1.554   4.815  0.0338  0.1637  0.0158
  180SLPC  H11X20569   3.638   1.465   4.827 -0.7162 -0.3388  0.3534
  180SLPC  H11Y20570   3.490   1.521   4.749  1.1218 -0.0991 -1.2790
  180SLPC  C31220571   3.522   1.590   4.959  0.1553  0.1151 -0.1477
  180SLPC  H12X20572   3.483   1.499   5.009 -2.3180  1.0403 -0.2587
  180SLPC  H12Y20573   3.434   1.654   4.936  0.9788  1.4307  0.2222
  180SLPC  C31320574   3.619   1.681   5.042  0.6445  0.3088 -0.6264
  180SLPC  H13X20575   3.624   1.783   4.999 -2.4367  1.1692  0.7608
  180SLPC  H13Y20576   3.715   1.628   5.056 -0.6226 -1.9353  0.2633
  180SLPC  C31420577   3.568   1.691   5.190 -0.3647 -0.5025 -0.1813
  180SLPC  H14X20578   3.546   1.587   5.223 -2.0125 -0.3463 -0.6766
  180SLPC  H14Y20579   3.479   1.757   5.193 -0.5170 -0.6643 -0.8446
  180SLPC  C31520580   3.673   1.741   5.295 -1.0865  0.1975  0.2398
  180SLPC  H15X20581   3.722   1.835   5.261  1.0525 -1.0353 -0.3083
  180SLPC  H15Y20582   3.757   1.668   5.302 -0.5716  0.6756 -0.7679
  180SLPC  C31620583   3.614   1.770   5.432 -0.0591  0.8045 -1.4053
  180SLPC  H16X20584   3.586   1.669   5.470  0.6615  0.5928 -1.4203
  180SLPC  H16Y20585   3.516   1.821   5.418 -0.4175  0.7777  0.6844
  180SLPC  C31720586   3.700   1.848   5.538 -0.0276 -0.0244 -0.2739
  180SLPC  H17X20587   3.740   1.940   5.492  0.5902 -0.8318 -1.3963
  180SLPC  H17Y20588   3.785   1.786   5.574 -0.0692  0.6118  0.9757
  180SLPC  C31820589   3.627   1.876   5.666  0.8508  0.2837 -0.1757
  180SLPC  H18X20590   3.529   1.921   5.638  0.3714 -0.8549 -0.3490
  180SLPC  H18Y20591   3.674   1.942   5.743  0.0710  0.7385 -0.0792
  180SLPC  H18Z20592   3.619   1.780   5.721  0.0986  0.4716  0.0636
  181SLPC     N20593   3.153   5.973   2.857 -0.3231  0.0815  0.3208
  181SLPC   C1320594   3.190   5.837   2.814  0.6797  0.6601  0.9332
  181SLPC  H13A20595   3.114   5.768   2.847 -0.3686 -0.3905 -3.0792
  181SLPC  H13B20596   3.179   5.836   2.706  2.2722 -0.4838  0.7453
  181SLPC  H13C20597   3.281   5.790   2.850  0.0384 -0.8143  0.7081
  181SLPC   C1420598   3.004   5.984   2.863  0.2219 -0.5222 -0.4112
  181SLPC  H14A20599   2.984   6.083   2.901 -0.2364  0.6352 -3.3502
  181SLPC  H14B20600   2.966   5.961   2.764  3.1103 -0.2644 -1.6927
  181SLPC  H14C20601   2.957   5.904   2.918 -0.3030  0.6648  0.9355
  181SLPC   C1520602   3.216   6.075   2.764  0.0903  0.6088  0.4513
  181SLPC  H15A20603   3.324   6.074   2.770  0.1646 -0.9722 -0.5617
  181SLPC  H15B20604   3.174   6.073   2.665  0.4661  0.3713  0.2936
  181SLPC  H15C20605   3.188   6.175   2.795  0.0252  1.6673 -2.6827
  181SLPC   C1220606   3.198   6.008   2.996  0.3006 -0.1429  0.3189
  181SLPC  H12A20607   3.305   6.023   2.995  0.0527  3.0659  3.2386
  181SLPC  H12B20608   3.183   5.919   3.056 -0.8285 -1.4266 -1.7347
  181SLPC   C1120609   3.134   6.134   3.058 -0.2890 -0.1385 -0.3659
  181SLPC  H11A20610   3.203   6.144   3.145  1.6896 -4.2027 -1.2510
  181SLPC  H11B20611   3.032   6.117   3.099  0.2686  0.0063  1.1571
  181SLPC     P20612   3.065   6.385   2.968  0.3436 -0.8396 -0.2375
  181SLPC   O1320613   3.161   6.492   2.927 -0.0067  0.1643 -0.3894
  181SLPC   O1420614   2.946   6.368   2.885 -0.0552  0.7599 -0.2751
  181SLPC   O1220615   3.144   6.250   2.962 -0.7854 -0.0674  0.1897
  181SLPC   O1120616   3.018   6.412   3.119 -0.0122  0.3486 -0.3185
  181SLPC    C120617   2.899   6.357   3.175  0.4355 -0.3450  0.3534
  181SLPC    HA20618   2.811   6.412   3.136  0.7606  0.3283  0.5558
  181SLPC    HB20619   2.883   6.259   3.126  1.0695 -0.3064  0.0584
  181SLPC    C220620   2.901   6.344   3.329  0.2048 -0.4303 -0.2859
  181SLPC    HS20621   2.794   6.323   3.352 -1.8711  4.5610 -3.6921
  181SLPC   O2120622   2.939   6.470   3.386 -0.5797 -0.6712  0.2510
  181SLPC   C2120623   2.853   6.565   3.372 -0.3352  0.1099 -0.1264
  181SLPC   O2220624   2.745   6.561   3.321  0.2153  0.4680  0.3852
  181SLPC   C2220625   2.910   6.687   3.439 -0.4357  0.1063  0.6202
  181SLPC   H2R20626   2.962   6.747   3.362 -1.2932  0.6376  0.4336
  181SLPC   H2S20627   2.832   6.759   3.472  1.6391  2.1132  1.4197
  181SLPC    C320628   2.989   6.230   3.387 -0.7698 -0.6319 -0.7998
  181SLPC    HX20629   3.024   6.267   3.486 -1.0258 -1.0365 -0.5547
  181SLPC    HY20630   3.076   6.210   3.321  1.0263  1.1253  0.8721
  181SLPC   O3120631   2.910   6.112   3.407  0.3780 -0.8213 -0.2265
  181SLPC   C3120632   2.957   6.001   3.364  0.3878  0.1862 -0.3418
  181SLPC   O3220633   3.050   5.980   3.286 -0.8207 -0.5185 -0.2283
  181SLPC   C3220634   2.899   5.888   3.457 -0.0641  0.0080  0.7556
  181SLPC   H2X20635   2.967   5.801   3.446  1.8893  1.7301 -1.9999
  181SLPC   H2Y20636   2.798   5.861   3.419 -0.2448  0.5969  0.7974
  181SLPC   C2320637   2.998   6.663   3.566 -0.0186  0.0439 -0.1058
  181SLPC   H3R20638   3.034   6.763   3.597 -1.1356  1.1205 -2.0786
  181SLPC   H3S20639   3.090   6.608   3.533  0.3889  0.7221 -0.1210
  181SLPC   C2420640   2.920   6.594   3.682 -0.1164  0.4500 -0.3158
  181SLPC   H4R20641   2.882   6.496   3.646 -2.1726  1.3966 -0.9229
  181SLPC   H4S20642   2.843   6.667   3.715  0.8819  0.8501  1.2211
  181SLPC   C2520643   3.023   6.568   3.787 -0.1457  0.6365 -0.3127
  181SLPC   H5R20644   3.065   6.662   3.828  0.8098  0.8954 -1.7936
  181SLPC   H5S20645   3.104   6.518   3.729 -0.6552  0.8709 -1.2411
  181SLPC   C2620646   2.967   6.475   3.891  0.6014 -0.5421 -1.0806
  181SLPC   H6R20647   3.043   6.468   3.971 -0.3280  0.6724 -0.0418
  181SLPC   H6S20648   2.939   6.378   3.846  0.2302 -0.5486 -0.8403
  181SLPC   C2720649   2.834   6.535   3.949 -0.0258 -0.1579 -0.0893
  181SLPC   H7R20650   2.753   6.519   3.874  0.0561  2.7190 -0.9201
  181SLPC   H7S20651   2.853   6.642   3.973  0.6895  0.0016 -1.2832
  181SLPC   C2820652   2.797   6.457   4.077  0.3443  0.1999 -0.4219
  181SLPC   H8R20653   2.891   6.434   4.131  1.0618 -0.7115 -1.9719
  181SLPC   H8S20654   2.760   6.354   4.055  1.6721 -0.4099  0.0879
  181SLPC   C2920655   2.691   6.521   4.168 -0.3309  0.2351 -0.6148
  181SLPC   H9R20656   2.583   6.517   4.149 -0.6885  0.1520  1.2648
  181SLPC  C21020657   2.726   6.595   4.272  0.8066 -0.0084 -0.2427
  181SLPC  H10R20658   2.638   6.633   4.326  0.5036 -1.1066  0.0635
  181SLPC  C21120659   2.861   6.598   4.343 -0.8873  0.0514  0.2394
  181SLPC  H11R20660   2.898   6.495   4.356 -1.4024  0.0583  1.9199
  181SLPC  H11S20661   2.829   6.633   4.443 -0.5527  0.7816  0.1042
  181SLPC  C21220662   2.970   6.689   4.281 -0.2916 -0.1506 -0.3564
  181SLPC  H12R20663   2.983   6.688   4.171  1.7255  2.9892 -0.2662
  181SLPC  C21320664   3.049   6.778   4.343  0.4262 -0.3296  0.3457
  181SLPC  H13R20665   3.111   6.847   4.284 -1.6997  0.1751 -1.4536
  181SLPC  C21420666   3.057   6.812   4.490  0.1698 -0.5400 -0.3535
  181SLPC  H14R20667   2.952   6.822   4.526  0.8525 -0.5439  1.7943
  181SLPC  H14S20668   3.112   6.903   4.522 -1.8526  1.0789 -1.2519
  181SLPC  C21520669   3.125   6.687   4.553 -0.3315  0.5764 -0.5805
  181SLPC  H15R20670   3.212   6.656   4.490 -1.1246 -0.5176 -1.1769
  181SLPC  H15S20671   3.050   6.605   4.551 -0.3806  0.5771  0.7278
  181SLPC  C21620672   3.192   6.732   4.689 -0.2615  0.1066  0.2892
  181SLPC  H16R20673   3.281   6.794   4.668 -0.3356  0.1197  0.0137
  181SLPC  H16S20674   3.218   6.636   4.740 -2.2305 -1.2134 -1.0751
  181SLPC  C21720675   3.095   6.801   4.784  0.3232 -0.7304  0.1471
  181SLPC  H17R20676   3.049   6.883   4.726  1.5789  0.3760  0.6702
  181SLPC  H17S20677   3.158   6.845   4.864 -1.4551 -0.2960  1.3766
  181SLPC  C21820678   2.979   6.704   4.836 -0.7092 -0.0798  0.3175
  181SLPC  H18R20679   2.894   6.760   4.881  0.7380  3.3861 -0.8928
  181SLPC  H18S20680   3.015   6.622   4.901 -3.5553 -0.3565  1.7212
  181SLPC  H18T20681   2.924   6.642   4.761 -0.8523  1.3109 -0.7762
  181SLPC   C3320682   2.891   5.921   3.610 -0.5104 -0.0797 -0.0632
  181SLPC   H3X20683   2.827   5.844   3.659  0.2068  0.3637  1.6392
  181SLPC   H3Y20684   2.832   6.014   3.623  2.1753  1.3822  2.8827
  181SLPC   C3420685   3.024   5.937   3.678 -0.3338 -0.5603 -0.0857
  181SLPC   H4X20686   3.054   6.043   3.665 -0.2232 -0.4156  1.2590
  181SLPC   H4Y20687   3.102   5.885   3.618 -0.0216  1.6346 -1.7035
  181SLPC   C3520688   3.019   5.918   3.826 -0.9223  0.2793 -0.1542
  181SLPC   H5X20689   3.126   5.919   3.857 -0.7236  0.5419 -0.8303
  181SLPC   H5Y20690   2.964   5.824   3.852  0.2882 -0.2009  0.7650
  181SLPC   C3620691   2.945   6.036   3.896 -0.6134 -0.8679 -0.0586
  181SLPC   H6X20692   2.844   6.038   3.848 -0.8614 -1.2766  0.4383
  181SLPC   H6Y20693   3.001   6.129   3.872 -0.5433 -1.0625 -0.6643
  181SLPC   C3720694   2.956   6.018   4.050  0.5718  0.1564  0.7066
  181SLPC   H7X20695   3.063   6.006   4.077  1.6429  1.1393 -2.6404
  181SLPC   H7Y20696   2.892   5.934   4.082  0.9122 -0.8997 -1.2494
  181SLPC   C3820697   2.901   6.134   4.132  0.0940 -0.4413  0.0281
  181SLPC   H8X20698   2.797   6.146   4.093 -0.7418 -0.1390  2.2479
  181SLPC   H8Y20699   2.958   6.229   4.127 -0.9054  0.1616 -0.2596
  181SLPC   C3920700   2.892   6.104   4.280 -0.0913  0.0356  0.7041
  181SLPC   H9X20701   2.991   6.069   4.319 -0.0003  1.3419  1.6962
  181SLPC   H9Y20702   2.812   6.028   4.292  2.0283 -2.3819  0.3579
  181SLPC  C31020703   2.867   6.229   4.371 -0.5541 -0.0188 -0.0225
  181SLPC  H10X20704   2.776   6.282   4.337  0.2076  1.7776  0.6080
  181SLPC  H10Y20705   2.949   6.302   4.352 -0.7811  0.3130  0.2783
  181SLPC  C31120706   2.878   6.186   4.513  0.7377 -0.6035 -0.0201
  181SLPC  H11X20707   2.979   6.153   4.544 -0.6464 -2.2394  3.2129
  181SLPC  H11Y20708   2.816   6.096   4.535  2.0808 -2.1464 -2.1841
  181SLPC  C31220709   2.848   6.301   4.610  0.5646  0.2447 -0.6747
  181SLPC  H12X20710   2.751   6.339   4.572 -0.0279 -1.7018 -1.1694
  181SLPC  H12Y20711   2.930   6.376   4.603  0.6265  0.3795  0.9316
  181SLPC  C31320712   2.829   6.250   4.752 -0.3841 -0.2241 -0.2506
  181SLPC  H13X20713   2.913   6.180   4.767  0.7461  1.0546 -0.4312
  181SLPC  H13Y20714   2.734   6.192   4.757 -1.3506  0.8873 -3.4266
  181SLPC  C31420715   2.840   6.357   4.864 -0.4756  0.4234 -0.2752
  181SLPC  H14X20716   2.742   6.407   4.879 -0.2428  1.1214 -1.0670
  181SLPC  H14Y20717   2.914   6.438   4.850 -0.0178  0.5288  2.2141
  181SLPC  C31520718   2.866   6.298   5.005 -0.1395 -0.1965  0.8977
  181SLPC  H15X20719   2.975   6.285   5.023  0.4002 -1.0135 -2.3953
  181SLPC  H15Y20720   2.814   6.201   4.990 -0.1565  0.2392 -2.5340
  181SLPC  C31620721   2.801   6.391   5.110 -0.0796  0.3762  0.1235
  181SLPC  H16X20722   2.699   6.413   5.073  0.5943  1.2837 -1.2757
  181SLPC  H16Y20723   2.847   6.492   5.113 -0.5484  0.5759  2.0012
  181SLPC  C31720724   2.797   6.334   5.251  0.1507 -0.6920  0.3895
  181SLPC  H17X20725   2.898   6.342   5.298 -0.5883 -0.1249  1.9726
  181SLPC  H17Y20726   2.762   6.231   5.231  0.9058 -0.8991  0.0754
  181SLPC  C31820727   2.690   6.404   5.336 -0.3302  0.0388 -0.2613
  181SLPC  H18X20728   2.628   6.331   5.391 -0.0135 -1.2157 -1.5244
  181SLPC  H18Y20729   2.618   6.460   5.272 -0.6907 -0.6370 -0.4465
  181SLPC  H18Z20730   2.737   6.475   5.407  1.3083 -0.1992 -1.0505
  182SLPC     N20731   1.196   2.630   3.056 -0.2857  0.7307 -0.1546
  182SLPC   C1320732   1.279   2.563   2.947  0.3038 -0.0655  0.1026
  182SLPC  H13A20733   1.324   2.641   2.888 -0.3409  0.5119  0.3630
  182SLPC  H13B20734   1.352   2.504   3.000  0.9466 -0.2781 -0.9855
  182SLPC  H13C20735   1.218   2.492   2.894  1.0426 -1.3166  0.8724
  182SLPC   C1420736   1.109   2.525   3.112  0.0645 -0.0009 -0.5079
  182SLPC  H14A20737   1.040   2.572   3.181  0.2278  0.3799 -0.5996
  182SLPC  H14B20738   1.052   2.481   3.032  1.0283 -0.6963 -0.8354
  182SLPC  H14C20739   1.166   2.444   3.155 -1.2756 -0.1297  1.1271
  182SLPC   C1520740   1.101   2.726   2.989 -0.2694 -0.2345  0.1804
  182SLPC  H15A20741   1.035   2.673   2.922 -2.2279  1.2819  0.8072
  182SLPC  H15B20742   1.031   2.774   3.056  0.0743 -1.4473  1.4676
  182SLPC  H15C20743   1.161   2.795   2.931  0.1199  0.5449  1.4716
  182SLPC   C1220744   1.287   2.700   3.152 -0.0082 -0.8071 -0.1114
  182SLPC  H12A20745   1.222   2.757   3.216  2.6655  2.0654  0.2496
  182SLPC  H12B20746   1.351   2.775   3.108  0.5822 -1.6580 -0.7552
  182SLPC   C1120747   1.378   2.620   3.246 -0.7749 -1.2313  0.3416
  182SLPC  H11A20748   1.323   2.542   3.303  0.0652 -2.0481  0.0517
  182SLPC  H11B20749   1.417   2.696   3.316 -1.4790  1.2639 -1.7982
  182SLPC     P20750   1.613   2.622   3.129  0.4040 -0.1563 -0.0936
  182SLPC   O1320751   1.685   2.537   3.029  0.0139  0.1446 -0.0553
  182SLPC   O1420752   1.593   2.757   3.080  0.3990 -0.0624  0.0414
  182SLPC   O1220753   1.475   2.550   3.172 -0.2585  0.2420 -0.1459
  182SLPC   O1120754   1.690   2.633   3.262  0.0437 -0.5175  0.4676
  182SLPC    C120755   1.751   2.531   3.337 -0.0981  0.0206  0.0703
  182SLPC    HA20756   1.686   2.441   3.345  0.1027  0.0243  3.3166
  182SLPC    HB20757   1.846   2.497   3.291 -0.2879  0.6346 -0.7973
  182SLPC    C220758   1.805   2.579   3.479  0.2144 -0.1291  0.0748
  182SLPC    HS20759   1.871   2.499   3.518  0.7832  0.1921 -0.2027
  182SLPC   O2120760   1.699   2.624   3.571  0.3392 -0.4416  0.2499
  182SLPC   C2120761   1.687   2.536   3.670 -0.0247 -0.7444 -0.1786
  182SLPC   O2220762   1.776   2.469   3.721  0.5530 -0.4338 -0.3773
  182SLPC   C2220763   1.544   2.550   3.720  0.1142 -0.5587  0.3639
  182SLPC   H2R20764   1.502   2.636   3.665 -1.1100 -1.6850 -0.5206
  182SLPC   H2S20765   1.498   2.459   3.677  1.7858 -0.3130 -2.1681
  182SLPC    C320766   1.895   2.702   3.461 -0.6048 -0.0187  0.4147
  182SLPC    HX20767   1.858   2.775   3.385  2.0761  1.9464  0.8778
  182SLPC    HY20768   1.978   2.657   3.403 -0.5870  0.8931 -0.2972
  182SLPC   O3120769   1.947   2.765   3.578 -0.2875 -0.4868  0.3691
  182SLPC   C3120770   1.870   2.856   3.635  1.0894 -0.2133 -0.0419
  182SLPC   O3220771   1.761   2.889   3.592  0.9294 -0.3505 -0.4945
  182SLPC   C3220772   1.922   2.891   3.774  0.8528 -0.2313 -0.2117
  182SLPC   H2X20773   1.889   2.992   3.804  0.7612 -0.8736  1.9727
  182SLPC   H2Y20774   2.033   2.893   3.772  0.8519  0.7808 -2.1395
  182SLPC   C2320775   1.531   2.555   3.883  0.4381 -0.4821 -0.0405
  182SLPC   H3R20776   1.435   2.602   3.913  2.2453  2.9131  1.0108
  182SLPC   H3S20777   1.605   2.629   3.922 -1.2801  1.6622 -0.6469
  182SLPC   C2420778   1.543   2.421   3.958 -0.5395 -1.1384  0.1272
  182SLPC   H4R20779   1.620   2.359   3.908 -0.5966  0.3012 -1.8958
  182SLPC   H4S20780   1.443   2.372   3.960 -1.4495  0.5443 -1.0321
  182SLPC   C2520781   1.590   2.447   4.107  0.5519  0.6880  0.4459
  182SLPC   H5R20782   1.510   2.511   4.152 -1.0422 -0.9556  0.0615
  182SLPC   H5S20783   1.690   2.494   4.115  1.3347 -0.7045 -0.7347
  182SLPC   C2620784   1.582   2.319   4.181  0.3376  0.9493  0.0506
  182SLPC   H6R20785   1.656   2.247   4.142 -0.4462 -1.3121  2.4539
  182SLPC   H6S20786   1.483   2.270   4.164  0.6521  0.0829  0.6477
  182SLPC   C2720787   1.603   2.333   4.336  0.5550 -0.4904  0.3664
  182SLPC   H7R20788   1.527   2.408   4.366  2.0143  1.7333 -1.1863
  182SLPC   H7S20789   1.701   2.379   4.364 -0.0907 -0.8006  3.4618
  182SLPC   C2820790   1.591   2.200   4.410 -0.1282 -0.4083  0.2611
  182SLPC   H8R20791   1.687   2.151   4.382  0.0114  0.3335 -0.6050
  182SLPC   H8S20792   1.507   2.135   4.377 -1.1249  0.3835  1.1822
  182SLPC   C2920793   1.585   2.209   4.560  0.6722  0.0257  0.2755
  182SLPC   H9R20794   1.488   2.204   4.611  2.3900  2.2088  4.1988
  182SLPC  C21020795   1.685   2.248   4.638 -0.7412 -0.0415 -0.0453
  182SLPC  H10R20796   1.656   2.254   4.744  1.3211 -0.4547  0.5872
  182SLPC  C21120797   1.833   2.280   4.609 -0.2322  0.4730 -0.0704
  182SLPC  H11R20798   1.867   2.378   4.650  2.0229 -0.0766 -0.4609
  182SLPC  H11S20799   1.847   2.296   4.499  0.0430  4.0843  0.3556
  182SLPC  C21220800   1.923   2.166   4.648  0.1463  0.5029 -0.6409
  182SLPC  H12R20801   1.962   2.106   4.563 -0.5137 -1.9699  0.6912
  182SLPC  C21320802   1.956   2.117   4.773  0.2449 -0.0044  0.4907
  182SLPC  H13R20803   2.030   2.035   4.777  1.1081  0.5233 -2.1445
  182SLPC  C21420804   1.896   2.176   4.893  0.1144 -0.0637 -0.6695
  182SLPC  H14R20805   1.791   2.139   4.902  0.2275 -0.1348  0.5927
  182SLPC  H14S20806   1.873   2.284   4.895  0.3633 -0.0167  0.7431
  182SLPC  C21520807   1.977   2.136   5.016 -0.7342 -0.4917  0.0271
  182SLPC  H15R20808   1.975   2.027   5.038  1.4883 -0.0256  3.2264
  182SLPC  H15S20809   1.929   2.178   5.107  1.3831  1.7931  0.1772
  182SLPC  C21620810   2.124   2.187   5.018  0.3571 -0.5660  0.3522
  182SLPC  H16R20811   2.119   2.292   4.984  0.5952 -0.5599  0.3352
  182SLPC  H16S20812   2.173   2.137   4.932  1.5858 -0.1514  0.7869
  182SLPC  C21720813   2.202   2.177   5.149 -0.5554  0.1771  0.3206
  182SLPC  H17R20814   2.232   2.069   5.148 -2.7726 -0.4811  0.2569
  182SLPC  H17S20815   2.131   2.202   5.230  2.3135  1.8236  2.5434
  182SLPC  C21820816   2.323   2.270   5.166 -0.4633 -0.0136 -0.5402
  182SLPC  H18R20817   2.393   2.236   5.088 -3.2321 -2.2786 -2.2301
  182SLPC  H18S20818   2.372   2.259   5.265  2.1213  0.8033 -1.6403
  182SLPC  H18T20819   2.309   2.379   5.153  1.3024  0.7959  3.0566
  182SLPC   C3320820   1.874   2.796   3.877 -0.0146 -0.4419  0.4555
  182SLPC   H3X20821   1.893   2.690   3.853  0.2834 -0.4061  0.5289
  182SLPC   H3Y20822   1.763   2.792   3.868 -0.0247 -0.5416  0.6332
  182SLPC   C3420823   1.917   2.839   4.018 -0.5389  0.1963  0.0473
  182SLPC   H4X20824   1.871   2.937   4.042 -0.3515  0.3973 -0.4075
  182SLPC   H4Y20825   2.028   2.845   4.027 -0.3748 -1.1337 -0.7959
  182SLPC   C3520826   1.864   2.726   4.113 -0.5374  0.1711  0.0764
  182SLPC   H5X20827   1.913   2.631   4.081  0.4911  0.3192  1.1660
  182SLPC   H5Y20828   1.756   2.710   4.094 -1.0691  3.2839 -0.0641
  182SLPC   C3620829   1.896   2.759   4.262  0.1702 -0.1946  0.5963
  182SLPC   H6X20830   1.826   2.842   4.282  1.1860  1.2342 -1.4672
  182SLPC   H6Y20831   2.005   2.780   4.271  0.4067 -0.6017 -0.9482
  182SLPC   C3720832   1.866   2.646   4.360  0.1800 -0.1744  0.2588
  182SLPC   H7X20833   1.909   2.549   4.328  0.6540  0.4458 -1.0378
  182SLPC   H7Y20834   1.755   2.637   4.363  0.0893  0.5113 -0.6975
  182SLPC   C3820835   1.905   2.677   4.505 -0.1366 -0.0492  0.6161
  182SLPC   H8X20836   2.015   2.659   4.510 -0.0820  0.3124  0.7376
  182SLPC   H8Y20837   1.864   2.595   4.568 -1.3120 -2.1350 -2.6084
  182SLPC   C3920838   1.866   2.822   4.550  0.4400 -0.0151  0.0604
  182SLPC   H9X20839   1.759   2.826   4.520  0.8246 -2.0190 -1.8864
  182SLPC   H9Y20840   1.927   2.893   4.490  0.8758 -1.7135 -1.6073
  182SLPC  C31020841   1.865   2.851   4.702 -0.1156 -0.2782  0.7746
  182SLPC  H10X20842   1.802   2.777   4.756 -1.0369  0.8978  1.3336
  182SLPC  H10Y20843   1.840   2.957   4.725 -0.6145 -0.4095  0.8577
  182SLPC  C31120844   2.002   2.819   4.755 -0.4779  0.0935 -0.3690
  182SLPC  H11X20845   2.079   2.872   4.695  0.2810 -1.3721 -0.7426
  182SLPC  H11Y20846   2.028   2.711   4.766  0.6230  0.5300  1.7143
  182SLPC  C31220847   2.020   2.861   4.901 -0.4439  0.1759  0.0474
  182SLPC  H12X20848   1.938   2.823   4.966 -2.5503  2.3918 -1.1710
  182SLPC  H12Y20849   1.985   2.966   4.893 -2.2599 -0.4163 -0.2578
  182SLPC  C31320850   2.155   2.845   4.964  0.9587  0.6181 -0.5155
  182SLPC  H13X20851   2.223   2.892   4.890  0.1827  2.1509 -0.2856
  182SLPC  H13Y20852   2.195   2.741   4.966  1.8223  0.9358 -0.7479
  182SLPC  C31420853   2.180   2.926   5.085  0.0557  0.1710  0.2484
  182SLPC  H14X20854   2.179   2.863   5.176 -1.7440  1.1190  0.9408
  182SLPC  H14Y20855   2.097   2.998   5.103 -2.5149 -2.3344 -0.9051
  182SLPC  C31520856   2.311   3.005   5.074 -0.2096 -0.9507 -0.3311
  182SLPC  H15X20857   2.313   3.074   4.987 -1.8522 -0.7364 -0.2281
  182SLPC  H15Y20858   2.380   2.925   5.042 -1.6304 -2.0257 -0.8132
  182SLPC  C31620859   2.341   3.079   5.200 -0.9784  0.8579 -0.5525
  182SLPC  H16X20860   2.285   3.034   5.286 -1.0473  2.0945  0.0625
  182SLPC  H16Y20861   2.305   3.184   5.194 -2.2120  0.4214 -1.1901
  182SLPC  C31720862   2.488   3.082   5.238 -0.2717  0.2995  0.3279
  182SLPC  H17X20863   2.544   3.125   5.152 -1.3291  0.1335 -0.4669
  182SLPC  H17Y20864   2.514   2.975   5.249 -0.6621  0.3002  1.3402
  182SLPC  C31820865   2.536   3.155   5.367 -0.0608  0.3121  0.3837
  182SLPC  H18X20866   2.534   3.266   5.358 -1.4236  0.2246 -0.8287
  182SLPC  H18Y20867   2.640   3.124   5.387 -0.2485 -0.0256  0.8423
  182SLPC  H18Z20868   2.475   3.129   5.456  0.6565 -2.3237  0.1709
  183SLPC     N20869   5.011   3.723   2.979 -0.0212  0.3694 -0.0868
  183SLPC   C1320870   4.904   3.762   2.879  0.7217  0.0621 -0.0852
  183SLPC  H13A20871   4.927   3.728   2.780  0.6759 -0.0681 -0.0509
  183SLPC  H13B20872   4.811   3.708   2.888  0.1148  1.2586  1.2867
  183SLPC  H13C20873   4.878   3.867   2.877 -2.3288 -0.4729  2.4556
  183SLPC   C1420874   5.123   3.814   2.944  0.0567 -0.6606 -0.2064
  183SLPC  H14A20875   5.207   3.806   3.011 -0.6812 -0.9119  0.7054
  183SLPC  H14B20876   5.166   3.791   2.847 -1.4827 -3.0008 -0.4136
  183SLPC  H14C20877   5.084   3.915   2.946  0.0676 -0.6332 -0.9560
  183SLPC   C1520878   5.053   3.579   2.958 -0.3448 -1.1101 -0.1784
  183SLPC  H15A20879   5.126   3.562   3.036 -0.3336 -0.1968  0.0245
  183SLPC  H15B20880   4.968   3.518   2.986 -1.4936  0.6053  0.2036
  183SLPC  H15C20881   5.081   3.558   2.856 -1.7342 -0.3734 -0.7444
  183SLPC   C1220882   4.969   3.735   3.125 -0.1320 -0.1282 -0.0604
  183SLPC  H12A20883   4.898   3.658   3.152  0.3805 -0.5578  0.0797
  183SLPC  H12B20884   4.910   3.825   3.136  2.2226  1.3420  1.6100
  183SLPC   C1120885   5.073   3.729   3.234  0.0217 -0.4439 -0.1550
  183SLPC  H11A20886   5.012   3.720   3.326 -0.2486  1.7133 -0.0737
  183SLPC  H11B20887   5.126   3.826   3.246  1.5157 -1.0448 -1.5408
  183SLPC     P20888   5.318   3.621   3.259  0.4480  0.1662 -0.0964
  183SLPC   O1320889   5.375   3.485   3.242 -0.0058  0.5681 -0.3904
  183SLPC   O1420890   5.393   3.727   3.199 -0.1891  0.3894  0.2637
  183SLPC   O1220891   5.165   3.624   3.220 -0.4829  0.3320 -0.3500
  183SLPC   O1120892   5.308   3.652   3.416  0.4600 -0.3933 -0.0065
  183SLPC    C120893   5.250   3.552   3.506  0.3686 -0.6263  0.2200
  183SLPC    HA20894   5.140   3.564   3.507  0.4612  0.8749 -1.4638
  183SLPC    HB20895   5.271   3.450   3.467  0.1112 -0.1548 -1.2426
  183SLPC    C220896   5.314   3.559   3.649  0.4549 -0.2305  0.4083
  183SLPC    HS20897   5.309   3.456   3.690 -2.5509 -0.2318  0.2700
  183SLPC   O2120898   5.238   3.654   3.728 -0.2188 -0.4952 -0.0261
  183SLPC   C2120899   5.202   3.615   3.849 -0.1477 -0.1150  0.1489
  183SLPC   O2220900   5.252   3.519   3.901  0.1103  0.8813 -0.2593
  183SLPC   C2220901   5.082   3.702   3.890  0.1090 -0.1496  0.5400
  183SLPC   H2R20902   5.097   3.811   3.874 -2.9997  0.3823  0.6595
  183SLPC   H2S20903   5.005   3.671   3.816 -1.8664 -0.6720  2.7138
  183SLPC    C320904   5.454   3.609   3.638 -0.2019  0.1356 -0.5552
  183SLPC    HX20905   5.460   3.714   3.603  1.5113  0.2204 -0.1178
  183SLPC    HY20906   5.508   3.542   3.568 -0.0642 -1.0628  0.6580
  183SLPC   O3120907   5.525   3.595   3.764 -0.4603  0.2567  0.0252
  183SLPC   C3120908   5.650   3.623   3.761 -1.0344 -0.5491  0.2558
  183SLPC   O3220909   5.717   3.662   3.668 -0.1227 -0.6336 -0.6672
  183SLPC   C3220910   5.705   3.619   3.905 -0.0915 -0.3085 -0.1748
  183SLPC   H2X20911   5.727   3.725   3.932  1.1580 -0.3194 -1.0699
  183SLPC   H2Y20912   5.799   3.561   3.908  1.0916  1.4929 -0.4861
  183SLPC   C2320913   5.014   3.663   4.023 -0.1924 -0.1281  0.1506
  183SLPC   H3R20914   5.016   3.552   4.030  1.4588 -0.0876  0.6724
  183SLPC   H3S20915   4.911   3.705   4.024 -1.2533 -2.3359  3.2434
  183SLPC   C2420916   5.091   3.715   4.144 -0.0219  0.7091 -0.4776
  183SLPC   H4R20917   5.081   3.826   4.147 -1.9332  0.5541  1.1006
  183SLPC   H4S20918   5.195   3.676   4.135 -0.7252 -2.1020  1.9155
  183SLPC   C2520919   5.052   3.650   4.283 -0.2635  0.2364 -0.0522
  183SLPC   H5R20920   5.132   3.676   4.355  0.1717  0.0222 -0.4570
  183SLPC   H5S20921   5.060   3.540   4.267  2.9682  0.5055 -0.8993
  183SLPC   C2620922   4.909   3.701   4.322  1.0280 -0.0731  0.1985
  183SLPC   H6R20923   4.829   3.651   4.263  2.5362 -0.4584 -1.6169
  183SLPC   H6S20924   4.906   3.810   4.305 -2.7866  0.3068  2.1500
  183SLPC   C2720925   4.884   3.661   4.472 -0.1390 -0.2854 -0.3179
  183SLPC   H7R20926   4.929   3.733   4.544 -0.3696  0.8466 -1.2729
  183SLPC   H7S20927   4.927   3.560   4.488  0.2752 -0.0847 -0.1483
  183SLPC   C2820928   4.734   3.667   4.503  0.4594  0.0489 -0.0634
  183SLPC   H8R20929   4.682   3.757   4.462 -1.9597 -0.2369  2.1710
  183SLPC   H8S20930   4.719   3.671   4.613  1.6648  1.2294  0.0876
  183SLPC   C2920931   4.666   3.542   4.457 -0.2804  0.2182 -0.7108
  183SLPC   H9R20932   4.672   3.521   4.349  0.6270 -0.2894 -0.5693
  183SLPC  C21020933   4.573   3.470   4.529 -0.2940  0.2386  0.1973
  183SLPC  H10R20934   4.543   3.378   4.478 -1.2185  0.6811 -0.0828
  183SLPC  C21120935   4.535   3.491   4.671 -0.1482  0.2350  0.1659
  183SLPC  H11R20936   4.611   3.541   4.735  0.0700  0.0896  0.0237
  183SLPC  H11S20937   4.525   3.391   4.718 -0.7864  0.2350  0.0417
  183SLPC  C21220938   4.406   3.573   4.687  0.6645 -0.1176 -0.1854
  183SLPC  H12R20939   4.402   3.659   4.618 -0.4580  0.0299  0.0433
  183SLPC  C21320940   4.300   3.551   4.770  0.5596 -0.0220 -0.3302
  183SLPC  H13R20941   4.218   3.625   4.772  1.0091  0.4819  0.2202
  183SLPC  C21420942   4.282   3.445   4.875  0.4160 -0.5600  0.6946
  183SLPC  H14R20943   4.384   3.403   4.892  0.5158 -0.1589  1.0923
  183SLPC  H14S20944   4.237   3.357   4.825 -0.2792  0.4220 -0.4652
  183SLPC  C21520945   4.213   3.464   5.018 -0.1161  0.3316  0.0540
  183SLPC  H15R20946   4.104   3.465   4.997 -0.4084 -0.7608  1.3263
  183SLPC  H15S20947   4.245   3.558   5.067 -1.4401  1.6795 -1.5339
  183SLPC  C21620948   4.249   3.339   5.107 -0.1738  0.5314 -0.3074
  183SLPC  H16R20949   4.359   3.353   5.115 -0.1946 -0.0691  1.5809
  183SLPC  H16S20950   4.229   3.247   5.049 -1.3375 -0.5846  1.7526
  183SLPC  C21720951   4.195   3.346   5.254  0.5875  0.5296 -0.1100
  183SLPC  H17R20952   4.236   3.434   5.308  0.9928  1.6014 -2.0753
  183SLPC  H17S20953   4.240   3.254   5.296  2.6573  2.1482  1.4478
  183SLPC  C21820954   4.040   3.349   5.254 -0.4252 -0.7436 -0.0483
  183SLPC  H18R20955   4.003   3.437   5.198  1.7900  2.6975  3.3532
  183SLPC  H18S20956   3.996   3.348   5.356  1.1650 -0.9617  0.6671
  183SLPC  H18T20957   4.005   3.257   5.203 -0.0466 -0.4849 -0.7837
  183SLPC   C3320958   5.607   3.542   3.998 -0.3618 -0.2911  0.3809
  183SLPC   H3X20959   5.589   3.443   3.950  2.1957 -0.2845 -0.7471
  183SLPC   H3Y20960   5.513   3.601   4.005  0.4102  0.8078  2.1384
  183SLPC   C3420961   5.673   3.528   4.137  0.9787  0.6661 -0.6374
  183SLPC   H4X20962   5.710   3.629   4.164  1.0833  1.1481 -2.4477
  183SLPC   H4Y20963   5.749   3.447   4.134  0.2917  0.0295 -1.9301
  183SLPC   C3520964   5.564   3.476   4.230 -0.1433 -0.2179 -0.2325
  183SLPC   H5X20965   5.527   3.374   4.205 -0.5453 -0.0776 -0.2257
  183SLPC   H5Y20966   5.480   3.546   4.211  0.0860 -0.3419 -1.7601
  183SLPC   C3620967   5.610   3.470   4.374 -0.8219  0.3713 -0.5867
  183SLPC   H6X20968   5.638   3.570   4.413 -0.7126  0.6693 -1.4235
  183SLPC   H6Y20969   5.705   3.414   4.392 -1.7903 -0.5588  2.1956
  183SLPC   C3720970   5.512   3.417   4.478 -0.2783  0.3187 -0.4422
  183SLPC   H7X20971   5.559   3.374   4.569 -2.1921 -1.8387 -0.3814
  183SLPC   H7Y20972   5.460   3.336   4.422  0.7963 -0.7368  0.0477
  183SLPC   C3820973   5.420   3.526   4.536  0.6161 -0.5290  0.5028
  183SLPC   H8X20974   5.364   3.571   4.451  2.4497  0.3647 -0.3075
  183SLPC   H8Y20975   5.474   3.612   4.582 -2.1455  2.6613 -1.7346
  183SLPC   C3920976   5.315   3.474   4.642 -0.0711 -0.3551 -0.3679
  183SLPC   H9X20977   5.360   3.418   4.727 -2.6117 -0.6866  0.8473
  183SLPC   H9Y20978   5.254   3.388   4.606  2.1841 -1.8735 -0.7581
  183SLPC  C31020979   5.231   3.586   4.692  0.3817  0.5015  0.2271
  183SLPC  H10X20980   5.190   3.624   4.595  0.8357 -2.7619 -1.3745
  183SLPC  H10Y20981   5.289   3.671   4.736  0.3587  0.6290  0.0173
  183SLPC  C31120982   5.120   3.553   4.792  0.0295  0.7846  0.3698
  183SLPC  H11X20983   5.184   3.523   4.878  2.2659  0.1062 -1.4491
  183SLPC  H11Y20984   5.063   3.464   4.756 -0.3111  1.3585 -0.5372
  183SLPC  C31220985   5.032   3.662   4.848 -0.3153 -0.1758  0.5377
  183SLPC  H12X20986   4.969   3.693   4.761 -0.3050 -0.0230  0.5857
  183SLPC  H12Y20987   5.106   3.741   4.871  1.4898 -1.3442 -0.9241
  183SLPC  C31320988   4.946   3.638   4.958  0.3059  0.2835 -0.3981
  183SLPC  H13X20989   4.915   3.730   5.011  0.4760  0.6730 -0.9607
  183SLPC  H13Y20990   4.999   3.597   5.046 -1.2931 -0.0125  0.4703
  183SLPC  C31420991   4.820   3.543   4.955 -0.0202 -0.1766 -0.2564
  183SLPC  H14X20992   4.838   3.462   4.882  0.7365  1.4675 -1.9851
  183SLPC  H14Y20993   4.730   3.602   4.925 -0.7171 -0.0151  1.9900
  183SLPC  C31520994   4.786   3.478   5.085 -0.7635 -0.0534 -1.3293
  183SLPC  H15X20995   4.878   3.481   5.148 -0.6572  2.6031 -1.5091
  183SLPC  H15Y20996   4.762   3.370   5.075 -2.2090  0.1637 -0.5190
  183SLPC  C31620997   4.666   3.540   5.159 -1.0690  0.4170  0.3015
  183SLPC  H16X20998   4.583   3.547   5.086 -0.6891  1.2494 -0.0703
  183SLPC  H16Y20999   4.691   3.642   5.195  0.7317 -0.2154  0.9525
  183SLPC  C31721000   4.622   3.457   5.286 -0.0992 -0.6314 -1.1473
  183SLPC  H17X21001   4.710   3.421   5.343 -1.4729 -1.8051  0.3237
  183SLPC  H17Y21002   4.561   3.374   5.246 -2.8994 -0.4405  2.2042
  183SLPC  C31821003   4.530   3.523   5.389 -0.2699 -0.0646 -0.6978
  183SLPC  H18X21004   4.438   3.556   5.335 -1.4086 -1.3109  0.4065
  183SLPC  H18Y21005   4.573   3.611   5.442 -2.2509 -0.4582  1.7277
  183SLPC  H18Z21006   4.508   3.436   5.454  0.6134  0.0663 -0.2077
  184SLPC     N21007   1.965   4.585   2.648  0.0744 -0.3481 -0.0732
  184SLPC   C1321008   1.942   4.459   2.727 -1.3260  0.6854 -0.1161
  184SLPC  H13A21009   2.004   4.376   2.698  0.3147  1.3493  1.2987
  184SLPC  H13B21010   1.961   4.476   2.833 -0.1705  1.2928 -0.3986
  184SLPC  H13C21011   1.841   4.421   2.728 -0.7273 -0.9926 -0.7911
  184SLPC   C1421012   1.938   4.568   2.499  0.0602 -0.6142 -0.0236
  184SLPC  H14A21013   1.932   4.660   2.443  1.3155 -1.1908 -1.1696
  184SLPC  H14B21014   2.010   4.508   2.445  0.8724  0.4234 -0.1339
  184SLPC  H14C21015   1.843   4.516   2.493  0.8657 -1.9671 -2.6264
  184SLPC   C1521016   2.106   4.638   2.658  0.5137  0.0014 -0.0946
  184SLPC  H15A21017   2.174   4.558   2.633 -0.2125 -0.1860 -1.5751
  184SLPC  H15B21018   2.132   4.713   2.584  2.3637 -2.4499 -2.0876
  184SLPC  H15C21019   2.129   4.667   2.760 -2.2791 -0.1542  0.6532
  184SLPC   C1221020   1.869   4.693   2.692  0.0407 -1.1252  0.1410
  184SLPC  H12A21021   1.766   4.672   2.666 -0.9976 -1.2907  3.8287
  184SLPC  H12B21022   1.900   4.779   2.633 -1.7408 -1.1203 -0.8702
  184SLPC   C1121023   1.859   4.727   2.837  0.8227  0.2783 -0.3700
  184SLPC  H11A21024   1.954   4.699   2.888  0.5599 -1.5133 -0.7819
  184SLPC  H11B21025   1.781   4.662   2.883  1.3698  1.6661  2.7637
  184SLPC     P21026   1.941   4.968   2.869 -0.0918 -0.0788  0.4007
  184SLPC   O1321027   2.032   4.906   2.964 -0.9158  0.3112 -0.0491
  184SLPC   O1421028   1.990   5.006   2.735 -0.1397  0.2463  0.1971
  184SLPC   O1221029   1.826   4.867   2.845 -0.1627  0.4790 -0.1566
  184SLPC   O1121030   1.877   5.092   2.946 -0.0096 -0.2355  0.4299
  184SLPC    C121031   1.748   5.078   3.001  0.2350  0.2977 -0.2890
  184SLPC    HA21032   1.679   5.125   2.928  0.1660  2.3892  1.0448
  184SLPC    HB21033   1.714   4.974   3.023  0.8712  0.3315  0.9169
  184SLPC    C221034   1.760   5.153   3.127  0.5034 -0.0374 -0.2010
  184SLPC    HS21035   1.787   5.256   3.094 -0.1070  0.0503 -0.4357
  184SLPC   O2121036   1.864   5.086   3.201 -0.6316 -0.2399  0.9245
  184SLPC   C2121037   1.942   5.165   3.269 -0.3531  0.4120  0.5196
  184SLPC   O2221038   1.934   5.287   3.278  0.2906  0.5123 -0.3355
  184SLPC   C2221039   2.055   5.078   3.320 -0.2556 -1.7475  0.3254
  184SLPC   H2R21040   2.076   4.992   3.253 -0.7296 -1.4363 -0.2382
  184SLPC   H2S21041   2.133   5.157   3.316 -2.1381  0.3570  1.9889
  184SLPC    C321042   1.628   5.154   3.205 -0.1076  0.5070 -0.8692
  184SLPC    HX21043   1.625   5.050   3.244 -2.2999  0.2920 -1.4671
  184SLPC    HY21044   1.547   5.182   3.134  0.7829  2.3490 -1.2239
  184SLPC   O3121045   1.639   5.251   3.315  0.0345  0.3912  0.0394
  184SLPC   C3121046   1.585   5.224   3.440 -0.4644 -0.5706  0.0138
  184SLPC   O3221047   1.541   5.117   3.468 -0.2394 -0.1048  0.2907
  184SLPC   C3221048   1.607   5.342   3.527 -0.4568 -0.4091  0.4226
  184SLPC   H2X21049   1.690   5.322   3.598 -0.3635  0.3758  0.5486
  184SLPC   H2Y21050   1.524   5.343   3.601  0.4560  1.9324  1.5201
  184SLPC   C2321051   2.052   5.036   3.467 -0.0896 -0.3948 -0.0224
  184SLPC   H3R21052   2.135   4.966   3.490  0.3469 -0.6376 -2.1316
  184SLPC   H3S21053   1.955   4.985   3.486 -0.5479  1.2690  2.6792
  184SLPC   C2421054   2.060   5.156   3.566 -1.1244  0.8938  0.5939
  184SLPC   H4R21055   1.963   5.208   3.554 -2.0510 -0.8356  0.2364
  184SLPC   H4S21056   2.142   5.229   3.550  1.1184 -1.3556  1.0463
  184SLPC   C2521057   2.074   5.089   3.703 -0.9251 -1.0754 -0.3050
  184SLPC   H5R21058   2.183   5.086   3.725 -0.4426  2.6266 -1.4663
  184SLPC   H5S21059   2.030   4.987   3.699 -4.3058  0.1271  1.6751
  184SLPC   C2621060   2.013   5.169   3.816 -0.3360  0.6487 -0.2186
  184SLPC   H6R21061   1.910   5.195   3.785 -0.5526  0.7767  0.6068
  184SLPC   H6S21062   2.075   5.259   3.834 -1.7445  1.3439  1.4269
  184SLPC   C2721063   1.988   5.085   3.953 -0.4095 -0.6214  0.5261
  184SLPC   H7R21064   2.092   5.078   3.992  0.4323  0.5548 -1.3584
  184SLPC   H7S21065   1.953   4.982   3.932 -0.2876 -0.1204 -2.7537
  184SLPC   C2821066   1.901   5.167   4.046 -0.6812  0.0855  0.4757
  184SLPC   H8R21067   1.957   5.264   4.055  2.6157 -1.6703  0.5244
  184SLPC   H8S21068   1.913   5.130   4.151  3.7460  0.6888  0.4082
  184SLPC   C2921069   1.761   5.174   3.998 -0.4898 -0.2691 -0.5620
  184SLPC   H9R21070   1.711   5.076   3.997 -0.2017 -0.4163 -0.5409
  184SLPC  C21021071   1.689   5.284   3.977 -0.9114 -0.8556  0.2450
  184SLPC  H10R21072   1.583   5.272   3.948 -0.7300  0.1026 -0.8879
  184SLPC  C21121073   1.727   5.435   3.986  0.5027  0.1376  0.3860
  184SLPC  H11R21074   1.738   5.477   3.884  0.8740  2.3009  1.2696
  184SLPC  H11S21075   1.830   5.445   4.026  2.5466 -1.9546 -3.7609
  184SLPC  C21221076   1.619   5.504   4.070 -0.1331  0.0092 -0.3496
  184SLPC  H12R21077   1.655   5.547   4.164  0.1430 -0.1464 -0.3818
  184SLPC  C21321078   1.487   5.533   4.036  0.3365 -0.4769 -0.7726
  184SLPC  H13R21079   1.418   5.570   4.114 -0.0406 -0.2341 -1.2130
  184SLPC  C21421080   1.412   5.495   3.913 -0.3190 -0.0691 -0.0670
  184SLPC  H14R21081   1.475   5.437   3.842 -1.6196 -1.7582  0.0858
  184SLPC  H14S21082   1.383   5.586   3.857  0.4629 -0.9410 -2.0193
  184SLPC  C21521083   1.283   5.410   3.924 -0.0198  0.6956  0.7758
  184SLPC  H15R21084   1.223   5.451   3.839 -1.1089 -0.7773  0.8080
  184SLPC  H15S21085   1.223   5.457   4.004 -4.2046 -1.0760 -1.0356
  184SLPC  C21621086   1.291   5.253   3.912  0.0350  0.2170  0.4307
  184SLPC  H16R21087   1.188   5.214   3.897  0.5118 -0.6339 -0.8349
  184SLPC  H16S21088   1.349   5.220   4.001 -1.8533  1.6797  2.3055
  184SLPC  C21721089   1.367   5.203   3.783 -0.2968  0.4333  0.0678
  184SLPC  H17R21090   1.477   5.205   3.794  0.2155 -4.0516 -2.0211
  184SLPC  H17S21091   1.323   5.256   3.696 -2.3374 -2.2096 -0.6614
  184SLPC  C21821092   1.340   5.051   3.762 -0.4069  0.1385 -0.2835
  184SLPC  H18R21093   1.235   5.036   3.729 -0.1128  0.4942 -1.4151
  184SLPC  H18S21094   1.351   5.002   3.862 -0.0514 -0.0469 -0.4113
  184SLPC  H18T21095   1.414   5.007   3.691 -1.7695 -0.3154 -1.4729
  184SLPC   C3321096   1.603   5.481   3.457 -0.1783 -0.1847 -0.1542
  184SLPC   H3X21097   1.524   5.493   3.380  0.5584 -1.9304 -1.2392
  184SLPC   H3Y21098   1.701   5.496   3.407 -0.3978  0.3600 -0.4307
  184SLPC   C3421099   1.598   5.594   3.562 -0.2817  0.5243  0.2402
  184SLPC   H4X21100   1.669   5.575   3.646  2.8662  1.6448 -1.9547
  184SLPC   H4Y21101   1.496   5.617   3.597 -0.1782  3.1414 -0.9658
  184SLPC   C3521102   1.639   5.732   3.496  0.1333 -0.1037 -0.0085
  184SLPC   H5X21103   1.562   5.761   3.421 -0.1060  0.3312  0.3985
  184SLPC   H5Y21104   1.733   5.721   3.437  0.9292  0.9316  1.0076
  184SLPC   C3621105   1.641   5.850   3.600 -0.2223 -0.0981 -0.0904
  184SLPC   H6X21106   1.636   5.941   3.537 -0.1635  0.6338  0.9374
  184SLPC   H6Y21107   1.729   5.851   3.668 -0.1981 -0.1132 -0.1218
  184SLPC   C3721108   1.518   5.871   3.701 -0.4897  0.0165  0.0440
  184SLPC   H7X21109   1.540   5.955   3.770  2.0944  0.8984 -1.7006
  184SLPC   H7Y21110   1.504   5.779   3.762 -1.2612  0.9528  1.3316
  184SLPC   C3821111   1.382   5.897   3.628 -0.3461  0.3625 -0.0698
  184SLPC   H8X21112   1.345   5.798   3.593  0.8478  0.1335 -0.7315
  184SLPC   H8Y21113   1.393   5.976   3.551 -0.5044  1.4491  0.9856
  184SLPC   C3921114   1.271   5.942   3.725  0.0008 -0.1722  0.1484
  184SLPC   H9X21115   1.183   5.979   3.667  1.7140  0.0109 -2.5556
  184SLPC   H9Y21116   1.314   6.027   3.781  1.2671 -1.2352  0.8363
  184SLPC  C31021117   1.232   5.841   3.842 -0.1005 -0.5274  0.7630
  184SLPC  H10X21118   1.332   5.810   3.878  0.7137 -0.2683 -1.1727
  184SLPC  H10Y21119   1.179   5.751   3.804 -0.0042  0.4675 -1.9223
  184SLPC  C31121120   1.154   5.905   3.960 -0.3699 -0.0848  0.2176
  184SLPC  H11X21121   1.063   5.949   3.913  0.1056  0.0440 -0.6080
  184SLPC  H11Y21122   1.206   5.995   4.000 -2.2333  1.3350 -0.4000
  184SLPC  C31221123   1.125   5.813   4.085 -0.0925  0.4197 -0.1210
  184SLPC  H12X21124   1.224   5.780   4.124 -0.4047 -1.8174 -1.0333
  184SLPC  H12Y21125   1.079   5.713   4.068  1.3663 -0.9479  3.0932
  184SLPC  C31321126   1.043   5.890   4.188  0.2786  0.3144 -0.6547
  184SLPC  H13X21127   0.966   5.949   4.135  0.5899  3.5587  2.2026
  184SLPC  H13Y21128   1.111   5.965   4.233 -0.8850  1.8688 -1.4163
  184SLPC  C31421129   0.978   5.785   4.292 -0.5264  0.1935  0.5535
  184SLPC  H14X21130   1.046   5.704   4.326  2.7169  2.0591 -1.0236
  184SLPC  H14Y21131   0.904   5.733   4.227  1.0622 -0.0814 -1.1184
  184SLPC  C31521132   0.921   5.853   4.425  0.4944 -0.5895 -0.3226
  184SLPC  H15X21133   0.835   5.918   4.398  1.8714  1.4076 -0.1006
  184SLPC  H15Y21134   0.989   5.920   4.481 -1.4771  0.6915  0.6594
  184SLPC  C31621135   0.871   5.745   4.531 -0.0689 -0.4418  0.0556
  184SLPC  H16X21136   0.971   5.709   4.564  0.4220  0.2573 -0.6369
  184SLPC  H16Y21137   0.821   5.666   4.471  0.2637  0.1269 -0.9955
  184SLPC  C31721138   0.796   5.788   4.656 -0.2151 -0.0660  0.0740
  184SLPC  H17X21139   0.698   5.740   4.679  0.0985 -0.2855  0.9983
  184SLPC  H17Y21140   0.759   5.891   4.638  0.0256  0.2714  1.3534
  184SLPC  C31821141   0.881   5.788   4.780  0.2895 -0.3814  0.5002
  184SLPC  H18X21142   0.819   5.805   4.870 -0.1997 -0.2659  0.1412
  184SLPC  H18Y21143   0.961   5.865   4.775 -0.5871  0.4569 -1.0460
  184SLPC  H18Z21144   0.915   5.682   4.781 -3.7161 -1.9372 -2.5909
  185POPC     N21145   2.420   5.605   7.828 -0.5789  0.7627  0.4876
  185POPC   C1221146   2.409   5.491   7.723  0.0170  0.3813  0.1566
  185POPC  H12A21147   2.396   5.537   7.626  1.9170  0.2961 -0.1663
  185POPC  H12B21148   2.326   5.423   7.739  1.1010 -1.0376 -0.0398
  185POPC   C1321149   2.463   5.558   7.963 -0.5437 -0.3020 -0.1807
  185POPC  H13A21150   2.411   5.465   7.985  0.3728 -0.9308 -0.6194
  185POPC  H13B21151   2.567   5.528   7.960 -0.5145 -1.0100  3.2386
  185POPC  H13C21152   2.444   5.632   8.039  0.8155  1.8129 -1.8014
  185POPC   C1421153   2.525   5.706   7.777  0.0196  0.6762  0.2417
  185POPC  H14A21154   2.489   5.754   7.688 -2.2380  0.3736  0.9159
  185POPC  H14B21155   2.545   5.778   7.855 -0.8246  0.4438  0.6839
  185POPC  H14C21156   2.615   5.651   7.755 -1.2948 -0.6000 -2.4074
  185POPC   C1521157   2.283   5.670   7.843 -0.1631 -0.5386 -0.0996
  185POPC  H15A21158   2.299   5.760   7.901 -1.0213  0.2333 -1.0203
  185POPC  H15B21159   2.202   5.613   7.887 -0.9916  0.1595 -0.6895
  185POPC  H15C21160   2.238   5.710   7.754  0.0341 -0.7365 -0.2867
  185POPC   C1121161   2.527   5.396   7.709 -0.4740  0.0761 -0.2709
  185POPC  H11A21162   2.492   5.331   7.626 -0.2503  3.9438 -3.6953
  185POPC  H11B21163   2.535   5.325   7.794 -3.5438  0.7549  0.7196
  185POPC     P21164   2.772   5.393   7.624 -0.0186  0.3629 -0.1786
  185POPC   O1321165   2.775   5.267   7.701  0.6689  0.6237  0.1256
  185POPC   O1421166   2.889   5.478   7.612 -0.0614  0.1347 -0.2105
  185POPC   O1221167   2.642   5.466   7.672 -0.5560  0.3376  0.2161
  185POPC   O1121168   2.736   5.347   7.479 -0.3136 -0.0612  0.5802
  185POPC    C121169   2.635   5.405   7.401 -0.0258 -0.6371 -0.7032
  185POPC    HA21170   2.595   5.498   7.447  0.0188 -1.7606  1.7523
  185POPC    HB21171   2.549   5.337   7.382 -0.4924 -0.1966 -0.2181
  185POPC    C221172   2.694   5.449   7.264 -0.4829 -0.1661  0.3363
  185POPC    HS21173   2.741   5.550   7.270  0.0137 -0.3676 -0.0890
  185POPC   O2121174   2.596   5.469   7.158 -0.7167 -0.9039  0.3283
  185POPC   C2121175   2.500   5.556   7.179  0.0178  0.3422 -0.0451
  185POPC   O2221176   2.487   5.640   7.268 -1.1242  0.1182 -0.8645
  185POPC   C2221177   2.409   5.559   7.050  0.1748  0.2504  0.1858
  185POPC   H2R21178   2.305   5.564   7.088  0.0460 -0.3466 -0.0740
  185POPC   H2S21179   2.410   5.454   7.013 -4.5110  0.0058  0.1206
  185POPC    C321180   2.808   5.362   7.209  0.0017 -0.2571 -0.7097
  185POPC    HX21181   2.773   5.257   7.212  1.3103 -0.7028  1.4020
  185POPC    HY21182   2.889   5.363   7.286  0.9341  1.4364 -1.6528
  185POPC   O3121183   2.844   5.410   7.080 -0.8691  0.1725 -0.2473
  185POPC   C3121184   2.797   5.338   6.986 -0.3720  0.1843 -0.4589
  185POPC   O3221185   2.722   5.245   7.001  0.4514  0.4766  0.8001
  185POPC   C3221186   2.867   5.371   6.863  0.7622  0.3166  0.2001
  185POPC   H2X21187   2.976   5.351   6.867  0.6679 -0.3452 -0.4596
  185POPC   H2Y21188   2.852   5.478   6.834  2.1441  0.3235 -0.6282
  185POPC   C2321189   2.435   5.678   6.963  0.1162 -0.1808  0.0375
  185POPC   H3R21190   2.511   5.746   7.006  0.5971 -1.9409  2.1927
  185POPC   H3S21191   2.352   5.751   6.973  2.5855  2.9021 -0.3625
  185POPC   C2421192   2.484   5.627   6.828 -0.2596 -0.0941 -0.6951
  185POPC   H4R21193   2.553   5.542   6.844  0.5647  0.5105 -0.9286
  185POPC   H4S21194   2.541   5.703   6.769 -4.4093  2.0843 -2.3090
  185POPC   C2521195   2.374   5.594   6.721 -0.0096  0.2326 -0.0006
  185POPC   H5R21196   2.314   5.684   6.694 -0.2997  0.2939  0.8192
  185POPC   H5S21197   2.301   5.532   6.777  0.2237  0.8035  0.9538
  185POPC   C2621198   2.410   5.505   6.597  0.7648  0.3651 -0.1340
  185POPC   H6R21199   2.430   5.406   6.644  0.0076  1.2042  2.0779
  185POPC   H6S21200   2.511   5.539   6.565  0.5142 -0.5202 -2.0203
  185POPC   C2721201   2.299   5.507   6.491 -0.3309  0.4142 -0.6799
  185POPC   H7R21202   2.297   5.609   6.447 -0.3965 -0.2706 -2.3129
  185POPC   H7S21203   2.200   5.492   6.538 -0.2382 -0.6556 -0.8123
  185POPC   C2821204   2.334   5.409   6.377 -0.7287 -0.3359 -0.1021
  185POPC   H8R21205   2.366   5.309   6.414 -2.7334 -0.4380  1.4939
  185POPC   H8S21206   2.421   5.459   6.329 -1.4594  0.5992 -0.4844
  185POPC   C2921207   2.217   5.380   6.291  0.1555  0.1256 -0.5394
  185POPC   H9121208   2.137   5.322   6.339  1.7246 -0.9556  0.9108
  185POPC  C21021209   2.218   5.400   6.162 -0.6169 -0.4428 -0.0267
  185POPC  H10121210   2.133   5.355   6.107 -0.2282 -1.6650  0.3394
  185POPC  C21121211   2.322   5.479   6.084 -1.0271  0.0283 -0.6402
  185POPC  H11R21212   2.422   5.437   6.108 -1.8155 -1.0447  0.9501
  185POPC  H11S21213   2.326   5.588   6.108  1.1633 -0.1286 -0.0677
  185POPC  C21221214   2.289   5.462   5.938  0.1999 -0.3644  0.3053
  185POPC  H12R21215   2.290   5.355   5.909  0.9165 -1.3493  3.5699
  185POPC  H12S21216   2.376   5.512   5.890  0.1914  0.9327  1.5664
  185POPC  C21321217   2.167   5.541   5.891  0.6373 -0.4373 -0.4044
  185POPC  H13R21218   2.166   5.643   5.934  1.5475  0.0646 -1.5375
  185POPC  H13S21219   2.075   5.499   5.937  1.0467 -1.0645 -0.1400
  185POPC  C21421220   2.152   5.557   5.740 -0.0516 -0.8335 -0.8326
  185POPC  H14R21221   2.242   5.605   5.695  0.9728  0.7713  2.5683
  185POPC  H14S21222   2.066   5.626   5.726  0.5411  0.0956 -0.0373
  185POPC  C21521223   2.110   5.432   5.660  0.1670  0.2345 -0.4591
  185POPC  H15R21224   2.015   5.392   5.701  0.3108 -1.8464 -2.0035
  185POPC  H15S21225   2.189   5.355   5.670  1.2337  1.2216 -1.0385
  185POPC  C21621226   2.086   5.436   5.511 -0.5291  0.4102  0.4138
  185POPC  H16R21227   2.174   5.490   5.470 -0.9314  1.2011  0.5513
  185POPC  H16S21228   1.992   5.494   5.495 -0.7190 -0.0884 -0.2969
  185POPC  C21721229   2.062   5.308   5.431 -0.3624 -0.1792  0.3990
  185POPC  H17R21230   1.976   5.249   5.469  1.7460 -2.0837  2.5402
  185POPC  H17S21231   2.149   5.241   5.443 -1.6357 -1.7030  1.5586
  185POPC  C21821232   2.037   5.320   5.282  0.9226  0.3673  0.3627
  185POPC  H18R21233   2.130   5.365   5.241  2.8382 -2.5433  1.2045
  185POPC  H18S21234   1.946   5.382   5.264  1.0990  0.6316  0.3936
  185POPC  H18T21235   2.037   5.218   5.237 -0.4114 -0.2718  1.7168
  185POPC   C3321236   2.821   5.294   6.732 -0.2061 -0.3957 -0.4454
  185POPC   H3X21237   2.711   5.278   6.732 -0.2272 -0.3111  0.6833
  185POPC   H3Y21238   2.868   5.194   6.748 -0.0393  0.1567  3.7795
  185POPC   C3421239   2.871   5.363   6.604  0.4940 -0.6102 -0.3912
  185POPC   H4X21240   2.975   5.329   6.585  1.2172  0.6670  1.0452
  185POPC   H4Y21241   2.859   5.471   6.623 -0.2126 -0.9971  1.7071
  185POPC   C3521242   2.777   5.325   6.484 -0.3591  0.4935  0.1226
  185POPC   H5X21243   2.673   5.359   6.504 -0.6982 -0.6801  0.4480
  185POPC   H5Y21244   2.763   5.215   6.473 -0.0568  0.5696 -1.1162
  185POPC   C3621245   2.834   5.391   6.354 -0.0488 -0.2298 -0.3918
  185POPC   H6X21246   2.912   5.329   6.305  1.3224  0.0046  1.3599
  185POPC   H6Y21247   2.882   5.487   6.382  0.1364 -0.3269 -0.3713
  185POPC   C3721248   2.721   5.414   6.259 -0.3922 -0.1497 -0.1330
  185POPC   H7X21249   2.662   5.497   6.301 -0.9741  0.0353 -1.2894
  185POPC   H7Y21250   2.661   5.322   6.244  0.8006 -1.3851  2.1673
  185POPC   C3821251   2.785   5.440   6.121  0.4428  0.5347  0.7771
  185POPC   H8X21252   2.853   5.360   6.085 -1.5848 -1.1007  0.4017
  185POPC   H8Y21253   2.854   5.527   6.126  0.7575  0.3170  0.2467
  185POPC   C3921254   2.683   5.465   6.005 -0.2248 -0.5531  0.4495
  185POPC   H9X21255   2.611   5.548   6.024 -1.5990 -1.4808 -0.5764
  185POPC   H9Y21256   2.620   5.374   6.001  2.6647 -2.6145 -1.3365
  185POPC  C31021257   2.761   5.491   5.880  0.1037  0.3698 -0.1677
  185POPC  H10X21258   2.837   5.412   5.866  1.0387  1.0838  0.7530
  185POPC  H10Y21259   2.821   5.584   5.887 -0.5276  0.8200 -0.5770
  185POPC  C31121260   2.690   5.498   5.743  1.0874  0.5255 -0.4262
  185POPC  H11X21261   2.761   5.538   5.667  0.0097  3.1009 -0.2024
  185POPC  H11Y21262   2.610   5.576   5.752 -0.8873 -1.4668  0.1838
  185POPC  C31221263   2.629   5.366   5.699  0.1858 -0.7202 -0.0809
  185POPC  H12X21264   2.564   5.324   5.779  1.7853 -1.8742  0.6880
  185POPC  H12Y21265   2.709   5.295   5.666 -0.7889 -1.0036 -1.9695
  185POPC  C31321266   2.531   5.379   5.582  0.5012  0.2290  0.3469
  185POPC  H13X21267   2.457   5.458   5.607  0.6871  1.5551 -2.8508
  185POPC  H13Y21268   2.479   5.281   5.576  0.0098  0.4650  0.6536
  185POPC  C31421269   2.597   5.409   5.447 -0.0119  0.2637 -0.3159
  185POPC  H14X21270   2.663   5.324   5.420  1.4010  0.2537  2.7174
  185POPC  H14Y21271   2.670   5.491   5.464 -0.7566  0.5997  1.5530
  185POPC  C31521272   2.496   5.441   5.333 -0.6592  0.0702 -0.6200
  185POPC  H15X21273   2.445   5.536   5.363  0.4918  0.1805  1.1224
  185POPC  H15Y21274   2.426   5.357   5.317  0.1679 -0.1749 -3.6069
  185POPC  C31621275   2.584   5.469   5.205  0.1369  0.3519 -0.7031
  185POPC  H16X21276   2.520   5.539   5.147 -1.6741  1.9218  2.8955
  185POPC  H16Y21277   2.617   5.376   5.154 -0.3525 -0.0106 -0.3650
  185POPC  H16Z21278   2.676   5.528   5.230 -0.5723  2.3890 -2.5973
  186POPC     N21279   4.387   3.838   7.770 -0.7282 -0.1156 -0.1334
  186POPC   C1221280   4.462   3.932   7.669 -0.4315 -0.1400  0.2753
  186POPC  H12A21281   4.448   3.900   7.567  0.0322 -2.6615  0.9430
  186POPC  H12B21282   4.570   3.922   7.676 -0.4417 -1.2329 -0.8029
  186POPC   C1321283   4.245   3.878   7.781  0.2289  0.4453  0.0792
  186POPC  H13A21284   4.196   3.844   7.871 -0.8683  0.5118 -0.4763
  186POPC  H13B21285   4.236   3.985   7.784 -1.3255  0.3239  1.6831
  186POPC  H13C21286   4.173   3.834   7.713 -1.4105  1.3729  1.1465
  186POPC   C1421287   4.394   3.692   7.714  0.3982 -0.4999  0.4967
  186POPC  H14A21288   4.332   3.617   7.761 -1.9283  1.1581  0.2144
  186POPC  H14B21289   4.351   3.693   7.615  0.0595 -3.1721  0.5269
  186POPC  H14C21290   4.499   3.667   7.707  0.2854 -0.7087 -0.6380
  186POPC   C1521291   4.452   3.841   7.902 -1.1470  0.1755 -0.1393
  186POPC  H15A21292   4.552   3.801   7.901 -0.4638  1.7613 -1.6519
  186POPC  H15B21293   4.408   3.768   7.968 -1.1007  0.7125  0.4935
  186POPC  H15C21294   4.441   3.938   7.949 -0.8105  0.2134 -0.1401
  186POPC   C1121295   4.430   4.083   7.664 -0.3886 -0.3256  0.5392
  186POPC  H11A21296   4.499   4.156   7.616 -2.4906  1.9838  0.7868
  186POPC  H11B21297   4.415   4.120   7.768 -0.5235  0.7635  0.1423
  186POPC     P21298   4.303   4.072   7.439 -0.1886  0.2059  0.0860
  186POPC   O1321299   4.403   3.976   7.393 -0.2823  0.0828  1.2443
  186POPC   O1421300   4.316   4.208   7.386  0.3091  0.5197 -0.5163
  186POPC   O1221301   4.310   4.092   7.597  0.1201  0.7349  0.6714
  186POPC   O1121302   4.155   4.007   7.422  0.1237 -0.3897  0.0696
  186POPC    C121303   4.143   3.884   7.348  0.1107 -0.3463 -0.3696
  186POPC    HA21304   4.056   3.839   7.401  1.7954 -0.8472  2.0993
  186POPC    HB21305   4.231   3.817   7.345 -0.0985 -0.6414 -3.3764
  186POPC    C221306   4.103   3.909   7.200  0.2050 -0.1179  0.8472
  186POPC    HS21307   4.035   3.830   7.163 -1.7049  0.6149  2.5846
  186POPC   O2121308   4.226   3.928   7.119 -0.0388  0.7180  0.3176
  186POPC   C2121309   4.264   3.807   7.069 -0.2397 -0.5628  0.4427
  186POPC   O2221310   4.216   3.700   7.111  0.1554  0.4257 -0.7669
  186POPC   C2221311   4.360   3.831   6.952 -0.2817  0.7713 -0.0324
  186POPC   H2R21312   4.424   3.741   6.939  0.2713  0.9611  1.2709
  186POPC   H2S21313   4.409   3.931   6.945 -0.3907  0.7350 -2.5637
  186POPC    C321314   4.008   4.036   7.191  0.3008  0.1820  0.0307
  186POPC    HX21315   4.071   4.124   7.216  1.2596  0.0932 -1.9228
  186POPC    HY21316   3.935   4.025   7.275  0.3026  0.1069  0.0226
  186POPC   O3121317   3.942   4.051   7.057  0.0242  0.7021  0.8532
  186POPC   C3121318   3.828   4.126   7.058 -0.5604 -0.0741 -0.5304
  186POPC   O3221319   3.786   4.193   7.152  0.4197 -0.0994  0.6137
  186POPC   C3221320   3.781   4.136   6.919  0.1509 -0.8243  0.3153
  186POPC   H2X21321   3.858   4.162   6.844 -1.1614 -0.2768 -0.8991
  186POPC   H2Y21322   3.719   4.229   6.915 -1.1683 -1.7101 -0.9731
  186POPC   C2321323   4.265   3.820   6.824 -0.8883  0.5281  0.0320
  186POPC   H3R21324   4.195   3.734   6.830 -0.8555  0.5381  0.6481
  186POPC   H3S21325   4.337   3.811   6.741 -1.5495  0.6311 -0.5672
  186POPC   C2421326   4.189   3.955   6.800  0.1797 -0.1571 -0.9711
  186POPC   H4R21327   4.266   4.035   6.795  2.9731 -2.5732  0.2769
  186POPC   H4S21328   4.119   3.970   6.885  1.4423  2.1177 -0.2187
  186POPC   C2521329   4.106   3.954   6.673 -0.1979 -0.6125  0.4438
  186POPC   H5R21330   4.024   4.028   6.664 -0.4732 -1.1875 -3.6475
  186POPC   H5S21331   4.065   3.851   6.674 -2.2396  0.1602  0.5124
  186POPC   C2621332   4.194   3.986   6.554  1.0451 -0.0945 -0.5595
  186POPC   H6R21333   4.281   3.917   6.553 -0.2898 -1.8882 -0.0278
  186POPC   H6S21334   4.231   4.090   6.561 -0.5045  0.4555  0.0350
  186POPC   C2721335   4.110   3.959   6.427  0.1228  0.1357  0.5625
  186POPC   H7R21336   4.025   4.031   6.421 -0.1299 -0.2618 -1.7751
  186POPC   H7S21337   4.081   3.852   6.437 -1.0570  0.5540  1.9544
  186POPC   C2821338   4.192   3.972   6.294  0.0044  0.3758  0.3197
  186POPC   H8R21339   4.192   4.082   6.277  2.5539  0.3449 -0.2664
  186POPC   H8S21340   4.130   3.924   6.215 -0.4341  1.6865 -0.1569
  186POPC   C2921341   4.332   3.921   6.310 -0.0378 -0.7104  0.2097
  186POPC   H9121342   4.396   3.990   6.367 -1.5267 -0.7527  1.9892
  186POPC  C21021343   4.386   3.812   6.247  0.6730  0.6703 -0.4288
  186POPC  H10121344   4.491   3.786   6.267  0.6057  1.2059  0.7082
  186POPC  C21121345   4.321   3.703   6.163  0.3788 -0.0382 -0.3276
  186POPC  H11R21346   4.212   3.689   6.179  0.5148 -3.3675 -1.6947
  186POPC  H11S21347   4.376   3.609   6.185  0.1562  0.1852  1.3361
  186POPC  C21221348   4.352   3.733   6.018 -0.3281  1.0357 -0.2528
  186POPC  H12R21349   4.324   3.830   5.973  1.9415  1.2615 -1.3401
  186POPC  H12S21350   4.314   3.656   5.948  0.1759 -2.7014  3.1859
  186POPC  C21321351   4.509   3.735   5.993  0.4589  0.0372  0.3516
  186POPC  H13R21352   4.561   3.642   6.024  1.7038  1.3448  2.3712
  186POPC  H13S21353   4.556   3.815   6.053  1.1339 -0.9689  1.1915
  186POPC  C21421354   4.546   3.756   5.844  0.4337 -0.5093 -0.6044
  186POPC  H14R21355   4.534   3.662   5.786 -0.8555 -1.1086  0.5797
  186POPC  H14S21356   4.657   3.768   5.846  0.6611 -2.2880 -0.6384
  186POPC  C21521357   4.492   3.876   5.769 -0.0348 -0.3596 -0.3925
  186POPC  H15R21358   4.525   3.966   5.825  1.3578 -0.4616 -1.0224
  186POPC  H15S21359   4.381   3.869   5.759 -0.1329  0.0251  0.3642
  186POPC  C21621360   4.548   3.890   5.626  0.1790  0.3868  0.0181
  186POPC  H16R21361   4.527   3.791   5.579  0.6158  1.7507 -3.3436
  186POPC  H16S21362   4.659   3.890   5.633  0.1775 -1.3827  0.4492
  186POPC  C21721363   4.495   4.012   5.544 -0.0626  0.4757  0.5807
  186POPC  H17R21364   4.528   4.011   5.438 -1.4916  3.6782 -0.0286
  186POPC  H17S21365   4.546   4.102   5.585  0.8258  1.0966 -1.7265
  186POPC  C21821366   4.343   4.035   5.539  0.8532  0.7331  0.4593
  186POPC  H18R21367   4.305   4.085   5.630  1.0854 -0.9888  1.5403
  186POPC  H18S21368   4.282   3.944   5.518  0.9896  1.2920 -2.9753
  186POPC  H18T21369   4.309   4.088   5.447 -0.0339 -1.5381 -0.6178
  186POPC   C3321370   3.710   4.007   6.871  0.0572  0.9198  0.1155
  186POPC   H3X21371   3.658   3.951   6.952  0.0468 -0.5991 -0.9048
  186POPC   H3Y21372   3.783   3.927   6.847 -2.0796 -1.6302  1.6523
  186POPC   C3421373   3.608   4.034   6.752  0.9288  0.2059  0.2947
  186POPC   H4X21374   3.527   4.103   6.786  0.3803  0.0683 -0.6917
  186POPC   H4Y21375   3.561   3.937   6.725 -0.0278  0.2985  1.5120
  186POPC   C3521376   3.683   4.075   6.623  0.6768 -0.7072  0.9313
  186POPC   H5X21377   3.779   4.017   6.622 -0.1208 -2.0694 -0.2400
  186POPC   H5Y21378   3.706   4.183   6.623  1.0174 -0.6977 -2.4158
  186POPC   C3621379   3.611   4.027   6.504 -0.4605 -0.3299  0.2871
  186POPC   H6X21380   3.510   4.071   6.491  0.4480  1.8720  0.2492
  186POPC   H6Y21381   3.601   3.918   6.485  0.2860 -0.2292 -0.8248
  186POPC   C3721382   3.681   4.083   6.375  0.0223 -0.0381 -0.3253
  186POPC   H7X21383   3.765   4.016   6.347 -0.4265 -1.0870  0.7305
  186POPC   H7Y21384   3.716   4.188   6.384  0.8510 -0.3394  0.0549
  186POPC   C3821385   3.579   4.079   6.258 -0.1810  0.4518 -0.3270
  186POPC   H8X21386   3.477   4.114   6.284 -0.7456 -0.4267 -1.2936
  186POPC   H8Y21387   3.573   3.970   6.241 -0.5765  0.3257  0.5520
  186POPC   C3921388   3.644   4.149   6.135  0.2526 -0.5658  0.5464
  186POPC   H9X21389   3.741   4.105   6.103  0.1532 -0.3193 -0.1249
  186POPC   H9Y21390   3.653   4.259   6.151 -0.7637  0.0983 -2.6277
  186POPC  C31021391   3.561   4.146   6.002 -0.7563 -0.4710  0.7119
  186POPC  H10X21392   3.470   4.209   5.997  0.6646  1.6555 -3.9458
  186POPC  H10Y21393   3.529   4.041   5.981  0.6040 -0.7193 -0.2456
  186POPC  C31121394   3.646   4.194   5.876  0.2954  0.0893  0.5211
  186POPC  H11X21395   3.751   4.161   5.885  0.2113  0.1016  1.5686
  186POPC  H11Y21396   3.644   4.305   5.879 -0.9587  0.0729  4.1566
  186POPC  C31221397   3.594   4.140   5.744  0.2664 -0.8152 -0.7818
  186POPC  H12X21398   3.492   4.181   5.731 -0.2562 -1.4539  1.0311
  186POPC  H12Y21399   3.592   4.030   5.753  1.8501 -0.8729 -0.7772
  186POPC  C31321400   3.685   4.159   5.620 -0.9064 -0.6232 -0.4564
  186POPC  H13X21401   3.789   4.130   5.644 -0.7276 -0.2240 -0.7515
  186POPC  H13Y21402   3.689   4.265   5.587  3.0060 -0.1648  0.9850
  186POPC  C31421403   3.629   4.073   5.504 -0.1086 -0.1399 -0.0350
  186POPC  H14X21404   3.520   4.084   5.486 -1.0517 -0.4845  4.3805
  186POPC  H14Y21405   3.650   3.965   5.519 -0.7240 -0.1819  0.5070
  186POPC  C31521406   3.696   4.106   5.372  0.2389  0.5217 -0.4427
  186POPC  H15X21407   3.806   4.091   5.381  0.0295 -1.9604 -1.1187
  186POPC  H15Y21408   3.697   4.215   5.349  1.0492  0.3823 -1.1404
  186POPC  C31621409   3.634   4.032   5.257  0.5762 -0.3929 -0.4884
  186POPC  H16X21410   3.640   3.922   5.276 -0.1753 -0.4727 -0.6749
  186POPC  H16Y21411   3.698   4.059   5.171 -0.0380  0.2501 -0.7565
  186POPC  H16Z21412   3.526   4.053   5.240  0.2537 -0.7523  0.9744
  187POPC     N21413   1.582   0.890   2.970 -0.3270  0.4655  0.6601
  187POPC   C1221414   1.453   0.913   3.047 -0.1534 -0.2229 -0.1030
  187POPC  H12A21415   1.479   0.975   3.131  0.2205  0.2785 -0.5772
  187POPC  H12B21416   1.420   0.817   3.084  0.5774 -0.5327 -0.2305
  187POPC   C1321417   1.559   0.799   2.852 -0.0652 -0.4221  0.1939
  187POPC  H13A21418   1.644   0.792   2.785  1.5335 -1.5930  2.2389
  187POPC  H13B21419   1.527   0.701   2.885 -1.0756 -0.0786  0.2512
  187POPC  H13C21420   1.487   0.843   2.784  1.9932  0.0585 -1.7916
  187POPC   C1421421   1.648   1.016   2.925  1.0709 -0.5080  0.2440
  187POPC  H14A21422   1.598   1.061   2.841  0.2747  0.6767  1.3080
  187POPC  H14B21423   1.654   1.096   2.998 -0.5223  1.9660 -2.1604
  187POPC  H14C21424   1.748   0.995   2.891  1.4425 -2.5372  2.3408
  187POPC   C1521425   1.683   0.822   3.063  0.7705 -0.5700  0.3047
  187POPC  H15A21426   1.702   0.887   3.147  1.7769  1.7187 -1.5755
  187POPC  H15B21427   1.774   0.818   3.006  0.3980  0.5204 -0.4114
  187POPC  H15C21428   1.645   0.724   3.086 -2.1444  0.0213 -1.3824
  187POPC   C1121429   1.346   1.000   2.983  0.8095 -0.1782 -0.2159
  187POPC  H11A21430   1.313   0.965   2.883  0.4194 -0.3470 -0.0286
  187POPC  H11B21431   1.382   1.104   2.970 -0.8285  0.1513 -2.8439
  187POPC     P21432   1.167   1.116   3.138  0.1917 -0.6193  0.3752
  187POPC   O1321433   1.023   1.129   3.105 -0.1673 -0.1706  0.2587
  187POPC   O1421434   1.252   1.235   3.113 -0.0246 -0.5894  0.1367
  187POPC   O1221435   1.229   0.990   3.072  0.2761  0.1512  0.9212
  187POPC   O1121436   1.189   1.098   3.293 -0.4965 -0.5907 -0.2513
  187POPC    C121437   1.182   0.974   3.359 -0.8482  0.6228  0.1218
  187POPC    HA21438   1.240   0.892   3.311 -3.3526 -1.3212  0.1995
  187POPC    HB21439   1.081   0.927   3.359 -1.3854  1.7393 -0.8186
  187POPC    C221440   1.222   0.979   3.505 -0.1169 -0.1200  0.9880
  187POPC    HS21441   1.225   0.876   3.547  1.4272  0.2887  1.9879
  187POPC   O2121442   1.119   1.061   3.566  0.2219  0.1083  0.6684
  187POPC   C2121443   1.066   1.008   3.674 -0.3316 -0.2506  0.0394
  187POPC   O2221444   1.111   0.911   3.732 -0.0423  0.8842  0.2744
  187POPC   C2221445   0.945   1.092   3.713 -0.0109  0.1422  0.3055
  187POPC   H2R21446   0.863   1.049   3.652  0.1718 -0.5865  0.5628
  187POPC   H2S21447   0.962   1.195   3.676  0.2574  0.6534  1.7599
  187POPC    C321448   1.352   1.052   3.522  0.4433 -0.0109 -0.4771
  187POPC    HX21449   1.344   1.157   3.487  1.6301  0.2270 -0.1123
  187POPC    HY21450   1.423   1.003   3.452  0.2460  1.3806 -1.7031
  187POPC   O3121451   1.393   1.036   3.656  0.3340 -0.0523 -0.0965
  187POPC   C3121452   1.483   1.121   3.698 -0.1026 -0.0714 -0.6775
  187POPC   O3221453   1.514   1.224   3.644 -0.4793 -0.3845 -0.1427
  187POPC   C3221454   1.537   1.081   3.841  0.3167 -0.3708  0.1548
  187POPC   H2X21455   1.605   0.994   3.826  0.4414 -0.6907  2.2982
  187POPC   H2Y21456   1.442   1.052   3.891 -0.0383  0.8728  0.2391
  187POPC   C2321457   0.915   1.095   3.865  0.1965  0.1849  0.1763
  187POPC   H3R21458   0.891   0.994   3.904 -0.6130  0.6098  0.8204
  187POPC   H3S21459   0.829   1.158   3.896 -0.1113 -1.4343  2.8342
  187POPC   C2421460   1.034   1.157   3.932 -0.0772 -0.0641  0.6760
  187POPC   H4R21461   1.115   1.080   3.937  1.2853  1.2472 -0.3747
  187POPC   H4S21462   1.015   1.190   4.037  2.8023 -2.0909  1.9992
  187POPC   C2521463   1.107   1.278   3.864  0.4057 -0.0449 -0.2077
  187POPC   H5R21464   1.026   1.349   3.835  0.6550  1.1067  1.7048
  187POPC   H5S21465   1.161   1.251   3.771  2.5499  1.4877  0.5067
  187POPC   C2621466   1.196   1.364   3.954  0.3250 -0.3570  0.0210
  187POPC   H6R21467   1.270   1.299   4.005  0.2519 -0.3753  0.1031
  187POPC   H6S21468   1.143   1.416   4.037 -1.0665 -1.5340 -0.0907
  187POPC   C2721469   1.276   1.472   3.877 -0.2468  0.1184  0.0362
  187POPC   H7R21470   1.215   1.523   3.800  1.9933 -0.2919 -2.1184
  187POPC   H7S21471   1.359   1.435   3.813  1.7120  2.0290  1.3276
  187POPC   C2821472   1.351   1.568   3.973  0.7113 -0.4552 -0.0829
  187POPC   H8R21473   1.418   1.512   4.042 -1.9350  0.2195  3.3009
  187POPC   H8S21474   1.274   1.603   4.045  0.4768 -1.0359 -0.0470
  187POPC   C2921475   1.397   1.695   3.910  0.2609  0.0379  0.4470
  187POPC   H9121476   1.315   1.749   3.862 -2.1021 -2.4697  1.3981
  187POPC  C21021477   1.517   1.749   3.924  0.2293 -0.7100 -0.1406
  187POPC  H10121478   1.539   1.846   3.876 -0.9489 -0.5748 -0.4316
  187POPC  C21121479   1.635   1.703   4.007 -0.2373 -0.0872  0.2964
  187POPC  H11R21480   1.726   1.717   3.945 -1.0942 -1.1130 -1.2420
  187POPC  H11S21481   1.628   1.594   4.027 -1.2159 -0.4618 -1.7931
  187POPC  C21221482   1.647   1.791   4.138 -0.1390  0.1209  0.2075
  187POPC  H12R21483   1.547   1.797   4.187 -0.7261  1.2133 -1.0459
  187POPC  H12S21484   1.657   1.896   4.103 -1.5539  0.7568  1.6172
  187POPC  C21321485   1.747   1.746   4.244 -0.4474  0.4393  0.3556
  187POPC  H13R21486   1.808   1.662   4.203  0.1506 -0.1884  2.3874
  187POPC  H13S21487   1.699   1.710   4.338  0.1522 -1.5875 -0.0622
  187POPC  C21421488   1.850   1.860   4.280  0.9790  0.1464 -0.0396
  187POPC  H14R21489   1.800   1.945   4.330 -0.5310 -0.3454 -0.6191
  187POPC  H14S21490   1.902   1.892   4.187  2.1654 -0.0418  0.5496
  187POPC  C21521491   1.956   1.793   4.368  0.4224 -0.4524 -0.4155
  187POPC  H15R21492   1.995   1.700   4.322  1.3933 -0.4573  0.3811
  187POPC  H15S21493   1.912   1.762   4.466  1.5522 -1.1162 -0.1052
  187POPC  C21621494   2.068   1.892   4.410 -0.0869 -0.0508 -0.0269
  187POPC  H16R21495   2.051   1.950   4.504 -0.2322  0.5996 -0.4481
  187POPC  H16S21496   2.080   1.971   4.333 -0.5093 -0.6124 -0.6802
  187POPC  C21721497   2.199   1.822   4.433 -0.3999  0.6956 -0.2445
  187POPC  H17R21498   2.219   1.743   4.357 -0.5974  0.0808  0.3248
  187POPC  H17S21499   2.194   1.762   4.527  2.4759 -1.0598 -1.0662
  187POPC  C21821500   2.312   1.922   4.445 -0.1472  0.1840  0.3913
  187POPC  H18R21501   2.408   1.868   4.459 -0.8418 -0.7100  1.9727
  187POPC  H18S21502   2.290   1.985   4.534  1.3536  1.5240 -0.1360
  187POPC  H18T21503   2.317   1.986   4.355 -1.5015  0.5378  0.5457
  187POPC   C3321504   1.587   1.201   3.914 -0.5687  0.1889 -0.2398
  187POPC   H3X21505   1.512   1.282   3.910 -2.4461 -1.2190  2.5525
  187POPC   H3Y21506   1.680   1.254   3.884 -1.1987  0.8755 -0.9878
  187POPC   C3421507   1.581   1.175   4.067 -0.0153  0.1376 -0.7844
  187POPC   H4X21508   1.652   1.091   4.084 -0.1254  0.5923  2.6467
  187POPC   H4Y21509   1.486   1.134   4.107  0.8692  0.4348  1.8209
  187POPC   C3521510   1.643   1.285   4.154  0.2281  0.4763  0.1983
  187POPC   H5X21511   1.663   1.386   4.112  1.0548  0.4625  0.5298
  187POPC   H5Y21512   1.735   1.250   4.206 -0.8767 -1.0177  1.2510
  187POPC   C3621513   1.564   1.313   4.282  0.0967  0.3989  0.7593
  187POPC   H6X21514   1.522   1.220   4.327 -1.6230  0.2940 -0.8998
  187POPC   H6Y21515   1.473   1.366   4.247 -0.4753 -1.0440 -0.0390
  187POPC   C3721516   1.648   1.389   4.386 -1.1203 -0.7467 -1.0362
  187POPC   H7X21517   1.673   1.489   4.342 -0.5387  0.6309  2.1387
  187POPC   H7Y21518   1.747   1.343   4.408 -0.4639  1.9412  2.5492
  187POPC   C3821519   1.567   1.439   4.511  0.1978  0.0013  0.0209
  187POPC   H8X21520   1.565   1.357   4.586 -0.2833 -1.6236 -1.6975
  187POPC   H8Y21521   1.460   1.445   4.484  0.1960 -2.5426 -0.7510
  187POPC   C3921522   1.608   1.574   4.576 -0.2382 -0.1656 -0.1742
  187POPC   H9X21523   1.522   1.599   4.642  0.4967  0.4910  0.5684
  187POPC   H9Y21524   1.610   1.660   4.505 -0.7567 -0.5687 -0.6890
  187POPC  C31021525   1.746   1.574   4.646 -0.7648  0.3383 -0.3264
  187POPC  H10X21526   1.818   1.551   4.564 -1.7018  2.2784 -1.7705
  187POPC  H10Y21527   1.743   1.481   4.707 -1.0110  0.6088  0.0806
  187POPC  C31121528   1.780   1.687   4.737  0.6370  0.0476  0.6828
  187POPC  H11X21529   1.761   1.774   4.671  0.6008 -1.1227 -0.9140
  187POPC  H11Y21530   1.884   1.685   4.776  0.9616 -0.9682 -0.1856
  187POPC  C31221531   1.691   1.709   4.855 -0.1280  0.7205 -0.1164
  187POPC  H12X21532   1.584   1.717   4.825  0.0209 -0.0510 -0.8912
  187POPC  H12Y21533   1.720   1.805   4.903  1.3205 -0.2588  1.0560
  187POPC  C31321534   1.711   1.599   4.958  0.5235 -0.5985  0.3396
  187POPC  H13X21535   1.813   1.556   4.965  0.1057 -1.3262  2.7316
  187POPC  H13Y21536   1.647   1.520   4.913 -2.2883  1.6912  0.0290
  187POPC  C31421537   1.662   1.629   5.100 -0.1538  0.6806  0.7676
  187POPC  H14X21538   1.553   1.649   5.103 -0.3500 -0.3607  0.9238
  187POPC  H14Y21539   1.721   1.707   5.153 -0.9501  0.8809  1.3806
  187POPC  C31521540   1.676   1.491   5.170  0.5279 -0.5222 -0.0888
  187POPC  H15X21541   1.779   1.459   5.194  0.9602  0.1592 -0.9901
  187POPC  H15Y21542   1.629   1.411   5.108  0.4844 -1.5332  1.1956
  187POPC  C31621543   1.610   1.492   5.302 -0.7970  0.4751 -0.9812
  187POPC  H16X21544   1.651   1.566   5.374 -1.6012 -0.2805  0.2961
  187POPC  H16Y21545   1.643   1.398   5.350 -0.3342  0.7992 -0.6579
  187POPC  H16Z21546   1.500   1.509   5.296 -0.8217 -0.0478 -2.3897
  188POPC     N21547   0.896   1.710   2.870  0.1704 -1.2620  0.0050
  188POPC   C1221548   0.780   1.696   2.970  0.1333 -0.2719  0.2901
  188POPC  H12A21549   0.751   1.791   3.014  0.8849 -0.4107  1.1167
  188POPC  H12B21550   0.825   1.635   3.047  0.6106  1.3066  1.3083
  188POPC   C1321551   0.929   1.576   2.810  0.3803  0.5764 -0.4229
  188POPC  H13A21552   0.840   1.543   2.758  0.2008  2.1564 -1.1883
  188POPC  H13B21553   1.014   1.575   2.744  1.5949  1.0157  1.0933
  188POPC  H13C21554   0.956   1.506   2.888  2.0660 -0.9472 -2.2748
  188POPC   C1421555   0.865   1.818   2.769  0.0204  0.3283 -0.6220
  188POPC  H14A21556   0.783   1.791   2.703 -1.0320  0.8663  0.4389
  188POPC  H14B21557   0.858   1.916   2.813 -1.8351 -0.3308  0.6697
  188POPC  H14C21558   0.938   1.823   2.689 -0.7298 -0.5267 -1.3851
  188POPC   C1521559   1.017   1.756   2.940  0.0004  0.2543  0.4206
  188POPC  H15A21560   1.107   1.769   2.882  0.9010  3.3269  2.2536
  188POPC  H15B21561   1.039   1.695   3.027  0.2217  0.3755  0.4515
  188POPC  H15C21562   1.003   1.855   2.981 -0.7943  0.7464 -0.9833
  188POPC   C1121563   0.652   1.625   2.910 -0.6627  0.1322 -0.6692
  188POPC  H11A21564   0.600   1.597   3.005  1.0864 -0.6301  0.1044
  188POPC  H11B21565   0.681   1.525   2.871 -1.2764 -0.3973  0.1924
  188POPC     P21566   0.507   1.836   2.882  0.1849 -0.0127 -0.3051
  188POPC   O1321567   0.359   1.830   2.870  0.4468  0.0028  0.1709
  188POPC   O1421568   0.568   1.943   2.801  0.3451  0.3112 -0.6551
  188POPC   O1221569   0.572   1.700   2.822  0.0346 -0.1396  0.5096
  188POPC   O1121570   0.552   1.834   3.025 -0.3405  0.4709 -0.6740
  188POPC    C121571   0.537   1.940   3.116  0.2299 -0.2366  0.0872
  188POPC    HA21572   0.431   1.968   3.130 -0.0398 -1.3525  0.3847
  188POPC    HB21573   0.586   2.032   3.079 -1.0975  0.8047  0.8340
  188POPC    C221574   0.609   1.910   3.249  0.0088  0.1422 -0.2341
  188POPC    HS21575   0.715   1.896   3.219 -0.0910  0.4466 -0.7284
  188POPC   O2121576   0.546   1.795   3.311 -0.0308 -0.2911  0.4455
  188POPC   C2121577   0.616   1.685   3.305 -1.0859  0.7257 -0.0905
  188POPC   O2221578   0.732   1.676   3.265 -0.0331  0.3511  0.9363
  188POPC   C2221579   0.532   1.570   3.368  0.0498  0.2918  0.0600
  188POPC   H2R21580   0.489   1.507   3.287 -0.4618  1.5223 -0.6711
  188POPC   H2S21581   0.441   1.609   3.419  0.3288  0.7165  0.2370
  188POPC    C321582   0.613   2.033   3.346  0.3911 -0.4190 -0.0181
  188POPC    HX21583   0.515   2.079   3.370  1.8662  2.3093  1.2344
  188POPC    HY21584   0.670   2.103   3.280  0.6939 -2.7916 -2.4543
  188POPC   O3121585   0.683   2.001   3.471  0.0725 -0.5500  0.1139
  188POPC   C3121586   0.685   2.111   3.550  0.4823  0.2057 -0.2361
  188POPC   O3221587   0.649   2.224   3.516 -0.2725 -0.3674  0.6188
  188POPC   C3221588   0.720   2.074   3.700 -0.9524  0.0929  0.8912
  188POPC   H2X21589   0.830   2.078   3.707 -0.9576  1.2163  0.4503
  188POPC   H2Y21590   0.696   1.966   3.710 -1.0231 -0.1439 -1.3439
  188POPC   C2321591   0.620   1.484   3.459 -0.4404 -0.3885 -0.5740
  188POPC   H3R21592   0.664   1.541   3.543 -2.3312  0.8044 -0.3361
  188POPC   H3S21593   0.704   1.440   3.400  0.4035 -0.0895  0.3891
  188POPC   C2421594   0.533   1.373   3.510  0.4489  0.2872  0.4410
  188POPC   H4R21595   0.498   1.308   3.427 -1.9809  1.1212  0.7357
  188POPC   H4S21596   0.447   1.427   3.554 -0.5364 -0.4916 -0.4575
  188POPC   C2521597   0.613   1.295   3.621 -0.0186  0.0717  0.0623
  188POPC   H5R21598   0.635   1.359   3.709  0.3336  0.6658 -0.4526
  188POPC   H5S21599   0.707   1.250   3.581 -0.5707 -0.1667 -0.9983
  188POPC   C2621600   0.534   1.177   3.686 -0.6219 -0.4142  0.3898
  188POPC   H6R21601   0.588   1.152   3.780  1.1518 -2.7971 -1.1436
  188POPC   H6S21602   0.545   1.086   3.625  0.5796 -0.4616  0.6537
  188POPC   C2721603   0.391   1.203   3.728  0.0867 -0.1380  0.6461
  188POPC   H7R21604   0.328   1.111   3.720 -0.3423  0.0527  1.7345
  188POPC   H7S21605   0.342   1.278   3.663 -0.0027 -1.3661 -0.7732
  188POPC   C2821606   0.388   1.256   3.874  0.4595 -0.1286 -0.1095
  188POPC   H8R21607   0.290   1.303   3.895 -0.6389 -2.8632  1.3498
  188POPC   H8S21608   0.468   1.334   3.881  0.6805 -0.2610 -0.9704
  188POPC   C2921609   0.420   1.150   3.970 -0.7721 -0.1479  0.4114
  188POPC   H9121610   0.381   1.054   3.936 -0.5973  0.0014 -0.2225
  188POPC  C21021611   0.499   1.160   4.077 -0.8615 -0.0106 -0.2031
  188POPC  H10121612   0.522   1.072   4.139  1.6228  1.1980  0.7209
  188POPC  C21121613   0.566   1.277   4.134  0.2432  0.0594  0.0525
  188POPC  H11R21614   0.557   1.267   4.244 -0.4735 -1.4858 -0.1232
  188POPC  H11S21615   0.520   1.374   4.109 -0.2733 -0.6426 -1.9618
  188POPC  C21221616   0.712   1.278   4.084 -0.5376  0.7041  0.9794
  188POPC  H12R21617   0.701   1.307   3.977  0.1429 -1.3215  0.3159
  188POPC  H12S21618   0.774   1.185   4.083 -0.7336  0.4550 -2.5496
  188POPC  C21321619   0.795   1.383   4.151 -0.2532 -0.2651  0.2072
  188POPC  H13R21620   0.734   1.475   4.160 -0.4127 -0.0983 -2.1851
  188POPC  H13S21621   0.878   1.407   4.082 -0.7590 -1.4062 -0.8241
  188POPC  C21421622   0.851   1.328   4.291 -0.1631  0.1107  0.0615
  188POPC  H14R21623   0.874   1.219   4.287 -1.7038 -0.2568  0.4327
  188POPC  H14S21624   0.771   1.336   4.368  2.4465 -0.1458  2.9765
  188POPC  C21521625   0.974   1.399   4.340 -0.8905 -0.0704  0.3407
  188POPC  H15R21626   0.939   1.502   4.360  1.6621  1.0611 -0.5980
  188POPC  H15S21627   1.054   1.408   4.264  0.3114  0.9179  1.6800
  188POPC  C21621628   1.031   1.330   4.466 -0.0136 -0.3093 -0.5603
  188POPC  H16R21629   1.079   1.233   4.443  0.2853 -0.3167  0.0811
  188POPC  H16S21630   0.937   1.324   4.525 -0.6044  1.6880 -1.2041
  188POPC  C21721631   1.136   1.407   4.541  0.5962  0.3480 -0.6698
  188POPC  H17R21632   1.093   1.508   4.552 -3.0947 -1.0840 -0.4820
  188POPC  H17S21633   1.220   1.406   4.468  0.9978 -0.1898 -0.2082
  188POPC  C21821634   1.167   1.354   4.690  0.5008 -0.8927 -0.0124
  188POPC  H18R21635   1.259   1.405   4.724 -1.1192  1.2513  1.3234
  188POPC  H18S21636   1.176   1.244   4.675 -2.2278 -1.2658  0.4914
  188POPC  H18T21637   1.093   1.380   4.768  0.4940  0.0018 -0.3129
  188POPC   C3321638   0.652   2.155   3.807 -0.5746 -0.4510  0.6934
  188POPC   H3X21639   0.548   2.117   3.816 -1.6358  2.2264  0.5626
  188POPC   H3Y21640   0.649   2.265   3.791 -0.9115 -0.3583  1.3616
  188POPC   C3421641   0.724   2.128   3.940 -0.2064 -0.3285  0.4940
  188POPC   H4X21642   0.821   2.182   3.936  0.0045 -0.5950  1.5482
  188POPC   H4Y21643   0.734   2.018   3.953 -3.1255 -0.4747  2.6014
  188POPC   C3521644   0.654   2.175   4.061  0.2808 -0.4912 -0.4922
  188POPC   H5X21645   0.562   2.118   4.087  1.0778 -1.0107  1.3971
  188POPC   H5Y21646   0.614   2.278   4.052 -0.7101 -0.8857 -0.7463
  188POPC   C3621647   0.738   2.170   4.188  0.5112  0.0879  0.1404
  188POPC   H6X21648   0.832   2.228   4.176  0.7003  0.0338  1.2291
  188POPC   H6Y21649   0.769   2.063   4.189 -2.0467 -0.7853 -2.2641
  188POPC   C3721650   0.659   2.205   4.318  0.5743 -0.5998  0.6825
  188POPC   H7X21651   0.572   2.136   4.324  0.0001  0.1754  1.3621
  188POPC   H7Y21652   0.618   2.307   4.308  1.7618 -0.2079 -0.3562
  188POPC   C3821653   0.744   2.210   4.445 -0.0622  0.3661  0.2936
  188POPC   H8X21654   0.689   2.278   4.513  0.9708  0.6039  0.9244
  188POPC   H8Y21655   0.839   2.262   4.418 -1.0057  1.7174 -0.5030
  188POPC   C3921656   0.774   2.069   4.502 -0.0390 -0.4404  0.0447
  188POPC   H9X21657   0.826   2.005   4.428 -0.1896 -0.0740 -0.3804
  188POPC   H9Y21658   0.673   2.031   4.528 -0.8572  1.2275 -0.5590
  188POPC  C31021659   0.874   2.071   4.627 -0.2718  1.0001 -0.3205
  188POPC  H10X21660   0.856   2.152   4.701  0.6699 -0.9969  2.2300
  188POPC  H10Y21661   0.978   2.083   4.591 -1.1498  0.1783 -3.4439
  188POPC  C31121662   0.864   1.940   4.711  0.0743 -0.2210  1.0607
  188POPC  H11X21663   0.893   1.854   4.647  0.1296  3.2383 -4.1546
  188POPC  H11Y21664   0.754   1.934   4.726 -0.2310  0.6167 -0.6547
  188POPC  C31221665   0.930   1.975   4.847 -0.5732  0.2721 -0.3564
  188POPC  H12X21666   0.858   2.053   4.881 -1.3770 -1.2593  1.6719
  188POPC  H12Y21667   1.025   2.031   4.835 -0.2896  0.5099  2.4372
  188POPC  C31321668   0.951   1.858   4.940 -0.5085  0.2015  0.0307
  188POPC  H13X21669   0.982   1.895   5.040  2.2645 -1.0336 -0.2901
  188POPC  H13Y21670   1.035   1.796   4.903  0.2322  0.9265  0.4864
  188POPC  C31421671   0.830   1.764   4.962  0.1357  0.0537  0.6923
  188POPC  H14X21672   0.861   1.680   5.028 -1.5837 -0.8418  0.4078
  188POPC  H14Y21673   0.802   1.710   4.869  0.1545  0.3948  0.4833
  188POPC  C31521674   0.704   1.822   5.018 -0.3164  0.0007  0.0693
  188POPC  H15X21675   0.634   1.736   5.027 -0.6878 -0.2544 -3.7051
  188POPC  H15Y21676   0.658   1.888   4.941 -0.8608  1.4111  1.5386
  188POPC  C31621677   0.716   1.906   5.148 -0.5313 -0.4944 -0.3651
  188POPC  H16X21678   0.621   1.905   5.205 -1.2326 -0.3430 -1.4810
  188POPC  H16Y21679   0.754   2.008   5.125  1.3149 -1.4458 -1.7836
  188POPC  H16Z21680   0.796   1.858   5.208  0.7076 -0.7749 -2.1489
  189SAPI   C1221681   2.806   5.009   7.379  0.5437  0.2871  0.0122
  189SAPI    H221682   2.805   5.050   7.275  1.1827 -1.4411 -0.7119
  189SAPI    O221683   2.709   5.089   7.436  0.3391 -0.4081 -0.4518
  189SAPI   HO221684   2.754   5.172   7.454 -2.2103  1.2608 -1.1567
  189SAPI   C1321685   2.779   4.855   7.369 -0.4106  0.3056 -0.2528
  189SAPI    H321686   2.867   4.810   7.317  0.4240  0.6868  0.7771
  189SAPI    O321687   2.661   4.824   7.299 -0.4450  0.0874 -0.3087
  189SAPI   HO321688   2.692   4.773   7.224 -0.6526  0.2796 -0.5271
  189SAPI   C1421689   2.771   4.812   7.515 -0.7137  0.8764 -0.2438
  189SAPI    H421690   2.683   4.859   7.563 -1.1022 -0.8057  0.7897
  189SAPI    O421691   2.739   4.668   7.528  0.1548 -0.0858 -0.0129
  189SAPI   HO421692   2.648   4.649   7.506  0.4285 -1.0099 -0.3976
  189SAPI   C1521693   2.883   4.859   7.608  0.2348  0.7981 -0.0804
  189SAPI    H521694   2.968   4.790   7.591 -0.6984 -0.1612 -1.1229
  189SAPI    O521695   2.849   4.852   7.749  0.3850 -0.7806  0.1919
  189SAPI   HO521696   2.770   4.903   7.770  1.6132  0.2778  2.5975
  189SAPI   C1621697   2.962   4.990   7.577  0.4339  0.5834  0.2022
  189SAPI    H621698   2.911   5.075   7.628 -2.8273 -0.7131 -0.6226
  189SAPI    O621699   3.098   4.988   7.620  0.2155  0.2048 -0.1974
  189SAPI   HO621700   3.151   5.048   7.567  1.8765 -0.0302  1.1274
  189SAPI   C1121701   2.949   5.025   7.425  0.8597 -0.6825  0.2007
  189SAPI    H121702   3.009   4.945   7.378  1.2202 -1.2126  1.5112
  189SAPI     P21703   3.140   5.191   7.319  0.2015 -0.4141 -0.0113
  189SAPI   O1321704   3.243   5.161   7.417  0.2489  0.6585 -0.0178
  189SAPI   O1421705   3.134   5.328   7.266  0.1990  0.1184 -0.4641
  189SAPI   O1221706   2.996   5.159   7.389 -0.0331  0.6326  0.2975
  189SAPI   O1121707   3.145   5.090   7.203  0.5572 -0.6565 -0.4202
  189SAPI    C121708   3.107   5.143   7.073 -0.1650  0.8375 -0.0555
  189SAPI    HA21709   3.002   5.178   7.066 -0.4965  0.2549  1.5894
  189SAPI    HB21710   3.172   5.221   7.030  2.4704 -2.0666 -1.7782
  189SAPI    C221711   3.122   5.027   6.974  0.4528  0.4055  0.9822
  189SAPI    HS21712   3.217   4.978   7.005  0.1873  0.5343  2.0291
  189SAPI   O2121713   3.117   5.069   6.841  0.4112  0.6092 -0.5862
  189SAPI   C2121714   3.158   4.987   6.743 -0.5197 -0.4559 -0.1556
  189SAPI   O2221715   3.191   4.873   6.752  0.6737 -0.6263 -0.1204
  189SAPI   C2221716   3.168   5.064   6.611  0.5206 -0.4314 -1.0728
  189SAPI   H2R21717   3.065   5.095   6.585 -0.7093 -1.5082  2.0777
  189SAPI   H2S21718   3.239   5.148   6.630 -0.8268  0.0168  2.8640
  189SAPI    C321719   3.009   4.911   7.004 -0.2600 -0.0532  0.4008
  189SAPI    HX21720   3.005   4.892   7.113 -2.1654  1.2383  0.6089
  189SAPI    HY21721   3.027   4.814   6.952  0.4455 -0.7661  1.9074
  189SAPI   O3121722   2.874   4.959   6.972 -0.6671 -0.3675  0.0350
  189SAPI   C3121723   2.830   4.923   6.851  0.0461  0.2094  0.1184
  189SAPI   O3221724   2.891   4.869   6.762 -0.0440  0.9682  0.6419
  189SAPI   C3221725   2.681   4.949   6.849 -0.0845 -0.5423 -0.1517
  189SAPI   H2X21726   2.668   5.059   6.843  1.9500 -0.2562 -0.2441
  189SAPI   H2Y21727   2.643   4.909   6.945 -2.2592 -0.1384 -0.7979
  189SAPI   C2321728   3.215   4.973   6.493 -0.5113 -0.6310  0.1922
  189SAPI   H3R21729   3.321   4.949   6.516  0.3852 -0.3449 -3.0692
  189SAPI   H3S21730   3.237   5.032   6.402  2.1597 -0.8040  0.6630
  189SAPI   C2421731   3.126   4.859   6.446 -0.3531  0.2123 -0.5811
  189SAPI   H4R21732   3.142   4.778   6.521  1.1607  0.5563 -0.5003
  189SAPI   H4S21733   3.184   4.811   6.365  2.7682 -0.8352  2.0206
  189SAPI   C2521734   2.982   4.886   6.428  0.5179  0.2167  0.2511
  189SAPI   H5R21735   2.923   4.862   6.517 -1.1991 -4.3579 -1.7695
  189SAPI   C2621736   2.930   4.922   6.311  0.1997 -0.5751 -0.0727
  189SAPI   H6R21737   2.824   4.951   6.317 -0.1106 -1.6321 -0.3481
  189SAPI   C2721738   3.014   4.958   6.191  0.1931 -0.2578  0.7906
  189SAPI   H7R21739   3.011   4.872   6.120  0.3748  1.2793 -1.1380
  189SAPI   H7S21740   3.124   4.945   6.197  0.1914 -1.1331 -0.5445
  189SAPI   C2821741   2.976   5.092   6.131  0.4104 -0.3492  0.3799
  189SAPI   H8R21742   2.922   5.168   6.190 -0.8952  0.0519 -1.2496
  189SAPI   C2921743   3.008   5.121   6.006  0.9955 -0.2511  0.6527
  189SAPI   H9R21744   2.977   5.218   5.965  0.8039 -0.7193 -0.3380
  189SAPI  C21021745   3.093   5.048   5.900 -0.3340 -0.5333 -0.1452
  189SAPI  H10R21746   3.080   5.101   5.803 -0.8666 -2.1951 -1.0168
  189SAPI  H10S21747   3.062   4.942   5.888 -0.9316 -0.4105  0.2620
  189SAPI  C21121748   3.242   5.058   5.935  1.0558 -0.2799 -0.2338
  189SAPI  H11R21749   3.262   5.076   6.042 -0.6322 -0.3265  0.1189
  189SAPI  C21221750   3.347   5.056   5.851 -0.3252  0.4746  0.6897
  189SAPI  H12R21751   3.445   5.065   5.900  0.5457  1.0492 -1.0926
  189SAPI  C21321752   3.341   5.027   5.700 -1.1618  0.5045  0.2505
  189SAPI  H13R21753   3.238   5.048   5.664 -1.3019 -0.8574 -0.2086
  189SAPI  H13S21754   3.347   4.918   5.679 -0.3532  0.5047  0.4455
  189SAPI  C21421755   3.447   5.092   5.616  0.9117 -0.1455 -0.3742
  189SAPI  H14R21756   3.553   5.085   5.646  1.0960  0.9915 -0.6982
  189SAPI  C21521757   3.419   5.189   5.521 -0.3669  0.6245 -0.9465
  189SAPI  H15R21758   3.504   5.237   5.471 -0.5480  0.9978 -0.9025
  189SAPI  C21621759   3.284   5.246   5.471 -1.0680 -0.2804 -1.0055
  189SAPI  H16R21760   3.206   5.180   5.514  0.3309  0.3260  2.8915
  189SAPI  H16S21761   3.274   5.258   5.361 -0.7450 -1.5834 -1.1940
  189SAPI  C21721762   3.261   5.391   5.532  0.6383 -0.4705  0.2560
  189SAPI  H17R21763   3.349   5.456   5.515  0.9532 -1.5799 -3.2848
  189SAPI  H17S21764   3.235   5.377   5.639 -2.0785 -0.6836 -0.3490
  189SAPI  C21821765   3.139   5.461   5.472  0.0986 -0.2161  0.2043
  189SAPI  H18R21766   3.111   5.532   5.553 -1.1782 -0.1470 -0.2744
  189SAPI  H18S21767   3.055   5.388   5.471 -2.4716  2.5960 -0.6158
  189SAPI  C21921768   3.149   5.523   5.329 -0.1507  0.1183 -0.1473
  189SAPI  H19R21769   3.195   5.452   5.257  1.7081  0.4038  0.7060
  189SAPI  H19S21770   3.223   5.603   5.349  0.2727 -0.6471  1.5324
  189SAPI  C22021771   3.023   5.598   5.278  0.9162 -0.2905 -0.3287
  189SAPI  H20R21772   3.042   5.625   5.172 -0.5353 -1.4333 -0.9155
  189SAPI  H20S21773   3.000   5.688   5.338  0.9581  0.0535 -0.8165
  189SAPI  H20T21774   2.927   5.542   5.285  0.3646  0.4702 -1.4802
  189SAPI   C3321775   2.605   4.883   6.734  0.4669  0.3020 -0.5280
  189SAPI   H3X21776   2.513   4.841   6.781  1.2638 -2.1150 -0.9972
  189SAPI   H3Y21777   2.662   4.795   6.697  1.4066  1.0348 -0.8776
  189SAPI   C3421778   2.590   4.978   6.621  0.2150  0.4144  0.4409
  189SAPI   H4X21779   2.695   5.011   6.606  1.5961 -2.4594  2.8574
  189SAPI   H4Y21780   2.524   5.063   6.650 -2.3340 -1.2592 -0.1146
  189SAPI   C3521781   2.538   4.915   6.490 -0.3408 -0.6133  0.0104
  189SAPI   H5X21782   2.434   4.879   6.504  0.1162 -2.5766 -1.2818
  189SAPI   H5Y21783   2.600   4.826   6.465 -0.4060 -0.1343 -2.0459
  189SAPI   C3621784   2.551   5.021   6.380 -0.7972 -0.0698 -0.8189
  189SAPI   H6X21785   2.658   5.043   6.363 -0.2031 -2.0033  0.0532
  189SAPI   H6Y21786   2.505   5.119   6.405 -0.1362  0.6834 -2.4358
  189SAPI   C3721787   2.476   4.981   6.252 -0.2435 -0.2932  0.0162
  189SAPI   H7X21788   2.370   4.971   6.282 -0.5032  1.8211 -0.0506
  189SAPI   H7Y21789   2.516   4.882   6.219 -1.4658 -0.9170  0.3497
  189SAPI   C3821790   2.489   5.088   6.140  0.9984  0.2720 -0.5593
  189SAPI   H8X21791   2.596   5.111   6.127  0.9893  1.7102  1.4697
  189SAPI   H8Y21792   2.425   5.171   6.177 -0.2115 -1.0241  0.3848
  189SAPI   C3921793   2.440   5.049   6.001  0.0781  0.1089  0.2698
  189SAPI   H9X21794   2.508   4.977   5.951 -1.5699 -1.3047 -0.0185
  189SAPI   H9Y21795   2.423   5.137   5.936 -0.3926  0.5069  0.9200
  189SAPI  C31021796   2.308   4.973   6.007 -0.5229 -0.2775  0.3309
  189SAPI  H10X21797   2.233   5.028   6.067 -0.6102  0.1438 -0.1511
  189SAPI  H10Y21798   2.333   4.883   6.067  2.2655  0.7419  0.8533
  189SAPI  C31121799   2.270   4.926   5.861  1.2221  0.2019  0.5172
  189SAPI  H11X21800   2.183   4.859   5.872  1.6233 -0.7644 -1.7869
  189SAPI  H11Y21801   2.357   4.866   5.829  0.7940  0.1932 -0.6870
  189SAPI  C31221802   2.238   5.045   5.768 -0.1001  0.2781 -0.4712
  189SAPI  H12X21803   2.313   5.126   5.763  0.3869 -0.0018  1.4546
  189SAPI  H12Y21804   2.140   5.090   5.795 -1.0468 -2.6658  1.6207
  189SAPI  C31321805   2.229   4.994   5.617  0.1644  0.6595 -0.3025
  189SAPI  H13X21806   2.209   5.088   5.561 -0.3364  0.3016 -0.7360
  189SAPI  H13Y21807   2.143   4.925   5.601  0.6383 -0.3099  1.0686
  189SAPI  C31421808   2.350   4.915   5.565 -0.3797  0.5623  0.3879
  189SAPI  H14X21809   2.332   4.902   5.456 -0.2984 -1.1410  0.5507
  189SAPI  H14Y21810   2.353   4.812   5.607 -0.7293 -0.2199 -1.3964
  189SAPI  C31521811   2.484   4.990   5.583 -0.1385  0.7060  0.1942
  189SAPI  H15X21812   2.482   5.021   5.690 -1.9544 -0.1614  0.4631
  189SAPI  H15Y21813   2.490   5.072   5.509 -0.9440  0.9081  0.3342
  189SAPI  C31621814   2.610   4.907   5.560  1.0102 -0.1956  0.5280
  189SAPI  H16X21815   2.618   4.884   5.451  0.4010 -2.3086  0.8755
  189SAPI  H16Y21816   2.618   4.807   5.608 -0.1627 -1.3420 -1.5100
  189SAPI  C31721817   2.733   4.993   5.608 -0.0854 -0.1673  0.4106
  189SAPI  H17X21818   2.717   5.009   5.716  3.8684  1.1188  0.9758
  189SAPI  H17Y21819   2.720   5.092   5.560 -0.6780 -1.0533 -1.3586
  189SAPI  C31821820   2.860   4.931   5.590 -0.1456 -0.3445 -0.5215
  189SAPI  H18X21821   2.862   4.826   5.625  0.9705  0.3141  1.5677
  189SAPI  H18Y21822   2.942   4.993   5.632  0.8415 -1.3770 -0.8621
  189SAPI  H18Z21823   2.894   4.927   5.484  1.0747 -0.4927 -0.1408
  190SAPI   C1221824   5.743   3.972   7.388  0.6030  0.3513  0.3552
  190SAPI    H221825   5.692   4.002   7.294 -1.6491 -0.1825  1.3578
  190SAPI    O221826   5.822   3.854   7.362  0.2393 -0.0683 -0.1373
  190SAPI   HO221827   5.856   3.817   7.444  0.3636  1.2468  0.4255
  190SAPI   C1321828   5.825   4.086   7.440  0.2842 -0.0219 -0.2432
  190SAPI    H321829   5.748   4.162   7.462 -2.1537 -2.4704  0.1616
  190SAPI    O321830   5.922   4.136   7.352 -0.4008 -0.0361 -0.2603
  190SAPI   HO321831   5.886   4.222   7.329  0.5265  0.3301 -0.3973
  190SAPI   C1421832   5.889   4.053   7.576 -0.3429  0.7577 -0.5132
  190SAPI    H421833   5.962   3.975   7.548 -0.5485 -0.0684  1.1624
  190SAPI    O421834   5.947   4.164   7.638 -0.4915 -0.5618 -0.5430
  190SAPI   HO421835   6.001   4.138   7.713 -1.6449  2.9791  1.7151
  190SAPI   C1521836   5.813   3.974   7.685  0.4246  0.1820  0.1267
  190SAPI    H521837   5.765   4.046   7.753  0.4856  1.9828 -1.6528
  190SAPI    O521838   5.885   3.875   7.760  0.0742 -0.4138  0.6047
  190SAPI   HO521839   5.942   3.822   7.704  0.8357 -2.9282  3.4980
  190SAPI   C1621840   5.696   3.893   7.627 -0.4848  0.0409  0.7092
  190SAPI    H621841   5.729   3.791   7.596 -2.5899 -0.1966 -1.0025
  190SAPI    O621842   5.593   3.879   7.725 -0.1338 -0.1250 -0.7181
  190SAPI   HO621843   5.549   3.964   7.730  0.0949 -0.0659  1.0609
  190SAPI   C1121844   5.634   3.940   7.496  0.4594  0.2523  0.2460
  190SAPI    H121845   5.588   4.038   7.520  1.3721  0.9723 -0.8323
  190SAPI     P21846   5.385   3.884   7.402  0.2000 -0.4638 -0.3213
  190SAPI   O1321847   5.359   4.032   7.426 -0.2652  0.0437 -0.2931
  190SAPI   O1421848   5.290   3.792   7.469  0.0076 -0.1832  0.2625
  190SAPI   O1221849   5.536   3.844   7.449 -0.4717  0.5512 -0.2734
  190SAPI   O1121850   5.379   3.857   7.254  0.1009  0.0219 -0.4851
  190SAPI    C121851   5.261   3.817   7.186  0.6020  0.7382  0.3169
  190SAPI    HA21852   5.226   3.714   7.207 -1.1671  1.3821  0.6841
  190SAPI    HB21853   5.180   3.892   7.192 -0.6885 -0.4798 -1.0304
  190SAPI    C221854   5.295   3.809   7.033 -0.2061 -0.7157 -0.6812
  190SAPI    HS21855   5.203   3.785   6.976 -0.8132  0.4326 -0.2113
  190SAPI   O2121856   5.400   3.715   7.008 -0.1079 -0.5424  0.2112
  190SAPI   C2121857   5.351   3.589   6.999 -0.6222  0.7826  0.7279
  190SAPI   O2221858   5.235   3.561   7.017 -0.4882  0.9358  0.6371
  190SAPI   C2221859   5.462   3.485   6.965 -0.2273  0.3578  0.1285
  190SAPI   H2R21860   5.559   3.539   6.967  1.7418 -2.8887  0.5955
  190SAPI   H2S21861   5.457   3.416   7.053  0.6797  3.0929  2.4844
  190SAPI    C321862   5.341   3.950   6.981 -0.1968  0.7569  0.3797
  190SAPI    HX21863   5.440   3.968   7.028  0.1879  0.0242 -0.1136
  190SAPI    HY21864   5.272   4.032   7.009 -0.5739  2.0396 -3.6837
  190SAPI   O3121865   5.358   3.955   6.838  0.6275 -0.2368  0.1533
  190SAPI   C3121866   5.475   3.954   6.776  0.4486 -0.2354 -0.3364
  190SAPI   O3221867   5.586   3.958   6.827  0.4631  0.3674  0.6149
  190SAPI   C3221868   5.459   3.944   6.629  0.1049 -0.1825 -0.2644
  190SAPI   H2X21869   5.381   4.016   6.596  3.4139  3.6145 -0.4326
  190SAPI   H2Y21870   5.425   3.843   6.596 -1.0207  0.0372  0.1571
  190SAPI   C2321871   5.429   3.413   6.827 -0.4349 -0.1619 -0.8266
  190SAPI   H3R21872   5.324   3.377   6.827 -0.4772 -0.0951 -2.0401
  190SAPI   H3S21873   5.502   3.329   6.816  0.3974  0.5517 -0.8964
  190SAPI   C2421874   5.449   3.509   6.713  0.4420 -0.3638  0.9515
  190SAPI   H4R21875   5.371   3.589   6.714  0.2022 -0.4784 -1.3567
  190SAPI   H4S21876   5.428   3.459   6.616 -1.0148 -0.6069  1.3621
  190SAPI   C2521877   5.576   3.586   6.697 -0.0734  0.3484 -0.4159
  190SAPI   H5R21878   5.593   3.667   6.770 -0.7625  0.9494 -0.9131
  190SAPI   C2621879   5.668   3.572   6.594  0.3135 -0.0070 -0.1928
  190SAPI   H6R21880   5.752   3.642   6.598 -0.5975  1.1202  3.1522
  190SAPI   C2721881   5.666   3.456   6.491  0.6530  0.4542 -0.1386
  190SAPI   H7R21882   5.590   3.469   6.411  1.7827  3.2725 -0.8821
  190SAPI   H7S21883   5.642   3.359   6.540 -0.0608 -0.3124 -1.9214
  190SAPI   C2821884   5.799   3.438   6.426 -0.1423 -0.2878 -0.2443
  190SAPI   H8R21885   5.875   3.446   6.505 -2.2815 -0.9128  2.0123
  190SAPI   C2921886   5.830   3.434   6.295 -0.6434 -0.6385 -0.0970
  190SAPI   H9R21887   5.921   3.374   6.282 -0.0364  0.0463  0.8700
  190SAPI  C21021888   5.735   3.431   6.173  0.1341 -0.1365  0.2148
  190SAPI  H10R21889   5.637   3.393   6.208  0.3877 -1.2406 -0.2167
  190SAPI  H10S21890   5.779   3.364   6.096  0.5174  0.3174  0.0388
  190SAPI  C21121891   5.692   3.566   6.122 -0.2140  0.3467  0.0156
  190SAPI  H11R21892   5.728   3.654   6.178 -2.1144  1.8004 -0.9166
  190SAPI  C21221893   5.607   3.587   6.024  0.0666 -0.0237 -0.5453
  190SAPI  H12R21894   5.582   3.692   6.002  2.4571  0.7883  0.3220
  190SAPI  C21321895   5.545   3.485   5.934  0.2248  0.9657  0.4834
  190SAPI  H13R21896   5.439   3.470   5.963 -0.5567  2.1406 -1.5683
  190SAPI  H13S21897   5.597   3.387   5.934 -1.0118  0.1833 -2.4782
  190SAPI  C21421898   5.531   3.521   5.789  0.1833  0.0723  0.1847
  190SAPI  H14R21899   5.432   3.561   5.760 -0.3572 -1.5196 -0.2571
  190SAPI  C21521900   5.629   3.510   5.702 -0.2259 -0.0961  0.0277
  190SAPI  H15R21901   5.623   3.541   5.597  0.9784  0.5587  0.1281
  190SAPI  C21621902   5.771   3.465   5.725  0.4980  0.0914 -0.0683
  190SAPI  H16R21903   5.795   3.372   5.669  1.2504  0.6052 -0.6172
  190SAPI  H16S21904   5.796   3.433   5.828  3.1178  1.7346 -0.1341
  190SAPI  C21721905   5.888   3.556   5.678 -0.0065 -0.6948 -0.9130
  190SAPI  H17R21906   5.920   3.623   5.761 -1.1862  0.2542 -1.1977
  190SAPI  H17S21907   5.852   3.635   5.609 -1.0525 -1.6693 -1.5281
  190SAPI  C21821908   6.018   3.490   5.627  0.1365 -0.0867  0.3719
  190SAPI  H18R21909   6.079   3.577   5.594 -2.1608  0.4567 -2.9496
  190SAPI  H18S21910   6.007   3.417   5.544  1.5587 -1.1380  1.0556
  190SAPI  C21921911   6.086   3.405   5.737  0.1157 -0.3300  0.2364
  190SAPI  H19R21912   6.016   3.321   5.757 -3.0938  2.3450  1.2542
  190SAPI  H19S21913   6.092   3.459   5.834 -0.7282  0.3533 -0.0685
  190SAPI  C22021914   6.219   3.347   5.698 -0.2370  0.1635  0.3990
  190SAPI  H20R21915   6.208   3.282   5.609 -0.4717 -1.4293  1.5574
  190SAPI  H20S21916   6.256   3.289   5.785 -1.2578 -0.1197  0.6528
  190SAPI  H20T21917   6.292   3.426   5.669  1.5808 -2.2417 -2.0479
  190SAPI   C3321918   5.595   3.954   6.558  0.3613 -0.4035  1.0447
  190SAPI   H3X21919   5.671   3.894   6.612  0.6994  0.2771  1.3360
  190SAPI   H3Y21920   5.638   4.055   6.571  1.5222 -0.7849  0.3050
  190SAPI   C3421921   5.597   3.901   6.412 -0.2861 -0.9987 -0.2312
  190SAPI   H4X21922   5.550   3.801   6.416 -0.4701 -1.0033 -1.9088
  190SAPI   H4Y21923   5.696   3.888   6.363 -1.2961  0.0044 -2.7046
  190SAPI   C3521924   5.509   3.980   6.310 -0.3221 -0.0091 -0.1434
  190SAPI   H5X21925   5.543   4.085   6.299  0.4094 -0.3864 -1.7961
  190SAPI   H5Y21926   5.403   3.975   6.343 -0.6765  0.4111 -1.1654
  190SAPI   C3621927   5.507   3.896   6.180 -0.1315  0.3284  0.3908
  190SAPI   H6X21928   5.475   3.794   6.209 -0.6958  0.9084  1.9123
  190SAPI   H6Y21929   5.609   3.881   6.138  0.1508  1.2606  0.7326
  190SAPI   C3721930   5.423   3.963   6.063 -0.2782 -0.4165  0.3785
  190SAPI   H7X21931   5.448   4.067   6.035 -0.8107 -0.2285  0.5827
  190SAPI   H7Y21932   5.320   3.970   6.103  0.2033  1.9057  1.3316
  190SAPI   C3821933   5.413   3.876   5.935  0.3799  0.1192  0.1007
  190SAPI   H8X21934   5.401   3.773   5.974  2.1591 -1.5034 -3.1871
  190SAPI   H8Y21935   5.504   3.876   5.871 -0.0307  1.8322 -0.5609
  190SAPI   C3921936   5.303   3.910   5.833  0.3356  0.3188  0.1768
  190SAPI   H9X21937   5.207   3.922   5.887  1.1476  3.4332  1.1647
  190SAPI   H9Y21938   5.298   3.838   5.749  0.4574  1.3226 -0.7219
  190SAPI  C31021939   5.335   4.047   5.767  0.4241 -0.8537  0.4703
  190SAPI  H10X21940   5.432   4.033   5.714  1.2204 -1.0940  1.9157
  190SAPI  H10Y21941   5.348   4.127   5.843 -2.6851 -1.0990  1.4024
  190SAPI  C31121942   5.219   4.081   5.673 -0.0790  0.5078 -0.8403
  190SAPI  H11X21943   5.131   4.103   5.737  0.2014 -1.7527  0.4067
  190SAPI  H11Y21944   5.190   3.984   5.627  1.3313 -0.9180  1.1213
  190SAPI  C31221945   5.251   4.185   5.571 -0.5156 -0.4514  0.2199
  190SAPI  H12X21946   5.320   4.137   5.499  1.2011  0.7752  0.9546
  190SAPI  H12Y21947   5.316   4.254   5.630 -1.5788 -0.4876  1.4889
  190SAPI  C31321948   5.127   4.250   5.507  0.4565 -0.2353 -0.1336
  190SAPI  H13X21949   5.162   4.332   5.441 -1.2713 -1.4421 -2.7079
  190SAPI  H13Y21950   5.063   4.292   5.588 -1.2468 -1.2549 -0.9020
  190SAPI  C31421951   5.040   4.165   5.410 -0.7404  0.0429  0.6912
  190SAPI  H14X21952   5.014   4.063   5.445 -2.1529  0.0606 -0.2386
  190SAPI  H14Y21953   5.097   4.155   5.315 -0.5635 -1.7811  0.9442
  190SAPI  C31521954   4.901   4.240   5.387  0.3994  0.1113 -0.8757
  190SAPI  H15X21955   4.912   4.348   5.363 -0.5721  0.8259  1.6117
  190SAPI  H15Y21956   4.856   4.239   5.489  0.8998  1.6556 -0.6171
  190SAPI  C31621957   4.799   4.176   5.293  0.8259 -0.1740 -0.1449
  190SAPI  H16X21958   4.771   4.077   5.335 -1.8819  1.0786  1.2367
  190SAPI  H16Y21959   4.848   4.159   5.194  1.7273 -0.1069  0.2835
  190SAPI  C31721960   4.662   4.257   5.286  0.6130  0.6658 -0.7524
  190SAPI  H17X21961   4.687   4.363   5.264  2.4015  0.1981 -1.1644
  190SAPI  H17Y21962   4.610   4.254   5.384  2.3784  0.7760  0.2312
  190SAPI  C31821963   4.564   4.203   5.187 -0.1600 -0.0684  0.3179
  190SAPI  H18X21964   4.605   4.223   5.086 -0.5013  0.1902  0.2314
  190SAPI  H18Y21965   4.470   4.260   5.183  0.3420  1.3629  4.4187
  190SAPI  H18Z21966   4.545   4.094   5.197 -2.9540  0.3469  0.1020
  191SAPI   C1221967   2.555   4.298   2.918 -0.2175  0.5338 -0.1972
  191SAPI    H221968   2.639   4.285   2.988 -0.5021 -0.4336 -0.0207
  191SAPI    O221969   2.598   4.357   2.794  0.5758  0.2127 -0.2774
  191SAPI   HO221970   2.644   4.438   2.818  1.7805 -0.6949  0.5822
  191SAPI   C1321971   2.495   4.159   2.902  0.2167 -0.4329  0.4444
  191SAPI    H321972   2.442   4.135   2.997 -1.2785 -0.0463 -0.2757
  191SAPI    O321973   2.593   4.064   2.885 -0.3445 -0.2771  0.0104
  191SAPI   HO321974   2.604   4.030   2.974 -1.0969 -1.6596 -0.3986
  191SAPI   C1421975   2.384   4.141   2.790  0.1893  0.4899  0.5049
  191SAPI    H421976   2.415   4.150   2.683  1.3351  1.0287  0.8638
  191SAPI    O421977   2.314   4.017   2.819  0.6747  0.1190  0.4464
  191SAPI   HO421978   2.299   3.964   2.740 -1.9767 -0.1617  1.0528
  191SAPI   C1521979   2.283   4.264   2.800  0.3506 -0.2293 -0.8030
  191SAPI    H521980   2.196   4.211   2.844  1.8389 -1.0303  1.3228
  191SAPI    O521981   2.230   4.294   2.675  0.4131  0.7008  0.2278
  191SAPI   HO521982   2.296   4.331   2.615 -0.2132 -0.0743 -0.9566
  191SAPI   C1621983   2.320   4.387   2.887  0.0564  0.7194  0.3846
  191SAPI    H621984   2.343   4.465   2.811  1.4644  0.5254  0.5829
  191SAPI    O621985   2.214   4.441   2.956  0.2258  0.2997 -0.1160
  191SAPI   HO621986   2.220   4.536   2.949  0.6382  0.1650 -2.2394
  191SAPI   C1121987   2.440   4.379   2.981  0.3978  0.4718  0.2712
  191SAPI    H121988   2.400   4.328   3.071 -1.1384  1.6787  0.3144
  191SAPI     P21989   2.582   4.538   3.153 -0.1657 -0.0566 -0.2661
  191SAPI   O1321990   2.627   4.677   3.144 -0.0535  0.4168 -0.4692
  191SAPI   O1421991   2.694   4.437   3.147  0.2803 -0.4265  0.3627
  191SAPI   O1221992   2.480   4.514   3.027  0.2594 -0.3872 -0.4879
  191SAPI   O1121993   2.509   4.521   3.293 -0.7297 -0.5491 -0.5424
  191SAPI    C121994   2.370   4.537   3.312  0.0440 -0.1899 -0.0436
  191SAPI    HA21995   2.313   4.461   3.254 -0.7487 -0.0519  0.5322
  191SAPI    HB21996   2.340   4.515   3.417  1.5707  1.0562  0.6939
  191SAPI    C221997   2.322   4.683   3.274 -0.1653  0.2250 -0.2703
  191SAPI    HS21998   2.350   4.701   3.168 -2.9885  2.0513 -0.8471
  191SAPI   O2121999   2.384   4.772   3.360 -0.8811 -0.0350 -0.0756
  191SAPI   C2122000   2.391   4.899   3.329 -0.3026  0.1523  0.7274
  191SAPI   O2222001   2.347   4.953   3.232 -0.6129 -0.0285  0.0317
  191SAPI   C2222002   2.474   4.971   3.435 -0.1743 -0.3040 -1.1254
  191SAPI   H2R22003   2.576   4.936   3.411  0.8510  1.7692 -0.0302
  191SAPI   H2S22004   2.464   5.081   3.425 -2.6103 -0.1781  1.2988
  191SAPI    C322005   2.167   4.703   3.266  0.7141  0.1886 -0.1641
  191SAPI    HX22006   2.125   4.621   3.203  1.3017 -1.4481  1.4718
  191SAPI    HY22007   2.156   4.803   3.221 -1.5985  0.6808  1.3151
  191SAPI   O3122008   2.115   4.699   3.401  0.0091 -0.0389 -0.5929
  191SAPI   C3122009   2.053   4.589   3.445  0.9234  0.2356 -0.1771
  191SAPI   O3222010   2.026   4.492   3.381 -0.4012 -0.1879  0.5464
  191SAPI   C3222011   2.006   4.618   3.584  0.1382  0.3013 -0.4200
  191SAPI   H2X22012   1.957   4.529   3.629 -0.9700  1.1325  0.0496
  191SAPI   H2Y22013   1.936   4.704   3.584 -2.2429 -1.5051  0.9482
  191SAPI   C2322014   2.421   4.935   3.573  0.2631  0.1942 -0.9343
  191SAPI   H3R22015   2.419   4.825   3.586  0.6877  0.3131  0.2252
  191SAPI   H3S22016   2.318   4.970   3.597 -0.2604  0.0825 -2.8108
  191SAPI   C2422017   2.518   4.981   3.684 -0.5018  0.1243  0.1137
  191SAPI   H4R22018   2.623   4.974   3.647  0.5214  2.1683  2.3120
  191SAPI   H4S22019   2.506   4.913   3.771  2.9663 -0.8991 -0.0295
  191SAPI   C2522020   2.487   5.127   3.711  0.5390  0.7548  0.1413
  191SAPI   H5R22021   2.500   5.194   3.624 -0.0583  1.5317  0.6371
  191SAPI   C2622022   2.438   5.175   3.829 -0.0920 -0.2484  0.9780
  191SAPI   H6R22023   2.410   5.281   3.829  1.1893  0.1538 -1.4247
  191SAPI   C2722024   2.421   5.099   3.961  1.0604 -0.3495 -0.1255
  191SAPI   H7R22025   2.517   5.054   3.994 -0.9660 -2.8801  2.9513
  191SAPI   H7S22026   2.346   5.018   3.949  0.6450 -0.4334  2.3473
  191SAPI   C2822027   2.358   5.188   4.065  0.5073  0.7415  0.4026
  191SAPI   H8R22028   2.284   5.258   4.024 -2.2736 -2.8954 -1.4782
  191SAPI   C2922029   2.387   5.182   4.193  0.8169 -0.6704 -0.2419
  191SAPI   H9R22030   2.345   5.265   4.252  0.5732  0.8036 -2.3820
  191SAPI  C21022031   2.465   5.087   4.276  0.3135 -0.2598  0.2024
  191SAPI  H10R22032   2.491   5.005   4.206 -0.6130  0.3832 -0.9324
  191SAPI  H10S22033   2.392   5.045   4.349 -0.8114  0.2560 -0.5890
  191SAPI  C21122034   2.590   5.127   4.351  1.0659 -0.5601 -0.0636
  191SAPI  H11R22035   2.677   5.116   4.284  1.2487  1.4161 -0.2310
  191SAPI  C21222036   2.599   5.162   4.480  0.3856  0.0953  0.3787
  191SAPI  H12R22037   2.699   5.197   4.510  0.2879  0.4582  0.2856
  191SAPI  C21322038   2.487   5.197   4.574 -0.0396 -0.2408 -0.0350
  191SAPI  H13R22039   2.452   5.113   4.638  0.5929  0.1398  0.8360
  191SAPI  H13S22040   2.392   5.221   4.522  0.1766  0.5795 -0.0667
  191SAPI  C21422041   2.530   5.311   4.667 -0.2595 -0.7017 -0.0818
  191SAPI  H14R22042   2.606   5.292   4.744 -0.3061 -0.5487  0.0019
  191SAPI  C21522043   2.458   5.425   4.684  0.2011  0.5521 -0.2205
  191SAPI  H15R22044   2.493   5.486   4.768  0.5903 -2.1195  1.6729
  191SAPI  C21622045   2.325   5.470   4.614 -0.1479 -0.2889  0.2017
  191SAPI  H16R22046   2.279   5.551   4.674  1.5887  0.7435  0.1995
  191SAPI  H16S22047   2.260   5.380   4.612 -0.2714 -0.1969 -0.5013
  191SAPI  C21722048   2.340   5.529   4.473  0.0159 -0.0990  0.1332
  191SAPI  H17R22049   2.422   5.484   4.414  2.4016  1.5719  1.9512
  191SAPI  H17S22050   2.356   5.639   4.474 -1.5753  0.1674  1.1429
  191SAPI  C21822051   2.216   5.499   4.374 -0.3234  0.2537 -0.2604
  191SAPI  H18R22052   2.190   5.391   4.371 -0.8623  0.3933 -2.1776
  191SAPI  H18S22053   2.258   5.529   4.276  1.5795  2.1260  1.0443
  191SAPI  C21922054   2.092   5.590   4.372  0.2385  0.8840 -0.3551
  191SAPI  H19R22055   2.120   5.674   4.305  3.1678  0.0581 -0.2891
  191SAPI  H19S22056   2.081   5.632   4.474 -0.8038  1.0513 -0.5216
  191SAPI  C22022057   1.962   5.523   4.320 -0.0983 -0.2995  0.7159
  191SAPI  H20R22058   1.971   5.478   4.218 -0.4112 -1.3512  1.1332
  191SAPI  H20S22059   1.885   5.602   4.332  0.8260  1.2560 -2.3580
  191SAPI  H20T22060   1.943   5.434   4.384  0.6692 -1.8576 -1.0951
  191SAPI   C3322061   2.113   4.667   3.678  0.2458 -0.0215 -0.0821
  191SAPI   H3X22062   2.133   4.773   3.651 -1.3197  0.5097  0.7705
  191SAPI   H3Y22063   2.210   4.612   3.675  1.1111  1.1248  3.0020
  191SAPI   C3422064   2.060   4.682   3.821  0.3838 -0.3333 -0.1297
  191SAPI   H4X22065   2.025   4.581   3.850  0.1171 -0.4983 -0.9706
  191SAPI   H4Y22066   1.970   4.747   3.813  0.5731 -0.1101 -0.4995
  191SAPI   C3522067   2.157   4.741   3.924  0.5635  0.5264 -0.1875
  191SAPI   H5X22068   2.192   4.843   3.897  0.0977  0.5096 -0.8985
  191SAPI   H5Y22069   2.237   4.665   3.936 -0.2620 -0.4105 -0.5075
  191SAPI   C3622070   2.093   4.736   4.064  0.0370  0.6499  0.0648
  191SAPI   H6X22071   2.056   4.633   4.083 -1.2203  0.8284 -1.2848
  191SAPI   H6Y22072   2.014   4.812   4.082  0.0689  0.6117  0.3777
  191SAPI   C3722073   2.182   4.766   4.179  0.3550  0.1465  0.3256
  191SAPI   H7X22074   2.223   4.869   4.173 -1.0288  0.9769  3.3283
  191SAPI   H7Y22075   2.262   4.688   4.181 -1.3667 -1.9577 -3.1463
  191SAPI   C3822076   2.103   4.762   4.312 -0.2739 -0.1895  0.3002
  191SAPI   H8X22077   2.052   4.664   4.316  1.6264 -1.1716  1.4276
  191SAPI   H8Y22078   2.021   4.837   4.307 -0.7090 -0.6816 -0.1439
  191SAPI   C3922079   2.172   4.780   4.445 -0.1557  0.2398 -0.4629
  191SAPI   H9X22080   2.231   4.874   4.460  0.4928  0.1541 -2.3059
  191SAPI   H9Y22081   2.258   4.710   4.451  0.0678  0.5483  0.0957
  191SAPI  C31022082   2.076   4.747   4.566  0.0176 -0.0507  0.0717
  191SAPI  H10X22083   2.144   4.712   4.647  0.7847  3.1620  0.9711
  191SAPI  H10Y22084   2.014   4.660   4.535 -0.7759  0.7607 -0.6629
  191SAPI  C31122085   1.984   4.863   4.611 -0.5173  0.1219 -0.3740
  191SAPI  H11X22086   1.919   4.823   4.691  0.9954 -0.4492  0.6270
  191SAPI  H11Y22087   1.917   4.906   4.535 -0.7140  1.5748  0.5719
  191SAPI  C31222088   2.064   4.987   4.660  0.0574 -0.9226  0.6383
  191SAPI  H12X22089   2.125   5.039   4.584 -1.7160 -1.6435 -1.3733
  191SAPI  H12Y22090   2.117   4.946   4.749  0.4724 -0.6303  0.5278
  191SAPI  C31322091   1.961   5.083   4.721  0.5263 -0.6830 -0.5314
  191SAPI  H13X22092   1.874   5.027   4.761 -1.1496 -0.0024 -2.9841
  191SAPI  H13Y22093   1.913   5.129   4.632  0.8564 -0.0506 -0.3862
  191SAPI  C31422094   2.020   5.196   4.803  0.5948 -0.0108  0.1211
  191SAPI  H14X22095   2.105   5.232   4.742  1.0354  2.5227  2.0479
  191SAPI  H14Y22096   2.060   5.156   4.899  1.6790  0.9407  0.0905
  191SAPI  C31522097   1.915   5.310   4.811  0.7578  0.2355  0.0213
  191SAPI  H15X22098   1.941   5.375   4.897 -1.0963  0.5374  0.4048
  191SAPI  H15Y22099   1.808   5.286   4.832 -0.0429  3.1620 -0.1803
  191SAPI  C31622100   1.918   5.407   4.697  0.0579 -0.1461 -0.5277
  191SAPI  H16X22101   1.891   5.361   4.599  0.2519  1.0537 -1.1621
  191SAPI  H16Y22102   2.020   5.451   4.691 -0.4546  1.3457  1.0308
  191SAPI  C31722103   1.825   5.522   4.718  0.5135  0.0134 -0.1020
  191SAPI  H17X22104   1.830   5.553   4.825  1.3502  2.3188 -0.7519
  191SAPI  H17Y22105   1.725   5.482   4.692 -0.5561  1.7374  1.1518
  191SAPI  C31822106   1.855   5.645   4.633 -0.1191  0.4119 -0.1678
  191SAPI  H18X22107   1.891   5.609   4.534  0.6424  1.4715 -0.2925
  191SAPI  H18Y22108   1.940   5.696   4.683  0.5363 -1.5892  0.8639
  191SAPI  H18Z22109   1.774   5.721   4.631 -2.3116 -1.8259 -0.1483
  192SAPI   C1222110   3.713   4.243   2.994  0.3177  0.6544  0.0898
  192SAPI    H222111   3.606   4.258   3.019 -0.0074 -1.3041  0.0493
  192SAPI    O222112   3.755   4.132   3.076 -0.4967  0.1201  0.2081
  192SAPI   HO222113   3.680   4.102   3.128 -2.1356  0.8202 -1.6470
  192SAPI   C1322114   3.731   4.204   2.844  0.0981 -0.5069  0.3384
  192SAPI    H322115   3.723   4.288   2.772  1.1468  0.3809  1.2115
  192SAPI    O322116   3.641   4.102   2.799  0.5091 -0.0493  0.1223
  192SAPI   HO322117   3.669   4.026   2.850  0.6333 -0.4818 -0.5771
  192SAPI   C1422118   3.883   4.167   2.833 -0.4788  0.3351 -0.1303
  192SAPI    H422119   3.897   4.074   2.892 -0.1294 -0.7515 -1.8421
  192SAPI    O422120   3.930   4.138   2.695  0.4771 -0.3466  0.5675
  192SAPI   HO422121   4.013   4.090   2.692 -0.8890 -2.8558 -0.0192
  192SAPI   C1522122   3.978   4.268   2.890  0.1866 -0.1963 -0.1948
  192SAPI    H522123   3.995   4.344   2.810 -0.0351  0.8530  0.7270
  192SAPI    O522124   4.104   4.217   2.923 -1.1596 -0.0601 -0.2519
  192SAPI   HO522125   4.163   4.261   2.862 -2.0199  1.8674  0.2183
  192SAPI   C1622126   3.933   4.371   3.001 -0.3743 -1.0325 -0.4108
  192SAPI    H622127   3.978   4.340   3.098 -0.5290  0.2007  0.0738
  192SAPI    O622128   3.990   4.503   2.987  0.5065 -0.0485  0.1385
  192SAPI   HO622129   4.074   4.517   3.032  1.2327 -0.0199 -1.1592
  192SAPI   C1122130   3.783   4.366   3.036  0.5895 -0.1819  0.1458
  192SAPI    H122131   3.747   4.451   2.974  0.1477 -0.0966  0.5186
  192SAPI     P22132   3.632   4.479   3.222 -0.2955  0.1179 -0.2073
  192SAPI   O1322133   3.617   4.489   3.372  0.0193  1.0186 -0.3671
  192SAPI   O1422134   3.508   4.427   3.155  0.1900  0.6395  0.0073
  192SAPI   O1222135   3.764   4.397   3.178  0.4372 -0.0189  0.0026
  192SAPI   O1122136   3.663   4.620   3.167  0.8351 -0.8342  0.6349
  192SAPI    C122137   3.783   4.697   3.159 -0.4881 -0.3755  0.7222
  192SAPI    HA22138   3.878   4.639   3.154 -0.1246 -0.1827  3.6311
  192SAPI    HB22139   3.778   4.768   3.073 -0.2076 -0.9450  0.2225
  192SAPI    C222140   3.798   4.782   3.291  0.4788  0.1531 -0.0242
  192SAPI    HS22141   3.866   4.870   3.285 -1.4802  1.8743  1.2216
  192SAPI   O2122142   3.836   4.689   3.392  0.4545  0.0786 -0.5093
  192SAPI   C2122143   3.909   4.732   3.491 -0.4057  0.3650 -0.2988
  192SAPI   O2222144   3.934   4.845   3.523  0.3109 -0.0852 -0.2632
  192SAPI   C2222145   3.983   4.617   3.559  0.4334 -0.1191  0.5298
  192SAPI   H2R22146   3.914   4.531   3.571  0.8285 -0.6926 -1.1040
  192SAPI   H2S22147   4.063   4.594   3.485  0.7735 -0.8962  1.1320
  192SAPI    C322148   3.655   4.840   3.332 -0.1174 -0.6131 -0.7706
  192SAPI    HX22149   3.594   4.751   3.354 -2.1042  0.8726  0.0473
  192SAPI    HY22150   3.607   4.894   3.248 -0.3321 -0.0664 -0.3040
  192SAPI   O3122151   3.659   4.928   3.442 -0.7262  0.3921  0.3087
  192SAPI   C3122152   3.535   4.967   3.477  0.7398  0.6710 -0.4147
  192SAPI   O3222153   3.430   4.922   3.433  0.3138  0.7323 -0.4072
  192SAPI   C3222154   3.547   5.079   3.585  0.1231 -0.3337 -0.0942
  192SAPI   H2X22155   3.599   5.165   3.539  1.1782  0.1258  1.8427
  192SAPI   H2Y22156   3.614   5.039   3.664 -1.5173  0.3355  1.7218
  192SAPI   C2322157   4.038   4.664   3.694  0.5933 -0.0725 -0.4380
  192SAPI   H3R22158   4.096   4.758   3.682  1.2072 -0.2647  0.7766
  192SAPI   H3S22159   4.110   4.582   3.715 -1.3636 -1.6764  0.2400
  192SAPI   C2422160   3.942   4.658   3.814 -0.0557  0.3880 -0.9712
  192SAPI   H4R22161   3.899   4.556   3.822  1.2904 -0.1757 -0.4530
  192SAPI   H4S22162   3.852   4.721   3.801 -1.8704 -2.1522 -1.5040
  192SAPI   C2522163   4.003   4.686   3.951  0.1721  0.0108  0.7257
  192SAPI   H5R22164   4.102   4.637   3.950 -0.3124 -1.0163  1.6246
  192SAPI   C2622165   3.948   4.746   4.056 -0.8947  0.2198 -0.3867
  192SAPI   H6R22166   4.010   4.737   4.147  1.7153 -1.4256 -2.1672
  192SAPI   C2722167   3.824   4.827   4.073 -0.0366  1.1904  0.3126
  192SAPI   H7R22168   3.777   4.803   4.171 -0.3367  1.6353  0.2824
  192SAPI   H7S22169   3.758   4.788   3.993  1.6638 -0.9057 -0.1528
  192SAPI   C2822170   3.841   4.973   4.044 -0.1699  0.2125 -0.0261
  192SAPI   H8R22171   3.825   4.995   3.937  0.7500  0.6630 -0.0740
  192SAPI   C2922172   3.865   5.077   4.130  0.7771 -0.0820  0.1421
  192SAPI   H9R22173   3.887   5.179   4.095  0.5584  0.1712  0.7286
  192SAPI  C21022174   3.881   5.071   4.283  0.2051  0.1088 -0.0792
  192SAPI  H10R22175   3.887   4.963   4.310  0.1458 -0.2097 -1.2561
  192SAPI  H10S22176   3.788   5.120   4.319 -0.5295 -0.3522 -1.2484
  192SAPI  C21122177   4.000   5.141   4.343  0.1026 -0.4106  0.3271
  192SAPI  H11R22178   4.025   5.226   4.279 -3.0849 -0.3705 -1.0165
  192SAPI  C21222179   4.065   5.103   4.456  0.4405  0.6660  0.7361
  192SAPI  H12R22180   4.148   5.167   4.489  0.7861 -0.1951  1.5855
  192SAPI  C21322181   4.035   4.975   4.529  0.7626  0.2296 -0.2559
  192SAPI  H13R22182   4.087   4.883   4.493 -2.4554 -2.8779  2.2045
  192SAPI  H13S22183   3.929   4.941   4.540  0.5030  1.2589  0.5254
  192SAPI  C21422184   4.100   4.986   4.669 -1.1400  0.8504  1.3979
  192SAPI  H14R22185   4.209   4.984   4.660 -1.1135  3.7744 -0.6711
  192SAPI  C21522186   4.041   5.007   4.786  0.5352  0.6483 -0.4609
  192SAPI  H15R22187   4.100   4.997   4.878  1.4072 -1.2490 -1.1729
  192SAPI  C21622188   3.891   5.002   4.804 -0.5887 -0.1628  0.1164
  192SAPI  H16R22189   3.835   4.991   4.709 -1.2868 -3.4926  0.7636
  192SAPI  H16S22190   3.868   5.101   4.848  2.7809  0.8191 -0.0649
  192SAPI  C21722191   3.835   4.885   4.896  0.3565 -0.3432  0.0595
  192SAPI  H17R22192   3.729   4.897   4.865 -0.1864 -1.9987  1.1284
  192SAPI  H17S22193   3.840   4.903   5.005 -2.4896  2.6129 -0.1495
  192SAPI  C21822194   3.866   4.745   4.845 -0.4128  0.1539 -0.7019
  192SAPI  H18R22195   3.862   4.748   4.734  0.5168 -1.2407 -0.7952
  192SAPI  H18S22196   3.794   4.670   4.881  0.6955 -0.8309 -0.4688
  192SAPI  C21922197   4.004   4.685   4.878 -0.2508 -0.9751  0.1254
  192SAPI  H19R22198   4.032   4.713   4.982  2.1764 -0.1656 -0.6797
  192SAPI  H19S22199   4.083   4.741   4.824  1.0391 -1.1262  1.7649
  192SAPI  C22022200   4.012   4.536   4.847 -0.0162 -0.1382  0.1729
  192SAPI  H20R22201   3.936   4.479   4.905 -2.0043  1.4397 -0.7979
  192SAPI  H20S22202   4.109   4.495   4.883 -1.3092 -2.7650  0.9549
  192SAPI  H20T22203   4.001   4.529   4.737  0.5701 -0.0842  0.1080
  192SAPI   C3322204   3.413   5.134   3.642  0.3526 -0.2340  0.0211
  192SAPI   H3X22205   3.350   5.047   3.671 -2.1353  0.8746 -1.7031
  192SAPI   H3Y22206   3.354   5.179   3.559  1.0857  2.3550  0.8233
  192SAPI   C3422207   3.431   5.238   3.757 -0.2712  0.2984  0.6412
  192SAPI   H4X22208   3.332   5.288   3.766 -1.2772 -1.0134 -2.0164
  192SAPI   H4Y22209   3.502   5.317   3.722 -3.3148  2.4722 -1.0802
  192SAPI   C3522210   3.480   5.179   3.886 -0.6392 -0.2641 -0.4913
  192SAPI   H5X22211   3.590   5.170   3.874 -0.8561 -2.6804 -1.1898
  192SAPI   H5Y22212   3.434   5.078   3.893 -2.5209  0.5688 -0.2844
  192SAPI   C3622213   3.459   5.262   4.016 -0.3534  0.0086  0.4236
  192SAPI   H6X22214   3.349   5.259   4.030 -0.4740  2.9614  0.7539
  192SAPI   H6Y22215   3.495   5.364   3.991  0.3192 -0.2584  0.2874
  192SAPI   C3722216   3.536   5.211   4.137 -0.4155 -0.8786  0.6577
  192SAPI   H7X22217   3.644   5.204   4.115 -0.6146 -1.3421 -0.1986
  192SAPI   H7Y22218   3.497   5.113   4.171 -1.2244  0.2860  3.3916
  192SAPI   C3822219   3.530   5.297   4.267  0.3272  0.0067  0.1134
  192SAPI   H8X22220   3.559   5.404   4.254 -1.6466  0.5533 -0.1982
  192SAPI   H8Y22221   3.589   5.243   4.344 -0.1969  0.3408  0.7582
  192SAPI   C3922222   3.384   5.299   4.318  0.3724  0.0512  0.0491
  192SAPI   H9X22223   3.349   5.196   4.343 -0.6050  0.1442 -0.8181
  192SAPI   H9Y22224   3.321   5.340   4.236  1.3364 -1.2298 -1.3839
  192SAPI  C31022225   3.359   5.387   4.447 -0.5467  1.0232 -0.6811
  192SAPI  H10X22226   3.252   5.418   4.454 -0.6418  0.5754 -0.0806
  192SAPI  H10Y22227   3.424   5.474   4.424 -2.2640  2.1162 -1.7161
  192SAPI  C31122228   3.408   5.333   4.584 -0.0140 -1.5270  0.0155
  192SAPI  H11X22229   3.514   5.303   4.571 -0.4888 -3.2001 -0.2480
  192SAPI  H11Y22230   3.348   5.245   4.615 -1.6208  0.8611  4.6345
  192SAPI  C31222231   3.383   5.437   4.697 -0.1143  0.6024  0.2360
  192SAPI  H12X22232   3.275   5.461   4.686 -0.0182  1.1638  0.4736
  192SAPI  H12Y22233   3.444   5.527   4.676  1.0014 -0.5961 -1.9646
  192SAPI  C31322234   3.423   5.377   4.833  0.3962 -0.7099 -0.1438
  192SAPI  H13X22235   3.533   5.365   4.821  0.1854 -1.0698 -2.0290
  192SAPI  H13Y22236   3.373   5.278   4.840 -0.3187 -0.2902  0.8383
  192SAPI  C31422237   3.389   5.470   4.954 -0.3395  0.0031 -0.1790
  192SAPI  H14X22238   3.441   5.433   5.045  2.2445 -0.1771 -1.6436
  192SAPI  H14Y22239   3.281   5.466   4.980 -0.5732  1.6468 -0.7736
  192SAPI  C31522240   3.428   5.618   4.940  0.1479 -0.1550  0.1232
  192SAPI  H15X22241   3.380   5.654   4.846  1.0546 -0.8919 -0.6435
  192SAPI  H15Y22242   3.536   5.640   4.928  0.3692 -1.7838 -1.1267
  192SAPI  C31622243   3.393   5.710   5.059  0.4733  0.2525  0.1611
  192SAPI  H16X22244   3.285   5.701   5.085  0.0869  0.9017 -1.1538
  192SAPI  H16Y22245   3.408   5.813   5.020  0.8205 -0.4670 -1.7398
  192SAPI  C31722246   3.496   5.683   5.169  0.8198 -0.8964  0.7023
  192SAPI  H17X22247   3.595   5.704   5.123  1.0784 -1.1899  1.1242
  192SAPI  H17Y22248   3.497   5.576   5.198 -4.2704 -1.6846 -0.9442
  192SAPI  C31822249   3.470   5.766   5.295 -0.2887 -0.2185 -0.1463
  192SAPI  H18X22250   3.513   5.868   5.287 -0.2663 -0.2826 -0.8882
  192SAPI  H18Y22251   3.489   5.718   5.393 -1.5982  2.1011  1.3296
  192SAPI  H18Z22252   3.361   5.785   5.303  0.0538  1.6442  0.6203
  193SOD    SOD22253   1.154   5.000   7.190  0.3994  0.2963 -0.2084
  194SOD    SOD22254   2.025   4.283   0.835  0.5819  0.6511  0.0466
  195SOD    SOD22255   1.715   5.629   7.523  0.5545  0.3005 -0.2008
  196SOD    SOD22256   6.662   4.509   3.153 -0.1458  0.3893 -0.2687
  197SOD    SOD22257   5.603   5.548   1.330  0.5520  0.1197 -0.0847
  198SOD    SOD22258   3.929   1.105   3.502  0.0311  0.0180  0.4164
  199SOD    SOD22259   2.447   4.175   2.130  0.4032  0.2869 -0.1082
  200SOD    SOD22260   5.695   4.961   2.858 -0.0119 -0.3370 -0.2309
  201SOD    SOD22261   2.870   5.637   0.965  0.1074  0.0855  0.0504
  202SOD    SOD22262   0.049   2.601   2.339 -0.1274  0.3972  0.8039
  203SOD    SOD22263   2.813   2.098   1.004 -0.3175  0.1573  0.1894
  204SOD    SOD22264   2.313   6.565   3.266  0.0770 -0.5077 -0.0385
  205SOD    SOD22265   1.157   4.454   7.327  1.0251  0.1030 -0.5756
  206SOD    SOD22266   6.203   2.356   7.389 -0.3082  0.0209  0.2902
  207SOD    SOD22267   2.751   0.697   2.495 -0.4262  0.4602  0.5411
  208SOD    SOD22268   4.819   2.535   0.327 -0.3498  0.0348  0.0970
  209SOD    SOD22269   3.491   4.319   1.866 -0.0523 -0.0852 -0.1296
  210SOD    SOD22270   3.195   0.342   1.189 -0.1543  0.1922 -0.2293
  211SOD    SOD22271   5.417   0.266   0.062  0.1070 -0.1032 -0.5198
  212SOD    SOD22272   0.917   6.830   1.534 -0.0511  0.0069 -0.3044
  213SOD    SOD22273   4.235   5.736   0.086 -0.2043 -0.0426 -0.0027
  214SOD    SOD22274   2.554   3.972   8.604 -0.4107  0.0763  0.8238
  215SOD    SOD22275   0.008   5.700   1.943 -0.2574  0.4055  0.3502
  216SOD    SOD22276   5.461   2.325   3.170 -0.1185  0.1583 -0.2293
  217SOD    SOD22277   6.253   5.626   8.317  0.3263  0.0749  1.0539
  218SOD    SOD22278   1.743   5.931   2.884 -0.4857 -0.5761 -0.3934
  219SOD    SOD22279   2.754   2.849   3.051 -0.2527 -0.0607 -0.1729
  220SOD    SOD22280   5.631   0.599   7.952  0.1630 -0.0651  0.1943
  221SOD    SOD22281   0.899   0.409   3.175 -0.4748 -0.3318 -0.0855
  222SOD    SOD22282   6.230   0.066   8.360  0.5529 -0.0655  0.6753
  223SOD    SOD22283   3.929   1.578   2.736 -0.0304 -0.2063 -0.0962
  224SOD    SOD22284   6.132   0.755   7.419  0.0984  0.2076 -0.1118
  225SOD    SOD22285   1.103   6.298   0.038 -0.0144  0.2529 -0.0810
  226SOD    SOD22286   1.575   4.383   3.011  0.2388 -0.0398 -0.0933
  227SOD    SOD22287   6.353   2.110   3.094  0.1949 -0.0105  0.3241
  228SOD    SOD22288   1.189   2.104   8.217 -0.2687  0.3110  0.1168
  229SOD    SOD22289   6.481   0.856   1.432 -0.3467  0.2250  0.2162
  230SOD    SOD22290   6.628   4.745   8.482  0.1849 -0.3272  0.1693
  231SOD    SOD22291   6.157   2.917   0.908 -0.3296 -0.0778  0.1938
  232SOD    SOD22292   3.238   6.599   7.954  0.1458 -0.1572 -0.1244
  233SOD    SOD22293   2.032   3.129   1.908  0.3831  0.1761 -0.3120
  234CLA    CLA22294   6.392   4.145   0.591 -0.3527 -0.2691 -0.5550
  235CLA    CLA22295   3.111   5.213   0.750 -0.7432 -0.0940 -0.0651
  236CLA    CLA22296   4.205   3.295   0.574  0.0711  0.3330  0.0083
  237CLA    CLA22297   4.234   4.250   0.723 -0.1921  0.0078 -0.4931
  238CLA    CLA22298   1.827   5.047   0.698  0.4450  0.3687 -0.0989
  239CLA    CLA22299   1.032   6.420   2.571 -0.1364 -0.2464 -0.1602
  240CLA    CLA22300   1.891   6.099   1.736  0.1627 -0.2622 -0.0511
  241CLA    CLA22301   5.141   0.822   0.476 -0.0829  0.1450 -0.1311
  242CLA    CLA22302   1.657   3.309   1.014  0.0655  0.0900 -0.2324
  243CLA    CLA22303   6.055   1.291   0.845 -0.2613  0.0850 -0.2026
  244CLA    CLA22304   3.081   2.312   1.578 -0.5773  0.0140 -0.0209
  245CLA    CLA22305   1.788   2.779   1.315  0.3268  0.2653  0.5200
  246CLA    CLA22306   0.264   1.737   8.239 -0.0122  0.2065 -0.2378
  247CLA    CLA22307   5.508   5.138   0.315 -0.0902 -0.0814  0.1876
  248CLA    CLA22308   4.592   5.253   1.482  0.3942  0.2856 -0.0262
  249CLA    CLA22309   6.781   4.119   2.799 -0.1292 -0.0591 -0.1018
  250CLA    CLA22310   5.798   0.488   0.665  0.2045 -0.3538 -0.2579
  251TIP3   OH222311   5.224   5.401   1.870 -0.0120  0.3051 -0.3042
  251TIP3    H122312   5.261   5.469   1.814  0.2592  0.6916  0.3282
  251TIP3    H222313   5.262   5.320   1.837  0.8546  0.6210 -0.1261
  252TIP3   OH222314   0.395   6.443   2.302 -0.1775 -0.0125 -0.5362
  252TIP3    H122315   0.448   6.512   2.261  2.1322 -1.1541  0.3850
  252TIP3    H222316   0.363   6.482   2.383  1.8613 -0.2422  0.4243
  253TIP3   OH222317   5.243   2.316   3.276 -0.0200  0.0565  0.4696
  253TIP3    H122318   5.177   2.251   3.251  0.7375 -0.6448  0.2360
  253TIP3    H222319   5.265   2.294   3.367  0.2298 -0.0128  0.3932
  254TIP3   OH222320   6.794   6.161   1.849 -0.3237 -0.4300 -0.6181
  254TIP3    H122321   6.764   6.162   1.758 -0.7433 -0.3588 -0.4796
  254TIP3    H222322   6.860   6.230   1.853  2.2937 -2.6879 -1.7331
  255TIP3   OH222323   1.129   0.926   2.226  0.6393  0.5112 -0.7328
  255TIP3    H122324   1.111   0.873   2.304 -0.9983  0.6956 -0.9381
  255TIP3    H222325   1.215   0.896   2.196  0.2824 -1.2157 -0.1715
  256TIP3   OH222326   2.949   6.632   2.064  0.2476  0.7703 -0.4879
  256TIP3    H122327   2.859   6.663   2.069  0.0764  0.8272 -2.7375
  256TIP3    H222328   2.999   6.694   2.116 -0.9981  0.6544  0.9174
  257TIP3   OH222329   1.719   0.242   1.983 -0.2865  0.0859 -0.1095
  257TIP3    H122330   1.815   0.244   1.987 -0.2936  2.2838  0.0120
  257TIP3    H222331   1.691   0.313   2.041 -2.0919 -1.7972  1.4678
  258TIP3   OH222332   5.018   2.936   2.005 -0.4618  0.6949 -0.1847
  258TIP3    H122333   4.954   3.003   1.981 -2.7306 -1.4338 -0.4571
  258TIP3    H222334   4.985   2.899   2.087  0.2836 -0.6281 -0.4566
  259TIP3   OH222335   2.053   6.181   2.009 -0.1759 -0.0276 -0.4719
  259TIP3    H122336   2.013   6.182   1.923 -0.4701  3.4654 -0.4426
  259TIP3    H222337   2.138   6.139   1.996  0.1989  1.2631 -2.7414
  260TIP3   OH222338   4.013   1.807   0.667  0.5352 -0.2519  0.5281
  260TIP3    H122339   3.953   1.790   0.740 -3.0597  1.1506 -1.7866
  260TIP3    H222340   4.040   1.720   0.637 -2.1665 -1.1558  0.4354
  261TIP3   OH222341   4.745   1.634   2.787 -0.0020  0.4409 -0.2391
  261TIP3    H122342   4.667   1.690   2.784 -0.1200  0.2560 -2.2857
  261TIP3    H222343   4.727   1.572   2.857 -2.7054 -0.9120 -1.9278
  262TIP3   OH222344   2.927   1.580   1.006  0.1186  0.6659  0.5275
  262TIP3    H122345   3.014   1.616   1.024 -0.1862  1.4293  0.5430
  262TIP3    H222346   2.881   1.587   1.089  0.3374 -0.6463  0.7781
  263TIP3   OH222347   1.206   1.174   7.605  0.4981  0.0342 -0.1767
  263TIP3    H122348   1.302   1.175   7.612  0.3870  1.3938  2.8541
  263TIP3    H222349   1.185   1.254   7.556  0.9148  0.1657 -0.1465
  264TIP3   OH222350   0.644   6.282   2.881  0.0576 -0.9801  0.5811
  264TIP3    H122351   0.570   6.342   2.884 -0.1558 -1.2723  1.2716
  264TIP3    H222352   0.705   6.322   2.819  0.5104  0.6320  2.0079
  265TIP3   OH222353   5.396   2.198   7.857 -0.1523  0.0455  0.1281
  265TIP3    H122354   5.459   2.167   7.792 -1.1387  0.2754 -0.9708
  265TIP3    H222355   5.351   2.119   7.887  0.1121 -0.0309  0.3235
  266TIP3   OH222356   6.610   1.011   1.310 -0.3406 -0.4173  0.1384
  266TIP3    H122357   6.609   1.033   1.216  1.1476 -3.0653 -0.5905
  266TIP3    H222358   6.682   1.064   1.346 -0.1629 -0.2365 -0.4643
  267TIP3   OH222359   6.367   5.300   0.215  0.5339  0.1009 -0.0149
  267TIP3    H122360   6.457   5.328   0.228  0.2749  1.5487 -1.0939
  267TIP3    H222361   6.320   5.336   0.291  0.7220  0.0370  0.1329
  268TIP3   OH222362   1.983   2.269   2.255  0.4010 -0.6176 -0.2433
  268TIP3    H122363   1.895   2.304   2.242  1.4791  2.1176 -0.8176
  268TIP3    H222364   1.972   2.200   2.321 -2.2381 -0.9106 -0.8710
  269TIP3   OH222365   0.956   2.489   8.380 -0.0164 -0.3917 -0.5442
  269TIP3    H122366   0.903   2.557   8.338 -1.5229 -1.3167 -0.2147
  269TIP3    H222367   0.892   2.429   8.418  1.1935  0.3064  3.0466
  270TIP3   OH222368   0.368   4.826   1.569  0.3608 -0.6678 -0.3271
  270TIP3    H122369   0.292   4.873   1.602  0.4342  0.3012 -1.4691
  270TIP3    H222370   0.332   4.744   1.534 -0.2894  0.0594 -1.4470
  271TIP3   OH222371   2.463   2.265   2.306  0.3309  0.4518  0.2723
  271TIP3    H122372   2.516   2.209   2.363  0.0977  0.0670  0.1134
  271TIP3    H222373   2.479   2.232   2.217 -0.4356  0.1126  0.2525
  272TIP3   OH222374   4.205   5.952   0.201 -0.1089  0.3834 -0.1915
  272TIP3    H122375   4.219   6.010   0.125  1.8443  0.6524  0.3341
  272TIP3    H222376   4.179   6.011   0.271 -0.1297  0.3598 -0.1793
  273TIP3   OH222377   4.526   2.321   0.910 -0.3365  0.8441  0.1598
  273TIP3    H122378   4.441   2.285   0.934 -0.1980  0.0066 -0.5695
  273TIP3    H222379   4.543   2.388   0.977 -1.3168  0.6544  0.6184
  274TIP3   OH222380   4.711   6.067   0.311 -0.1025 -0.2863 -0.0772
  274TIP3    H122381   4.619   6.089   0.295 -0.1625 -0.3809  0.1284
  274TIP3    H222382   4.712   6.033   0.401 -0.2327 -2.3022 -0.7803
  275TIP3   OH222383   6.290   2.149   7.312 -0.4880  0.2900  0.0172
  275TIP3    H122384   6.303   2.093   7.388  3.3493  1.6567  0.5791
  275TIP3    H222385   6.375   2.151   7.268 -1.9387  1.3604 -3.0835
  276TIP3   OH222386   2.883   0.591   2.657  0.2899  0.7123  0.1688
  276TIP3    H122387   2.939   0.603   2.733  0.9404 -1.0635  0.0151
  276TIP3    H222388   2.935   0.538   2.597 -2.0196 -2.5166  0.7181
  277TIP3   OH222389   0.178   0.473   8.414 -0.5197  0.0555 -0.3809
  277TIP3    H122390   0.266   0.450   8.385 -0.2008  0.7527  0.0218
  277TIP3    H222391   0.181   0.567   8.429 -1.4055  0.1280 -0.6062
  278TIP3   OH222392   4.570   5.484   0.051  0.5081  0.0559  0.2992
  278TIP3    H122393   4.576   5.488  -0.045 -1.0446  1.7733  0.2036
  278TIP3    H222394   4.658   5.506   0.082  1.3011 -1.5519 -0.7069
  279TIP3   OH222395   0.526   0.115   8.661  0.1889 -0.3095 -0.4321
  279TIP3    H122396   0.450   0.072   8.700 -0.9008  1.8416 -0.0834
  279TIP3    H222397   0.580   0.141   8.735  0.2961 -0.1121 -0.5783
  280TIP3   OH222398   6.495   5.799   7.940 -0.1141  0.0564  0.3248
  280TIP3    H122399   6.541   5.868   7.987 -0.2081  1.3215 -1.3417
  280TIP3    H222400   6.445   5.845   7.872 -1.0464 -1.5682 -0.1508
  281TIP3   OH222401   5.370   0.026   3.395  0.3385 -0.2876 -0.1640
  281TIP3    H122402   5.454  -0.015   3.416  0.6206  0.2846 -0.1601
  281TIP3    H222403   5.382   0.061   3.307  0.0866 -0.2390 -0.1814
  282TIP3   OH222404   5.033   6.609   2.670 -0.1009 -0.7098 -0.1979
  282TIP3    H122405   5.123   6.631   2.695  0.7936 -2.1544 -1.9201
  282TIP3    H222406   4.985   6.608   2.753  1.0841  1.6008  0.6108
  283TIP3   OH222407   2.918   5.853   1.281 -0.2579 -0.2716  0.4992
  283TIP3    H122408   2.927   5.891   1.369 -0.2482  0.4424  0.2004
  283TIP3    H222409   2.846   5.902   1.241 -1.0284 -1.3695  0.4958
  284TIP3   OH222410   1.061   4.983   0.506 -0.4065  0.1998  0.7051
  284TIP3    H122411   1.131   4.918   0.503  0.2422  0.8549  1.1862
  284TIP3    H222412   1.089   5.052   0.445 -2.1803 -0.9811 -1.5972
  285TIP3   OH222413   6.397   2.220   2.284  0.9577  0.0170  0.2602
  285TIP3    H122414   6.471   2.170   2.249 -0.4804 -1.0219 -1.5313
  285TIP3    H222415   6.343   2.154   2.328  1.5501  0.9299  2.4528
  286TIP3   OH222416   2.620   6.443   8.165  0.2525 -0.1946 -0.0900
  286TIP3    H122417   2.567   6.377   8.210 -0.0340 -0.4482 -0.7804
  286TIP3    H222418   2.559   6.513   8.143  0.1537 -0.5708 -1.0519
  287TIP3   OH222419   1.199   1.609   2.647  0.3905  0.3380 -0.0224
  287TIP3    H122420   1.159   1.694   2.631 -2.3745 -0.6902  0.8882
  287TIP3    H222421   1.156   1.550   2.584  1.3233 -0.6306  0.2139
  288TIP3   OH222422   6.830   2.735   0.370 -0.1981 -0.1746 -0.1702
  288TIP3    H122423   6.834   2.695   0.283  1.2612 -0.0918 -0.1784
  288TIP3    H222424   6.850   2.827   0.356  0.8627 -0.3112  0.3159
  289TIP3   OH222425   4.763   2.359   0.670  0.0637  0.1509 -0.2936
  289TIP3    H122426   4.835   2.315   0.625 -0.5339  0.6995 -1.8705
  289TIP3    H222427   4.802   2.440   0.704  1.0431 -1.2788  2.1828
  290TIP3   OH222428   5.170   0.630   0.955 -0.3220 -0.0688  0.1783
  290TIP3    H122429   5.129   0.711   0.923 -1.7646 -0.2879  1.3435
  290TIP3    H222430   5.170   0.572   0.879 -1.1761  0.3379 -0.1501
  291TIP3   OH222431   1.731   6.298   0.547  0.0776 -0.2962  0.0320
  291TIP3    H122432   1.818   6.300   0.507  0.2042  0.3104  0.3391
  291TIP3    H222433   1.674   6.262   0.478  0.0782  1.7836 -1.1152
  292TIP3   OH222434   2.233   4.575   0.390 -0.3774 -0.2336  0.3288
  292TIP3    H122435   2.150   4.565   0.438  0.3872 -0.9527  1.5263
  292TIP3    H222436   2.289   4.506   0.423 -0.3288 -1.8749 -2.8415
  293TIP3   OH222437   0.596   4.703   0.228 -0.7098 -0.0687  0.3845
  293TIP3    H122438   0.687   4.684   0.205 -0.2043  0.7666  1.6072
  293TIP3    H222439   0.556   4.617   0.241 -0.5137 -0.5081 -1.6001
  294TIP3   OH222440   6.056   4.220   8.274 -0.4952  0.7369  0.1104
  294TIP3    H122441   6.017   4.284   8.333  0.1063  1.2651 -0.0606
  294TIP3    H222442   5.983   4.163   8.250 -0.6226  0.1167  1.8384
  295TIP3   OH222443   5.296   2.408   8.022 -0.1522  0.3972  0.2148
  295TIP3    H122444   5.374   2.461   8.039 -0.4607  0.6833  0.7534
  295TIP3    H222445   5.320   2.354   7.946  0.5726  0.4681  0.3879
  296TIP3   OH222446   5.574   1.923   2.781 -0.0000  0.4435 -0.1335
  296TIP3    H122447   5.598   1.906   2.690  1.1120 -0.3055  0.2773
  296TIP3    H222448   5.481   1.945   2.778  0.2907  1.5771 -1.5786
  297TIP3   OH222449   6.163   0.716   8.196 -0.0703  0.0472  0.0865
  297TIP3    H122450   6.136   0.797   8.152  0.7939  1.6393  2.2956
  297TIP3    H222451   6.187   0.657   8.125  0.7799  2.2867 -1.6129
  298TIP3   OH222452   6.483   3.305   1.883 -0.3301  0.0653  0.0220
  298TIP3    H122453   6.456   3.390   1.848 -3.0261 -0.3473  0.8853
  298TIP3    H222454   6.494   3.320   1.977  1.3582 -0.1119 -0.1021
  299TIP3   OH222455   0.847   5.916   1.109  0.3077 -0.2292  0.5195
  299TIP3    H122456   0.892   5.892   1.189  0.3381 -0.5631  0.4007
  299TIP3    H222457   0.803   5.836   1.080  0.6332 -0.2196 -0.0194
  300TIP3   OH222458   4.588   4.327   1.018  0.3120  0.4250 -0.1454
  300TIP3    H122459   4.652   4.262   1.046 -0.0109  0.3954  0.5470
  300TIP3    H222460   4.640   4.401   0.988  0.7168  1.0362  1.8626
  301TIP3   OH222461   3.935   5.289   0.319 -0.0810  0.4164  0.1420
  301TIP3    H122462   3.980   5.216   0.361 -0.0940 -0.1177 -0.7546
  301TIP3    H222463   3.853   5.252   0.287 -0.8103  1.1939  1.0339
  302TIP3   OH222464   4.700   5.701   1.917 -0.2494 -0.5602 -0.1481
  302TIP3    H122465   4.756   5.643   1.867 -0.6582 -2.4463  1.4435
  302TIP3    H222466   4.760   5.755   1.968  0.1269  0.0906 -1.2511
  303TIP3   OH222467   4.241   3.093   7.383  0.2623  0.5950  0.2349
  303TIP3    H122468   4.208   3.031   7.448  0.9075  0.6083  0.5887
  303TIP3    H222469   4.228   3.050   7.299 -2.1764  1.2825  0.1931
  304TIP3   OH222470   1.454   4.738   1.571 -0.1055  0.4953 -0.2344
  304TIP3    H122471   1.445   4.714   1.478 -1.5837  0.5586 -0.1185
  304TIP3    H222472   1.391   4.683   1.617  2.2954 -1.3398  1.1090
  305TIP3   OH222473   5.489   2.253   0.397  0.2564 -0.0040  0.2452
  305TIP3    H122474   5.564   2.245   0.456  0.6246  0.5098 -0.1391
  305TIP3    H222475   5.427   2.309   0.444 -0.8762 -2.2072  1.5114
  306TIP3   OH222476   2.708   6.398   1.303 -0.1512  0.6553 -0.2159
  306TIP3    H122477   2.639   6.349   1.347  0.4135  1.1896  1.3584
  306TIP3    H222478   2.787   6.346   1.318 -0.2596 -0.3005 -2.5756
  307TIP3   OH222479   4.175   6.359   0.903  0.3070 -0.1688  0.0807
  307TIP3    H122480   4.170   6.441   0.953  0.1560  0.0089 -0.2199
  307TIP3    H222481   4.146   6.292   0.964 -0.2184  0.0938  0.1288
  308TIP3   OH222482   1.167   6.006   0.998 -0.0657 -0.2490 -0.0671
  308TIP3    H122483   1.108   5.945   0.952 -0.2499 -2.0529  2.3441
  308TIP3    H222484   1.255   5.972   0.980 -0.1501 -1.0938  1.0050
  309TIP3   OH222485   6.161   4.289   0.459  0.6563  0.0328 -0.1274
  309TIP3    H122486   6.227   4.236   0.504  1.1932  0.1916 -0.7183
  309TIP3    H222487   6.170   4.266   0.366 -0.2591 -0.0945 -0.1952
  310TIP3   OH222488   6.002   1.963   2.446  0.0265 -0.1234 -0.0075
  310TIP3    H122489   6.001   1.893   2.512  0.3131 -1.4792 -1.3980
  310TIP3    H222490   5.928   1.944   2.389  1.3531 -0.5575 -1.6559
  311TIP3   OH222491   0.072   1.225   8.416 -0.9756  0.3827 -0.0455
  311TIP3    H122492   0.080   1.265   8.502 -0.7789 -0.5601  0.3890
  311TIP3    H222493   0.130   1.277   8.360 -0.0045  0.1572  0.7169
  312TIP3   OH222494   5.631   5.647   2.273  0.7353 -0.4004 -0.5338
  312TIP3    H122495   5.659   5.695   2.351 -0.1250  0.2244 -0.6007
  312TIP3    H222496   5.539   5.668   2.263  1.1570  0.7636 -2.5680
  313TIP3   OH222497   1.097   1.951   8.667 -0.2821  0.2354 -0.3890
  313TIP3    H122498   1.026   1.888   8.678 -0.0344  0.4478  3.7516
  313TIP3    H222499   1.166   1.921   8.726  0.2999  3.6877  0.9146
  314TIP3   OH222500   1.105   0.912   1.234  0.8582 -0.1884 -0.4141
  314TIP3    H122501   1.198   0.905   1.259  0.8972  0.1186 -0.4690
  314TIP3    H222502   1.102   0.986   1.174  0.5115  0.0603 -0.0927
  315TIP3   OH222503   2.178   1.005   2.535  0.4561 -0.1274 -0.6959
  315TIP3    H122504   2.180   1.015   2.440 -0.6300  1.7872 -0.5552
  315TIP3    H222505   2.244   1.065   2.568 -0.8100  1.0316 -0.1657
  316TIP3   OH222506   4.468   1.346   7.771 -0.1012 -0.2684 -0.4226
  316TIP3    H122507   4.382   1.382   7.751 -1.2710 -2.8014 -0.4220
  316TIP3    H222508   4.518   1.357   7.690  0.3596  3.0135  0.1790
  317TIP3   OH222509   2.505   0.929   2.817 -0.0279 -0.0022 -0.1398
  317TIP3    H122510   2.527   0.891   2.732 -0.6066 -3.5327  1.1289
  317TIP3    H222511   2.443   0.868   2.856 -0.4384  1.9035  2.5169
  318TIP3   OH222512   3.353   5.242   2.367  0.0422 -0.4015 -0.0753
  318TIP3    H122513   3.395   5.196   2.294 -0.1608 -0.5886 -0.0733
  318TIP3    H222514   3.336   5.174   2.432  0.3790 -0.2101  0.2231
  319TIP3   OH222515   2.780   4.594   2.846  0.0138 -0.4135 -0.0203
  319TIP3    H122516   2.835   4.627   2.775 -1.4527 -0.7855 -1.3907
  319TIP3    H222517   2.807   4.644   2.923  1.2133  0.4605 -0.9834
  320TIP3   OH222518   5.365   3.007   7.590  0.3715 -0.1214  0.1943
  320TIP3    H122519   5.341   2.934   7.532  0.6325 -1.2438  1.4447
  320TIP3    H222520   5.447   3.040   7.552 -0.4648  0.4523 -1.1837
  321TIP3   OH222521   5.004   1.539   0.238 -0.0255  0.2451  0.1651
  321TIP3    H122522   4.993   1.458   0.288  0.6252 -0.7972 -1.2754
  321TIP3    H222523   5.031   1.509   0.151  0.8743  2.0599 -0.2259
  322TIP3   OH222524   6.518   4.911   0.232 -0.4933 -0.0687  0.2755
  322TIP3    H122525   6.464   4.940   0.306 -0.1984 -1.3150  1.0135
  322TIP3    H222526   6.569   4.837   0.267 -1.2236 -1.4895 -1.4973
  323TIP3   OH222527   0.991   4.412   3.021  0.3695 -0.0075 -0.5319
  323TIP3    H122528   0.928   4.454   3.080  1.1825  0.7626 -0.1854
  323TIP3    H222529   1.053   4.370   3.080  1.3419  0.9939 -0.8058
  324TIP3   OH222530   6.607   5.446   8.319 -0.0678 -0.0685 -0.0675
  324TIP3    H122531   6.547   5.493   8.261 -0.1378 -1.6636 -1.3317
  324TIP3    H222532   6.555   5.377   8.358  0.5902 -0.5739 -0.0609
  325TIP3   OH222533   2.277   1.698   2.692 -0.1006  0.0224 -0.0414
  325TIP3    H122534   2.216   1.724   2.622  0.4692 -0.5225 -0.7462
  325TIP3    H222535   2.363   1.723   2.660  0.0447  1.1351  1.1169
  326TIP3   OH222536   2.334   0.529   1.705 -0.6592  0.4438  0.9335
  326TIP3    H122537   2.321   0.436   1.722 -2.1386  0.5176  0.3182
  326TIP3    H222538   2.348   0.534   1.610 -1.2035  0.9108  0.8758
  327TIP3   OH222539   6.435   3.766   7.020  0.0555 -0.4077  0.1675
  327TIP3    H122540   6.496   3.838   7.036 -1.7367  1.0640  0.6724
  327TIP3    H222541   6.428   3.721   7.104 -1.5921  1.1005  0.8818
  328TIP3   OH222542   5.862   0.724   1.120 -0.1339  0.2648  0.6867
  328TIP3    H122543   5.928   0.766   1.064  1.0555 -1.5056  0.6779
  328TIP3    H222544   5.792   0.698   1.060 -0.4745  1.4053  0.5659
  329TIP3   OH222545   1.952   5.448   1.787  0.3195  0.4651  0.5217
  329TIP3    H122546   2.033   5.444   1.735  0.9801 -0.0430  1.5505
  329TIP3    H222547   1.888   5.488   1.729  0.3910 -2.1386 -1.5019
  330TIP3   OH222548   3.964   3.512   0.272 -0.4305 -0.6455  0.1163
  330TIP3    H122549   4.052   3.488   0.244 -0.1142  0.6403 -0.0185
  330TIP3    H222550   3.967   3.508   0.368 -0.0276  0.0243  0.1401
  331TIP3   OH222551   2.094   4.984   7.270 -0.1323  0.2450  0.2619
  331TIP3    H122552   2.009   4.967   7.230 -0.9592 -0.2243  2.1008
  331TIP3    H222553   2.103   5.079   7.267 -0.8602  0.3249  0.2892
  332TIP3   OH222554   5.753   4.398   2.663  0.2921  1.2224 -0.2828
  332TIP3    H122555   5.835   4.446   2.650  1.6421 -1.3866 -2.3222
  332TIP3    H222556   5.766   4.348   2.743  0.6918  0.8609 -0.5697
  333TIP3   OH222557   6.342   3.590   2.101 -0.1791 -0.6537  0.3636
  333TIP3    H122558   6.437   3.596   2.085 -0.2893 -0.6300 -0.3311
  333TIP3    H222559   6.317   3.508   2.059 -0.3878 -0.8997  0.9682
  334TIP3   OH222560   2.647   5.560   1.405 -0.0132 -0.0458 -0.1258
  334TIP3    H122561   2.587   5.634   1.421  0.9386  0.5662  0.7546
  334TIP3    H222562   2.594   5.483   1.425 -1.1010  0.3655 -1.2946
  335TIP3   OH222563   4.603   5.455   2.327 -0.6125  0.3539  0.1946
  335TIP3    H122564   4.653   5.482   2.403 -2.4984  0.2625  1.5392
  335TIP3    H222565   4.538   5.524   2.315 -0.9455 -0.0996 -0.7392
  336TIP3   OH222566   1.980   1.576   8.520  0.3204  0.7037  0.8173
  336TIP3    H122567   2.064   1.574   8.566 -0.1796 -0.2227  1.7100
  336TIP3    H222568   1.974   1.491   8.477 -0.1663  0.7632  0.7659
  337TIP3   OH222569   1.182   4.513   7.546 -0.0315 -0.1432 -0.2750
  337TIP3    H122570   1.255   4.568   7.576 -0.1911 -0.0891  0.0143
  337TIP3    H222571   1.178   4.442   7.610  1.3136 -1.4872 -1.6022
  338TIP3   OH222572   3.521   0.842   8.514 -0.4166  0.3355 -0.1494
  338TIP3    H122573   3.495   0.855   8.423 -0.9474  0.3462 -0.0014
  338TIP3    H222574   3.514   0.747   8.527 -0.9996  0.4045  0.0682
  339TIP3   OH222575   2.269   5.993   1.088  0.5310 -0.2217 -0.0373
  339TIP3    H122576   2.223   5.981   1.171 -0.3004 -2.7206 -0.7715
  339TIP3    H222577   2.335   5.925   1.087  0.4255 -0.3391 -1.4952
  340TIP3   OH222578   0.333   1.534   0.602 -1.1759 -0.0271  0.2987
  340TIP3    H122579   0.294   1.602   0.547 -1.4355 -1.5721 -1.5160
  340TIP3    H222580   0.348   1.578   0.686 -1.5547  2.1858 -0.7052
  341TIP3   OH222581   5.543   6.541   0.143  0.5003  0.5858 -0.0369
  341TIP3    H122582   5.524   6.597   0.068 -0.2415 -1.7805 -1.7600
  341TIP3    H222583   5.491   6.578   0.215  0.4693  2.3725 -0.9354
  342TIP3   OH222584   4.726   1.265   7.624 -0.3213 -0.1893  0.6026
  342TIP3    H122585   4.731   1.340   7.684 -0.7827  1.2003 -1.0088
  342TIP3    H222586   4.735   1.304   7.537  2.5575 -2.3555 -0.2110
  343TIP3   OH222587   3.092   1.131   1.081 -0.0289  0.1413  0.0768
  343TIP3    H122588   3.061   1.083   1.157  0.5725 -1.3078 -0.5416
  343TIP3    H222589   3.183   1.102   1.069  0.1893  1.0416 -0.6460
  344TIP3   OH222590   1.090   4.471   2.304  0.3819 -0.4932 -0.0628
  344TIP3    H122591   1.182   4.462   2.326  0.5968  1.6896  0.1074
  344TIP3    H222592   1.089   4.513   2.219 -0.4282  0.3699  0.3495
  345TIP3   OH222593   5.136   4.093   3.120  0.2669  0.2276 -0.2683
  345TIP3    H122594   5.088   4.113   3.201  0.1955 -2.1363  0.3528
  345TIP3    H222595   5.132   4.174   3.069 -2.8454  0.7004  0.5135
  346TIP3   OH222596   3.702   0.520   0.166  0.1004  0.0448 -0.6191
  346TIP3    H122597   3.640   0.450   0.144 -0.1900 -0.1876  0.8284
  346TIP3    H222598   3.758   0.482   0.234  1.7689  0.3088 -1.7882
  347TIP3   OH222599   0.303   1.096   1.366  0.0165 -0.2288 -0.1881
  347TIP3    H122600   0.384   1.146   1.354 -0.2018  0.2420  0.2899
  347TIP3    H222601   0.253   1.113   1.286 -0.4534  1.0675  0.3558
  348TIP3   OH222602   5.338   0.065   0.002  0.0114 -0.0664  0.0132
  348TIP3    H122603   5.260   0.039  -0.047  0.1561 -0.3685 -0.0619
  348TIP3    H222604   5.397  -0.010  -0.006 -0.0951 -0.2631  0.9328
  349TIP3   OH222605   0.515   2.629   7.687  0.1601 -0.0272  0.4314
  349TIP3    H122606   0.508   2.718   7.652 -0.4408 -0.9609 -2.0567
  349TIP3    H222607   0.445   2.622   7.751 -0.6734  0.8951 -0.3426
  350TIP3   OH222608   3.879   0.193   0.539 -0.0651 -0.0943 -0.8028
  350TIP3    H122609   3.849   0.180   0.628 -0.1026  0.0179 -0.7992
  350TIP3    H222610   3.970   0.162   0.539  0.8610  2.3281 -0.0591
  351TIP3   OH222611   0.576   3.046   7.874  0.2567 -0.1086 -0.2675
  351TIP3    H122612   0.494   3.065   7.920  0.0570  2.3337 -1.4768
  351TIP3    H222613   0.551   2.986   7.804 -0.4636  0.4035 -0.4592
  352TIP3   OH222614   5.740   0.602   7.733  0.3625  0.4636 -0.0163
  352TIP3    H122615   5.682   0.654   7.677  1.1289  0.5041 -0.7857
  352TIP3    H222616   5.803   0.563   7.672 -0.6713 -2.0535  0.3983
  353TIP3   OH222617   2.724   0.899   7.424  0.4553 -0.1686 -0.7310
  353TIP3    H122618   2.662   0.964   7.458 -0.9151 -1.6902 -0.1789
  353TIP3    H222619   2.798   0.951   7.392  0.2806  1.5581  1.4065
  354TIP3   OH222620   0.369   5.540   7.876  0.1966  0.6258 -0.5057
  354TIP3    H122621   0.394   5.522   7.786  1.5159 -1.2403  0.1659
  354TIP3    H222622   0.426   5.612   7.903  2.4637 -1.1757 -0.1349
  355TIP3   OH222623   0.312   6.761   1.995  0.1405  0.1301 -0.4101
  355TIP3    H122624   0.276   6.840   2.035 -0.3453  0.1640 -0.9043
  355TIP3    H222625   0.384   6.735   2.053 -3.0639 -2.2148  3.0058
  356TIP3   OH222626   2.397   0.890   0.715  0.2446  0.6015 -0.0255
  356TIP3    H122627   2.475   0.835   0.720  0.1784  0.3472 -1.3313
  356TIP3    H222628   2.386   0.926   0.803  0.2492 -1.5133  0.8950
  357TIP3   OH222629   0.200   2.324   8.307  0.5673  0.1774 -0.1646
  357TIP3    H122630   0.127   2.377   8.340  0.9780  1.1690 -0.7881
  357TIP3    H222631   0.219   2.263   8.378 -1.8456 -1.1684 -0.5735
  358TIP3   OH222632   0.252   5.088   2.405 -0.1661 -0.1287  0.0976
  358TIP3    H122633   0.252   5.080   2.500 -1.2419 -0.6850  0.0710
  358TIP3    H222634   0.197   5.015   2.375  1.0052 -0.5819 -1.0169
  359TIP3   OH222635   4.709   3.547   0.803 -0.0506  0.2701 -0.0755
  359TIP3    H122636   4.665   3.632   0.805  0.7151  0.7625 -1.6918
  359TIP3    H222637   4.658   3.495   0.741 -1.6671 -1.1975  2.3591
  360TIP3   OH222638   0.343   3.086   8.036  0.1697 -0.2938 -0.5202
  360TIP3    H122639   0.330   3.037   8.117 -3.4211 -0.0316 -0.8132
  360TIP3    H222640   0.305   3.172   8.052  0.7331  0.2802 -2.0243
  361TIP3   OH222641   5.539   0.191   1.193 -0.7008  0.6129 -0.6858
  361TIP3    H122642   5.553   0.286   1.196  1.5289  0.3131  0.1217
  361TIP3    H222643   5.514   0.168   1.283 -0.3950  0.3385 -0.6697
  362TIP3   OH222644   5.401   4.441   3.401  0.4035  0.0310 -0.1555
  362TIP3    H122645   5.317   4.444   3.355 -0.2416  1.7338  1.0225
  362TIP3    H222646   5.393   4.366   3.460 -0.3367  0.2290  0.0073
  363TIP3   OH222647   1.239   6.170   7.541 -0.2526 -0.0282  0.4252
  363TIP3    H122648   1.270   6.238   7.481  0.7458  0.3401  1.3237
  363TIP3    H222649   1.190   6.110   7.485  1.1965 -0.0512 -0.8939
  364TIP3   OH222650   5.277   0.379   8.620 -0.3101  0.0438 -0.4006
  364TIP3    H122651   5.266   0.473   8.637 -0.6071 -0.0148 -0.2726
  364TIP3    H222652   5.201   0.356   8.566  0.8843  0.3570 -2.3371
  365TIP3   OH222653   0.804   5.401   3.178 -0.4240 -0.3422  0.1322
  365TIP3    H122654   0.864   5.349   3.125  0.9168 -0.0839  1.3555
  365TIP3    H222655   0.794   5.353   3.259 -0.6167  0.4019  0.5645
  366TIP3   OH222656   4.102   4.314   2.197  0.0175 -0.4657 -0.0105
  366TIP3    H122657   4.119   4.287   2.288  0.1216  1.9598  0.7479
  366TIP3    H222658   4.007   4.322   2.193  0.0396 -0.2058 -0.0057
  367TIP3   OH222659   4.110   0.435   8.524  0.0390  0.6466  0.5670
  367TIP3    H122660   4.107   0.522   8.564 -1.1268  0.7044  0.4130
  367TIP3    H222661   4.084   0.451   8.433 -2.4420 -0.1032  1.0611
  368TIP3   OH222662   3.460   4.310   0.927 -0.0473 -0.7441 -0.5274
  368TIP3    H122663   3.482   4.219   0.950 -1.2623 -1.0556 -0.5161
  368TIP3    H222664   3.506   4.325   0.844 -1.6935 -2.1991 -1.7735
  369TIP3   OH222665   3.081   3.979   3.507 -0.7408  0.2115 -0.1021
  369TIP3    H122666   3.032   4.061   3.520 -2.2752 -0.3538 -1.8522
  369TIP3    H222667   3.065   3.957   3.415  1.2927 -1.0327 -0.2068
  370TIP3   OH222668   5.104   2.247   2.397  0.2533 -0.5071 -0.2439
  370TIP3    H122669   5.172   2.269   2.334  0.9816 -1.7090  0.0681
  370TIP3    H222670   5.098   2.151   2.393 -1.3011 -0.4395 -0.1207
  371TIP3   OH222671   6.042   5.326   1.227  0.1674  0.3577  0.2256
  371TIP3    H122672   6.053   5.420   1.242  2.5137  0.1987 -0.1254
  371TIP3    H222673   6.084   5.310   1.142  0.1452 -1.0798  0.4580
  372TIP3   OH222674   0.906   4.255   2.285  1.0478  0.0721 -0.5907
  372TIP3    H122675   0.950   4.335   2.312  3.1172 -0.8806 -0.9352
  372TIP3    H222676   0.891   4.266   2.191  2.4982 -0.3885 -0.9152
  373TIP3   OH222677   5.715   5.803   2.470 -0.5490  0.1297  0.5034
  373TIP3    H122678   5.706   5.851   2.552  2.6618  0.6615  0.6664
  373TIP3    H222679   5.720   5.870   2.402  2.2815  0.1097  0.5589
  374TIP3   OH222680   5.642   5.292   0.571 -0.0944  0.3198 -0.1927
  374TIP3    H122681   5.587   5.246   0.634 -2.5690  1.3458 -1.4760
  374TIP3    H222682   5.651   5.232   0.497 -1.1526  0.8419 -0.7758
  375TIP3   OH222683   3.760   6.393   7.762  0.1436  0.9534  0.1217
  375TIP3    H122684   3.819   6.331   7.720 -1.6980 -0.1272 -1.0264
  375TIP3    H222685   3.728   6.448   7.690  0.6690  2.3518  0.9164
  376TIP3   OH222686   5.722   6.204   1.302 -0.6200 -0.0397  0.0263
  376TIP3    H122687   5.814   6.191   1.325 -1.1451 -1.1101  1.7450
  376TIP3    H222688   5.724   6.235   1.212  1.4379  0.4335  0.1812
  377TIP3   OH222689   6.168   0.782   2.457  0.5595 -0.5077  0.6377
  377TIP3    H122690   6.075   0.804   2.449  0.6509  0.2416  1.5003
  377TIP3    H222691   6.175   0.694   2.420 -0.0446  0.3729 -1.8336
  378TIP3   OH222692   1.407   5.201   7.646  0.3296 -0.4024  0.2044
  378TIP3    H122693   1.433   5.110   7.631  1.0412 -0.7784  3.1403
  378TIP3    H222694   1.416   5.213   7.741  0.1485  2.7086 -0.0841
  379TIP3   OH222695   5.255   1.028   1.656 -0.2929 -0.2419 -0.5138
  379TIP3    H122696   5.324   0.989   1.601  0.1200  1.4094 -1.2361
  379TIP3    H222697   5.201   0.953   1.682  1.2733 -1.4891 -0.6111
  380TIP3   OH222698   0.189   0.986   2.363 -0.1553 -0.2771 -0.0850
  380TIP3    H122699   0.221   0.969   2.452 -1.8951  0.0460  0.6606
  380TIP3    H222700   0.256   1.041   2.323  0.4552 -0.0376  1.1927
  381TIP3   OH222701   6.071   3.357   0.122  0.0134 -0.3368  0.0902
  381TIP3    H122702   6.036   3.433   0.077  0.6960  0.3194  0.6566
  381TIP3    H222703   6.003   3.290   0.111 -1.8099  1.1030  1.7747
  382TIP3   OH222704   4.014   4.646   0.056 -0.2692 -0.2547  0.2775
  382TIP3    H122705   4.012   4.550   0.048  0.2209 -0.3062  0.7330
  382TIP3    H222706   4.083   4.673  -0.005 -0.0312 -0.2376  0.5531
  383TIP3   OH222707   0.826   6.358   2.001  0.3661 -0.5442  0.6091
  383TIP3    H122708   0.857   6.342   2.090  2.1505 -1.5192 -0.1558
  383TIP3    H222709   0.730   6.349   2.008  0.4479 -0.4880  2.4243
  384TIP3   OH222710   5.344   4.239   2.317 -0.0264  0.1268 -0.3512
  384TIP3    H122711   5.317   4.156   2.277  1.3835  0.3911 -1.9599
  384TIP3    H222712   5.374   4.293   2.244 -0.2786  1.8337  0.7380
  385TIP3   OH222713   6.439   2.571   0.874  0.0912 -0.0144  0.2881
  385TIP3    H122714   6.511   2.615   0.920  0.1480  0.1474  0.0500
  385TIP3    H222715   6.383   2.642   0.844 -0.0949 -0.1337  0.3536
  386TIP3   OH222716   5.322   3.020   1.697 -0.2871  0.3431 -0.3649
  386TIP3    H122717   5.409   2.985   1.677 -0.0584  0.7769 -0.1500
  386TIP3    H222718   5.294   2.972   1.775 -0.6436 -0.4578 -0.9742
  387TIP3   OH222719   5.260   4.587   1.942 -0.3308 -0.0423 -0.0451
  387TIP3    H122720   5.183   4.613   1.993 -0.4636 -1.7892  0.7572
  387TIP3    H222721   5.276   4.660   1.883 -0.4522  1.9112  2.1832
  388TIP3   OH222722   6.462   6.128   0.791 -0.1730 -0.0899  0.1836
  388TIP3    H122723   6.501   6.043   0.773 -0.4615 -0.2923  0.4878
  388TIP3    H222724   6.534   6.181   0.826 -0.5124 -1.0189  2.4806
  389TIP3   OH222725   2.210   0.536   1.158 -0.0239  0.4354 -0.5820
  389TIP3    H122726   2.301   0.557   1.181  0.2801 -1.5235  0.1936
  389TIP3    H222727   2.216   0.492   1.073 -0.3178  0.8624 -0.8241
  390TIP3   OH222728   6.652   2.941   0.082 -0.2017  0.0537 -0.1503
  390TIP3    H122729   6.643   2.906  -0.006  1.0127 -0.6358 -0.0180
  390TIP3    H222730   6.599   2.883   0.137  0.5639 -0.6651 -0.1580
  391TIP3   OH222731   2.570   0.914   1.809 -0.1322  0.5703 -1.0500
  391TIP3    H122732   2.614   0.877   1.885  1.2581  2.3011 -0.9508
  391TIP3    H222733   2.482   0.875   1.811 -0.0890  0.4504  1.3301
  392TIP3   OH222734   5.909   3.187   1.351  0.2062  0.0660  0.1689
  392TIP3    H122735   5.998   3.217   1.368  0.2289  0.2042 -0.1899
  392TIP3    H222736   5.887   3.224   1.266 -0.6430  1.0617  0.7957
  393TIP3   OH222737   0.219   0.492   7.134  0.2366 -0.2809  0.1516
  393TIP3    H122738   0.175   0.552   7.195  0.2654 -0.2503  0.1423
  393TIP3    H222739   0.196   0.405   7.166  0.4210 -0.2650  0.3285
  394TIP3   OH222740   6.668   4.367   0.025 -0.1044 -0.5164 -0.0650
  394TIP3    H122741   6.726   4.299  -0.009 -0.5730 -1.0649  0.2186
  394TIP3    H222742   6.581   4.344  -0.008  0.1526  1.7237 -2.6918
  395TIP3   OH222743   0.272   0.158   1.416 -0.1615 -0.3893 -1.0075
  395TIP3    H122744   0.218   0.227   1.377  0.7036 -0.5813 -2.6138
  395TIP3    H222745   0.301   0.105   1.342  1.5466 -0.7797 -0.1011
  396TIP3   OH222746   1.585   6.519   8.492  1.4856  0.4048 -0.5959
  396TIP3    H122747   1.630   6.442   8.527  1.0403  0.0428 -0.8015
  396TIP3    H222748   1.650   6.563   8.438  1.9354  0.5263  0.0341
  397TIP3   OH222749   5.615   4.939   0.090  0.2548 -0.0301  0.3750
  397TIP3    H122750   5.541   4.975   0.138  0.1999 -0.8300  0.9123
  397TIP3    H222751   5.599   4.964  -0.001  0.4762  1.6782  0.7878
  398TIP3   OH222752   1.602   3.272   8.685  0.3037 -0.1556  0.0907
  398TIP3    H122753   1.524   3.247   8.635 -0.2975  0.5869  0.6250
  398TIP3    H222754   1.617   3.363   8.661  0.7393 -0.1613  0.3359
  399TIP3   OH222755   2.748   0.585   1.230  0.1400 -0.0904  0.0238
  399TIP3    H122756   2.655   0.602   1.213  0.7103  2.6592 -0.8289
  399TIP3    H222757   2.757   0.490   1.219 -2.2803 -0.2533 -1.3484
  400TIP3   OH222758   5.054   2.669   1.956 -0.1063  0.5617 -0.7089
  400TIP3    H122759   5.014   2.750   1.990 -2.9434 -0.5051 -1.2148
  400TIP3    H222760   5.020   2.600   2.014 -0.4301 -0.6138 -2.2236
  401TIP3   OH222761   0.776   3.724   2.172  0.1577  0.0721 -0.4265
  401TIP3    H122762   0.812   3.718   2.084  0.8868  0.9111 -0.2062
  401TIP3    H222763   0.773   3.818   2.190 -1.6529  0.0083 -0.2148
  402TIP3   OH222764   3.846   0.595   3.364  0.0931 -0.3018  0.1639
  402TIP3    H122765   3.855   0.501   3.381  0.3979  0.0879  2.4664
  402TIP3    H222766   3.913   0.614   3.298  0.0861 -1.6754 -0.2702
  403TIP3   OH222767   2.978   3.540   0.875  0.1768  0.2644 -0.3467
  403TIP3    H122768   3.017   3.471   0.821 -1.0574 -2.3952  1.8610
  403TIP3    H222769   2.884   3.531   0.861  0.0016  1.6845 -0.1786
  404TIP3   OH222770   3.927   3.159   0.694  0.3369 -0.3854  0.0231
  404TIP3    H122771   3.845   3.206   0.712  0.8468  0.3206  0.5618
  404TIP3    H222772   3.995   3.223   0.712  1.0368 -1.2230  0.3819
  405TIP3   OH222773   3.745   0.617   2.687 -0.2009  0.0745 -0.1504
  405TIP3    H122774   3.720   0.703   2.723 -0.6780 -0.5641  1.0954
  405TIP3    H222775   3.782   0.570   2.761 -1.6715 -1.4688 -0.3273
  406TIP3   OH222776   1.251   5.801   8.606  0.7100 -0.1089 -0.2033
  406TIP3    H122777   1.239   5.785   8.700 -0.4874  1.0600 -0.1336
  406TIP3    H222778   1.339   5.768   8.587 -0.4693 -4.1262  0.4448
  407TIP3   OH222779   1.899   4.724   3.156 -0.2190  0.3605  0.4507
  407TIP3    H122780   1.942   4.757   3.077  1.1537 -0.7211  0.7111
  407TIP3    H222781   1.915   4.792   3.221  1.1185  0.0038  0.5317
  408TIP3   OH222782   0.791   3.042   2.077  0.3223 -0.6225 -0.8416
  408TIP3    H122783   0.877   3.074   2.049 -0.0710  0.9389 -0.3776
  408TIP3    H222784   0.743   3.025   1.996  0.5447  0.0266 -1.1141
  409TIP3   OH222785   1.192   2.153   3.132 -0.2747 -0.0889 -0.6243
  409TIP3    H122786   1.265   2.214   3.121 -0.2944  0.2042  0.7266
  409TIP3    H222787   1.220   2.095   3.203 -1.9638  0.9929  0.9895
  410TIP3   OH222788   0.930   1.305   2.881  0.4501 -0.6621 -0.1300
  410TIP3    H122789   0.932   1.248   2.957  1.3371 -1.6125 -0.8248
  410TIP3    H222790   0.844   1.290   2.841  0.2118 -0.5992  0.3612
  411TIP3   OH222791   5.668   3.350   3.577  0.3076 -0.3319  0.1475
  411TIP3    H122792   5.738   3.395   3.530 -0.6933  0.8976 -0.2184
  411TIP3    H222793   5.602   3.333   3.510 -0.9097  0.9668  0.9615
  412TIP3   OH222794   3.149   1.718   1.098  0.7603 -0.2478 -0.3553
  412TIP3    H122795   3.099   1.770   1.161  1.1150 -1.1832  0.7372
  412TIP3    H222796   3.219   1.775   1.069  1.6646 -0.3620  1.4835
  413TIP3   OH222797   5.722   1.989   2.996 -1.3494  0.0521  0.1530
  413TIP3    H122798   5.702   2.081   3.014 -0.2981  0.2223  0.4784
  413TIP3    H222799   5.673   1.970   2.915 -1.1157  1.0597 -0.2408
  414TIP3   OH222800   1.462   6.164   2.384 -0.0245 -0.1075  0.0941
  414TIP3    H122801   1.412   6.240   2.413  0.4708  0.2976 -0.0841
  414TIP3    H222802   1.413   6.128   2.311  0.2590  0.6624 -0.4889
  415TIP3   OH222803   5.997   4.722   3.054 -0.1858 -0.5725 -0.8731
  415TIP3    H122804   5.902   4.722   3.046 -0.5780  1.8806  1.9170
  415TIP3    H222805   6.016   4.647   3.111 -0.3873 -1.1799 -1.5875
  416TIP3   OH222806   2.818   2.403   1.321  0.2625  0.4074 -0.0561
  416TIP3    H122807   2.735   2.400   1.368  0.0244  2.0434 -0.3178
  416TIP3    H222808   2.883   2.376   1.385 -0.2785  0.7415  0.6405
  417TIP3   OH222809   0.756   6.203   8.435 -0.3938 -0.1042  0.9910
  417TIP3    H122810   0.684   6.141   8.447 -1.8077  1.0349 -0.9896
  417TIP3    H222811   0.759   6.219   8.340  1.7846  0.7094  1.1302
  418TIP3   OH222812   1.308   5.375   0.153 -0.0386 -0.2564  0.6318
  418TIP3    H122813   1.237   5.436   0.134  0.8160  0.8595  0.9296
  418TIP3    H222814   1.297   5.304   0.090 -0.3066  0.8155 -0.5500
  419TIP3   OH222815   6.590   1.495   0.784  0.2223  0.4583  0.2142
  419TIP3    H122816   6.618   1.412   0.747  0.2371  0.5769 -0.0451
  419TIP3    H222817   6.614   1.560   0.718  1.0132  0.7712  0.8022
  420TIP3   OH222818   4.894   1.345   0.652  0.4421 -0.2154  0.1499
  420TIP3    H122819   4.977   1.306   0.678  1.0156  0.1635 -1.0570
  420TIP3    H222820   4.879   1.315   0.563 -0.4953  0.0895  0.1885
  421TIP3   OH222821   1.482   0.913   0.935 -0.3565 -0.2518 -0.1008
  421TIP3    H122822   1.553   0.868   0.889 -0.2732 -1.1328  0.8314
  421TIP3    H222823   1.430   0.954   0.866  1.2349  0.6958 -0.7928
  422TIP3   OH222824   4.395   6.226   0.787  0.5651  0.0842  0.2509
  422TIP3    H122825   4.326   6.271   0.835  0.1539 -1.6277  1.3507
  422TIP3    H222826   4.362   6.137   0.775  1.1379  0.1327 -2.2508
  423TIP3   OH222827   2.248   3.001   2.695 -0.3272 -0.3756 -0.6962
  423TIP3    H122828   2.303   3.070   2.731 -1.1472  0.9016 -1.7855
  423TIP3    H222829   2.211   2.957   2.771 -0.3152  0.8388  0.0260
  424TIP3   OH222830   4.824   2.712   1.672 -0.1546  0.0896 -0.0145
  424TIP3    H122831   4.798   2.695   1.762  0.3968  0.8770  0.2972
  424TIP3    H222832   4.895   2.650   1.655  0.4342  0.6393  0.4312
  425TIP3   OH222833   0.993   3.267   1.720 -0.1559  0.5741  0.1984
  425TIP3    H122834   0.996   3.222   1.636  0.3241 -0.7986  0.9227
  425TIP3    H222835   0.971   3.357   1.698 -0.7567  0.0848 -1.3309
  426TIP3   OH222836   5.706   3.058   7.850 -0.2835 -0.0974  0.6687
  426TIP3    H122837   5.687   2.990   7.914 -0.8700  0.2848  0.9131
  426TIP3    H222838   5.728   3.010   7.770 -0.3750 -0.5754  0.9239
  427TIP3   OH222839   6.285   6.026   0.428  0.2119  0.2621  0.2150
  427TIP3    H122840   6.215   5.984   0.378 -0.8264  0.8171  1.1745
  427TIP3    H222841   6.281   6.118   0.402  0.9021  0.2256 -0.0612
  428TIP3   OH222842   3.744   4.577   1.392  0.0075  0.0700 -0.3645
  428TIP3    H122843   3.710   4.638   1.326 -2.2795  0.3214  0.9410
  428TIP3    H222844   3.795   4.631   1.451  0.0634  0.2724 -0.5970
  429TIP3   OH222845   4.488   4.416   0.671  0.5490  0.3795  0.0212
  429TIP3    H122846   4.405   4.410   0.718  0.6779  0.4559  0.2595
  429TIP3    H222847   4.478   4.354   0.598 -0.1566  1.2440 -0.6419
  430TIP3   OH222848   0.529   6.728   8.090 -0.0355  0.0544 -0.5446
  430TIP3    H122849   0.458   6.792   8.098 -2.3885 -2.4271 -0.0248
  430TIP3    H222850   0.498   6.665   8.025  1.7767 -1.0441 -0.4173
  431TIP3   OH222851   0.764   4.988   8.381  0.7521 -0.1124  0.2722
  431TIP3    H122852   0.729   5.020   8.297  0.9046  0.6592  0.4932
  431TIP3    H222853   0.824   5.057   8.409  2.7137 -1.5412 -0.2392
  432TIP3   OH222854   0.225   1.450   1.305  0.3384 -0.2718  0.9688
  432TIP3    H122855   0.238   1.356   1.319 -3.1854 -1.0419 -0.0482
  432TIP3    H222856   0.198   1.484   1.391  0.1325 -0.4914  0.9898
  433TIP3   OH222857   4.953   2.371   2.041 -0.0628 -0.2564 -0.0983
  433TIP3    H122858   4.877   2.411   1.999  0.1478  0.1376 -0.1121
  433TIP3    H222859   4.916   2.312   2.107 -0.3882 -0.5053 -0.4990
  434TIP3   OH222860   6.785   3.837   8.270  0.3517  0.3064 -0.2821
  434TIP3    H122861   6.756   3.749   8.246  1.9008 -0.1210 -0.6954
  434TIP3    H222862   6.844   3.863   8.199 -0.6533  2.0084 -0.5684
  435TIP3   OH222863   2.998   1.182   0.147  0.0337  0.1701 -0.3887
  435TIP3    H122864   2.941   1.256   0.167 -0.5801 -0.3861 -0.0417
  435TIP3    H222865   2.940   1.117   0.108  0.7960  0.3402 -1.8484
  436TIP3   OH222866   1.574   6.108   0.391  0.1609 -0.0540 -0.2686
  436TIP3    H122867   1.540   6.019   0.402 -1.8088  0.5585 -1.1104
  436TIP3    H222868   1.567   6.125   0.297 -1.3371  1.6662  0.1041
  437TIP3   OH222869   1.682   1.056   1.399  0.4864 -0.3981  0.4655
  437TIP3    H122870   1.713   1.080   1.487  0.7638  0.3011  0.1810
  437TIP3    H222871   1.677   1.139   1.352 -0.9192 -0.6137  0.2081
  438TIP3   OH222872   6.093   2.778   8.455 -0.2618 -0.1213 -0.0382
  438TIP3    H122873   6.050   2.818   8.531 -0.5487  0.4526 -0.5052
  438TIP3    H222874   6.183   2.811   8.458 -1.0024  2.2266 -1.5715
  439TIP3   OH222875   2.685   2.276   8.583 -0.1014 -0.2294  0.1766
  439TIP3    H122876   2.653   2.189   8.557  1.0188 -0.4277 -0.5989
  439TIP3    H222877   2.764   2.259   8.634 -0.6573  0.3002  1.2584
  440TIP3   OH222878   4.983   0.711   2.488  0.0404 -0.5699  0.1518
  440TIP3    H122879   5.049   0.659   2.442 -0.2352  0.2461 -1.2256
  440TIP3    H222880   5.013   0.801   2.480 -1.0070 -0.2276 -0.1287
  441TIP3   OH222881   4.535   0.313   8.439  0.0635  0.3673 -0.0027
  441TIP3    H122882   4.520   0.292   8.347  0.0364 -0.1551  0.1142
  441TIP3    H222883   4.458   0.278   8.484  0.7031 -0.5962  0.3741
  442TIP3   OH222884   0.293   5.096   2.669 -0.0236  0.3061 -0.0638
  442TIP3    H122885   0.212   5.097   2.721  0.5127  1.6216  0.7810
  442TIP3    H222886   0.361   5.071   2.731  0.2674 -0.6242 -0.7373
  443TIP3   OH222887   3.135   0.340   1.551 -0.4467 -0.2070  0.0818
  443TIP3    H122888   3.096   0.370   1.634  0.2833  1.7181 -0.2162
  443TIP3    H222889   3.069   0.359   1.485  0.3325  1.6522 -0.2207
  444TIP3   OH222890   5.578   4.623   8.150  0.0022  0.9388  0.2215
  444TIP3    H122891   5.605   4.560   8.216 -0.8578  1.9546  1.5963
  444TIP3    H222892   5.483   4.611   8.143  0.1552  0.4112 -1.3175
  445TIP3   OH222893   4.859   4.825   0.766 -0.0853  0.1168  0.3980
  445TIP3    H122894   4.854   4.876   0.847  1.3174  0.1948  0.4602
  445TIP3    H222895   4.945   4.845   0.730 -0.3613 -0.5496 -0.7068
  446TIP3   OH222896   4.701   0.394   7.926  0.5783  0.0650 -0.2198
  446TIP3    H122897   4.749   0.349   7.856 -0.8144 -0.3150 -0.9735
  446TIP3    H222898   4.659   0.468   7.882 -0.7325 -0.4732  0.0934
  447TIP3   OH222899   3.948   3.496   0.571  0.0263  0.2338  0.4748
  447TIP3    H122900   3.976   3.405   0.564 -1.0691 -0.2322  1.8297
  447TIP3    H222901   3.956   3.517   0.664 -2.0332  0.7554  0.5680
  448TIP3   OH222902   1.582   6.271   8.285  0.3819  0.0445 -0.5844
  448TIP3    H122903   1.610   6.215   8.358 -0.1641  1.3453  0.6686
  448TIP3    H222904   1.656   6.270   8.225  1.0116 -0.7435  0.1678
  449TIP3   OH222905   0.107   1.743   0.654 -0.5340 -0.6499  0.1915
  449TIP3    H122906   0.099   1.837   0.638  0.2993 -0.5743  0.1878
  449TIP3    H222907   0.189   1.733   0.701 -1.2597 -1.2415  1.3734
  450TIP3   OH222908   5.585   5.358   0.957  0.2697  0.3583  0.3591
  450TIP3    H122909   5.491   5.354   0.943  0.0913  0.1444  1.5120
  450TIP3    H222910   5.620   5.283   0.909 -0.4985 -1.3958  2.3630
  451TIP3   OH222911   0.257   2.034   2.070  0.1157 -0.1302 -0.2773
  451TIP3    H122912   0.284   1.989   2.150  2.7624  2.2516  0.3381
  451TIP3    H222913   0.244   2.125   2.098 -1.0322  0.3436 -2.1847
  452TIP3   OH222914   5.396   4.405   2.112  0.4774  0.0255 -0.2819
  452TIP3    H122915   5.486   4.439   2.118  0.0583  0.9038  1.8750
  452TIP3    H222916   5.352   4.465   2.052  0.6331  1.2790  0.8215
  453TIP3   OH222917   6.644   3.650   8.085 -0.4979 -0.4363 -0.0807
  453TIP3    H122918   6.693   3.625   8.006 -1.6151 -0.8264 -0.6725
  453TIP3    H222919   6.613   3.739   8.067 -1.7775 -0.9643 -0.6258
  454TIP3   OH222920   3.820   3.507   8.339 -0.4495  0.0493  1.0200
  454TIP3    H122921   3.874   3.491   8.417 -0.3812 -0.4959  0.8618
  454TIP3    H222922   3.840   3.434   8.281 -0.1019  0.7287  0.2629
  455TIP3   OH222923   5.883   6.186   2.444 -0.2703  0.0482 -0.2166
  455TIP3    H122924   5.909   6.242   2.371 -1.0634 -0.8773 -1.2596
  455TIP3    H222925   5.811   6.232   2.486 -0.4915  0.1234 -0.6699
  456TIP3   OH222926   2.911   6.014   2.042 -0.1069 -0.2403  0.2829
  456TIP3    H122927   2.999   6.020   2.006  1.0664 -0.3969  2.9050
  456TIP3    H222928   2.865   5.954   1.983  2.0786 -1.6075 -0.1409
  457TIP3   OH222929   0.575   3.116   1.581  0.0925 -0.1139 -0.3231
  457TIP3    H122930   0.619   3.198   1.557  1.2804 -0.7522 -0.3873
  457TIP3    H222931   0.533   3.087   1.501 -1.9142  1.3545  0.1310
  458TIP3   OH222932   2.853   2.639   3.100 -0.1903 -0.2245  0.0394
  458TIP3    H122933   2.801   2.560   3.088  1.5472 -1.1691 -2.0445
  458TIP3    H222934   2.927   2.628   3.041  0.2943  2.8347 -0.1085
  459TIP3   OH222935   6.831   4.548   7.377 -0.3164  0.1579  0.0110
  459TIP3    H122936   6.902   4.484   7.383 -0.7870 -0.3450  0.2802
  459TIP3    H222937   6.874   4.632   7.392  0.4727  0.0241 -1.2586
  460TIP3   OH222938   5.325   6.362   7.704  0.2547  0.2195 -0.4079
  460TIP3    H122939   5.260   6.410   7.755 -0.9872 -0.5349 -1.2314
  460TIP3    H222940   5.409   6.392   7.739 -0.5067  1.5012  0.4285
  461TIP3   OH222941   3.153   0.141   0.153 -0.1122 -0.1572  0.6075
  461TIP3    H122942   3.134   0.161   0.061  0.7130  0.1488  0.4919
  461TIP3    H222943   3.079   0.178   0.201 -1.3572 -1.7105 -0.0365
  462TIP3   OH222944   4.257   0.917   1.040  0.2437 -0.3106 -0.1100
  462TIP3    H122945   4.347   0.937   1.065 -0.1671  2.2704 -0.4261
  462TIP3    H222946   4.205   0.989   1.075 -1.0537  0.7337 -3.6618
  463TIP3   OH222947   2.893   0.205   0.260 -0.0231  0.1392 -1.3993
  463TIP3    H122948   2.827   0.212   0.330  0.6977  1.8205 -0.8476
  463TIP3    H222949   2.843   0.179   0.183 -1.2370  0.7216 -0.8421
  464TIP3   OH222950   2.250   4.383   0.800 -0.0038 -0.0112  0.3861
  464TIP3    H122951   2.259   4.442   0.725 -0.7640 -0.2944  0.0633
  464TIP3    H222952   2.292   4.429   0.872  0.1947  0.5345 -0.0694
  465TIP3   OH222953   0.626   1.176   2.222  0.1202 -0.1995 -0.1059
  465TIP3    H122954   0.662   1.127   2.296  3.8752  1.3069 -0.7143
  465TIP3    H222955   0.593   1.109   2.162 -0.9293 -1.5462  1.8844
  466TIP3   OH222956   4.233   3.783   2.366  0.4946  0.4565 -0.0045
  466TIP3    H122957   4.161   3.828   2.410 -0.5940  0.0053 -1.2632
  466TIP3    H222958   4.203   3.692   2.357  1.1601  0.2907 -0.6590
  467TIP3   OH222959   3.256   6.584   8.528  0.1295  0.1790  0.7566
  467TIP3    H122960   3.299   6.617   8.449 -1.2440 -0.0069 -0.0930
  467TIP3    H222961   3.304   6.505   8.550 -0.2448 -0.4785 -0.6526
  468TIP3   OH222962   3.860   5.936   2.285  0.1563 -0.2528 -0.6454
  468TIP3    H122963   3.862   6.029   2.309  0.5164 -0.1872 -0.9199
  468TIP3    H222964   3.793   5.930   2.218  1.6386  0.2191 -2.2516
  469TIP3   OH222965   6.488   2.308   7.897  0.1337 -0.1874 -0.4995
  469TIP3    H122966   6.445   2.302   7.812  0.9866  0.1503 -0.9721
  469TIP3    H222967   6.473   2.397   7.926 -0.0867 -0.2780 -0.3354
  470TIP3   OH222968   6.496   5.055   1.712  0.5752 -0.0002  0.0645
  470TIP3    H122969   6.561   5.054   1.782 -0.2269  1.3101  0.8839
  470TIP3    H222970   6.546   5.074   1.633  1.2259  0.9730  0.6786
  471TIP3   OH222971   2.831   5.934   2.563  0.2491  0.2908  0.5496
  471TIP3    H122972   2.801   5.970   2.480  0.2566 -2.0478 -0.5439
  471TIP3    H222973   2.761   5.956   2.626  0.6335  2.8099  0.1999
  472TIP3   OH222974   0.450   6.294   0.489 -0.3400 -0.4341  0.2139
  472TIP3    H122975   0.543   6.293   0.464 -0.0928  2.3549  0.6402
  472TIP3    H222976   0.409   6.351   0.423 -1.4115 -0.2443  1.0249
  473TIP3   OH222977   5.921   1.635   1.864 -0.5451 -0.7672 -0.0982
  473TIP3    H122978   5.943   1.543   1.855  0.6632 -0.7804  2.2429
  473TIP3    H222979   5.889   1.661   1.778  2.0149 -2.5977 -1.7364
  474TIP3   OH222980   0.900   1.330   8.004 -0.2383 -0.1545 -0.2984
  474TIP3    H122981   0.972   1.267   8.003 -1.2828 -1.4089 -0.4528
  474TIP3    H222982   0.850   1.309   7.924  0.2769  1.9846 -1.2477
  475TIP3   OH222983   1.292   2.772   2.696  0.0808 -0.1491 -0.4243
  475TIP3    H122984   1.312   2.826   2.619 -1.4131  0.2119 -0.6012
  475TIP3    H222985   1.356   2.799   2.762  0.1216  0.9852 -0.9064
  476TIP3   OH222986   2.519   5.003   2.742  1.0192  0.0744  0.0177
  476TIP3    H122987   2.496   4.994   2.835  0.0565 -0.6690 -0.2733
  476TIP3    H222988   2.517   4.913   2.709  2.2737  0.2265 -0.5292
  477TIP3   OH222989   4.646   2.641   8.611 -0.0965  0.0183 -0.0803
  477TIP3    H122990   4.716   2.612   8.553  1.4484  1.1386  1.1232
  477TIP3    H222991   4.571   2.657   8.554  1.2066  0.5995 -1.6922
  478TIP3   OH222992   4.397   3.657   3.282  0.2683 -0.0345 -0.5530
  478TIP3    H122993   4.425   3.585   3.225  1.1254  0.5712 -0.9230
  478TIP3    H222994   4.362   3.614   3.360 -1.4064 -0.9058 -1.7094
  479TIP3   OH222995   0.699   5.925   0.272 -0.0363  0.0417  0.1808
  479TIP3    H122996   0.695   5.976   0.191  0.3941  0.2201  0.2682
  479TIP3    H222997   0.776   5.959   0.318  1.4056 -1.9725 -0.6259
  480TIP3   OH222998   6.140   2.124   8.554 -0.4919  0.1462  0.2026
  480TIP3    H122999   6.060   2.153   8.598 -1.3122 -0.5708 -0.7590
  480TIP3    H223000   6.110   2.059   8.490  1.1392 -2.2022  1.6629
  481TIP3   OH223001   3.003   5.180   0.450 -0.3092 -0.2955  0.5470
  481TIP3    H123002   2.974   5.103   0.498  0.1644 -0.7881  0.0509
  481TIP3    H223003   3.079   5.213   0.498  1.2255 -1.7760 -0.7572
  482TIP3   OH223004   6.280   4.879   2.473  0.0328 -0.7091 -0.8633
  482TIP3    H123005   6.253   4.924   2.553  2.1687  1.0695 -1.0796
  482TIP3    H223006   6.230   4.797   2.475 -2.2257  0.5741  0.7404
  483TIP3   OH223007   1.136   0.172   0.697 -0.3548 -0.5608  0.2338
  483TIP3    H123008   1.176   0.123   0.768  2.4349  1.4815  0.2340
  483TIP3    H223009   1.086   0.240   0.740 -1.5955 -1.4227  0.2051
  484TIP3   OH223010   4.028   3.180   1.186 -0.2906 -0.3140 -0.6448
  484TIP3    H123011   3.989   3.261   1.152  0.9478  0.2860 -0.6859
  484TIP3    H223012   3.953   3.124   1.206 -1.2254  1.2734  0.4854
  485TIP3   OH223013   3.273   6.332   1.428 -0.0328 -0.4727  0.2822
  485TIP3    H123014   3.223   6.337   1.509  0.9089  1.6422  0.8183
  485TIP3    H223015   3.209   6.311   1.361 -1.4779  1.0040  1.1214
  486TIP3   OH223016   2.727   6.022   1.614  0.1070  0.1227 -0.6577
  486TIP3    H123017   2.821   6.023   1.595  0.0688 -3.8371 -2.1436
  486TIP3    H223018   2.717   5.952   1.679 -1.7878  0.6203 -0.3645
  487TIP3   OH223019   6.230   1.352   0.601  0.0987 -0.8950 -0.0972
  487TIP3    H123020   6.181   1.351   0.519 -2.5917  0.0235  1.3644
  487TIP3    H223021   6.171   1.312   0.665  0.2015  2.3408  2.2899
  488TIP3   OH223022   4.605   6.115   2.503  0.2995 -0.1324  0.1727
  488TIP3    H123023   4.616   6.208   2.525  1.1707  0.2324 -1.6193
  488TIP3    H223024   4.534   6.085   2.560 -1.3629  2.1370 -0.5639
  489TIP3   OH223025   0.154   3.330   2.595  0.1621 -0.3683 -0.0131
  489TIP3    H123026   0.236   3.378   2.581  0.9274 -1.8859 -1.0143
  489TIP3    H223027   0.125   3.356   2.683  2.6524 -1.0836  1.1136
  490TIP3   OH223028   5.603   2.226   7.427 -0.1480 -0.4498  0.0081
  490TIP3    H123029   5.628   2.314   7.454 -0.6551 -0.4246  0.4061
  490TIP3    H223030   5.672   2.170   7.464  0.7287 -0.1433 -1.0857
  491TIP3   OH223031   6.168   1.147   1.774 -0.1759  0.1213  0.1000
  491TIP3    H123032   6.258   1.117   1.788 -0.9579 -2.2135  0.5321
  491TIP3    H223033   6.133   1.161   1.862 -1.1719 -2.1967  0.1637
  492TIP3   OH223034   2.786   1.900   2.132  0.6571  0.3459  0.1465
  492TIP3    H123035   2.788   1.823   2.189 -0.4168  0.7057  0.6980
  492TIP3    H223036   2.867   1.947   2.152  0.4256  0.3191  1.1743
  493TIP3   OH223037   5.740   3.830   0.915  0.3396  0.4803  0.3099
  493TIP3    H123038   5.799   3.836   0.840 -0.0512 -0.2793 -0.0699
  493TIP3    H223039   5.678   3.762   0.891  0.0209  0.4442  1.2023
  494TIP3   OH223040   5.016   3.359   0.868  0.0525 -0.2173 -0.3034
  494TIP3    H123041   5.017   3.349   0.773 -0.7884 -1.6301 -0.1911
  494TIP3    H223042   4.997   3.452   0.882 -0.0496 -0.0413 -1.5059
  495TIP3   OH223043   1.986   6.807   8.076 -0.0440  0.6965 -0.0913
  495TIP3    H123044   1.989   6.725   8.028 -1.0906  0.3348  0.4165
  495TIP3    H223045   1.951   6.871   8.014  1.7927  1.0441 -0.8270
  496TIP3   OH223046   3.866   6.174   7.660 -0.0855 -0.0929  0.2865
  496TIP3    H123047   3.839   6.086   7.633  1.6627 -0.8820  0.9590
  496TIP3    H223048   3.917   6.208   7.587 -1.0968  0.5606 -0.1412
  497TIP3   OH223049   4.441   3.890   8.608  0.0558 -0.1132  0.2148
  497TIP3    H123050   4.471   3.930   8.526 -2.7824 -1.9760 -1.9482
  497TIP3    H223051   4.405   3.963   8.659  1.6498  1.0448 -0.2560
  498TIP3   OH223052   6.833   5.617   8.149  0.2902 -0.1371 -0.3958
  498TIP3    H123053   6.891   5.686   8.183  2.0835 -2.1376  0.8169
  498TIP3    H223054   6.749   5.633   8.192  0.5582  1.4464 -0.3822
  499TIP3   OH223055   4.648   2.323   3.439 -0.0739 -0.0762  0.5243
  499TIP3    H123056   4.630   2.411   3.475  0.2651  0.0229  0.4511
  499TIP3    H223057   4.684   2.274   3.513 -1.3014 -0.4984  0.8735
  500TIP3   OH223058   5.760   1.527   6.869 -0.4212 -0.7332 -1.0439
  500TIP3    H123059   5.758   1.623   6.864  0.9990 -0.6040  0.1213
  500TIP3    H223060   5.694   1.504   6.934  1.6690 -0.2071  1.4461
  501TIP3   OH223061   1.121   5.156   6.993 -0.9916 -0.0232  0.3749
  501TIP3    H123062   1.040   5.197   6.964 -0.4733 -0.3609 -1.7578
  501TIP3    H223063   1.183   5.228   7.001 -1.0141  0.0266  0.1197
  502TIP3   OH223064   3.596   3.380   2.939  0.3383  0.1281 -0.0704
  502TIP3    H123065   3.634   3.461   2.971  1.2770  0.0301 -0.8906
  502TIP3    H223066   3.549   3.344   3.014  1.2802  0.6068  0.7650
  503TIP3   OH223067   6.340   3.292   8.238 -0.4953 -0.0241 -0.5042
  503TIP3    H123068   6.301   3.210   8.268 -2.3175  0.3598 -1.6484
  503TIP3    H223069   6.375   3.270   8.151 -1.1075  0.4164 -0.8696
  504TIP3   OH223070   0.574   3.824   8.665  0.1072  0.3587 -0.0981
  504TIP3    H123071   0.532   3.809   8.580  0.0997  0.4888 -0.1175
  504TIP3    H223072   0.503   3.857   8.721  0.1023  0.2330 -0.0286
  505TIP3   OH223073   5.491   6.118   7.872 -0.4419  0.2848  0.0913
  505TIP3    H123074   5.422   6.143   7.934 -0.5998  1.2318 -0.4484
  505TIP3    H223075   5.468   6.162   7.791  1.1197  1.1315  0.0650
  506TIP3   OH223076   0.610   3.004   2.289  0.1940  0.6642 -0.3217
  506TIP3    H123077   0.527   2.991   2.244 -0.5859 -2.8692  1.6680
  506TIP3    H223078   0.674   3.017   2.220 -1.2581 -2.0506 -2.3569
  507TIP3   OH223079   2.479   1.475   1.752  0.1428  0.1928  0.5220
  507TIP3    H123080   2.503   1.383   1.749  0.0829  0.2037 -1.0519
  507TIP3    H223081   2.554   1.519   1.792  0.7159 -0.3797  0.0859
  508TIP3   OH223082   2.013   2.025   2.098 -0.3591 -0.0396 -0.3337
  508TIP3    H123083   2.106   2.007   2.094 -0.4606 -1.1148  1.0819
  508TIP3    H223084   2.004   2.087   2.171 -0.8293 -0.7380  0.2182
  509TIP3   OH223085   1.591   4.927   8.129  0.0500  0.0179  0.3972
  509TIP3    H123086   1.541   4.964   8.201 -1.0290  0.0212 -0.3287
  509TIP3    H223087   1.598   4.834   8.150  0.7958  0.2198  1.0908
  510TIP3   OH223088   2.829   1.786   2.614  0.4562  0.2337  0.0969
  510TIP3    H123089   2.909   1.791   2.665  0.1768 -0.7019  0.6487
  510TIP3    H223090   2.759   1.801   2.678  0.0864 -1.2694  0.0924
  511TIP3   OH223091   1.727   3.773   1.925 -1.2526  0.0333 -0.0413
  511TIP3    H123092   1.659   3.706   1.918 -2.0035  0.8525 -0.9095
  511TIP3    H223093   1.793   3.747   1.861 -1.2547 -0.2074  0.0561
  512TIP3   OH223094   5.439   5.648   0.076  1.0882  0.3410 -0.3214
  512TIP3    H123095   5.353   5.684   0.096  1.3906  0.1582  1.4722
  512TIP3    H223096   5.462   5.596   0.152  2.0623 -1.0440 -1.4994
  513TIP3   OH223097   6.278   5.190   1.330  0.4880 -0.2680 -0.0796
  513TIP3    H123098   6.227   5.270   1.313 -0.0378 -0.3985  0.8252
  513TIP3    H223099   6.308   5.200   1.420 -0.0799 -1.3655  0.2436
  514TIP3   OH223100   1.372   1.820   7.785 -0.2011 -0.0846  0.2451
  514TIP3    H123101   1.381   1.802   7.692 -1.4332 -2.9595  0.5719
  514TIP3    H223102   1.297   1.880   7.791 -0.9693 -0.9240 -0.5840
  515TIP3   OH223103   6.365   6.070   0.123 -0.4436  0.2404  0.1784
  515TIP3    H123104   6.284   6.039   0.165 -1.1791  1.2201 -0.4740
  515TIP3    H223105   6.335   6.131   0.055  0.8049 -0.0227 -0.6440
  516TIP3   OH223106   1.748   3.774   7.838  0.4387 -0.4310 -0.4216
  516TIP3    H123107   1.693   3.739   7.908  0.9399  1.4323  0.9904
  516TIP3    H223108   1.835   3.740   7.857  0.3559 -0.8788 -0.8402
  517TIP3   OH223109   5.915   6.132   0.101  0.0198 -0.2674 -0.1576
  517TIP3    H123110   5.841   6.078   0.072  1.7067 -2.4540 -0.6391
  517TIP3    H223111   5.929   6.194   0.030 -1.0513 -0.1097 -0.2566
  518TIP3   OH223112   3.099   6.073   2.282  0.5316  0.4193 -0.0177
  518TIP3    H123113   3.042   6.084   2.206 -0.9545  1.1743  1.1625
  518TIP3    H223114   3.178   6.124   2.259  1.0941 -1.1693 -1.9314
  519TIP3   OH223115   1.334   3.422   2.359  0.0301 -0.1086 -0.7038
  519TIP3    H123116   1.305   3.439   2.270  2.5452  2.3110 -1.1754
  519TIP3    H223117   1.317   3.504   2.406 -1.0399 -1.2576  1.0563
  520TIP3   OH223118   2.984   3.223   2.853  0.1469  0.1342  0.0563
  520TIP3    H123119   2.927   3.298   2.871  0.0001  0.1546 -0.4746
  520TIP3    H223120   3.070   3.251   2.883  0.1283  0.5895 -0.2913
  521TIP3   OH223121   0.258   1.097   0.712 -0.2149  0.0273  0.1298
  521TIP3    H123122   0.210   1.051   0.781 -0.4451  0.4437  0.2521
  521TIP3    H223123   0.233   1.052   0.631 -0.3374 -0.1432  0.2614
  522TIP3   OH223124   1.280   2.997   3.125  0.2725  0.8439 -0.7105
  522TIP3    H123125   1.214   2.982   3.193  2.6155 -1.9271  1.1653
  522TIP3    H223126   1.230   2.995   3.043 -2.1407  0.1564  0.6705
  523TIP3   OH223127   5.694   6.358   0.588 -0.2761 -0.1110 -0.9399
  523TIP3    H123128   5.638   6.282   0.601  0.5035 -0.4481  0.6722
  523TIP3    H223129   5.654   6.426   0.642  0.7341 -0.3048  0.0896
  524TIP3   OH223130   1.805   1.477   2.803 -0.1395 -0.8584  0.0395
  524TIP3    H123131   1.829   1.470   2.896  1.9331 -0.4946 -0.4239
  524TIP3    H223132   1.880   1.442   2.756 -0.7241 -0.0994 -1.5383
  525TIP3   OH223133   0.146   4.675   2.705 -0.0237 -0.2734 -0.4360
  525TIP3    H123134   0.122   4.610   2.639 -0.4200  0.2443 -0.8089
  525TIP3    H223135   0.241   4.682   2.698 -0.1214  0.2238 -1.3843
  526TIP3   OH223136   1.213   4.837   0.736 -0.3827  0.3062  1.0982
  526TIP3    H123137   1.294   4.872   0.775 -0.7467 -1.5489  3.8898
  526TIP3    H223138   1.231   4.743   0.726 -2.1545 -0.1384  1.7811
  527TIP3   OH223139   4.500   0.690   0.778 -0.0600  0.1246  0.1811
  527TIP3    H123140   4.497   0.747   0.701  1.9128  2.0359  1.4212
  527TIP3    H223141   4.587   0.704   0.815 -0.0345 -2.6518  1.3986
  528TIP3   OH223142   0.308   2.514   0.798  0.2559  0.2173  0.1816
  528TIP3    H123143   0.339   2.603   0.782  0.2497 -0.1438 -2.1946
  528TIP3    H223144   0.212   2.523   0.803  0.2443  0.3350 -0.2135
  529TIP3   OH223145   5.961   4.494   1.958  0.1063  0.1623 -0.1733
  529TIP3    H123146   5.911   4.452   1.889  0.2057 -0.4024  0.0906
  529TIP3    H223147   6.010   4.563   1.914  0.4941 -0.4634 -0.7446
  530TIP3   OH223148   6.812   0.297   0.557  0.0468 -0.0251  0.0351
  530TIP3    H123149   6.740   0.299   0.621 -0.4404  1.4882 -0.5190
  530TIP3    H223150   6.771   0.267   0.476  1.0028 -3.6932  0.7301
  531TIP3   OH223151   1.644   6.830   1.527 -0.5567 -0.0096 -0.0407
  531TIP3    H123152   1.624   6.737   1.539  0.3197 -0.4780 -1.8856
  531TIP3    H223153   1.691   6.834   1.444  0.2362  1.9827  0.4438
  532TIP3   OH223154   5.135   6.543   1.680 -0.1970  0.4677  0.2899
  532TIP3    H123155   5.206   6.522   1.741 -0.7456  1.2039  1.1943
  532TIP3    H223156   5.129   6.638   1.682 -0.4773  0.4808 -0.6452
  533TIP3   OH223157   5.220   5.880   2.965 -0.0846  0.2957 -0.1708
  533TIP3    H123158   5.255   5.966   2.942 -0.8055  0.5001 -0.5287
  533TIP3    H223159   5.149   5.865   2.903  1.0260 -1.2640 -1.1333
  534TIP3   OH223160   5.491   5.690   7.584  0.0935  0.3133 -0.4001
  534TIP3    H123161   5.564   5.731   7.631  0.5118  0.8032 -1.4443
  534TIP3    H223162   5.469   5.613   7.637  1.6454 -0.0831 -0.2694
  535TIP3   OH223163   2.017   5.513   2.919  0.6441  0.3882 -0.4134
  535TIP3    H123164   2.069   5.590   2.896  2.0366 -0.1723  0.6648
  535TIP3    H223165   2.069   5.439   2.887  0.0422 -0.1617 -0.1544
  536TIP3   OH223166   0.723   1.683   1.638  0.7714 -0.0315 -0.5275
  536TIP3    H123167   0.721   1.747   1.568  2.1610  0.6879  0.0547
  536TIP3    H223168   0.633   1.680   1.671  0.1751 -0.1222 -2.0663
  537TIP3   OH223169   1.931   5.526   8.277  0.2160  0.2596 -0.1845
  537TIP3    H123170   1.934   5.621   8.291  0.2715  0.1996  0.2187
  537TIP3    H223171   1.850   5.511   8.229  0.5586  0.5936 -0.8838
  538TIP3   OH223172   3.106   3.051   2.425  0.0816  0.7988  0.0898
  538TIP3    H123173   3.125   3.100   2.345 -0.5400  0.8592 -0.0230
  538TIP3    H223174   3.085   2.962   2.395  1.2727  0.4211  0.2979
  539TIP3   OH223175   0.989   5.575   7.004  0.5751 -0.1809  0.0345
  539TIP3    H123176   0.951   5.600   7.089 -1.4381 -1.1533 -0.5229
  539TIP3    H223177   0.995   5.658   6.955  1.3795  0.3269  0.9445
  540TIP3   OH223178   1.490   3.618   2.038  1.1023 -0.3903 -0.6019
  540TIP3    H123179   1.409   3.666   2.025  1.2485  0.0779  0.1437
  540TIP3    H223180   1.476   3.534   1.994 -0.0335 -0.5646  0.0573
  541TIP3   OH223181   2.441   2.127   0.712 -0.2071 -0.3143  0.8916
  541TIP3    H123182   2.433   2.208   0.663 -1.2019 -0.3494  0.9666
  541TIP3    H223183   2.456   2.060   0.645  0.3831 -0.1007  0.8103
  542TIP3   OH223184   4.880   1.889   2.154 -0.0946  0.2013  0.0626
  542TIP3    H123185   4.821   1.926   2.087  0.0768  1.0342  0.3588
  542TIP3    H223186   4.821   1.851   2.219 -0.2698 -0.3243 -0.3971
  543TIP3   OH223187   5.861   5.802   7.401  0.0456 -0.0663 -0.5472
  543TIP3    H123188   5.768   5.792   7.381  0.5253 -1.3835 -2.3929
  543TIP3    H223189   5.903   5.727   7.358  1.8406 -0.1979  1.2831
  544TIP3   OH223190   3.708   5.306   0.963 -0.0598 -0.2410  0.0867
  544TIP3    H123191   3.765   5.265   1.029 -0.1073 -0.6717 -0.1358
  544TIP3    H223192   3.767   5.360   0.911 -0.1983  1.0369  1.1965
  545TIP3   OH223193   2.703   2.112   0.802 -0.2937 -0.0427 -0.0121
  545TIP3    H123194   2.608   2.126   0.795 -0.3719 -0.5473  0.0022
  545TIP3    H223195   2.735   2.119   0.712  0.1157  3.1956  0.2861
  546TIP3   OH223196   6.019   4.925   1.611 -0.2813 -0.3012  1.1006
  546TIP3    H123197   6.008   4.907   1.518 -1.5276 -1.4445  1.4352
  546TIP3    H223198   6.112   4.911   1.628  0.0272  0.2697 -0.0311
  547TIP3   OH223199   3.714   4.002   0.252 -0.1057 -0.0801  0.1494
  547TIP3    H123200   3.660   3.961   0.184 -0.2874 -0.0856  0.2992
  547TIP3    H223201   3.760   3.929   0.293 -1.2603 -0.2622  1.1612
  548TIP3   OH223202   3.690   3.888   2.598 -0.0993  0.0475  0.1856
  548TIP3    H123203   3.722   3.976   2.618  0.7221  0.0216 -0.9120
  548TIP3    H223204   3.599   3.888   2.627 -0.4890  1.6784 -0.9299
  549TIP3   OH223205   5.206   0.578   0.663 -0.0302  0.0482  0.6627
  549TIP3    H123206   5.286   0.550   0.620 -0.7691 -1.2303  0.0695
  549TIP3    H223207   5.198   0.671   0.642 -0.3085 -0.4998 -1.8993
  550TIP3   OH223208   2.401   4.659   1.979 -0.0767 -0.1610  0.5918
  550TIP3    H123209   2.476   4.702   2.022 -0.0469 -0.7534  1.1452
  550TIP3    H223210   2.336   4.651   2.048 -0.1511 -0.8416  0.4491
  551TIP3   OH223211   5.589   4.131   8.050 -0.2066  0.4036 -0.4049
  551TIP3    H123212   5.603   4.047   8.006 -0.6478  0.3663 -0.4770
  551TIP3    H223213   5.633   4.121   8.135 -3.8403 -1.5124  1.4597
  552TIP3   OH223214   5.644   2.851   2.636  0.2939  0.0410 -0.1016
  552TIP3    H123215   5.668   2.768   2.677  0.1759  0.2355  0.3604
  552TIP3    H223216   5.614   2.906   2.708 -0.1694  0.2946 -0.4843
  553TIP3   OH223217   0.916   5.687   7.240  0.1464  0.0227 -0.2377
  553TIP3    H123218   0.961   5.770   7.226 -0.9175  0.5765 -0.4890
  553TIP3    H223219   0.823   5.710   7.239 -0.1297 -0.9769  1.0012
  554TIP3   OH223220   6.542   5.490   8.602  0.6320 -0.5271 -0.3031
  554TIP3    H123221   6.625   5.524   8.634 -0.6691  1.5247  1.1664
  554TIP3    H223222   6.550   5.395   8.609  2.1243 -0.3197  1.8006
  555TIP3   OH223223   2.362   3.817   1.526  0.2017 -0.0778  0.3389
  555TIP3    H123224   2.274   3.855   1.519  0.4736  0.3268 -1.4207
  555TIP3    H223225   2.378   3.777   1.440  0.7456 -2.4436  1.4574
  556TIP3   OH223226   0.558   1.794   8.105  0.0183 -0.7375  0.2178
  556TIP3    H123227   0.483   1.786   8.163  1.1935 -0.3996  1.8588
  556TIP3    H223228   0.598   1.707   8.104  1.5074 -0.1604  2.1423
  557TIP3   OH223229   6.365   3.219   7.959 -0.4529  0.1584  0.1897
  557TIP3    H123230   6.343   3.133   7.923 -1.6753  0.7215 -0.4686
  557TIP3    H223231   6.460   3.223   7.955 -0.4803  0.2241 -3.1470
  558TIP3   OH223232   3.126   6.641   0.949  0.0398  0.5191  0.0983
  558TIP3    H123233   3.136   6.670   0.858 -0.3877  1.2488  0.2686
  558TIP3    H223234   3.122   6.546   0.944  0.9960  0.5024 -0.5400
  559TIP3   OH223235   5.005   1.369   2.329 -0.9002 -1.2628  0.0028
  559TIP3    H123236   4.913   1.352   2.308 -0.9477 -0.3689 -0.5618
  559TIP3    H223237   5.053   1.318   2.264 -1.0000 -1.2637 -0.0718
  560TIP3   OH223238   2.467   1.003   1.268  0.1462  0.5334 -0.2081
  560TIP3    H123239   2.550   1.027   1.227  1.0544 -0.5825  0.9037
  560TIP3    H223240   2.491   0.973   1.356 -1.3749 -0.2630 -0.0303
  561TIP3   OH223241   2.950   2.658   1.350 -0.0601 -0.2509 -0.2031
  561TIP3    H123242   2.882   2.596   1.323 -1.0462  0.8281 -0.2953
  561TIP3    H223243   2.908   2.710   1.419  0.2445  1.2432 -1.1054
  562TIP3   OH223244   3.734   4.634   1.833  0.3125 -0.3528 -0.6036
  562TIP3    H123245   3.792   4.662   1.762  1.4009  0.2781  0.4926
  562TIP3    H223246   3.794   4.600   1.900 -0.7026 -1.1332 -0.0655
  563TIP3   OH223247   0.957   5.327   0.761 -0.5561  0.3957 -0.0778
  563TIP3    H123248   0.870   5.287   0.758 -0.1155 -0.7633  1.2785
  563TIP3    H223249   1.016   5.254   0.783  0.5571  1.4261  0.4612
  564TIP3   OH223250   6.310   3.483   7.899 -0.5096 -0.1278  0.2840
  564TIP3    H123251   6.336   3.396   7.930  0.5008  0.2639  0.5723
  564TIP3    H223252   6.339   3.485   7.808  0.5019  0.2929  0.5935
  565TIP3   OH223253   3.483   3.362   8.271 -0.2454 -0.1070  0.0489
  565TIP3    H123254   3.490   3.402   8.358 -1.5079  0.9524 -0.3024
  565TIP3    H223255   3.486   3.436   8.211 -0.1051 -0.7781 -0.7772
  566TIP3   OH223256   1.991   1.556   2.116 -0.5392 -0.1927  0.0662
  566TIP3    H123257   1.984   1.601   2.032 -0.7937  2.6776  1.4723
  566TIP3    H223258   2.053   1.610   2.167 -2.5772 -0.0796  2.6471
  567TIP3   OH223259   2.603   4.268   0.306  0.4787 -0.5356  0.1585
  567TIP3    H123260   2.613   4.361   0.324  1.3042 -0.1599 -1.9540
  567TIP3    H223261   2.601   4.226   0.393  1.4300  1.3028  1.1077
  568TIP3   OH223262   4.207   2.287   1.355 -0.3385  0.0940 -0.4476
  568TIP3    H123263   4.264   2.320   1.424 -0.9445 -0.3787  0.2939
  568TIP3    H223264   4.155   2.363   1.329  0.5963  0.5287 -1.1264
  569TIP3   OH223265   6.228   0.803   0.086  0.2473  0.1573 -0.3654
  569TIP3    H123266   6.158   0.801   0.151 -0.1094 -1.8630 -0.7230
  569TIP3    H223267   6.247   0.895   0.073 -2.6335  0.8078 -0.5685
  570TIP3   OH223268   4.724   0.243   2.403  0.0103  0.4094  0.4840
  570TIP3    H123269   4.772   0.306   2.457 -1.2824  2.1079 -0.2342
  570TIP3    H223270   4.678   0.187   2.465  1.8627 -0.4295  1.1560
  571TIP3   OH223271   4.260   5.236   0.202 -0.0829 -0.1364  0.0022
  571TIP3    H123272   4.174   5.205   0.231 -0.0579 -1.8318 -1.6192
  571TIP3    H223273   4.256   5.235   0.107  0.5978  3.1502 -0.1844
  572TIP3   OH223274   4.677   5.903   0.027 -0.1770 -0.7347  0.0853
  572TIP3    H123275   4.731   5.851  -0.032  0.4499 -0.8120  0.7116
  572TIP3    H223276   4.722   5.897   0.111 -0.3092  0.5134  0.2553
  573TIP3   OH223277   1.686   0.731   1.847  0.2481  0.0982  0.3492
  573TIP3    H123278   1.592   0.719   1.846  0.1731  0.5704 -1.2998
  573TIP3    H223279   1.714   0.695   1.932 -1.1103 -2.1713 -0.0730
  574TIP3   OH223280   3.404   3.247   7.493  0.2513  0.0592  0.1200
  574TIP3    H123281   3.336   3.275   7.431  1.9589  0.8185 -1.4947
  574TIP3    H223282   3.471   3.205   7.438  1.0549 -0.7840  1.6760
  575TIP3   OH223283   3.705   0.676   0.941 -0.0162  0.0819  0.4833
  575TIP3    H123284   3.690   0.627   0.861  0.7761 -0.1158  0.4457
  575TIP3    H223285   3.768   0.744   0.917  1.5832 -1.0308  1.2765
  576TIP3   OH223286   2.625   2.618   2.096 -0.0718 -0.1773  0.2332
  576TIP3    H123287   2.529   2.613   2.099 -0.2184  0.4658 -1.6971
  576TIP3    H223288   2.654   2.531   2.123 -1.1507 -0.1401  1.6120
  577TIP3   OH223289   2.760   2.040   1.413  0.1871 -0.4143 -0.1309
  577TIP3    H123290   2.716   2.047   1.499  0.1554  0.3696 -0.1960
  577TIP3    H223291   2.690   2.016   1.353 -0.0178  0.1072 -0.1099
  578TIP3   OH223292   2.182   3.407   0.195  0.3929  0.1190 -0.0344
  578TIP3    H123293   2.177   3.422   0.289  3.2355  4.2143 -0.3052
  578TIP3    H223294   2.101   3.443   0.160 -1.3307 -2.6602  0.7563
  579TIP3   OH223295   5.513   1.917   2.206  0.3744  0.0393  0.5336
  579TIP3    H123296   5.446   1.915   2.274 -0.0127 -2.2177  0.1616
  579TIP3    H223297   5.493   1.995   2.155 -0.4708  0.7291  1.8503
  580TIP3   OH223298   5.923   5.848   8.208  0.2456  0.0859 -0.0560
  580TIP3    H123299   5.946   5.909   8.138  0.7977  0.6120  0.5691
  580TIP3    H223300   6.006   5.805   8.231 -0.0898 -0.7234 -0.3187
  581TIP3   OH223301   2.403   2.840   0.202 -0.4138  0.1433  0.5206
  581TIP3    H123302   2.362   2.755   0.220  0.3351 -0.5340 -0.8010
  581TIP3    H223303   2.339   2.905   0.232 -1.1588 -0.8750  1.2017
  582TIP3   OH223304   6.544   0.248   8.028 -0.5477  0.3513 -0.1880
  582TIP3    H123305   6.452   0.267   8.011 -1.0636 -1.0876  0.8660
  582TIP3    H223306   6.570   0.312   8.094 -1.3097 -0.3688  0.8311
  583TIP3   OH223307   4.777   1.344   1.152  0.3237 -0.2644 -0.2558
  583TIP3    H123308   4.859   1.296   1.146  0.5506  0.1840 -0.9826
  583TIP3    H223309   4.797   1.430   1.113 -0.2412  0.1767  0.4079
  584TIP3   OH223310   2.813   2.843   7.838 -0.3037  0.0834 -0.5603
  584TIP3    H123311   2.797   2.911   7.903  0.1231  1.4367 -1.8048
  584TIP3    H223312   2.745   2.858   7.772 -2.1485 -2.6476  0.5260
  585TIP3   OH223313   3.163   2.160   7.490  0.2251  0.4924  0.2794
  585TIP3    H123314   3.131   2.147   7.579 -3.0966  1.7096 -0.6075
  585TIP3    H223315   3.184   2.253   7.484 -1.6403  0.9063 -0.7130
  586TIP3   OH223316   5.636   2.116   7.738  0.4700 -0.0046 -0.1436
  586TIP3    H123317   5.690   2.180   7.784  0.8765  0.2207 -0.9092
  586TIP3    H223318   5.695   2.078   7.672 -0.8369  1.9137 -2.6176
  587TIP3   OH223319   0.685   0.221   0.708  0.4759  0.2717  0.2687
  587TIP3    H123320   0.620   0.248   0.773  1.1517 -0.5836  1.3382
  587TIP3    H223321   0.763   0.199   0.760  0.7723 -1.2205 -0.7528
  588TIP3   OH223322   6.772   2.884   1.337 -0.5595  0.1001 -0.3315
  588TIP3    H123323   6.851   2.892   1.390 -0.6607  1.4553 -0.3281
  588TIP3    H223324   6.713   2.829   1.388 -0.0052 -0.0479  0.1550
  589TIP3   OH223325   5.069   3.629   7.487 -0.0208  0.1067  0.1971
  589TIP3    H123326   5.130   3.702   7.484  0.6830 -0.4157  1.3491
  589TIP3    H223327   5.050   3.617   7.580 -2.0106  0.3458 -0.1249
  590TIP3   OH223328   0.859   2.779   8.343  0.1741  0.0002  0.1536
  590TIP3    H123329   0.892   2.841   8.278 -0.2854  1.7388  1.5007
  590TIP3    H223330   0.870   2.823   8.427 -1.8863 -0.9649  1.0116
  591TIP3   OH223331   3.023   2.943   7.569  0.0946 -0.3448 -0.3922
  591TIP3    H123332   3.108   2.940   7.613  0.6030  1.1984 -1.2004
  591TIP3    H223333   3.041   2.912   7.480 -0.7254 -2.4471  0.1071
  592TIP3   OH223334   6.397   2.552   3.040 -0.6234 -0.1375 -0.4399
  592TIP3    H123335   6.446   2.616   3.091  0.7380 -0.5163 -1.2277
  592TIP3    H223336   6.332   2.605   2.992  0.6019  0.7075 -1.2288
  593TIP3   OH223337   5.057   1.756   3.604  0.6259  0.0792  0.3123
  593TIP3    H123338   5.123   1.712   3.659 -1.1835 -3.0564  0.2363
  593TIP3    H223339   5.051   1.701   3.526  0.3701  2.3148 -1.3423
  594TIP3   OH223340   5.397   4.036   2.554  0.2677  0.3539  0.3936
  594TIP3    H123341   5.344   4.108   2.520  0.4421  1.0544  1.5443
  594TIP3    H223342   5.334   3.968   2.576 -0.1171  0.9436  1.1668
  595TIP3   OH223343   5.778   5.164   7.606  0.2727  0.2030  0.1229
  595TIP3    H123344   5.868   5.191   7.588 -0.4313  1.9549 -1.0262
  595TIP3    H223345   5.737   5.159   7.520 -1.3321  1.8050  0.7401
  596TIP3   OH223346   6.543   1.681   2.708 -0.2474 -0.3071 -0.1298
  596TIP3    H123347   6.535   1.657   2.800  1.8296 -1.3220 -0.1593
  596TIP3    H223348   6.626   1.729   2.702 -0.4380 -0.0923 -1.4438
  597TIP3   OH223349   3.429   6.159   2.437 -0.0026 -0.3484  0.3801
  597TIP3    H123350   3.464   6.134   2.352 -1.2756  0.0210 -0.2752
  597TIP3    H223351   3.388   6.078   2.471  0.9221 -0.6220  0.8733
  598TIP3   OH223352   2.844   5.057   0.772  0.2121 -0.0056  0.0222
  598TIP3    H123353   2.867   5.150   0.770  0.3794 -0.0490 -0.0774
  598TIP3    H223354   2.928   5.012   0.786  0.1990 -0.1695 -0.4132
  599TIP3   OH223355   6.824   2.428   1.015 -0.1218 -0.2414  0.0376
  599TIP3    H123356   6.826   2.339   0.981 -0.9774  0.0208 -0.7311
  599TIP3    H223357   6.770   2.423   1.094  0.7670 -0.5986  0.6420
  600TIP3   OH223358   0.748   4.315   7.670 -0.0800  0.7994  0.2764
  600TIP3    H123359   0.800   4.363   7.606 -1.3154  1.3755 -0.3285
  600TIP3    H223360   0.659   4.349   7.660 -0.9578 -1.3904  0.0235
  601TIP3   OH223361   5.601   6.829   0.821 -0.1498 -0.3621  0.2170
  601TIP3    H123362   5.617   6.840   0.915 -1.0498 -0.9359  0.4581
  601TIP3    H223363   5.663   6.887   0.779  0.5232 -0.3673  1.1613
  602TIP3   OH223364   6.458   3.403   1.487 -0.1028 -0.5312 -0.1773
  602TIP3    H123365   6.512   3.389   1.565 -1.6187 -1.7294  0.7132
  602TIP3    H223366   6.518   3.392   1.414  1.1158 -0.5633  0.7926
  603TIP3   OH223367   5.682   2.232   3.145  0.3654  0.0982  0.6117
  603TIP3    H123368   5.744   2.229   3.218 -0.7575  0.7981  1.6166
  603TIP3    H223369   5.622   2.160   3.162  0.0860  0.2782  0.3864
  604TIP3   OH223370   3.294   1.613   8.499  0.1093 -0.1649 -0.6719
  604TIP3    H123371   3.204   1.638   8.476 -0.7244 -0.8997  1.5131
  604TIP3    H223372   3.323   1.681   8.560 -0.2331 -1.5670  1.1711
  605TIP3   OH223373   3.039   5.482   0.946  0.0072  0.2172 -0.0901
  605TIP3    H123374   3.133   5.484   0.962 -0.3629  2.3051  2.3777
  605TIP3    H223375   3.026   5.407   0.888  3.2332  0.2763 -1.0738
  606TIP3   OH223376   3.939   2.389   1.548  0.1557  0.1732  0.0130
  606TIP3    H123377   3.934   2.340   1.466 -3.3326  0.2162  0.0400
  606TIP3    H223378   3.904   2.475   1.527  1.1904  0.9027  1.1266
  607TIP3   OH223379   1.006   4.344   1.618  0.1705 -0.2955  0.3810
  607TIP3    H123380   1.044   4.297   1.693 -0.4494  0.5647  1.2607
  607TIP3    H223381   0.991   4.276   1.552  0.3781 -1.1386  1.1759
  608TIP3   OH223382   5.254   4.518   0.985 -0.1591  0.3165 -0.3950
  608TIP3    H123383   5.293   4.556   1.064  1.2170 -0.0477 -0.8636
  608TIP3    H223384   5.160   4.520   1.001  0.1095 -0.4157  1.5694
  609TIP3   OH223385   5.066   2.469   1.036  0.2379  0.7048 -0.4918
  609TIP3    H123386   5.138   2.454   1.098 -0.4960 -0.2837  0.1484
  609TIP3    H223387   5.108   2.509   0.960  1.4857  0.0771 -0.1604
  610TIP3   OH223388   1.990   5.790   0.315  0.3462  0.3237  0.2039
  610TIP3    H123389   1.971   5.710   0.365 -2.0086  0.5024 -0.2968
  610TIP3    H223390   1.940   5.859   0.360  0.2872  0.9942 -0.8536
  611TIP3   OH223391   3.693   2.051   0.747  1.1632  0.3386  0.0008
  611TIP3    H123392   3.699   2.139   0.785 -1.0804  1.4627 -2.0334
  611TIP3    H223393   3.607   2.019   0.774  1.1104 -0.3931 -1.0003
  612TIP3   OH223394   3.230   0.887   0.785  0.2464 -0.0179 -0.4191
  612TIP3    H123395   3.282   0.929   0.717  0.1992  0.2966 -0.2630
  612TIP3    H223396   3.253   0.933   0.865  0.1168 -0.2233 -0.2618
  613TIP3   OH223397   3.806   2.710   3.126  0.3688  0.2301  0.3144
  613TIP3    H123398   3.843   2.798   3.125 -0.7630  0.7143 -0.8750
  613TIP3    H223399   3.714   2.722   3.103  0.4515 -1.3761 -1.0080
  614TIP3   OH223400   0.023   1.340   8.674 -0.0768 -0.1903  0.9875
  614TIP3    H123401   0.018   1.434   8.691 -0.0247  0.0713 -0.3006
  614TIP3    H223402   0.099   1.310   8.724  2.3832  1.2291 -1.5671
  615TIP3   OH223403   0.773   6.224   0.357 -0.3832 -0.3205  0.2525
  615TIP3    H123404   0.851   6.168   0.364  1.1607  1.5380 -0.9232
  615TIP3    H223405   0.754   6.225   0.263 -1.5282 -0.3535  0.4783
  616TIP3   OH223406   5.963   3.085   2.176 -0.2786 -0.1903 -0.2195
  616TIP3    H123407   5.905   3.018   2.139  2.4190 -2.9969  0.1676
  616TIP3    H223408   5.920   3.168   2.156 -1.3476 -1.6221 -5.5830
  617TIP3   OH223409   2.319   4.678   0.127 -0.1045 -0.7386  0.2138
  617TIP3    H123410   2.292   4.679   0.219  2.0909 -1.6980  0.9127
  617TIP3    H223411   2.331   4.585   0.106 -0.7077 -0.5464 -1.1256
  618TIP3   OH223412   4.731   5.225   8.460  0.2488  0.3284 -0.3913
  618TIP3    H123413   4.825   5.243   8.447  0.1606  1.8473  0.8483
  618TIP3    H223414   4.729   5.148   8.517  0.6970 -0.5569 -1.5239
  619TIP3   OH223415   0.956   2.227   1.207 -0.0465  0.1839 -0.1781
  619TIP3    H123416   0.971   2.295   1.273 -0.6848  0.6991 -0.5513
  619TIP3    H223417   1.015   2.249   1.135  1.8629 -1.3023  0.8387
  620TIP3   OH223418   2.339   3.389   2.096  0.0218  0.0966 -0.0477
  620TIP3    H123419   2.366   3.465   2.147  1.6319  0.0119 -0.7200
  620TIP3    H223420   2.292   3.425   2.021 -0.0211  0.3635  0.1077
  621TIP3   OH223421   4.293   0.891   0.748 -0.0686 -0.2588  0.3280
  621TIP3    H123422   4.288   0.973   0.797 -0.7693 -0.6360  0.8907
  621TIP3    H223423   4.345   0.833   0.803 -0.1025 -0.3974  0.2146
  622TIP3   OH223424   2.745   6.106   8.289 -0.2281 -0.1763 -0.0869
  622TIP3    H123425   2.700   6.080   8.208  0.3832 -3.6628  0.5049
  622TIP3    H223426   2.838   6.110   8.265 -0.1392 -0.3032  0.2224
  623TIP3   OH223427   3.431   0.444   0.615  0.2079  0.1014 -0.2729
  623TIP3    H123428   3.500   0.395   0.571  1.1558 -0.1360  1.3729
  623TIP3    H223429   3.466   0.533   0.621  0.6130 -0.1223  0.9744
  624TIP3   OH223430   3.303   0.324   2.533  0.3159  0.4163 -0.1631
  624TIP3    H123431   3.243   0.267   2.485  0.0950  1.5053 -1.1981
  624TIP3    H223432   3.251   0.359   2.605 -0.5156  1.8279 -1.4000
  625TIP3   OH223433   3.690   3.003   7.943  0.8506 -0.3295  0.0798
  625TIP3    H123434   3.683   3.056   7.863 -0.2107  1.2547  1.1589
  625TIP3    H223435   3.702   3.067   8.013  0.5484 -1.6041  1.3426
  626TIP3   OH223436   4.549   5.688   2.683 -0.2688  0.0268 -0.1984
  626TIP3    H123437   4.468   5.658   2.641 -1.6976  0.0024  2.4053
  626TIP3    H223438   4.607   5.612   2.678 -0.6786 -0.2456 -1.3403
  627TIP3   OH223439   2.765   5.841   1.026  0.0595 -0.8111  0.1818
  627TIP3    H123440   2.690   5.836   0.966 -0.5279 -0.3229  0.8625
  627TIP3    H223441   2.766   5.931   1.056 -0.6077 -1.4012  2.0987
  628TIP3   OH223442   0.520   3.873   0.399 -0.1041  0.4560  0.2459
  628TIP3    H123443   0.562   3.808   0.456  0.0594 -2.4689 -2.9023
  628TIP3    H223444   0.427   3.850   0.402  0.0165 -0.3718 -1.2659
  629TIP3   OH223445   5.988   2.422   2.205  0.2354  0.0191  0.0493
  629TIP3    H123446   6.081   2.402   2.202  0.0606 -0.7109 -0.8362
  629TIP3    H223447   5.984   2.518   2.211  1.0364  0.0219  0.7040
  630TIP3   OH223448   1.703   0.263   0.937 -0.3091  0.3931 -0.3876
  630TIP3    H123449   1.693   0.207   0.861 -2.4118  1.9966 -1.3842
  630TIP3    H223450   1.643   0.227   1.002 -2.3446  1.8526 -1.3403
  631TIP3   OH223451   1.298   1.185   8.478 -0.1682  0.6671  0.4743
  631TIP3    H123452   1.319   1.101   8.437 -1.7472  0.0967  0.7369
  631TIP3    H223453   1.364   1.196   8.546  0.1148 -0.3254  0.3718
  632TIP3   OH223454   4.165   5.037   1.135 -0.3709  0.4070  0.1305
  632TIP3    H123455   4.247   5.027   1.183 -1.0370  0.2054  1.2585
  632TIP3    H223456   4.178   4.986   1.055  0.5257  0.2214  0.3834
  633TIP3   OH223457   5.743   1.536   2.412  0.4685 -0.1046 -0.2749
  633TIP3    H123458   5.788   1.584   2.343  1.4010  0.0147  0.3934
  633TIP3    H223459   5.808   1.472   2.443 -0.4058 -1.0924 -0.4522
  634TIP3   OH223460   3.086   4.575   1.972  0.6151 -0.0819 -0.4648
  634TIP3    H123461   3.112   4.653   1.924 -2.2934  2.0301  1.0660
  634TIP3    H223462   3.121   4.589   2.060  0.0198 -0.4702 -0.1625
  635TIP3   OH223463   2.245   4.743   2.921  0.0994  0.8180 -0.0904
  635TIP3    H123464   2.176   4.797   2.959  1.0603  1.3017  1.0546
  635TIP3    H223465   2.325   4.795   2.933  0.9165 -0.4631  0.2146
  636TIP3   OH223466   5.692   2.359   0.103 -0.9679 -0.4216 -0.5977
  636TIP3    H123467   5.639   2.416   0.048 -0.4972 -0.0123 -0.6389
  636TIP3    H223468   5.678   2.392   0.192  0.7724  1.0037 -0.8028
  637TIP3   OH223469   2.168   5.586   0.238  0.3868 -0.4397 -0.6432
  637TIP3    H123470   2.161   5.494   0.264  1.7145 -0.6530 -0.9348
  637TIP3    H223471   2.083   5.624   0.259 -0.2571 -1.7862 -0.7304
  638TIP3   OH223472   5.788   5.684   1.389 -0.1021 -0.0805 -0.5905
  638TIP3    H123473   5.830   5.738   1.321  0.0451 -2.1519 -2.2467
  638TIP3    H223474   5.857   5.626   1.419 -0.6137 -0.3319  0.1097
  639TIP3   OH223475   4.476   2.569   8.175  0.2549 -0.1092  0.3762
  639TIP3    H123476   4.536   2.498   8.154 -0.8182 -1.6379  2.2138
  639TIP3    H223477   4.472   2.622   8.095  1.7608 -1.5916 -0.7354
  640TIP3   OH223478   2.518   6.399   0.699  0.5947 -0.0094 -0.4955
  640TIP3    H123479   2.453   6.329   0.691  1.2154 -0.4221 -2.3673
  640TIP3    H223480   2.574   6.371   0.772  0.8636 -1.5195 -1.2446
  641TIP3   OH223481   4.755   1.505   1.453  0.4962 -0.0170 -0.2910
  641TIP3    H123482   4.696   1.554   1.396  0.6821 -0.4788 -0.8999
  641TIP3    H223483   4.750   1.549   1.538 -1.6862 -0.8050  0.0470
  642TIP3   OH223484   5.123   4.415   2.214  0.3307  0.0906  0.6986
  642TIP3    H123485   5.095   4.421   2.305  1.6306 -0.8132  1.1851
  642TIP3    H223486   5.218   4.423   2.217  0.3336  1.1322 -0.7062
  643TIP3   OH223487   1.808   5.620   1.601  0.9341  0.0611  0.4619
  643TIP3    H123488   1.757   5.652   1.676  0.6790  0.0632  0.2872
  643TIP3    H223489   1.744   5.578   1.544  1.2046 -0.4080  0.4960
  644TIP3   OH223490   0.839   6.273   7.589 -0.3291 -0.2883  0.4208
  644TIP3    H123491   0.770   6.253   7.526  0.9080  0.3294 -1.1953
  644TIP3    H223492   0.867   6.188   7.623  0.2123 -0.7957 -1.2391
  645TIP3   OH223493   3.223   5.143   1.934  0.0060  0.0274 -0.1431
  645TIP3    H123494   3.238   5.137   1.840 -1.3760  0.2968 -0.4111
  645TIP3    H223495   3.128   5.151   1.942 -0.1589 -2.5463  1.4133
  646TIP3   OH223496   1.651   0.700   0.121  0.0278  0.7019  0.3344
  646TIP3    H123497   1.594   0.632   0.157 -0.7346  1.2980  0.2702
  646TIP3    H223498   1.715   0.716   0.191  1.0742 -1.0128 -0.1498
  647TIP3   OH223499   1.321   3.927   0.587  0.3772 -0.0325  0.0251
  647TIP3    H123500   1.370   4.008   0.597 -0.7625  0.6081  0.5345
  647TIP3    H223501   1.361   3.867   0.650  0.1052  0.6835  0.8932
  648TIP3   OH223502   1.864   1.989   3.300  0.1358 -0.0302  0.3471
  648TIP3    H123503   1.909   2.025   3.224  1.8460  0.4808  1.5453
  648TIP3    H223504   1.886   1.896   3.300  0.0785 -0.0437  0.1910
  649TIP3   OH223505   6.827   6.052   0.569 -0.1160 -0.3787  0.1439
  649TIP3    H123506   6.785   6.120   0.621 -0.6648 -1.1580  0.7446
  649TIP3    H223507   6.900   6.023   0.623  0.9736  0.6776 -0.7148
  650TIP3   OH223508   2.898   5.698   7.769  0.2422 -0.2556  0.6659
  650TIP3    H123509   2.910   5.774   7.711 -0.2228 -0.8285 -0.2002
  650TIP3    H223510   2.908   5.622   7.711  0.6254 -0.8626  1.5089
  651TIP3   OH223511   1.077   5.206   1.106 -0.2186  0.1096 -0.3159
  651TIP3    H123512   1.014   5.231   1.174 -0.7455  0.5574 -0.9582
  651TIP3    H223513   1.109   5.289   1.071 -0.5069 -0.1124 -1.1243
  652TIP3   OH223514   3.535   5.739   7.634 -0.0280 -0.7966 -0.6388
  652TIP3    H123515   3.507   5.760   7.545  0.2179 -0.6671 -0.6878
  652TIP3    H223516   3.455   5.710   7.679 -0.3137 -0.0345 -0.6534
  653TIP3   OH223517   6.530   6.035   8.293  0.0612  0.3578 -0.2411
  653TIP3    H123518   6.512   6.050   8.386 -0.4476 -0.1837 -0.2450
  653TIP3    H223519   6.446   6.050   8.250  0.4961  1.4916 -0.7341
  654TIP3   OH223520   0.122   4.122   8.111 -0.0287 -0.3731  0.6700
  654TIP3    H123521   0.054   4.170   8.064  0.6733  0.2262  0.2395
  654TIP3    H223522   0.124   4.036   8.069  0.9713  0.3284 -0.8265
  655TIP3   OH223523   2.296   2.625   0.301 -0.1073  0.0521 -0.5776
  655TIP3    H123524   2.207   2.603   0.276 -0.1607 -1.5462  0.8521
  655TIP3    H223525   2.295   2.628   0.397  1.2010  0.8295 -0.5536
  656TIP3   OH223526   1.214   6.776   1.919  0.0318  0.4308 -0.1648
  656TIP3    H123527   1.142   6.777   1.856  0.5596 -0.5643 -0.8276
  656TIP3    H223528   1.278   6.837   1.882 -0.1886  0.8106  0.0768
  657TIP3   OH223529   1.775   3.600   3.033  0.2039  0.0466 -0.3382
  657TIP3    H123530   1.729   3.546   3.098 -0.2280  1.1264  0.2699
  657TIP3    H223531   1.768   3.549   2.952  2.0015 -2.0233  0.6885
  658TIP3   OH223532   3.196   4.452   8.310  0.3842  0.3216  0.2706
  658TIP3    H123533   3.193   4.434   8.216 -0.0282  0.5465  0.2353
  658TIP3    H223534   3.289   4.452   8.332  0.5178  0.8345 -0.2536
  659TIP3   OH223535   3.900   0.190   2.083  0.0127 -0.1871  0.5939
  659TIP3    H123536   3.815   0.152   2.101 -0.4335  0.0822 -0.8557
  659TIP3    H223537   3.884   0.254   2.013  1.5902 -1.0124 -0.5759
  660TIP3   OH223538   1.278   6.612   2.564  0.3670  0.0879 -0.6242
  660TIP3    H123539   1.333   6.565   2.627 -2.0003  1.3087  2.6281
  660TIP3    H223540   1.200   6.556   2.554 -0.2022  0.8953 -0.7854
  661TIP3   OH223541   3.288   0.174   7.792 -0.3469  0.1585 -0.4481
  661TIP3    H123542   3.377   0.140   7.785  0.1339  1.5033 -1.1154
  661TIP3    H223543   3.298   0.269   7.800 -1.7188  0.3386 -0.5638
  662TIP3   OH223544   5.983   3.275   1.034 -0.0554 -0.2972 -0.0272
  662TIP3    H123545   6.041   3.350   1.051  2.2199 -1.6785 -1.1145
  662TIP3    H223546   5.969   3.277   0.940  0.8325 -1.7287 -0.2173
  663TIP3   OH223547   1.332   2.115   2.896  0.1505  0.3069 -0.6411
  663TIP3    H123548   1.304   2.159   2.816 -0.3222  0.2540 -0.5085
  663TIP3    H223549   1.264   2.137   2.960  0.0729 -0.3500 -0.4911
  664TIP3   OH223550   5.675   5.510   7.871  0.0808 -0.1527 -0.2376
  664TIP3    H123551   5.657   5.582   7.810  0.0655 -0.4937 -0.6413
  664TIP3    H223552   5.592   5.493   7.915  0.4525  1.1443  1.0366
  665TIP3   OH223553   1.187   1.276   2.792 -0.0872 -0.2956  0.3350
  665TIP3    H123554   1.184   1.184   2.816 -0.3873 -0.5722 -0.7183
  665TIP3    H223555   1.095   1.303   2.789 -0.1229 -0.4927 -1.2591
  666TIP3   OH223556   1.409   0.711   1.836  0.2460  0.0239  0.0118
  666TIP3    H123557   1.385   0.630   1.881  0.0787  0.0872  0.0375
  666TIP3    H223558   1.334   0.769   1.849  1.1072  0.8507  1.5788
  667TIP3   OH223559   4.427   1.126   2.309  0.0161 -0.4157 -0.1192
  667TIP3    H123560   4.374   1.054   2.274  0.2661  0.2277 -1.9079
  667TIP3    H223561   4.518   1.098   2.296  0.2253  1.2799 -3.5283
  668TIP3   OH223562   2.131   5.151   0.028 -0.2018 -0.2259 -0.2462
  668TIP3    H123563   2.186   5.073   0.036 -0.2867 -0.3479 -0.7886
  668TIP3    H223564   2.112   5.157  -0.066 -0.8618 -0.0166 -0.1044
  669TIP3   OH223565   4.269   4.813   2.288 -0.4023  0.3460  0.5316
  669TIP3    H123566   4.217   4.812   2.368 -1.9907  0.5127 -0.4542
  669TIP3    H223567   4.344   4.756   2.307 -1.1207 -0.1873  1.8733
  670TIP3   OH223568   2.338   2.805   1.189 -0.0462 -0.0127 -0.3991
  670TIP3    H123569   2.350   2.884   1.138  0.6487 -0.8639 -1.6030
  670TIP3    H223570   2.243   2.797   1.200 -0.3424 -0.4788 -2.7253
  671TIP3   OH223571   4.284   0.209   0.800  0.1170 -0.1252  0.9341
  671TIP3    H123572   4.276   0.273   0.870  2.3935 -0.3961  1.5187
  671TIP3    H223573   4.340   0.250   0.734  0.3021 -0.9025  0.5832
  672TIP3   OH223574   5.615   1.902   2.508  0.1865  0.4190  0.9170
  672TIP3    H123575   5.683   1.886   2.443  1.0643  2.9458  1.1490
  672TIP3    H223576   5.543   1.844   2.482  0.6171  1.1314 -2.1579
  673TIP3   OH223577   2.281   3.247   1.249  0.2604 -0.1494  0.1900
  673TIP3    H123578   2.349   3.184   1.274  2.2598  1.2659 -1.3419
  673TIP3    H223579   2.275   3.238   1.153 -0.0065  1.3860  0.0480
  674TIP3   OH223580   3.678   1.824   8.623  0.4551 -0.1417  0.2386
  674TIP3    H123581   3.657   1.775   8.544 -0.7790 -0.0318  0.4779
  674TIP3    H223582   3.594   1.835   8.668  0.8054  1.5015  0.5816
  675TIP3   OH223583   1.040   0.717   0.955  0.0960  0.0894  0.3202
  675TIP3    H123584   1.013   0.755   1.038  2.5103 -0.1660  1.2941
  675TIP3    H223585   1.128   0.753   0.939 -0.4361  0.4359 -2.3313
  676TIP3   OH223586   3.581   5.073   1.538 -0.2360 -0.1300  0.1029
  676TIP3    H123587   3.595   5.149   1.594 -1.5072 -0.1088  0.4174
  676TIP3    H223588   3.599   5.105   1.450 -0.5262  0.4844  0.2585
  677TIP3   OH223589   0.617   0.443   2.768 -0.1496  0.0814  0.2813
  677TIP3    H123590   0.587   0.520   2.719 -0.5033 -0.9188 -1.1147
  677TIP3    H223591   0.538   0.394   2.788  0.1607 -0.4417  0.2561
  678TIP3   OH223592   5.984   3.618   0.802 -0.2133 -0.0365  0.0918
  678TIP3    H123593   6.013   3.600   0.713 -1.5399 -0.3089 -0.3008
  678TIP3    H223594   5.890   3.600   0.802 -0.3332  0.4126  1.4234
  679TIP3   OH223595   4.892   5.738   8.525 -0.3705  0.2245  0.0228
  679TIP3    H123596   4.820   5.796   8.501  0.0994  1.1824  0.8802
  679TIP3    H223597   4.891   5.670   8.457  0.0017  2.0150 -1.8572
  680TIP3   OH223598   6.140   4.782   7.790 -0.4102  0.3406 -0.6458
  680TIP3    H123599   6.143   4.768   7.885 -0.9650  0.7623 -0.5667
  680TIP3    H223600   6.124   4.695   7.754 -0.2989  0.1948 -0.3475
  681TIP3   OH223601   5.056   4.225   8.663 -0.2699  0.7043  0.4555
  681TIP3    H123602   4.967   4.260   8.659 -0.7816 -0.6556 -0.9840
  681TIP3    H223603   5.058   4.170   8.741  0.2433  3.0073  2.1723
  682TIP3   OH223604   2.684   0.043   3.233 -0.0179  0.0100 -0.1190
  682TIP3    H123605   2.776   0.069   3.239 -0.3232  0.8526  1.6667
  682TIP3    H223606   2.638   0.123   3.206 -0.3570 -0.0821  0.1763
  683TIP3   OH223607   6.850   5.921   3.095  0.1240 -0.2284  0.2539
  683TIP3    H123608   6.813   6.003   3.126  0.2548  0.2864 -0.9380
  683TIP3    H223609   6.901   5.888   3.170  0.5163  1.0325  0.5529
  684TIP3   OH223610   1.748   1.515   2.546  0.8448  0.0474 -0.5063
  684TIP3    H123611   1.770   1.512   2.639  0.8243  0.8722 -0.4681
  684TIP3    H223612   1.652   1.517   2.544  0.8468  0.1602 -0.5335
  685TIP3   OH223613   2.439   6.811   1.341  0.1565 -0.6233 -0.1393
  685TIP3    H123614   2.475   6.742   1.396  0.9540 -1.1515 -1.2826
  685TIP3    H223615   2.508   6.831   1.278 -1.0074 -0.6347 -1.4883
  686TIP3   OH223616   6.605   3.656   0.053 -0.7223  0.3604  0.2363
  686TIP3    H123617   6.562   3.606  -0.016 -0.7868  0.5765  0.1174
  686TIP3    H223618   6.687   3.610   0.070 -1.3780 -0.5459  1.0649
  687TIP3   OH223619   2.180   0.947   7.404  0.5488  0.0063 -0.3249
  687TIP3    H123620   2.220   1.013   7.347  0.0237  0.5208 -0.1077
  687TIP3    H223621   2.249   0.924   7.466  0.6513  0.5698 -0.2232
  688TIP3   OH223622   0.013   5.302   2.601 -0.5245 -0.3975  0.7385
  688TIP3    H123623  -0.050   5.374   2.610  0.5993  0.5775  0.9697
  688TIP3    H223624   0.041   5.284   2.691  0.1671 -0.2338  0.5598
  689TIP3   OH223625   3.884   4.191   3.366  0.6809  0.4200  0.5068
  689TIP3    H123626   3.839   4.223   3.288  0.4464  0.0316  0.4780
  689TIP3    H223627   3.837   4.232   3.439 -0.2645 -0.6262  0.5109
  690TIP3   OH223628   0.014   2.269   0.619 -0.0312  0.3582  0.8168
  690TIP3    H123629  -0.053   2.274   0.550  0.3417 -1.5786  0.2599
  690TIP3    H223630   0.084   2.327   0.588 -0.4170  0.5130  0.2070
  691TIP3   OH223631   3.584   0.060   1.002  0.3204 -0.6501 -0.1405
  691TIP3    H123632   3.553  -0.031   1.007 -0.6811 -0.3098  0.1903
  691TIP3    H223633   3.675   0.056   1.029  0.2783 -1.5581 -0.1030
  692TIP3   OH223634   1.258   6.499   1.573  0.0741 -0.2458  0.0082
  692TIP3    H123635   1.171   6.531   1.596  0.0376  0.3733 -0.9389
  692TIP3    H223636   1.259   6.408   1.603 -0.7992 -0.1783  0.2656
  693TIP3   OH223637   0.797   4.032   1.178  0.0406 -0.0424 -0.3783
  693TIP3    H123638   0.750   3.956   1.142  0.6726 -0.4439 -0.3605
  693TIP3    H223639   0.760   4.107   1.132 -0.7567 -0.3342 -0.2331
  694TIP3   OH223640   3.462   2.030   7.689 -0.2053 -0.3489 -0.3580
  694TIP3    H123641   3.549   1.991   7.688  0.6176  1.3394  0.5530
  694TIP3    H223642   3.470   2.107   7.633 -0.5344  0.8953  1.2300
  695TIP3   OH223643   5.841   5.479   8.442  0.0950 -0.2853 -0.1736
  695TIP3    H123644   5.758   5.479   8.394 -1.2597  1.9669  1.8854
  695TIP3    H223645   5.841   5.396   8.489 -0.9667 -0.3924 -0.3299
  696TIP3   OH223646   1.593   5.909   2.079  0.0921  0.0726  0.2350
  696TIP3    H123647   1.683   5.925   2.050  0.1672  0.9039  0.8905
  696TIP3    H223648   1.549   5.992   2.066 -0.7790 -0.5176 -0.7192
  697TIP3   OH223649   4.322   3.526   7.292 -0.4574 -0.0162  0.8035
  697TIP3    H123650   4.408   3.552   7.325 -0.5981 -0.4310  1.5341
  697TIP3    H223651   4.300   3.591   7.226  1.3183 -1.0412 -0.8969
  698TIP3   OH223652   0.852   4.941   3.092  0.3048  0.0036 -0.5712
  698TIP3    H123653   0.776   4.979   3.136 -0.8104 -2.8408  0.2166
  698TIP3    H223654   0.925   4.957   3.152 -0.4377 -0.4398  0.4768
  699TIP3   OH223655   1.486   3.660   8.366 -0.3852  0.0938  0.9372
  699TIP3    H123656   1.533   3.604   8.305  0.5180  1.7768  0.0323
  699TIP3    H223657   1.401   3.617   8.378 -0.4680 -0.4320 -1.2678
  700TIP3   OH223658   4.770   0.060   2.839  0.5064  0.8387  0.1017
  700TIP3    H123659   4.746   0.152   2.854  1.1441  1.0048  0.1493
  700TIP3    H223660   4.690   0.011   2.857  0.5264  1.2622  1.4868
  701TIP3   OH223661   1.966   2.637   2.049 -0.3400 -0.5188 -0.0051
  701TIP3    H123662   1.953   2.672   2.137  2.8857  0.5532  0.1470
  701TIP3    H223663   2.025   2.563   2.060 -2.0671 -2.1607 -1.0629
  702TIP3   OH223664   2.016   4.562   1.126  0.2252  0.1104  0.2453
  702TIP3    H123665   2.076   4.496   1.162 -1.1578 -1.8013 -0.8126
  702TIP3    H223666   2.006   4.538   1.034  0.8256  2.7325 -0.5932
  703TIP3   OH223667   4.635   3.131   0.541 -0.1504  0.6920 -0.4714
  703TIP3    H123668   4.573   3.070   0.502 -0.2583  0.9681 -0.7332
  703TIP3    H223669   4.594   3.159   0.622  0.8064 -1.1773  0.7257
  704TIP3   OH223670   4.439   2.648   8.428  0.9715 -0.5903 -0.4122
  704TIP3    H123671   4.362   2.703   8.417  0.6728 -0.5601  1.4860
  704TIP3    H223672   4.461   2.619   8.340 -0.7238  0.0477 -1.0819
  705TIP3   OH223673   2.001   4.122   0.359  0.0677 -0.2015  0.4160
  705TIP3    H123674   2.026   4.209   0.327 -2.2847  0.1585 -0.7037
  705TIP3    H223675   1.974   4.074   0.281 -1.6063 -0.8505  1.3249
  706TIP3   OH223676   3.906   4.293   7.558  0.3272  0.0450 -0.2711
  706TIP3    H123677   3.826   4.292   7.505  0.7279  0.1003 -0.8799
  706TIP3    H223678   3.977   4.303   7.495  0.7903  0.4294  0.3045
  707TIP3   OH223679   1.278   5.345   0.867 -0.0957  0.6599  0.1153
  707TIP3    H123680   1.313   5.326   0.780  0.7472  1.0623  0.3531
  707TIP3    H223681   1.275   5.440   0.872 -1.2650  0.6411  0.1037
  708TIP3   OH223682   4.191   5.105   7.676 -0.7742  0.2389 -0.6132
  708TIP3    H123683   4.209   5.085   7.584 -0.4911  1.8725 -0.9445
  708TIP3    H223684   4.221   5.027   7.724 -0.0591 -0.2569 -1.8255
  709TIP3   OH223685   6.455   6.561   1.948  0.1544 -0.1241  0.3822
  709TIP3    H123686   6.421   6.633   2.001 -1.0867 -0.5026  0.1130
  709TIP3    H223687   6.388   6.494   1.952  0.7112 -0.7527 -0.4600
  710TIP3   OH223688   4.591   3.990   0.958  0.1741  0.5587 -0.1913
  710TIP3    H123689   4.628   3.934   1.027 -1.5097 -0.4547 -0.0427
  710TIP3    H223690   4.663   4.048   0.933  0.8891  0.8850  2.3139
  711TIP3   OH223691   2.448   5.156   2.304  0.0229  0.2542 -0.3065
  711TIP3    H123692   2.544   5.153   2.306 -0.0060 -2.0452  0.6466
  711TIP3    H223693   2.427   5.249   2.297  2.2877  1.1714  2.8869
  712TIP3   OH223694   4.867   0.705   1.666  0.2396 -0.1601 -0.7680
  712TIP3    H123695   4.865   0.693   1.571 -0.9230 -0.4950 -0.7066
  712TIP3    H223696   4.789   0.660   1.698  1.2238 -1.0547  0.4732
  713TIP3   OH223697   5.958   3.000   2.527  0.3872  0.0140 -0.9187
  713TIP3    H123698   5.991   2.989   2.617 -0.1017 -1.8053 -0.9140
  713TIP3    H223699   6.015   3.067   2.489  1.1108  0.2604  0.5030
  714TIP3   OH223700   3.788   5.021   1.889  0.4403 -0.2134 -0.6455
  714TIP3    H123701   3.815   4.930   1.895  1.7065  0.2136  0.8978
  714TIP3    H223702   3.819   5.061   1.971 -0.5082  1.4908 -1.0570
  715TIP3   OH223703   5.225   1.103   1.248 -0.1175 -0.0884 -0.0884
  715TIP3    H123704   5.309   1.084   1.207  0.0271 -0.0266  0.1755
  715TIP3    H223705   5.224   1.048   1.327  0.5859  1.4396  1.0388
  716TIP3   OH223706   4.643   5.823   1.050 -0.6916  0.1677  0.2211
  716TIP3    H123707   4.652   5.866   1.136  1.3940  0.5399 -0.1280
  716TIP3    H223708   4.625   5.731   1.071  3.1752 -0.5390  1.2776
  717TIP3   OH223709   4.554   5.497   8.468 -0.9907  0.4620  0.3108
  717TIP3    H123710   4.632   5.541   8.434 -0.3961  1.3416  2.6093
  717TIP3    H223711   4.544   5.420   8.413  1.6977  0.1521  0.1128
  718TIP3   OH223712   4.276   4.433   8.387 -0.0551 -0.1051 -0.1982
  718TIP3    H123713   4.310   4.350   8.420  0.7469 -0.2176 -1.2326
  718TIP3    H223714   4.182   4.419   8.376 -0.4606  0.1051  2.4398
  719TIP3   OH223715   5.631   3.225   8.089 -0.2342  0.4277  0.6043
  719TIP3    H123716   5.578   3.168   8.146 -0.9928  1.4283  0.9248
  719TIP3    H223717   5.637   3.177   8.007  1.7063 -1.5234  1.7601
  720TIP3   OH223718   1.965   3.727   2.544  0.3158  0.4912 -0.1031
  720TIP3    H123719   1.969   3.776   2.627 -1.0938  1.1411 -0.3982
  720TIP3    H223720   2.057   3.711   2.522  0.7311  0.7002  1.3550
  721TIP3   OH223721   0.655   0.862   0.155  0.0436 -0.5232  0.4447
  721TIP3    H123722   0.595   0.935   0.142  0.9706  0.4274  1.2363
  721TIP3    H223723   0.616   0.789   0.107 -1.0136  0.4338 -0.1991
  722TIP3   OH223724   5.125   0.561   2.320 -0.1461 -0.2641 -0.3414
  722TIP3    H123725   5.066   0.502   2.272  0.7262 -0.3210 -1.3748
  722TIP3    H223726   5.198   0.575   2.261  0.2442  0.8988  0.3878
  723TIP3   OH223727   6.250   5.844   8.238  0.0793  0.1795 -0.0726
  723TIP3    H123728   6.230   5.907   8.307 -1.2575  0.0790 -0.3343
  723TIP3    H223729   6.292   5.896   8.169  0.6517  0.4352  0.4701
  724TIP3   OH223730   4.923   1.301   1.820 -0.2688 -0.5094 -0.4503
  724TIP3    H123731   4.938   1.249   1.741  0.5593 -0.0013 -0.6449
  724TIP3    H223732   4.995   1.277   1.879  1.2142  1.6767 -1.2294
  725TIP3   OH223733   1.484   0.976   0.378  0.8295  0.3008 -0.1318
  725TIP3    H123734   1.404   0.971   0.326 -0.0712  1.2887  1.0923
  725TIP3    H223735   1.512   0.885   0.390  1.5468  0.0665 -2.9805
  726TIP3   OH223736   6.410   2.293   7.632  0.4235  0.2390  0.0194
  726TIP3    H123737   6.500   2.279   7.603  0.3120 -0.9092  0.1731
  726TIP3    H223738   6.371   2.206   7.631 -0.2092  0.4759  1.5356
  727TIP3   OH223739   2.309   3.661   0.438  0.1664  0.0372 -0.3621
  727TIP3    H123740   2.296   3.657   0.533 -0.4485  0.0804 -0.4432
  727TIP3    H223741   2.242   3.720   0.406 -1.2969 -1.9012 -1.1061
  728TIP3   OH223742   0.235   3.741   2.336  0.3347  0.5259  0.0208
  728TIP3    H123743   0.307   3.752   2.273  2.2692 -0.6803  1.8872
  728TIP3    H223744   0.247   3.814   2.397  0.4516 -0.1221  0.7761
  729TIP3   OH223745   1.263   4.032   2.041  0.0613 -0.3275  0.4313
  729TIP3    H123746   1.216   4.076   2.113 -0.2930  0.1114 -0.0620
  729TIP3    H223747   1.330   4.095   2.014 -0.0379 -0.3455  0.1398
  730TIP3   OH223748   5.228   6.022   1.586  0.0359 -0.6497  0.4086
  730TIP3    H123749   5.153   6.046   1.640 -0.0829  2.7492 -1.0384
  730TIP3    H223750   5.190   5.988   1.505 -0.2184  3.0583 -1.2088
  731TIP3   OH223751   3.301   2.170   0.939 -0.0761  0.1000 -0.2556
  731TIP3    H123752   3.347   2.101   0.891  0.8077 -0.6543  1.5758
  731TIP3    H223753   3.330   2.252   0.898  0.1875 -0.5359 -1.3662
  732TIP3   OH223754   5.715   4.750   1.464  0.0032  0.7203  0.1999
  732TIP3    H123755   5.784   4.807   1.432  0.2912  0.1851 -0.1507
  732TIP3    H223756   5.633   4.793   1.437  0.2270  0.6781 -0.5743
  733TIP3   OH223757   3.996   1.113   2.866  0.0713  0.2265 -0.8116
  733TIP3    H123758   3.920   1.147   2.912  1.6480  2.0571  0.6186
  733TIP3    H223759   4.006   1.023   2.899 -0.3142  0.6527  0.5508
  734TIP3   OH223760   4.254   6.109   1.405 -0.1686  0.0883 -0.1560
  734TIP3    H123761   4.242   6.115   1.499 -0.5968  0.4142 -0.2296
  734TIP3    H223762   4.325   6.045   1.394 -0.7373 -0.6420  0.3490
  735TIP3   OH223763   6.243   5.278   2.077 -0.3455  0.7353 -0.1688
  735TIP3    H123764   6.275   5.316   2.159  0.4174  0.4289 -0.3097
  735TIP3    H223765   6.184   5.343   2.041 -2.9792 -0.2690  2.0103
  736TIP3   OH223766   5.359   4.900   8.162  0.3328  0.2298  0.6507
  736TIP3    H123767   5.263   4.906   8.158  0.4028  0.8356 -0.5122
  736TIP3    H223768   5.378   4.809   8.137  0.1033  0.4778 -0.4935
  737TIP3   OH223769   6.011   1.593   8.250  0.2174 -0.6569  0.0036
  737TIP3    H123770   6.055   1.656   8.308 -0.1164 -0.5577  0.1536
  737TIP3    H223771   5.978   1.526   8.310  1.3988 -1.4889 -0.2434
  738TIP3   OH223772   0.095   0.021   0.462 -0.1177 -0.9999  0.4567
  738TIP3    H123773   0.156  -0.032   0.513  1.9322  0.4441 -0.3482
  738TIP3    H223774   0.093   0.105   0.507 -0.6102 -0.6428 -0.2125
  739TIP3   OH223775   0.358   1.069   0.324 -0.4997  0.5682 -0.5329
  739TIP3    H123776   0.358   1.154   0.368 -0.0320  0.1798  0.2339
  739TIP3    H223777   0.306   1.013   0.381 -1.3587  0.4893 -1.3626
  740TIP3   OH223778   3.761   0.287   1.231 -0.5090 -0.1270  0.1974
  740TIP3    H123779   3.698   0.227   1.271  0.8911 -1.3558  0.6627
  740TIP3    H223780   3.718   0.372   1.232 -2.7826 -1.1918 -0.9883
  741TIP3   OH223781   2.015   3.076   1.658  0.0242 -0.3603  0.2364
  741TIP3    H123782   1.964   3.066   1.578  1.5950 -2.1637 -0.6022
  741TIP3    H223783   2.089   3.016   1.648  0.5272 -0.3132  2.8391
  742TIP3   OH223784   5.494   1.619   7.945 -0.3311 -0.7127  0.1091
  742TIP3    H123785   5.476   1.552   7.878 -2.7648  0.1243 -0.2044
  742TIP3    H223786   5.562   1.674   7.906 -0.2721 -1.4165 -0.8235
  743TIP3   OH223787   4.121   2.773   1.526  0.3228  0.2942  0.0593
  743TIP3    H123788   4.117   2.862   1.490 -1.0244 -0.5120 -1.9007
  743TIP3    H223789   4.082   2.781   1.614  0.3946  1.6643 -0.0154
  744TIP3   OH223790   3.878   5.542   0.398  0.8893 -0.5986 -0.2709
  744TIP3    H123791   3.965   5.569   0.427  0.2990 -0.4485  1.5083
  744TIP3    H223792   3.887   5.449   0.379  1.3767 -0.6505  0.1965
  745TIP3   OH223793   5.985   0.046   1.789  0.0044 -0.3185 -0.0757
  745TIP3    H123794   5.981   0.044   1.693  1.2413  1.1314 -0.2059
  745TIP3    H223795   6.024  -0.038   1.813  2.0531  0.2828 -1.0560
  746TIP3   OH223796   5.377   4.403   7.631  0.1738 -0.1602 -0.3008
  746TIP3    H123797   5.440   4.412   7.702  0.1459  0.1709 -0.3150
  746TIP3    H223798   5.355   4.493   7.607  0.1036 -0.2702 -0.6587
  747TIP3   OH223799   2.725   6.351   2.425 -0.4847 -0.3897 -0.0470
  747TIP3    H123800   2.712   6.284   2.358  0.7151 -0.1956 -0.4865
  747TIP3    H223801   2.721   6.303   2.508 -1.1642 -0.7498 -0.2753
  748TIP3   OH223802   6.047   4.730   1.147 -0.4773 -0.0406  0.8302
  748TIP3    H123803   6.086   4.817   1.147 -3.0175  1.1701  1.0459
  748TIP3    H223804   6.092   4.684   1.076  0.0156  1.8614 -0.1551
  749TIP3   OH223805   3.799   3.953   8.617 -0.0623 -0.2354 -0.2909
  749TIP3    H123806   3.717   3.951   8.666  1.5681 -0.8613  2.6634
  749TIP3    H223807   3.782   3.898   8.541 -2.2095 -0.8176  0.5224
  750TIP3   OH223808   4.973   6.056   8.668 -0.1796  0.3512  0.3351
  750TIP3    H123809   5.066   6.043   8.649 -0.1650  1.4944 -0.4828
  750TIP3    H223810   4.946   6.125   8.607 -0.0195  4.7125  4.5861
  751TIP3   OH223811   4.450   4.138   1.230  0.2394  0.2494  0.3216
  751TIP3    H123812   4.437   4.047   1.204  0.2080 -0.3332  2.2104
  751TIP3    H223813   4.453   4.187   1.148  0.3883 -1.4669 -0.7318
  752TIP3   OH223814   0.273   3.397   2.201  0.7823 -0.3137  0.2408
  752TIP3    H123815   0.355   3.414   2.246  0.1257  1.0287  0.9735
  752TIP3    H223816   0.216   3.360   2.268  0.8967 -1.6590 -0.3706
  753TIP3   OH223817   3.724   2.994   3.132 -0.6363  0.1391 -0.2705
  753TIP3    H123818   3.667   2.981   3.057  0.4749  0.2914 -1.1635
  753TIP3    H223819   3.715   3.086   3.154 -0.0635  0.3705 -0.9790
  754TIP3   OH223820   0.099   1.448   0.737  0.1653 -0.2087  0.0131
  754TIP3    H123821   0.028   1.423   0.678 -0.8063  0.7855  0.7191
  754TIP3    H223822   0.176   1.458   0.680 -0.4968 -0.3243 -0.9126
  755TIP3   OH223823   2.259   5.859   0.805 -0.1012  0.5489  0.3699
  755TIP3    H123824   2.295   5.771   0.810 -0.8285  0.3119  3.5126
  755TIP3    H223825   2.261   5.891   0.896 -1.6576  3.0235 -0.3688
  756TIP3   OH223826   2.970   1.422   3.022 -0.5384  0.2823 -0.1446
  756TIP3    H123827   2.922   1.501   3.044 -1.7476 -0.0972 -1.2724
  756TIP3    H223828   2.902   1.359   2.995  0.3565 -1.2357  0.9961
  757TIP3   OH223829   2.484   2.583   8.173  0.0970  0.1425 -0.5015
  757TIP3    H123830   2.551   2.580   8.240 -0.9721 -2.3547  0.5960
  757TIP3    H223831   2.476   2.492   8.143 -2.7333  0.3118 -0.5747
  758TIP3   OH223832   4.466   2.823   0.353  0.3040 -0.2417 -0.0037
  758TIP3    H123833   4.469   2.909   0.395 -1.8794  0.2124 -0.6683
  758TIP3    H223834   4.457   2.761   0.426 -2.2117  0.4410  0.3378
  759TIP3   OH223835   3.910   0.125   0.129 -0.3736  0.4589  0.5297
  759TIP3    H123836   3.844   0.170   0.077 -0.8572 -0.7257  0.1029
  759TIP3    H223837   3.862   0.088   0.203  0.2885  2.0421  1.8273
  760TIP3   OH223838   6.055   2.222   7.532  0.2598 -0.1850  0.3616
  760TIP3    H123839   5.975   2.248   7.578 -0.8639 -1.1886 -0.9318
  760TIP3    H223840   6.062   2.128   7.547 -0.3586 -0.6238 -1.7428
  761TIP3   OH223841   0.334   5.191   7.358 -0.1191  0.4565 -0.5283
  761TIP3    H123842   0.388   5.265   7.332 -0.6660  0.6609 -1.1176
  761TIP3    H223843   0.259   5.193   7.298 -0.5832 -0.0529  0.0091
  762TIP3   OH223844   2.721   2.926   1.010  0.0604 -0.5073  0.0122
  762TIP3    H123845   2.800   2.882   0.980 -0.8993 -0.9087 -2.0874
  762TIP3    H223846   2.655   2.857   1.012 -1.8954  0.8318 -4.8774
  763TIP3   OH223847   2.879   2.086   8.352 -0.3290  0.6166  0.7518
  763TIP3    H123848   2.962   2.071   8.307 -0.6734 -0.9687  0.6118
  763TIP3    H223849   2.834   2.151   8.299 -0.5950 -0.9780 -1.0512
  764TIP3   OH223850   5.887   2.175   8.690  0.1310 -0.1358  0.2336
  764TIP3    H123851   5.846   2.238   8.749 -1.5783 -2.0083  1.1907
  764TIP3    H223852   5.837   2.184   8.608 -0.4865 -0.6009  0.5501
  765TIP3   OH223853   3.693   0.733   1.374 -0.1967  0.6095 -0.2805
  765TIP3    H123854   3.724   0.699   1.457  1.1791 -1.4002 -1.5253
  765TIP3    H223855   3.769   0.775   1.334 -0.9208  1.8536 -0.4323
  766TIP3   OH223856   0.938   3.477   0.088  0.1631  0.1503 -0.3243
  766TIP3    H123857   1.032   3.490   0.074  0.3286  1.6259  1.6781
  766TIP3    H223858   0.906   3.561   0.120 -1.4582 -0.8232  0.8031
  767TIP3   OH223859   3.371   0.234   8.505 -0.2572 -0.5071  0.0692
  767TIP3    H123860   3.277   0.219   8.495 -0.1695 -2.0404  1.2534
  767TIP3    H223861   3.389   0.310   8.450 -2.2322 -0.0294  0.0238
  768TIP3   OH223862   4.593   1.692   0.156 -0.3688 -0.5447  0.4211
  768TIP3    H123863   4.622   1.758   0.220 -0.1883  0.8668 -1.0487
  768TIP3    H223864   4.674   1.665   0.112 -0.7012 -0.0679 -0.5026
  769TIP3   OH223865   3.024   4.619   8.692  0.0226  0.0850  0.7528
  769TIP3    H123866   2.975   4.600   8.772 -1.3893  0.1040 -0.0854
  769TIP3    H223867   3.024   4.536   8.645  0.2329  0.2648  0.4356
  770TIP3   OH223868   0.577   4.991   7.875  0.6608  0.1551 -0.0032
  770TIP3    H123869   0.567   4.896   7.873  1.5140  0.0696 -0.6257
  770TIP3    H223870   0.499   5.025   7.831 -0.9509 -0.1192  2.4276
  771TIP3   OH223871   6.464   6.484   0.650 -0.3031  0.3632  0.1092
  771TIP3    H123872   6.490   6.538   0.725 -0.8661 -0.1726  0.6933
  771TIP3    H223873   6.547   6.461   0.608  0.0095  0.7782  0.4877
  772TIP3   OH223874   3.471   0.824   3.375  0.4244  0.6507 -0.0849
  772TIP3    H123875   3.417   0.894   3.412 -0.6034  0.3414 -0.9432
  772TIP3    H223876   3.431   0.743   3.407  0.8201  0.4358 -0.1318
  773TIP3   OH223877   0.283   6.742   0.573  0.1497 -0.7339  0.3752
  773TIP3    H123878   0.371   6.764   0.601  0.3676 -0.7059 -0.3162
  773TIP3    H223879   0.266   6.656   0.612  0.9626 -1.3152 -0.5172
  774TIP3   OH223880   0.022   2.724   8.637 -1.1009  0.0994 -0.0504
  774TIP3    H123881  -0.014   2.664   8.573 -0.8442  1.1785 -1.2528
  774TIP3    H223882  -0.030   2.804   8.628 -1.0134  0.3085  1.0424
  775TIP3   OH223883   4.347   1.767   1.267  0.0695 -0.1007  0.0990
  775TIP3    H123884   4.350   1.743   1.174  1.4249 -0.5736  0.2523
  775TIP3    H223885   4.327   1.861   1.266 -1.0904 -0.3247 -0.6213
  776TIP3   OH223886   4.511   3.659   8.453  0.5482 -0.0094  0.6417
  776TIP3    H123887   4.444   3.660   8.383  1.0912  0.3697  0.1157
  776TIP3    H223888   4.494   3.739   8.502  2.2017  1.5063 -1.0679
  777TIP3   OH223889   4.448   5.752   0.190  0.4131 -0.2181  0.8184
  777TIP3    H123890   4.453   5.787   0.279 -0.3032  0.3260  0.6513
  777TIP3    H223891   4.512   5.803   0.140 -1.3997  1.7050  0.3178
  778TIP3   OH223892   5.271   6.633   7.832  0.2734 -0.0151 -0.2327
  778TIP3    H123893   5.311   6.563   7.883 -0.1054 -1.0153 -1.2764
  778TIP3    H223894   5.179   6.631   7.859  0.2981  0.2161 -0.1278
  779TIP3   OH223895   4.814   1.024   1.474 -0.1675  0.4200  0.0634
  779TIP3    H123896   4.856   1.093   1.525 -1.6993 -0.1496  2.2873
  779TIP3    H223897   4.868   0.946   1.490  0.4668  0.6640 -0.8460
  780TIP3   OH223898   3.592   2.212   0.480  0.1083  0.0633 -0.5935
  780TIP3    H123899   3.590   2.303   0.509  0.6754 -0.2052  0.3395
  780TIP3    H223900   3.683   2.196   0.455  0.2638 -0.5378  0.2865
  781TIP3   OH223901   1.731   2.598   0.757 -0.2430 -0.3551 -0.3059
  781TIP3    H123902   1.813   2.573   0.714 -0.9057 -0.2578 -1.6845
  781TIP3    H223903   1.757   2.625   0.845  0.9856 -1.9150 -0.1537
  782TIP3   OH223904   0.925   4.932   7.187  0.1740 -0.2425 -0.4783
  782TIP3    H123905   0.929   4.843   7.150  1.9054 -0.1382 -0.6286
  782TIP3    H223906   0.865   4.979   7.130 -1.3340 -1.4785  0.0148
  783TIP3   OH223907   3.425   1.793   1.070  0.2263  0.0789  0.4181
  783TIP3    H123908   3.446   1.874   1.024  0.3427 -0.0911  0.1757
  783TIP3    H223909   3.436   1.815   1.163  2.0588 -0.1762  0.2872
  784TIP3   OH223910   2.346   4.797   7.190 -0.4056 -0.3585 -0.4711
  784TIP3    H123911   2.346   4.808   7.095 -1.1239 -0.2190 -0.4593
  784TIP3    H223912   2.358   4.703   7.203 -0.2148 -0.3655 -0.6963
  785TIP3   OH223913   3.832   5.702   8.354  0.4715 -0.2135 -0.2157
  785TIP3    H123914   3.821   5.635   8.421 -1.5678 -0.5922 -0.8496
  785TIP3    H223915   3.857   5.653   8.275 -0.6458 -0.2097 -0.5864
  786TIP3   OH223916   6.440   3.851   8.252 -0.4270  0.0265  0.2971
  786TIP3    H123917   6.465   3.759   8.248 -2.1759 -0.5604  1.7235
  786TIP3    H223918   6.488   3.892   8.179 -1.3103 -2.4000 -1.8086
  787TIP3   OH223919   5.701   3.171   2.748  0.1808 -0.1133 -0.3147
  787TIP3    H123920   5.686   3.092   2.800 -0.1045 -0.5384 -1.0204
  787TIP3    H223921   5.638   3.164   2.676  0.0827  0.8149 -0.3278
  788TIP3   OH223922   1.679   1.181   8.165  0.2724  0.1021  0.3658
  788TIP3    H123923   1.698   1.087   8.161 -0.7999 -0.1111  0.0059
  788TIP3    H223924   1.654   1.197   8.257 -0.6530 -0.1976  0.1733
  789TIP3   OH223925   3.632   0.352   8.016 -0.8326 -0.5203 -0.4595
  789TIP3    H123926   3.723   0.339   8.040 -1.2936 -0.1959  1.6803
  789TIP3    H223927   3.634   0.373   7.923  1.4400  1.2017 -0.1120
  790TIP3   OH223928   2.874   6.842   1.779  1.0598  0.2344  0.2771
  790TIP3    H123929   2.907   6.886   1.857  1.6922  1.4238 -0.6126
  790TIP3    H223930   2.779   6.848   1.786  1.1107  0.3353  0.9420
  791TIP3   OH223931   2.519   4.622   1.721 -0.4291  0.0821 -0.0112
  791TIP3    H123932   2.469   4.639   1.802  1.5322 -0.6566  1.4291
  791TIP3    H223933   2.486   4.687   1.659 -1.9858  0.6996  1.3718
  792TIP3   OH223934   0.033   3.300   7.826  0.1646  0.0536 -0.5901
  792TIP3    H123935  -0.029   3.370   7.847 -0.6986 -0.4491 -1.3240
  792TIP3    H223936   0.031   3.242   7.902 -0.9823 -0.4197 -0.9428
  793TIP3   OH223937   2.852   3.089   7.736 -0.1527  0.1049 -0.1029
  793TIP3    H123938   2.910   3.022   7.700 -0.3427 -0.0387 -0.1435
  793TIP3    H223939   2.851   3.158   7.669  0.0307  0.1420 -0.0675
  794TIP3   OH223940   1.577   0.015   0.153 -0.1365  0.3297 -0.3095
  794TIP3    H123941   1.576   0.030   0.059  1.8104  0.3566 -0.3600
  794TIP3    H223942   1.662   0.047   0.182 -1.2795  1.7404  1.7326
  795TIP3   OH223943   1.694   2.897   0.730 -0.2319  0.3635 -0.0133
  795TIP3    H123944   1.754   2.822   0.738 -2.0123 -1.0935  0.4518
  795TIP3    H223945   1.693   2.917   0.637  1.0462  0.4952 -0.0122
  796TIP3   OH223946   6.778   5.489   1.969  0.1835 -0.0714 -0.0057
  796TIP3    H123947   6.753   5.422   1.905 -1.3767  1.2685 -0.8755
  796TIP3    H223948   6.714   5.481   2.039  0.1470  0.2992  0.0093
  797TIP3   OH223949   3.139   4.333   0.226 -0.5744 -0.0831  0.1613
  797TIP3    H123950   3.117   4.374   0.143  1.6176  0.3809 -0.2483
  797TIP3    H223951   3.174   4.247   0.202  1.4627  0.6144  0.4041
  798TIP3   OH223952   3.955   3.641   0.958  0.1478 -0.3492 -0.6644
  798TIP3    H123953   4.011   3.593   0.898  0.9007  0.2092 -0.4226
  798TIP3    H223954   4.015   3.697   1.008 -0.2649 -1.7615  1.5579
  799TIP3   OH223955   3.246   5.575   7.879  0.6152 -0.7352  0.0520
  799TIP3    H123956   3.265   5.540   7.792 -0.5489 -1.0907 -0.0739
  799TIP3    H223957   3.167   5.529   7.907 -0.1515  0.7663  0.4771
  800TIP3   OH223958   1.088   3.060   8.600  0.1766  0.1956 -0.1444
  800TIP3    H123959   1.001   3.026   8.619 -0.2054  0.7490 -0.8887
  800TIP3    H223960   1.074   3.151   8.574  0.9495  0.2200 -0.5027
  801TIP3   OH223961   4.199   3.568   2.045 -0.4899 -0.0219  0.1122
  801TIP3    H123962   4.217   3.483   2.084  0.7498  0.1225 -0.0961
  801TIP3    H223963   4.123   3.601   2.094  0.4565 -0.2290  1.8158
  802TIP3   OH223964   4.473   6.258   1.240 -0.0189  0.1722  0.8282
  802TIP3    H123965   4.379   6.252   1.261 -0.1094  1.3360  0.8108
  802TIP3    H223966   4.514   6.282   1.323  0.3079 -0.5979  0.8974
  803TIP3   OH223967   3.975   4.357   2.495 -0.0190  0.2907 -0.1894
  803TIP3    H123968   3.913   4.350   2.423  0.8404  0.0601 -0.9099
  803TIP3    H223969   3.978   4.269   2.534 -2.0154  0.8578  1.4597
  804TIP3   OH223970   6.095   3.726   8.272  0.1204  0.1410 -0.3345
  804TIP3    H123971   6.044   3.733   8.192 -0.4497 -1.8053 -0.2037
  804TIP3    H223972   6.177   3.686   8.245  1.5120  2.8682 -0.4731
  805TIP3   OH223973   3.708   4.311   3.536  0.1732 -0.7793 -0.0864
  805TIP3    H123974   3.676   4.383   3.482  2.3084  0.2102 -0.1073
  805TIP3    H223975   3.635   4.290   3.594  0.1280  2.8354  1.4165
  806TIP3   OH223976   4.185   4.891   1.684  0.0084 -0.6021 -0.3056
  806TIP3    H123977   4.208   4.824   1.749  0.4159 -0.0287  0.1590
  806TIP3    H223978   4.269   4.923   1.652 -0.1718 -0.0874 -0.2768
  807TIP3   OH223979   5.387   2.240   0.135 -0.0898  0.4679  0.1046
  807TIP3    H123980   5.449   2.246   0.207  1.5945 -0.3206 -1.2053
  807TIP3    H223981   5.305   2.214   0.175  0.4499  1.3371  1.8746
  808TIP3   OH223982   2.861   0.899   8.184  0.1273 -0.2063 -0.1606
  808TIP3    H123983   2.885   0.992   8.189 -0.3235 -0.1281  0.7913
  808TIP3    H223984   2.930   0.859   8.131 -1.4705  1.2594 -3.7197
  809TIP3   OH223985   1.382   1.517   8.522  0.1138 -0.0520 -0.4635
  809TIP3    H123986   1.433   1.440   8.548  1.1011  0.9595  0.7920
  809TIP3    H223987   1.346   1.495   8.437 -0.7199 -2.3989  0.4129
  810TIP3   OH223988   0.500   5.417   7.325 -0.1461  0.4290 -0.1211
  810TIP3    H123989   0.497   5.508   7.355  0.0605  0.8300 -1.2654
  810TIP3    H223990   0.576   5.413   7.267 -0.2693 -0.4305 -0.2379
  811TIP3   OH223991   3.114   3.393   1.853  0.1898  0.4571  0.0467
  811TIP3    H123992   3.084   3.470   1.804  0.3177  0.9190  0.6825
  811TIP3    H223993   3.193   3.365   1.807 -1.5933 -1.2897 -2.1719
  812TIP3   OH223994   0.043   2.166   2.403 -0.0790 -0.4556  0.5272
  812TIP3    H123995   0.055   2.071   2.409 -0.3471 -0.4471  1.3034
  812TIP3    H223996  -0.029   2.184   2.463 -0.4282  0.1659 -0.0669
  813TIP3   OH223997   3.559   5.059   7.558 -0.2316  0.2254 -0.8025
  813TIP3    H123998   3.610   5.129   7.598  1.4364 -1.1026 -0.4853
  813TIP3    H223999   3.523   5.010   7.631  1.3222 -1.1336 -0.8925
  814TIP3   OH224000   1.127   2.443   1.761  0.0217  0.4442 -0.6466
  814TIP3    H124001   1.165   2.399   1.686  0.3984  0.0706 -0.2362
  814TIP3    H224002   1.199   2.455   1.822  0.2638  2.8332 -1.2778
  815TIP3   OH224003   6.280   1.502   1.537  0.6572  0.3189 -0.1757
  815TIP3    H124004   6.184   1.496   1.539  0.6563 -3.2202 -2.0802
  815TIP3    H224005   6.300   1.547   1.455  0.5894 -0.0051 -0.3738
  816TIP3   OH224006   5.537   6.415   1.377 -0.0235  0.3281 -0.1742
  816TIP3    H124007   5.592   6.338   1.386  2.3235  1.8902 -0.0791
  816TIP3    H224008   5.502   6.431   1.464  0.0355 -0.2225 -0.0482
  817TIP3   OH224009   2.251   1.362   1.921  0.3314  0.0549  0.5285
  817TIP3    H124010   2.287   1.409   1.846  2.8329 -1.8808  0.3638
  817TIP3    H224011   2.170   1.323   1.888  0.6360  0.4244 -0.7151
  818TIP3   OH224012   1.452   3.136   2.740 -0.5801  0.0214 -0.3221
  818TIP3    H124013   1.519   3.144   2.672 -0.7487  1.0705 -0.3747
  818TIP3    H224014   1.436   3.042   2.747 -0.6830 -0.0980 -1.8616
  819TIP3   OH224015   5.857   3.319   2.080 -0.3890 -0.4642 -0.5035
  819TIP3    H124016   5.850   3.415   2.074 -0.4624 -0.2711  1.7767
  819TIP3    H224017   5.898   3.293   1.997  1.3486  1.7404 -0.4467
  820TIP3   OH224018   5.474   5.568   1.991 -0.2722  1.6806  0.7122
  820TIP3    H124019   5.395   5.579   1.939 -1.2599 -0.2580  1.7186
  820TIP3    H224020   5.449   5.596   2.079 -0.2200  0.0011  1.2929
  821TIP3   OH224021   4.901   5.524   2.736 -0.7060 -0.2796 -0.0263
  821TIP3    H124022   4.963   5.572   2.681 -2.4179  0.9076 -1.0281
  821TIP3    H224023   4.927   5.545   2.826  0.6623 -0.2935 -0.3904
  822TIP3   OH224024   4.885   1.748   8.311  0.6878  0.4341 -0.2994
  822TIP3    H124025   4.914   1.747   8.402  1.1055  0.1394 -0.4319
  822TIP3    H224026   4.964   1.728   8.261 -0.0074 -1.6769 -0.6191
  823TIP3   OH224027   3.679   1.091   8.294 -0.0448 -0.1669  0.1414
  823TIP3    H124028   3.692   1.083   8.389 -0.5599 -1.7624  0.1094
  823TIP3    H224029   3.592   1.054   8.278  0.2700 -0.4596 -1.0158
  824TIP3   OH224030   5.496   0.938   8.139 -0.2135  0.4287  0.3736
  824TIP3    H124031   5.501   0.996   8.215 -0.2368  0.1686  0.5773
  824TIP3    H224032   5.403   0.927   8.123 -0.2479 -0.5753  1.1391
  825TIP3   OH224033   5.924   3.605   0.055 -0.5507 -0.4069 -0.5294
  825TIP3    H124034   5.858   3.553   0.010 -0.4513  0.7344 -2.0623
  825TIP3    H224035   5.878   3.682   0.085 -0.0442  0.1676 -1.1865
  826TIP3   OH224036   1.925   5.112   0.994  0.2750  0.1328  0.5506
  826TIP3    H124037   1.870   5.125   0.917  0.0351 -1.3758  0.4368
  826TIP3    H224038   1.954   5.021   0.988  1.4542  0.4223  1.4765
  827TIP3   OH224039   3.903   2.505   0.457 -0.2684 -0.0982  0.0035
  827TIP3    H124040   3.935   2.545   0.376  0.1554  0.9871  0.6912
  827TIP3    H224041   3.967   2.437   0.477 -1.5798 -1.9679 -1.7668
  828TIP3   OH224042   1.770   1.558   8.222 -0.6849  0.2278  1.2166
  828TIP3    H124043   1.827   1.634   8.224  0.6819 -0.7703  1.8456
  828TIP3    H224044   1.712   1.569   8.297 -0.9967  1.0075  0.8643
  829TIP3   OH224045   6.508   0.406   1.535 -0.3133 -0.4941 -0.3999
  829TIP3    H124046   6.532   0.403   1.628 -0.9535  1.3044 -0.1459
  829TIP3    H224047   6.420   0.368   1.532 -0.9652  0.9261  0.0049
  830TIP3   OH224048   6.577   6.626   0.873 -0.1309  0.4947  0.3915
  830TIP3    H124049   6.612   6.715   0.862 -0.1138  0.6976  1.8193
  830TIP3    H224050   6.646   6.579   0.920 -0.6143  0.0705  0.6867
  831TIP3   OH224051   4.214   0.921   1.553 -0.1400  0.2955  0.1358
  831TIP3    H124052   4.285   0.921   1.617  1.2416 -1.8202 -1.2350
  831TIP3    H224053   4.259   0.928   1.469 -1.6899  0.3471 -0.7076
  832TIP3   OH224054   0.285   6.671   0.297  0.2037 -0.3737  0.3702
  832TIP3    H124055   0.296   6.685   0.391  1.2610 -0.1761  0.2261
  832TIP3    H224056   0.191   6.678   0.283 -0.0868 -1.3271  1.5645
  833TIP3   OH224057   6.558   3.969   1.125  0.5266 -0.1332  0.1039
  833TIP3    H124058   6.617   3.900   1.155  0.3638 -0.4774 -0.3557
  833TIP3    H224059   6.590   3.991   1.037  0.6120  0.4149  0.2703
  834TIP3   OH224060   1.666   0.800   7.550  0.0815  0.6628 -0.0839
  834TIP3    H124061   1.759   0.811   7.531 -0.3666  0.9175 -2.4632
  834TIP3    H224062   1.622   0.816   7.467 -2.0202 -0.6432  0.6719
  835TIP3   OH224063   3.353   6.592   7.066  0.7056 -0.2095 -0.6904
  835TIP3    H124064   3.445   6.606   7.045  0.4797  0.0733 -1.5572
  835TIP3    H224065   3.339   6.499   7.050  0.6208 -0.0650 -1.5077
  836TIP3   OH224066   6.097   3.481   2.531 -0.1064  0.0622 -0.5442
  836TIP3    H124067   6.074   3.531   2.452  1.8093  0.1327 -1.1217
  836TIP3    H224068   6.036   3.408   2.532 -0.5839  0.4126 -1.7544
  837TIP3   OH224069   0.735   0.081   8.044 -0.2484  0.5647 -0.0335
  837TIP3    H124070   0.703   0.095   7.954  1.0044  1.0024 -0.4352
  837TIP3    H224071   0.715  -0.011   8.062 -2.6314  1.0634  0.1459
  838TIP3   OH224072   2.332   2.428   2.532 -0.6312 -0.3909 -0.5070
  838TIP3    H124073   2.344   2.384   2.448 -1.5782  0.8801 -1.3504
  838TIP3    H224074   2.263   2.493   2.515 -0.3166  0.3971  1.0652
  839TIP3   OH224075   5.266   4.142   2.054  0.3311  0.5275  0.1897
  839TIP3    H124076   5.195   4.137   1.990  0.9594 -0.2201 -0.4765
  839TIP3    H224077   5.300   4.231   2.046  1.7618 -0.1517 -2.0571
  840TIP3   OH224078   3.059   3.995   3.232 -0.7516 -0.1010 -0.3415
  840TIP3    H124079   3.114   3.982   3.155  0.0997  1.5370 -0.0589
  840TIP3    H224080   2.998   4.065   3.206 -0.7001  0.2013  0.3261
  841TIP3   OH224081   2.246   1.848   1.935 -0.0381  0.2896  0.0048
  841TIP3    H124082   2.171   1.791   1.948  0.9239 -0.9230  0.3870
  841TIP3    H224083   2.321   1.798   1.967  0.9268  1.5112 -0.2507
  842TIP3   OH224084   4.883   5.096   7.907  0.0076  0.1289 -0.0678
  842TIP3    H124085   4.858   5.064   7.994 -0.6758 -0.7030 -0.5617
  842TIP3    H224086   4.805   5.082   7.853  0.7447 -0.2734 -1.0573
  843TIP3   OH224087   5.401   5.169   3.007 -0.0375  0.5992 -0.0530
  843TIP3    H124088   5.442   5.240   2.958 -1.8681  2.1699  0.5620
  843TIP3    H224089   5.319   5.206   3.039 -0.8603 -1.6738  0.6852
  844TIP3   OH224090   5.596   6.602   7.910 -0.2743 -0.0430  0.9418
  844TIP3    H124091   5.528   6.554   7.957  0.1970 -1.7929 -0.0657
  844TIP3    H224092   5.639   6.536   7.857  2.1825  1.0308  1.4799
  845TIP3   OH224093   2.584   1.157   3.142  0.2507  0.0160  0.5134
  845TIP3    H124094   2.618   1.104   3.214 -1.4312 -0.7814  0.7665
  845TIP3    H224095   2.550   1.236   3.184 -1.0576 -0.6054  0.7013
  846TIP3   OH224096   1.540   3.503   7.975 -0.2366 -0.7206  0.0289
  846TIP3    H124097   1.566   3.461   7.892 -0.7266 -1.8501  0.4284
  846TIP3    H224098   1.445   3.508   7.970 -0.2291 -0.2651  0.2902
  847TIP3   OH224099   1.814   5.591   3.100  0.3733  0.4672  0.6480
  847TIP3    H124100   1.824   5.535   3.176 -0.8219 -0.8580 -0.1259
  847TIP3    H224101   1.885   5.565   3.041  0.1379  0.1126  0.5143
  848TIP3   OH224102   6.668   5.797   8.293  0.4283  0.0056  0.4581
  848TIP3    H124103   6.652   5.891   8.286  0.7599 -0.0156 -1.2136
  848TIP3    H224104   6.582   5.759   8.311 -0.1142  0.4943 -0.9271
  849TIP3   OH224105   0.867   3.308   0.281 -0.5088 -0.5836  0.2155
  849TIP3    H124106   0.853   3.214   0.270  1.3381 -0.8776  0.0639
  849TIP3    H224107   0.883   3.340   0.192  0.7939 -0.5040  0.4567
  850TIP3   OH224108   4.263   2.195   2.746 -0.6029  0.2672  0.4371
  850TIP3    H124109   4.218   2.272   2.782 -1.4193 -0.3639  0.7874
  850TIP3    H224110   4.327   2.232   2.684 -2.0764  1.1722 -0.6206
  851TIP3   OH224111   5.480   4.704   3.197  0.7647 -0.2816  0.1780
  851TIP3    H124112   5.527   4.694   3.280  1.7388 -0.5541 -0.3974
  851TIP3    H224113   5.425   4.626   3.191 -0.2870  0.3495  1.1618
  852TIP3   OH224114   4.549   6.068   1.713  0.1629 -0.0741 -0.1485
  852TIP3    H124115   4.510   6.116   1.640  0.4602 -0.4247 -0.5456
  852TIP3    H224116   4.627   6.027   1.676 -0.1425 -0.9495  0.1489
  853TIP3   OH224117   5.785   3.575   0.356 -0.6211 -0.3722  0.2316
  853TIP3    H124118   5.773   3.616   0.442 -1.6833 -0.2831  0.0618
  853TIP3    H224119   5.784   3.648   0.294 -0.0950 -0.4574  0.1157
  854TIP3   OH224120   2.900   0.406   2.900 -0.2568 -0.1013  0.6328
  854TIP3    H124121   2.981   0.451   2.879 -0.7479  0.8413  0.6993
  854TIP3    H224122   2.914   0.315   2.871  0.4827  0.2560 -0.1617
  855TIP3   OH224123   3.991   5.335   7.441  0.5012  0.1719  0.0032
  855TIP3    H124124   3.966   5.380   7.360 -0.3564 -2.9155 -1.6227
  855TIP3    H224125   4.087   5.344   7.444  0.6674 -0.3925 -1.9082
  856TIP3   OH224126   2.908   4.605   3.114  0.1274  0.2759 -0.1043
  856TIP3    H124127   2.822   4.562   3.120  0.7146 -1.1703 -1.4172
  856TIP3    H224128   2.942   4.604   3.203 -0.3687 -1.0108  0.0935
  857TIP3   OH224129   5.655   0.619   2.054 -0.2980  0.4736  0.6987
  857TIP3    H124130   5.608   0.536   2.055 -0.6412  0.6292 -0.4719
  857TIP3    H224131   5.588   0.685   2.036  0.2277  0.7845 -0.2094
  858TIP3   OH224132   0.163   3.838   7.505  0.1399 -0.2091 -0.0278
  858TIP3    H124133   0.099   3.904   7.531 -0.2544  0.0082 -1.4283
  858TIP3    H224134   0.118   3.787   7.437  0.7027 -1.4505  0.5131
  859TIP3   OH224135   2.118   6.426   3.337 -0.2204  0.3259  0.2029
  859TIP3    H124136   2.141   6.352   3.394 -1.0059  0.4247  0.6622
  859TIP3    H224137   2.037   6.399   3.294 -0.7747  1.0973  0.7313
  860TIP3   OH224138   0.676   1.250   8.499 -0.2455 -0.2152 -0.5325
  860TIP3    H124139   0.670   1.155   8.487  1.1145 -0.6359  1.5823
  860TIP3    H224140   0.728   1.281   8.425 -0.4123 -1.1497 -1.0536
  861TIP3   OH224141   2.443   0.014   2.503  0.0805  0.2103 -0.3366
  861TIP3    H124142   2.352   0.006   2.533  0.2152  0.8052  0.2626
  861TIP3    H224143   2.495   0.004   2.582  0.5407 -0.0332 -0.6656
  862TIP3   OH224144   6.712   2.321   0.182  0.0091  0.4483  0.5268
  862TIP3    H124145   6.793   2.359   0.216 -1.0415  2.1608  1.2400
  862TIP3    H224146   6.737   2.280   0.100  1.5036  1.3726  0.4895
  863TIP3   OH224147   4.755   0.181   1.748  0.4873  0.2696  0.5611
  863TIP3    H124148   4.809   0.195   1.670 -0.8184  0.2643 -0.3862
  863TIP3    H224149   4.689   0.117   1.719  0.0477  0.1886  1.7122
  864TIP3   OH224150   6.016   0.453   2.279 -0.1629  0.1910 -0.0184
  864TIP3    H124151   5.991   0.465   2.188 -1.5830 -0.9233  0.1821
  864TIP3    H224152   5.971   0.372   2.306  3.7556 -2.1269  0.3861
  865TIP3   OH224153   0.860   2.943   2.731 -0.3237  0.1912  1.3972
  865TIP3    H124154   0.784   2.965   2.678 -1.1096  0.5190  2.6257
  865TIP3    H224155   0.825   2.891   2.804  0.9132 -1.4510  0.8899
  866TIP3   OH224156   5.344   4.885   0.479 -0.4666 -0.1531 -0.5837
  866TIP3    H124157   5.372   4.977   0.479  2.1725 -0.8071  1.5639
  866TIP3    H224158   5.371   4.852   0.393  1.0733  0.4762 -0.3759
  867TIP3   OH224159   5.409   4.976   8.413 -0.0609  0.0128  0.1565
  867TIP3    H124160   5.386   4.967   8.321  0.7393  0.4790 -0.1022
  867TIP3    H224161   5.362   4.905   8.457  1.7974 -2.0576 -0.9974
  868TIP3   OH224162   2.657   1.321   2.021  0.1215 -0.0276  0.3579
  868TIP3    H124163   2.653   1.372   1.940 -1.4746  0.1879  0.5428
  868TIP3    H224164   2.675   1.386   2.089 -3.4842  0.6962  0.8225
  869TIP3   OH224165   5.012   0.466   0.071 -0.2396 -0.7235  0.1242
  869TIP3    H124166   5.058   0.548   0.087 -3.9337  1.8177 -1.0532
  869TIP3    H224167   4.964   0.449   0.153 -0.9955 -0.6215 -0.2920
  870TIP3   OH224168   1.353   1.116   1.710 -0.1073 -0.0926 -0.5621
  870TIP3    H124169   1.448   1.106   1.708 -0.0998 -0.5626  0.8728
  870TIP3    H224170   1.338   1.210   1.706  0.4113 -0.0200 -0.8559
  871TIP3   OH224171   0.135   2.902   1.486  0.3845 -0.2647 -0.3290
  871TIP3    H124172   0.111   2.833   1.547 -0.7107 -0.0388 -0.4893
  871TIP3    H224173   0.196   2.957   1.536 -0.5352 -0.0482  0.5969
  872TIP3   OH224174   2.077   6.731   2.368  0.8417  0.2228  0.4966
  872TIP3    H124175   2.117   6.651   2.401 -1.3885 -1.2984 -0.2125
  872TIP3    H224176   2.077   6.791   2.442  0.6865 -1.2008  1.6847
  873TIP3   OH224177   1.232   4.379   0.967  0.7104 -0.2833  0.2106
  873TIP3    H124178   1.156   4.324   0.985 -0.7421  2.4336  3.2218
  873TIP3    H224179   1.299   4.348   1.029  1.1520 -0.8694 -0.5361
  874TIP3   OH224180   4.075   0.407   1.205 -0.0495 -0.2681 -0.0083
  874TIP3    H124181   4.037   0.492   1.181 -1.1773 -0.7896 -0.1594
  874TIP3    H224182   4.144   0.393   1.141 -0.4384  0.1421 -0.5305
  875TIP3   OH224183   0.927   1.337   2.207 -0.5252  0.1566 -0.3830
  875TIP3    H124184   0.897   1.425   2.181  0.6561  1.1423  1.3691
  875TIP3    H224185   0.984   1.309   2.135  2.6340  2.7688  0.8264
  876TIP3   OH224186   6.370   0.976   0.422  0.0695  0.9203 -0.8716
  876TIP3    H124187   6.281   0.951   0.397 -0.3291  1.9153 -0.5278
  876TIP3    H224188   6.425   0.907   0.387 -0.7292  0.8657 -2.1100
  877TIP3   OH224189   5.914   5.175   2.202  0.0003  0.2135  0.1157
  877TIP3    H124190   5.966   5.254   2.217 -1.1243  0.8585  0.8018
  877TIP3    H224191   5.977   5.103   2.207  0.9961  1.0370 -0.2044
  878TIP3   OH224192   1.761   1.566   1.543 -0.3132  0.0281 -0.1271
  878TIP3    H124193   1.672   1.560   1.507 -0.4079 -0.7069  0.2188
  878TIP3    H224194   1.768   1.656   1.574 -0.4573  0.4994 -1.4051
  879TIP3   OH224195   0.254   6.184   7.989  0.2872  0.1733 -0.2426
  879TIP3    H124196   0.168   6.207   7.953  1.3260  1.2707 -2.1797
  879TIP3    H224197   0.286   6.265   8.029  0.8008  0.0171 -0.3365
  880TIP3   OH224198   1.325   1.629   0.905  0.2710  0.3839 -0.1103
  880TIP3    H124199   1.360   1.678   0.979 -0.3224  0.5757  0.0502
  880TIP3    H224200   1.292   1.696   0.845 -1.1752  0.1774  0.4259
  881TIP3   OH224201   2.749   1.525   2.481 -0.1422 -0.1724  1.0992
  881TIP3    H124202   2.799   1.597   2.519 -0.1039  0.3111  0.1650
  881TIP3    H224203   2.751   1.457   2.548  0.8325  0.2469  1.5263
  882TIP3   OH224204   0.305   0.327   7.784  0.3645  0.3855 -0.4942
  882TIP3    H124205   0.315   0.345   7.691 -2.5140  0.9715 -0.7970
  882TIP3    H224206   0.286   0.412   7.823 -1.7772 -0.2484  0.0095
  883TIP3   OH224207   4.091   2.149   2.528  0.3901  0.7019 -0.0551
  883TIP3    H124208   4.159   2.147   2.595 -0.8748  1.2325  1.3179
  883TIP3    H224209   4.138   2.141   2.445  2.1097  1.1526  0.8309
  884TIP3   OH224210   4.601   0.460   0.202 -0.1958 -0.6900 -0.1235
  884TIP3    H124211   4.512   0.452   0.168 -0.1954 -0.7784 -0.1036
  884TIP3    H224212   4.658   0.445   0.127 -0.2011 -0.1939 -0.2293
  885TIP3   OH224213   5.028   0.862   1.179 -0.2623 -0.5613  0.1732
  885TIP3    H124214   5.094   0.808   1.136 -0.3060 -0.4923  0.0203
  885TIP3    H224215   5.051   0.952   1.154 -0.6244 -0.5606 -0.1707
  886TIP3   OH224216   0.182   1.984   1.584 -0.5181 -0.1328  0.4278
  886TIP3    H124217   0.119   1.961   1.652 -0.0154  2.2474  1.8326
  886TIP3    H224218   0.266   1.993   1.630 -0.1774  1.6253 -0.4289
  887TIP3   OH224219   5.445   3.755   8.091 -0.1456  0.3708  0.4727
  887TIP3    H124220   5.378   3.688   8.080 -0.4507  0.8608 -0.9145
  887TIP3    H224221   5.430   3.789   8.179 -1.0536 -0.2408  0.5756
  888TIP3   OH224222   5.528   5.863   0.988  0.2893  0.5545 -0.3617
  888TIP3    H124223   5.477   5.942   1.005 -1.2375 -0.4997  0.1403
  888TIP3    H224224   5.597   5.891   0.928 -0.4251  2.1795 -0.4661
  889TIP3   OH224225   4.120   2.795   1.197  0.4702 -0.6486 -0.0223
  889TIP3    H124226   4.139   2.849   1.274 -2.4042  1.5285 -0.6383
  889TIP3    H224227   4.169   2.836   1.126 -1.7312  1.4117 -0.4952
  890TIP3   OH224228   4.826   1.578   1.706  0.6286  0.3226 -1.1132
  890TIP3    H124229   4.893   1.519   1.742 -0.4360 -0.4856 -0.4120
  890TIP3    H224230   4.853   1.665   1.736 -0.2497 -0.3150  1.7918
  891TIP3   OH224231   4.218   3.357   2.206  0.2281  0.2036 -0.1824
  891TIP3    H124232   4.208   3.418   2.279  0.4856  0.3321 -0.2571
  891TIP3    H224233   4.279   3.291   2.238  0.1830  0.1479 -0.2098
  892TIP3   OH224234   0.590   2.089   2.565 -0.9695 -0.6432  0.1257
  892TIP3    H124235   0.598   2.029   2.640  0.9734 -0.5902  0.0200
  892TIP3    H224236   0.661   2.062   2.506 -0.8386  0.9743 -0.4936
  893TIP3   OH224237   3.716   4.119   2.151  0.2319 -0.4374  0.0986
  893TIP3    H124238   3.659   4.182   2.107  1.4354 -0.6345 -1.8615
  893TIP3    H224239   3.786   4.103   2.088  1.2967 -1.8260  1.5792
  894TIP3   OH224240   5.295   2.860   8.013 -0.0276  0.5701 -0.1056
  894TIP3    H124241   5.215   2.904   7.985 -1.0291 -1.4759 -0.6451
  894TIP3    H224242   5.355   2.868   7.939 -0.5841  0.1548 -0.6121
  895TIP3   OH224243   5.936   1.890   0.101  0.3751  0.0430 -0.1728
  895TIP3    H124244   5.895   1.948   0.037  1.2558 -0.7764 -1.5301
  895TIP3    H224245   6.026   1.922   0.108  0.3773 -0.0835  0.3919
  896TIP3   OH224246   4.404   3.303   2.824  0.1642 -0.5498 -0.2804
  896TIP3    H124247   4.339   3.330   2.889  1.2996 -0.3187  0.7807
  896TIP3    H224248   4.466   3.249   2.872  0.4805 -1.2049 -1.3988
  897TIP3   OH224249   6.611   3.896   0.517  0.4173  0.3392  0.2941
  897TIP3    H124250   6.621   3.848   0.599 -1.0432  0.6117  0.6674
  897TIP3    H224251   6.539   3.957   0.534  1.9863  2.4455 -0.2755
  898TIP3   OH224252   1.638   5.947   2.659  0.1511  0.2298 -0.2805
  898TIP3    H124253   1.547   5.931   2.636 -1.5827  0.0750  5.2901
  898TIP3    H224254   1.651   6.041   2.645 -1.5456  0.6120  0.4757
  899TIP3   OH224255   2.378   1.021   0.087  0.3959  0.4806  0.6072
  899TIP3    H124256   2.385   1.021  -0.009 -1.4211  2.1320  0.4028
  899TIP3    H224257   2.334   1.104   0.107 -1.1463 -0.7551  2.7080
  900TIP3   OH224258   0.042   0.418   2.333  0.4200  0.0022  0.3011
  900TIP3    H124259   0.009   0.429   2.243 -0.1976  0.2579  0.5541
  900TIP3    H224260  -0.025   0.365   2.377  1.2114 -0.9956  0.3422
  901TIP3   OH224261   5.788   5.199   0.133 -0.4168 -0.1443  0.2226
  901TIP3    H124262   5.795   5.241   0.219  1.2308 -1.2616  0.6827
  901TIP3    H224263   5.715   5.138   0.142 -0.6543  0.1935  0.6221
  902TIP3   OH224264   1.427   5.043   0.829 -0.8763 -0.8409  0.3167
  902TIP3    H124265   1.474   5.108   0.776  0.7012 -0.4169  2.0838
  902TIP3    H224266   1.352   5.090   0.864 -2.3084 -1.3088 -1.9550
  903TIP3   OH224267   5.219   3.080   2.834 -0.3360 -0.0010  0.0523
  903TIP3    H124268   5.291   3.138   2.858 -1.9640  2.0670  0.2698
  903TIP3    H224269   5.230   3.003   2.890  0.8366  0.9251  1.1629
  904TIP3   OH224270   3.729   5.881   0.014 -0.5043  0.0389 -0.0329
  904TIP3    H124271   3.702   5.806   0.067 -0.9251  0.3371  0.1882
  904TIP3    H224272   3.781   5.935   0.073  0.6228 -0.5465 -0.4671
  905TIP3   OH224273   1.644   5.631   0.385 -0.9921 -0.4787 -0.6281
  905TIP3    H124274   1.738   5.615   0.387 -0.9884 -0.4929  0.8275
  905TIP3    H224275   1.609   5.565   0.327 -0.1098 -0.5130 -1.1375
  906TIP3   OH224276   5.532   6.737   8.604 -0.2199  0.0928  0.8250
  906TIP3    H124277   5.521   6.666   8.541 -0.4166 -1.4485  2.4938
  906TIP3    H224278   5.625   6.759   8.601 -0.3021  0.3600 -0.2804
  907TIP3   OH224279   2.437   5.988   2.429  0.0051 -0.7975  0.1786
  907TIP3    H124280   2.459   5.945   2.511  0.1116  0.2934  0.7332
  907TIP3    H224281   2.519   5.992   2.381  0.0733 -0.8444  0.2910
  908TIP3   OH224282   3.250   2.018   2.099 -0.4473 -0.6927  0.2581
  908TIP3    H124283   3.221   1.984   2.015 -0.9030  2.1786 -0.8643
  908TIP3    H224284   3.169   2.029   2.150 -0.5293  0.4014 -0.0921
  909TIP3   OH224285   4.547   0.093   0.113 -0.8582  0.4886  0.9388
  909TIP3    H124286   4.584   0.013   0.075  0.1585  1.5327 -0.3635
  909TIP3    H224287   4.459   0.068   0.139 -1.0389 -0.7412 -0.6543
  910TIP3   OH224288   1.265   4.314   2.853 -0.0600 -0.4581  0.2732
  910TIP3    H124289   1.197   4.279   2.796  0.2478  1.7596 -1.6137
  910TIP3    H224290   1.231   4.399   2.881  1.4436  0.1989  0.1971
  911TIP3   OH224291   3.069   4.254   2.389 -0.5852 -0.0459  0.0173
  911TIP3    H124292   3.100   4.244   2.479  2.6395  1.7064 -0.7834
  911TIP3    H224293   2.975   4.273   2.399 -0.1523  1.0761  3.0622
  912TIP3   OH224294   4.530   0.346   1.191 -0.3131 -0.2501  0.1196
  912TIP3    H124295   4.573   0.371   1.109 -0.3485 -2.4960 -0.6557
  912TIP3    H224296   4.563   0.408   1.256  1.2975  0.3321 -1.1899
  913TIP3   OH224297   5.074   3.225   1.775  0.7444 -0.2986 -0.1939
  913TIP3    H124298   5.157   3.185   1.801  0.4153 -1.7062 -1.1292
  913TIP3    H224299   5.098   3.292   1.712  1.1911 -0.6882 -0.4459
  914TIP3   OH224300   0.488   5.169   1.827 -0.2136  0.2149 -0.3258
  914TIP3    H124301   0.551   5.140   1.761  1.2116 -0.8166  1.3989
  914TIP3    H224302   0.525   5.249   1.863 -0.0400 -0.2071  0.4600
  915TIP3   OH224303   1.420   4.880   1.168  0.2882  0.9214  0.1577
  915TIP3    H124304   1.383   4.835   1.244  0.0964 -0.4310 -0.6874
  915TIP3    H224305   1.345   4.913   1.120  0.2274 -0.4692 -0.7514
  916TIP3   OH224306   5.777   4.375   8.238 -0.0359  0.7342 -0.1003
  916TIP3    H124307   5.740   4.295   8.274  0.5320 -0.3604 -1.8299
  916TIP3    H224308   5.802   4.427   8.315 -0.9107 -0.4988  1.0464
  917TIP3   OH224309   6.068   6.590   8.051  0.1858 -0.1070 -0.1791
  917TIP3    H124310   6.078   6.683   8.028  2.3300 -0.1642  0.3326
  917TIP3    H224311   5.988   6.588   8.104  0.0637  1.4555 -0.2360
  918TIP3   OH224312   6.105   1.161   0.036  0.1982  0.8416  0.1387
  918TIP3    H124313   6.142   1.233  -0.015  0.0106  1.0984  0.3597
  918TIP3    H224314   6.177   1.130   0.090  0.5447  0.2086 -0.6687
  919TIP3   OH224315   2.152   0.249   0.035 -0.2440 -0.2431  0.1374
  919TIP3    H124316   2.094   0.251   0.110 -0.9916 -1.3211 -0.3895
  919TIP3    H224317   2.217   0.182   0.056 -0.3753 -0.4523 -0.1178
  920TIP3   OH224318   1.946   2.457   0.661 -0.4518  0.8421  0.0504
  920TIP3    H124319   1.981   2.404   0.732 -0.2356  1.6526  0.5690
  920TIP3    H224320   1.893   2.397   0.609  0.6991 -0.1442 -0.0379
  921TIP3   OH224321   6.490   4.316   0.290  0.2114  0.2232  0.2798
  921TIP3    H124322   6.460   4.285   0.376 -1.0262  0.8381  0.0981
  921TIP3    H224323   6.460   4.249   0.229  0.2873  0.2327  0.2326
  922TIP3   OH224324   3.538   3.073   0.822  0.5587  0.5630 -0.3146
  922TIP3    H124325   3.585   3.062   0.904 -0.8133 -0.3139  0.3878
  922TIP3    H224326   3.553   2.992   0.774  0.6318  0.7134 -0.5474
  923TIP3   OH224327   6.370   2.820   8.378  0.1196 -0.3616 -0.4265
  923TIP3    H124328   6.349   2.875   8.303  0.8755 -0.3821 -0.6525
  923TIP3    H224329   6.397   2.737   8.340  2.5562  0.2871 -0.2369
  924TIP3   OH224330   3.633   0.165   0.215 -0.0771  0.1369  0.1974
  924TIP3    H124331   3.560   0.105   0.228 -0.9527  1.2147  0.4297
  924TIP3    H224332   3.614   0.207   0.131  1.6042 -1.3572 -0.9951
  925TIP3   OH224333   5.605   6.694   2.218  0.3530 -0.3124  0.0774
  925TIP3    H124334   5.664   6.678   2.144  1.3365 -0.4983  0.8692
  925TIP3    H224335   5.521   6.714   2.178  0.7259 -0.9456 -1.0840
  926TIP3   OH224336   5.139   2.008   3.529  0.6746 -0.5237 -0.1011
  926TIP3    H124337   5.146   1.915   3.553  1.9091 -0.4828 -0.2363
  926TIP3    H224338   5.140   2.008   3.434  0.4485 -0.3781 -0.1042
  927TIP3   OH224339   3.766   5.131   7.399 -0.2969 -0.6043  0.5488
  927TIP3    H124340   3.719   5.088   7.470 -0.1624 -1.5155  0.0970
  927TIP3    H224341   3.858   5.128   7.425 -0.3849  0.4386  1.0423
  928TIP3   OH224342   5.898   6.157   8.335 -0.6111 -0.2781 -0.0504
  928TIP3    H124343   5.941   6.137   8.252  0.7054 -1.2458  0.8193
  928TIP3    H224344   5.861   6.073   8.363 -3.6179  0.6037 -0.9972
  929TIP3   OH224345   3.032   2.113   0.897 -0.9316 -0.1633  0.0483
  929TIP3    H124346   3.047   2.053   0.824 -0.4043 -0.4496  0.3834
  929TIP3    H224347   3.114   2.160   0.906 -1.5000  0.9785 -0.5255
  930TIP3   OH224348   3.786   5.779   1.941  0.8226  0.1361 -0.1351
  930TIP3    H124349   3.702   5.756   1.901  0.5802  0.7574  0.0176
  930TIP3    H224350   3.839   5.700   1.929  0.3543 -0.1229 -0.5916
  931TIP3   OH224351   1.147   3.425   1.254  0.3886 -0.1317  0.3035
  931TIP3    H124352   1.101   3.370   1.316  1.4509 -0.8169  0.5061
  931TIP3    H224353   1.204   3.365   1.206 -0.6526  0.3076 -1.6062
  932TIP3   OH224354   4.562   2.776   3.032  0.5705 -0.3230 -0.0766
  932TIP3    H124355   4.604   2.742   3.110 -1.1736  0.9709  1.5297
  932TIP3    H224356   4.526   2.860   3.059 -2.9960 -1.2980 -1.2159
  933TIP3   OH224357   4.753   5.348   2.071 -0.1039 -0.9142  0.6809
  933TIP3    H124358   4.709   5.360   1.987 -0.2452 -3.7728  0.2354
  933TIP3    H224359   4.682   5.352   2.135 -0.2759 -0.5710  0.4714
  934TIP3   OH224360   6.612   2.833   8.541 -0.3188  0.5105  0.5562
  934TIP3    H124361   6.645   2.765   8.482  1.1567  0.9243  0.8557
  934TIP3    H224362   6.518   2.820   8.543 -0.7490  1.7223 -3.4703
  935TIP3   OH224363   2.307   3.467   2.417  0.0553 -0.2389 -0.5169
  935TIP3    H124364   2.291   3.559   2.396  1.0495 -0.0524 -0.5054
  935TIP3    H224365   2.343   3.469   2.505  0.0182 -0.6467 -0.4928
  936TIP3   OH224366   3.006   4.166   0.704  0.2144 -0.1402  0.5918
  936TIP3    H124367   2.985   4.135   0.616  2.5016 -1.9442  0.5863
  936TIP3    H224368   3.075   4.231   0.691 -0.7041  0.9345  0.9713
  937TIP3   OH224369   5.385   0.086   3.121  0.1549  0.4780  0.7070
  937TIP3    H124370   5.348   0.165   3.081 -0.4565 -0.0305  0.2327
  937TIP3    H224371   5.423   0.038   3.047  0.0521  0.0849  0.9072
  938TIP3   OH224372   2.139   2.820   1.541 -0.4199  0.4601 -0.0119
  938TIP3    H124373   2.138   2.845   1.449 -1.6336  0.9270  0.1236
  938TIP3    H224374   2.058   2.772   1.555 -1.1286  1.9333  1.2268
  939TIP3   OH224375   4.814   3.849   2.597 -0.6622  0.0240 -0.0260
  939TIP3    H124376   4.737   3.795   2.614  0.3913 -0.9028  2.3863
  939TIP3    H224377   4.885   3.786   2.582 -0.4241  0.8514 -2.9594
  940TIP3   OH224378   1.101   4.549   2.038 -0.1250 -0.5002 -0.2152
  940TIP3    H124379   1.172   4.599   1.998 -0.0019 -0.9486 -0.5753
  940TIP3    H224380   1.024   4.605   2.030  0.2095  0.0421  0.2922
  941TIP3   OH224381   6.517   3.950   2.420  0.6180  0.2179  0.1905
  941TIP3    H124382   6.530   3.992   2.505 -1.5645  1.3012  0.0748
  941TIP3    H224383   6.557   4.011   2.357  0.7170  0.2796  0.3126
  942TIP3   OH224384   1.205   5.293   1.489 -0.7115 -0.6107 -0.0620
  942TIP3    H124385   1.246   5.297   1.403 -0.5434 -0.0391  0.0328
  942TIP3    H224386   1.186   5.201   1.503 -0.5630 -0.7310 -0.6282
  943TIP3   OH224387   4.186   4.405   0.265 -0.1763 -0.3125 -0.2289
  943TIP3    H124388   4.098   4.369   0.256 -0.9361  1.6588 -1.2513
  943TIP3    H224389   4.198   4.460   0.188  1.3473  0.7271  0.6943
  944TIP3   OH224390   2.074   3.999   3.133  0.2142 -0.0272 -0.0339
  944TIP3    H124391   2.156   4.009   3.181  0.1524  0.4230 -0.0151
  944TIP3    H224392   2.072   3.907   3.106  0.8578  0.0287 -0.2756
  945TIP3   OH224393   5.378   4.705   1.183 -0.4597 -0.2698 -0.1737
  945TIP3    H124394   5.406   4.647   1.255  1.1851  1.1972  0.4555
  945TIP3    H224395   5.460   4.738   1.147 -1.3380  0.7862 -1.2474
  946TIP3   OH224396   2.361   1.325   0.436 -0.0420  0.2336  0.3144
  946TIP3    H124397   2.383   1.247   0.488  0.4778  0.8714  1.0754
  946TIP3    H224398   2.292   1.295   0.376  0.1838 -0.8209  0.5562
  947TIP3   OH224399   1.674   4.645   1.302 -0.3890  0.2571  0.0811
  947TIP3    H124400   1.762   4.636   1.339 -0.0573  1.5499 -0.3550
  947TIP3    H224401   1.670   4.736   1.271 -0.7170 -0.6562 -2.8457
  948TIP3   OH224402   0.215   3.623   7.930 -0.4235  0.1226  0.3354
  948TIP3    H124403   0.220   3.538   7.886 -2.6739 -0.2704  0.6930
  948TIP3    H224404   0.274   3.680   7.880 -0.4915 -1.1087 -1.2239
  949TIP3   OH224405   5.402   2.127   2.085 -0.1431 -0.6792 -0.0935
  949TIP3    H124406   5.369   2.135   2.175  0.0438 -1.3392  0.0382
  949TIP3    H224407   5.395   2.216   2.049  0.7378 -0.1781  0.9061
  950TIP3   OH224408   6.259   4.597   0.974  0.3494 -0.0939 -0.4533
  950TIP3    H124409   6.317   4.611   1.048  1.6549  2.6353 -1.8616
  950TIP3    H224410   6.311   4.621   0.897 -1.1933 -2.0481 -2.2425
  951TIP3   OH224411   1.016   1.532   8.530 -0.1251  0.3321 -0.2936
  951TIP3    H124412   1.039   1.440   8.516 -0.6098  0.3006 -0.9478
  951TIP3    H224413   0.938   1.546   8.475 -0.1472  1.0933 -0.0855
  952TIP3   OH224414   2.326   3.812   8.195 -0.1713  0.3576  0.6721
  952TIP3    H124415   2.329   3.759   8.116 -0.1314 -2.4143  2.3855
  952TIP3    H224416   2.354   3.899   8.167  2.1874 -1.0730 -1.8944
  953TIP3   OH224417   5.334   5.413   0.588 -0.0072  0.2237  0.4858
  953TIP3    H124418   5.353   5.433   0.680 -0.9948  1.1228  0.5286
  953TIP3    H224419   5.249   5.455   0.572  0.1157  0.0268 -0.8227
  954TIP3   OH224420   2.407   3.024   1.341  0.0754 -0.2034 -0.2682
  954TIP3    H124421   2.414   2.937   1.302  0.6408 -0.6545  0.7905
  954TIP3    H224422   2.483   3.031   1.398 -1.2339 -0.0172  1.5697
  955TIP3   OH224423   0.463   3.311   1.788  0.0019  0.0935 -0.9606
  955TIP3    H124424   0.535   3.310   1.725  0.6737 -0.5878 -0.2027
  955TIP3    H224425   0.456   3.403   1.814  2.9743 -0.2430  1.5726
  956TIP3   OH224426   1.910   4.569   8.258  0.0138 -0.1919  0.1738
  956TIP3    H124427   1.920   4.662   8.279  1.1932 -0.6224  1.6843
  956TIP3    H224428   1.904   4.567   8.163 -2.3789  1.6153  0.1678
  957TIP3   OH224429   1.207   4.831   7.042  0.0310 -0.4691 -0.1413
  957TIP3    H124430   1.252   4.825   6.958 -0.2897 -1.8678 -0.2375
  957TIP3    H224431   1.118   4.800   7.024 -0.4730  0.5813  0.4259
  958TIP3   OH224432   4.257   6.718   1.606 -0.3860 -0.1601  0.5105
  958TIP3    H124433   4.185   6.756   1.557 -0.2644 -0.1158  0.3639
  958TIP3    H224434   4.261   6.627   1.578  0.2529  0.0870 -0.2413
  959TIP3   OH224435   6.379   6.411   1.033 -0.7492  0.2885  0.6216
  959TIP3    H124436   6.426   6.349   0.977  0.1957 -0.6353  2.3686
  959TIP3    H224437   6.420   6.496   1.015  0.5102 -0.2353  0.9268
  960TIP3   OH224438   6.469   5.206   8.412  0.2953 -0.3273  0.2361
  960TIP3    H124439   6.480   5.118   8.376 -0.4444 -0.8763  1.2891
  960TIP3    H224440   6.425   5.192   8.496  0.1532  1.0549  0.4154
  961TIP3   OH224441   0.941   1.906   1.580 -0.1385 -0.1034 -0.0278
  961TIP3    H124442   0.986   1.886   1.498  0.4201 -0.2921  0.3209
  961TIP3    H224443   0.897   1.990   1.563  1.1893  0.6241 -0.0630
  962TIP3   OH224444   2.245   4.646   8.321 -0.4448  0.1496 -0.2717
  962TIP3    H124445   2.266   4.711   8.254 -1.3365  2.0113  1.1573
  962TIP3    H224446   2.328   4.629   8.365 -0.3081  0.8138 -0.2611
  963TIP3   OH224447   3.886   5.500   8.144  0.0394 -0.0618  0.6524
  963TIP3    H124448   3.971   5.468   8.173  0.4378 -0.0577 -0.4498
  963TIP3    H224449   3.823   5.461   8.205  0.7751 -0.5969  1.0821
  964TIP3   OH224450   0.818   1.278   0.045  0.2869  0.2703  0.5429
  964TIP3    H124451   0.903   1.251   0.011  0.1302  0.2064  0.1913
  964TIP3    H224452   0.762   1.284  -0.033 -0.1496 -0.1359  0.8168
  965TIP3   OH224453   4.218   5.093   2.083  0.5791  0.6044 -0.1903
  965TIP3    H124454   4.197   5.144   2.004 -0.1145 -0.1294 -0.4921
  965TIP3    H224455   4.253   5.011   2.050 -0.2574  0.0581  0.2369
  966TIP3   OH224456   5.037   0.182   3.276 -0.4351  0.3305  0.0003
  966TIP3    H124457   4.952   0.224   3.259  0.5234  1.9869 -1.0014
  966TIP3    H224458   5.072   0.164   3.188 -0.2613 -1.4773  0.4082
  967TIP3   OH224459   2.219   1.086   0.690 -0.0347  0.1407  0.0559
  967TIP3    H124460   2.294   1.048   0.644  0.1525  1.0067 -0.3654
  967TIP3    H224461   2.232   1.060   0.782  2.1801  2.3381  0.4782
  968TIP3   OH224462   6.271   0.529   0.929  0.1280 -0.2838 -0.0750
  968TIP3    H124463   6.253   0.469   1.002 -0.4971 -1.1361 -0.9036
  968TIP3    H224464   6.184   0.553   0.896  0.3856 -1.3346 -1.6496
  969TIP3   OH224465   0.053   6.746   0.753  0.0916  0.5390  0.6668
  969TIP3    H124466   0.060   6.840   0.770  0.3933  1.2145 -2.5606
  969TIP3    H224467   0.144   6.715   0.754  0.2722  0.9054 -0.9010
  970TIP3   OH224468   6.147   5.833   0.744 -0.4835 -0.2066 -0.1148
  970TIP3    H124469   6.132   5.928   0.740 -0.3574 -0.1922 -0.2999
  970TIP3    H224470   6.065   5.797   0.776 -1.2544 -0.2121 -1.9404
  971TIP3   OH224471   5.970   1.806   1.244  0.1458  0.4075  0.0867
  971TIP3    H124472   6.052   1.851   1.261  0.9116 -0.8682 -0.0992
  971TIP3    H224473   5.956   1.815   1.150  0.0683  0.6167  0.1172
  972TIP3   OH224474   4.215   3.359   1.018 -0.1163  1.3451  0.2921
  972TIP3    H124475   4.300   3.370   1.061  0.5478 -0.3846 -0.4773
  972TIP3    H224476   4.153   3.352   1.091  0.6901  0.6223  0.9460
  973TIP3   OH224477   3.000   0.741   7.997 -0.2383  0.0994  0.4816
  973TIP3    H124478   3.063   0.791   7.946  0.2111 -0.9059  0.0291
  973TIP3    H224479   2.984   0.662   7.945 -1.2067 -0.0656  1.0068
  974TIP3   OH224480   3.177   1.288   2.088  0.1838 -0.7806 -0.2778
  974TIP3    H124481   3.252   1.346   2.073 -1.1509  1.3377  0.8540
  974TIP3    H224482   3.216   1.202   2.104  2.5015  0.5325  1.7548
  975TIP3   OH224483   0.514   5.661   0.325  0.3825  0.1903 -0.6018
  975TIP3    H124484   0.508   5.607   0.246  0.7341  0.8101 -1.0685
  975TIP3    H224485   0.545   5.746   0.293  3.6301 -0.4180  0.5389
  976TIP3   OH224486   1.750   6.445   1.441  0.1347  0.0053  0.2008
  976TIP3    H124487   1.845   6.443   1.435  0.1328  1.1463 -0.6817
  976TIP3    H224488   1.721   6.438   1.350 -0.6440 -0.7308  0.4956
  977TIP3   OH224489   2.747   3.398   8.601  0.9128 -0.7866 -0.0918
  977TIP3    H124490   2.755   3.326   8.664  1.7999 -0.9359 -0.3525
  977TIP3    H224491   2.760   3.477   8.653 -0.6367 -0.7616  0.2981
  978TIP3   OH224492   4.190   6.463   8.285 -0.0268  0.0632  0.1566
  978TIP3    H124493   4.237   6.402   8.229 -0.3674 -0.0007 -0.0648
  978TIP3    H224494   4.098   6.435   8.279  0.0152 -0.4043  1.3218
  979TIP3   OH224495   3.040   3.964   7.998 -0.6114  0.1045  0.1377
  979TIP3    H124496   2.972   3.974   8.065 -0.1113  0.2234  0.6252
  979TIP3    H224497   3.064   4.054   7.975 -2.2332  0.1538 -1.7104
  980TIP3   OH224498   1.917   2.605   2.906  0.2384  0.1620  0.1729
  980TIP3    H124499   1.857   2.579   2.976  0.6298 -0.6022  0.2333
  980TIP3    H224500   2.002   2.612   2.949  0.5443 -0.6430 -0.2837
  981TIP3   OH224501   6.312   6.035   8.060  0.2880  0.0386  0.1390
  981TIP3    H124502   6.298   5.965   7.996  0.2987 -0.8291  1.0592
  981TIP3    H224503   6.310   6.115   8.008  0.1850 -0.6308 -0.9318
  982TIP3   OH224504   0.703   5.645   1.874 -0.2145  0.3465 -0.4321
  982TIP3    H124505   0.761   5.635   1.798 -0.0255  0.1307 -0.2607
  982TIP3    H224506   0.682   5.739   1.875 -1.2037  0.1511 -1.4602
  983TIP3   OH224507   5.097   6.129   7.759  0.2534 -0.5552 -0.1600
  983TIP3    H124508   5.134   6.061   7.815 -0.2263 -0.5353  0.1811
  983TIP3    H224509   5.029   6.085   7.708 -1.8772  0.1614  1.8958
  984TIP3   OH224510   0.170   6.804   2.636 -0.6585  0.0347  0.6831
  984TIP3    H124511   0.123   6.851   2.704 -0.1640  1.5127  0.0443
  984TIP3    H224512   0.256   6.845   2.632 -0.0449 -1.2125  0.3759
  985TIP3   OH224513   4.026   3.417   1.654 -0.4608  0.0524  0.7329
  985TIP3    H124514   3.984   3.444   1.572  2.7734  0.1344 -1.0614
  985TIP3    H224515   3.994   3.479   1.719 -3.2224 -0.0803 -0.3865
  986TIP3   OH224516   4.160   4.973   3.513 -0.5541 -0.0896  0.1675
  986TIP3    H124517   4.091   4.907   3.508 -0.1909 -0.5437  0.9557
  986TIP3    H224518   4.117   5.054   3.488 -1.3081 -0.4133  0.3703
  987TIP3   OH224519   0.343   2.890   1.312 -0.5863 -0.2651 -0.1355
  987TIP3    H124520   0.292   2.883   1.393  0.9718  1.5551  1.1062
  987TIP3    H224521   0.392   2.808   1.307 -2.3995 -1.3707 -0.5221
  988TIP3   OH224522   4.021   6.057   8.008  0.2111 -0.6622  0.2814
  988TIP3    H124523   4.062   6.087   8.089 -0.9034 -0.8585  0.9399
  988TIP3    H224524   4.079   6.090   7.939  1.4782 -0.9439  1.1557
  989TIP3   OH224525   6.521   2.258   0.999 -0.2901  0.0520  0.4616
  989TIP3    H124526   6.551   2.324   0.936 -0.2033 -0.2784  0.1487
  989TIP3    H224527   6.570   2.179   0.975 -0.9169 -0.3131  0.3693
  990TIP3   OH224528   2.675   6.684   7.697  0.1460 -0.1726 -0.0469
  990TIP3    H124529   2.582   6.660   7.691  0.6221 -1.7901 -2.4130
  990TIP3    H224530   2.674   6.774   7.728 -2.3352  0.4697 -1.6517
  991TIP3   OH224531   2.677   0.136   1.389 -0.0196 -0.3310  0.7762
  991TIP3    H124532   2.757   0.105   1.431  0.1704 -0.3590  0.3948
  991TIP3    H224533   2.611   0.132   1.458 -0.3168 -2.8322  0.4360
  992TIP3   OH224534   1.905   3.090   8.387  0.3315  0.7710 -0.2261
  992TIP3    H124535   1.875   3.013   8.340  1.4673 -0.1537  0.5177
  992TIP3    H224536   1.992   3.109   8.350 -0.4825  2.5662 -1.3855
  993TIP3   OH224537   0.691   4.728   8.149 -0.3201 -0.1834  0.3048
  993TIP3    H124538   0.632   4.674   8.097 -0.1066 -0.4860  0.3735
  993TIP3    H224539   0.732   4.667   8.210  1.0048 -0.2156 -0.5682
  994TIP3   OH224540   4.882   3.148   2.992 -0.4750 -0.1187  0.0055
  994TIP3    H124541   4.901   3.054   3.001  1.9782  0.2111 -1.1373
  994TIP3    H224542   4.905   3.185   3.077  0.4849 -0.2790 -0.1753
  995TIP3   OH224543   4.648   1.286   0.283  0.9407  0.0004  0.3917
  995TIP3    H124544   4.616   1.321   0.200  1.6370 -0.1653  0.0402
  995TIP3    H224545   4.570   1.251   0.326  0.6398 -0.3461 -0.4083
  996TIP3   OH224546   5.489   5.315   1.265 -0.9421 -0.1251 -0.7070
  996TIP3    H124547   5.421   5.297   1.330  0.4355  1.2409  1.2206
  996TIP3    H224548   5.478   5.246   1.199 -3.2854 -0.7454  0.2396
  997TIP3   OH224549   2.069   6.385   8.297 -0.1498 -0.1927 -0.1618
  997TIP3    H124550   2.001   6.379   8.230 -1.5044  5.7271  0.0927
  997TIP3    H224551   2.033   6.337   8.371 -1.2556 -2.0839 -1.8142
  998TIP3   OH224552   0.815   6.488   1.075  0.2264  0.1677 -0.1678
  998TIP3    H124553   0.778   6.504   1.161 -0.3565 -0.6977 -0.2442
  998TIP3    H224554   0.869   6.565   1.057  0.7696  0.1130  1.1795
  999TIP3   OH224555   3.028   6.159   8.228 -0.3736 -0.1094 -0.4191
  999TIP3    H124556   3.099   6.177   8.290 -0.5641  0.9349 -0.4935
  999TIP3    H224557   3.004   6.244   8.193 -1.0428 -0.5614 -1.0912
 1000TIP3   OH224558   5.446   0.799   2.031 -0.1909 -1.0179  0.2557
 1000TIP3    H124559   5.442   0.785   1.936 -0.4207  1.1651 -0.1243
 1000TIP3    H224560   5.355   0.812   2.057  0.0655  1.3646  0.1850
 1001TIP3   OH224561   3.435   4.299   2.710 -0.1777 -0.1839  0.6679
 1001TIP3    H124562   3.421   4.377   2.763 -0.7758 -0.3513  0.7532
 1001TIP3    H224563   3.429   4.226   2.771  1.6224 -0.2553  0.8281
 1002TIP3   OH224564   2.704   3.262   1.032 -0.1263 -0.2490  0.3352
 1002TIP3    H124565   2.798   3.255   1.015 -0.1676  1.9395 -1.2522
 1002TIP3    H224566   2.672   3.172   1.024  1.8991 -1.1745  1.6812
 1003TIP3   OH224567   5.580   6.142   0.149 -0.0475  0.6218  0.2951
 1003TIP3    H124568   5.548   6.086   0.078  0.6744 -1.0198  1.2217
 1003TIP3    H224569   5.616   6.219   0.105  1.7583 -1.0176 -1.2564
 1004TIP3   OH224570   2.804   3.424   1.660 -0.2207  0.0956  0.4763
 1004TIP3    H124571   2.732   3.482   1.684 -1.4286 -0.3527 -1.8642
 1004TIP3    H224572   2.877   3.484   1.642 -0.5614  0.6784  0.9806
 1005TIP3   OH224573   6.459   5.392   7.939 -0.1696 -0.5344  0.1504
 1005TIP3    H124574   6.470   5.312   7.887  1.0555 -0.2603 -0.0405
 1005TIP3    H224575   6.517   5.455   7.899 -1.5838  0.6783 -0.0719
 1006TIP3   OH224576   2.352   5.393   2.272  0.2574 -0.1479  0.1607
 1006TIP3    H124577   2.383   5.467   2.219 -0.1590 -0.7560 -0.9579
 1006TIP3    H224578   2.258   5.387   2.253 -0.4244  0.9748  2.6508
 1007TIP3   OH224579   0.080   5.095   2.820 -0.1733 -0.7660 -0.4819
 1007TIP3    H124580   0.127   5.025   2.865 -0.4927 -0.0686  1.0042
 1007TIP3    H224581   0.017   5.128   2.885 -0.2920  0.6414 -1.2584
 1008TIP3   OH224582   5.907   3.302   2.600 -0.0856 -0.0667 -0.2452
 1008TIP3    H124583   5.850   3.253   2.659  1.0232  0.4663  1.3044
 1008TIP3    H224584   5.877   3.277   2.512 -1.0586 -1.6968  0.5093
 1009TIP3   OH224585   2.456   3.961   1.299 -0.5099 -0.8522 -0.4588
 1009TIP3    H124586   2.486   3.986   1.386 -2.0848  1.5694 -0.5165
 1009TIP3    H224587   2.526   3.907   1.263  0.8259 -0.6646  1.7274
 1010TIP3   OH224588   3.401   3.948   1.766 -0.0078  0.0097  0.2078
 1010TIP3    H124589   3.378   4.041   1.769  0.6287  0.2452 -1.3936
 1010TIP3    H224590   3.483   3.945   1.717 -0.6129 -1.4917 -0.7956
 1011TIP3   OH224591   1.255   3.457   1.622 -0.5219 -0.5302 -0.2594
 1011TIP3    H124592   1.268   3.426   1.712 -0.8512 -0.4183 -0.1728
 1011TIP3    H224593   1.334   3.429   1.576 -0.5557 -0.9974 -0.0453
 1012TIP3   OH224594   4.697   3.197   7.948  0.6691 -0.2989 -0.3430
 1012TIP3    H124595   4.689   3.103   7.932  2.6949 -0.8533  1.4386
 1012TIP3    H224596   4.748   3.203   8.028 -1.6288  2.3197  1.0845
 1013TIP3   OH224597   2.392   2.062   1.776 -0.1152 -0.9229  0.0076
 1013TIP3    H124598   2.336   2.090   1.848  0.5744 -1.1481  0.6484
 1013TIP3    H224599   2.353   1.980   1.745 -1.7938  0.3535 -1.4766
 1014TIP3   OH224600   2.349   6.339   8.317  0.7698 -0.1602 -0.5014
 1014TIP3    H124601   2.259   6.362   8.298  0.5150  0.9815  1.7311
 1014TIP3    H224602   2.362   6.254   8.275 -1.3548 -0.3612 -0.8289
 1015TIP3   OH224603   2.574   1.894   0.578  0.1777 -0.2319 -0.2442
 1015TIP3    H124604   2.624   1.849   0.646 -0.7288  0.1137  0.6728
 1015TIP3    H224605   2.515   1.828   0.543 -0.2973 -0.0750  0.2510
 1016TIP3   OH224606   5.335   3.308   1.146  0.9844  0.6281 -1.1747
 1016TIP3    H124607   5.328   3.241   1.078 -1.7800  1.3730 -1.7658
 1016TIP3    H224608   5.351   3.259   1.226 -0.0814 -0.7011 -1.7260
 1017TIP3   OH224609   2.843   4.207   0.163 -0.3950  0.1747  0.3480
 1017TIP3    H124610   2.807   4.130   0.118 -0.1281  1.1416 -1.6453
 1017TIP3    H224611   2.770   4.242   0.214 -0.6048 -1.1909  1.0338
 1018TIP3   OH224612   1.201   4.672   8.113 -0.0162 -0.0175  0.1849
 1018TIP3    H124613   1.122   4.621   8.129  0.1040  0.0208  0.9800
 1018TIP3    H224614   1.271   4.607   8.103 -0.1856 -0.0597 -0.7945
 1019TIP3   OH224615   5.460   1.011   1.131 -0.5924  0.4837 -0.1598
 1019TIP3    H124616   5.421   0.932   1.093 -2.3169  0.7987  0.8893
 1019TIP3    H224617   5.552   0.987   1.145 -1.1923 -1.5469  0.6713
 1020TIP3   OH224618   5.520   1.330   1.256  0.1367  0.0554 -0.5676
 1020TIP3    H124619   5.607   1.369   1.259  1.1086 -2.0296  0.0474
 1020TIP3    H224620   5.525   1.265   1.185 -0.9648  0.0123 -0.6228
 1021TIP3   OH224621   0.361   0.120   7.450  0.3291  0.1423 -0.3038
 1021TIP3    H124622   0.270   0.132   7.426  0.1638  1.8950  1.0071
 1021TIP3    H224623   0.380   0.190   7.512  2.5083 -0.3053 -0.3500
 1022TIP3   OH224624   3.636   5.719   2.634 -0.5257 -0.0178  0.0305
 1022TIP3    H124625   3.693   5.745   2.706 -0.8837 -0.1981  0.3779
 1022TIP3    H224626   3.551   5.701   2.675 -0.7008 -0.2265 -0.4188
 1023TIP3   OH224627   0.311   2.727   0.476 -0.3468  0.0189 -0.0921
 1023TIP3    H124628   0.281   2.811   0.444 -1.5812  0.0971  1.1576
 1023TIP3    H224629   0.349   2.746   0.562 -0.8896 -0.7233  0.3234
 1024TIP3   OH224630   0.411   4.532   3.069 -0.0255 -0.0262  0.0903
 1024TIP3    H124631   0.435   4.624   3.057 -0.9058  0.3641  1.1055
 1024TIP3    H224632   0.356   4.532   3.147 -0.0956 -1.4164  0.0670
 1025TIP3   OH224633   1.354   6.824   0.310  0.0845 -0.2275  1.3167
 1025TIP3    H124634   1.429   6.818   0.250 -0.4165 -1.4589  0.7757
 1025TIP3    H224635   1.323   6.733   0.318 -1.7124  0.3290  1.0664
 1026TIP3   OH224636   0.037   1.395   2.230  0.3129 -0.3386  0.0795
 1026TIP3    H124637   0.069   1.483   2.250  1.3209 -0.2310 -1.7820
 1026TIP3    H224638   0.065   1.379   2.140 -0.9056 -2.1009 -0.0471
 1027TIP3   OH224639   6.582   3.728   1.437  0.0152 -0.5649 -0.0050
 1027TIP3    H124640   6.550   3.778   1.512 -1.3662 -0.7022 -0.4836
 1027TIP3    H224641   6.514   3.736   1.371  1.7467  0.6113 -1.7631
 1028TIP3   OH224642   1.870   6.304   8.129  0.3233  0.4825  1.1057
 1028TIP3    H124643   1.811   6.336   8.061  0.1181  1.7431  1.8481
 1028TIP3    H224644   1.949   6.277   8.081 -0.1981  0.3909  0.2753
 1029TIP3   OH224645   1.439   3.058   7.344  0.0350  0.1155  0.4494
 1029TIP3    H124646   1.516   3.001   7.346 -0.9869 -1.3231  1.2657
 1029TIP3    H224647   1.380   3.015   7.281 -0.1366  1.1440 -0.1056
 1030TIP3   OH224648   3.781   2.702   2.112 -0.3088  0.7034 -0.2346
 1030TIP3    H124649   3.789   2.662   2.026 -1.8128 -1.3769  0.5084
 1030TIP3    H224650   3.858   2.672   2.161 -1.0567 -0.7964  0.0867
 1031TIP3   OH224651   5.932   5.157   1.430 -0.0739 -0.3061  0.5627
 1031TIP3    H124652   5.906   5.067   1.410 -0.2457  0.0260 -0.8489
 1031TIP3    H224653   5.957   5.194   1.345  1.4345  0.5320  1.3381
 1032TIP3   OH224654   2.314   1.015   0.945 -0.3451  0.1852 -0.3169
 1032TIP3    H124655   2.327   0.940   1.003 -1.8325  0.2166  0.0991
 1032TIP3    H224656   2.315   1.091   1.003  0.9974  0.4959 -0.7173
 1033TIP3   OH224657   0.404   2.341   1.723  0.6356 -0.0603 -0.0271
 1033TIP3    H124658   0.329   2.317   1.668  1.0897 -0.2292 -0.5911
 1033TIP3    H224659   0.370   2.405   1.785  0.3383  0.9402 -1.1907
 1034TIP3   OH224660   1.477   1.917   0.383  0.1362 -0.2519 -0.0544
 1034TIP3    H124661   1.543   1.849   0.368 -0.7108 -1.1877  0.3687
 1034TIP3    H224662   1.407   1.872   0.431 -0.0712  1.1106  0.9702
 1035TIP3   OH224663   6.405   0.764   0.974 -0.4187  0.1858  0.0171
 1035TIP3    H124664   6.365   0.685   0.937  0.2892  0.4143 -1.2964
 1035TIP3    H224665   6.360   0.836   0.931 -0.3415  0.4905  0.4371
 1036TIP3   OH224666   1.306   0.818   2.644 -0.1799  0.2241 -0.1439
 1036TIP3    H124667   1.280   0.785   2.558 -2.1095 -1.5693  1.0372
 1036TIP3    H224668   1.237   0.879   2.668 -0.4384 -0.4117  0.7473
 1037TIP3   OH224669   5.174   3.628   2.434 -0.5935 -0.6903 -0.1678
 1037TIP3    H124670   5.142   3.545   2.399  0.1836 -1.0084 -0.1471
 1037TIP3    H224671   5.214   3.672   2.359 -1.5258 -0.0589 -0.3110
 1038TIP3   OH224672   6.290   6.701   8.465  0.0563  0.0065  0.1631
 1038TIP3    H124673   6.207   6.656   8.452 -1.0692  2.4121 -1.7645
 1038TIP3    H224674   6.342   6.677   8.388  0.0433  0.7328 -0.0782
 1039TIP3   OH224675   2.064   0.795   8.418  0.0706 -0.3066 -0.2622
 1039TIP3    H124676   2.112   0.807   8.336 -0.6521 -0.7344 -0.7563
 1039TIP3    H224677   2.028   0.707   8.413 -0.2028 -0.2424  0.3997
 1040TIP3   OH224678   3.969   3.205   0.379 -0.3848  0.0516 -0.1506
 1040TIP3    H124679   4.056   3.242   0.373 -0.3234 -0.0083  0.3126
 1040TIP3    H224680   3.952   3.198   0.473 -0.3341 -1.2166 -0.2162
 1041TIP3   OH224681   4.183   4.590   3.217  0.9041 -0.2597  0.1878
 1041TIP3    H124682   4.244   4.551   3.154 -1.6397 -0.5018 -2.2986
 1041TIP3    H224683   4.171   4.680   3.186 -1.6097 -0.8479 -0.7659
 1042TIP3   OH224684   2.869   2.179   0.588  0.3615 -0.4491  0.2278
 1042TIP3    H124685   2.806   2.166   0.517  0.2819 -0.7004  0.3420
 1042TIP3    H224686   2.948   2.134   0.558  1.6185  2.5689 -1.3762
 1043TIP3   OH224687   6.505   1.693   7.809  0.2063 -0.4364  0.0564
 1043TIP3    H124688   6.518   1.711   7.716  0.5349 -0.1032  0.1679
 1043TIP3    H224689   6.580   1.733   7.852 -1.2393  1.6907  0.7247
 1044TIP3   OH224690   6.527   6.087   7.794  0.3499  0.1407  0.2831
 1044TIP3    H124691   6.484   6.142   7.859  2.1776 -1.0191  2.6195
 1044TIP3    H224692   6.456   6.054   7.739 -1.9451 -1.7428  3.9438
 1045TIP3   OH224693   3.628   0.277   0.495 -0.2792  0.1762  0.3142
 1045TIP3    H124694   3.721   0.281   0.515 -0.1136  0.4536 -0.4616
 1045TIP3    H224695   3.624   0.250   0.403 -0.9583  0.3308  0.2877
 1046TIP3   OH224696   6.687   5.686   1.426 -0.3276 -0.4342 -0.8653
 1046TIP3    H124697   6.632   5.685   1.505  0.7034 -1.6853 -0.1100
 1046TIP3    H224698   6.652   5.615   1.371  1.4929 -2.4662  0.4052
 1047TIP3   OH224699   0.449   6.009   0.306  0.5678  0.3217  0.4847
 1047TIP3    H124700   0.543   6.012   0.287  0.7255  0.6607  1.3041
 1047TIP3    H224701   0.407   6.020   0.220  1.2700  0.9741  0.2154
 1048TIP3   OH224702   0.137   1.707   2.213  0.0837  0.1613  0.1007
 1048TIP3    H124703   0.121   1.776   2.278  2.0794  0.7146  0.0605
 1048TIP3    H224704   0.207   1.742   2.158  1.0899 -1.8606  0.0371
 1049TIP3   OH224705   0.116   2.016   0.670  0.3758  0.2148 -0.2431
 1049TIP3    H124706   0.053   2.085   0.692  0.6620  0.2313  0.5642
 1049TIP3    H224707   0.173   2.011   0.747 -0.0902 -1.4255  0.0233
 1050TIP3   OH224708   3.530   4.014   1.105  0.3396  0.0772 -0.7085
 1050TIP3    H124709   3.548   3.973   1.021  2.1790  2.0905 -1.4156
 1050TIP3    H224710   3.611   4.003   1.155 -0.4366 -0.3639  0.5067
 1051TIP3   OH224711   5.397   5.688   1.376 -0.5611  0.0374 -0.2978
 1051TIP3    H124712   5.318   5.718   1.421  0.0642  0.7046  0.3610
 1051TIP3    H224713   5.427   5.764   1.326 -1.6641 -0.8793 -2.5238
 1052TIP3   OH224714   4.329   6.438   1.473  0.2261 -0.3538 -0.2888
 1052TIP3    H124715   4.300   6.361   1.523  1.5117 -2.0514 -2.0058
 1052TIP3    H224716   4.415   6.459   1.509 -1.0508  1.8926  1.7826
 1053TIP3   OH224717   4.567   3.526   2.042 -0.2723 -0.5780  0.1391
 1053TIP3    H124718   4.559   3.547   2.135 -0.4151 -1.7111  0.4019
 1053TIP3    H224719   4.527   3.600   1.996 -1.6054 -0.7084  1.0328
 1054TIP3   OH224720   2.366   3.044   3.114  0.0556  0.6129  0.4089
 1054TIP3    H124721   2.323   3.088   3.040  0.8004  0.6201 -0.0283
 1054TIP3    H224722   2.322   3.079   3.191 -3.4266 -2.1558 -0.0654
 1055TIP3   OH224723   6.544   4.498   7.339  0.2201  0.3155 -0.0775
 1055TIP3    H124724   6.637   4.484   7.356  0.4479  2.2717  0.5354
 1055TIP3    H224725   6.531   4.466   7.250  1.6038  0.5162 -0.3811
 1056TIP3   OH224726   4.032   1.641   8.661 -0.0067  0.0733  0.0441
 1056TIP3    H124727   3.978   1.657   8.739 -0.0932 -1.0913  0.2509
 1056TIP3    H224728   4.094   1.573   8.689 -0.3822 -0.7472 -1.0493
 1057TIP3   OH224729   1.117   5.142   2.201  0.4035  0.9737  0.7463
 1057TIP3    H124730   1.177   5.075   2.168  0.5550  1.6351 -0.3862
 1057TIP3    H224731   1.135   5.146   2.295 -0.4853 -1.4302  1.0932
 1058TIP3   OH224732   3.783   6.758   1.877  0.0177  0.4694  0.1884
 1058TIP3    H124733   3.861   6.798   1.917  0.8166 -0.6551 -0.1686
 1058TIP3    H224734   3.811   6.737   1.788 -1.1031  1.1298 -0.3349
 1059TIP3   OH224735   6.255   4.850   0.720  0.0161  0.6197 -0.3137
 1059TIP3    H124736   6.312   4.777   0.745 -0.3299  0.3979 -0.1753
 1059TIP3    H224737   6.239   4.898   0.802  0.5684  1.0862 -0.4704
 1060TIP3   OH224738   2.036   4.729   7.837  0.7204  0.0607  0.6621
 1060TIP3    H124739   2.067   4.801   7.892  2.6396  0.3462 -0.7074
 1060TIP3    H224740   2.113   4.674   7.824  0.2387 -0.1988 -1.4023
 1061TIP3   OH224741   0.267   0.193   1.679  0.0571  0.4437  0.0966
 1061TIP3    H124742   0.250   0.155   1.592 -1.7080 -1.9147  1.3368
 1061TIP3    H224743   0.212   0.271   1.683 -1.6673 -0.7079 -0.1475
 1062TIP3   OH224744   3.612   0.213   2.984  0.2134  0.4331  0.8887
 1062TIP3    H124745   3.643   0.187   2.897 -0.4876  1.0515  0.4477
 1062TIP3    H224746   3.688   0.254   3.025  1.2237 -1.8161  1.4272
 1063TIP3   OH224747   4.160   3.039   1.402 -0.1772 -0.4482 -0.0392
 1063TIP3    H124748   4.141   3.072   1.314  1.1271 -0.8522 -0.4919
 1063TIP3    H224749   4.248   3.072   1.421 -0.1865 -0.9220  0.8439
 1064TIP3   OH224750   0.782   2.735   0.182  0.3392  0.1706 -0.5749
 1064TIP3    H124751   0.740   2.665   0.132  0.2907  0.3801 -0.8363
 1064TIP3    H224752   0.713   2.767   0.241  1.0514 -1.6579  1.3691
 1065TIP3   OH224753   4.522   5.248   1.058  0.5721  0.2711  0.3009
 1065TIP3    H124754   4.529   5.188   0.983 -0.4473 -0.9855  1.1748
 1065TIP3    H224755   4.466   5.319   1.026  0.5652  0.0126 -0.2804
 1066TIP3   OH224756   1.519   0.257   1.822 -0.4057  0.2230 -0.0771
 1066TIP3    H124757   1.547   0.339   1.781  0.2884  1.1605  2.1034
 1066TIP3    H224758   1.578   0.245   1.896 -2.6647 -0.3398  1.7909
 1067TIP3   OH224759   1.775   1.101   7.433 -0.5533  0.1249  0.0878
 1067TIP3    H124760   1.845   1.154   7.394  0.3131 -1.8755 -1.3144
 1067TIP3    H224761   1.820   1.022   7.463 -1.7119  0.2928  2.4966
 1068TIP3   OH224762   3.999   4.056   1.655  0.3731 -0.3155  0.3324
 1068TIP3    H124763   3.962   3.988   1.599  0.8545  0.3086 -0.7840
 1068TIP3    H224764   3.976   4.138   1.611 -1.2045  0.3407  2.2562
 1069TIP3   OH224765   4.661   6.385   2.572  0.1628  1.0655  0.1285
 1069TIP3    H124766   4.663   6.412   2.663  0.3324 -1.0182  0.8110
 1069TIP3    H224767   4.752   6.368   2.549  0.0095  0.3113  0.0232
 1070TIP3   OH224768   4.395   5.854   1.346  0.1819 -0.2303  0.2136
 1070TIP3    H124769   4.417   5.785   1.408  1.3164 -0.5937 -0.5547
 1070TIP3    H224770   4.320   5.820   1.298  1.1241 -1.2371 -0.5993
 1071TIP3   OH224771   1.884   3.055   2.299  0.2139  0.8805 -0.3959
 1071TIP3    H124772   1.856   3.141   2.331 -1.6843 -0.0398  0.6142
 1071TIP3    H224773   1.972   3.043   2.335 -1.1663  0.5981  3.3290
 1072TIP3   OH224774   2.934   0.956   1.760 -0.0216  0.0784  0.4777
 1072TIP3    H124775   2.980   1.021   1.707 -0.1680  0.2925  0.6128
 1072TIP3    H224776   2.877   1.007   1.817 -0.6235 -0.1986  0.1294
 1073TIP3   OH224777   1.763   5.983   0.060  0.2241 -0.0318  0.4422
 1073TIP3    H124778   1.813   6.022   0.132  2.3912 -3.1142  0.8053
 1073TIP3    H224779   1.785   5.890   0.064 -1.3318 -0.6667 -2.8692
 1074TIP3   OH224780   3.437   2.064   1.734  0.9423  0.2670  0.3332
 1074TIP3    H124781   3.443   2.131   1.802 -1.0745  0.4623  0.3744
 1074TIP3    H224782   3.451   2.111   1.652  1.3654  0.3939  0.4775
 1075TIP3   OH224783   5.908   2.651   2.887 -0.3780  0.3776 -0.1176
 1075TIP3    H124784   5.948   2.565   2.903 -2.0477 -0.6680 -1.2454
 1075TIP3    H224785   5.936   2.704   2.961  0.9280 -1.0500  0.4757
 1076TIP3   OH224786   1.863   5.774   0.679 -0.0276  1.1237 -0.0925
 1076TIP3    H124787   1.878   5.844   0.615 -1.5370  1.7458  0.2117
 1076TIP3    H224788   1.900   5.808   0.761  1.0356  0.7171 -0.3782
 1077TIP3   OH224789   4.625   4.003   0.185  0.4804 -0.0128 -0.2543
 1077TIP3    H124790   4.569   4.063   0.137  0.0815  0.7193  1.0675
 1077TIP3    H224791   4.688   4.060   0.230  0.7495 -0.6535  0.1985
 1078TIP3   OH224792   6.270   0.437   1.276  0.5490 -0.2915 -0.8439
 1078TIP3    H124793   6.303   0.374   1.341  0.2837 -1.4664 -1.8048
 1078TIP3    H224794   6.211   0.385   1.222 -1.1069  1.2271 -0.5681
 1079TIP3   OH224795   3.187   4.544   2.452  0.2949 -0.4470  1.0086
 1079TIP3    H124796   3.112   4.486   2.439 -0.9774  1.1565  0.8322
 1079TIP3    H224797   3.219   4.562   2.364  0.8100 -1.0070  1.0749
 1080TIP3   OH224798   4.035   4.043   7.990  0.0769  0.0980 -0.7244
 1080TIP3    H124799   3.983   4.110   8.035 -0.5685 -1.1890  0.5290
 1080TIP3    H224800   4.002   4.044   7.900 -1.5807 -0.1184 -0.1590
 1081TIP3   OH224801   2.801   0.960   2.150 -0.6206 -0.4892 -0.1943
 1081TIP3    H124802   2.879   0.934   2.198 -0.2180 -1.4260 -1.3089
 1081TIP3    H224803   2.765   0.878   2.116  0.8853  0.2610 -4.1309
 1082TIP3   OH224804   4.600   6.765   1.666 -0.2604 -0.4287 -0.1539
 1082TIP3    H124805   4.554   6.762   1.582 -1.0909  0.3947  0.2590
 1082TIP3    H224806   4.534   6.740   1.730 -0.0615  0.4879  0.4156
 1083TIP3   OH224807   5.527   3.174   8.548  0.6711 -0.1687 -0.2411
 1083TIP3    H124808   5.527   3.112   8.621  1.0691 -0.2548 -0.3121
 1083TIP3    H224809   5.549   3.121   8.472  0.1417 -0.1021 -0.4474
 1084TIP3   OH224810   4.615   4.390   2.226  0.3992  0.2655 -0.1683
 1084TIP3    H124811   4.666   4.468   2.206  1.3952  0.0370  1.3555
 1084TIP3    H224812   4.668   4.317   2.194  0.2563  0.1179 -0.0720
 1085TIP3   OH224813   3.939   4.494   1.983  0.9274  0.4192  0.8602
 1085TIP3    H124814   3.999   4.529   2.049  0.0128 -0.2344  2.0972
 1085TIP3    H224815   3.995   4.444   1.923  1.5094 -1.6526  2.9774
 1086TIP3   OH224816   4.336   2.231   1.087 -0.1309 -0.3414  0.0863
 1086TIP3    H124817   4.328   2.269   1.174  1.9073  2.3628 -0.7565
 1086TIP3    H224818   4.395   2.156   1.098  0.6920  0.4201  0.9282
 1087TIP3   OH224819   5.632   6.454   1.678 -0.3676  0.8388 -0.6509
 1087TIP3    H124820   5.648   6.360   1.687  2.0532  1.2712  0.4286
 1087TIP3    H224821   5.550   6.468   1.725  0.6774 -0.3777  1.7247
 1088TIP3   OH224822   4.712   2.694   2.802  0.1094 -0.3010  0.4918
 1088TIP3    H124823   4.759   2.776   2.788  1.5852 -1.3553 -1.0958
 1088TIP3    H224824   4.634   2.719   2.851  0.3710  2.0818 -0.1975
 1089TIP3   OH224825   1.276   3.564   0.696  0.5606  0.3506 -0.4661
 1089TIP3    H124826   1.326   3.508   0.755  0.0201 -0.9405 -1.1960
 1089TIP3    H224827   1.185   3.551   0.723  0.5227  2.3860  0.6068
 1090TIP3   OH224828   4.261   6.149   1.694 -0.0536 -0.9913  0.0201
 1090TIP3    H124829   4.309   6.180   1.770 -1.2046 -0.3370  0.5020
 1090TIP3    H224830   4.271   6.054   1.697  0.5010 -0.9223  0.5762
 1091TIP3   OH224831   2.532   3.206   0.725 -0.1461 -0.6506 -0.0271
 1091TIP3    H124832   2.543   3.211   0.630  0.4529 -0.1709  0.0623
 1091TIP3    H224833   2.620   3.222   0.760 -1.0917  4.4511  0.7572
 1092TIP3   OH224834   5.283   5.472   2.504  0.1742  0.0651  0.3339
 1092TIP3    H124835   5.322   5.543   2.554 -0.3015  0.0195  0.7783
 1092TIP3    H224836   5.189   5.480   2.521 -0.1121  0.6687 -1.3451
 1093TIP3   OH224837   3.952   2.933   0.854 -0.0624  0.0318  0.3309
 1093TIP3    H124838   3.971   2.857   0.799  0.2966 -0.5261  1.1946
 1093TIP3    H224839   3.951   3.007   0.794 -2.4395 -0.8763 -0.8942
 1094TIP3   OH224840   5.476   0.509   2.685  0.2791 -0.7183  0.2671
 1094TIP3    H124841   5.552   0.452   2.673 -0.4818 -1.5074 -1.0609
 1094TIP3    H224842   5.465   0.514   2.780 -0.2282 -3.6574  0.4501
 1095TIP3   OH224843   5.080   1.904   0.561  0.5052  0.8416 -0.1246
 1095TIP3    H124844   5.020   1.834   0.535  1.9481 -0.6049  0.2872
 1095TIP3    H224845   5.044   1.937   0.644 -0.1238  0.5170 -0.2597
 1096TIP3   OH224846   4.634   6.565   0.922  0.3710 -0.0494  0.2429
 1096TIP3    H124847   4.576   6.530   0.854  0.9860  1.9268 -1.4254
 1096TIP3    H224848   4.576   6.615   0.980  0.2534  1.5608 -1.1713
 1097TIP3   OH224849   1.685   0.293   8.243  0.8262  0.1080 -0.0894
 1097TIP3    H124850   1.769   0.320   8.207  1.9813 -0.3276  2.1055
 1097TIP3    H224851   1.707   0.239   8.318 -1.4256 -2.7324 -1.2820
 1098TIP3   OH224852   0.266   5.166   8.696  0.2236 -0.4975  0.3081
 1098TIP3    H124853   0.276   5.229   8.767  0.0259  0.7124 -0.6950
 1098TIP3    H224854   0.340   5.107   8.705 -0.6137 -1.2876  2.3989
 1099TIP3   OH224855   2.342   0.756   2.084 -0.0938 -0.0171  0.5827
 1099TIP3    H124856   2.413   0.698   2.059  0.0843  0.3111  0.3069
 1099TIP3    H224857   2.369   0.794   2.168 -2.1082 -3.5390  3.0900
 1100TIP3   OH224858   3.789   2.089   1.686  0.3235 -0.7386  0.3801
 1100TIP3    H124859   3.729   2.147   1.638 -1.4133 -2.1416  0.7664
 1100TIP3    H224860   3.820   2.143   1.759  0.1921  0.2835 -0.2890
 1101TIP3   OH224861   2.862   0.742   1.443  0.0435  0.3917  0.4938
 1101TIP3    H124862   2.815   0.698   1.372  1.0621  0.2601 -0.1081
 1101TIP3    H224863   2.825   0.831   1.445 -0.8894  0.0117  0.6631
 1102TIP3   OH224864   5.421   3.194   2.986  0.6049  0.0106 -0.2428
 1102TIP3    H124865   5.410   3.289   2.982 -1.1230 -0.1410  0.1094
 1102TIP3    H224866   5.510   3.181   3.019  1.6187  1.4728 -2.2173
 1103TIP3   OH224867   3.085   2.830   1.841  0.4306 -0.0136 -0.2228
 1103TIP3    H124868   3.094   2.761   1.775 -0.9338 -0.0688 -0.3678
 1103TIP3    H224869   3.006   2.808   1.889 -1.0633  2.3325 -1.3968
 1104TIP3   OH224870   4.408   4.523   7.905 -0.3808 -0.2654  0.0757
 1104TIP3    H124871   4.344   4.459   7.874  0.3536 -1.0423  0.1434
 1104TIP3    H224872   4.382   4.605   7.862 -2.4012 -0.1624  1.3614
 1105TIP3   OH224873   6.618   1.290   1.900  0.6976  0.4945 -0.6333
 1105TIP3    H124874   6.540   1.339   1.876  0.6590  0.5819 -0.3423
 1105TIP3    H224875   6.662   1.346   1.964 -0.0779 -0.4494  0.7881
 1106TIP3   OH224876   0.621   6.310   7.288 -0.4914  0.3715 -0.0773
 1106TIP3    H124877   0.646   6.259   7.212  0.2908 -0.9122  1.0043
 1106TIP3    H224878   0.525   6.319   7.281 -0.5304 -0.4996 -0.7265
 1107TIP3   OH224879   2.281   5.225   0.721  0.1429  0.4152  0.2380
 1107TIP3    H124880   2.284   5.286   0.794  0.3398 -1.1647  1.6282
 1107TIP3    H224881   2.214   5.261   0.662 -0.4101  1.4637  1.4547
 1108TIP3   OH224882   0.180   3.542   0.492  0.6787  0.0614  0.2433
 1108TIP3    H124883   0.099   3.578   0.527  0.0848 -1.2514  0.2726
 1108TIP3    H224884   0.222   3.616   0.448 -1.1751  0.4639 -0.9573
 1109TIP3   OH224885   6.568   2.290   3.366 -0.1624 -0.4450  0.8641
 1109TIP3    H124886   6.526   2.290   3.280  0.5900  0.5098  0.4758
 1109TIP3    H224887   6.660   2.309   3.347 -0.2357  1.1762  1.9813
 1110TIP3   OH224888   5.006   4.528   2.652  0.1261 -0.4193 -0.0887
 1110TIP3    H124889   5.027   4.436   2.637  2.0485  0.0982 -0.8021
 1110TIP3    H224890   4.951   4.552   2.577  1.5739 -0.3976 -1.1724
 1111TIP3   OH224891   0.070   4.026   0.166  0.3121  0.3135 -0.0808
 1111TIP3    H124892   0.061   4.089   0.239  1.6240  0.7997 -0.2971
 1111TIP3    H224893  -0.018   4.017   0.131 -0.5051 -0.4953  2.0173
 1112TIP3   OH224894   0.030   2.597   8.002  0.4214  0.4102  0.6828
 1112TIP3    H124895  -0.016   2.513   7.991 -0.3607  0.5594  2.5332
 1112TIP3    H224896   0.119   2.572   8.026  0.9330  0.1411 -1.2541
 1113TIP3   OH224897   0.656   1.453   1.447  0.0218 -0.1401  0.4969
 1113TIP3    H124898   0.586   1.482   1.505  1.0702  1.5556  0.9888
 1113TIP3    H224899   0.736   1.486   1.488  0.7162  2.5793 -2.6739
 1114TIP3   OH224900   2.060   2.227   2.781  0.3228  0.5449  0.3725
 1114TIP3    H124901   2.103   2.142   2.770  0.6808  0.7721 -0.0153
 1114TIP3    H224902   1.969   2.211   2.757 -0.0598 -0.1818  2.2161
 1115TIP3   OH224903   3.213   4.790   2.704  0.2428  0.5859 -0.0938
 1115TIP3    H124904   3.306   4.808   2.692 -0.0616  1.1394 -1.8767
 1115TIP3    H224905   3.168   4.865   2.665 -0.9648 -0.3475 -0.5653
 1116TIP3   OH224906   5.906   0.203   7.425 -0.4176 -0.5083 -0.0614
 1116TIP3    H124907   5.864   0.233   7.344  0.5826 -0.8237 -0.7168
 1116TIP3    H224908   5.991   0.246   7.425  0.3841 -2.0161 -0.1855
 1117TIP3   OH224909   2.886   3.517   0.403 -0.2290  0.4767 -0.0639
 1117TIP3    H124910   2.954   3.552   0.345  0.9636  0.4646  1.2843
 1117TIP3    H224911   2.902   3.423   0.405 -0.0529  0.5203  0.5586
 1118TIP3   OH224912   0.421   0.733   8.404  0.4039  0.1328 -0.1601
 1118TIP3    H124913   0.400   0.813   8.356  0.2056 -0.2634 -0.7601
 1118TIP3    H224914   0.498   0.698   8.358  0.0340 -0.4061 -0.3723
 1119TIP3   OH224915   0.722   0.612   2.316 -0.0961 -1.0858  0.0486
 1119TIP3    H124916   0.761   0.573   2.394  1.6648  0.3467 -0.0574
 1119TIP3    H224917   0.646   0.660   2.349  0.2970 -0.9698  0.8173
 1120TIP3   OH224918   4.596   1.056   0.508  0.0357 -0.2167  0.0624
 1120TIP3    H124919   4.568   0.966   0.492  2.5376 -0.9911 -0.3008
 1120TIP3    H224920   4.690   1.055   0.494  0.0733  2.5834 -0.3972
 1121TIP3   OH224921   3.699   3.965   0.615 -0.2950 -0.0623 -0.0377
 1121TIP3    H124922   3.736   3.877   0.602  0.8816  0.2238  1.1807
 1121TIP3    H224923   3.623   3.967   0.557  0.0061 -1.6677 -0.5545
 1122TIP3   OH224924   1.433   3.772   0.304  0.2546 -0.2037  0.4340
 1122TIP3    H124925   1.438   3.699   0.367  2.5653 -0.3928  0.1095
 1122TIP3    H224926   1.392   3.843   0.354 -1.6845 -1.5274  0.8785
 1123TIP3   OH224927   1.468   4.924   2.061 -0.1338  0.0487  0.2946
 1123TIP3    H124928   1.524   4.930   2.138 -0.0897 -0.4021  0.2980
 1123TIP3    H224929   1.489   5.003   2.011 -0.7009  0.7177  1.0948
 1124TIP3   OH224930   0.711   6.646   0.003  0.8535 -0.2225 -0.6043
 1124TIP3    H124931   0.643   6.667   0.067 -0.1119 -2.4295 -0.7890
 1124TIP3    H224932   0.698   6.708  -0.068  0.1522  0.5081  0.1434
 1125TIP3   OH224933   5.238   5.738   1.096 -0.1484  0.1756 -0.5737
 1125TIP3    H124934   5.233   5.819   1.148  1.7351  1.4307 -2.2181
 1125TIP3    H224935   5.331   5.727   1.078 -0.5420 -1.4493 -1.8301
 1126TIP3   OH224936   1.848   1.992   8.113 -0.9022  0.1938 -0.8459
 1126TIP3    H124937   1.840   2.002   8.018 -0.6810 -0.2616 -0.9137
 1126TIP3    H224938   1.769   2.035   8.148 -0.2987  1.6129 -1.1482
 1127TIP3   OH224939   2.078   3.691   7.018  0.5924 -0.0999 -0.2702
 1127TIP3    H124940   2.011   3.692   7.087 -1.3720 -1.9894 -2.0030
 1127TIP3    H224941   2.098   3.598   7.006  2.0103  0.2997 -1.2331
 1128TIP3   OH224942   4.300   1.313   3.135  0.0502 -0.4185  0.4024
 1128TIP3    H124943   4.268   1.225   3.114  0.5849 -0.8106  1.1625
 1128TIP3    H224944   4.342   1.303   3.221 -0.6000  0.7544  0.8855
 1129TIP3   OH224945   0.702   4.035   7.634  0.0518 -0.1465  0.6746
 1129TIP3    H124946   0.619   3.994   7.655  0.2364 -0.2482  1.2262
 1129TIP3    H224947   0.686   4.129   7.643 -0.1441 -0.1409  0.2551
 1130TIP3   OH224948   1.696   1.354   1.328 -0.5029 -0.1043  0.6885
 1130TIP3    H124949   1.642   1.313   1.260 -0.9721  0.5492  0.6603
 1130TIP3    H224950   1.723   1.437   1.290  0.4194 -0.3518  0.7610
 1131TIP3   OH224951   1.884   2.252   3.389  0.3663 -0.4980  0.0317
 1131TIP3    H124952   1.887   2.272   3.295 -1.8140 -1.8765 -0.3883
 1131TIP3    H224953   1.896   2.157   3.393  0.4698 -0.4472  1.1620
 1132TIP3   OH224954   6.299   4.625   7.352  0.5791  0.5328  0.1934
 1132TIP3    H124955   6.380   4.574   7.364  0.0708 -1.0494 -2.3138
 1132TIP3    H224956   6.229   4.561   7.363 -0.2642  1.5210  0.6668
 1133TIP3   OH224957   3.250   5.610   0.115  0.3867  0.1975 -0.7849
 1133TIP3    H124958   3.278   5.539   0.173  0.6378 -1.0387 -2.3312
 1133TIP3    H224959   3.327   5.628   0.061  0.4290  1.9238 -0.1812
 1134TIP3   OH224960   5.518   4.033   2.048  0.2677 -0.5374 -0.2126
 1134TIP3    H124961   5.552   4.021   2.137 -0.1215  0.7411  0.1315
 1134TIP3    H224962   5.423   4.042   2.060  0.1952 -0.5311 -0.7792
 1135TIP3   OH224963   2.201   2.362   1.074 -0.4681  0.9627 -0.2914
 1135TIP3    H124964   2.246   2.387   1.155  0.4557  0.4358 -0.6310
 1135TIP3    H224965   2.271   2.332   1.016 -1.3173 -0.5732 -0.5736
 1136TIP3   OH224966   1.377   1.365   0.695  0.0786  0.0419 -1.3156
 1136TIP3    H124967   1.412   1.454   0.697  1.0010 -0.3181  0.1532
 1136TIP3    H224968   1.437   1.316   0.639 -0.4649  0.3315 -2.1762
 1137TIP3   OH224969   3.087   4.170   1.996 -0.4011 -0.6190  0.4618
 1137TIP3    H124970   3.034   4.132   1.926  0.2704 -0.6703 -0.0273
 1137TIP3    H224971   3.168   4.119   1.995 -0.1160 -0.1767  0.8265
 1138TIP3   OH224972   1.470   6.432   2.146  0.0034  0.4201  0.1753
 1138TIP3    H124973   1.410   6.398   2.080  0.4322  0.9555 -0.4979
 1138TIP3    H224974   1.529   6.489   2.098  1.5793 -0.7066  0.6787
 1139TIP3   OH224975   5.122   6.704   0.519 -0.0047  0.6232  0.4188
 1139TIP3    H124976   5.135   6.616   0.554  0.8940  0.5789 -0.0027
 1139TIP3    H224977   5.029   6.708   0.500 -0.0115 -0.3425  0.1776
 1140TIP3   OH224978   1.746   5.111   1.713 -0.2431  0.3618 -0.3126
 1140TIP3    H124979   1.757   5.109   1.618  1.7579 -1.4098 -0.1163
 1140TIP3    H224980   1.657   5.144   1.726 -1.6364 -1.9498 -2.8857
 1141TIP3   OH224981   5.705   6.630   1.516 -0.0208 -0.4576  0.4384
 1141TIP3    H124982   5.672   6.556   1.565  1.8128 -0.9553  1.0303
 1141TIP3    H224983   5.660   6.706   1.553 -2.3337 -1.2531 -0.5577
 1142TIP3   OH224984   5.695   1.795   7.835  0.5233  0.0817 -0.2606
 1142TIP3    H124985   5.767   1.762   7.781  1.4935  0.4654  0.7650
 1142TIP3    H224986   5.738   1.840   7.907 -0.7528  3.0870 -1.2544
 1143TIP3   OH224987   0.217   1.829   1.216 -0.5171 -0.3273  0.3783
 1143TIP3    H124988   0.261   1.820   1.301 -1.8730  0.9598  1.2777
 1143TIP3    H224989   0.156   1.902   1.229 -2.1459 -1.3604 -1.1287
 1144TIP3   OH224990   4.978   6.048   1.726 -0.0897  0.8850  0.3636
 1144TIP3    H124991   4.916   6.043   1.654  0.7995  1.6784 -0.4782
 1144TIP3    H224992   4.936   6.104   1.791 -0.3234  1.2927 -0.1371
 1145TIP3   OH224993   0.664   4.223   7.910  0.1091  0.1298 -0.1146
 1145TIP3    H124994   0.739   4.167   7.930  1.4619  2.5483  2.0802
 1145TIP3    H224995   0.687   4.265   7.827  0.3666 -0.4200 -0.3292
 1146TIP3   OH224996   3.763   0.861   1.967 -0.3784 -0.5406 -0.8621
 1146TIP3    H124997   3.679   0.893   1.935 -1.3100 -2.4010 -0.3778
 1146TIP3    H224998   3.828   0.912   1.918 -1.6668  3.1961  0.9571
 1147TIP3   OH224999   3.548   0.386   8.276 -0.2971 -0.1758  0.3134
 1147TIP3    H125000   3.626   0.442   8.265  0.4575 -1.1652  0.4716
 1147TIP3    H225001   3.531   0.352   8.188  0.0460 -0.7099  0.4451
 1148TIP3   OH225002   5.833   0.086   8.097  0.0292 -0.1585 -0.3932
 1148TIP3    H125003   5.921   0.051   8.084  0.2432 -0.3224  1.2966
 1148TIP3    H225004   5.788   0.069   8.014  1.9439  1.1102 -1.7654
 1149TIP3   OH225005   3.480   1.107   1.347  0.6574  0.0848  0.0037
 1149TIP3    H125006   3.524   1.058   1.277 -2.0573  1.7952 -3.1494
 1149TIP3    H225007   3.522   1.193   1.345  0.7149  0.0751  0.6880
 1150TIP3   OH225008   5.666   5.224   1.479 -0.2188  0.2641 -0.2422
 1150TIP3    H125009   5.755   5.197   1.455 -1.3409 -2.4263 -1.8652
 1150TIP3    H225010   5.626   5.250   1.396 -1.8780 -1.7001 -0.1214
 1151TIP3   OH225011   4.852   3.012   1.115  0.4064  0.1534  0.5460
 1151TIP3    H125012   4.884   3.050   1.196  0.7835 -1.3937  1.1509
 1151TIP3    H225013   4.832   3.088   1.059  0.7112  1.2208  1.8414
 1152TIP3   OH225014   4.735   3.653   0.447  0.1785 -0.4577 -0.3968
 1152TIP3    H125015   4.815   3.613   0.412 -1.4170 -2.6518 -1.7528
 1152TIP3    H225016   4.688   3.683   0.369 -0.3635  0.8019  0.3815
 1153TIP3   OH225017   0.174   5.446   8.602  0.3132 -0.2212  0.0906
 1153TIP3    H125018   0.217   5.394   8.670 -0.4696  0.1214  0.8663
 1153TIP3    H225019   0.119   5.383   8.555 -0.6520 -0.1330  1.0427
 1154TIP3   OH225020   3.374   5.337   0.813  0.2303 -0.8683  0.2359
 1154TIP3    H125021   3.345   5.359   0.901  1.5074  0.5197  0.3432
 1154TIP3    H225022   3.295   5.305   0.769 -0.9903  0.7869  1.1295
 1155TIP3   OH225023   4.386   0.209   7.916  0.1758  0.2141  0.0694
 1155TIP3    H125024   4.482   0.215   7.923  0.1582  0.8128 -0.1266
 1155TIP3    H225025   4.364   0.269   7.845 -0.5279  1.6963  1.4677
 1156TIP3   OH225026   5.775   3.668   2.652  0.0769 -0.0804 -0.5614
 1156TIP3    H125027   5.728   3.586   2.661  1.1114 -0.5639  0.6743
 1156TIP3    H225028   5.707   3.735   2.653 -0.6386 -0.7934  0.7310
 1157TIP3   OH225029   2.531   6.690   8.110  0.0224 -0.2846 -0.3653
 1157TIP3    H125030   2.523   6.784   8.127  0.1794 -0.2599 -0.4271
 1157TIP3    H225031   2.451   6.668   8.062  1.4558  0.5162 -3.3865
 1158TIP3   OH225032   0.741   4.660   2.457  0.0117 -0.6760 -0.3040
 1158TIP3    H125033   0.752   4.601   2.382 -0.3568  0.1477 -1.0200
 1158TIP3    H225034   0.646   4.670   2.465  0.0908  0.4487 -0.6939
 1159TIP3   OH225035   0.898   6.475   7.769 -0.2384  0.1635  0.0345
 1159TIP3    H125036   0.908   6.560   7.727  1.2579  0.0466  0.1180
 1159TIP3    H225037   0.869   6.417   7.699 -1.4069  0.7458  0.0069
 1160TIP3   OH225038   4.251   3.892   1.462 -0.3344 -0.2927  0.4911
 1160TIP3    H125039   4.164   3.889   1.423  0.5495 -1.5772 -1.5712
 1160TIP3    H225040   4.300   3.823   1.417  1.8262  0.5601  1.3826
 1161TIP3   OH225041   1.503   5.726   8.520 -0.0643 -0.1985  0.7606
 1161TIP3    H125042   1.581   5.777   8.502  0.2772 -0.0913  2.3490
 1161TIP3    H225043   1.487   5.675   8.441  2.1861 -0.9520  0.7314
 1162TIP3   OH225044   6.352   1.656   8.283  0.4557 -0.1743  0.1749
 1162TIP3    H125045   6.283   1.698   8.336 -0.7129 -0.5572 -0.9857
 1162TIP3    H225046   6.389   1.590   8.341  1.8302  1.8983  1.7894
 1163TIP3   OH225047   3.537   5.738   1.110 -0.5619 -0.3057  0.3186
 1163TIP3    H125048   3.622   5.777   1.130 -1.5971  2.1643  0.3416
 1163TIP3    H225049   3.538   5.653   1.154  2.5092 -1.1901 -1.1403
 1164TIP3   OH225050   2.672   5.663   2.227  0.2668  0.1455  0.2884
 1164TIP3    H125051   2.598   5.711   2.263 -0.8404 -1.0423 -0.2922
 1164TIP3    H225052   2.638   5.623   2.147  1.3196 -1.0220  0.3853
 1165TIP3   OH225053   5.884   0.534   8.004 -0.0204  0.1215  0.1435
 1165TIP3    H125054   5.924   0.596   7.943 -0.0802  0.6866  0.6619
 1165TIP3    H225055   5.945   0.531   8.078 -0.5894  0.4716  0.6363
 1166TIP3   OH225056   6.733   4.947   0.550 -0.1054 -0.5338  0.0036
 1166TIP3    H125057   6.743   4.859   0.515 -2.5009 -1.1561  0.7024
 1166TIP3    H225058   6.722   5.003   0.473  0.1444 -1.0171 -0.3889
 1167TIP3   OH225059   5.333   0.029   0.773 -0.3698 -0.2163  0.0346
 1167TIP3    H125060   5.339   0.078   0.856 -1.5571 -0.7870  0.4751
 1167TIP3    H225061   5.424   0.007   0.752  0.0650  0.9752  0.5452
 1168TIP3   OH225062   1.278   4.375   0.096  0.0813  0.2259 -0.2000
 1168TIP3    H125063   1.201   4.432   0.101  0.2948  0.4452  0.9688
 1168TIP3    H225064   1.261   4.317   0.022 -1.2877  0.1541  0.1557
 1169TIP3   OH225065   4.348   0.802   1.310 -0.0059 -0.8879  0.7157
 1169TIP3    H125066   4.431   0.783   1.354  0.6322  0.5611  0.2048
 1169TIP3    H225067   4.366   0.882   1.259 -1.2698 -1.4171 -0.6254
 1170TIP3   OH225068   4.457   3.401   3.157  0.6742  0.1664  0.1484
 1170TIP3    H125069   4.381   3.343   3.163  1.5747 -0.8447  3.3380
 1170TIP3    H225070   4.530   3.349   3.190  2.7691  1.2397 -2.4137
 1171TIP3   OH225071   1.718   1.685   0.333  0.5208 -0.5948  0.3247
 1171TIP3    H125072   1.656   1.625   0.292  0.4738 -0.1249 -0.3105
 1171TIP3    H225073   1.803   1.657   0.300  0.4357  0.1135 -0.5443
 1172TIP3   OH225074   2.628   1.239   0.923  0.0673  0.2527 -0.0854
 1172TIP3    H125075   2.674   1.159   0.898 -0.5290 -0.6477  1.5205
 1172TIP3    H225076   2.538   1.226   0.893 -0.8118 -1.1146  2.8414
 1173TIP3   OH225077   0.300   2.123   8.504 -0.1601 -0.1637  0.2606
 1173TIP3    H125078   0.376   2.076   8.468 -0.2362 -0.4106  0.4275
 1173TIP3    H225079   0.280   2.078   8.585  0.9017  1.2554  1.3641
 1174TIP3   OH225080   3.194   2.551   7.719 -0.1416  0.2302 -0.0275
 1174TIP3    H125081   3.276   2.597   7.739  0.5631 -0.9461 -0.1253
 1174TIP3    H225082   3.133   2.581   7.787  0.6104  0.5068  0.5450
 1175TIP3   OH225083   5.950   0.935   8.667 -0.3559 -0.3381 -0.1986
 1175TIP3    H125084   6.000   1.012   8.692  2.1216 -1.7630 -0.3485
 1175TIP3    H225085   5.880   0.968   8.612  0.4587  1.8151 -0.0282
 1176TIP3   OH225086   1.718   4.507   3.162 -0.2914  0.1998  0.1003
 1176TIP3    H125087   1.779   4.580   3.160  0.1785 -0.1133  1.5328
 1176TIP3    H225088   1.772   4.431   3.184 -1.0511 -0.2523  0.4429
 1177TIP3   OH225089   3.197   5.982   8.507 -0.4153  0.2615  0.5136
 1177TIP3    H125090   3.115   5.944   8.473  0.8742 -0.6386 -1.8086
 1177TIP3    H225091   3.243   5.909   8.546  0.4753  0.1656 -0.6823
 1178TIP3   OH225092   2.909   0.130   1.549  0.5421 -0.0690  0.5622
 1178TIP3    H125093   2.954   0.052   1.516 -0.8698 -0.6006 -0.1887
 1178TIP3    H225094   2.889   0.110   1.640  3.2045  0.8386  1.4539
 1179TIP3   OH225095   4.079   5.779   7.489  0.2072  0.1960  0.5137
 1179TIP3    H125096   4.059   5.823   7.572 -2.1515 -2.4729  1.5694
 1179TIP3    H225097   4.166   5.742   7.502  2.1126  3.9494 -0.2932
 1180TIP3   OH225098   1.709   3.426   1.662  0.4446 -0.4690  0.5815
 1180TIP3    H125099   1.624   3.418   1.619  1.0035 -2.6251 -0.2035
 1180TIP3    H225100   1.698   3.502   1.720 -1.5038  0.2432 -0.6108
 1181TIP3   OH225101   2.107   0.004   7.664  0.2068  0.3143 -0.2941
 1181TIP3    H125102   2.047   0.051   7.722 -1.4771  1.5295 -2.8429
 1181TIP3    H225103   2.064  -0.079   7.646  1.1356 -0.4330  0.8072
 1182TIP3   OH225104   1.323   5.973   7.122  0.0097 -0.1310 -0.2329
 1182TIP3    H125105   1.409   6.007   7.098 -0.0059  1.0469  1.1733
 1182TIP3    H225106   1.265   6.049   7.117 -0.6211 -0.5569  0.3529
 1183TIP3   OH225107   0.123   5.031   1.449 -0.0697  0.6067 -0.5183
 1183TIP3    H125108   0.106   4.973   1.374 -0.1429 -0.3141  0.1910
 1183TIP3    H225109   0.131   5.118   1.410  2.6490 -0.1618 -1.9453
 1184TIP3   OH225110   3.842   0.092   1.544  0.7691  0.8297 -0.3282
 1184TIP3    H125111   3.870   0.121   1.631 -0.3906 -3.3115  1.6690
 1184TIP3    H225112   3.919   0.051   1.506  0.3235 -0.8903  0.5334
 1185TIP3   OH225113   4.144   3.509   7.868 -0.5973 -0.3674 -0.3198
 1185TIP3    H125114   4.123   3.474   7.782  0.4648  0.5177 -0.9622
 1185TIP3    H225115   4.081   3.581   7.881  0.0760  0.3450 -0.9381
 1186TIP3   OH225116   5.171   6.826   1.735  0.8172 -0.8361  0.2182
 1186TIP3    H125117   5.173   6.855   1.643 -0.4139 -0.0737  0.4145
 1186TIP3    H225118   5.096   6.871   1.773  0.1956 -2.5564  1.1433
 1187TIP3   OH225119   3.536   0.883   2.830  0.0936  0.4280  0.1588
 1187TIP3    H125120   3.450   0.919   2.810  0.4030  1.2993  0.3653
 1187TIP3    H225121   3.530   0.855   2.921  0.6129  2.3337  0.8251
 1188TIP3   OH225122   3.756   1.589   1.389 -0.1880 -0.5583  0.3395
 1188TIP3    H125123   3.842   1.622   1.364 -0.5457  0.0911 -0.0584
 1188TIP3    H225124   3.747   1.613   1.481  0.2243 -1.0116  0.5071
 1189TIP3   OH225125   3.632   0.027   0.649  0.9307 -0.2059 -0.6980
 1189TIP3    H125126   3.697   0.054   0.714  1.4965 -0.4069 -1.1735
 1189TIP3    H225127   3.629   0.099   0.586 -1.2210  1.0154  0.6764
 1190TIP3   OH225128   6.429   5.809   0.739 -0.0578 -0.2542 -0.2124
 1190TIP3    H125129   6.337   5.835   0.739 -0.1487 -0.5689 -0.4671
 1190TIP3    H225130   6.471   5.869   0.679  0.1025  0.5625  0.6841
 1191TIP3   OH225131   5.449   6.231   0.591 -0.0856  0.1125  0.2800
 1191TIP3    H125132   5.405   6.270   0.515 -1.2582 -0.4033  0.6729
 1191TIP3    H225133   5.406   6.271   0.667  0.1400 -0.3859  0.6738
 1192TIP3   OH225134   0.090   4.796   3.109  0.2952  0.6880 -0.3853
 1192TIP3    H125135   0.118   4.848   3.034 -0.8250  0.6336 -0.8661
 1192TIP3    H225136  -0.000   4.824   3.125  0.7957  1.4051  1.5672
 1193TIP3   OH225137   3.782   5.243   0.658 -0.6703 -0.1205 -0.3047
 1193TIP3    H125138   3.763   5.170   0.600 -2.6283  0.1523 -0.0554
 1193TIP3    H225139   3.714   5.308   0.640 -0.6186  0.4791  1.4246
 1194TIP3   OH225140   4.289   5.366   8.452 -0.1745 -0.0331  0.5538
 1194TIP3    H125141   4.310   5.294   8.512 -0.5460 -0.6847 -0.0783
 1194TIP3    H225142   4.355   5.360   8.383 -0.6429 -0.2185  0.1217
 1195TIP3   OH225143   0.276   2.553   8.157  0.4811  0.2444 -0.4334
 1195TIP3    H125144   0.291   2.470   8.204  1.1351  0.5388 -0.1092
 1195TIP3    H225145   0.273   2.619   8.226  1.3646  0.6697 -0.7844
 1196TIP3   OH225146   6.420   0.614   2.560  0.0496 -0.3711 -0.0292
 1196TIP3    H125147   6.481   0.621   2.487 -1.1639 -0.0417 -1.0360
 1196TIP3    H225148   6.338   0.584   2.521 -0.3166 -1.3442  1.3708
 1197TIP3   OH225149   2.274   4.022   1.108  0.7225 -0.4248  0.3861
 1197TIP3    H125150   2.342   4.073   1.065 -1.0463 -0.7217 -3.1409
 1197TIP3    H225151   2.305   4.010   1.198  3.7164  2.1450 -0.1568
 1198TIP3   OH225152   2.553   4.498   0.053  0.2886 -0.2395 -0.7977
 1198TIP3    H125153   2.637   4.464   0.022  0.1169 -1.4614  0.0252
 1198TIP3    H225154   2.570   4.524   0.144 -0.4975 -1.6478 -0.2160
 1199TIP3   OH225155   3.056   4.626   6.766 -0.1248 -0.0883 -0.3659
 1199TIP3    H125156   2.980   4.682   6.747 -0.1497 -0.6186 -1.9904
 1199TIP3    H225157   3.131   4.686   6.763 -0.4701  0.5421  1.7824
 1200TIP3   OH225158   1.541   2.607   0.319 -0.3839 -0.2310 -0.0042
 1200TIP3    H125159   1.559   2.689   0.273 -2.6819  0.5318  0.3307
 1200TIP3    H225160   1.456   2.621   0.361 -0.1950 -2.3086  1.2196
 1201TIP3   OH225161   2.698   3.647   1.754  0.1034 -0.2312  0.4019
 1201TIP3    H125162   2.633   3.716   1.738  0.4543  0.2001  0.8091
 1201TIP3    H225163   2.727   3.662   1.844 -0.6370 -1.6107  0.8877
 1202TIP3   OH225164   1.771   3.063   2.047  0.2960 -0.2243  0.2249
 1202TIP3    H125165   1.825   3.061   2.126  2.2651 -2.1177 -1.0428
 1202TIP3    H225166   1.725   2.979   2.047 -1.8362  0.8816  0.6727
 1203TIP3   OH225167   5.644   4.160   0.591 -0.1382 -0.2037 -0.2219
 1203TIP3    H125168   5.607   4.182   0.506  2.9080  1.7224 -1.2117
 1203TIP3    H225169   5.650   4.244   0.638  0.4933 -0.8451  0.9063
 1204TIP3   OH225170   3.822   2.066   8.624 -0.0123 -0.3509 -0.2073
 1204TIP3    H125171   3.776   1.993   8.665  1.4658 -1.3303 -0.1939
 1204TIP3    H225172   3.819   2.137   8.689 -1.2479 -0.4602 -0.1235
 1205TIP3   OH225173   0.158   3.529   3.068  0.2031  0.7182 -0.2989
 1205TIP3    H125174   0.210   3.494   3.140 -0.7115 -0.1261 -0.0157
 1205TIP3    H225175   0.205   3.608   3.040  0.6879  0.9546  1.0842
 1206TIP3   OH225176   0.207   0.928   7.217  0.0337  0.1377  0.0066
 1206TIP3    H125177   0.284   0.870   7.218  0.6795  0.9699  1.4671
 1206TIP3    H225178   0.213   0.974   7.134 -0.6788 -2.0764 -1.3611
 1207TIP3   OH225179   0.463   5.339   0.549  0.0270  0.2230  0.4724
 1207TIP3    H125180   0.413   5.410   0.509  1.1787  0.6284 -0.3216
 1207TIP3    H225181   0.514   5.302   0.476 -0.0942 -1.0315  0.9933
 1208TIP3   OH225182   4.428   5.450   0.898 -0.1524 -0.1242  0.4196
 1208TIP3    H125183   4.392   5.482   0.815 -0.3423 -0.6975  0.2724
 1208TIP3    H225184   4.372   5.489   0.965 -1.5618 -1.5697  0.1681
 1209TIP3   OH225185   6.322   3.827   0.831  0.3269 -0.3936 -0.2938
 1209TIP3    H125186   6.240   3.869   0.807 -0.6741 -1.4209  1.1196
 1209TIP3    H225187   6.380   3.842   0.757 -0.1402  2.8958 -0.1453
 1210TIP3   OH225188   1.462   1.522   2.488 -0.6410  0.1565  0.0335
 1210TIP3    H125189   1.458   1.584   2.415  2.7396 -0.6061 -0.9554
 1210TIP3    H225190   1.381   1.471   2.480 -2.2833  2.7081 -0.6526
 1211TIP3   OH225191   4.018   5.905   7.707 -0.4085 -0.1086 -0.2866
 1211TIP3    H125192   4.058   5.968   7.768  0.2890  0.6774 -1.5219
 1211TIP3    H225193   3.932   5.888   7.744 -0.4929  1.3210  0.2564
 1212TIP3   OH225194   0.624   5.563   8.241  0.4132 -0.7062  0.2733
 1212TIP3    H125195   0.597   5.496   8.178  1.5156  0.2470 -1.2804
 1212TIP3    H225196   0.720   5.564   8.236  0.4825  0.0377  1.3029
 1213TIP3   OH225197   0.340   3.518   2.525  0.1224  0.1610  0.0124
 1213TIP3    H125198   0.369   3.562   2.605 -1.4840  0.9384  0.2088
 1213TIP3    H225199   0.322   3.589   2.463 -0.4372 -0.3246 -0.4000
 1214TIP3   OH225200   3.507   3.514   1.356  0.3589 -0.3546  0.5968
 1214TIP3    H125201   3.441   3.575   1.324  0.9436 -0.1806 -0.2941
 1214TIP3    H225202   3.490   3.508   1.450  0.0924  0.9262  0.6472
 1215TIP3   OH225203   5.626   5.553   0.659  0.1304  0.4867  0.0180
 1215TIP3    H125204   5.715   5.588   0.673 -0.0398  1.1490 -0.4948
 1215TIP3    H225205   5.640   5.466   0.620  0.5615  0.0745  1.0670
 1216TIP3   OH225206   1.027   4.145   0.993  0.4298 -0.5801 -0.1953
 1216TIP3    H125207   1.061   4.124   0.905 -1.2894  1.2710 -1.4015
 1216TIP3    H225208   0.937   4.173   0.977  0.7248  1.8757  1.8676
 1217TIP3   OH225209   4.795   2.061   3.196 -0.1547 -0.9520 -0.5028
 1217TIP3    H125210   4.818   2.103   3.279 -3.1568 -0.0459  0.0002
 1217TIP3    H225211   4.849   1.982   3.193 -0.2786 -1.2856  2.5915
 1218TIP3   OH225212   4.162   4.754   0.410 -0.5388 -0.2203 -0.2246
 1218TIP3    H125213   4.244   4.732   0.364 -0.5574 -0.8650  0.0452
 1218TIP3    H225214   4.148   4.682   0.471 -1.2221 -0.0263 -0.1414
 1219TIP3   OH225215   5.224   2.637   0.323 -0.4320 -0.8217 -0.3185
 1219TIP3    H125216   5.270   2.622   0.240 -1.4563 -2.6076 -0.6010
 1219TIP3    H225217   5.215   2.732   0.328  2.5296 -0.4103 -0.6331
 1220TIP3   OH225218   6.826   5.318   8.433 -0.1568  0.0664 -0.4822
 1220TIP3    H125219   6.838   5.234   8.389 -0.1063  0.0682 -0.4723
 1220TIP3    H225220   6.755   5.361   8.385 -1.0738 -0.5181  0.3094
 1221TIP3   OH225221   0.139   4.062   2.544 -0.2707 -0.6280 -0.1312
 1221TIP3    H125222   0.215   4.004   2.533 -0.0126 -0.1714 -0.8034
 1221TIP3    H225223   0.116   4.054   2.636  0.5197 -0.8688  0.0505
 1222TIP3   OH225224   5.520   1.776   1.746  0.0238 -0.2636  0.2899
 1222TIP3    H125225   5.478   1.860   1.724  1.7359  0.5786  0.0532
 1222TIP3    H225226   5.548   1.786   1.837  0.8071 -0.3065  0.0624
 1223TIP3   OH225227   0.848   0.049   8.386 -0.5695  0.5308 -0.5508
 1223TIP3    H125228   0.899  -0.006   8.326 -0.2801  1.6013 -1.3064
 1223TIP3    H225229   0.854   0.137   8.350 -1.0483  1.0762  0.6287
 1224TIP3   OH225230   6.076   1.048   2.059 -0.3829  0.0921  0.1345
 1224TIP3    H125231   6.067   0.957   2.088 -1.4147 -0.1461 -0.8161
 1224TIP3    H225232   5.986   1.081   2.059  0.0195  1.2124  0.7578
 1225TIP3   OH225233   2.218   1.560   1.664  0.0761 -0.1591 -0.0827
 1225TIP3    H125234   2.212   1.586   1.572  0.3521  0.8031  0.1536
 1225TIP3    H225235   2.310   1.537   1.676  0.5177  1.6556  0.4067
 1226TIP3   OH225236   5.229   0.026   1.464  0.1472  0.3618 -0.7163
 1226TIP3    H125237   5.287  -0.050   1.466  1.3240  1.2277  0.0989
 1226TIP3    H225238   5.209   0.039   1.371 -1.1375 -1.6677 -0.7708
 1227TIP3   OH225239   2.086   0.472   2.173 -0.6885 -0.1450 -0.0301
 1227TIP3    H125240   2.172   0.481   2.132  0.1051 -2.0179  1.0978
 1227TIP3    H225241   2.081   0.546   2.234 -0.8620  1.2538 -1.6734
 1228TIP3   OH225242   6.266   3.306   8.559  0.4239  1.1693 -0.0692
 1228TIP3    H125243   6.180   3.319   8.519  0.4655  2.2740  0.1490
 1228TIP3    H225244   6.327   3.353   8.502  0.7072  1.3758  0.3899
 1229TIP3   OH225245   0.540   2.371   2.148  0.3139 -0.4719  0.1667
 1229TIP3    H125246   0.516   2.443   2.207 -0.8766 -0.9343  0.2795
 1229TIP3    H225247   0.467   2.368   2.085 -0.6214 -2.7677  1.2735
 1230TIP3   OH225248   4.431   0.042   0.360  0.3348 -0.5722  0.0987
 1230TIP3    H125249   4.391   0.128   0.347 -0.0326 -0.5271  1.3933
 1230TIP3    H225250   4.464   0.044   0.450  0.6589 -1.6498  0.0216
 1231TIP3   OH225251   0.845   6.169   1.499 -0.0996  0.2025 -0.4288
 1231TIP3    H125252   0.886   6.084   1.483 -1.1811 -0.2815 -0.6854
 1231TIP3    H225253   0.782   6.153   1.569  0.8151  1.1622  0.6830
 1232TIP3   OH225254   0.631   3.847   1.060  0.1000  0.1853  0.0831
 1232TIP3    H125255   0.663   3.829   0.972  1.4738  1.4184  0.2984
 1232TIP3    H225256   0.670   3.778   1.114  0.5961  0.3661 -0.0330
 1233TIP3   OH225257   5.423   5.643   0.850  0.3543  0.0300  0.2401
 1233TIP3    H125258   5.499   5.618   0.797  0.1394 -0.7812  0.3080
 1233TIP3    H225259   5.448   5.728   0.888  1.1234 -0.1051  0.0599
 1234TIP3   OH225260   1.393   6.371   0.361 -0.7561  0.3237 -0.2653
 1234TIP3    H125261   1.328   6.432   0.327 -2.4698 -1.4255 -0.3313
 1234TIP3    H225262   1.341   6.304   0.406  1.1133 -0.4361  0.8549
 1235TIP3   OH225263   1.310   3.105   1.696  0.1304  0.2894  0.4928
 1235TIP3    H125264   1.404   3.091   1.683  0.8614  2.8691  2.1615
 1235TIP3    H225265   1.303   3.199   1.715 -2.4492 -0.2630  2.8607
 1236TIP3   OH225266   6.590   3.648   1.108  0.2934  0.2193  0.3808
 1236TIP3    H125267   6.563   3.577   1.050 -2.9276  1.4292  0.2079
 1236TIP3    H225268   6.591   3.609   1.195  3.5510 -1.1891 -0.1360
 1237TIP3   OH225269   0.405   5.607   8.521 -0.6006 -0.1171  0.3962
 1237TIP3    H125270   0.422   5.615   8.427  0.7273 -3.0900  0.2608
 1237TIP3    H225271   0.319   5.563   8.526 -0.3887 -0.5195  0.5391
 1238TIP3   OH225272   5.731   4.673   7.919  0.2871 -0.5416  0.4375
 1238TIP3    H125273   5.678   4.647   7.994  1.6428  0.3705  1.7635
 1238TIP3    H225274   5.732   4.768   7.922  0.3072 -0.4849 -0.8016
 1239TIP3   OH225275   4.913   2.398   3.280  0.2553 -0.3545 -0.6211
 1239TIP3    H125276   4.997   2.380   3.323  1.2879 -0.5317 -2.6012
 1239TIP3    H225277   4.848   2.353   3.334  1.7462 -2.5214 -0.5110
 1240TIP3   OH225278   3.720   4.039   0.901 -0.4198  0.0376  0.0655
 1240TIP3    H125279   3.698   4.014   0.811 -0.0419 -0.2199  0.0422
 1240TIP3    H225280   3.776   4.116   0.891 -1.0041  0.4786  0.1125
 1241TIP3   OH225281   3.456   4.206   1.661  0.4301 -0.3104 -0.1966
 1241TIP3    H125282   3.377   4.201   1.607 -0.0538 -1.4302  0.5751
 1241TIP3    H225283   3.520   4.250   1.606 -0.2833 -0.7309 -1.3902
 1242TIP3   OH225284   0.939   6.579   1.885 -0.0241 -0.0019  0.0002
 1242TIP3    H125285   0.938   6.629   1.966 -1.1439 -0.2680  0.1681
 1242TIP3    H225286   0.904   6.493   1.909 -0.1572 -0.1570 -0.7064
 1243TIP3   OH225287   0.191   5.199   1.856  0.1700 -0.1222  0.2338
 1243TIP3    H125288   0.283   5.175   1.842  0.2049 -0.3181  0.7866
 1243TIP3    H225289   0.182   5.205   1.951 -0.3633  0.0079  0.1776
 1244TIP3   OH225290   1.447   5.606   7.812 -0.1785 -0.1053 -0.1480
 1244TIP3    H125291   1.450   5.519   7.852 -0.7235 -0.0269  0.0687
 1244TIP3    H225292   1.538   5.624   7.788 -0.1278 -0.9350 -0.6332
 1245TIP3   OH225293   0.915   0.751   2.087  0.5788 -0.1118 -0.0393
 1245TIP3    H125294   0.928   0.845   2.071 -0.5982  0.2141  0.8349
 1245TIP3    H225295   0.838   0.747   2.143 -0.4371 -1.7097 -1.4792
 1246TIP3   OH225296   5.331   4.195   1.132 -0.0326 -0.2363 -0.3125
 1246TIP3    H125297   5.424   4.194   1.106 -0.7916  0.5118 -3.5495
 1246TIP3    H225298   5.309   4.102   1.143  0.5079 -0.6478 -2.2353
 1247TIP3   OH225299   6.221   1.953   1.109 -0.3038  0.1347  0.0593
 1247TIP3    H125300   6.241   2.046   1.122 -0.4664  0.3761 -1.2920
 1247TIP3    H225301   6.143   1.952   1.054  0.0128 -0.8025 -0.3983
 1248TIP3   OH225302   5.428   1.026   2.898  0.1864  0.7699 -0.0690
 1248TIP3    H125303   5.340   1.051   2.924 -0.3751  0.6703 -1.7262
 1248TIP3    H225304   5.467   0.988   2.977 -1.6090 -0.1555  0.4333
 1249TIP3   OH225305   4.701   5.168   7.650 -0.6483  0.1607  0.1104
 1249TIP3    H125306   4.649   5.208   7.581 -0.1206  0.3505 -0.1872
 1249TIP3    H225307   4.714   5.078   7.622  0.1809  0.4289 -0.4127
 1250TIP3   OH225308   1.599   2.995   1.188  0.3380 -0.5898  0.7750
 1250TIP3    H125309   1.640   3.066   1.139  1.6672 -0.9696  1.3144
 1250TIP3    H225310   1.667   2.929   1.198 -0.6855 -1.6778  0.8449
 1251TIP3   OH225311   2.551   2.739   1.363 -0.1030 -0.0939  0.4523
 1251TIP3    H125312   2.479   2.743   1.299 -0.1932  0.4660  0.5815
 1251TIP3    H225313   2.626   2.710   1.312 -0.1274  0.5457  0.0350
 1252TIP3   OH225314   5.317   2.395   1.952  0.2679 -0.5600 -0.5020
 1252TIP3    H125315   5.395   2.450   1.944 -0.3579  0.6737  1.1606
 1252TIP3    H225316   5.264   2.418   1.876  0.4776  0.3833 -0.3783
 1253TIP3   OH225317   5.647   2.172   2.555  1.0533 -0.1465  0.7759
 1253TIP3    H125318   5.653   2.076   2.552  1.2945 -0.1268  0.5899
 1253TIP3    H225319   5.570   2.189   2.609 -0.0091 -0.4673 -0.5854
 1254TIP3   OH225320   5.318   3.926   1.145 -0.5731 -0.3481 -0.4485
 1254TIP3    H125321   5.251   3.861   1.123 -2.3563  0.4665  2.0938
 1254TIP3    H225322   5.374   3.881   1.209 -0.4814 -0.0729 -0.3377
 1255TIP3   OH225323   2.227   2.346   1.958 -0.5626  0.1554 -0.4620
 1255TIP3    H125324   2.132   2.335   1.945 -0.7269  0.2048  0.6054
 1255TIP3    H225325   2.236   2.360   2.052  0.5415 -0.1287 -0.5206
 1256TIP3   OH225326   0.367   1.302   0.436  0.1069 -0.3211 -0.1843
 1256TIP3    H125327   0.346   1.351   0.356 -0.8574 -0.1515  0.1533
 1256TIP3    H225328   0.360   1.366   0.506  0.4167 -0.5902  0.0965
 1257TIP3   OH225329   0.252   5.799   8.076  0.2711  0.1927  0.3967
 1257TIP3    H125330   0.200   5.847   8.141  0.3594 -0.4037  0.9121
 1257TIP3    H225331   0.331   5.852   8.065 -0.0031  0.5976  0.3361
 1258TIP3   OH225332   5.391   4.454   8.327  0.1658 -0.7882  0.3119
 1258TIP3    H125333   5.398   4.539   8.371 -1.2362 -0.6601  0.3201
 1258TIP3    H225334   5.338   4.401   8.386 -2.3645 -0.4002 -1.4758
 1259TIP3   OH225335   3.275   5.784   1.359 -0.0103 -0.4634  0.2305
 1259TIP3    H125336   3.284   5.695   1.393  0.2858  0.2176  2.0922
 1259TIP3    H225337   3.314   5.781   1.272  2.7002 -1.5326  1.3627
 1260TIP3   OH225338   2.693   1.529   3.258  0.4739 -0.0361  0.1462
 1260TIP3    H125339   2.749   1.566   3.326 -0.5074 -0.6384  1.3272
 1260TIP3    H225340   2.634   1.470   3.305 -0.1553 -0.5711 -1.2527
 1261TIP3   OH225341   0.064   1.568   2.551  0.4612  0.2917  0.2075
 1261TIP3    H125342   0.108   1.594   2.632  1.7619 -0.5713 -0.1878
 1261TIP3    H225343   0.049   1.474   2.561  1.4178  0.0037 -0.8928
 1262TIP3   OH225344   3.095   3.576   0.201 -0.2277  0.1235 -0.1617
 1262TIP3    H125345   3.167   3.631   0.230 -0.1973 -0.8193  1.6768
 1262TIP3    H225346   3.135   3.513   0.141  0.5828 -0.6301  1.1380
 1263TIP3   OH225347   2.573   5.310   0.794  0.4410  0.7284 -0.0720
 1263TIP3    H125348   2.600   5.380   0.853 -0.1455  1.8044 -1.0534
 1263TIP3    H225349   2.482   5.292   0.819  0.5787  0.3267  0.1547
 1264TIP3   OH225350   3.837   2.372   1.276  0.2082 -0.5488 -0.7709
 1264TIP3    H125351   3.754   2.379   1.229 -0.1739  0.0703 -0.0340
 1264TIP3    H225352   3.882   2.455   1.259 -0.1146 -0.1490  0.2691
 1265TIP3   OH225353   5.475   4.763   6.902 -0.1116 -0.7090  0.6856
 1265TIP3    H125354   5.456   4.852   6.931 -1.3233 -0.9238  0.6234
 1265TIP3    H225355   5.549   4.772   6.843 -1.1308  0.4682 -0.4711
 1266TIP3   OH225356   0.204   6.647   8.239  0.3195  0.0852  0.8105
 1266TIP3    H125357   0.270   6.647   8.308  0.8793  0.9441  0.2995
 1266TIP3    H225358   0.231   6.718   8.180  0.9766 -1.8314 -1.3604
 1267TIP3   OH225359   6.536   3.897   0.216  0.2020  0.0146  0.3626
 1267TIP3    H125360   6.551   3.901   0.311 -0.1204 -0.3952  0.4349
 1267TIP3    H225361   6.564   3.808   0.192  0.6600  0.2494  0.0033
 1268TIP3   OH225362   4.129   3.184   2.450  0.0092 -0.1461  0.3311
 1268TIP3    H125363   4.208   3.137   2.478  1.2394  1.5100 -0.1802
 1268TIP3    H225364   4.156   3.230   2.370 -0.9875  1.7842  1.0621
 1269TIP3   OH225365   1.579   3.838   7.284  0.0465 -0.2204  0.0171
 1269TIP3    H125366   1.495   3.848   7.328 -0.1596 -1.7693  0.0178
 1269TIP3    H225367   1.614   3.927   7.279 -2.7189  0.9141 -2.2629
 1270TIP3   OH225368   2.905   6.232   8.660  0.4358 -0.7117 -0.0841
 1270TIP3    H125369   2.860   6.153   8.692 -0.0888 -0.2256  0.4020
 1270TIP3    H225370   2.876   6.240   8.569 -0.0921 -0.6818  0.0802
 1271TIP3   OH225371   4.253   6.575   1.207 -0.1759  0.2219 -0.3392
 1271TIP3    H125372   4.164   6.567   1.241 -0.2628 -1.2224 -0.8291
 1271TIP3    H225373   4.309   6.549   1.280 -0.1656  0.7995 -0.1377
 1272TIP3   OH225374   0.779   2.864   8.613  0.4376  0.1071  0.5071
 1272TIP3    H125375   0.794   2.945   8.662 -2.7784  0.0551  1.8586
 1272TIP3    H225376   0.777   2.796   8.681  2.6923 -1.1399 -0.5648
 1273TIP3   OH225377   2.718   5.864   1.920 -0.4906 -0.3928  0.7781
 1273TIP3    H125378   2.704   5.817   1.838 -0.9187 -0.0154  0.6304
 1273TIP3    H225379   2.639   5.847   1.971 -0.5417 -0.0346  0.8195
 1274TIP3   OH225380   2.560   6.247   7.709  0.3727  0.2109  0.2719
 1274TIP3    H125381   2.603   6.312   7.654 -1.6258  0.3517 -1.2625
 1274TIP3    H225382   2.514   6.190   7.647 -0.6477 -0.6303  1.7336
 1275TIP3   OH225383   6.095   2.288   1.721 -0.2311 -0.2724 -0.5928
 1275TIP3    H125384   6.184   2.319   1.741 -1.1232  1.4186  1.1566
 1275TIP3    H225385   6.087   2.300   1.627  1.7484 -1.5327 -0.9868
 1276TIP3   OH225386   4.626   4.910   1.264 -0.0841  0.3327  0.2300
 1276TIP3    H125387   4.557   4.976   1.262 -0.3565  0.1843  2.3928
 1276TIP3    H225388   4.579   4.826   1.265  0.2302  0.1160 -0.8715
 1277TIP3   OH225389   4.858   6.508   2.166  0.2442 -0.0186 -0.1454
 1277TIP3    H125390   4.866   6.568   2.240 -0.2197  0.0241 -0.1279
 1277TIP3    H225391   4.901   6.428   2.194  0.0927  0.0069  0.1603
 1278TIP3   OH225392   4.529   4.463   1.842  0.3265 -0.2629 -0.1045
 1278TIP3    H125393   4.486   4.507   1.915  0.9584 -0.3958  0.3449
 1278TIP3    H225394   4.606   4.516   1.823  0.0406 -0.0930 -0.8347
 1279TIP3   OH225395   4.777   0.968   8.086  0.2396  0.0061 -0.2655
 1279TIP3    H125396   4.837   0.939   8.018  0.1380 -0.6669 -0.0799
 1279TIP3    H225397   4.740   0.887   8.121  0.8432  0.2779  1.0966
 1280TIP3   OH225398   4.670   5.783   1.652  0.6948 -0.5739 -0.2580
 1280TIP3    H125399   4.593   5.728   1.643 -1.2764  1.6935  1.4804
 1280TIP3    H225400   4.684   5.789   1.747  2.1809  0.1658 -0.4928
 1281TIP3   OH225401   2.277   5.000   0.997  0.0812 -0.3669 -0.2897
 1281TIP3    H125402   2.251   5.014   0.906 -0.3012  0.2343 -0.0971
 1281TIP3    H225403   2.358   4.949   0.992 -0.3031 -0.9392 -0.9450
 1282TIP3   OH225404   0.227   0.069   2.210 -0.9134  0.5039  0.3289
 1282TIP3    H125405   0.147   0.021   2.232 -0.7156  0.0598  0.0769
 1282TIP3    H225406   0.272   0.080   2.294 -0.8903  0.1242  0.3666
 1283TIP3   OH225407   0.874   1.247   3.279  0.7343 -0.2355 -0.0996
 1283TIP3    H125408   0.922   1.196   3.214 -0.7487 -0.7996 -0.7955
 1283TIP3    H225409   0.788   1.206   3.283 -0.1545  1.5518  0.1201
 1284TIP3   OH225410   1.584   1.815   8.326 -0.2040 -0.2147  0.3996
 1284TIP3    H125411   1.611   1.876   8.257 -1.6706  0.1223  0.0781
 1284TIP3    H225412   1.647   1.829   8.397  1.5028 -0.7447 -0.9362
 1285TIP3   OH225413   4.074   3.174   2.039 -0.1877 -0.2529  0.0295
 1285TIP3    H125414   4.032   3.131   2.114 -1.5115 -0.0462 -0.5651
 1285TIP3    H225415   4.116   3.252   2.077 -0.6695 -0.2578  0.5977
 1286TIP3   OH225416   6.215   6.837   2.876  0.4565 -0.2693 -0.3234
 1286TIP3    H125417   6.200   6.809   2.966  0.6961  0.7452  0.0337
 1286TIP3    H225418   6.272   6.913   2.882 -0.1383  0.2807 -1.2807
 1287TIP3   OH225419   6.852   0.504   3.056  0.0232 -0.1659 -0.4180
 1287TIP3    H125420   6.812   0.417   3.062 -0.4781 -0.2290 -3.1133
 1287TIP3    H225421   6.941   0.487   3.025 -0.4993  0.2563 -2.3014
 1288TIP3   OH225422   2.342   4.462   1.056  0.5791 -0.2208  0.1240
 1288TIP3    H125423   2.438   4.464   1.060  0.6137  1.1621 -0.8021
 1288TIP3    H225424   2.315   4.537   1.109  0.1466  1.1886 -1.9742
 1289TIP3   OH225425   4.688   1.221   7.959 -0.0126 -0.2413 -0.1507
 1289TIP3    H125426   4.716   1.145   8.010  1.9428 -0.2846 -1.1921
 1289TIP3    H225427   4.657   1.184   7.876  1.8746  0.1047 -1.0510
 1290TIP3   OH225428   2.226   3.735   2.339  0.0309 -0.0412 -0.3460
 1290TIP3    H125429   2.309   3.773   2.311 -0.5194  0.0289 -2.0570
 1290TIP3    H225430   2.177   3.723   2.257 -2.5744  2.0678  0.7390
 1291TIP3   OH225431   6.774   0.752   2.166  0.2075 -0.3508 -0.1016
 1291TIP3    H125432   6.770   0.687   2.096  0.4333 -1.5075  0.9153
 1291TIP3    H225433   6.750   0.834   2.124 -0.8133 -1.2046 -1.2808
 1292TIP3   OH225434   0.453   6.769   2.932 -0.3029 -0.2140  0.0176
 1292TIP3    H125435   0.359   6.788   2.930 -0.1456  0.9459  1.9083
 1292TIP3    H225436   0.480   6.788   3.021  1.2567 -3.0772  0.2758
 1293TIP3   OH225437   4.520   0.712   2.406  0.1060  0.0628 -0.0920
 1293TIP3    H125438   4.480   0.683   2.489 -2.5633 -0.2622 -1.3709
 1293TIP3    H225439   4.458   0.777   2.372  2.5368  2.2652 -0.5884
 1294TIP3   OH225440   6.480   0.963   7.946  0.2929  0.2805 -0.1751
 1294TIP3    H125441   6.569   0.936   7.923 -0.1130  0.4868 -2.2122
 1294TIP3    H225442   6.488   1.055   7.971  0.7627  0.0495  0.5558
 1295TIP3   OH225443   3.431   6.690   8.323 -0.5796  0.0059  0.2517
 1295TIP3    H125444   3.487   6.619   8.290 -1.2849 -1.9181  2.8882
 1295TIP3    H225445   3.484   6.769   8.309 -0.0479 -0.7821 -3.4512
 1296TIP3   OH225446   2.870   1.186   3.744  0.1743  0.3823  0.3326
 1296TIP3    H125447   2.814   1.260   3.765 -0.1631  0.2803 -0.1903
 1296TIP3    H225448   2.942   1.191   3.807  0.2426  1.2510  0.1949
 1297TIP3   OH225449   5.022   5.017   2.797 -0.4309  0.1519 -0.1138
 1297TIP3    H125450   5.056   5.082   2.736 -0.7903  0.5160  0.0682
 1297TIP3    H225451   5.071   5.031   2.877 -0.9651  0.6439  0.1328
 1298TIP3   OH225452   1.015   0.786   1.708 -0.1601  0.1482 -0.0660
 1298TIP3    H125453   0.998   0.750   1.621 -0.2257  0.1678 -0.0612
 1298TIP3    H225454   0.934   0.830   1.733  0.1302  0.8692 -0.3485
 1299TIP3   OH225455   1.466   2.110   0.814  0.0253  0.2550 -0.6072
 1299TIP3    H125456   1.533   2.065   0.762  1.1724  0.7715  0.3696
 1299TIP3    H225457   1.436   2.181   0.758 -0.4813 -0.6031 -1.4584
 1300TIP3   OH225458   1.218   0.283   1.029 -0.8704 -0.0079 -0.0765
 1300TIP3    H125459   1.280   0.342   1.073 -1.1242  0.6140 -0.5426
 1300TIP3    H225460   1.270   0.205   1.009 -0.2890  0.4152 -0.2566
 1301TIP3   OH225461   6.036   3.765   2.660 -0.0797  0.2102  0.7075
 1301TIP3    H125462   6.110   3.716   2.625 -0.1034  0.8699 -0.3148
 1301TIP3    H225463   5.962   3.705   2.654  0.3623 -0.4665  1.7723
 1302TIP3   OH225464   0.316   1.283   1.667  0.0355 -0.0449  0.0686
 1302TIP3    H125465   0.374   1.229   1.614  2.3176 -0.1760  2.5197
 1302TIP3    H225466   0.339   1.262   1.758 -0.9683  2.9282  1.1377
 1303TIP3   OH225467   2.729   2.328   1.897 -0.7272 -0.0751 -0.2639
 1303TIP3    H125468   2.643   2.316   1.858 -1.2725  0.9851  0.5676
 1303TIP3    H225469   2.715   2.318   1.991  0.2415 -0.8468 -0.1872
 1304TIP3   OH225470   5.796   5.656   1.710 -0.3966 -0.0195 -0.3968
 1304TIP3    H125471   5.788   5.716   1.636  1.1150  1.3238  0.4571
 1304TIP3    H225472   5.879   5.612   1.697  0.1454  0.6164  0.7356
 1305TIP3   OH225473   5.850   2.969   8.116 -0.0729  0.0082  0.4297
 1305TIP3    H125474   5.895   2.974   8.031 -1.2375  1.1341 -0.1516
 1305TIP3    H225475   5.879   3.047   8.163 -0.6726  0.2242  0.4369
 1306TIP3   OH225476   2.028   5.709   2.386 -0.4158 -0.2124  0.2860
 1306TIP3    H125477   2.064   5.707   2.475  0.7078 -1.7241 -0.1668
 1306TIP3    H225478   1.934   5.719   2.398 -0.3347 -0.9997  1.6614
 1307TIP3   OH225479   4.145   5.195   1.475  0.5192 -0.3368 -0.1530
 1307TIP3    H125480   4.147   5.139   1.552  0.5419 -1.6672 -1.0734
 1307TIP3    H225481   4.057   5.181   1.438  0.6970 -0.1503 -0.6568
 1308TIP3   OH225482   2.457   2.124   1.319  0.1465 -0.4637  0.0395
 1308TIP3    H125483   2.458   2.176   1.399 -1.5706  0.2705 -0.3746
 1308TIP3    H225484   2.444   2.034   1.348 -0.4965 -0.1978  0.5944
 1309TIP3   OH225485   3.541   5.114   0.857 -0.1467  0.3777  0.2300
 1309TIP3    H125486   3.479   5.180   0.826 -0.0833  1.4276  2.1818
 1309TIP3    H225487   3.616   5.164   0.890  2.3687 -0.8475 -3.0142
 1310TIP3   OH225488   5.582   4.716   1.911 -0.0199 -0.3771  0.0919
 1310TIP3    H125489   5.551   4.719   1.821 -0.0924 -0.9291  0.0958
 1310TIP3    H225490   5.572   4.806   1.943 -1.1689 -0.4411 -0.0516
 1311TIP3   OH225491   3.454   3.991   8.349 -0.3548 -0.4294  0.1275
 1311TIP3    H125492   3.445   4.024   8.439 -1.5028  0.0375 -0.1394
 1311TIP3    H225493   3.376   4.024   8.304 -0.4101 -1.6778 -0.7295
 1312TIP3   OH225494   5.416   4.995   7.881 -0.5366 -0.1073  0.0459
 1312TIP3    H125495   5.395   4.984   7.974 -0.3934  0.4111  0.1394
 1312TIP3    H225496   5.462   5.078   7.876 -0.5573 -0.1253 -0.4957
 1313TIP3   OH225497   3.835   5.407   6.873  0.1941 -0.1096 -0.2073
 1313TIP3    H125498   3.904   5.435   6.934  2.8495 -0.2966 -2.8674
 1313TIP3    H225499   3.800   5.489   6.838 -0.6365 -0.0182  0.8115
 1314TIP3   OH225500   2.481   5.819   8.162 -0.2892  0.1321 -0.3101
 1314TIP3    H125501   2.562   5.807   8.212 -1.6868  0.9076  2.3570
 1314TIP3    H225502   2.499   5.892   8.103  1.4151 -0.7748 -0.9904
 1315TIP3   OH225503   1.051   2.453   2.770 -0.0384 -0.4993 -0.5281
 1315TIP3    H125504   1.062   2.505   2.691  0.0352  0.1950 -0.0738
 1315TIP3    H225505   0.960   2.465   2.795  0.3611  0.7143  0.4500
 1316TIP3   OH225506   3.295   4.258   2.262 -0.1990 -0.0343 -0.2049
 1316TIP3    H125507   3.212   4.245   2.308  0.1345  0.6866  0.6201
 1316TIP3    H225508   3.361   4.255   2.331  0.4825 -0.6994 -0.8714
 1317TIP3   OH225509   3.180   3.872   2.484  0.3136  0.3261 -0.1328
 1317TIP3    H125510   3.164   3.887   2.577 -0.0102  0.1825 -0.1654
 1317TIP3    H225511   3.262   3.919   2.466  1.5220 -1.3782  0.7025
 1318TIP3   OH225512   0.119   0.957   0.212 -0.2840  0.2267  0.3993
 1318TIP3    H125513   0.165   1.029   0.169  1.9118 -0.3962  1.5682
 1318TIP3    H225514   0.097   0.897   0.141 -0.8269  1.3161 -0.3926
 1319TIP3   OH225515   6.492   0.320   0.970  0.0539 -0.7305 -0.4279
 1319TIP3    H125516   6.423   0.370   0.925 -0.1378 -2.5697 -2.2942
 1319TIP3    H225517   6.444   0.259   1.026  0.2916  0.6598  1.4337
 1320TIP3   OH225518   1.463   0.433   2.640 -0.3537  0.2577  0.3189
 1320TIP3    H125519   1.462   0.519   2.682 -1.0881 -0.3571  1.6035
 1320TIP3    H225520   1.439   0.451   2.549  0.8208  1.5610  0.2159
 1321TIP3   OH225521   0.112   6.242   1.325  0.2862  0.2366 -0.2561
 1321TIP3    H125522   0.173   6.296   1.374  0.4366  1.7916 -2.0863
 1321TIP3    H225523   0.031   6.293   1.322 -0.1181 -0.4010 -0.5951
 1322TIP3   OH225524   3.994   5.170   8.584 -0.0098  0.4030 -0.0286
 1322TIP3    H125525   3.904   5.197   8.566  0.4850  1.7546 -0.5851
 1322TIP3    H225526   4.038   5.250   8.613  0.2347 -0.8225  3.5457
 1323TIP3   OH225527   0.257   4.491   3.452  0.5337  0.2630  0.1610
 1323TIP3    H125528   0.212   4.441   3.384 -0.0950 -0.1612  0.8734
 1323TIP3    H225529   0.282   4.573   3.409 -1.1509  0.6277 -0.1932
 1324TIP3   OH225530   6.776   1.964   1.512 -0.5762  0.0453 -0.3873
 1324TIP3    H125531   6.806   1.874   1.529 -0.8160 -0.3661 -1.9818
 1324TIP3    H225532   6.855   2.011   1.486 -0.3060  0.5373  1.1996
 1325TIP3   OH225533   2.119   1.947   2.813  0.9707 -0.1025 -0.2411
 1325TIP3    H125534   2.191   1.967   2.872 -1.0689  2.7923  1.5643
 1325TIP3    H225535   2.088   1.861   2.841  2.2886 -0.3598  0.4942
 1326TIP3   OH225536   0.875   0.555   1.875 -0.4094 -0.3603  0.3653
 1326TIP3    H125537   0.862   0.625   1.940  0.7104 -0.7310  1.0131
 1326TIP3    H225538   0.787   0.535   1.844 -0.7768  1.2364  0.2720
 1327TIP3   OH225539   5.015   5.411   2.498  0.2127 -0.6398  0.5588
 1327TIP3    H125540   4.969   5.468   2.435 -1.0839 -1.7684  0.4443
 1327TIP3    H225541   4.967   5.423   2.580  0.5114 -0.8574  0.7628
 1328TIP3   OH225542   2.663   5.143   0.284 -0.4374  0.0475 -0.1143
 1328TIP3    H125543   2.753   5.119   0.264 -0.3164  0.2290  0.2085
 1328TIP3    H225544   2.668   5.187   0.369 -0.4892  2.2615 -1.1781
 1329TIP3   OH225545   4.717   1.997   7.693 -0.2820  0.1172  0.2300
 1329TIP3    H125546   4.695   1.933   7.760  1.4955 -0.7350  0.0491
 1329TIP3    H225547   4.808   2.021   7.710  0.4793 -0.6810 -2.2620
 1330TIP3   OH225548   4.964   0.694   0.267  0.0302  0.1729  0.3069
 1330TIP3    H125549   5.032   0.707   0.334  0.9543 -1.0003 -0.3629
 1330TIP3    H225550   4.910   0.622   0.302 -0.3207  0.4818  0.4106
 1331TIP3   OH225551   2.338   0.202   1.282  0.3862 -0.5237 -0.6031
 1331TIP3    H125552   2.384   0.271   1.330  1.7221 -0.2707 -2.2011
 1331TIP3    H225553   2.377   0.120   1.314  0.1527 -0.4580 -0.1300
 1332TIP3   OH225554   0.462   5.013   0.171  0.2383 -0.8550  0.3430
 1332TIP3    H125555   0.523   5.010   0.098 -0.0027 -1.7465  0.1758
 1332TIP3    H225556   0.470   4.928   0.214  0.1395 -0.4620  1.1615
 1333TIP3   OH225557   5.837   1.332   8.382 -0.6425 -0.5674 -0.1871
 1333TIP3    H125558   5.792   1.257   8.344 -1.4552  0.0810 -0.5198
 1333TIP3    H225559   5.853   1.307   8.473 -3.2112 -0.1747  0.4470
 1334TIP3   OH225560   3.353   0.569   0.309 -0.2652 -0.2179 -0.0146
 1334TIP3    H125561   3.352   0.503   0.239 -1.0531  0.0604 -0.2822
 1334TIP3    H225562   3.315   0.647   0.268  4.7033  1.9799 -1.1694
 1335TIP3   OH225563   6.374   2.041   8.674  0.3381  0.3814  0.3345
 1335TIP3    H125564   6.408   2.023   8.586 -1.4479 -1.0813 -0.1175
 1335TIP3    H225565   6.293   2.090   8.660  0.2143  0.4435  1.1765
 1336TIP3   OH225566   0.163   3.421   1.474 -0.1558  0.5816  0.5735
 1336TIP3    H125567   0.089   3.480   1.456 -0.0020  0.4965 -0.4123
 1336TIP3    H225568   0.124   3.347   1.520 -0.4947  1.0463  1.0505
 1337TIP3   OH225569   2.550   5.815   1.455  0.7193 -0.2517  0.0691
 1337TIP3    H125570   2.546   5.879   1.384  1.8127 -1.4029 -1.0847
 1337TIP3    H225571   2.626   5.841   1.507  2.1070 -1.4001 -1.2739
 1338TIP3   OH225572   4.081   5.090   0.421  0.1698  0.7473  0.6402
 1338TIP3    H125573   4.134   5.094   0.500  2.0827 -0.1350 -0.5197
 1338TIP3    H225574   4.122   5.022   0.368 -0.5082  1.8811 -1.4768
 1339TIP3   OH225575   1.339   4.818   7.572 -0.4232 -0.3456  0.3905
 1339TIP3    H125576   1.416   4.866   7.541 -0.3018  0.4178  1.7790
 1339TIP3    H225577   1.375   4.740   7.615 -0.5026 -0.6613 -0.1165
 1340TIP3   OH225578   2.756   4.004   0.745 -0.3237  0.0939  1.0435
 1340TIP3    H125579   2.841   4.009   0.789  0.0219 -0.1136  0.4159
 1340TIP3    H225580   2.709   3.934   0.790  0.6481 -1.2421  0.0504
 1341TIP3   OH225581   1.546   1.118   7.279  0.8064 -0.0870 -0.3959
 1341TIP3    H125582   1.555   1.210   7.256 -1.0211 -0.3051 -2.3071
 1341TIP3    H225583   1.620   1.100   7.337  0.4053  2.9139  1.2331
 1342TIP3   OH225584   2.378   0.584   7.896 -0.3550  0.2776  0.1963
 1342TIP3    H125585   2.304   0.527   7.916 -0.7899  0.1706 -1.5582
 1342TIP3    H225586   2.410   0.613   7.982 -1.4670 -0.8777  1.0388
 1343TIP3   OH225587   6.193   4.425   1.223 -0.2113  0.5496 -0.1279
 1343TIP3    H125588   6.216   4.344   1.177 -0.0654  0.7034 -0.3255
 1343TIP3    H225589   6.139   4.474   1.161 -0.6368  0.4302  0.1369
 1344TIP3   OH225590   4.053   2.654   0.296 -0.1996  0.0813 -0.1724
 1344TIP3    H125591   4.129   2.647   0.239  0.6615  0.1053  0.9545
 1344TIP3    H225592   4.081   2.712   0.367 -1.5664  0.8344 -0.2147
 1345TIP3   OH225593   5.966   6.784   1.512  0.1180  0.1399  0.6222
 1345TIP3    H125594   6.047   6.766   1.464 -0.8474 -1.6930 -0.4410
 1345TIP3    H225595   5.959   6.711   1.574 -0.2882  0.7623  1.3147
 1346TIP3   OH225596   2.969   0.279   2.228 -0.3727  0.4245  0.0691
 1346TIP3    H125597   2.957   0.206   2.288  0.7908 -0.7723 -1.0771
 1346TIP3    H225598   3.062   0.299   2.233 -0.8470  2.6722  1.2430
 1347TIP3   OH225599   5.702   0.511   2.358 -0.2361  0.3106 -0.5133
 1347TIP3    H125600   5.743   0.552   2.282  1.1770  1.1390  0.6349
 1347TIP3    H225601   5.620   0.559   2.369 -1.1724 -0.7742 -2.3172
 1348TIP3   OH225602   3.430   3.974   2.404 -0.0617  0.4792  0.4438
 1348TIP3    H125603   3.486   3.949   2.331  0.7239 -1.2678  1.5768
 1348TIP3    H225604   3.446   4.068   2.415  1.8345  0.2464  0.0619
 1349TIP3   OH225605   5.283   6.582   2.353 -0.0375 -0.6066 -0.0371
 1349TIP3    H125606   5.356   6.644   2.355  1.6759 -2.5014 -0.1317
 1349TIP3    H225607   5.292   6.534   2.435 -1.0398 -1.0520 -0.1809
 1350TIP3   OH225608   1.356   0.961   8.292 -0.2082 -0.2359 -0.2180
 1350TIP3    H125609   1.352   0.866   8.296 -0.8438 -0.1583  2.1572
 1350TIP3    H225610   1.297   0.984   8.220 -0.6411 -1.5886 -0.3247
 1351TIP3   OH225611   3.547   2.167   0.147 -0.2652 -0.2955  0.4220
 1351TIP3    H125612   3.498   2.238   0.186 -0.5187 -1.2247  1.8743
 1351TIP3    H225613   3.480   2.106   0.115 -0.0534  0.0735 -0.7679
 1352TIP3   OH225614   5.265   4.078   0.731 -0.5005  0.1072  0.4407
 1352TIP3    H125615   5.332   4.048   0.793  0.5816  0.7878 -0.3476
 1352TIP3    H225616   5.254   4.171   0.749 -0.0460  0.3550 -0.4654
 1353TIP3   OH225617   0.588   0.914   7.689  0.2575  0.0878 -0.0039
 1353TIP3    H125618   0.524   0.979   7.659 -0.7349 -1.2109 -0.7708
 1353TIP3    H225619   0.535   0.838   7.715  1.4954 -1.3165 -1.3827
 1354TIP3   OH225620   5.301   4.529   6.983 -0.5095  0.1982 -0.3419
 1354TIP3    H125621   5.344   4.605   6.945  1.5599  0.4373  2.2250
 1354TIP3    H225622   5.223   4.566   7.027 -0.2995  0.6150 -0.3130
 1355TIP3   OH225623   3.928   0.956   1.234  0.3156  0.4650 -0.3702
 1355TIP3    H125624   3.954   0.975   1.324  1.3796  0.7459 -0.7243
 1355TIP3    H225625   3.991   1.003   1.180  0.5549 -0.8034 -1.2597
 1356TIP3   OH225626   0.076   1.821   2.933  0.0325 -0.2729 -0.0304
 1356TIP3    H125627   0.166   1.815   2.901 -0.0102 -2.4769  0.0974
 1356TIP3    H225628   0.037   1.736   2.912 -2.1086  0.6961 -0.2721
 1357TIP3   OH225629   0.443   0.380   1.731 -0.0781 -0.4149 -0.0233
 1357TIP3    H125630   0.372   0.428   1.774  0.9088 -1.2881  2.7734
 1357TIP3    H225631   0.427   0.288   1.754  1.4928 -0.7198 -0.0452
 1358TIP3   OH225632   0.178   4.836   2.332 -0.6563  0.8978  0.1163
 1358TIP3    H125633   0.124   4.764   2.363 -0.9598  1.0882  0.0298
 1358TIP3    H225634   0.267   4.799   2.328 -0.5788  0.8959  1.3241
 1359TIP3   OH225635   1.229   2.856   1.936 -0.4635  0.9023 -0.1311
 1359TIP3    H125636   1.239   2.811   1.853 -0.9044  0.3263  0.1197
 1359TIP3    H225637   1.299   2.921   1.937  0.1414  0.2641 -0.5260
 1360TIP3   OH225638   5.457   0.464   7.870 -1.0417 -0.0600 -0.0931
 1360TIP3    H125639   5.450   0.406   7.795  1.0884 -0.2177 -0.2329
 1360TIP3    H225640   5.450   0.406   7.946 -0.3286 -0.3369 -0.2247
 1361TIP3   OH225641   2.878   6.335   7.079 -0.2878 -0.1155  0.5616
 1361TIP3    H125642   2.861   6.259   7.134 -2.4329 -2.0539 -2.4751
 1361TIP3    H225643   2.797   6.387   7.084 -0.3973 -0.1599 -0.4242
 1362TIP3   OH225644   5.421   1.676   2.077  0.1908 -0.4384 -0.0928
 1362TIP3    H125645   5.453   1.744   2.136  0.7058 -0.1897 -0.6404
 1362TIP3    H225646   5.337   1.710   2.045  0.3835 -0.1152 -0.2643
 1363TIP3   OH225647   3.315   1.865   7.525 -0.4662  0.0079 -0.0753
 1363TIP3    H125648   3.397   1.904   7.557  0.1530 -0.4890 -1.0122
 1363TIP3    H225649   3.262   1.940   7.498  0.3929  0.2649 -1.1113
 1364TIP3   OH225650   2.791   1.020   0.046  0.4563  0.9007 -0.4645
 1364TIP3    H125651   2.743   1.010  -0.036 -1.3278  1.9996  0.3704
 1364TIP3    H225652   2.729   0.991   0.113  1.8292  0.1411  0.5308
 1365TIP3   OH225653   3.601   6.299   2.758  0.3470  0.0314  0.1723
 1365TIP3    H125654   3.664   6.253   2.702  0.8022 -1.0886  1.5476
 1365TIP3    H225655   3.640   6.385   2.773  1.1478 -0.3465  0.3115
 1366TIP3   OH225656   1.206   0.705   7.159 -0.0506  0.2592  0.0701
 1366TIP3    H125657   1.228   0.634   7.100 -0.5670 -0.2113  0.4331
 1366TIP3    H225658   1.285   0.759   7.162  0.8720 -1.0672  0.9078
 1367TIP3   OH225659   5.863   0.410   0.952 -0.1262 -0.3467 -0.0675
 1367TIP3    H125660   5.838   0.449   0.869 -0.1461 -1.1837 -0.4618
 1367TIP3    H225661   5.812   0.457   1.017 -0.9626 -0.4411 -0.6428
 1368TIP3   OH225662   6.291   1.967   2.338  0.1087  0.0531 -0.0008
 1368TIP3    H125663   6.331   1.899   2.392  1.2107  1.2152  0.7079
 1368TIP3    H225664   6.205   1.982   2.377  0.0948 -0.5135  0.1908
 1369TIP3   OH225665   1.635   1.376   8.435 -0.5694  0.0619 -0.1704
 1369TIP3    H125666   1.713   1.417   8.471 -1.9790  0.9826  2.0709
 1369TIP3    H225667   1.630   1.291   8.478  0.1801 -0.8268 -1.7645
 1370TIP3   OH225668   6.608   0.951   1.595  0.4440 -0.6230  0.1863
 1370TIP3    H125669   6.672   1.015   1.565 -0.1527  0.1307  0.4871
 1370TIP3    H225670   6.600   0.967   1.689  0.2283 -1.0856  0.2499
 1371TIP3   OH225671   0.983   3.212   1.431  0.5589  0.1873 -0.3648
 1371TIP3    H125672   0.890   3.235   1.431  0.6836  0.7201 -0.3261
 1371TIP3    H225673   0.998   3.176   1.343  0.3031  0.0466 -0.3519
 1372TIP3   OH225674   3.589   6.071   8.156  0.5076  0.1574 -0.1504
 1372TIP3    H125675   3.584   6.130   8.231 -0.4310  0.4041 -0.3841
 1372TIP3    H225676   3.637   6.120   8.089  0.6169  0.2596  0.0047
 1373TIP3   OH225677   2.550   5.534   0.462  0.2207 -0.4741 -0.1266
 1373TIP3    H125678   2.559   5.629   0.473  0.7936 -0.4174 -1.0657
 1373TIP3    H225679   2.536   5.502   0.551  1.4140  0.3352  0.3723
 1374TIP3   OH225680   1.713   5.808   8.053  0.1660 -0.6094 -0.0143
 1374TIP3    H125681   1.647   5.869   8.086  1.4558  1.2572 -0.7212
 1374TIP3    H225682   1.796   5.844   8.085  0.9773 -2.0271 -0.4484
 1375TIP3   OH225683   4.921   5.939   0.230 -0.1903 -0.5828  0.3148
 1375TIP3    H125684   4.940   5.978   0.145  0.0030 -1.1124  0.1041
 1375TIP3    H225685   4.862   6.000   0.273  0.7833  0.3586  0.3483
 1376TIP3   OH225686   1.632   0.994   1.820  1.0143  0.7104  0.2074
 1376TIP3    H125687   1.613   1.022   1.910 -0.9293  0.8145 -0.1939
 1376TIP3    H225688   1.639   0.898   1.825  0.9457  0.7192  0.4667
 1377TIP3   OH225689   5.580   3.715   1.895 -0.0931  0.4813  0.4270
 1377TIP3    H125690   5.627   3.790   1.932  1.8987 -1.1354  1.4195
 1377TIP3    H225691   5.569   3.737   1.802  0.3777  2.0051  0.7003
 1378TIP3   OH225692   1.389   2.564   2.579 -0.4874  0.0521  0.4112
 1378TIP3    H125693   1.465   2.613   2.547 -0.6963  0.5045  0.6000
 1378TIP3    H225694   1.333   2.631   2.619 -0.5388 -0.4120  1.1286
 1379TIP3   OH225695   5.746   0.754   1.459 -0.2526 -0.3323 -0.6637
 1379TIP3    H125696   5.792   0.751   1.375  1.5071  1.1022  0.1659
 1379TIP3    H225697   5.769   0.839   1.495 -2.4668 -0.1625  0.4906
 1380TIP3   OH225698   4.469   5.849   0.436  0.2611 -0.1688  0.9217
 1380TIP3    H125699   4.555   5.883   0.458  0.5620 -0.8386  0.7942
 1380TIP3    H225700   4.412   5.881   0.506  0.2722  1.6372  0.1501
 1381TIP3   OH225701   1.478   0.528   0.306 -0.7498  0.6755 -0.6327
 1381TIP3    H125702   1.467   0.435   0.323 -1.4019  1.1554  2.1574
 1381TIP3    H225703   1.390   0.561   0.288 -0.8424  1.0286  0.3664
 1382TIP3   OH225704   6.837   5.835   1.008 -0.0750 -0.3239  0.0749
 1382TIP3    H125705   6.863   5.881   0.928 -1.7483 -0.2447 -0.4508
 1382TIP3    H225706   6.893   5.873   1.076  2.0460 -1.0548 -1.1596
 1383TIP3   OH225707   1.510   6.443   0.607 -0.2212 -0.1525  0.3241
 1383TIP3    H125708   1.449   6.439   0.533 -0.6949 -0.1440  0.7110
 1383TIP3    H225709   1.577   6.379   0.586 -0.1219  0.1563 -0.3212
 1384TIP3   OH225710   0.964   0.751   1.435 -0.3979  0.1168  0.1304
 1384TIP3    H125711   0.998   0.662   1.425 -0.2564 -0.0889  2.1045
 1384TIP3    H225712   0.992   0.796   1.355 -0.7975 -1.6826 -1.0874
 1385TIP3   OH225713   6.084   3.872   8.693  0.4839 -0.1145  0.0499
 1385TIP3    H125714   6.020   3.810   8.657  1.4668 -1.3827  0.3874
 1385TIP3    H225715   6.154   3.873   8.629  0.5478  0.5416  0.1299
 1386TIP3   OH225716   2.210   2.013   1.510  0.4979 -0.5970 -0.3122
 1386TIP3    H125717   2.139   1.950   1.514  0.0162 -0.0188  0.8236
 1386TIP3    H225718   2.288   1.963   1.537  0.0014 -0.5777  1.2683
 1387TIP3   OH225719   2.344   1.808   0.736 -0.7742  0.6449  0.0390
 1387TIP3    H125720   2.408   1.825   0.804 -1.4937  1.6503  0.4868
 1387TIP3    H225721   2.262   1.843   0.770 -1.1064  1.4298 -1.4493
 1388TIP3   OH225722   5.881   5.934   1.867  0.5557  0.3305 -0.0063
 1388TIP3    H125723   5.867   5.844   1.895  0.9265  0.7459  1.5995
 1388TIP3    H225724   5.900   5.927   1.773  1.6055 -1.3609  0.2811
 1389TIP3   OH225725   3.161   5.430   7.617 -0.3747 -0.3462  0.1323
 1389TIP3    H125726   3.187   5.342   7.645 -3.8006 -0.9620  1.8653
 1389TIP3    H225727   3.073   5.420   7.583 -1.2040  2.5215  1.1423
 1390TIP3   OH225728   4.979   4.398   1.486  0.1400  0.0120 -0.0561
 1390TIP3    H125729   4.960   4.489   1.459 -1.5850  0.1334  1.3431
 1390TIP3    H225730   5.055   4.405   1.543  0.1989  0.5294 -0.1912
 1391TIP3   OH225731   4.959   6.617   1.231  0.1289  0.2276 -0.1562
 1391TIP3    H125732   5.008   6.699   1.240 -0.6765  0.7951 -0.7656
 1391TIP3    H225733   4.956   6.581   1.320  1.3843  0.3170 -0.0524
 1392TIP3   OH225734   4.292   2.000   8.290  0.2722 -0.2465  0.4012
 1392TIP3    H125735   4.203   2.014   8.256  0.0349 -0.4250  0.9365
 1392TIP3    H225736   4.279   1.950   8.370  0.8214  0.2087  0.7796
 1393TIP3   OH225737   5.022   2.446   0.435  0.3293 -0.6640  0.1927
 1393TIP3    H125738   5.055   2.359   0.411  0.4764  0.0009 -2.3158
 1393TIP3    H225739   5.079   2.506   0.388 -1.4272  0.6982 -0.2883
 1394TIP3   OH225740   1.592   4.767   1.852  0.2415  0.0473  0.1220
 1394TIP3    H125741   1.545   4.809   1.779  1.8027  1.5464 -0.0643
 1394TIP3    H225742   1.546   4.796   1.930 -1.8456 -2.0693 -0.2011
 1395TIP3   OH225743   4.731   4.939   1.010 -0.0624 -0.0876 -0.2689
 1395TIP3    H125744   4.692   4.921   1.095  1.4223  0.5841  0.5980
 1395TIP3    H225745   4.674   5.004   0.970 -0.7076 -0.3287  0.2477
 1396TIP3   OH225746   1.930   1.136   2.882 -0.5770 -0.2887 -0.8331
 1396TIP3    H125747   1.906   1.161   2.971 -0.9044 -0.1837 -0.9483
 1396TIP3    H225748   2.022   1.112   2.888 -0.9295 -1.5777 -0.1860
 1397TIP3   OH225749   2.963   4.230   3.553  0.0453 -0.2720 -0.3045
 1397TIP3    H125750   2.961   4.320   3.588  0.5340  0.5796 -2.3340
 1397TIP3    H225751   2.887   4.225   3.495  0.1483 -1.1086 -0.3779
 1398TIP3   OH225752   2.817   0.491   2.405  0.3584 -0.7958  1.2947
 1398TIP3    H125753   2.776   0.405   2.402 -0.8642 -0.2575  1.8614
 1398TIP3    H225754   2.911   0.473   2.405  0.1268 -2.1012  0.9295
 1399TIP3   OH225755   5.811   1.045   2.226 -0.1213  0.0624 -0.2711
 1399TIP3    H125756   5.820   0.953   2.200  1.2098  0.6324 -2.0092
 1399TIP3    H225757   5.755   1.084   2.159 -0.4155  0.6037  0.2769
 1400TIP3   OH225758   3.424   5.007   8.468 -0.2813  0.4527 -0.7449
 1400TIP3    H125759   3.373   5.011   8.549  3.2213  2.1065  1.6836
 1400TIP3    H225760   3.448   4.915   8.459 -0.5775  0.2688  0.2217
 1401TIP3   OH225761   6.224   0.118   0.872  0.0200 -0.0036  0.5069
 1401TIP3    H125762   6.149   0.112   0.932 -0.2990  2.7142  0.5138
 1401TIP3    H225763   6.297   0.083   0.923 -0.6352  0.3774  1.7705
 1402TIP3   OH225764   4.579   0.912   1.659  0.4872 -0.0948  0.0288
 1402TIP3    H125765   4.612   0.959   1.735 -1.2287 -1.1625  1.5241
 1402TIP3    H225766   4.545   0.980   1.600 -1.5620  0.6562  1.9403
 1403TIP3   OH225767   5.416   4.475   0.312  0.5531 -0.3408 -0.1637
 1403TIP3    H125768   5.326   4.441   0.317 -0.0281  0.7670 -2.1982
 1403TIP3    H225769   5.471   4.397   0.316 -0.4332 -1.0060  1.7387
 1404TIP3   OH225770   1.038   5.642   0.355  0.2021  0.1412  0.2973
 1404TIP3    H125771   0.960   5.688   0.386  0.0194  0.2571 -0.3144
 1404TIP3    H225772   1.045   5.566   0.413 -0.3654  0.1340  0.3680
 1405TIP3   OH225773   6.673   5.497   0.742 -0.5061  0.0767  0.2547
 1405TIP3    H125774   6.723   5.571   0.707  0.6927 -0.5301  0.6240
 1405TIP3    H225775   6.722   5.420   0.713  0.1166 -0.4829  2.5838
 1406TIP3   OH225776   1.271   5.705   0.589 -0.0046  0.6087 -0.0642
 1406TIP3    H125777   1.268   5.636   0.523  1.6753 -1.5116  1.8971
 1406TIP3    H225778   1.340   5.764   0.559  0.3658 -0.0266 -0.4773
 1407TIP3   OH225779   5.012   5.994   0.579  0.2999  0.4210  0.0124
 1407TIP3    H125780   5.079   6.001   0.511  0.6514  1.1422  0.4104
 1407TIP3    H225781   5.056   5.951   0.652  0.2620  0.6593  0.1794
 1408TIP3   OH225782   3.518   1.394   2.672 -0.0813  0.6018  0.1556
 1408TIP3    H125783   3.498   1.485   2.651  0.5325  0.4515 -1.1663
 1408TIP3    H225784   3.613   1.387   2.663 -0.2537 -0.4981 -1.2340
 1409TIP3   OH225785   4.384   1.465   0.491  0.1665  0.0844  0.0550
 1409TIP3    H125786   4.311   1.467   0.553 -0.1908 -0.9565 -0.2981
 1409TIP3    H225787   4.382   1.376   0.455  1.0362  0.3331 -0.6482
 1410TIP3   OH225788   2.047   5.243   1.578  0.0781  0.0700  0.4747
 1410TIP3    H125789   2.010   5.166   1.533 -0.4221  0.5007  0.1315
 1410TIP3    H225790   2.022   5.231   1.670 -1.1018  0.4296  0.2283
 1411TIP3   OH225791   1.390   4.695   2.200 -0.2567 -0.3222 -0.2777
 1411TIP3    H125792   1.340   4.747   2.263  0.6172 -0.2155  0.3563
 1411TIP3    H225793   1.469   4.746   2.185  0.2186 -1.0561 -0.3124
 1412TIP3   OH225794   3.273   1.454   2.368 -0.3918  0.2550 -0.1403
 1412TIP3    H125795   3.367   1.471   2.366 -0.2010  0.0829  2.8656
 1412TIP3    H225796   3.265   1.360   2.350  0.5722 -0.7776  3.7488
 1413TIP3   OH225797   1.317   1.377   3.346  0.3520  0.0806 -0.3720
 1413TIP3    H125798   1.242   1.407   3.397  0.4459 -1.2377  0.5824
 1413TIP3    H225799   1.278   1.331   3.272  0.2047  2.4436 -1.8788
 1414TIP3   OH225800   4.557   4.923   2.522 -0.6294 -0.5923 -0.5185
 1414TIP3    H125801   4.561   4.916   2.618  0.6441 -0.7141 -0.5573
 1414TIP3    H225802   4.610   5.000   2.502 -1.9460  0.2031 -1.0641
 1415TIP3   OH225803   3.837   6.623   7.872 -0.7771  0.5986 -0.1800
 1415TIP3    H125804   3.806   6.644   7.784 -3.9829  0.9539  0.9297
 1415TIP3    H225805   3.846   6.528   7.872 -3.1504  0.3310 -0.2418
 1416TIP3   OH225806   2.497   4.579   0.723  0.1167 -0.2924 -0.0013
 1416TIP3    H125807   2.557   4.577   0.797  1.5348  0.5582 -1.0712
 1416TIP3    H225808   2.517   4.660   0.677  1.6512 -2.2314 -3.1567
 1417TIP3   OH225809   4.148   2.223   1.679 -0.6682 -0.7479 -0.7474
 1417TIP3    H125810   4.147   2.278   1.757  0.0082  1.3909 -2.1400
 1417TIP3    H225811   4.067   2.246   1.633 -1.1466 -2.1196 -0.6282
 1418TIP3   OH225812   0.587   4.738   3.236 -0.0825 -0.4079  0.2559
 1418TIP3    H125813   0.548   4.768   3.154 -1.0912 -1.2470  0.4246
 1418TIP3    H225814   0.672   4.702   3.210 -0.0837 -0.0146 -0.3147
 1419TIP3   OH225815   3.280   4.392   7.581  0.4741  0.0156  0.1800
 1419TIP3    H125816   3.282   4.464   7.644 -2.1154 -0.7446  1.2516
 1419TIP3    H225817   3.337   4.325   7.620 -2.8048 -1.3728  3.1538
 1420TIP3   OH225818   1.276   6.361   2.360  0.2932  0.0029 -0.0501
 1420TIP3    H125819   1.271   6.324   2.272 -0.0078  3.2159 -1.5442
 1420TIP3    H225820   1.194   6.334   2.402  0.9817 -2.5880 -0.2316
 1421TIP3   OH225821   0.814   2.539   0.483 -0.1660 -0.1579 -0.3446
 1421TIP3    H125822   0.765   2.616   0.511  1.0026  0.3977  0.2301
 1421TIP3    H225823   0.757   2.496   0.419 -1.2014  0.6993 -0.0237
 1422TIP3   OH225824   1.588   5.533   8.074 -0.0630  0.1035  0.6541
 1422TIP3    H125825   1.591   5.470   8.002 -2.0187 -2.0472  2.2815
 1422TIP3    H225826   1.647   5.603   8.047  0.5012 -1.3327 -2.2942
 1423TIP3   OH225827   0.396   5.778   2.261  0.0807 -0.4371  0.8519
 1423TIP3    H125828   0.487   5.806   2.248  0.0680 -1.1918 -1.3302
 1423TIP3    H225829   0.402   5.704   2.321  0.8490 -0.1760  1.1061
 1424TIP3   OH225830   6.370   2.020   1.786  0.1666 -0.1915  0.4234
 1424TIP3    H125831   6.448   1.974   1.816  0.1246 -0.8519 -0.4296
 1424TIP3    H225832   6.314   2.025   1.863  0.4583 -0.9818  0.7016
 1425TIP3   OH225833   4.415   1.422   1.249  0.1141 -0.2855  1.0222
 1425TIP3    H125834   4.454   1.504   1.281 -1.4981  1.2144 -0.5981
 1425TIP3    H225835   4.408   1.434   1.155 -2.0127 -1.4381  0.9665
 1426TIP3   OH225836   3.246   2.289   7.800 -0.1244  0.1380  0.0049
 1426TIP3    H125837   3.332   2.254   7.775 -0.3766 -1.1313  0.8587
 1426TIP3    H225838   3.243   2.375   7.758  1.9432  0.6026  0.6778
 1427TIP3   OH225839   5.727   3.418   2.341 -0.1194  0.2903  0.0173
 1427TIP3    H125840   5.748   3.360   2.268  0.8112  0.5975  0.0308
 1427TIP3    H225841   5.714   3.504   2.301 -0.4335  0.2974  0.1258
 1428TIP3   OH225842   4.724   6.387   7.480 -0.6500 -0.2549 -0.2626
 1428TIP3    H125843   4.633   6.396   7.452 -0.9872 -0.5119  0.7091
 1428TIP3    H225844   4.720   6.330   7.557  0.1744  0.8410  0.6234
 1429TIP3   OH225845   5.263   0.847   2.367  0.2401  0.2831 -0.5097
 1429TIP3    H125846   5.346   0.837   2.320 -0.0108 -0.0309 -0.8918
 1429TIP3    H225847   5.269   0.787   2.441  0.0979 -0.2189 -0.9002
 1430TIP3   OH225848   5.753   1.284   2.684  0.3141  0.3838 -0.4059
 1430TIP3    H125849   5.804   1.270   2.604 -1.1838  0.4120 -1.4107
 1430TIP3    H225850   5.764   1.203   2.734  1.5492  0.5054 -0.4455
 1431TIP3   OH225851   0.555   1.962   0.725  0.4131  0.0495 -0.3522
 1431TIP3    H125852   0.512   2.046   0.739 -1.1370 -0.8234  0.5477
 1431TIP3    H225853   0.638   1.969   0.772  0.1836  0.9941 -0.0609
 1432TIP3   OH225854   0.119   5.782   2.151 -0.3271  0.0677 -0.4356
 1432TIP3    H125855   0.101   5.875   2.164 -1.6621  0.0116 -1.6803
 1432TIP3    H225856   0.210   5.778   2.122 -0.1693  0.9441 -0.0773
 1433TIP3   OH225857   0.428   3.669   2.738  0.2395 -0.1319  0.6623
 1433TIP3    H125858   0.517   3.668   2.703  0.0069  2.5209 -0.2392
 1433TIP3    H225859   0.439   3.678   2.832  1.0309  2.1987  0.4237
 1434TIP3   OH225860   3.862   5.079   1.092 -0.0494 -0.2054 -0.4088
 1434TIP3    H125861   3.894   5.009   1.034 -0.0137  0.5396 -1.3151
 1434TIP3    H225862   3.925   5.082   1.164  0.2242 -0.7736 -0.6189
 1435TIP3   OH225863   5.347   2.853   2.633  0.2378  0.0522 -0.0774
 1435TIP3    H125864   5.428   2.807   2.611  0.6669  1.9171 -2.9543
 1435TIP3    H225865   5.279   2.804   2.587 -0.6989 -2.4163  3.5338
 1436TIP3   OH225866   2.254   0.787   2.944  0.1372  0.2357 -0.3974
 1436TIP3    H125867   2.181   0.818   2.996 -0.2843 -0.2308 -0.7047
 1436TIP3    H225868   2.233   0.696   2.924  0.8315  0.0779 -0.4332
 1437TIP3   OH225869   3.907   5.911   0.244  0.0086  0.3054  0.1386
 1437TIP3    H125870   3.846   5.837   0.244 -0.8715  1.0094  0.7586
 1437TIP3    H225871   3.966   5.893   0.172 -0.3901 -0.8462  0.0786
 1438TIP3   OH225872   6.539   2.143   1.612  0.0628 -0.0500 -0.1590
 1438TIP3    H125873   6.453   2.102   1.626  0.6111 -0.8106  1.1650
 1438TIP3    H225874   6.593   2.072   1.577  0.6414 -0.1010  0.7979
 1439TIP3   OH225875   5.481   2.868   0.357  0.2783 -0.4168 -0.4459
 1439TIP3    H125876   5.391   2.899   0.369 -0.1083 -1.2133 -1.2006
 1439TIP3    H225877   5.529   2.903   0.432 -0.1742  1.8017 -1.1158
 1440TIP3   OH225878   0.511   5.401   2.697 -0.3482  0.4657 -0.0661
 1440TIP3    H125879   0.524   5.492   2.671 -0.3242  0.1174 -1.3090
 1440TIP3    H225880   0.440   5.369   2.641  0.9903 -0.8547 -1.1005
 1441TIP3   OH225881   6.326   0.170   0.624 -0.1413 -0.1990  0.1956
 1441TIP3    H125882   6.318   0.075   0.616 -1.7302 -0.0918  0.2476
 1441TIP3    H225883   6.287   0.190   0.710  1.0903  0.4068  0.6375
 1442TIP3   OH225884   6.295   4.906   1.612  0.5065  0.2161 -0.3621
 1442TIP3    H125885   6.272   4.832   1.668  1.6038 -0.4385 -0.7270
 1442TIP3    H225886   6.345   4.965   1.669 -1.6979  1.4927  0.3510
 1443TIP3   OH225887   0.807   4.000   2.282  0.1932  0.4727  0.1007
 1443TIP3    H125888   0.874   4.068   2.270 -0.5430  1.9546  3.2118
 1443TIP3    H225889   0.732   4.032   2.233  0.8446  0.2002 -1.1242
 1444TIP3   OH225890   4.898   1.855   1.720 -0.0145 -0.0856  0.0773
 1444TIP3    H125891   4.888   1.854   1.625  0.7331  3.8613 -0.1873
 1444TIP3    H225892   4.991   1.872   1.734 -0.1606 -0.3380  1.5234
 1445TIP3   OH225893   3.557   0.039   1.846  0.4712  0.3998  0.5786
 1445TIP3    H125894   3.486   0.004   1.900  1.5719  0.5957  2.2429
 1445TIP3    H225895   3.635  -0.008   1.876  1.2992  1.2791 -0.1155
 1446TIP3   OH225896   3.518   2.682   0.434 -0.5141 -0.2406 -0.0960
 1446TIP3    H125897   3.536   2.652   0.345  1.0393  0.1954  0.0548
 1446TIP3    H225898   3.422   2.681   0.441 -0.7234  0.8198 -2.1530
 1447TIP3   OH225899   1.767   0.527   2.897 -0.1130 -0.5160  0.2099
 1447TIP3    H125900   1.695   0.512   2.959 -0.4017  0.1212  0.0332
 1447TIP3    H225901   1.759   0.456   2.833 -0.0817 -0.9212  0.6493
 1448TIP3   OH225902   0.976   6.698   1.043 -0.4687  0.2638 -0.5315
 1448TIP3    H125903   0.981   6.792   1.024  0.2449  0.1916 -0.7104
 1448TIP3    H225904   1.012   6.656   0.965 -0.6052 -0.1576 -0.3680
 1449TIP3   OH225905   3.645   1.725   2.143 -0.5344 -0.5751  0.5776
 1449TIP3    H125906   3.732   1.689   2.159 -0.3976 -1.6075 -2.0023
 1449TIP3    H225907   3.652   1.770   2.059 -2.0828  0.8941  1.1670
 1450TIP3   OH225908   6.051   1.310   1.166 -0.4817 -0.2668  0.6098
 1450TIP3    H125909   6.122   1.372   1.184 -1.3860  0.6755  0.9863
 1450TIP3    H225910   6.039   1.315   1.071 -1.5572  1.3110  0.7821
 1451TIP3   OH225911   1.370   2.454   1.989 -0.1927  0.2219 -0.0212
 1451TIP3    H125912   1.326   2.536   2.012  0.0841  0.0474  1.1736
 1451TIP3    H225913   1.418   2.475   1.909  0.8305  1.5897  0.9010
 1452TIP3   OH225914   2.279   3.784   7.508  0.1640 -0.2371 -0.7338
 1452TIP3    H125915   2.224   3.745   7.439  0.5021 -1.7180 -0.2195
 1452TIP3    H225916   2.358   3.729   7.509  0.2290 -0.1519  0.7287
 1453TIP3   OH225917   5.312   5.994   0.556  0.4145  0.2587 -0.2100
 1453TIP3    H125918   5.368   5.924   0.522  0.7106  1.2980 -1.9997
 1453TIP3    H225919   5.361   6.074   0.539 -0.8988  1.0695 -0.3379
 1454TIP3   OH225920   2.994   2.440   0.001  0.4308 -0.0425  0.2248
 1454TIP3    H125921   3.037   2.372  -0.049  0.9944  1.9100 -2.1400
 1454TIP3    H225922   3.056   2.460   0.072  0.7542 -1.1751  0.2817
 1455TIP3   OH225923   3.207   1.219   8.657  0.2069  0.4344 -0.3351
 1455TIP3    H125924   3.164   1.157   8.598  1.1688 -2.1583  1.4824
 1455TIP3    H225925   3.142   1.237   8.724  0.2334  0.6279 -0.3629
 1456TIP3   OH225926   0.917   3.032   7.222  0.4346 -0.0257 -0.4927
 1456TIP3    H125927   0.844   3.085   7.252  0.1234  0.2988 -1.7829
 1456TIP3    H225928   0.986   3.095   7.201  0.2912 -0.1571 -1.4067
 1457TIP3   OH225929   6.365   3.368   1.212 -0.1423 -0.0215 -0.1088
 1457TIP3    H125930   6.305   3.426   1.259  0.4669  1.4206 -1.0408
 1457TIP3    H225931   6.343   3.280   1.242 -1.8654  0.5933  0.4993
 1458TIP3   OH225932   5.860   3.868   2.931  0.1818  0.1166  0.9351
 1458TIP3    H125933   5.835   3.782   2.898  0.7615  0.8767 -1.7380
 1458TIP3    H225934   5.802   3.883   3.006 -1.0952 -1.8702  0.4236
 1459TIP3   OH225935   5.724   2.317   2.896 -0.3852  0.1027 -0.0592
 1459TIP3    H125936   5.816   2.345   2.892 -0.5407  0.8691  1.0703
 1459TIP3    H225937   5.712   2.290   2.987 -0.9452 -1.2683 -0.5206
 1460TIP3   OH225938   4.338   2.963   8.328  0.2756 -0.3539  0.9234
 1460TIP3    H125939   4.396   2.997   8.397  0.7291 -0.7769  0.7573
 1460TIP3    H225940   4.271   2.913   8.376  0.1694 -0.0460  1.1021
 1461TIP3   OH225941   0.537   2.303   2.731 -0.5345  0.1145 -0.3148
 1461TIP3    H125942   0.554   2.287   2.824 -1.2689  2.1720  0.2277
 1461TIP3    H225943   0.542   2.216   2.691  2.3157 -0.5555  1.2001
 1462TIP3   OH225944   0.682   5.267   0.036  0.3687 -0.2266 -0.1062
 1462TIP3    H125945   0.666   5.192  -0.022  0.7835 -0.0418 -0.4650
 1462TIP3    H225946   0.733   5.328  -0.018 -0.1860  0.4266  0.0940
 1463TIP3   OH225947   4.757   3.347   2.812 -0.1214 -0.0857  0.2354
 1463TIP3    H125948   4.677   3.384   2.849 -1.1912 -2.7281  0.8622
 1463TIP3    H225949   4.800   3.304   2.886  0.9353 -0.2324 -0.4368
 1464TIP3   OH225950   3.800   4.876   8.147 -0.0023 -0.0400  0.5489
 1464TIP3    H125951   3.735   4.946   8.149  0.4529  0.4320 -0.5335
 1464TIP3    H225952   3.751   4.798   8.122 -0.2861  0.1630  0.4653
 1465TIP3   OH225953   0.963   0.518   8.611 -0.0635 -0.2048 -0.0979
 1465TIP3    H125954   1.029   0.531   8.679  2.0272 -0.4898 -1.9672
 1465TIP3    H225955   0.897   0.462   8.652  1.5008 -0.9904  1.4897
 1466TIP3   OH225956   1.316   1.842   2.398  0.2265 -0.1565 -0.4153
 1466TIP3    H125957   1.402   1.808   2.376  0.4587  0.5688 -0.6825
 1466TIP3    H225958   1.328   1.937   2.401 -0.8950  0.0951 -2.0673
 1467TIP3   OH225959   4.980   5.312   8.390 -0.1879  0.2155 -0.0961
 1467TIP3    H125960   5.025   5.292   8.472 -0.0178 -1.8639 -0.6431
 1467TIP3    H225961   5.044   5.291   8.322 -1.1939 -0.6144 -0.8144
 1468TIP3   OH225962   4.187   6.386   0.132  0.0065  0.4478  0.2964
 1468TIP3    H125963   4.226   6.456   0.079 -1.3144  1.6193  0.8112
 1468TIP3    H225964   4.166   6.429   0.215  1.0140 -1.0772  1.3977
 1469TIP3   OH225965   0.912   1.496   3.180 -0.1852 -0.0140  0.3512
 1469TIP3    H125966   0.853   1.565   3.210  0.3374 -0.3248  2.2480
 1469TIP3    H225967   0.892   1.421   3.235 -1.3382 -1.7515 -2.2401
 1470TIP3   OH225968   1.318   6.399   0.045 -0.3881 -0.1639  0.1818
 1470TIP3    H125969   1.385   6.331   0.051  0.9099  0.9630 -0.7516
 1470TIP3    H225970   1.364   6.474   0.008 -2.0130  0.9060  0.2327
 1471TIP3   OH225971   1.847   5.429   7.532 -0.4000  0.5429  0.2143
 1471TIP3    H125972   1.873   5.374   7.606 -0.7972  0.9326  0.6600
 1471TIP3    H225973   1.915   5.417   7.467  0.2767  0.6554  0.8884
 1472TIP3   OH225974   6.017   4.802   0.601 -0.2709 -0.1471  0.2712
 1472TIP3    H125975   6.006   4.707   0.596 -0.7939 -0.0408 -2.4222
 1472TIP3    H225976   6.100   4.815   0.647  0.8359 -2.0110 -1.0765
 1473TIP3   OH225977   6.554   2.127   7.392 -0.2137  0.1944 -0.0110
 1473TIP3    H125978   6.613   2.164   7.458 -0.2718 -0.1028  0.2112
 1473TIP3    H225979   6.512   2.053   7.437 -1.9747  1.3798  0.3856
 1474TIP3   OH225980   1.214   0.751   8.046  0.4198  0.0512  0.2553
 1474TIP3    H125981   1.266   0.729   8.124 -0.1318 -0.1622  0.5635
 1474TIP3    H225982   1.144   0.686   8.044 -0.4054  0.9088  0.3831
 1475TIP3   OH225983   0.574   2.822   0.326 -0.5391 -0.2075 -0.4914
 1475TIP3    H125984   0.565   2.885   0.397  0.8661  0.0886 -0.5556
 1475TIP3    H225985   0.495   2.768   0.332 -1.1600  0.7585  0.3406
 1476TIP3   OH225986   0.755   4.144   0.903 -0.2095 -0.4034  0.2754
 1476TIP3    H125987   0.793   4.082   0.840  0.2130  0.8310 -0.7299
 1476TIP3    H225988   0.681   4.184   0.856  0.1241  0.5471  0.5294
 1477TIP3   OH225989   5.640   6.507   1.016  0.7522  0.3935 -0.2611
 1477TIP3    H125990   5.678   6.549   1.093 -0.2884 -0.1591  0.5884
 1477TIP3    H225991   5.715   6.474   0.967  1.4608  1.3010  0.1896
 1478TIP3   OH225992   3.465   6.852   2.635 -0.4168 -0.2654 -0.2387
 1478TIP3    H125993   3.373   6.875   2.647  0.2393  2.2210  0.5939
 1478TIP3    H225994   3.498   6.839   2.723 -0.0743 -1.7973 -0.5643
 1479TIP3   OH225995   1.124   6.619   8.475  0.4322  0.7728  0.6694
 1479TIP3    H125996   1.046   6.571   8.446 -0.4058  3.2974 -1.6044
 1479TIP3    H225997   1.140   6.587   8.564 -0.2469 -3.3588 -0.4882
 1480TIP3   OH225998   6.325   2.065   2.628  0.2545  0.1373  0.5576
 1480TIP3    H125999   6.395   2.071   2.563 -0.1028 -2.2158 -0.1262
 1480TIP3    H226000   6.307   1.972   2.636 -0.9695  0.4905  2.7373
 1481TIP3   OH226001   4.783   1.483   8.015  0.5336 -0.3195 -0.3943
 1481TIP3    H126002   4.754   1.399   7.979  1.4671 -1.0117  0.4074
 1481TIP3    H226003   4.758   1.479   8.107  2.0512 -0.4427  0.0410
 1482TIP3   OH226004   0.916   6.136   2.276 -0.3370  0.1068 -0.1299
 1482TIP3    H126005   0.849   6.203   2.266 -1.6084 -1.0277  0.4829
 1482TIP3    H226006   0.933   6.133   2.371 -1.0015 -1.0602 -0.0209
 1483TIP3   OH226007   3.543   0.676   0.496  0.0824 -0.4301 -0.5009
 1483TIP3    H126008   3.494   0.621   0.435  1.2879 -0.2878 -1.6443
 1483TIP3    H226009   3.521   0.766   0.471 -0.0166 -0.3770 -0.2231
 1484TIP3   OH226010   1.088   6.827   7.139  0.0835  0.2383  0.1174
 1484TIP3    H126011   1.053   6.911   7.167 -0.9805  0.0802 -0.7121
 1484TIP3    H226012   1.040   6.763   7.191 -0.0221  0.0750 -0.1830
 1485TIP3   OH226013   3.668   6.609   3.037 -0.6892 -0.1398  0.0269
 1485TIP3    H126014   3.662   6.656   3.120 -1.7292  1.3301 -0.8252
 1485TIP3    H226015   3.595   6.547   3.039  0.7112 -1.8238  1.1729
 1486TIP3   OH226016   2.749   4.045   8.010  0.0518  0.5670  0.1022
 1486TIP3    H126017   2.761   3.956   8.043  0.1124  0.9970  1.2883
 1486TIP3    H226018   2.801   4.048   7.929 -1.5561 -1.0558 -1.0674
 1487TIP3   OH226019   0.670   1.074   0.933  0.6273 -0.3912  0.7285
 1487TIP3    H126020   0.587   1.115   0.956  0.2537 -0.4482 -0.4585
 1487TIP3    H226021   0.726   1.088   1.009 -0.1114  0.6239  1.0986
 1488TIP3   OH226022   0.620   0.529   0.393  0.3563 -0.3911 -0.3125
 1488TIP3    H126023   0.700   0.529   0.340 -0.2715 -2.2471 -1.3544
 1488TIP3    H226024   0.612   0.440   0.425 -0.8393 -0.0158  0.5159
 1489TIP3   OH226025   6.104   0.765   1.587  0.0092  0.3201  0.1537
 1489TIP3    H126026   6.188   0.810   1.578 -0.3011  1.0407  0.7820
 1489TIP3    H226027   6.091   0.722   1.502  0.9365  0.3271  0.0025
 1490TIP3   OH226028   1.996   4.908   6.879 -0.4545 -0.3199 -0.3862
 1490TIP3    H126029   1.939   4.863   6.816 -2.0957  0.9727  0.1258
 1490TIP3    H226030   1.943   4.917   6.958  1.0664 -0.5753  0.6995
 1491TIP3   OH226031   2.786   4.384   8.616 -0.4388 -0.2919 -0.3178
 1491TIP3    H126032   2.843   4.333   8.674 -0.5651 -1.2053 -0.9832
 1491TIP3    H226033   2.837   4.395   8.536 -0.3167  0.8555 -0.1035
 1492TIP3   OH226034   6.468   2.875   2.317 -0.3613 -0.2930  0.0819
 1492TIP3    H126035   6.383   2.863   2.359 -1.4222  1.6729 -1.3405
 1492TIP3    H226036   6.519   2.925   2.381 -0.7414 -0.3425  0.4292
 1493TIP3   OH226037   5.757   6.244   1.004 -0.2012 -0.4874 -0.4054
 1493TIP3    H126038   5.768   6.149   1.001 -1.3113 -0.6003 -1.2503
 1493TIP3    H226039   5.777   6.273   0.915  1.0474  0.1965  0.0713
 1494TIP3   OH226040   5.282   4.096   8.000 -0.5030 -0.4508 -0.1851
 1494TIP3    H126041   5.368   4.136   7.987 -1.4019  2.1518  1.2268
 1494TIP3    H226042   5.288   4.053   8.085 -0.3288 -1.1309 -0.5334
 1495TIP3   OH226043   4.756   2.943   3.533 -0.5399  0.1124  0.2678
 1495TIP3    H126044   4.714   2.978   3.454 -0.3592 -0.1738  0.0449
 1495TIP3    H226045   4.823   2.883   3.500  0.5692  1.1299  0.5947
 1496TIP3   OH226046   3.584   0.710   2.238 -0.0747  0.1628 -0.7834
 1496TIP3    H126047   3.545   0.705   2.325 -0.2863  1.5438 -0.7808
 1496TIP3    H226048   3.675   0.735   2.254 -0.0647  0.2300 -0.9427
 1497TIP3   OH226049   5.761   4.080   8.296  0.3588  0.2393  0.0995
 1497TIP3    H126050   5.781   4.098   8.388  2.0006  1.2615 -0.4167
 1497TIP3    H226051   5.740   3.986   8.294  2.2277 -0.2500  1.2261
 1498TIP3   OH226052   0.230   2.255   3.509 -0.3197  0.2514  0.3312
 1498TIP3    H126053   0.278   2.189   3.560 -0.4523 -1.4120 -1.5545
 1498TIP3    H226054   0.181   2.204   3.444 -0.8909  2.1967 -0.8584
 1499TIP3   OH226055   0.413   6.611   8.492  0.5838  0.6740  0.3550
 1499TIP3    H126056   0.455   6.695   8.471 -0.6764  0.8978 -1.6684
 1499TIP3    H226057   0.480   6.545   8.475  0.9047  1.1564 -0.2959
 1500TIP3   OH226058   0.105   6.029   8.187 -0.5028  0.1128 -0.0791
 1500TIP3    H126059   0.062   6.107   8.223  0.4682  0.3435  0.6448
 1500TIP3    H226060   0.074   6.024   8.097 -1.8243  0.4079  0.3395
 1501TIP3   OH226061   1.607   1.024   8.405 -0.4168  0.0357  0.0080
 1501TIP3    H126062   1.559   1.012   8.487 -0.1482  4.1010  0.9471
 1501TIP3    H226063   1.550   0.986   8.338 -3.0564  1.0912  1.5301
 1502TIP3   OH226064   6.091   1.056   0.397  0.3960 -0.1301 -0.3015
 1502TIP3    H126065   6.038   1.056   0.476 -0.1245  0.8885 -0.6329
 1502TIP3    H226066   6.110   1.149   0.381 -2.1755  0.0525 -3.0994
 1503TIP3   OH226067   1.910   3.665   0.668  0.2396 -0.5077  0.6576
 1503TIP3    H126068   1.945   3.658   0.757  1.3116 -0.0559  0.2891
 1503TIP3    H226069   1.828   3.615   0.670 -0.3205  0.4231  2.1815
 1504TIP3   OH226070   3.903   6.424   8.226 -0.5937  0.0499  0.6817
 1504TIP3    H126071   3.882   6.404   8.318 -0.2031 -1.2712  0.4958
 1504TIP3    H226072   3.828   6.391   8.177 -0.5777  0.3185  0.4754
 1505TIP3   OH226073   0.940   5.375   2.843  0.0088 -0.3146  0.2256
 1505TIP3    H126074   0.925   5.467   2.864 -2.0044 -0.3825 -0.7416
 1505TIP3    H226075   0.917   5.328   2.923 -2.4171 -0.1820 -0.3189
 1506TIP3   OH226076   2.504   1.596   0.060  0.3737  0.1938  0.9100
 1506TIP3    H126077   2.546   1.620   0.143  1.5707  0.7538  0.1542
 1506TIP3    H226078   2.471   1.679   0.025 -0.4114 -0.0863  0.9616
 1507TIP3   OH226079   6.269   3.577   7.472  0.3905  0.8852 -0.2594
 1507TIP3    H126080   6.178   3.579   7.442 -0.1602  0.4337  1.3180
 1507TIP3    H226081   6.282   3.487   7.502  0.8796  1.3499  0.9494
 1508TIP3   OH226082   5.484   5.037   1.582  0.1782 -0.3596  0.1723
 1508TIP3    H126083   5.538   5.088   1.522 -0.3593 -0.6205 -0.5549
 1508TIP3    H226084   5.422   4.991   1.525 -0.2718 -0.7041  0.9224
 1509TIP3   OH226085   6.471   4.704   0.861  0.0518 -0.4072  0.1007
 1509TIP3    H126086   6.511   4.784   0.895 -0.1554  0.6855 -2.0241
 1509TIP3    H226087   6.533   4.673   0.795 -1.2616 -0.2584 -1.2533
 1510TIP3   OH226088   2.407   3.650   7.219 -0.3442  0.4782  0.3456
 1510TIP3    H126089   2.456   3.662   7.300 -0.2783 -0.6945  0.4829
 1510TIP3    H226090   2.315   3.656   7.245 -0.3173  0.5397  0.4276
 1511TIP3   OH226091   4.527   0.308   1.592 -0.9431 -0.0015  0.4665
 1511TIP3    H126092   4.441   0.290   1.555 -1.6908  2.6393  0.7717
 1511TIP3    H226093   4.573   0.358   1.524 -0.1491 -0.1999  0.8366
 1512TIP3   OH226094   5.172   3.857   7.703 -0.3190 -0.5058  0.6159
 1512TIP3    H126095   5.228   3.824   7.633  0.4113 -1.7086  1.7299
 1512TIP3    H226096   5.097   3.895   7.657  0.2628 -1.0303 -0.8277
 1513TIP3   OH226097   0.601   2.725   2.417 -0.2479 -0.7610 -0.0586
 1513TIP3    H126098   0.611   2.757   2.327  1.1932 -0.4587  0.1741
 1513TIP3    H226099   0.660   2.780   2.468 -0.5789 -1.3438  0.9752
 1514TIP3   OH226100   3.026   0.211   2.504  0.1736 -0.3551 -0.6428
 1514TIP3    H126101   3.080   0.134   2.488 -0.3148 -0.6184 -1.0634
 1514TIP3    H226102   2.952   0.178   2.555 -0.5244 -0.3603 -1.6286
 1515TIP3   OH226103   3.060   1.990   1.555 -0.0690  0.0252 -0.3274
 1515TIP3    H126104   2.967   2.006   1.536 -0.6953 -1.7870  0.9660
 1515TIP3    H226105   3.096   2.077   1.572 -1.7545  0.6819  0.0977
 1516TIP3   OH226106   4.754   4.882   2.023 -0.1728 -0.3086  0.2328
 1516TIP3    H126107   4.705   4.925   2.093 -0.9989 -0.9693  0.0622
 1516TIP3    H226108   4.797   4.955   1.977 -1.9733  0.4188 -0.3841
 1517TIP3   OH226109   4.646   2.098   2.157 -0.2570 -0.6264 -0.1868
 1517TIP3    H126110   4.720   2.114   2.216 -0.0890 -0.5933 -0.4020
 1517TIP3    H226111   4.687   2.062   2.078 -0.8095 -5.7499  1.4807
 1518TIP3   OH226112   5.180   2.779   2.268 -0.3255  0.0250 -0.1865
 1518TIP3    H126113   5.155   2.687   2.273  0.9875 -0.3873 -0.8222
 1518TIP3    H226114   5.097   2.826   2.255 -1.0777 -0.9904  0.7522
 1519TIP3   OH226115   1.900   0.959   0.468 -0.2145 -0.0439  0.0127
 1519TIP3    H126116   1.897   0.931   0.559 -1.3495  0.4081  0.1272
 1519TIP3    H226117   1.906   0.878   0.418  1.0508 -0.2719  0.4956
 1520TIP3   OH226118   0.721   6.589   8.248  0.2031 -0.2516 -0.5228
 1520TIP3    H126119   0.693   6.559   8.335  2.0014 -0.2698  0.0758
 1520TIP3    H226120   0.643   6.634   8.213 -0.9718 -1.3665  0.5382
 1521TIP3   OH226121   0.497   2.902   7.599  0.1287  0.1611 -0.0265
 1521TIP3    H126122   0.448   2.978   7.630 -1.3505 -0.3797 -0.9365
 1521TIP3    H226123   0.503   2.914   7.504 -0.6376 -1.1242 -0.2622
 1522TIP3   OH226124   3.390   0.031   0.813  0.3115  0.0223  0.2916
 1522TIP3    H126125   3.448  -0.009   0.748  0.3147  1.3866 -0.5889
 1522TIP3    H226126   3.450   0.068   0.878  0.4352  0.9592 -0.3348
 1523TIP3   OH226127   3.227   4.884   2.346  0.2853  0.2080  0.5961
 1523TIP3    H126128   3.297   4.834   2.387  1.0882  2.1990  1.7965
 1523TIP3    H226129   3.271   4.959   2.305 -1.0464  1.1205  0.7484
 1524TIP3   OH226130   4.657   0.941   7.761 -0.1116  0.1576 -0.3521
 1524TIP3    H126131   4.745   0.978   7.754  0.1124 -0.2176  0.4322
 1524TIP3    H226132   4.616   0.963   7.677  0.7490  0.2696 -0.7614
 1525TIP3   OH226133   3.065   0.534   2.137  0.3223  0.0692  0.5932
 1525TIP3    H126134   3.017   0.481   2.200  1.3436 -0.0332  1.2995
 1525TIP3    H226135   3.141   0.480   2.112 -0.2630 -0.0711 -1.0482
 1526TIP3   OH226136   2.462   4.596   7.573  0.1276 -0.1906 -0.5403
 1526TIP3    H126137   2.523   4.524   7.591  1.2228  0.3477 -1.9109
 1526TIP3    H226138   2.386   4.553   7.535  0.1274 -0.7568  0.0621
 1527TIP3   OH226139   1.235   6.354   0.991 -0.9932  0.3407 -0.0349
 1527TIP3    H126140   1.303   6.377   1.054 -0.9585  0.4611 -0.1170
 1527TIP3    H226141   1.171   6.305   1.043 -0.4938 -0.4088 -0.1036
 1528TIP3   OH226142   2.927   0.165   3.580 -0.3868 -0.5834  0.0541
 1528TIP3    H126143   3.015   0.200   3.596 -0.8092  0.8716 -0.6014
 1528TIP3    H226144   2.875   0.200   3.652 -0.5421 -1.0189  0.1540
 1529TIP3   OH226145   4.866   5.610   1.720 -0.5103 -0.7738 -0.6010
 1529TIP3    H126146   4.942   5.657   1.754 -1.4822 -0.4355  1.2376
 1529TIP3    H226147   4.845   5.653   1.637 -1.0314  1.7310  0.7477
 1530TIP3   OH226148   0.431   3.255   0.413  0.6618  0.2525 -0.7711
 1530TIP3    H126149   0.518   3.290   0.392  0.9607 -1.2102 -2.2229
 1530TIP3    H226150   0.379   3.273   0.335  0.9143 -2.6026 -1.7381
 1531TIP3   OH226151   3.464   6.286   1.965  0.2483  0.3157 -0.2061
 1531TIP3    H126152   3.529   6.312   2.030  0.2839  2.3076 -0.9483
 1531TIP3    H226153   3.460   6.361   1.905 -2.1528 -0.0824 -0.6317
 1532TIP3   OH226154   4.411   2.136   1.598 -0.1420  0.0272 -0.0634
 1532TIP3    H126155   4.423   2.095   1.513 -0.4102 -2.3046  0.9194
 1532TIP3    H226156   4.317   2.153   1.604 -0.6259 -2.4902  0.7852
 1533TIP3   OH226157   0.876   6.619   1.598  0.4618  0.9575  0.4832
 1533TIP3    H126158   0.912   6.536   1.565 -0.8856  0.9380 -1.0411
 1533TIP3    H226159   0.890   6.614   1.693 -1.5500 -2.0517  0.7667
 1534TIP3   OH226160   4.258   2.424   0.702  0.4711 -0.1152  0.0797
 1534TIP3    H126161   4.223   2.364   0.767 -0.7264  1.2928  0.8049
 1534TIP3    H226162   4.208   2.505   0.715 -0.8906 -0.1924 -3.6160
 1535TIP3   OH226163   5.959   2.706   2.192  0.1462 -0.5105 -0.1429
 1535TIP3    H126164   5.948   2.731   2.100 -2.0324 -1.4871 -0.2199
 1535TIP3    H226165   5.870   2.708   2.228  0.9485 -0.1731  1.9578
 1536TIP3   OH226166   0.040   5.413   1.532 -0.0112 -0.0333 -0.5881
 1536TIP3    H126167   0.095   5.338   1.554 -0.3192 -0.3638 -0.9248
 1536TIP3    H226168   0.079   5.450   1.454  0.0568  0.0683 -0.5057
 1537TIP3   OH226169   0.128   1.129   1.983 -0.0029  0.0363 -0.3385
 1537TIP3    H126170   0.170   1.214   1.970  1.1606 -0.2207  1.4418
 1537TIP3    H226171   0.151   1.079   1.905  1.8633  0.3812 -0.0480
 1538TIP3   OH226172   6.614   6.696   0.363  0.0419  0.2279 -0.2708
 1538TIP3    H126173   6.699   6.701   0.318  0.4285  0.2445  0.4321
 1538TIP3    H226174   6.556   6.652   0.301 -0.0853  2.2929 -1.7142
 1539TIP3   OH226175   0.531   1.267   8.012 -0.1337 -0.0439  1.0430
 1539TIP3    H126176   0.528   1.172   7.999 -1.6687 -0.0541  1.2614
 1539TIP3    H226177   0.501   1.303   7.928 -1.3548  0.1737  1.5611
 1540TIP3   OH226178   2.776   1.023   7.765 -0.3625  0.5322  0.3129
 1540TIP3    H126179   2.854   0.968   7.768 -0.3545  0.5803  2.8915
 1540TIP3    H226180   2.790   1.080   7.689  1.6550 -0.0966  0.1481
 1541TIP3   OH226181   5.904   2.574   2.460 -0.1038 -0.3011 -0.5990
 1541TIP3    H126182   5.890   2.497   2.515 -0.0860 -0.0407 -0.2254
 1541TIP3    H226183   5.821   2.585   2.413 -0.0440 -0.6527 -0.7886
 1542TIP3   OH226184   3.158   4.512   1.626  0.3678 -0.2031  0.3765
 1542TIP3    H126185   3.240   4.497   1.673  0.5282  1.5143  0.7193
 1542TIP3    H226186   3.098   4.445   1.660  0.6916  0.5152  2.5153
 1543TIP3   OH226187   3.697   2.002   1.355 -0.1209 -0.3426 -0.4615
 1543TIP3    H126188   3.762   1.942   1.393  0.1331  0.6984  0.8188
 1543TIP3    H226189   3.685   2.070   1.422 -2.0690 -0.1587 -0.9336
 1544TIP3   OH226190   3.651   1.012   1.119 -0.1835 -0.0336  0.1642
 1544TIP3    H126191   3.737   1.005   1.161 -0.8616 -1.7337  1.4074
 1544TIP3    H226192   3.661   1.082   1.054  2.4817 -1.0301 -0.6235
 1545TIP3   OH226193   6.161   2.998   2.763  0.6177  0.0024  0.4268
 1545TIP3    H126194   6.120   3.008   2.848 -1.0459  0.1995 -0.3595
 1545TIP3    H226195   6.203   3.082   2.746 -1.3929  0.9454 -0.1045
 1546TIP3   OH226196   3.277   0.199   1.363  0.1496 -0.3265  0.1186
 1546TIP3    H126197   3.249   0.249   1.439  1.3413 -2.1320  1.8210
 1546TIP3    H226198   3.244   0.110   1.378 -0.7293 -0.4755 -2.1487
 1547TIP3   OH226199   0.649   3.261   8.041  0.2730 -0.8018 -0.1153
 1547TIP3    H126200   0.624   3.175   8.009  0.4511 -1.1900  0.7538
 1547TIP3    H226201   0.640   3.255   8.136 -1.8418  0.8051 -0.1292
 1548TIP3   OH226202   1.897   2.093   0.881 -0.3013  0.5758  0.0087
 1548TIP3    H126203   1.865   2.031   0.816  1.3571 -0.7439  0.3750
 1548TIP3    H226204   1.819   2.142   0.908 -1.2783  0.1016 -1.8240
 1549TIP3   OH226205   2.591   5.452   8.577  0.2000  0.3908 -0.3447
 1549TIP3    H126206   2.615   5.445   8.670  0.4594  0.1034 -0.4325
 1549TIP3    H226207   2.515   5.396   8.567  0.5909 -0.1236 -0.4518
 1550TIP3   OH226208   6.825   3.814   2.123 -0.6887 -0.1954  0.3606
 1550TIP3    H126209   6.904   3.819   2.068 -1.1227  0.1645 -0.2404
 1550TIP3    H226210   6.843   3.744   2.185 -0.3661 -0.9008 -0.5209
 1551TIP3   OH226211   4.456   5.575   1.819 -0.2706  0.0600  0.1209
 1551TIP3    H126212   4.460   5.490   1.863 -0.3386 -0.9723 -1.7844
 1551TIP3    H226213   4.526   5.626   1.860  1.8488 -1.9634 -0.7590
 1552TIP3   OH226214   5.970   1.946   0.953 -0.4955  0.5464  0.5357
 1552TIP3    H126215   5.900   1.977   1.011 -0.6509 -1.9154  1.7872
 1552TIP3    H226216   5.991   2.022   0.899 -5.2929  1.0258 -1.1492
 1553TIP3   OH226217   1.971   4.554   1.955  0.0305  0.4214  0.1578
 1553TIP3    H126218   1.883   4.549   1.917  0.2719  1.2289 -0.5556
 1553TIP3    H226219   1.969   4.495   2.030 -0.6034 -0.8828 -0.8508
 1554TIP3   OH226220   0.657   5.830   2.202 -0.1338  0.3786 -0.1429
 1554TIP3    H126221   0.661   5.894   2.272  1.4589  0.8075 -0.5680
 1554TIP3    H226222   0.708   5.755   2.235 -1.6086 -0.5232  0.1801
 1555TIP3   OH226223   3.985   4.551   0.945  0.6816 -0.0904  0.1705
 1555TIP3    H126224   4.067   4.508   0.968  1.0108 -0.4210 -1.4979
 1555TIP3    H226225   4.012   4.626   0.893 -0.0786 -0.4815 -0.8115
 1556TIP3   OH226226   1.280   4.537   0.750  0.0879  0.1828 -0.1127
 1556TIP3    H126227   1.228   4.492   0.684 -1.0816  1.6821 -0.2858
 1556TIP3    H226228   1.251   4.499   0.833  0.2370 -0.4452 -0.3468
 1557TIP3   OH226229   1.890   0.797   3.327 -0.1377 -0.5673 -0.1066
 1557TIP3    H126230   1.803   0.819   3.363 -0.5905 -0.6714 -1.1129
 1557TIP3    H226231   1.940   0.767   3.403 -0.3392  1.3725  0.8647
 1558TIP3   OH226232   3.330   2.190   1.461 -0.4561 -0.2414 -0.0785
 1558TIP3    H126233   3.308   2.166   1.371 -2.3910  0.1470  0.2426
 1558TIP3    H226234   3.250   2.233   1.494  0.3518 -0.0292  1.6917
 1559TIP3   OH226235   2.229   2.075   0.269  0.2207 -0.2225 -0.6785
 1559TIP3    H126236   2.324   2.070   0.283  0.2613 -1.9165 -1.3910
 1559TIP3    H226237   2.213   2.168   0.251  1.9213 -0.0896 -1.6990
 1560TIP3   OH226238   1.410   4.421   7.051 -0.3430  0.4119 -0.2135
 1560TIP3    H126239   1.448   4.383   6.971 -1.1646  0.5364 -0.6732
 1560TIP3    H226240   1.450   4.371   7.122 -0.5867 -0.5978 -0.7628
 1561TIP3   OH226241   1.969   3.575   0.127  0.3672  0.8461  0.7282
 1561TIP3    H126242   1.952   3.590   0.220  2.5009  0.6229  1.2025
 1561TIP3    H226243   1.883   3.581   0.085 -0.8110 -0.2047  2.8550
 1562TIP3   OH226244   5.187   3.956   1.630 -0.7394 -0.2926  0.3034
 1562TIP3    H126245   5.251   4.006   1.682 -2.5504  1.9027  0.5725
 1562TIP3    H226246   5.218   3.866   1.635  3.3421  0.8064 -1.0661
 1563TIP3   OH226247   2.684   1.789   8.297 -0.2895  0.2833 -0.6309
 1563TIP3    H126248   2.704   1.835   8.216 -1.6587 -0.1881 -1.2755
 1563TIP3    H226249   2.747   1.717   8.300 -0.8874 -0.3232 -1.8502
 1564TIP3   OH226250   5.101   0.904   3.388  0.0309  0.1688  0.2502
 1564TIP3    H126251   5.168   0.953   3.436  0.5252 -0.6187  0.3738
 1564TIP3    H226252   5.131   0.813   3.391 -0.2074  0.0304 -1.0817
 1565TIP3   OH226253   4.279   6.139   2.477 -0.2459 -0.0783  0.6665
 1565TIP3    H126254   4.290   6.048   2.450 -0.0637  0.0423  0.3278
 1565TIP3    H226255   4.244   6.134   2.566 -0.8109 -0.4750  0.4223
 1566TIP3   OH226256   3.701   3.464   2.355 -0.0367  0.2066 -0.2728
 1566TIP3    H126257   3.609   3.454   2.380  1.0315 -1.7108  3.8082
 1566TIP3    H226258   3.717   3.396   2.291 -1.0431 -0.8637  0.5768
 1567TIP3   OH226259   1.641   2.291   8.060  0.1568  0.2395 -0.3776
 1567TIP3    H126260   1.578   2.274   7.989  1.6190 -2.0914 -1.2262
 1567TIP3    H226261   1.678   2.377   8.038  1.1926 -0.7757 -3.0294
 1568TIP3   OH226262   3.742   1.718   8.167  0.1003  0.4185  0.1502
 1568TIP3    H126263   3.774   1.787   8.108  1.1284  0.4798  0.7446
 1568TIP3    H226264   3.803   1.646   8.154 -1.1193 -0.5004 -0.6481
 1569TIP3   OH226265   4.938   4.684   8.298 -0.2260  0.1597 -0.3222
 1569TIP3    H126266   4.934   4.692   8.203 -1.6451 -0.1280 -0.3032
 1569TIP3    H226267   4.887   4.759   8.330  1.1747  0.9104  0.2631
 1570TIP3   OH226268   1.058   6.688   8.065 -0.0642 -0.1789  0.1842
 1570TIP3    H126269   1.051   6.725   7.977 -0.5514  0.7743  0.6096
 1570TIP3    H226270   1.019   6.754   8.122 -0.4978 -1.1431  1.0316
 1571TIP3   OH226271   6.161   4.033   2.595  0.0892 -0.4385 -0.6674
 1571TIP3    H126272   6.192   3.979   2.523 -0.6661 -0.2094 -1.1782
 1571TIP3    H226273   6.068   4.046   2.577  0.2647  1.0836 -0.5858
 1572TIP3   OH226274   1.945   2.363   1.862  0.2869 -0.0871 -0.3611
 1572TIP3    H126275   2.024   2.352   1.809 -0.4465 -0.3930 -1.4171
 1572TIP3    H226276   1.890   2.422   1.811 -1.1707 -1.7516 -0.7875
 1573TIP3   OH226277   3.528   5.484   1.235  0.3638  0.6624 -0.2192
 1573TIP3    H126278   3.624   5.489   1.229  0.4851 -1.4056 -0.5453
 1573TIP3    H226279   3.509   5.491   1.328  0.7699  1.6846 -0.1997
 1574TIP3   OH226280   6.703   0.530   8.049  0.2249  0.2262  0.4669
 1574TIP3    H126281   6.681   0.579   8.128  0.2693  0.4736  0.3295
 1574TIP3    H226282   6.782   0.482   8.072  0.1584  0.1893  0.6172
 1575TIP3   OH226283   2.893   4.739   0.616 -0.2980  0.3192 -0.4355
 1575TIP3    H126284   2.820   4.730   0.676 -0.2940 -1.5945 -0.6660
 1575TIP3    H226285   2.964   4.775   0.669 -0.8903  0.5765  0.1901
 1576TIP3   OH226286   1.690   5.263   0.348  0.1810  0.2764 -0.5602
 1576TIP3    H126287   1.757   5.199   0.321  0.0882  0.1860 -0.5749
 1576TIP3    H226288   1.701   5.336   0.287 -0.0823  0.0379 -0.8945
 1577TIP3   OH226289   1.740   4.236   2.663  0.1053 -0.0210  0.5389
 1577TIP3    H126290   1.762   4.162   2.720  0.1099 -2.8152 -2.7149
 1577TIP3    H226291   1.650   4.218   2.636  0.1155  1.1795 -0.3397
 1578TIP3   OH226292   5.495   6.805   2.920 -0.0380 -0.2164  0.3517
 1578TIP3    H126293   5.497   6.710   2.928 -1.2784 -0.2883 -0.0634
 1578TIP3    H226294   5.572   6.826   2.866 -1.1727 -1.2460 -1.7682
 1579TIP3   OH226295   0.202   3.979   1.692  0.2459 -0.2501 -0.1465
 1579TIP3    H126296   0.159   3.896   1.671  0.1569  0.3198 -2.4688
 1579TIP3    H226297   0.150   4.015   1.764 -0.9732 -1.2532 -0.4886
 1580TIP3   OH226298   4.292   3.364   0.285  0.2695 -0.3054 -0.4873
 1580TIP3    H126299   4.277   3.350   0.379 -1.7415  1.0871 -0.5541
 1580TIP3    H226300   4.354   3.437   0.281  1.8055 -1.5256 -0.2892
 1581TIP3   OH226301   3.835   2.945   0.515 -0.4305  0.3990 -0.1633
 1581TIP3    H126302   3.873   3.023   0.557 -1.3702  0.2658  0.9839
 1581TIP3    H226303   3.749   2.935   0.557 -0.5440 -0.9483 -0.6806
 1582TIP3   OH226304   1.854   3.319   2.320 -0.0830 -0.1625 -0.2971
 1582TIP3    H126305   1.771   3.346   2.361  1.0083  1.3632  1.0464
 1582TIP3    H226306   1.899   3.402   2.302  1.8738 -0.9743  0.5937
 1583TIP3   OH226307   1.837   4.228   2.351  0.3461 -0.5826 -0.2034
 1583TIP3    H126308   1.815   4.253   2.441  1.6351 -0.7685  0.1881
 1583TIP3    H226309   1.815   4.135   2.345  1.0246 -0.7711  0.1840
 1584TIP3   OH226310   1.372   5.513   7.293 -0.4538 -0.4713 -0.0959
 1584TIP3    H126311   1.336   5.599   7.314  0.5786 -0.4650  1.9090
 1584TIP3    H226312   1.310   5.476   7.230  0.6234  2.8517 -3.4055
 1585TIP3   OH226313   1.084   1.028   8.170  0.2548  0.1822 -0.8615
 1585TIP3    H126314   1.065   0.953   8.226  2.0962  1.6926  2.0230
 1585TIP3    H226315   1.093   0.991   8.083 -1.2466 -2.5567  0.0241
 1586TIP3   OH226316   4.760   3.365   7.718 -0.6267 -0.3852 -0.4156
 1586TIP3    H126317   4.776   3.295   7.781 -0.3477 -0.6631 -0.7867
 1586TIP3    H226318   4.680   3.407   7.748  0.4017  0.5880  1.1076
 1587TIP3   OH226319   1.201   5.768   7.661  0.0665  0.0739 -0.4974
 1587TIP3    H126320   1.158   5.719   7.731  1.0117  0.7821  0.6287
 1587TIP3    H226321   1.286   5.726   7.650 -0.0239  0.0515 -1.1301
 1588TIP3   OH226322   1.497   4.897   0.112  0.2834  0.3319  0.2995
 1588TIP3    H126323   1.516   4.991   0.109  3.2230 -0.1823 -0.9854
 1588TIP3    H226324   1.538   4.867   0.194  0.9768 -0.0908 -0.1927
 1589TIP3   OH226325   6.797   5.427   2.324 -0.1105 -0.7097  0.3495
 1589TIP3    H126326   6.733   5.376   2.273 -2.0127  1.2444  0.6272
 1589TIP3    H226327   6.840   5.363   2.379  0.4380 -2.5820 -2.0703
 1590TIP3   OH226328   5.691   2.702   2.285  0.5948  0.3788 -0.3813
 1590TIP3    H126329   5.609   2.670   2.324  0.9871 -0.8728 -0.5325
 1590TIP3    H226330   5.710   2.783   2.332 -0.7435  0.6998 -0.3579
 1591TIP3   OH226331   0.515   1.783   1.821  0.2966 -0.0160 -0.5464
 1591TIP3    H126332   0.579   1.809   1.887 -2.0731  0.7330  1.5837
 1591TIP3    H226333   0.485   1.865   1.783 -0.5267 -0.2472 -0.4052
 1592TIP3   OH226334   5.938   6.107   0.507 -0.6111  0.4801  0.0763
 1592TIP3    H126335   5.969   6.184   0.459 -1.4816  2.9899  3.1494
 1592TIP3    H226336   5.844   6.102   0.487 -0.8593  1.1877  0.9856
 1593TIP3   OH226337   2.305   2.737   8.032 -0.0223 -0.1221  0.0706
 1593TIP3    H126338   2.275   2.682   7.960 -1.4812 -0.4766  0.9240
 1593TIP3    H226339   2.370   2.684   8.078 -0.0040 -0.3766 -0.2463
 1594TIP3   OH226340   6.251   6.277   0.289  0.2334  0.1560 -0.1941
 1594TIP3    H126341   6.155   6.283   0.289  0.2107 -0.1518  0.0721
 1594TIP3    H226342   6.280   6.366   0.311  0.0084  0.2457 -0.2526
 1595TIP3   OH226343   6.607   0.407   2.218 -0.1542 -0.7409 -0.2189
 1595TIP3    H126344   6.577   0.346   2.286  1.0145  0.0569  1.0772
 1595TIP3    H226345   6.535   0.410   2.155 -1.6858 -0.8334  1.4422
 1596TIP3   OH226346   6.811   3.681   0.366  0.2676  0.8403 -0.2907
 1596TIP3    H126347   6.829   3.629   0.287  0.2128  0.2547  0.0760
 1596TIP3    H226348   6.816   3.772   0.336  1.2597  0.6464 -0.7527
 1597TIP3   OH226349   5.824   5.775   1.109  0.4299  0.5178 -0.4107
 1597TIP3    H126350   5.838   5.691   1.066 -1.2616 -0.4091  0.7485
 1597TIP3    H226351   5.763   5.822   1.053  1.4759  1.0720 -1.1265
 1598TIP3   OH226352   6.338   2.498   7.292 -0.7746 -0.1023  0.3996
 1598TIP3    H126353   6.391   2.470   7.217 -1.3390  0.2846 -0.1515
 1598TIP3    H226354   6.388   2.570   7.330  0.0329 -0.9576  1.0429
 1599TIP3   OH226355   5.959   5.598   7.222  0.6832  0.6632  0.0405
 1599TIP3    H126356   5.905   5.538   7.273 -0.9693  2.0310 -0.0202
 1599TIP3    H226357   5.993   5.545   7.150 -0.0360 -0.4022  0.4655
 1600TIP3   OH226358   0.114   4.431   0.437 -0.0438 -0.0872 -0.3739
 1600TIP3    H126359   0.154   4.517   0.449  1.5868 -0.5213 -2.0546
 1600TIP3    H226360   0.055   4.442   0.362 -1.6329  0.0790  0.8649
 1601TIP3   OH226361   4.698   6.252   7.709 -0.6214 -0.1109 -0.2429
 1601TIP3    H126362   4.629   6.202   7.666 -0.1298 -0.1004 -1.0728
 1601TIP3    H226363   4.735   6.192   7.773 -2.8067  0.5622  1.8123
 1602TIP3   OH226364   0.093   4.413   1.022 -0.9057  0.0698  0.2968
 1602TIP3    H126365   0.128   4.420   1.111  0.4844  1.4857 -0.3045
 1602TIP3    H226366   0.037   4.490   1.012 -2.2465 -0.8618  0.4041
 1603TIP3   OH226367   0.761   3.162   8.415 -0.1061  0.2310  0.2605
 1603TIP3    H126368   0.819   3.164   8.491  1.2975 -1.3104 -0.6997
 1603TIP3    H226369   0.819   3.142   8.342 -1.6055  0.4902 -1.0412
 1604TIP3   OH226370   0.210   5.804   3.255 -0.0398  0.5028  0.7050
 1604TIP3    H126371   0.270   5.753   3.309  1.6598  0.8812 -0.7439
 1604TIP3    H226372   0.182   5.744   3.186  0.2363  0.8968  0.2479
 1605TIP3   OH226373   0.161   4.372   2.649  0.2454 -0.6777 -0.7279
 1605TIP3    H126374   0.152   4.397   2.557 -3.0572  1.8307  0.0839
 1605TIP3    H226375   0.090   4.308   2.663  0.6861 -1.0021  0.1060
 1606TIP3   OH226376   5.907   3.164   8.276  0.1646 -0.1586  0.8343
 1606TIP3    H126377   5.914   3.256   8.251 -0.8422 -0.4008 -0.4454
 1606TIP3    H226378   5.884   3.166   8.369 -1.7713  0.9525  0.3727
 1607TIP3   OH226379   1.552   3.740   2.285  0.0170  0.0741 -0.6483
 1607TIP3    H126380   1.470   3.711   2.326  0.1345  1.3251  0.5514
 1607TIP3    H226381   1.550   3.701   2.198 -2.3875  0.9268 -1.0521
 1608TIP3   OH226382   1.405   4.210   1.137 -0.1631 -1.1546  0.4106
 1608TIP3    H126383   1.320   4.185   1.173 -0.8431  3.2536  2.5104
 1608TIP3    H226384   1.464   4.209   1.212  0.3336  0.7279  0.0869
 1609TIP3   OH226385   1.503   1.694   2.249  0.2838  0.1802  0.1790
 1609TIP3    H126386   1.467   1.714   2.163 -0.5168  2.8667  1.0446
 1609TIP3    H226387   1.571   1.628   2.232 -1.2802 -0.9457 -2.1895
 1610TIP3   OH226388   4.999   4.996   1.028 -0.4652  0.2914  0.1287
 1610TIP3    H126389   5.020   5.039   0.945  0.7661 -1.7467 -0.6894
 1610TIP3    H226390   4.906   4.974   1.021  0.0023 -1.4099 -1.5254
 1611TIP3   OH226391   6.242   3.880   2.339  0.0513  0.7869  0.0619
 1611TIP3    H126392   6.336   3.898   2.351 -0.2461  1.7677  1.0288
 1611TIP3    H226393   6.203   3.966   2.330 -1.0307  0.5010  1.6896
 1612TIP3   OH226394   3.125   2.104   8.173  0.1073 -0.1284 -0.1041
 1612TIP3    H126395   3.122   2.193   8.140 -2.0884  0.3912  1.3243
 1612TIP3    H226396   3.130   2.050   8.094  0.2251  1.1994 -1.0410
 1613TIP3   OH226397   4.465   6.712   8.145 -0.6889 -0.3536 -0.3334
 1613TIP3    H126398   4.390   6.771   8.134  0.9065  1.4837 -2.1448
 1613TIP3    H226399   4.477   6.707   8.240 -0.9159  2.3022 -0.0884
 1614TIP3   OH226400   0.087   1.884   8.438  0.2649 -0.1279 -0.0597
 1614TIP3    H126401   0.162   1.882   8.497  2.3530  1.6142 -2.4467
 1614TIP3    H226402   0.115   1.836   8.361 -1.3994 -0.1480 -0.7106
 1615TIP3   OH226403   0.362   4.274   0.511 -0.0136 -0.1735 -0.0928
 1615TIP3    H126404   0.376   4.368   0.499  0.0148 -0.2793 -1.0031
 1615TIP3    H226405   0.286   4.268   0.569 -1.5973  0.4547 -1.9703
 1616TIP3   OH226406   1.554   4.976   7.482 -0.6213 -0.2321 -0.1802
 1616TIP3    H126407   1.582   4.940   7.398 -0.8765  1.8609 -1.2296
 1616TIP3    H226408   1.624   5.036   7.507 -0.7905 -0.4518  0.8749
 1617TIP3   OH226409   2.162   2.626   2.467 -0.0465  0.2858  0.5094
 1617TIP3    H126410   2.094   2.661   2.524  0.3467  1.5106  0.2530
 1617TIP3    H226411   2.232   2.690   2.471 -0.5629  1.1854 -2.4512
 1618TIP3   OH226412   5.291   0.680   8.612 -0.0333 -0.0321 -0.4547
 1618TIP3    H126413   5.296   0.688   8.517 -1.7559  0.5011 -0.5489
 1618TIP3    H226414   5.369   0.725   8.645 -0.0212  0.8235 -1.5909
 1619TIP3   OH226415   4.930   6.516   0.861 -0.5937  0.1340 -0.3489
 1619TIP3    H126416   4.944   6.423   0.843  1.5451  0.1316  1.0727
 1619TIP3    H226417   4.835   6.523   0.876 -0.8420 -1.7228 -0.8251
 1620TIP3   OH226418   0.673   4.111   2.092 -0.6490 -0.2207 -0.2409
 1620TIP3    H126419   0.585   4.092   2.060 -0.6570 -0.9622  0.1710
 1620TIP3    H226420   0.680   4.206   2.092 -0.5743 -0.1714 -2.5800
 1621TIP3   OH226421   3.104   3.655   3.208 -0.0844 -0.0656 -0.2202
 1621TIP3    H126422   3.039   3.725   3.200  0.2678  0.1353 -1.5313
 1621TIP3    H226423   3.071   3.585   3.152  0.5800 -0.1544 -0.5074
 1622TIP3   OH226424   6.180   0.267   8.203  0.3913  0.1485 -0.3664
 1622TIP3    H126425   6.137   0.345   8.237  0.6404  0.2202 -0.2135
 1622TIP3    H226426   6.244   0.300   8.140 -1.4219 -0.0637 -2.4676
 1623TIP3   OH226427   1.144   0.560   1.818  0.5871 -0.1782  0.4708
 1623TIP3    H126428   1.063   0.513   1.839  0.5457 -0.5417 -0.4592
 1623TIP3    H226429   1.114   0.647   1.793  0.4482 -0.4080 -0.1805
 1624TIP3   OH226430   3.085   5.809   7.919  0.7079 -0.3272 -0.0271
 1624TIP3    H126431   3.159   5.749   7.908 -1.1580 -2.5833 -1.3047
 1624TIP3    H226432   3.019   5.777   7.858 -0.5714  2.9521 -0.5830
 1625TIP3   OH226433   0.235   5.552   8.228 -0.0675  0.1869 -0.0029
 1625TIP3    H126434   0.146   5.529   8.200  1.2895 -2.3172 -2.8868
 1625TIP3    H226435   0.261   5.623   8.169 -0.7459  2.4336  2.2328
 1626TIP3   OH226436   2.373   0.528   2.328 -0.0111  0.4557 -1.1594
 1626TIP3    H126437   2.375   0.467   2.255  0.2452 -0.2823 -0.5480
 1626TIP3    H226438   2.411   0.479   2.401 -0.6300  1.0437 -0.4316
 1627TIP3   OH226439   1.065   1.211   8.612 -0.3163 -0.8026 -0.9730
 1627TIP3    H126440   1.151   1.215   8.569 -1.6670  2.0825 -3.8119
 1627TIP3    H226441   1.013   1.154   8.556 -0.7227 -1.2449 -0.1648
 1628TIP3   OH226442   5.855   3.655   8.068 -0.3289 -0.3771 -0.4123
 1628TIP3    H126443   5.925   3.655   8.003  0.2266 -0.1170  0.1716
 1628TIP3    H226444   5.779   3.692   8.023 -0.1414 -0.8118 -1.0988
 1629TIP3   OH226445   0.072   3.439   1.146  0.2683 -0.4989  0.3614
 1629TIP3    H126446   0.070   3.401   1.058  1.4055  0.3839 -0.0664
 1629TIP3    H226447   0.129   3.516   1.138 -0.6674  0.3508  1.5784
 1630TIP3   OH226448   4.623   1.097   0.920  0.9165 -0.3661  1.0036
 1630TIP3    H126449   4.596   1.133   1.005 -1.6399 -1.4811  0.7475
 1630TIP3    H226450   4.569   1.143   0.856  0.5514 -1.7174  0.2979
 1631TIP3   OH226451   3.832   1.663   0.895 -0.0521  0.6316  0.1040
 1631TIP3    H126452   3.741   1.635   0.906 -0.0905  0.0183 -1.5598
 1631TIP3    H226453   3.831   1.756   0.921 -0.8202  0.2603  1.5039
 1632TIP3   OH226454   3.769   3.267   3.208  0.2984 -0.6741 -0.3810
 1632TIP3    H126455   3.740   3.291   3.296  0.2552 -0.7830 -0.3659
 1632TIP3    H226456   3.765   3.349   3.159  0.7220 -0.5272 -0.1750
 1633TIP3   OH226457   1.639   0.518   0.647 -0.0074 -0.0700  0.3512
 1633TIP3    H126458   1.568   0.463   0.680  1.0527 -1.2944  0.7069
 1633TIP3    H226459   1.654   0.582   0.717 -0.5848  0.0353  0.3831
 1634TIP3   OH226460   1.624   5.746   1.805 -0.1756 -0.1676 -0.2125
 1634TIP3    H126461   1.575   5.816   1.762 -0.2190 -0.9442 -1.4898
 1634TIP3    H226462   1.601   5.754   1.897 -0.2804  1.4049 -0.3447
 1635TIP3   OH226463   6.033   6.191   1.226  0.2090 -0.0910  0.0071
 1635TIP3    H126464   6.075   6.123   1.172 -1.0166 -0.1006 -0.9732
 1635TIP3    H226465   6.005   6.257   1.163 -2.5573 -0.7651  0.4108
 1636TIP3   OH226466   2.195   4.468   7.185  0.0718 -0.0067 -0.2949
 1636TIP3    H126467   2.139   4.399   7.149 -0.3689  0.4199 -0.4372
 1636TIP3    H226468   2.270   4.421   7.221 -1.2394 -0.7828  1.6127
 1637TIP3   OH226469   4.984   3.530   7.717  0.0163 -0.4082  0.5507
 1637TIP3    H126470   4.945   3.596   7.775 -1.2134 -0.4589 -0.1880
 1637TIP3    H226471   4.912   3.471   7.696  0.6558 -0.9059 -0.3187
 1638TIP3   OH226472   4.872   5.693   0.937  0.1962  0.1225  0.0032
 1638TIP3    H126473   4.828   5.674   0.855  0.4259 -0.1039 -0.0677
 1638TIP3    H226474   4.801   5.699   1.002  0.0250  0.2100 -0.1907
 1639TIP3   OH226475   4.063   0.296   1.483 -0.2516  0.1494  0.8143
 1639TIP3    H126476   3.974   0.273   1.511 -0.6289  1.6476  0.9304
 1639TIP3    H226477   4.050   0.352   1.406  0.6537 -0.7275 -0.0055
 1640TIP3   OH226478   3.912   3.460   2.544  0.5082 -0.3567 -0.2720
 1640TIP3    H126479   3.841   3.450   2.480 -0.2415  1.5050  0.1925
 1640TIP3    H226480   3.879   3.526   2.605  2.9501  1.1385 -0.4654
 1641TIP3   OH226481   1.423   0.755   2.354 -0.0630  0.1427  0.4897
 1641TIP3    H126482   1.407   0.766   2.260 -0.9896  1.7353  0.7946
 1641TIP3    H226483   1.385   0.670   2.375  0.2975 -0.3069 -0.5963
 1642TIP3   OH226484   1.193   2.611   1.446  0.6018  0.3714  0.3952
 1642TIP3    H126485   1.218   2.521   1.425  1.6619  0.6325  0.4901
 1642TIP3    H226486   1.219   2.662   1.370  1.5345  0.8364  0.9973
 1643TIP3   OH226487   1.757   4.011   2.806 -0.2113 -0.1303  0.5065
 1643TIP3    H126488   1.756   4.012   2.902  0.8835 -0.4558  0.5314
 1643TIP3    H226489   1.681   3.957   2.782 -1.2540  0.9894  1.1373
 1644TIP3   OH226490   3.428   1.634   0.532 -1.1663 -0.3298  0.6516
 1644TIP3    H126491   3.344   1.588   0.538 -0.6255 -1.4804 -0.1669
 1644TIP3    H226492   3.404   1.726   0.520 -2.3442 -0.7468 -0.4665
 1645TIP3   OH226493   5.055   5.844   1.426  0.6476 -0.0596 -0.0890
 1645TIP3    H126494   4.983   5.781   1.429  0.3213  0.3322  1.9091
 1645TIP3    H226495   5.024   5.913   1.366 -0.3481 -0.2480  0.1805
 1646TIP3   OH226496   0.164   0.877   1.479  0.2317 -0.4486 -0.2374
 1646TIP3    H126497   0.175   0.834   1.394 -0.4676 -1.4871  0.1828
 1646TIP3    H226498   0.200   0.964   1.466 -0.6959 -0.2685 -1.8696
 1647TIP3   OH226499   0.029   5.858   0.014 -0.2078  0.0916 -0.4555
 1647TIP3    H126500   0.035   5.951   0.036 -1.3684  0.8089 -2.8536
 1647TIP3    H226501   0.043   5.854  -0.080 -0.0743 -2.1933 -0.4000
 1648TIP3   OH226502   3.941   2.297   7.328  0.4117 -0.1337 -0.3949
 1648TIP3    H126503   3.954   2.387   7.296 -0.4499  0.1388 -0.0150
 1648TIP3    H226504   4.020   2.277   7.378 -0.3875  1.3290  1.5936
 1649TIP3   OH226505   6.774   1.608   8.687 -0.2467  0.5423 -0.0408
 1649TIP3    H126506   6.772   1.678   8.621  0.1415  0.2760 -0.3437
 1649TIP3    H226507   6.682   1.588   8.703 -0.3707 -0.5176 -1.7476
 1650TIP3   OH226508   1.546   3.387   7.722 -0.4168  0.2457  0.0032
 1650TIP3    H126509   1.451   3.376   7.731 -0.3919 -0.0452 -0.0902
 1650TIP3    H226510   1.563   3.362   7.631  0.2201 -2.9371  0.8898
 1651TIP3   OH226511   0.445   5.996   1.705  0.0717  0.7167  0.5066
 1651TIP3    H126512   0.477   5.936   1.638 -1.3499  0.5147 -0.0061
 1651TIP3    H226513   0.495   5.972   1.783  1.5184  0.7423 -0.3643
 1652TIP3   OH226514   6.853   6.642   2.515 -0.0698 -0.7056 -0.2491
 1652TIP3    H126515   6.927   6.689   2.554 -0.1874  0.2789 -1.1693
 1652TIP3    H226516   6.840   6.566   2.572  1.8227 -1.0500 -0.2018
 1653TIP3   OH226517   1.046   0.080   8.162  0.3222  0.0756 -0.0557
 1653TIP3    H126518   1.014   0.151   8.106  0.6386 -0.2735 -0.6858
 1653TIP3    H226519   1.106   0.123   8.222  0.2228  0.4032 -0.1866
 1654TIP3   OH226520   6.733   1.006   8.120  0.0637 -0.1733 -0.0160
 1654TIP3    H126521   6.731   0.937   8.054 -1.9093 -0.4984  0.3410
 1654TIP3    H226522   6.715   1.087   8.072  1.0507 -0.0538 -0.2183
 1655TIP3   OH226523   0.292   6.492   7.544  0.2209  0.1529  0.3662
 1655TIP3    H126524   0.336   6.442   7.613  2.7829 -0.0729 -1.3058
 1655TIP3    H226525   0.217   6.437   7.520 -0.1713 -0.2089  2.2764
 1656TIP3   OH226526   5.564   5.927   1.315 -0.8854 -0.7912 -0.1345
 1656TIP3    H126527   5.550   6.021   1.306 -1.6460 -0.8789  0.0399
 1656TIP3    H226528   5.649   5.911   1.274 -0.8589 -0.0679 -0.3761
 1657TIP3   OH226529   0.151   3.363   0.894  0.0730 -0.0392 -0.2162
 1657TIP3    H126530   0.147   3.455   0.866 -1.1552 -0.2645 -0.8374
 1657TIP3    H226531   0.225   3.327   0.845  0.9772  0.7692  0.5225
 1658TIP3   OH226532   0.414   2.257   0.839  0.2299  0.2199 -0.4382
 1658TIP3    H126533   0.337   2.312   0.822 -0.1387 -0.6922 -1.8004
 1658TIP3    H226534   0.487   2.319   0.837 -0.4389  1.1272  1.0035
 1659TIP3   OH226535   6.113   4.490   7.676  0.2687  0.1570  0.2574
 1659TIP3    H126536   6.037   4.453   7.721  0.3085 -0.7474 -0.4003
 1659TIP3    H226537   6.098   4.471   7.583  0.3575  1.6919 -0.0974
 1660TIP3   OH226538   0.800   3.021   0.311 -0.4466  0.4804 -0.5410
 1660TIP3    H126539   0.869   3.003   0.374  0.1771  1.5919 -0.8829
 1660TIP3    H226540   0.732   2.955   0.329  0.4318 -0.2365  0.1925
 1661TIP3   OH226541   0.453   0.714   7.819 -0.2810 -0.2698  0.4818
 1661TIP3    H126542   0.388   0.644   7.824 -0.5462  0.0124  1.2149
 1661TIP3    H226543   0.442   0.763   7.901 -0.5877  1.0635 -0.3213
 1662TIP3   OH226544   6.512   2.128   0.200  0.0544 -0.1385  0.0856
 1662TIP3    H126545   6.571   2.202   0.187 -1.4402  1.0535 -0.1668
 1662TIP3    H226546   6.472   2.113   0.114  1.2087 -2.0682 -0.1836
 1663TIP3   OH226547   6.184   0.515   2.482  0.1341  0.7166  0.3969
 1663TIP3    H126548   6.155   0.479   2.398  1.3320 -0.7319  0.5697
 1663TIP3    H226549   6.125   0.475   2.546 -0.6501  1.6677  0.3056
 1664TIP3   OH226550   1.679   5.356   2.454 -0.1605  0.6824  0.5033
 1664TIP3    H126551   1.768   5.323   2.463  0.3349  1.4981 -1.1869
 1664TIP3    H226552   1.680   5.412   2.377 -1.6082  2.5309  1.7089
 1665TIP3   OH226553   6.066   3.673   2.315  0.1889 -0.5277 -0.1193
 1665TIP3    H126554   6.024   3.742   2.367 -1.8989 -0.8183 -1.3305
 1665TIP3    H226555   6.151   3.710   2.291 -1.3454  2.2463 -1.8310
 1666TIP3   OH226556   0.402   5.067   7.588 -0.4068  0.5114  0.1911
 1666TIP3    H126557   0.392   5.093   7.496  0.8256  0.4850  0.0351
 1666TIP3    H226558   0.329   5.006   7.604  0.7699 -1.4853 -1.5272
 1667TIP3   OH226559   6.127   5.068   8.217 -0.1598 -0.1671 -0.4176
 1667TIP3    H126560   6.042   5.085   8.258  0.0907 -2.4700  1.2082
 1667TIP3    H226561   6.171   5.153   8.220 -1.8723  0.7665 -0.0677
 1668TIP3   OH226562   5.547   4.798   0.754 -0.0491  0.9688  0.1137
 1668TIP3    H126563   5.467   4.751   0.734  0.6708 -0.1921 -0.1398
 1668TIP3    H226564   5.569   4.845   0.673  0.2001  0.2569 -0.2416
 1669TIP3   OH226565   5.729   5.174   3.006 -0.0874  0.4401 -0.0405
 1669TIP3    H126566   5.689   5.259   3.023 -0.3143  0.3326 -0.0385
 1669TIP3    H226567   5.821   5.185   3.032  0.0059  0.8403 -0.5299
 1670TIP3   OH226568   3.260   4.384   1.868  0.1699  0.1161 -0.9511
 1670TIP3    H126569   3.198   4.315   1.895  0.0260 -0.6615 -3.1080
 1670TIP3    H226570   3.232   4.461   1.918  1.2451 -1.6348  2.6846
 1671TIP3   OH226571   3.298   1.342   1.799 -0.7726  0.0004 -0.6200
 1671TIP3    H126572   3.214   1.303   1.824 -0.2567 -0.6608  0.1178
 1671TIP3    H226573   3.363   1.273   1.816  0.4070  1.6783  2.3885
 1672TIP3   OH226574   5.729   1.151   1.770 -0.2657 -0.4547  0.4562
 1672TIP3    H126575   5.714   1.057   1.764 -0.4688 -0.3911 -0.0773
 1672TIP3    H226576   5.649   1.186   1.809 -0.5161 -0.4106 -0.0898
 1673TIP3   OH226577   3.931   6.728   0.852 -0.1072 -0.3951  0.3689
 1673TIP3    H126578   3.898   6.639   0.863  0.2745 -0.4035  1.6129
 1673TIP3    H226579   3.963   6.731   0.762 -2.2701 -0.7741 -0.4631
 1674TIP3   OH226580   0.369   0.813   8.044  0.2760  0.3859  0.0562
 1674TIP3    H126581   0.302   0.778   8.102  1.1740 -0.4978  0.5971
 1674TIP3    H226582   0.399   0.893   8.087  0.6351 -0.0353  0.6016
 1675TIP3   OH226583   0.504   4.681   7.925  0.3678 -0.0240  0.4452
 1675TIP3    H126584   0.472   4.599   7.889  0.9586  0.4913 -1.3877
 1675TIP3    H226585   0.438   4.707   7.989 -0.7876 -0.9793 -0.3137
 1676TIP3   OH226586   3.468   5.819   8.033  0.1397  0.3283 -0.4911
 1676TIP3    H126587   3.403   5.829   8.102  0.2293  0.0666 -0.3657
 1676TIP3    H226588   3.527   5.894   8.044  0.0542  0.3804 -0.3910
 1677TIP3   OH226589   5.456   0.744   0.180  0.0830 -0.7757  0.1025
 1677TIP3    H126590   5.534   0.737   0.235  0.2253 -3.5319 -0.3280
 1677TIP3    H226591   5.489   0.773   0.095  0.6223 -1.6215  0.0144
 1678TIP3   OH226592   3.923   0.560   8.000  0.2425  0.1468  0.2831
 1678TIP3    H126593   4.018   0.567   7.994  0.1669  1.9182  0.6198
 1678TIP3    H226594   3.896   0.528   7.914  1.0338  1.1621 -0.3625
 1679TIP3   OH226595   1.877   1.010   1.686 -0.0994 -0.3423  0.0994
 1679TIP3    H126596   1.882   1.102   1.659 -0.8878 -0.4332 -0.3835
 1679TIP3    H226597   1.800   1.006   1.743 -0.1228 -0.7223  0.0402
 1680TIP3   OH226598   6.430   6.352   8.286  0.4826  0.1166 -0.1502
 1680TIP3    H126599   6.390   6.307   8.361  2.8278  1.3093  1.9487
 1680TIP3    H226600   6.441   6.442   8.316  2.1884  0.4562 -1.6410
 1681TIP3   OH226601   2.158   2.193   0.580  0.6298 -0.0033  0.6929
 1681TIP3    H126602   2.137   2.228   0.666 -0.3669  0.9978  0.0566
 1681TIP3    H226603   2.254   2.184   0.581  0.6930  0.6463  1.6530
 1682TIP3   OH226604   4.962   1.117   2.800 -0.0839  0.4005  0.4039
 1682TIP3    H126605   4.899   1.063   2.847  0.3236  0.8458  1.5017
 1682TIP3    H226606   4.909   1.178   2.749 -0.5590 -1.0350 -0.9332
 1683TIP3   OH226607   4.742   2.491   2.612  0.5802 -0.2449  0.6470
 1683TIP3    H126608   4.785   2.431   2.672 -0.8559 -2.5839 -0.5107
 1683TIP3    H226609   4.731   2.572   2.663  2.1616 -1.0774  2.4343
 1684TIP3   OH226610   0.123   3.897   2.872 -0.5571 -0.5967  0.3392
 1684TIP3    H126611   0.164   3.982   2.891  0.3087 -1.1661  1.1412
 1684TIP3    H226612   0.036   3.919   2.838  0.0263  0.6358 -0.4524
 1685TIP3   OH226613   3.540   6.216   8.376 -0.0733 -0.5156 -0.1989
 1685TIP3    H126614   3.568   6.306   8.395 -0.0897 -0.4825 -0.3342
 1685TIP3    H226615   3.572   6.166   8.451 -0.6139 -0.2932  0.1867
 1686TIP3   OH226616   5.491   0.929   0.628 -0.5763 -0.3188  0.3321
 1686TIP3    H126617   5.425   0.886   0.682  0.2579 -0.7939  0.9964
 1686TIP3    H226618   5.481   1.022   0.648 -3.2018  0.0545 -2.0046
 1687TIP3   OH226619   0.555   5.729   7.952  0.3020  0.2428  0.1050
 1687TIP3    H126620   0.620   5.696   8.013  0.4612 -1.6141 -0.9949
 1687TIP3    H226621   0.516   5.804   7.997  1.8830  0.2605  1.5571
 1688TIP3   OH226622   1.855   3.136   1.206 -0.1299  0.7334  0.4994
 1688TIP3    H126623   1.811   3.209   1.162 -1.9706 -0.3977  0.4085
 1688TIP3    H226624   1.921   3.107   1.142 -1.0377  0.7543 -0.4752
 1689TIP3   OH226625   1.732   0.016   7.655 -0.0072  0.0190 -0.4031
 1689TIP3    H126626   1.703   0.092   7.604 -1.1908 -0.3569 -0.3212
 1689TIP3    H226627   1.774  -0.040   7.591 -0.9205 -0.1580 -0.8705
 1690TIP3   OH226628   3.523   5.562   7.968 -0.2680 -0.3093 -0.4246
 1690TIP3    H126629   3.523   5.657   7.983  0.1451 -0.2439 -0.8438
 1690TIP3    H226630   3.431   5.541   7.951 -0.3835 -0.0087 -0.1865
 1691TIP3   OH226631   6.070   3.535   1.181 -0.0419  0.3916  0.5447
 1691TIP3    H126632   6.146   3.580   1.144 -1.0331  2.7368  1.2030
 1691TIP3    H226633   6.084   3.537   1.276 -0.5447  0.0828  0.6318
 1692TIP3   OH226634   5.811   6.775   0.487 -0.3569 -0.8098 -0.4796
 1692TIP3    H126635   5.878   6.707   0.480  1.0856  0.7319 -3.0451
 1692TIP3    H226636   5.728   6.727   0.483  0.6099 -2.5080 -1.2851
 1693TIP3   OH226637   3.843   0.408   0.356  0.1024 -0.7602 -0.0576
 1693TIP3    H126638   3.928   0.406   0.312  0.5741  0.8971  0.6860
 1693TIP3    H226639   3.848   0.338   0.421  0.8412 -0.7668 -0.1134
 1694TIP3   OH226640   1.694   3.173   0.751  0.2275 -0.5816  0.6271
 1694TIP3    H126641   1.704   3.078   0.751 -1.9578 -0.9849 -3.0837
 1694TIP3    H226642   1.674   3.194   0.843 -1.0455 -3.9429  1.2841
 1695TIP3   OH226643   4.882   2.693   3.820 -0.6750 -0.1254  0.1021
 1695TIP3    H126644   4.864   2.601   3.841 -1.1160  0.3422  1.9135
 1695TIP3    H226645   4.803   2.724   3.777 -2.0880  0.3735  2.8777
 1696TIP3   OH226646   5.610   4.776   1.049  0.5197 -0.5196 -0.3661
 1696TIP3    H126647   5.697   4.736   1.057  0.9819  0.5133 -0.0042
 1696TIP3    H226648   5.605   4.804   0.957  1.3152  1.0180  0.0333
 1697TIP3   OH226649   0.880   1.292   1.616  0.1798 -0.0128  0.2464
 1697TIP3    H126650   0.893   1.199   1.595 -0.9461  0.2297 -1.7760
 1697TIP3    H226651   0.862   1.333   1.531 -0.5005  1.8469  1.2459
 1698TIP3   OH226652   5.958   6.679   2.160  0.4152 -0.3324 -0.8372
 1698TIP3    H126653   5.934   6.671   2.068  0.0517 -0.7124 -0.7131
 1698TIP3    H226654   6.005   6.598   2.179  0.5370 -0.2293 -0.7020
 1699TIP3   OH226655   2.099   3.834   1.340 -1.0133  0.6480 -0.4497
 1699TIP3    H126656   2.089   3.841   1.245 -1.2603  0.9922 -0.4010
 1699TIP3    H226657   2.163   3.764   1.352 -1.6455 -0.0126 -0.8387
 1700TIP3   OH226658   3.248   2.921   7.733  0.0439 -0.5121  0.3439
 1700TIP3    H126659   3.295   2.838   7.723  0.1375 -0.9264  3.3443
 1700TIP3    H226660   3.316   2.987   7.740 -0.0142 -0.2871 -0.9083
 1701TIP3   OH226661   0.928   6.334   0.868 -0.3556 -0.4460 -0.1680
 1701TIP3    H126662   0.864   6.359   0.935  0.0111 -2.3116  0.9411
 1701TIP3    H226663   0.875   6.299   0.797 -0.6619 -0.0202 -0.1568
 1702TIP3   OH226664   3.988   3.945   1.143 -0.6893 -0.3036  0.2830
 1702TIP3    H126665   4.018   3.965   1.054  1.0479 -0.2950  0.8386
 1702TIP3    H226666   4.051   3.989   1.200 -1.5236 -0.6764  1.5307
 1703TIP3   OH226667   3.148   1.420   8.261 -0.1923  0.3818  0.0148
 1703TIP3    H126668   3.210   1.363   8.215 -0.5166  0.5870 -0.6880
 1703TIP3    H226669   3.110   1.475   8.192 -0.7192  0.6657  0.5223
 1704TIP3   OH226670   2.864   5.758   0.404 -0.6725 -0.2910 -0.1941
 1704TIP3    H126671   2.941   5.810   0.424 -1.8972  0.3290  3.7483
 1704TIP3    H226672   2.888   5.668   0.428 -0.7859 -0.3002 -0.1116
 1705TIP3   OH226673   1.615   5.098   1.110  0.5709  0.1736 -0.1708
 1705TIP3    H126674   1.543   5.046   1.076  1.1982 -0.9680  0.1933
 1705TIP3    H226675   1.656   5.137   1.032  0.5767 -0.5226 -0.5164
 1706TIP3   OH226676   4.279   5.484   1.135  0.1264  0.1351 -0.2593
 1706TIP3    H126677   4.213   5.428   1.096  1.3846 -1.5229 -0.1058
 1706TIP3    H226678   4.285   5.455   1.226  1.4603 -0.1760 -0.4168
 1707TIP3   OH226679   6.465   4.337   8.523 -0.0812  0.0198  0.6205
 1707TIP3    H126680   6.396   4.271   8.512  1.3476 -2.8848  5.4987
 1707TIP3    H226681   6.427   4.401   8.583  0.3557  0.4344  0.4585
 1708TIP3   OH226682   6.188   1.741   1.956  0.2125  0.2854 -0.6862
 1708TIP3    H126683   6.097   1.732   1.926  0.6773  0.3592 -2.2004
 1708TIP3    H226684   6.241   1.721   1.879  1.4622  1.9200 -0.3248
 1709TIP3   OH226685   4.885   5.339   0.203 -0.1613  0.3678  0.3173
 1709TIP3    H126686   4.869   5.423   0.159 -0.1735  0.7972  1.1119
 1709TIP3    H226687   4.979   5.340   0.222 -0.1943  0.2861  0.4855
 1710TIP3   OH226688   4.523   5.277   8.308 -0.0573 -0.0191  0.2085
 1710TIP3    H126689   4.528   5.226   8.228 -1.4407  1.6293 -1.0139
 1710TIP3    H226690   4.600   5.250   8.359 -0.0290 -2.2717 -0.9245
 1711TIP3   OH226691   6.328   3.870   1.962 -0.5778  0.1487 -0.7866
 1711TIP3    H126692   6.388   3.942   1.941  0.6570 -0.6838 -0.2511
 1711TIP3    H226693   6.321   3.872   2.058 -1.7444  0.4865 -0.8684
 1712TIP3   OH226694   4.922   1.856   2.791 -0.8891 -0.4465  0.7311
 1712TIP3    H126695   4.879   1.771   2.783 -1.2755 -0.2382  0.5342
 1712TIP3    H226696   4.965   1.854   2.877 -0.4851 -1.0199  0.5270
 1713TIP3   OH226697   5.736   5.073   2.662 -0.4550  0.3043  0.1936
 1713TIP3    H126698   5.807   5.093   2.601  0.1337  0.0044  0.7684
 1713TIP3    H226699   5.668   5.137   2.640 -1.1678 -1.1678 -2.2245
 1714TIP3   OH226700   0.699   3.242   0.850 -0.1238 -0.0244 -0.0291
 1714TIP3    H126701   0.661   3.180   0.912 -1.0151  0.5579  0.0329
 1714TIP3    H226702   0.699   3.325   0.898  2.1665 -0.1749  0.3291
 1715TIP3   OH226703   5.494   0.778   1.758  0.0354 -0.1521 -0.2060
 1715TIP3    H126704   5.513   0.837   1.685 -0.9352 -0.8109 -1.0276
 1715TIP3    H226705   5.474   0.694   1.716 -1.9737 -0.1895  0.6903
 1716TIP3   OH226706   3.180   4.624   0.518  0.6089 -0.0600  0.4052
 1716TIP3    H126707   3.195   4.709   0.560 -0.2629 -0.0217  0.6579
 1716TIP3    H226708   3.164   4.564   0.591 -2.8891  0.3771  0.1850
 1717TIP3   OH226709   5.889   4.029   3.498  0.2227  0.3932 -0.3330
 1717TIP3    H126710   5.961   4.092   3.493  2.1451 -1.2829  2.8120
 1717TIP3    H226711   5.909   3.966   3.429  1.2585  0.5019 -0.1615
 1718TIP3   OH226712   3.592   5.297   6.973  0.3043  0.6842  0.0642
 1718TIP3    H126713   3.526   5.349   6.927  0.6170  0.9115 -0.1342
 1718TIP3    H226714   3.675   5.318   6.929  0.5606  0.6540  0.5210
 1719TIP3   OH226715   2.460   6.445   2.928  0.1010 -0.0692  0.3438
 1719TIP3    H126716   2.470   6.491   2.845 -1.4316 -1.3844 -0.6352
 1719TIP3    H226717   2.543   6.400   2.941  0.8573  1.2517  0.2653
 1720TIP3   OH226718   6.448   1.069   7.568 -0.0307  0.3585  0.0445
 1720TIP3    H126719   6.474   1.132   7.500 -0.0494 -0.8455 -1.1360
 1720TIP3    H226720   6.416   1.123   7.640  2.1904  1.7867  0.0655
 1721TIP3   OH226721   0.268   1.757   0.411 -0.7481 -0.4901  0.9146
 1721TIP3    H126722   0.201   1.727   0.348  1.0924  0.3120 -1.5771
 1721TIP3    H226723   0.251   1.851   0.421  1.3422  0.2684 -1.6742
 1722TIP3   OH226724   6.397   6.223   1.921 -0.6820 -0.2436 -0.4910
 1722TIP3    H126725   6.321   6.281   1.923 -0.0466  0.6918 -1.9269
 1722TIP3    H226726   6.416   6.204   2.013 -1.0117  1.7027  0.0162
 1723TIP3   OH226727   3.209   6.694   8.169 -0.0785 -0.5622 -0.8428
 1723TIP3    H126728   3.275   6.727   8.231 -0.9598 -1.2038  0.4830
 1723TIP3    H226729   3.158   6.771   8.146  1.4699  0.0780 -2.3906
 1724TIP3   OH226730   3.209   0.157   0.435  0.4801 -0.4638  0.0488
 1724TIP3    H126731   3.298   0.158   0.402  1.2347  0.5756  1.9278
 1724TIP3    H226732   3.194   0.246   0.466 -0.0926 -1.3049  2.4400
 1725TIP3   OH226733   0.404   0.738   7.147  0.3832 -0.2529  0.8215
 1725TIP3    H126734   0.416   0.645   7.127 -2.4072 -0.2372 -1.6938
 1725TIP3    H226735   0.485   0.779   7.119  0.5768 -1.6577 -0.8841
 1726TIP3   OH226736   6.411   5.362   1.784 -0.1774  0.6387 -0.1211
 1726TIP3    H126737   6.503   5.353   1.760 -0.4910 -1.0895 -0.8117
 1726TIP3    H226738   6.385   5.275   1.815 -1.7995  0.8315 -0.8033
 1727TIP3   OH226739   3.327   3.949   3.607 -0.1759 -0.1110 -0.0810
 1727TIP3    H126740   3.252   3.966   3.550 -1.5808 -1.4907  1.2324
 1727TIP3    H226741   3.398   3.922   3.548 -1.4394 -1.0684 -1.2283
 1728TIP3   OH226742   4.157   3.867   0.898 -0.2613 -0.9271 -0.3579
 1728TIP3    H126743   4.205   3.948   0.912  1.0405 -1.9629  1.7307
 1728TIP3    H226744   4.104   3.883   0.820 -0.6696  2.1772  0.4293
 1729TIP3   OH226745   0.610   1.534   8.047 -0.0952  0.0894  0.6948
 1729TIP3    H126746   0.688   1.486   8.021  0.3237  0.1149  1.8550
 1729TIP3    H226747   0.547   1.467   8.073 -1.0454 -0.0316 -1.5867
 1730TIP3   OH226748   4.339   4.942   7.860  0.2955 -1.0761  0.2916
 1730TIP3    H126749   4.315   4.988   7.940 -2.0916 -2.4850  0.4905
 1730TIP3    H226750   4.429   4.913   7.875  0.0449 -0.9515  2.3069
 1731TIP3   OH226751   4.586   5.323   7.430  0.2509  0.4263 -0.3817
 1731TIP3    H126752   4.551   5.405   7.466 -0.4858  0.1261 -0.3921
 1731TIP3    H226753   4.512   5.286   7.381 -0.3340 -1.6301  1.8896
 1732TIP3   OH226754   4.420   4.041   0.600 -0.5152 -0.3145 -0.2436
 1732TIP3    H126755   4.512   4.043   0.625 -0.6600 -0.5668  0.3374
 1732TIP3    H226756   4.382   4.118   0.642 -0.4832  0.0121 -0.8208
 1733TIP3   OH226757   1.839   2.332   3.067 -0.3081  0.3328  0.3983
 1733TIP3    H126758   1.851   2.300   2.978 -0.2631 -0.0263  0.5326
 1733TIP3    H226759   1.796   2.417   3.056 -0.8962 -0.0006  0.0537
 1734TIP3   OH226760   6.479   5.563   0.576 -0.0450 -0.7505 -0.1646
 1734TIP3    H126761   6.542   5.526   0.637  1.2035 -0.0511 -0.9945
 1734TIP3    H226762   6.454   5.647   0.615  0.5981 -0.3970 -0.4908
 1735TIP3   OH226763   4.989   2.906   0.530  0.1054  0.3141 -0.3450
 1735TIP3    H126764   5.083   2.893   0.544  0.3010  1.1872 -0.7214
 1735TIP3    H226765   4.950   2.895   0.617  0.8213  1.9109  0.2330
 1736TIP3   OH226766   6.807   1.086   3.157 -0.4657  0.0245 -0.4722
 1736TIP3    H126767   6.746   1.158   3.145  0.6106  1.2734  1.0963
 1736TIP3    H226768   6.752   1.009   3.168 -1.7093  0.9340 -0.1324
 1737TIP3   OH226769   4.862   1.445   2.979  0.8412  0.1840 -0.8286
 1737TIP3    H126770   4.842   1.359   3.015  3.8809 -0.6648 -0.8863
 1737TIP3    H226771   4.869   1.502   3.056 -0.8780  0.3569 -0.7705
 1738TIP3   OH226772   4.829   1.655   0.004  0.5962 -0.4777 -0.0089
 1738TIP3    H126773   4.896   1.620   0.062 -0.2918 -1.5044  0.4385
 1738TIP3    H226774   4.874   1.722  -0.048  1.3644  0.7223  2.0621
 1739TIP3   OH226775   5.808   2.752   7.799 -0.5275 -0.6004  0.2989
 1739TIP3    H126776   5.790   2.802   7.719  0.2238 -2.1069 -0.8776
 1739TIP3    H226777   5.886   2.793   7.835 -0.3130 -0.4797 -0.2799
 1740TIP3   OH226778   6.212   1.746   2.505  0.2209 -0.0410  0.1026
 1740TIP3    H126779   6.137   1.724   2.450  0.0009 -2.9482  1.4060
 1740TIP3    H226780   6.288   1.717   2.454  0.1841 -0.5717  0.3479
 1741TIP3   OH226781   0.891   4.503   8.531  0.2279 -0.2838  0.3495
 1741TIP3    H126782   0.920   4.458   8.610  0.4582  2.4685  1.9355
 1741TIP3    H226783   0.795   4.504   8.537  0.1161 -1.8061 -0.5034
 1742TIP3   OH226784   1.512   0.298   8.678 -0.3609 -0.1544  0.3434
 1742TIP3    H126785   1.446   0.353   8.637 -0.2720  0.1225  0.5646
 1742TIP3    H226786   1.465   0.251   8.747 -0.2590  0.3353  0.7620
 1743TIP3   OH226787   2.496   6.045   1.266  0.3149 -0.1295 -0.2338
 1743TIP3    H126788   2.448   6.086   1.338 -0.2701 -0.9398 -0.1385
 1743TIP3    H226789   2.474   6.097   1.189 -2.2895 -1.5396 -0.5552
 1744TIP3   OH226790   3.456   3.899   1.360  0.0668  0.0913 -0.0105
 1744TIP3    H126791   3.504   3.952   1.296  0.8359 -0.0647  0.4253
 1744TIP3    H226792   3.436   3.817   1.315 -0.1228  0.3043 -0.3151
 1745TIP3   OH226793   5.330   2.049   7.363  0.1708 -0.4509  0.0277
 1745TIP3    H126794   5.387   2.005   7.300 -0.1351  0.2744 -0.7810
 1745TIP3    H226795   5.370   2.136   7.374 -1.4143  0.5377 -1.5086
 1746TIP3   OH226796   4.210   6.818   8.182  0.3572 -0.5416  0.2061
 1746TIP3    H126797   4.213   6.812   8.277  1.2477  0.9462  0.3058
 1746TIP3    H226798   4.138   6.761   8.156  0.5894 -1.5581  1.7067
 1747TIP3   OH226799   6.548   2.956   1.189 -0.0518  0.0232  0.3474
 1747TIP3    H126800   6.548   3.036   1.136  0.7406 -1.2556 -1.7014
 1747TIP3    H226801   6.636   2.951   1.225 -0.2548  0.2980  0.9088
 1748TIP3   OH226802   6.096   0.340   1.085  0.0318 -0.5846 -0.0625
 1748TIP3    H126803   6.094   0.245   1.086  0.0386 -0.6171 -1.7462
 1748TIP3    H226804   6.016   0.365   1.040 -0.4772  0.2653  1.2347
 1749TIP3   OH226805   4.591   3.108   1.683  0.1943 -0.2387  0.2169
 1749TIP3    H126806   4.577   3.190   1.729 -1.4328  0.8249 -1.9925
 1749TIP3    H226807   4.683   3.087   1.699  0.2455  1.1317  2.1211
 1750TIP3   OH226808   3.564   4.757   8.421 -0.7314  0.1598  0.0270
 1750TIP3    H126809   3.563   4.718   8.333 -0.2554 -2.9999  1.2933
 1750TIP3    H226810   3.645   4.726   8.460 -0.6144  2.0545  1.4330
 1751TIP3   OH226811   1.591   6.581   1.605  0.1780  0.0277 -0.3865
 1751TIP3    H126812   1.653   6.537   1.547  1.3080 -0.2822  0.9937
 1751TIP3    H226813   1.568   6.515   1.671  1.3408  1.2000  1.2993
 1752TIP3   OH226814   6.400   4.779   8.400  0.0149  0.1325  0.4228
 1752TIP3    H126815   6.326   4.726   8.372  0.3103  0.2231 -0.5699
 1752TIP3    H226816   6.398   4.856   8.344 -0.4981  1.2779  1.9586
 1753TIP3   OH226817   3.070   2.474   0.300 -0.1003  0.5071 -0.3809
 1753TIP3    H126818   3.051   2.523   0.380  0.0420 -0.5664  0.3213
 1753TIP3    H226819   3.121   2.535   0.246  1.3717  0.6522  1.1028
 1754TIP3   OH226820   0.590   1.540   2.050  0.4068 -0.4911  0.6063
 1754TIP3    H126821   0.671   1.532   2.000  0.6193  2.3913  0.3291
 1754TIP3    H226822   0.589   1.631   2.080 -1.8372 -0.9481  2.1884
 1755TIP3   OH226823   4.515   1.673   1.681  0.1794 -0.1976  0.0652
 1755TIP3    H126824   4.504   1.593   1.629 -0.6508  0.9110 -1.5397
 1755TIP3    H226825   4.605   1.700   1.665  0.3053 -0.5321  0.2070
 1756TIP3   OH226826   4.603   3.525   2.970 -0.1536  0.7099  0.4013
 1756TIP3    H126827   4.673   3.537   3.034 -0.5034  0.8586  0.7661
 1756TIP3    H226828   4.538   3.471   3.016  0.1139 -0.1789 -0.2339
 1757TIP3   OH226829   2.817   5.369   8.144 -0.0023  0.1968  0.1247
 1757TIP3    H126830   2.883   5.329   8.201  1.7182  1.8620 -0.5688
 1757TIP3    H226831   2.755   5.410   8.203 -0.7691 -1.8290  0.8118
 1758TIP3   OH226832   5.993   6.085   0.852 -0.1385  0.2182  0.5945
 1758TIP3    H126833   6.015   6.155   0.913  0.7783 -0.8499  1.5350
 1758TIP3    H226834   6.020   6.118   0.767 -0.2822  1.2349  0.9274
 1759TIP3   OH226835   6.290   5.908   7.799  0.2165  0.2177 -0.0707
 1759TIP3    H126836   6.217   5.847   7.813  1.2032 -1.1983 -0.7847
 1759TIP3    H226837   6.249   5.986   7.762 -1.0689 -0.1032  0.6112
 1760TIP3   OH226838   3.568   0.300   8.689  0.2503  0.0550  0.1554
 1760TIP3    H126839   3.658   0.290   8.658  0.3736  0.6149  0.3190
 1760TIP3    H226840   3.514   0.258   8.622  0.7873 -2.9739  1.4526
 1761TIP3   OH226841   5.291   3.506   0.636 -0.1995 -0.1696 -0.1402
 1761TIP3    H126842   5.204   3.473   0.615 -0.3763  0.9156 -1.1972
 1761TIP3    H226843   5.333   3.433   0.682 -1.1693 -1.2275 -0.8606
 1762TIP3   OH226844   3.549   2.840   1.596 -0.6541  0.0457  0.6196
 1762TIP3    H126845   3.644   2.830   1.603 -0.7597 -1.4495  0.2998
 1762TIP3    H226846   3.526   2.796   1.515 -1.6832 -0.0990  0.9689
 1763TIP3   OH226847   2.600   5.370   2.839  0.1398 -0.1967 -0.2852
 1763TIP3    H126848   2.690   5.390   2.812 -0.6640  2.9472 -1.0499
 1763TIP3    H226849   2.610   5.315   2.917  2.7378  0.3290 -0.1569
 1764TIP3   OH226850   1.998   5.366   1.007 -0.2925  0.1320  0.6279
 1764TIP3    H126851   1.947   5.419   1.069 -1.3538  1.2371 -1.0935
 1764TIP3    H226852   1.948   5.284   0.999 -0.1586 -0.0088  1.2077
 1765TIP3   OH226853   6.061   6.575   8.359  0.4036 -0.1550 -0.0414
 1765TIP3    H126854   6.026   6.664   8.354  2.5318  0.7248 -0.4630
 1765TIP3    H226855   6.004   6.524   8.301 -1.8697  0.5121  1.4801
 1766TIP3   OH226856   0.477   0.446   1.456 -0.2620 -0.3841  0.0288
 1766TIP3    H126857   0.565   0.480   1.470  0.0909 -1.2899  0.0967
 1766TIP3    H226858   0.448   0.420   1.544 -0.2759 -0.8370 -0.1086
 1767TIP3   OH226859   3.140   5.756   0.446  0.3018  0.4152  0.1203
 1767TIP3    H126860   3.226   5.737   0.407 -0.4576 -0.7128 -1.0496
 1767TIP3    H226861   3.114   5.674   0.487 -0.9509  0.2604 -0.9584
 1768TIP3   OH226862   3.033   5.663   8.199  0.0937  0.2296 -0.3451
 1768TIP3    H126863   2.978   5.651   8.121 -0.6270  1.0310  0.0251
 1768TIP3    H226864   2.992   5.608   8.266  0.2378  0.1763 -0.2988
 1769TIP3   OH226865   1.372   1.385   1.460 -0.0716  0.0303 -0.3237
 1769TIP3    H126866   1.342   1.465   1.417 -1.2223 -0.7348 -0.9891
 1769TIP3    H226867   1.430   1.344   1.396  1.7827  1.0605  0.6157
 1770TIP3   OH226868   4.355   4.272   2.430  0.2657  0.3405  0.2872
 1770TIP3    H126869   4.281   4.229   2.386 -1.0466  0.1837  2.4948
 1770TIP3    H226870   4.386   4.208   2.494 -0.3204  1.7745  2.1289
 1771TIP3   OH226871   2.016   5.436   2.289 -0.1807 -0.1914  0.6025
 1771TIP3    H126872   2.051   5.519   2.323 -1.3370  0.6236 -0.1284
 1771TIP3    H226873   1.994   5.386   2.367 -2.0995  1.3463  1.1224
 1772TIP3   OH226874   0.043   0.658   1.597 -0.2871  0.0478 -0.7370
 1772TIP3    H126875  -0.023   0.723   1.621  0.2057  0.0392  0.7347
 1772TIP3    H226876   0.113   0.710   1.557  1.0255  0.8228  2.2550
 1773TIP3   OH226877   2.881   6.466   0.110 -0.1390  0.1948 -0.4185
 1773TIP3    H126878   2.931   6.434   0.185 -0.2675  0.1599 -0.3467
 1773TIP3    H226879   2.892   6.398   0.043 -0.5711 -0.0980 -0.1978
 1774TIP3   OH226880   3.479   5.527   1.880 -0.0827  0.4064 -0.2185
 1774TIP3    H126881   3.512   5.610   1.844  1.7527 -0.4376 -0.6061
 1774TIP3    H226882   3.534   5.510   1.957 -0.6807 -0.2676  0.0743
 1775TIP3   OH226883   1.840   2.017   0.311  0.1285 -0.2754 -0.6285
 1775TIP3    H126884   1.827   2.057   0.225  0.9010  0.2773 -0.4892
 1775TIP3    H226885   1.908   1.951   0.296  1.0358  0.5528 -0.2278
 1776TIP3   OH226886   2.084   1.056   1.253  0.7256 -0.1165 -0.5369
 1776TIP3    H126887   2.098   1.046   1.347 -0.3062 -0.6932 -0.4266
 1776TIP3    H226888   2.081   0.967   1.219 -1.0328 -0.0076 -0.7592
 1777TIP3   OH226889   6.582   1.690   0.340 -0.3232 -0.2072 -0.2599
 1777TIP3    H126890   6.531   1.736   0.274 -1.6989  1.8725  2.0890
 1777TIP3    H226891   6.574   1.598   0.316 -0.7205  0.4230 -2.9518
 1778TIP3   OH226892   4.124   3.506   0.799  0.1260  0.0843  0.2062
 1778TIP3    H126893   4.164   3.448   0.865 -0.8748 -1.9166 -0.8652
 1778TIP3    H226894   4.132   3.458   0.717 -1.7550  0.9722 -0.5523
 1779TIP3   OH226895   5.597   2.467   1.358 -0.0141  0.3389  0.0268
 1779TIP3    H126896   5.626   2.463   1.267  1.8981  2.8613  0.4078
 1779TIP3    H226897   5.511   2.508   1.354 -0.8210 -1.3243 -0.7065
 1780TIP3   OH226898   2.478   5.039   0.600 -0.5168 -0.0535 -0.1820
 1780TIP3    H126899   2.521   5.114   0.559 -1.8183  0.2597 -1.0430
 1780TIP3    H226900   2.400   5.076   0.642 -0.0857 -0.6323  1.1847
 1781TIP3   OH226901   2.369   2.176   8.364 -0.3078  0.2406  0.5971
 1781TIP3    H126902   2.343   2.100   8.313 -0.1376  1.9660 -2.2953
 1781TIP3    H226903   2.300   2.240   8.350  0.9973  1.6755  0.3736
 1782TIP3   OH226904   6.302   1.449   1.173  0.3097 -0.7768 -0.3182
 1782TIP3    H126905   6.312   1.531   1.221 -1.8965 -1.0929  0.8196
 1782TIP3    H226906   6.295   1.475   1.081 -2.2262  0.5559  0.1776
 1783TIP3   OH226907   2.570   3.814   8.418 -0.1650  0.2816 -0.0094
 1783TIP3    H126908   2.538   3.741   8.470  0.0471  1.2386  1.5410
 1783TIP3    H226909   2.512   3.817   8.342  0.1196 -1.7629 -0.3645
 1784TIP3   OH226910   0.642   1.337   0.519 -0.8068  0.2476  0.4891
 1784TIP3    H126911   0.556   1.302   0.496 -0.5557 -0.6261  0.8360
 1784TIP3    H226912   0.704   1.288   0.464 -0.6500  2.2371 -1.2312
 1785TIP3   OH226913   5.445   6.309   1.096 -0.5096 -0.0577 -0.1186
 1785TIP3    H126914   5.437   6.336   1.188 -1.1004 -0.3685 -0.0752
 1785TIP3    H226915   5.504   6.374   1.057 -1.2920  0.8499  0.1739
 1786TIP3   OH226916   2.669   4.386   1.760  0.3512 -0.3237 -0.0781
 1786TIP3    H126917   2.751   4.407   1.804  0.3993  0.1286 -0.3785
 1786TIP3    H226918   2.643   4.467   1.717 -1.4823  0.2690  1.9662
 1787TIP3   OH226919   0.902   2.831   1.512  0.2715 -0.4313  0.1260
 1787TIP3    H126920   0.992   2.859   1.529  0.4340 -0.3065 -0.8434
 1787TIP3    H226921   0.865   2.814   1.598  0.8630  0.6510  0.6122
 1788TIP3   OH226922   2.388   2.097   8.640  0.3727 -0.4516  0.0036
 1788TIP3    H126923   2.323   2.029   8.624  2.4144 -2.4077 -0.4406
 1788TIP3    H226924   2.416   2.125   8.553 -0.2814  0.8270  0.1848
 1789TIP3   OH226925   4.279   1.755   0.993 -0.2598  0.6386  0.0302
 1789TIP3    H126926   4.232   1.671   0.988 -0.1563  0.5981 -0.2524
 1789TIP3    H226927   4.210   1.819   1.012 -0.2658  0.4178  0.8110
 1790TIP3   OH226928   4.094   3.648   2.792  0.1944 -0.4252 -0.6035
 1790TIP3    H126929   4.078   3.591   2.867  0.6922  0.5296  0.2509
 1790TIP3    H226930   4.008   3.664   2.755 -0.2652  0.4173  0.7652
 1791TIP3   OH226931   3.221   0.195   2.989 -0.2610 -0.1309  0.0102
 1791TIP3    H126932   3.259   0.108   2.976 -1.6400 -0.6261 -0.8903
 1791TIP3    H226933   3.131   0.187   2.960 -0.7082  1.3557  0.8591
 1792TIP3   OH226934   1.494   3.075   3.242  0.0484 -0.0801 -0.3350
 1792TIP3    H126935   1.520   3.001   3.296 -0.1861 -0.0498 -0.1801
 1792TIP3    H226936   1.422   3.041   3.188  0.1168 -0.0411 -0.4509
 1793TIP3   OH226937   0.150   3.357   8.634 -0.2924 -0.2569 -0.5523
 1793TIP3    H126938   0.095   3.305   8.693  0.4823 -0.8835 -0.3587
 1793TIP3    H226939   0.122   3.331   8.546  0.9192 -2.0062 -0.4876
 1794TIP3   OH226940   3.174   3.043   1.478 -0.3889 -0.4687 -0.8048
 1794TIP3    H126941   3.178   3.002   1.391  0.1277 -0.4558 -0.7914
 1794TIP3    H226942   3.241   3.111   1.475 -0.5836 -0.2612 -0.4979
 1795TIP3   OH226943   0.030   5.904   1.865  0.1317 -0.1871 -0.0166
 1795TIP3    H126944   0.115   5.936   1.894  1.1460 -1.7636 -1.0415
 1795TIP3    H226945  -0.025   5.982   1.857  2.7982  1.6208 -3.6325
 1796TIP3   OH226946   3.976   0.799   2.170  0.1834  0.0757  0.1893
 1796TIP3    H126947   3.983   0.862   2.242 -1.2395 -0.4790  0.8346
 1796TIP3    H226948   3.904   0.833   2.116 -0.2956 -0.7483  0.3019
 1797TIP3   OH226949   6.465   1.316   2.828 -0.7403  0.2256 -0.0429
 1797TIP3    H126950   6.482   1.227   2.858  1.0792  0.3108 -0.6912
 1797TIP3    H226951   6.404   1.352   2.893 -1.9450 -1.6312 -0.0651
 1798TIP3   OH226952   4.834   4.389   0.538 -0.0061 -0.6021  0.1365
 1798TIP3    H126953   4.767   4.412   0.602 -0.1530 -0.6790  0.0119
 1798TIP3    H226954   4.785   4.354   0.464  0.0341  0.8390 -0.6160
 1799TIP3   OH226955   6.280   3.806   6.788  0.0436 -0.6615  0.1150
 1799TIP3    H126956   6.187   3.792   6.807 -0.3746  0.2458 -1.1687
 1799TIP3    H226957   6.323   3.800   6.874 -1.4082  0.4719  0.9561
 1800TIP3   OH226958   0.725   5.181   8.007  0.1371 -0.1936 -0.2397
 1800TIP3    H126959   0.777   5.209   7.931  0.3813  1.2023  0.3936
 1800TIP3    H226960   0.659   5.123   7.971  1.1206 -0.6899 -1.3136
 1801TIP3   OH226961   5.480   0.677   2.308 -0.2945  0.4882 -0.0089
 1801TIP3    H126962   5.500   0.646   2.220  0.1836  1.5523 -0.2908
 1801TIP3    H226963   5.438   0.602   2.351  1.0597 -0.6187 -0.5621
 1802TIP3   OH226964   6.363   3.385   0.749 -0.6298  0.4920  0.5954
 1802TIP3    H126965   6.394   3.319   0.687  2.0972  0.7974  1.4960
 1802TIP3    H226966   6.305   3.441   0.698 -0.4086 -0.6915 -1.0186
 1803TIP3   OH226967   2.989   1.668   0.178 -0.4596  0.3622 -0.3937
 1803TIP3    H126968   2.938   1.678   0.258 -2.2855 -0.5319 -1.3907
 1803TIP3    H226969   2.957   1.587   0.139  3.1006 -1.3925 -0.1356
 1804TIP3   OH226970   4.987   0.826   8.408 -0.0871  0.1975 -0.1906
 1804TIP3    H126971   4.932   0.748   8.397  0.6924 -0.5736  1.0628
 1804TIP3    H226972   4.958   0.864   8.491  0.4615  0.4630 -0.1185
 1805TIP3   OH226973   3.276   3.746   0.036  0.6344  0.2725  0.5130
 1805TIP3    H126974   3.276   3.651   0.041 -0.6299  0.2504  0.4107
 1805TIP3    H226975   3.246   3.766  -0.052 -0.1947  0.7655  0.8921
 1806TIP3   OH226976   0.989   5.442   1.415  0.0097 -0.1008  0.0809
 1806TIP3    H126977   0.903   5.410   1.441 -0.9454  1.1944 -1.3488
 1806TIP3    H226978   1.046   5.365   1.422 -1.6571 -1.4804 -0.8393
 1807TIP3   OH226979   1.508   2.854   2.844 -0.5454 -0.1673  0.9122
 1807TIP3    H126980   1.525   2.829   2.935 -0.2528 -2.1338  0.3530
 1807TIP3    H226981   1.590   2.892   2.814  0.1946 -1.8453  0.7433
 1808TIP3   OH226982   0.276   6.122   0.559  0.0931  0.0168 -0.2257
 1808TIP3    H126983   0.216   6.155   0.492  0.1417 -0.6416 -0.5908
 1808TIP3    H226984   0.362   6.154   0.531 -0.0413  0.7505  0.1661
 1809TIP3   OH226985   2.501   2.309   1.510  0.1008  0.1892  0.1813
 1809TIP3    H126986   2.469   2.380   1.565  2.2572  2.0326 -0.7614
 1809TIP3    H226987   2.593   2.298   1.536  0.3556 -0.8703 -1.0714
 1810TIP3   OH226988   0.797   6.002   7.491 -0.3022 -0.0697  0.5200
 1810TIP3    H126989   0.759   5.932   7.439  0.1082 -1.1281  1.5805
 1810TIP3    H226990   0.821   5.959   7.574 -0.2357  1.3733  1.2754
 1811TIP3   OH226991   2.486   6.261   1.085 -0.2456  0.3615  0.4122
 1811TIP3    H126992   2.475   6.350   1.117  1.6320  0.5597  0.6148
 1811TIP3    H226993   2.553   6.268   1.017  1.0561 -1.0689  1.4626
 1812TIP3   OH226994   3.116   6.095   1.833  0.7522 -0.3440  0.0825
 1812TIP3    H126995   3.130   6.076   1.740  0.8580 -1.1552  0.2586
 1812TIP3    H226996   3.046   6.160   1.834  1.2755  0.2536 -0.5957
 1813TIP3   OH226997   3.493   0.840   8.243  0.2617  0.3178  0.0779
 1813TIP3    H126998   3.515   0.851   8.150  3.3869 -1.6752  0.4535
 1813TIP3    H226999   3.449   0.756   8.247  0.9932 -0.0562  0.4770
 1814TIP3   OH227000   0.470   4.103   1.659 -0.6941 -1.0275  0.2089
 1814TIP3    H127001   0.453   4.012   1.634  1.1013 -1.2604 -0.3164
 1814TIP3    H227002   0.509   4.098   1.746 -0.6300 -0.7405  0.1978
 1815TIP3   OH227003   2.433   3.737   1.789 -0.2700  0.2586 -0.5718
 1815TIP3    H127004   2.395   3.739   1.701 -0.5595 -1.2946 -0.5143
 1815TIP3    H227005   2.367   3.779   1.844 -0.5644  0.2909 -0.9410
 1816TIP3   OH227006   0.818   4.572   0.164 -0.0438 -0.7140 -0.1443
 1816TIP3    H127007   0.786   4.514   0.233 -0.6281  0.8424  0.9378
 1816TIP3    H227008   0.907   4.540   0.146  0.1557 -1.0949  1.3968
 1817TIP3   OH227009   6.385   5.861   1.229  0.0638  0.2858 -0.0390
 1817TIP3    H127010   6.446   5.934   1.220 -0.0919  0.4134 -0.0659
 1817TIP3    H227011   6.397   5.810   1.148  1.1375 -0.4628  0.5707
 1818TIP3   OH227012   4.498   0.102   0.627 -0.4618  0.1947 -0.0121
 1818TIP3    H127013   4.568   0.166   0.617  0.3674 -0.8124 -0.9186
 1818TIP3    H227014   4.509   0.068   0.716  0.6210 -0.4059 -0.3598
 1819TIP3   OH227015   0.239   4.427   7.372  0.1518 -0.9566 -0.0195
 1819TIP3    H127016   0.318   4.455   7.325 -0.5684 -0.3577 -0.9058
 1819TIP3    H227017   0.241   4.332   7.367  0.7292 -0.9421 -0.1746
 1820TIP3   OH227018   0.358   2.788   0.759 -0.1507 -0.3261  0.0143
 1820TIP3    H127019   0.268   2.813   0.778 -0.6195 -2.8490  1.6084
 1820TIP3    H227020   0.408   2.819   0.835 -0.1080 -1.0051  0.2678
 1821TIP3   OH227021   6.562   2.642   2.166  0.1901 -0.5454  0.0475
 1821TIP3    H127022   6.525   2.723   2.200 -0.2939  0.0904 -1.8624
 1821TIP3    H227023   6.618   2.669   2.094  1.0269 -1.8364  0.1827
 1822TIP3   OH227024   2.178   6.841   1.828 -0.5515 -0.0018  0.2398
 1822TIP3    H127025   2.127   6.768   1.863  0.1126 -0.0768  1.0922
 1822TIP3    H227026   2.233   6.802   1.760 -0.3707 -0.2589  0.5307
 1823TIP3   OH227027   4.291   4.850   1.980 -0.1767  0.0585 -0.2100
 1823TIP3    H127028   4.292   4.786   2.052 -0.2250 -1.4966 -1.5483
 1823TIP3    H227029   4.348   4.812   1.914 -1.7325  0.4431 -1.8329
 1824TIP3   OH227030   5.259   2.004   1.111 -0.3180 -0.2859 -0.2076
 1824TIP3    H127031   5.185   1.967   1.160 -0.4793  1.7831  1.2205
 1824TIP3    H227032   5.220   2.072   1.056  0.5392  1.2116  0.9719
 1825TIP3   OH227033   4.855   6.232   0.689  0.0169  0.2110  0.5648
 1825TIP3    H127034   4.926   6.237   0.752  0.4396 -0.1776  0.1369
 1825TIP3    H227035   4.866   6.146   0.648 -0.3112  0.4131  0.0430
 1826TIP3   OH227036   1.561   3.225   1.370 -0.4033 -0.4985 -0.0422
 1826TIP3    H127037   1.506   3.171   1.427 -0.8370 -1.3488 -1.2319
 1826TIP3    H227038   1.650   3.196   1.390 -0.5642 -0.9249  0.0853
 1827TIP3   OH227039   6.724   5.256   7.220  0.0466 -0.3005 -0.7237
 1827TIP3    H127040   6.816   5.232   7.213  0.1238  0.1523 -1.3578
 1827TIP3    H227041   6.722   5.323   7.289 -0.1445 -1.9201  0.9139
 1828TIP3   OH227042   3.688   3.299   0.774 -0.4079  0.9132  0.0244
 1828TIP3    H127043   3.653   3.213   0.799 -0.1211  1.3669  2.1044
 1828TIP3    H227044   3.611   3.356   0.770 -0.5446  0.6838 -0.9427
 1829TIP3   OH227045   5.629   3.443   2.687 -0.5497  0.0826  0.0203
 1829TIP3    H127046   5.545   3.470   2.724 -0.9841 -0.3364 -0.6629
 1829TIP3    H227047   5.631   3.348   2.697  0.1819  0.1605  0.7329
 1830TIP3   OH227048   1.062   1.545   8.141 -0.4757 -0.5414  0.0076
 1830TIP3    H127049   1.036   1.493   8.066  0.7317 -0.7106 -0.3098
 1830TIP3    H227050   1.091   1.481   8.206  0.3732 -0.3165 -0.1345
 1831TIP3   OH227051   0.584   1.268   1.230  0.2376  0.4581  0.2228
 1831TIP3    H127052   0.585   1.346   1.284 -2.2687 -0.3887  1.6494
 1831TIP3    H227053   0.514   1.283   1.167  2.0466  0.7451 -1.8448
 1832TIP3   OH227054   4.918   0.085   7.928 -0.0156  0.3217 -0.0315
 1832TIP3    H127055   4.862   0.110   8.001  0.6695 -0.6458  0.8722
 1832TIP3    H227056   4.860   0.084   7.852 -1.0608  0.0669  0.7411
 1833TIP3   OH227057   0.446   3.953   1.268 -0.3037 -0.0066  0.3616
 1833TIP3    H127058   0.507   3.942   1.195 -1.0025  0.4518 -0.3005
 1833TIP3    H227059   0.359   3.943   1.229 -0.7134  0.9508  0.9942
 1834TIP3   OH227060   1.009   3.253   3.310 -0.2289  0.6079  0.0799
 1834TIP3    H127061   1.002   3.287   3.220  0.1841  1.0758  0.2215
 1834TIP3    H227062   1.103   3.239   3.322 -0.1819  1.5228  0.8004
 1835TIP3   OH227063   2.626   1.685   0.819  0.4015  0.2998 -0.5399
 1835TIP3    H127064   2.694   1.617   0.821  0.1107 -0.0114 -0.9495
 1835TIP3    H227065   2.545   1.636   0.804  0.1185  0.6920 -0.2790
 1836TIP3   OH227066   3.177   4.796   1.535 -0.2370  0.2468 -0.0171
 1836TIP3    H127067   3.153   4.745   1.458 -0.7481  0.6005 -0.1014
 1836TIP3    H227068   3.260   4.759   1.564 -1.5421 -1.9726  1.1247
 1837TIP3   OH227069   6.588   1.019   1.877  0.1774 -0.0373 -0.0720
 1837TIP3    H127070   6.499   1.030   1.911 -0.4567 -0.9594 -1.3506
 1837TIP3    H227071   6.624   1.108   1.873 -0.7141  0.3518  0.3798
 1838TIP3   OH227072   0.279   1.916   0.011  0.0094 -0.0167  0.2582
 1838TIP3    H127073   0.276   1.824  -0.016  0.6818 -0.2449  0.9224
 1838TIP3    H227074   0.194   1.931   0.052 -0.4663 -0.0670 -0.6728
 1839TIP3   OH227075   6.249   2.405   8.173  0.4713  0.2113 -0.1921
 1839TIP3    H127076   6.313   2.419   8.103 -0.8871  0.2455 -1.5013
 1839TIP3    H227077   6.200   2.488   8.178  1.4868  0.7566  1.8811
 1840TIP3   OH227078   3.641   1.347   1.329  0.4196  0.7255  0.1844
 1840TIP3    H127079   3.691   1.427   1.343 -1.1931  1.9948 -0.9718
 1840TIP3    H227080   3.596   1.360   1.246  1.0761 -1.9333 -0.7075
 1841TIP3   OH227081   1.264   1.382   2.163 -0.8322 -0.3118  0.3795
 1841TIP3    H127082   1.335   1.400   2.102 -0.1350  0.0838  1.2674
 1841TIP3    H227083   1.228   1.298   2.135 -0.4167 -0.2138 -0.4603
 1842TIP3   OH227084   5.538   5.885   8.695 -0.7498 -0.1744  0.3089
 1842TIP3    H127085   5.581   5.895   8.610  0.5634  0.4839  1.0149
 1842TIP3    H227086   5.538   5.791   8.710  0.4845 -0.2038  0.2739
 1843TIP3   OH227087   6.175   4.384   2.481  0.0629 -0.4893  1.0680
 1843TIP3    H127088   6.117   4.351   2.550 -1.1952 -0.8054 -0.0960
 1843TIP3    H227089   6.155   4.477   2.475  1.1645 -0.1603  2.0238
 1844TIP3   OH227090   2.464   3.636   2.068 -0.1022 -0.2038  0.6824
 1844TIP3    H127091   2.462   3.671   1.978  0.6480 -0.0492  0.7151
 1844TIP3    H227092   2.469   3.714   2.123  4.3398 -0.2250  0.6779
 1845TIP3   OH227093   1.142   1.309   8.258 -0.1498  0.5057  0.4886
 1845TIP3    H127094   1.126   1.220   8.227 -0.4271  1.1353 -1.2763
 1845TIP3    H227095   1.215   1.300   8.319  0.2375 -0.8412 -0.1273
 1846TIP3   OH227096   5.025   0.094   0.201 -0.0512  0.1238  0.2439
 1846TIP3    H127097   5.001   0.072   0.291 -1.9404  0.2193 -0.1842
 1846TIP3    H227098   5.107   0.142   0.209 -1.5017  2.5176  2.2256
 1847TIP3   OH227099   5.486   4.156   7.788  0.2394  0.0351  0.2198
 1847TIP3    H127100   5.518   4.228   7.842 -1.2331  1.0169 -0.1533
 1847TIP3    H227101   5.429   4.198   7.723 -2.2530 -1.5821  1.2005
 1848TIP3   OH227102   1.533   4.239   8.093 -0.4606  0.5370 -0.4087
 1848TIP3    H127103   1.496   4.213   8.177  0.2670 -1.9784 -0.7985
 1848TIP3    H227104   1.625   4.212   8.098 -1.0394 -2.4665 -3.0030
 1849TIP3   OH227105   2.123   3.868   0.422  0.0881 -0.3894  0.2423
 1849TIP3    H127106   2.107   3.911   0.506 -0.2480  0.0933 -0.0641
 1849TIP3    H227107   2.078   3.923   0.358 -1.1657 -1.7157 -0.0591
 1850TIP3   OH227108   2.158   2.475   2.201 -0.4121  0.3505 -0.0586
 1850TIP3    H127109   2.105   2.399   2.224 -1.9797  1.3241 -0.2615
 1850TIP3    H227110   2.168   2.523   2.283  0.0881  0.2105 -0.0374
 1851TIP3   OH227111   6.164   2.116   7.901  0.4933 -0.0984  0.2180
 1851TIP3    H127112   6.193   2.206   7.885 -1.1667  0.1788 -1.6223
 1851TIP3    H227113   6.209   2.065   7.834  2.4160 -0.9284  2.0320
 1852TIP3   OH227114   3.998   6.004   0.477 -0.2048 -0.0276 -0.1853
 1852TIP3    H127115   3.948   5.959   0.409 -1.5571  1.1458 -0.0293
 1852TIP3    H227116   4.031   6.083   0.435 -1.2515  0.8287  0.5409
 1853TIP3   OH227117   5.998   1.528   1.503  0.2874 -0.5748 -0.0411
 1853TIP3    H127118   5.911   1.488   1.507  0.1982 -0.4913 -0.9456
 1853TIP3    H227119   5.996   1.582   1.424  0.0502  2.0518  1.6318
 1854TIP3   OH227120   6.211   2.463   0.987  0.8675 -0.3285 -0.3557
 1854TIP3    H127121   6.213   2.524   1.061  0.2512 -0.7258 -0.0000
 1854TIP3    H227122   6.300   2.465   0.952  0.8762  0.7069 -0.3020
 1855TIP3   OH227123   2.805   5.727   0.099  0.3420 -0.0263 -0.1146
 1855TIP3    H127124   2.807   5.763   0.188  0.1161 -1.0125  0.3130
 1855TIP3    H227125   2.763   5.641   0.110 -3.0970  1.2684 -1.6823
 1856TIP3   OH227126   2.625   1.908   3.206 -0.4672 -0.4152 -0.3514
 1856TIP3    H127127   2.713   1.926   3.239  0.0839 -0.6902 -1.6053
 1856TIP3    H227128   2.618   1.962   3.127 -1.2067 -0.8360 -0.5790
 1857TIP3   OH227129   0.288   0.175   0.310  0.3813 -0.2143 -0.4182
 1857TIP3    H127130   0.211   0.130   0.346  0.6052 -1.6936 -1.6802
 1857TIP3    H227131   0.264   0.268   0.312 -0.4160 -0.4117  1.5432
 1858TIP3   OH227132   6.854   1.151   2.705 -0.4376 -0.2963  0.1071
 1858TIP3    H127133   6.813   1.233   2.733  0.5009  0.3598 -0.4034
 1858TIP3    H227134   6.846   1.151   2.610 -2.6688 -2.0166  0.2144
 1859TIP3   OH227135   2.126   1.149   3.116 -0.7647  0.4799 -0.4636
 1859TIP3    H127136   2.113   1.059   3.145  2.5347  0.1746  0.4000
 1859TIP3    H227137   2.219   1.155   3.095 -1.2283  3.2446 -2.2340
 1860TIP3   OH227138   5.581   2.092   1.310 -0.2054  0.7739 -0.6093
 1860TIP3    H127139   5.563   2.122   1.221 -4.1071 -3.3990 -1.5989
 1860TIP3    H227140   5.503   2.117   1.359 -0.9164 -2.1445 -0.0744
 1861TIP3   OH227141   6.026   5.817   7.638  0.0756  0.2255  0.6520
 1861TIP3    H127142   6.000   5.818   7.546 -0.0141  0.4078  0.6794
 1861TIP3    H227143   6.038   5.724   7.658  0.2831  0.1987  0.4045
 1862TIP3   OH227144   3.927   3.617   2.149  0.4256 -0.0902 -0.1278
 1862TIP3    H127145   3.864   3.546   2.139  1.6986 -1.0183 -2.4876
 1862TIP3    H227146   3.910   3.653   2.236 -0.1935 -3.3610  1.2383
 1863TIP3   OH227147   6.397   5.137   8.681  0.3541 -0.0016  0.5568
 1863TIP3    H127148   6.324   5.091   8.640 -0.9360  2.9145 -0.7831
 1863TIP3    H227149   6.375   5.141   8.774  0.0401 -1.2252  0.5416
 1864TIP3   OH227150   5.734   1.395   1.520  0.4065 -0.3096  0.0753
 1864TIP3    H127151   5.698   1.474   1.479  2.7679  1.7626  1.6429
 1864TIP3    H227152   5.663   1.361   1.574 -1.3616 -0.6136 -2.2801
 1865TIP3   OH227153   3.045   0.032   2.850 -0.2646 -0.1029 -0.6476
 1865TIP3    H127154   3.096   0.038   2.770 -1.1164  0.6890 -1.1585
 1865TIP3    H227155   2.954   0.035   2.820 -0.6306  2.6456  0.4433
 1866TIP3   OH227156   3.161   0.938   1.393  0.6919 -0.2155 -0.5674
 1866TIP3    H127157   3.088   0.955   1.335 -1.1264 -0.6116  1.4563
 1866TIP3    H227158   3.145   0.849   1.426  0.6971  0.5591  1.7169
 1867TIP3   OH227159   5.582   5.885   1.998 -0.1419 -0.3273  0.5569
 1867TIP3    H127160   5.647   5.817   2.015  0.7550  0.4746  0.4593
 1867TIP3    H227161   5.553   5.870   1.908  0.8992  0.0962  0.1397
 1868TIP3   OH227162   1.205   1.832   0.383  0.3982 -0.2981 -0.2980
 1868TIP3    H127163   1.129   1.802   0.333  0.5214 -1.1523  0.0173
 1868TIP3    H227164   1.219   1.922   0.353 -1.0966  0.0879  0.0699
 1869TIP3   OH227165   2.206   4.823   1.492  0.0304 -0.4214 -0.3832
 1869TIP3    H127166   2.135   4.831   1.428  1.1390 -0.0429 -1.6110
 1869TIP3    H227167   2.174   4.869   1.569 -0.1265  1.8970 -1.7488
 1870TIP3   OH227168   3.919   3.789   7.645 -0.1340 -0.0808  0.3634
 1870TIP3    H127169   3.939   3.881   7.624  0.2577 -0.4074 -0.7394
 1870TIP3    H227170   3.838   3.772   7.597  0.4298 -0.6507 -0.4110
 1871TIP3   OH227171   6.768   1.848   2.722  0.1941 -0.6124  0.1334
 1871TIP3    H127172   6.833   1.866   2.791 -1.4620 -1.9855  2.1588
 1871TIP3    H227173   6.716   1.929   2.717  1.5503  0.2391 -1.0166
 1872TIP3   OH227174   2.815   2.137   3.037 -0.1768 -0.1093 -0.3538
 1872TIP3    H127175   2.736   2.092   3.006 -0.1871 -0.2863 -0.0731
 1872TIP3    H227176   2.860   2.163   2.957 -0.7652  0.4252 -0.5198
 1873TIP3   OH227177   0.478   5.481   1.237  0.3295  0.1557  0.2580
 1873TIP3    H127178   0.458   5.569   1.272 -0.0009 -0.2724  1.1803
 1873TIP3    H227179   0.526   5.438   1.307  1.4849 -0.0328 -0.6259
 1874TIP3   OH227180   3.639   5.416   8.192  1.1039 -0.2301  0.0712
 1874TIP3    H127181   3.557   5.420   8.242  1.2963 -0.6954  0.4361
 1874TIP3    H227182   3.621   5.465   8.112  0.7385  0.3799  0.5221
 1875TIP3   OH227183   3.558   6.097   1.343 -0.0733  0.0053 -0.0726
 1875TIP3    H127184   3.474   6.050   1.339 -0.1755  0.2077 -0.3497
 1875TIP3    H227185   3.591   6.094   1.253  0.8627 -1.2253  0.2861
 1876TIP3   OH227186   6.717   6.602   2.104 -0.0741 -0.2436  0.6706
 1876TIP3    H127187   6.766   6.521   2.089  0.9037  0.1179  1.7661
 1876TIP3    H227188   6.631   6.585   2.067  0.8620 -0.8818 -1.3291
 1877TIP3   OH227189   5.245   3.008   0.060  0.2598 -0.0902  0.3376
 1877TIP3    H127190   5.228   3.024  -0.033  1.3303 -1.2252 -0.0708
 1877TIP3    H227191   5.240   3.095   0.100 -2.6834  0.1697 -0.3216
 1878TIP3   OH227192   4.702   6.100   2.178 -0.4360 -0.5504  0.1358
 1878TIP3    H127193   4.653   6.152   2.243 -0.8931  1.2197 -1.5258
 1878TIP3    H227194   4.643   6.094   2.103  0.7021 -1.0986 -0.7421
 1879TIP3   OH227195   3.904   3.421   1.127  0.0812  0.2856  0.0635
 1879TIP3    H127196   3.915   3.502   1.078 -0.4518  0.5890  0.4365
 1879TIP3    H227197   3.809   3.412   1.137 -0.0683 -1.7417 -2.2386
 1880TIP3   OH227198   6.701   5.230   8.645 -0.0706  0.2470 -0.5885
 1880TIP3    H127199   6.751   5.244   8.565  2.5381 -3.6446  0.1059
 1880TIP3    H227200   6.662   5.143   8.634 -1.5369  0.5664  1.4888
 1881TIP3   OH227201   5.159   4.300   7.067 -0.2165  0.6151  0.5478
 1881TIP3    H127202   5.241   4.277   7.111  1.2800  1.5257 -1.6064
 1881TIP3    H227203   5.183   4.367   7.003 -3.0802  2.7222  1.4283
 1882TIP3   OH227204   4.794   0.465   8.178  0.5891  0.1426  0.0270
 1882TIP3    H127205   4.758   0.446   8.091  1.3554 -0.3552 -0.1934
 1882TIP3    H227206   4.886   0.484   8.162  0.9522 -0.8488  0.8177
 1883TIP3   OH227207   0.910   1.012   1.981  0.1388  0.0753 -0.2250
 1883TIP3    H127208   0.892   1.093   1.934  0.6528  0.8787  0.9139
 1883TIP3    H227209   0.873   1.026   2.069 -1.2606 -1.5773 -0.4876
 1884TIP3   OH227210   1.698   2.483   7.210 -0.2589  0.1121  0.2966
 1884TIP3    H127211   1.610   2.462   7.180  0.3870  0.7746 -2.3274
 1884TIP3    H227212   1.690   2.568   7.253 -0.8824  0.2436 -0.0677
 1885TIP3   OH227213   5.211   3.322   8.139 -0.7846 -0.0272  0.0535
 1885TIP3    H127214   5.280   3.315   8.073  0.4663 -0.8036  1.3630
 1885TIP3    H227215   5.176   3.410   8.127 -0.1200  0.0982 -1.1826
 1886TIP3   OH227216   5.096   2.723   3.646  0.2787  0.0327  0.1891
 1886TIP3    H127217   5.035   2.729   3.719 -0.2561 -1.2730 -0.1353
 1886TIP3    H227218   5.175   2.767   3.678 -0.4665  0.8441  0.9759
 1887TIP3   OH227219   3.039   1.735   2.800  0.1591  0.9579 -0.0705
 1887TIP3    H127220   3.094   1.712   2.874 -0.4180  0.8388  0.3261
 1887TIP3    H227221   3.024   1.652   2.755  2.3242  1.3198 -1.6193
 1888TIP3   OH227222   5.875   2.197   3.351 -0.7956  0.2401  0.0646
 1888TIP3    H127223   5.931   2.125   3.322  0.0228  1.3008 -1.0497
 1888TIP3    H227224   5.914   2.226   3.433 -0.9681 -0.3815  0.3787
 1889TIP3   OH227225   3.447   3.447   2.703  0.2322  0.1462 -0.6389
 1889TIP3    H127226   3.514   3.431   2.769  1.7195  0.5328 -2.0074
 1889TIP3    H227227   3.449   3.369   2.647 -2.2581 -1.0148  0.7004
 1890TIP3   OH227228   0.949   4.774   1.214  0.5000  0.3047  0.2413
 1890TIP3    H127229   0.957   4.694   1.162  3.3066  0.3756  0.4174
 1890TIP3    H227230   0.943   4.844   1.150  2.2881  0.2554 -0.0162
 1891TIP3   OH227231   1.065   0.049   8.588 -0.0024  0.0075 -0.1671
 1891TIP3    H127232   1.048  -0.030   8.538 -0.1259 -1.0597  1.4673
 1891TIP3    H227233   0.992   0.107   8.568 -0.5399 -0.7660 -0.5003
 1892TIP3   OH227234   6.292   4.732   0.146 -0.0583 -0.6897 -0.3674
 1892TIP3    H127235   6.257   4.821   0.151 -1.8392 -1.4265  1.5311
 1892TIP3    H227236   6.386   4.743   0.161 -0.1810  0.9174 -0.6014
 1893TIP3   OH227237   5.254   1.734   2.742 -0.4198  0.0779  0.4802
 1893TIP3    H127238   5.319   1.687   2.690 -0.6410 -0.7218  0.9036
 1893TIP3    H227239   5.193   1.666   2.770  0.8797  0.0266  3.6323
 1894TIP3   OH227240   3.483   4.550   1.732 -0.2127  0.9345 -0.1648
 1894TIP3    H127241   3.573   4.564   1.761 -0.2918  0.0461  0.5537
 1894TIP3    H227242   3.434   4.623   1.769 -0.3903 -0.3922  2.3973
 1895TIP3   OH227243   2.814   2.119   0.302 -0.1673 -0.3325 -0.1440
 1895TIP3    H127244   2.744   2.075   0.253  0.0851 -0.2038 -0.6313
 1895TIP3    H227245   2.809   2.210   0.275  0.7893 -0.4904 -0.9187
 1896TIP3   OH227246   4.985   3.191   2.224  1.0454  0.2480 -0.0438
 1896TIP3    H127247   4.943   3.179   2.139  0.1960  1.4315  0.1859
 1896TIP3    H227248   4.940   3.129   2.282  1.4088 -0.3307 -0.3612
 1897TIP3   OH227249   0.615   5.008   3.285 -0.6191  0.0252 -0.0345
 1897TIP3    H127250   0.610   4.914   3.300 -1.6498  0.0584 -0.0603
 1897TIP3    H227251   0.533   5.029   3.240  0.2258  0.7034 -1.3134
 1898TIP3   OH227252   6.822   0.480   0.003 -0.2855  0.3045 -0.1883
 1898TIP3    H127253   6.769   0.445   0.076 -1.0040 -0.2423 -0.9488
 1898TIP3    H227254   6.817   0.412  -0.064  0.1799  0.9023 -0.8366
 1899TIP3   OH227255   1.195   0.156   2.119  0.2335 -0.7964  0.4284
 1899TIP3    H127256   1.253   0.175   2.045  0.3992  0.0160  0.7466
 1899TIP3    H227257   1.143   0.081   2.091  1.3592 -1.4670  0.0879
 1900TIP3   OH227258   1.462   3.600   0.505  0.2130  0.2401  0.3063
 1900TIP3    H127259   1.517   3.522   0.507 -1.0780 -0.7214 -0.3098
 1900TIP3    H227260   1.413   3.597   0.587 -0.4616 -0.0838 -0.0998
 1901TIP3   OH227261   5.001   2.882   2.992 -0.3093 -0.1753  0.6851
 1901TIP3    H127262   5.084   2.840   2.972 -1.3088 -0.6801 -3.5033
 1901TIP3    H227263   4.942   2.811   3.016 -0.9363 -0.8604 -2.3831
 1902TIP3   OH227264   1.263   5.134   8.072 -0.1472 -0.1981  0.1835
 1902TIP3    H127265   1.236   5.056   8.121 -0.6122 -0.0581  0.1509
 1902TIP3    H227266   1.212   5.131   7.991  0.3944 -0.2628 -0.1624
 1903TIP3   OH227267   3.731   2.877   8.201  0.7274 -0.2758 -0.0177
 1903TIP3    H127268   3.807   2.923   8.237 -0.7397  1.1809  1.4130
 1903TIP3    H227269   3.739   2.886   8.106  1.5171  1.2628  0.1655
 1904TIP3   OH227270   3.769   2.471   2.425 -0.5543 -0.3845 -0.6127
 1904TIP3    H127271   3.699   2.419   2.387 -2.2885  0.4059  1.3052
 1904TIP3    H227272   3.736   2.561   2.424  1.3683  0.3707 -1.6359
 1905TIP3   OH227273   0.651   5.725   2.884 -0.3671  0.3191  0.7095
 1905TIP3    H127274   0.568   5.697   2.845 -1.4790  2.0640  1.7118
 1905TIP3    H227275   0.668   5.811   2.846  2.8993 -1.3315 -2.1808
 1906TIP3   OH227276   6.666   5.179   0.809  0.2031 -0.5915 -0.2112
 1906TIP3    H127277   6.617   5.261   0.813 -1.1276 -1.3955  0.8121
 1906TIP3    H227278   6.709   5.181   0.724  1.9950  2.1401  0.6337
 1907TIP3   OH227279   5.313   2.857   2.999 -0.2923  0.0431 -0.8719
 1907TIP3    H127280   5.288   2.767   3.023  0.9254 -0.2888 -0.7724
 1907TIP3    H227281   5.374   2.846   2.926 -1.9892  0.9329 -2.4996
 1908TIP3   OH227282   4.302   3.187   8.186  0.2763  0.4396  0.8105
 1908TIP3    H127283   4.350   3.151   8.111 -1.1549 -0.9288  0.4967
 1908TIP3    H227284   4.275   3.111   8.236 -4.6036  0.7109 -0.9192
 1909TIP3   OH227285   2.254   0.748   2.516  0.6844  0.4995 -0.8874
 1909TIP3    H127286   2.220   0.836   2.530  0.9428  0.6681 -1.3036
 1909TIP3    H227287   2.348   0.759   2.511  0.7210  0.1938 -0.9069
 1910TIP3   OH227288   6.840   4.664   1.023 -0.5707 -0.2244  0.1407
 1910TIP3    H127289   6.928   4.695   1.047  0.7922 -1.9325 -2.2006
 1910TIP3    H227290   6.800   4.738   0.978  0.7980 -0.2549 -1.2067
 1911TIP3   OH227291   5.674   3.223   0.538  0.4191 -0.3350 -0.3259
 1911TIP3    H127292   5.754   3.276   0.534 -0.6516  1.3960 -0.1750
 1911TIP3    H227293   5.633   3.236   0.452 -1.2852  1.5592  0.6590
 1912TIP3   OH227294   0.701   5.124   1.450 -1.0132  0.0566 -0.0943
 1912TIP3    H127295   0.715   5.038   1.411 -1.1538 -0.2171  0.4558
 1912TIP3    H227296   0.695   5.108   1.544 -4.1321  0.2217 -0.1562
 1913TIP3   OH227297   2.597   6.181   8.511  0.3727 -0.3063  0.6470
 1913TIP3    H127298   2.641   6.157   8.430  0.4519 -2.7358  1.3323
 1913TIP3    H227299   2.512   6.137   8.505  0.1410 -0.0036  1.6216
 1914TIP3   OH227300   2.920   6.767   0.249 -0.1646 -0.2307 -0.1479
 1914TIP3    H127301   2.973   6.748   0.171  2.9416  2.3036  1.1414
 1914TIP3    H227302   2.845   6.816   0.214  1.0079  0.6116 -1.6397
 1915TIP3   OH227303   5.322   4.774   8.579 -0.1567  0.2581 -0.2018
 1915TIP3    H127304   5.391   4.711   8.597  0.1731  0.2225 -1.4941
 1915TIP3    H227305   5.274   4.783   8.662  0.8971 -0.3171  0.4781
 1916TIP3   OH227306   4.928   0.417   2.138 -0.2473  0.6501  0.0489
 1916TIP3    H127307   4.871   0.443   2.066  0.6800 -0.6060 -1.2070
 1916TIP3    H227308   4.869   0.380   2.204 -1.0829  1.5122 -0.1957
 1917TIP3   OH227309   4.215   0.985   0.498 -0.1877  0.3434 -0.2717
 1917TIP3    H127310   4.140   0.928   0.480  0.6412 -0.0702 -2.8744
 1917TIP3    H227311   4.244   0.961   0.586 -1.2999 -1.5790 -0.3745
 1918TIP3   OH227312   1.409   1.412   8.262 -0.3073 -0.6259  0.2995
 1918TIP3    H127313   1.500   1.401   8.290 -0.2848  0.5774  0.7450
 1918TIP3    H227314   1.390   1.332   8.212  0.6786 -1.3395  1.0107
 1919TIP3   OH227315   3.075   3.764   8.515 -0.0824 -0.0386  0.9410
 1919TIP3    H127316   2.994   3.809   8.487 -0.8165 -1.0430  1.3968
 1919TIP3    H227317   3.104   3.718   8.436  0.2098  0.5368  0.7019
 1920TIP3   OH227318   5.793   0.286   7.797 -0.4509  0.0952  0.0105
 1920TIP3    H127319   5.780   0.233   7.719  2.8451  1.5430 -1.7369
 1920TIP3    H227320   5.785   0.377   7.767 -2.1907  0.7163  2.0964
 1921TIP3   OH227321   1.195   3.866   8.316 -0.6721  0.0437 -0.0693
 1921TIP3    H127322   1.178   3.898   8.405  0.7393 -0.2995  0.3572
 1921TIP3    H227323   1.186   3.771   8.323  0.2587 -0.0551 -0.0738
 1922TIP3   OH227324   2.819   4.700   8.496 -0.0184  0.1059  0.0488
 1922TIP3    H127325   2.752   4.732   8.557  0.7259  0.5905  0.6293
 1922TIP3    H227326   2.841   4.776   8.443  0.9846  0.3038  0.7176
 1923TIP3   OH227327   4.585   2.773   2.078 -0.4223 -0.0431  0.9360
 1923TIP3    H127328   4.500   2.738   2.105 -0.2023  0.2550  2.0486
 1923TIP3    H227329   4.567   2.863   2.053 -0.6101 -0.2927  0.1326
 1924TIP3   OH227330   2.281   6.800   8.526  0.2386 -0.1257 -0.4471
 1924TIP3    H127331   2.236   6.752   8.457  0.8513  0.2060 -1.0936
 1924TIP3    H227332   2.261   6.892   8.508 -1.6514 -0.1009  1.2769
 1925TIP3   OH227333   5.841   1.211   8.653 -0.1256 -0.6554  0.5225
 1925TIP3    H127334   5.936   1.211   8.661 -0.1367  0.8979  1.0379
 1925TIP3    H227335   5.810   1.160   8.728  0.2991 -1.6591  0.0317
 1926TIP3   OH227336   2.288   4.181   1.487  0.0812  0.1742  0.3816
 1926TIP3    H127337   2.222   4.146   1.546  0.3824  1.5104  1.5797
 1926TIP3    H227338   2.369   4.178   1.537  0.6349 -0.0293 -0.5104
 1927TIP3   OH227339   6.522   4.581   1.267  0.4641 -0.1646 -0.8290
 1927TIP3    H127340   6.542   4.539   1.183  0.1911 -1.7819 -0.1277
 1927TIP3    H227341   6.569   4.664   1.264 -0.2327  0.2126 -2.9204
 1928TIP3   OH227342   0.849   3.846   8.692  0.1604 -0.1585  0.1717
 1928TIP3    H127343   0.886   3.822   8.777  1.4243 -2.3199 -0.8949
 1928TIP3    H227344   0.755   3.832   8.702  0.1905  0.3576  1.4044
 1929TIP3   OH227345   2.172   1.091   2.218  0.1575  0.3740 -0.3217
 1929TIP3    H127346   2.210   1.177   2.202  1.7028  0.2828  2.4035
 1929TIP3    H227347   2.106   1.082   2.149 -0.0168  3.6827 -0.7624
 1930TIP3   OH227348   4.395   5.631   1.556 -0.6613  0.3573 -0.0154
 1930TIP3    H127349   4.313   5.587   1.534 -0.9300  0.3200  1.0195
 1930TIP3    H227350   4.414   5.602   1.646  1.2730 -0.8528 -0.7476
 1931TIP3   OH227351   6.046   4.401   0.869 -0.2082 -0.6530  0.1911
 1931TIP3    H127352   6.120   4.459   0.881 -0.3768 -0.0289 -1.4896
 1931TIP3    H227353   6.081   4.327   0.820 -0.9219  0.2974 -1.8496
 1932TIP3   OH227354   2.343   2.992   7.795 -0.5626 -0.2689  0.1458
 1932TIP3    H127355   2.400   2.939   7.740 -1.9424 -0.1825 -1.4317
 1932TIP3    H227356   2.294   2.929   7.847  0.1232 -0.3877  0.6608
 1933TIP3   OH227357   1.544   2.132   1.423 -0.0732 -0.2691  0.0735
 1933TIP3    H127358   1.619   2.167   1.470 -0.6880  1.3865 -0.1092
 1933TIP3    H227359   1.573   2.127   1.332 -0.7955  2.4362 -0.3850
 1934TIP3   OH227360   0.937   1.016   8.450  0.6889 -0.3266 -0.4229
 1934TIP3    H127361   0.962   1.023   8.358  0.0199 -0.1192 -0.5966
 1934TIP3    H227362   0.846   0.988   8.448  0.2902  0.8347  0.1389
 1935TIP3   OH227363   3.687   1.355   1.860 -0.0895 -0.2119  0.3585
 1935TIP3    H127364   3.645   1.271   1.880  1.5359 -0.8607  1.2925
 1935TIP3    H227365   3.719   1.387   1.945  0.8982  0.4443 -0.2355
 1936TIP3   OH227366   1.376   3.572   7.394 -0.0292  0.4352 -0.7377
 1936TIP3    H127367   1.382   3.625   7.314  1.3608 -0.3829 -1.2160
 1936TIP3    H227368   1.416   3.488   7.370 -0.1973 -0.0598  0.6256
 1937TIP3   OH227369   3.538   1.042   0.394  0.6367  0.2876 -0.2725
 1937TIP3    H127370   3.630   1.023   0.414  0.0343 -2.8490 -0.0110
 1937TIP3    H227371   3.522   0.999   0.310 -0.9638 -0.5550  0.4286
 1938TIP3   OH227372   6.708   0.831   0.462  0.0353 -0.2782  0.2061
 1938TIP3    H127373   6.690   0.870   0.377  0.3735 -0.5497  0.0109
 1938TIP3    H227374   6.665   0.746   0.459 -0.5441 -0.0098  0.5657
 1939TIP3   OH227375   6.323   6.293   7.277 -0.1523 -0.0795 -0.7314
 1939TIP3    H127376   6.385   6.220   7.276  0.4793  0.4415 -1.0278
 1939TIP3    H227377   6.364   6.359   7.221 -1.4168 -0.0705 -1.6843
 1940TIP3   OH227378   3.192   6.845   2.563 -0.4409 -0.0358 -0.0368
 1940TIP3    H127379   3.245   6.791   2.504 -1.0790  0.2357 -0.8794
 1940TIP3    H227380   3.151   6.782   2.622  0.5669 -0.2774  0.4429
 1941TIP3   OH227381   1.338   1.891   0.072  0.0547  0.3807  0.5175
 1941TIP3    H127382   1.413   1.876   0.015 -0.0394  1.2494  0.1595
 1941TIP3    H227383   1.369   1.869   0.159  0.1287 -1.2114  0.1254
 1942TIP3   OH227384   6.438   6.528   1.453 -0.1838 -0.5061  0.4443
 1942TIP3    H127385   6.530   6.550   1.437 -0.2468 -0.1574  0.5394
 1942TIP3    H227386   6.440   6.475   1.533 -0.0414 -0.7097  0.3065
 1943TIP3   OH227387   6.413   4.999   8.231  0.3564 -0.5637 -0.8994
 1943TIP3    H127388   6.331   5.034   8.197  1.0903  0.8448 -1.3250
 1943TIP3    H227389   6.437   4.929   8.171  0.0710 -0.1576 -1.4957
 1944TIP3   OH227390   6.158   2.824   7.465 -0.6745 -0.1018  0.2178
 1944TIP3    H127391   6.205   2.876   7.399  0.2719 -0.6045  0.4698
 1944TIP3    H227392   6.142   2.886   7.536  1.1979 -0.2982  0.8784
 1945TIP3   OH227393   3.574   4.388   0.686 -0.0622 -0.5397 -0.3327
 1945TIP3    H127394   3.617   4.473   0.698  2.3529 -1.7805  0.5311
 1945TIP3    H227395   3.553   4.386   0.592 -1.3404  1.4474 -0.1676
 1946TIP3   OH227396   6.241   2.640   1.468  0.1966  0.3526 -0.5065
 1946TIP3    H127397   6.207   2.729   1.480  0.6166  0.2860  1.4418
 1946TIP3    H227398   6.301   2.627   1.541  0.8601 -1.2158 -1.2846
 1947TIP3   OH227399   0.729   6.767   1.373 -0.3686  0.2228  0.0577
 1947TIP3    H127400   0.638   6.790   1.395 -1.0734 -0.8464 -1.5116
 1947TIP3    H227401   0.731   6.671   1.379  0.4928  0.2012 -0.4561
 1948TIP3   OH227402   1.592   5.990   1.611  0.0533 -0.6465  0.3145
 1948TIP3    H127403   1.587   6.006   1.516 -0.9637  0.8834  0.5944
 1948TIP3    H227404   1.682   6.013   1.634  0.0366 -0.1082 -0.1328
 1949TIP3   OH227405   3.977   1.800   1.969 -0.3563  0.0623 -0.1647
 1949TIP3    H127406   4.037   1.874   1.956  0.2322 -0.3092  0.3691
 1949TIP3    H227407   3.895   1.828   1.928 -0.3170  1.2401  0.5359
 1950TIP3   OH227408   1.588   1.059   2.092  0.2830  0.3274 -0.1646
 1950TIP3    H127409   1.615   1.149   2.109  2.6510  0.0414 -1.9407
 1950TIP3    H227410   1.652   1.005   2.139 -0.5382 -0.4485  0.1026
 1951TIP3   OH227411   2.654   3.425   2.061 -0.4195 -0.0387 -0.2891
 1951TIP3    H127412   2.577   3.482   2.053 -1.3470 -1.1603  0.1781
 1951TIP3    H227413   2.620   3.346   2.104  1.3421  0.1053  1.5335
 1952TIP3   OH227414   4.878   4.572   1.249  0.4879  0.2873 -0.0680
 1952TIP3    H127415   4.900   4.493   1.200 -0.5724  0.7307 -1.3198
 1952TIP3    H227416   4.946   4.635   1.226 -0.5803  0.8423 -1.9114
 1953TIP3   OH227417   4.962   6.427   2.964  0.0145  0.0991 -0.3057
 1953TIP3    H127418   4.929   6.390   2.883 -2.0699 -1.5672  1.1903
 1953TIP3    H227419   4.923   6.515   2.969 -1.3377 -0.4877 -0.2678
 1954TIP3   OH227420   1.155   3.085   0.827 -0.0377 -0.4047 -0.1903
 1954TIP3    H127421   1.218   3.037   0.775 -1.5193 -1.3016 -1.2310
 1954TIP3    H227422   1.170   3.056   0.917  0.4559 -1.2557 -0.5426
 1955TIP3   OH227423   4.355   0.104   1.159 -0.2534  0.1105  0.2648
 1955TIP3    H127424   4.263   0.129   1.149 -0.4859  0.2207  2.2795
 1955TIP3    H227425   4.391   0.169   1.220  1.4570  0.6950 -1.2705
 1956TIP3   OH227426   0.303   0.750   0.333 -0.2360 -0.3590  0.0678
 1956TIP3    H127427   0.322   0.840   0.305 -0.6659 -0.4828 -0.6384
 1956TIP3    H227428   0.371   0.731   0.398 -0.7331  0.8203  0.9687
 1957TIP3   OH227429   6.074   0.912   1.096  0.0427 -0.3620 -0.1871
 1957TIP3    H127430   6.161   0.934   1.065 -0.2136 -1.5487 -1.8436
 1957TIP3    H227431   6.065   0.960   1.178  2.0376  0.1936 -0.2555
 1958TIP3   OH227432   4.953   4.075   1.132 -0.1069  0.2683 -0.2031
 1958TIP3    H127433   5.031   4.093   1.184 -0.6033  2.0117 -0.0194
 1958TIP3    H227434   4.891   4.038   1.196  0.4054 -0.7812 -0.2795
 1959TIP3   OH227435   5.573   5.211   7.807  0.5250  0.0579  0.0681
 1959TIP3    H127436   5.638   5.193   7.739  0.2904 -0.5741  0.0018
 1959TIP3    H227437   5.517   5.278   7.768  0.7023  0.0793 -0.1585
 1960TIP3   OH227438   5.769   1.175   0.470 -0.3224  0.5432  0.0779
 1960TIP3    H127439   5.677   1.150   0.464 -0.3569  1.0024 -1.7592
 1960TIP3    H227440   5.780   1.246   0.407  1.2855  0.5045  0.2563
 1961TIP3   OH227441   4.092   4.688   0.740 -0.3748 -0.7546  0.5348
 1961TIP3    H127442   4.014   4.744   0.737  0.0396  0.0885  2.9644
 1961TIP3    H227443   4.087   4.635   0.661 -2.4177  0.5839 -0.3162
 1962TIP3   OH227444   3.278   3.934   0.313  0.4911  0.2221  0.2798
 1962TIP3    H127445   3.297   3.841   0.303 -0.4870  0.1168 -0.8772
 1962TIP3    H227446   3.195   3.936   0.361  0.4853  0.4990  0.2583
 1963TIP3   OH227447   2.239   4.131   2.215 -0.5511  0.1157  0.2956
 1963TIP3    H127448   2.228   4.107   2.307 -1.3381 -0.3533  0.0893
 1963TIP3    H227449   2.153   4.114   2.176 -0.1796  0.1742 -0.5564
 1964TIP3   OH227450   0.084   4.277   0.652  0.0136  0.5400  0.3855
 1964TIP3    H127451   0.001   4.299   0.693 -0.6155  0.7427 -0.9563
 1964TIP3    H227452   0.094   4.339   0.580  0.7980 -0.1577 -0.1406
 1965TIP3   OH227453   1.412   5.789   3.178 -0.2280  0.0373 -0.5462
 1965TIP3    H127454   1.401   5.884   3.174  2.0334  0.3886  0.2207
 1965TIP3    H227455   1.332   5.757   3.219 -0.3991  1.7823  0.5714
 1966TIP3   OH227456   0.448   2.640   2.150 -0.0973  0.8617  0.3679
 1966TIP3    H127457   0.544   2.646   2.157  0.1616 -1.0678 -0.6375
 1966TIP3    H227458   0.417   2.729   2.163  1.8417  1.5320  0.7379
 1967TIP3   OH227459   3.736   3.024   0.987  0.0973  0.1781 -0.0222
 1967TIP3    H127460   3.810   2.977   0.947  1.3263  1.2812  0.8597
 1967TIP3    H227461   3.763   3.035   1.079 -1.6614 -0.3438  0.5925
 1968TIP3   OH227462   2.284   0.684   3.334 -0.1901 -0.8033  0.5035
 1968TIP3    H127463   2.318   0.598   3.308  1.6370 -0.6447  2.0802
 1968TIP3    H227464   2.309   0.692   3.427 -2.2697  0.5320  1.0007
 1969TIP3   OH227465   4.360   5.170   8.640  0.5185 -0.3835 -0.3388
 1969TIP3    H127466   4.373   5.080   8.610 -0.0341 -0.3254 -0.7610
 1969TIP3    H227467   4.444   5.194   8.680 -0.5483 -2.5614  3.7392
 1970TIP3   OH227468   0.108   3.711   1.651 -0.5568 -0.0848 -0.0583
 1970TIP3    H127469   0.040   3.695   1.584 -0.1780 -0.7176 -0.3074
 1970TIP3    H227470   0.108   3.631   1.704 -1.0441  0.5220  0.8862
 1971TIP3   OH227471   3.008   1.135   2.464  0.2267 -0.2239 -0.3334
 1971TIP3    H127472   3.092   1.153   2.507  0.5169 -1.6008 -0.2521
 1971TIP3    H227473   2.994   1.209   2.405  2.1483 -0.5739 -1.3163
 1972TIP3   OH227474   1.912   4.558   1.402  0.3000 -0.8121  0.4634
 1972TIP3    H127475   1.986   4.572   1.462  0.7736  0.9438 -0.4577
 1972TIP3    H227476   1.953   4.526   1.321 -0.0193 -0.5004  0.1768
 1973TIP3   OH227477   6.234   3.882   8.450  0.8462  0.0697  0.2791
 1973TIP3    H127478   6.320   3.865   8.412  0.5545 -0.8039 -0.0238
 1973TIP3    H227479   6.175   3.826   8.400 -0.1417  1.7674 -0.5253
 1974TIP3   OH227480   5.793   2.107   1.085 -0.3091  0.0769 -0.5652
 1974TIP3    H127481   5.772   2.170   1.016 -3.4374 -0.6408 -0.3756
 1974TIP3    H227482   5.806   2.161   1.163 -0.9029  0.6134 -0.8297
 1975TIP3   OH227483   5.067   0.640   1.989 -0.2134  0.0762  0.3181
 1975TIP3    H127484   4.984   0.680   1.963 -0.4637 -0.6201  0.0111
 1975TIP3    H227485   5.063   0.551   1.953 -0.4976 -0.8834  2.5185
 1976TIP3   OH227486   0.532   0.955   0.703 -0.2350 -0.4158  0.2659
 1976TIP3    H127487   0.579   0.987   0.780  0.4437 -2.4842  0.7670
 1976TIP3    H227488   0.446   0.998   0.708 -0.1883 -0.4635  2.1578
 1977TIP3   OH227489   4.289   6.664   0.029  1.0882  0.9280  0.3010
 1977TIP3    H127490   4.249   6.738   0.073 -0.2428 -0.7239  2.0489
 1977TIP3    H227491   4.373   6.652   0.074 -0.2330 -0.7073  2.5308
 1978TIP3   OH227492   2.217   4.616   2.198 -0.9450 -0.4165  0.1173
 1978TIP3    H127493   2.252   4.650   2.281  0.0677  1.3876 -0.9899
 1978TIP3    H227494   2.139   4.669   2.182  1.0201  2.1605 -1.9675
 1979TIP3   OH227495   3.500   0.876   1.900  0.4930  0.2586  0.2037
 1979TIP3    H127496   3.433   0.849   1.962  0.1680  1.3525  0.3508
 1979TIP3    H227497   3.496   0.811   1.829  0.3117 -0.5253  0.9254
 1980TIP3   OH227498   3.432   3.129   7.733  0.9581 -0.3673  0.2084
 1980TIP3    H127499   3.517   3.161   7.762  1.6501 -1.1993 -0.7886
 1980TIP3    H227500   3.417   3.174   7.650  1.0635 -1.1778 -0.2681
 1981TIP3   OH227501   3.240   4.195   1.474 -0.0960  0.4448  0.2182
 1981TIP3    H127502   3.175   4.124   1.471  1.1100 -0.7216  0.8412
 1981TIP3    H227503   3.217   4.251   1.400  0.4423 -2.0015 -1.9745
 1982TIP3   OH227504   2.000   4.012   8.264 -0.3855  0.7031 -0.0255
 1982TIP3    H127505   2.057   4.020   8.187 -2.6036  0.9154 -1.7419
 1982TIP3    H227506   1.951   3.931   8.249 -0.0785  0.1439  1.7654
 1983TIP3   OH227507   0.022   1.305   0.947 -0.1187 -0.2927 -0.4193
 1983TIP3    H127508  -0.061   1.295   0.900 -0.8480  2.7393 -0.0040
 1983TIP3    H227509   0.068   1.375   0.899  1.3682 -0.6516  0.4385
 1984TIP3   OH227510   4.601   5.546   1.375  0.3742  0.5726 -0.5982
 1984TIP3    H127511   4.608   5.452   1.394  0.2492  0.7139  0.1534
 1984TIP3    H227512   4.525   5.575   1.425 -1.2141  0.5632 -2.8791
 1985TIP3   OH227513   1.953   2.711   2.642  0.0343 -0.2762  0.7341
 1985TIP3    H127514   1.920   2.675   2.724 -0.8873  0.3301  0.6541
 1985TIP3    H227515   1.938   2.806   2.650  0.3777 -0.1583  0.0599
 1986TIP3   OH227516   5.100   3.365   2.371 -0.0587 -0.1393  0.2677
 1986TIP3    H127517   5.043   3.316   2.312 -1.9491  0.5881  1.4052
 1986TIP3    H227518   5.138   3.299   2.429 -0.0466 -0.5904 -0.2535
 1987TIP3   OH227519   2.610   2.725   2.909  0.0382 -0.3751  0.0658
 1987TIP3    H127520   2.517   2.723   2.931 -0.1100  0.5709 -0.3981
 1987TIP3    H227521   2.612   2.729   2.813  0.5842 -1.1452  0.0358
 1988TIP3   OH227522   5.687   4.183   1.889 -0.0716 -0.6981  0.1131
 1988TIP3    H127523   5.633   4.151   1.961 -1.0800 -0.2391 -0.4175
 1988TIP3    H227524   5.673   4.277   1.888  1.8723 -0.3524  0.8542
 1989TIP3   OH227525   2.276   1.833   3.185  0.3488 -0.3345 -0.2127
 1989TIP3    H127526   2.193   1.802   3.148 -0.3548 -0.1981  1.1780
 1989TIP3    H227527   2.310   1.894   3.120 -0.3450 -0.8487 -1.0782
 1990TIP3   OH227528   1.500   2.515   0.958  0.5661 -0.2813 -0.0717
 1990TIP3    H127529   1.446   2.584   0.996 -0.7099 -1.8345  1.1002
 1990TIP3    H227530   1.576   2.561   0.922 -0.5796  1.7814 -0.0287
 1991TIP3   OH227531   0.025   1.609   0.432  0.2973 -0.1871  1.0408
 1991TIP3    H127532   0.039   1.658   0.513 -0.9430  0.5425  0.8286
 1991TIP3    H227533  -0.018   1.529   0.460  2.4536 -1.3005  1.4052
 1992TIP3   OH227534   2.572   1.432   0.580 -0.9021  0.2800  0.3574
 1992TIP3    H127535   2.524   1.430   0.663  0.5846 -0.6689  1.2344
 1992TIP3    H227536   2.505   1.450   0.514 -2.3882 -0.5987  1.5678
 1993TIP3   OH227537   4.759   1.582   0.976  0.5763 -0.0642  0.5029
 1993TIP3    H127538   4.847   1.618   0.991  0.6007 -0.2276  0.7482
 1993TIP3    H227539   4.710   1.654   0.937  0.6093  0.2511  1.0457
 1994TIP3   OH227540   2.317   0.460   8.375  0.1506  0.0979 -0.5177
 1994TIP3    H127541   2.398   0.462   8.427 -0.5929 -2.8974  0.9717
 1994TIP3    H227542   2.347   0.465   8.284  1.7984  1.2431  0.0364
 1995TIP3   OH227543   1.956   3.092   2.679 -0.0472  0.2880  0.6008
 1995TIP3    H127544   1.975   3.166   2.736 -2.1526  0.6310  0.9406
 1995TIP3    H227545   2.036   3.080   2.627  1.2933  1.0852  2.3716
 1996TIP3   OH227546   4.186   4.928   0.891 -0.1681 -0.8988 -0.0337
 1996TIP3    H127547   4.266   4.881   0.866  0.9175 -0.5699  2.5422
 1996TIP3    H227548   4.117   4.862   0.884  0.5304 -1.5509 -1.0580
 1997TIP3   OH227549   1.371   2.164   0.256  0.3928  0.2586 -0.1240
 1997TIP3    H127550   1.423   2.095   0.297 -1.6674 -1.0694  0.4342
 1997TIP3    H227551   1.325   2.206   0.329 -1.5771 -0.6324 -0.7632
 1998TIP3   OH227552   6.478   1.248   1.049  0.2424  0.1964  0.6225
 1998TIP3    H127553   6.416   1.305   1.095 -0.1774 -0.3062  0.6896
 1998TIP3    H227554   6.558   1.252   1.102  0.3820  1.1047  0.3613
 1999TIP3   OH227555   6.193   4.678   2.651  0.7757 -0.3231 -0.7096
 1999TIP3    H127556   6.172   4.585   2.655 -2.1565  0.2693 -0.0503
 1999TIP3    H227557   6.204   4.704   2.743 -1.7011  0.5503 -0.5911
 2000TIP3   OH227558   6.758   6.183   8.299  0.0966  0.1752 -0.2492
 2000TIP3    H127559   6.684   6.127   8.276 -0.8500  1.7695 -1.2968
 2000TIP3    H227560   6.722   6.245   8.362  1.2021 -0.5214  1.1225
 2001TIP3   OH227561   0.304   4.930   7.873  0.5419 -0.1502 -0.0245
 2001TIP3    H127562   0.246   4.886   7.934 -0.1671 -1.1509 -1.3578
 2001TIP3    H227563   0.264   4.915   7.787  1.6496  0.9558 -0.7668
 2002TIP3   OH227564   5.460   1.449   3.606  0.5642 -0.6517 -0.4545
 2002TIP3    H127565   5.434   1.362   3.636  1.3524 -0.3623  1.1967
 2002TIP3    H227566   5.424   1.456   3.518  0.1619 -2.4964 -0.4750
 2003TIP3   OH227567   4.715   1.933   8.037  0.2368  0.1786 -0.3785
 2003TIP3    H127568   4.710   2.015   7.987 -0.7660  1.7645  2.1298
 2003TIP3    H227569   4.721   1.961   8.128  1.5554 -2.5838  0.4810
 2004TIP3   OH227570   5.485   2.216   8.557  0.2428  0.4057  0.1570
 2004TIP3    H127571   5.577   2.242   8.567  0.3082  0.1661  0.2020
 2004TIP3    H227572   5.445   2.236   8.642  0.0728  1.2107 -0.1075
 2005TIP3   OH227573   2.061   0.670   3.530 -0.1329  0.5907 -0.1252
 2005TIP3    H127574   2.058   0.755   3.575 -1.4927  1.1245 -1.1541
 2005TIP3    H227575   2.110   0.614   3.589 -0.9281  1.5503  1.5304
 2006TIP3   OH227576   2.302   0.777   1.776  0.7471  0.4691 -0.0391
 2006TIP3    H127577   2.236   0.755   1.841  0.0666  0.3297 -0.7537
 2006TIP3    H227578   2.325   0.692   1.737  3.4931  0.0902  2.1348
 2007TIP3   OH227579   4.641   4.142   8.463 -0.3706 -0.3888  0.3418
 2007TIP3    H127580   4.712   4.120   8.403 -0.9818  1.1980 -1.0444
 2007TIP3    H227581   4.592   4.210   8.418 -1.8379 -0.2999  1.9650
 2008TIP3   OH227582   5.667   5.858   8.468  0.5121 -0.0316 -0.5398
 2008TIP3    H127583   5.753   5.826   8.494  0.9810 -0.1694 -2.1431
 2008TIP3    H227584   5.663   5.840   8.374 -1.3534 -0.2075 -0.4515
 2009TIP3   OH227585   5.453   6.837   7.531  0.2764 -0.1598  0.2945
 2009TIP3    H127586   5.378   6.860   7.476 -0.1999 -1.8364  0.1716
 2009TIP3    H227587   5.440   6.744   7.551  3.1736 -0.9607 -1.0894
 2010TIP3   OH227588   2.665   1.895   0.050 -0.5235  0.2642 -0.1618
 2010TIP3    H127589   2.666   1.923  -0.042 -3.3529 -1.2623 -0.7501
 2010TIP3    H227590   2.625   1.968   0.097 -1.2860  0.0836 -0.5285
 2011TIP3   OH227591   4.656   1.190   3.377 -0.4740  0.6283 -0.1081
 2011TIP3    H127592   4.712   1.119   3.408  1.4541  2.1300  0.0869
 2011TIP3    H227593   4.641   1.171   3.285  0.2857  0.1328 -0.1376
 2012TIP3   OH227594   1.448   1.619   0.568 -0.2240 -0.7638  0.0631
 2012TIP3    H127595   1.470   1.589   0.479  0.9522 -0.5895  0.2738
 2012TIP3    H227596   1.356   1.644   0.563  0.3241  1.2071 -1.6737
 2013TIP3   OH227597   3.023   1.332   7.445 -0.1927 -0.3276 -0.1641
 2013TIP3    H127598   3.108   1.311   7.484 -1.0058  0.6307  2.3184
 2013TIP3    H227599   3.034   1.419   7.408  0.5106 -1.1337 -1.9479
 2014TIP3   OH227600   3.571   3.414   0.161 -0.1385  0.3564 -0.3072
 2014TIP3    H127601   3.503   3.347   0.159 -0.0886  0.2650  0.6050
 2014TIP3    H227602   3.632   3.385   0.229 -1.3978  2.5388  1.9377
 2015TIP3   OH227603   5.098   6.261   8.479  0.1406  0.1145  0.1012
 2015TIP3    H127604   5.102   6.347   8.436  0.2925  0.8302  1.5004
 2015TIP3    H227605   5.171   6.262   8.542 -0.1005 -0.8884  0.4177
 2016TIP3   OH227606   4.013   5.870   8.446  0.1768 -0.2831  0.5226
 2016TIP3    H127607   3.965   5.819   8.381  0.5195 -0.3792  0.3417
 2016TIP3    H227608   4.078   5.918   8.396  2.0106 -2.1242  0.9849
 2017TIP3   OH227609   1.283   3.775   1.967  0.4412 -0.0256 -0.1282
 2017TIP3    H127610   1.193   3.772   1.934  0.2329  1.6256  0.2182
 2017TIP3    H227611   1.319   3.856   1.931  0.8310  0.8525  2.0728
 2018TIP3   OH227612   1.003   1.761   0.219  0.4369 -0.3755 -0.7475
 2018TIP3    H127613   0.964   1.675   0.206 -0.0595 -0.5033  1.2639
 2018TIP3    H227614   0.930   1.822   0.210  0.1038 -0.4597  1.0949
 2019TIP3   OH227615   1.169   4.901   8.232  0.0183 -1.1293 -0.5917
 2019TIP3    H127616   1.085   4.925   8.193 -0.1773 -0.1035  0.4126
 2019TIP3    H227617   1.197   4.824   8.183 -1.7961 -1.8513 -0.5556
 2020TIP3   OH227618   4.151   2.723   8.031  0.0122 -0.0676  0.7573
 2020TIP3    H127619   4.071   2.775   8.024 -0.9113 -1.5494 -0.3926
 2020TIP3    H227620   4.139   2.671   8.111  0.4383  0.6589  1.3025
 2021TIP3   OH227621   1.481   0.133   1.075  0.3742 -0.4211  0.1854
 2021TIP3    H127622   1.468   0.130   1.170 -0.5878 -0.1276  0.0732
 2021TIP3    H227623   1.484   0.041   1.048  0.0208 -0.5057  0.4250
 2022TIP3   OH227624   5.755   0.171   0.424 -0.3212  0.3242 -0.0759
 2022TIP3    H127625   5.679   0.185   0.480  0.9636 -0.4528  1.9634
 2022TIP3    H227626   5.799   0.095   0.461  1.4607  0.7634 -1.1774
 2023TIP3   OH227627   4.741   3.483   8.425  0.0245 -0.1884  0.8381
 2023TIP3    H127628   4.659   3.533   8.422 -0.7090 -1.4171 -0.5681
 2023TIP3    H227629   4.718   3.397   8.391  1.0773 -1.7995  3.8444
 2024TIP3   OH227630   5.666   5.756   8.146 -0.4489 -0.3018  0.4449
 2024TIP3    H127631   5.657   5.672   8.191  1.6455 -0.6060  0.3830
 2024TIP3    H227632   5.760   5.774   8.147 -0.7132  1.3768 -0.7601
 2025TIP3   OH227633   5.353   3.279   1.914  0.2929  0.0052 -0.7198
 2025TIP3    H127634   5.299   3.357   1.904 -0.7102 -0.7639 -1.5777
 2025TIP3    H227635   5.379   3.256   1.825  1.7834  0.1640 -0.3540
 2026TIP3   OH227636   0.292   3.590   8.574 -0.5415  0.1433 -0.0582
 2026TIP3    H127637   0.259   3.507   8.609 -0.0762  0.5177  1.3682
 2026TIP3    H227638   0.293   3.648   8.650  0.1712  1.1288 -0.8047
 2027TIP3   OH227639   3.190   5.709   7.613  0.8546 -0.1108 -0.2280
 2027TIP3    H127640   3.174   5.764   7.536 -1.0399 -0.8509 -0.4133
 2027TIP3    H227641   3.145   5.626   7.593 -1.1117  0.2232  2.2772
 2028TIP3   OH227642   3.305   1.629   1.793 -0.0900  0.4544 -0.1993
 2028TIP3    H127643   3.272   1.542   1.767 -0.8580  0.7249 -0.1441
 2028TIP3    H227644   3.232   1.688   1.775 -0.1324  0.8700  1.2283
 2029TIP3   OH227645   2.971   0.066   0.495 -0.8859  0.3450 -0.1875
 2029TIP3    H127646   3.058   0.104   0.481 -1.1698  1.0747  0.0030
 2029TIP3    H227647   2.965  -0.003   0.429  0.3391 -0.5901  0.6150
 2030TIP3   OH227648   5.688   6.858   1.084 -0.0291 -0.7570  0.2880
 2030TIP3    H127649   5.637   6.930   1.121  1.5815  0.7362 -0.2520
 2030TIP3    H227650   5.704   6.799   1.157  0.4858  0.5846  1.2978
 2031TIP3   OH227651   6.795   1.868   0.357 -0.3978  0.3049  0.4299
 2031TIP3    H127652   6.846   1.787   0.347  0.0107  0.6928 -0.7468
 2031TIP3    H227653   6.704   1.841   0.345 -0.1727  0.2026 -1.2576
 2032TIP3   OH227654   5.696   5.149   8.057  0.5994  0.5685 -0.2783
 2032TIP3    H127655   5.726   5.236   8.081 -0.0349  1.0896 -1.2923
 2032TIP3    H227656   5.625   5.164   7.994  0.3358 -0.6695 -0.3111
 2033TIP3   OH227657   3.496   4.273   8.130  0.1438  0.4407 -0.7539
 2033TIP3    H127658   3.416   4.221   8.117  2.5305 -4.4484  1.5857
 2033TIP3    H227659   3.485   4.311   8.217  0.8876 -1.6641  0.3264
 2034TIP3   OH227660   4.296   5.405   1.394  0.2423 -0.6741 -0.5050
 2034TIP3    H127661   4.384   5.375   1.420  0.0711 -0.4123  0.4200
 2034TIP3    H227662   4.238   5.335   1.423  0.1254 -0.7722 -0.9732
 2035TIP3   OH227663   6.615   6.750   7.164  0.0489 -0.0265 -0.5023
 2035TIP3    H127664   6.607   6.834   7.119 -0.7527  0.4284  0.4356
 2035TIP3    H227665   6.679   6.765   7.234 -1.4598  0.4014  0.8693
 2036TIP3   OH227666   3.253   4.083   8.175  0.2428 -0.0067 -0.1021
 2036TIP3    H127667   3.225   4.034   8.098  0.2711  2.6172 -1.9028
 2036TIP3    H227668   3.178   4.139   8.196  0.2464 -0.6554  1.8163
 2037TIP3   OH227669   4.530   2.021   1.084  0.2360 -0.5357 -0.3292
 2037TIP3    H127670   4.545   1.986   1.172  3.1827 -0.0277 -0.5309
 2037TIP3    H227671   4.548   1.947   1.025  1.2849 -0.1175 -0.5643
 2038TIP3   OH227672   2.302   0.846   8.548 -0.8335 -0.3876  0.1884
 2038TIP3    H127673   2.282   0.834   8.641 -0.1926  0.7093  0.5005
 2038TIP3    H227674   2.217   0.849   8.505 -1.3289  2.0301  1.1700
 2039TIP3   OH227675   3.610   2.589   0.179  0.4894  0.0440  1.1660
 2039TIP3    H127676   3.654   2.673   0.164  0.9083 -0.3270  0.2417
 2039TIP3    H227677   3.572   2.566   0.094  0.0527 -0.5165  1.5056
 2040TIP3   OH227678   6.824   6.798   0.218 -0.2688  0.1408  0.3599
 2040TIP3    H127679   6.792   6.867   0.160  0.8981 -0.2445 -0.8105
 2040TIP3    H227680   6.879   6.843   0.282 -0.8230  0.4664  0.6164
 2041TIP3   OH227681   0.574   4.169   0.379 -0.6853  0.2481  0.3228
 2041TIP3    H127682   0.602   4.085   0.416 -0.9678 -0.5018 -1.0643
 2041TIP3    H227683   0.492   4.189   0.424 -1.2079 -0.8151 -0.0915
 2042TIP3   OH227684   5.813   3.731   8.325 -0.6102  0.3494 -0.3552
 2042TIP3    H127685   5.907   3.726   8.341 -0.6727 -0.0689 -0.0792
 2042TIP3    H227686   5.800   3.686   8.242 -0.6914 -0.6210  0.1625
 2043TIP3   OH227687   0.716   3.362   2.073 -0.2076 -0.7139 -0.4287
 2043TIP3    H127688   0.811   3.377   2.077 -0.0572 -1.6538 -0.3119
 2043TIP3    H227689   0.707   3.269   2.055 -1.1184 -0.8807  0.7452
 2044TIP3   OH227690   0.964   1.346   0.985 -0.3866 -0.5533  0.0031
 2044TIP3    H127691   0.888   1.330   0.929 -0.8825 -1.5408  0.9146
 2044TIP3    H227692   1.013   1.264   0.981  2.2064  0.9462 -2.8052
 2045TIP3   OH227693   0.966   4.139   1.422  0.4631 -0.7853 -0.0533
 2045TIP3    H127694   0.884   4.119   1.376 -0.3997  1.4076  0.4237
 2045TIP3    H227695   1.034   4.116   1.359 -0.6030 -0.2422 -1.4594
 2046TIP3   OH227696   3.716   1.888   1.912  0.0099  0.2466  0.5987
 2046TIP3    H127697   3.725   1.977   1.878  2.1980  0.7067  2.1863
 2046TIP3    H227698   3.651   1.847   1.854  0.3723  2.2524 -1.3680
 2047TIP3   OH227699   2.718   4.869   1.087  0.4511  0.1624  0.2316
 2047TIP3    H127700   2.657   4.891   1.157  0.2285 -2.6576  1.0743
 2047TIP3    H227701   2.781   4.941   1.085 -0.0523  0.7389  2.7451
 2048TIP3   OH227702   3.035   3.908   0.802 -0.1933 -0.5988  0.2809
 2048TIP3    H127703   3.078   3.857   0.734 -0.8281  1.3961 -1.7587
 2048TIP3    H227704   3.040   3.998   0.770  0.4964  0.6160  3.4654
 2049TIP3   OH227705   5.918   3.388   0.513 -0.7660 -0.5001  0.4054
 2049TIP3    H127706   5.875   3.460   0.467 -0.8271  0.7364  2.2517
 2049TIP3    H227707   6.012   3.404   0.499 -0.7340  0.5641  1.5662
 2050TIP3   OH227708   4.365   6.591   7.309  0.5188 -0.3753 -0.2470
 2050TIP3    H127709   4.419   6.533   7.363 -0.0577 -0.4218  0.3017
 2050TIP3    H227710   4.294   6.535   7.278  1.1645 -0.4923 -1.5678
 2051TIP3   OH227711   2.322   4.139   0.370  0.2055 -0.0737 -0.3486
 2051TIP3    H127712   2.313   4.222   0.324 -0.3791  0.5779  0.8791
 2051TIP3    H227713   2.234   4.101   0.368 -0.1249  0.5477  1.2558
 2052TIP3   OH227714   2.796   0.158   2.708 -0.4432  0.3396  1.1580
 2052TIP3    H127715   2.736   0.230   2.727 -0.2107  0.7101  0.4987
 2052TIP3    H227716   2.746   0.079   2.730 -0.7986  0.6847  1.6077
 2053TIP3   OH227717   0.652   2.852   1.345  0.4529 -0.3234 -0.1445
 2053TIP3    H127718   0.706   2.920   1.386 -0.6795  0.0085  0.8606
 2053TIP3    H227719   0.656   2.871   1.251  0.6419  0.7867  0.0730
 2054TIP3   OH227720   1.997   3.697   7.908  0.1101  0.5407  0.3398
 2054TIP3    H127721   1.983   3.605   7.931 -1.2490  1.1186  2.0596
 2054TIP3    H227722   2.092   3.710   7.917  0.3026 -0.6642  0.1568
 2055TIP3   OH227723   5.848   2.352   2.628  0.3617 -0.1189  0.0814
 2055TIP3    H127724   5.764   2.311   2.610 -0.7398  2.2256 -0.4730
 2055TIP3    H227725   5.897   2.286   2.678 -1.1060 -2.1861 -1.0615
 2056TIP3   OH227726   5.755   3.424   8.628 -0.4944  0.5461  0.1274
 2056TIP3    H127727   5.672   3.438   8.582  0.3807  0.8092 -1.4250
 2056TIP3    H227728   5.803   3.362   8.573  0.8688  1.4039  0.3017
 2057TIP3   OH227729   2.544   0.213   7.569  0.4745 -0.2516  0.0451
 2057TIP3    H127730   2.639   0.206   7.559  0.9231  3.5295  0.0882
 2057TIP3    H227731   2.513   0.251   7.487 -0.5728  0.9298  0.9262
 2058TIP3   OH227732   0.797   1.260   2.449  0.6028 -0.2405  0.6415
 2058TIP3    H127733   0.725   1.198   2.460 -1.9069  2.5574  1.3890
 2058TIP3    H227734   0.800   1.277   2.355 -1.3827  1.3212  0.8043
 2059TIP3   OH227735   3.153   0.419   0.449 -0.7759  0.3826 -0.3387
 2059TIP3    H127736   3.110   0.469   0.519 -1.5942  0.9537 -1.2196
 2059TIP3    H227737   3.240   0.459   0.441 -0.6173  0.2206  0.4267
 2060TIP3   OH227738   5.632   6.232   2.658 -0.6504 -0.2515  0.4078
 2060TIP3    H127739   5.606   6.267   2.744 -2.4415 -0.3980 -0.0397
 2060TIP3    H227740   5.648   6.139   2.674  1.1633  0.1119  0.9841
 2061TIP3   OH227741   3.991   5.818   8.150 -0.0996  0.0844  0.7792
 2061TIP3    H127742   3.914   5.783   8.106 -0.0032  1.4259 -0.5253
 2061TIP3    H227743   4.008   5.902   8.107  1.6411  0.1792  1.5471
 2062TIP3   OH227744   4.449   1.395   1.536  0.1963  0.0193  0.0260
 2062TIP3    H127745   4.378   1.459   1.535 -1.3722 -1.6159  0.6590
 2062TIP3    H227746   4.452   1.361   1.446 -2.5790 -2.6431  0.7579
 2063TIP3   OH227747   0.766   4.370   2.708 -0.2892  0.3743 -0.1747
 2063TIP3    H127748   0.793   4.289   2.667  0.3354  0.9007 -0.8269
 2063TIP3    H227749   0.828   4.436   2.675 -1.6039  1.3732 -0.7349
 2064TIP3   OH227750   3.992   1.244   3.137  0.0170  0.5320  0.0099
 2064TIP3    H127751   4.012   1.319   3.081 -0.4639 -0.0561 -0.9914
 2064TIP3    H227752   4.073   1.192   3.137 -0.0896  0.3604 -0.4356
 2065TIP3   OH227753   1.668   3.221   0.268 -0.3279 -0.0275 -0.0301
 2065TIP3    H127754   1.634   3.227   0.179  1.3673  1.0224 -0.6596
 2065TIP3    H227755   1.723   3.142   0.267 -0.1471  0.0974  0.0258
 2066TIP3   OH227756   1.876   6.675   8.437  0.0329  0.0208  0.0569
 2066TIP3    H127757   1.803   6.693   8.377  0.1235  1.8363  0.4440
 2066TIP3    H227758   1.953   6.710   8.393  0.0203  1.9079  1.4131
 2067TIP3   OH227759   2.567   0.816   1.480  0.5312  0.3908 -0.0632
 2067TIP3    H127760   2.610   0.899   1.499 -0.8431  0.7458  1.8614
 2067TIP3    H227761   2.564   0.771   1.565 -1.1145 -0.4214 -0.4980
 2068TIP3   OH227762   5.409   0.018   8.367 -0.2216  0.0212  0.3858
 2068TIP3    H127763   5.393   0.005   8.461  2.3459  0.6293  0.9797
 2068TIP3    H227764   5.415   0.113   8.357  2.0515 -0.0757  0.1735
 2069TIP3   OH227765   1.585   4.736   2.537  0.2845 -0.0732  0.0910
 2069TIP3    H127766   1.492   4.731   2.513  0.4363 -0.0703 -0.5198
 2069TIP3    H227767   1.585   4.754   2.631 -0.3317 -0.7077  0.2188
 2070TIP3   OH227768   1.899   5.589   1.997  0.8577 -0.1651  0.7479
 2070TIP3    H127769   1.917   5.539   1.917 -1.1568 -1.8407  1.2653
 2070TIP3    H227770   1.893   5.680   1.967 -0.0977 -0.7860 -1.0727
 2071TIP3   OH227771   2.784   0.092   8.305 -0.0335 -0.2493  0.4939
 2071TIP3    H127772   2.701   0.102   8.352  0.2780  2.4279  0.5953
 2071TIP3    H227773   2.771   0.015   8.249 -2.5377  0.0370  0.5828
 2072TIP3   OH227774   1.868   5.754   1.341  0.1762 -0.3611  0.5681
 2072TIP3    H127775   1.820   5.705   1.274  0.7180 -0.8559  0.5286
 2072TIP3    H227776   1.836   5.719   1.424 -0.2221 -0.0129  0.5644
 2073TIP3   OH227777   6.131   3.972   0.490 -0.2896  0.3885  0.0225
 2073TIP3    H127778   6.204   4.034   0.500 -1.1976  1.3887  0.6438
 2073TIP3    H227779   6.161   3.910   0.423  1.8555 -0.3254  1.5373
 2074TIP3   OH227780   2.985   0.799   8.688  0.5759 -0.1801  0.4951
 2074TIP3    H127781   3.068   0.823   8.648  0.7582  1.2605  1.6604
 2074TIP3    H227782   2.935   0.881   8.691 -0.8038 -0.9649  0.0320
 2075TIP3   OH227783   3.074   5.362   7.908 -0.1088 -0.0809  0.9280
 2075TIP3    H127784   2.994   5.311   7.921 -0.6660  0.3871 -0.4306
 2075TIP3    H227785   3.120   5.315   7.838  0.8045 -0.3281  1.6774
 2076TIP3   OH227786   4.745   0.831   1.092  0.0907  0.3114 -0.5425
 2076TIP3    H127787   4.780   0.796   1.010 -0.0840 -0.0192 -0.4784
 2076TIP3    H227788   4.821   0.834   1.151 -0.4574 -3.1434  0.5323
 2077TIP3   OH227789   5.684   1.032   7.865  0.7862 -0.7448  0.2742
 2077TIP3    H127790   5.625   1.105   7.847  0.2277 -1.0022  1.0022
 2077TIP3    H227791   5.768   1.073   7.886  0.7734 -0.3625 -0.3837
 2078TIP3   OH227792   3.478   5.659   8.662  0.4525 -0.2105 -0.3743
 2078TIP3    H127793   3.457   5.668   8.569 -1.6199 -0.2122  0.0390
 2078TIP3    H227794   3.500   5.567   8.674  0.7746 -0.1982 -0.8642
 2079TIP3   OH227795   6.568   4.054   3.023 -0.1661  0.4577 -0.1641
 2079TIP3    H127796   6.610   4.072   2.938 -0.0571 -0.9017 -0.4290
 2079TIP3    H227797   6.630   3.997   3.068 -0.1091  1.3917  0.9570
 2080TIP3   OH227798   5.564   2.337   2.334  0.3133  0.0724 -0.3649
 2080TIP3    H127799   5.592   2.298   2.417 -0.3225  0.2371 -0.0702
 2080TIP3    H227800   5.633   2.312   2.272  0.1167 -1.1924 -0.1003
 2081TIP3   OH227801   5.413   2.355   1.567 -0.3844  0.3812 -0.0136
 2081TIP3    H127802   5.473   2.373   1.494 -0.4679  0.1059 -0.1491
 2081TIP3    H227803   5.422   2.432   1.624  0.4548  0.1342  0.2077
 2082TIP3   OH227804   2.283   2.710   1.828 -0.3691 -0.0892  0.4571
 2082TIP3    H127805   2.363   2.662   1.806 -0.5833  0.0756 -0.7693
 2082TIP3    H227806   2.297   2.798   1.792 -1.1002 -0.0714  0.1965
 2083TIP3   OH227807   0.093   0.347   1.901 -0.0560 -0.0395  0.0561
 2083TIP3    H127808   0.168   0.299   1.935 -0.7603  0.3477  2.3009
 2083TIP3    H227809   0.024   0.281   1.893  0.4804 -0.4272 -2.1504
 2084TIP3   OH227810   2.943   6.188   7.669  0.2576 -0.3073 -0.4374
 2084TIP3    H127811   2.888   6.262   7.643 -0.9964 -1.2355 -0.5282
 2084TIP3    H227812   2.937   6.186   7.764  0.4258 -0.1899 -0.4247
 2085TIP3   OH227813   4.246   1.222   0.876 -0.1788 -0.4023 -0.2093
 2085TIP3    H127814   4.152   1.223   0.861  0.0535  0.0479 -1.8149
 2085TIP3    H227815   4.285   1.238   0.790  1.3237  1.7888  0.7721
 2086TIP3   OH227816   4.809   5.164   6.946 -0.5998  0.2557 -0.3542
 2086TIP3    H127817   4.790   5.155   6.852 -2.0813 -1.0551  0.0222
 2086TIP3    H227818   4.897   5.200   6.949 -0.4689  0.2285 -2.2509
 2087TIP3   OH227819   1.481   6.033   7.583  0.4545  0.2052  0.1492
 2087TIP3    H127820   1.512   6.093   7.516  1.0411  0.7335  0.8720
 2087TIP3    H227821   1.390   6.058   7.598  0.2583 -0.0475 -0.5765
 2088TIP3   OH227822   5.950   5.441   0.120 -0.1702 -0.5649  0.2098
 2088TIP3    H127823   5.915   5.390   0.047 -1.0418 -1.7173  1.3783
 2088TIP3    H227824   5.897   5.414   0.195  1.1779  0.0319  1.4140
 2089TIP3   OH227825   5.043   1.281   1.123  0.0522 -0.1424  0.8541
 2089TIP3    H127826   5.087   1.200   1.149  0.4495  0.0808  0.8857
 2089TIP3    H227827   5.113   1.346   1.117 -0.4398  0.5846  2.3719
 2090TIP3   OH227828   1.817   0.599   1.625  0.3688 -0.3287 -0.0008
 2090TIP3    H127829   1.794   0.646   1.705  1.6277  0.2547  0.0460
 2090TIP3    H227830   1.851   0.666   1.566 -0.3017 -0.7935 -0.9363
 2091TIP3   OH227831   2.071   5.377   1.354  1.0280  0.0942  0.2382
 2091TIP3    H127832   2.078   5.318   1.279  1.3287 -0.8413  0.9809
 2091TIP3    H227833   2.079   5.320   1.430  1.3349  1.0978  0.9813
 2092TIP3   OH227834   1.075   6.444   1.314 -0.5123 -0.2068  0.3575
 2092TIP3    H127835   1.071   6.361   1.267 -0.3594 -0.3903  0.6645
 2092TIP3    H227836   1.045   6.423   1.403 -0.0217 -0.0340  0.5659
 2093TIP3   OH227837   2.413   3.388   1.792 -0.1324 -0.7314  0.2103
 2093TIP3    H127838   2.473   3.459   1.771 -0.8797 -0.3477 -0.6548
 2093TIP3    H227839   2.383   3.355   1.707 -0.4722 -1.5047  0.6176
 2094TIP3   OH227840   5.956   1.347   2.493  0.4516 -0.3257 -0.1301
 2094TIP3    H127841   5.999   1.408   2.553 -0.3551 -0.4616  0.5993
 2094TIP3    H227842   6.013   1.270   2.491  0.5631 -0.2544  0.3415
 2095TIP3   OH227843   2.658   2.744   2.349  0.0702  0.7920 -0.6827
 2095TIP3    H127844   2.628   2.664   2.392 -1.1313  1.1296 -0.8790
 2095TIP3    H227845   2.683   2.716   2.261  1.7911  0.2448 -0.0652
 2096TIP3   OH227846   0.988   4.564   0.991 -0.0771  0.2215  0.7008
 2096TIP3    H127847   1.079   4.537   0.977  1.1436  4.0105  0.0260
 2096TIP3    H227848   0.937   4.513   0.929  1.7786 -1.0808  0.1797
 2097TIP3   OH227849   3.414   1.902   0.491 -0.2384  0.4148 -0.3172
 2097TIP3    H127850   3.378   1.988   0.514 -1.4163 -0.1042 -0.1430
 2097TIP3    H227851   3.503   1.921   0.461  0.7872  1.3517  2.8946
 2098TIP3   OH227852   5.556   2.957   0.860 -0.2568 -0.1366  0.3330
 2098TIP3    H127853   5.487   3.024   0.863  0.2766  0.4967 -0.9628
 2098TIP3    H227854   5.522   2.886   0.915 -1.6035  0.4661  0.3315
 2099TIP3   OH227855   4.609   6.623   0.488 -0.3284 -0.4002 -0.3781
 2099TIP3    H127856   4.627   6.695   0.549  2.0193 -0.5762 -0.7666
 2099TIP3    H227857   4.607   6.545   0.543 -0.2201 -0.3344 -0.2801
 2100TIP3   OH227858   3.895   1.059   0.657 -0.5892  0.1760  0.3750
 2100TIP3    H127859   3.940   1.137   0.690  0.9396  0.1002 -1.3319
 2100TIP3    H227860   3.894   0.998   0.731  1.3343  0.5560  0.7811
 2101TIP3   OH227861   4.839   3.000   1.645  0.2362  0.0676  0.0286
 2101TIP3    H127862   4.810   2.909   1.648 -0.2652  0.1622 -1.3156
 2101TIP3    H227863   4.911   3.005   1.708  1.4572 -1.6807 -1.1466
 2102TIP3   OH227864   4.606   4.559   7.635 -0.3606  0.4674 -0.2490
 2102TIP3    H127865   4.541   4.534   7.569 -0.0185  1.6538 -1.0812
 2102TIP3    H227866   4.554   4.593   7.708 -0.7210  0.1881 -0.3740
 2103TIP3   OH227867   1.391   5.025   2.928 -0.3001  0.2078  0.2220
 2103TIP3    H127868   1.446   4.980   2.992 -0.5981  1.8231  1.6869
 2103TIP3    H227869   1.302   5.020   2.964 -0.7035 -0.0178 -0.7565
 2104TIP3   OH227870   4.973   4.341   0.778 -0.1437  0.6573 -0.8386
 2104TIP3    H127871   4.918   4.325   0.701 -1.6733  4.3383 -0.7075
 2104TIP3    H227872   5.062   4.342   0.743 -0.4748 -1.0085 -1.8816
 2105TIP3   OH227873   4.786   0.741   1.988 -0.2148  0.0138 -0.0518
 2105TIP3    H127874   4.767   0.698   2.071  0.3832  1.0361  0.6481
 2105TIP3    H227875   4.716   0.805   1.978  0.5110  0.9080  0.4289
 2106TIP3   OH227876   2.951   4.537   0.259 -0.3313  0.4094  0.1584
 2106TIP3    H127877   2.957   4.596   0.334 -2.8234  0.0832  0.7117
 2106TIP3    H227878   2.998   4.458   0.286 -0.1190  0.7689  0.8717
 2107TIP3   OH227879   2.917   5.934   8.113  0.3864 -0.4948  0.2191
 2107TIP3    H127880   2.975   5.888   8.054  0.0024  0.4371 -0.9166
 2107TIP3    H227881   2.965   6.012   8.139  0.0537 -0.2555  0.1209
 2108TIP3   OH227882   2.554   6.809   2.762 -0.2903  0.2849  0.0869
 2108TIP3    H127883   2.589   6.784   2.847 -1.1976  0.1297  0.4296
 2108TIP3    H227884   2.460   6.791   2.769 -0.2929 -0.2952 -1.1457
 2109TIP3   OH227885   6.425   3.561   8.549 -0.2232  0.5384 -0.0938
 2109TIP3    H127886   6.393   3.647   8.522 -1.2138  0.2450  0.1154
 2109TIP3    H227887   6.464   3.524   8.470 -1.5484  0.3916 -0.7042
 2110TIP3   OH227888   3.190   6.791   0.686  0.0798  0.0531 -0.1142
 2110TIP3    H127889   3.242   6.825   0.759  0.9070 -0.0622 -0.6361
 2110TIP3    H227890   3.191   6.861   0.621 -0.4745  0.0698 -0.1135
 2111TIP3   OH227891   3.719   5.293   8.507  0.3553  0.4148  0.5055
 2111TIP3    H127892   3.662   5.283   8.430  0.5877 -0.9896  0.5016
 2111TIP3    H227893   3.666   5.260   8.580 -0.4221  3.0712  1.2557
 2112TIP3   OH227894   4.985   3.729   8.257 -0.3040 -1.0512 -0.8467
 2112TIP3    H127895   4.927   3.780   8.313 -0.3270 -0.7142 -1.1740
 2112TIP3    H227896   5.051   3.693   8.317  0.5083  0.4740 -0.7716
 2113TIP3   OH227897   4.765   2.189   0.937 -0.6332  0.8409 -0.0194
 2113TIP3    H127898   4.745   2.243   0.862  0.1057  1.3063  0.1062
 2113TIP3    H227899   4.680   2.159   0.969 -0.9242  0.0739 -1.4320
 2114TIP3   OH227900   4.825   0.988   3.440  0.1319 -0.3948  0.2181
 2114TIP3    H127901   4.913   0.969   3.408  0.3413 -1.5321  1.3977
 2114TIP3    H227902   4.789   0.903   3.463 -0.4595  0.2471  1.8020
 2115TIP3   OH227903   6.435   5.586   8.137  0.3966  0.8760 -0.4001
 2115TIP3    H127904   6.447   5.512   8.078 -0.2707  1.4001 -1.2171
 2115TIP3    H227905   6.464   5.662   8.087  2.9180  0.9914  1.0940
 2116TIP3   OH227906   4.824   2.886   2.643 -0.3767  0.0602  0.2201
 2116TIP3    H127907   4.839   2.892   2.548 -1.4174  2.5959  0.1346
 2116TIP3    H227908   4.864   2.965   2.679 -2.8187  0.8428  1.4313
 2117TIP3   OH227909   1.922   5.314   7.774  0.3943  0.0722 -0.3667
 2117TIP3    H127910   1.928   5.232   7.823  0.4736 -0.4470 -1.2379
 2117TIP3    H227911   2.005   5.359   7.793  0.3701 -0.0611  0.0776
 2118TIP3   OH227912   1.475   0.320   0.740  0.5534 -0.4635 -0.0757
 2118TIP3    H127913   1.509   0.262   0.808  0.3465 -1.2080 -0.5946
 2118TIP3    H227914   1.431   0.261   0.679 -0.7552  0.3833  0.0324
 2119TIP3   OH227915   4.744   1.749   2.330  0.3216  0.0869 -0.0228
 2119TIP3    H127916   4.668   1.690   2.330 -0.0386  0.5259  0.9294
 2119TIP3    H227917   4.804   1.711   2.394 -0.0980  0.9573  0.9185
 2120TIP3   OH227918   5.506   4.380   7.976 -0.0070 -0.1949  0.1629
 2120TIP3    H127919   5.537   4.299   8.016 -1.6967 -0.4875  0.9410
 2120TIP3    H227920   5.515   4.445   8.046  1.0639  0.2561 -0.3668
 2121TIP3   OH227921   0.144   5.783   2.861  0.2870 -0.1747 -0.1962
 2121TIP3    H127922   0.184   5.787   2.948 -0.6748  0.3542  0.2367
 2121TIP3    H227923   0.069   5.724   2.871 -0.6354  0.9343 -0.3069
 2122TIP3   OH227924   6.225   2.057   0.567 -0.2691 -0.2505  0.0002
 2122TIP3    H127925   6.141   2.061   0.520  0.0110  1.2042 -0.4375
 2122TIP3    H227926   6.291   2.066   0.498  0.2359 -0.9359  0.3930
 2123TIP3   OH227927   3.474   2.386   2.332  0.0614  0.2589 -0.0359
 2123TIP3    H127928   3.423   2.404   2.411 -0.7826 -0.7354 -0.3381
 2123TIP3    H227929   3.414   2.403   2.259  0.5170  0.2054 -0.4288
 2124TIP3   OH227930   0.096   2.800   8.301  0.4200 -0.0115 -0.0678
 2124TIP3    H127931   0.047   2.873   8.262  0.7045 -0.5557 -1.4967
 2124TIP3    H227932   0.028   2.744   8.339  0.0662  0.1600 -0.4354
 2125TIP3   OH227933   0.080   4.919   2.073  0.4631  0.1378  0.3230
 2125TIP3    H127934   0.109   4.900   2.162 -1.1073 -1.0646  0.6212
 2125TIP3    H227935   0.161   4.934   2.023  1.4769 -1.2694  1.4747
 2126TIP3   OH227936   4.397   1.432   0.984 -0.9162 -0.3769 -0.8478
 2126TIP3    H127937   4.342   1.356   0.961 -0.5415 -0.4909 -1.3847
 2126TIP3    H227938   4.433   1.461   0.900  0.8256 -1.0683 -0.3860
 2127TIP3   OH227939   6.732   5.926   7.667  0.2675 -0.3948 -0.6130
 2127TIP3    H127940   6.789   5.970   7.603 -0.0315 -1.1729 -1.4403
 2127TIP3    H227941   6.648   5.970   7.657  0.4680  0.1155 -0.0751
 2128TIP3   OH227942   5.072   4.499   8.172 -0.4646 -0.1710 -0.1616
 2128TIP3    H127943   5.101   4.418   8.214 -0.6460 -0.1584 -0.0105
 2128TIP3    H227944   5.060   4.560   8.244 -0.0914  0.0659 -0.2972
 2129TIP3   OH227945   1.664   1.314   0.615  0.0485  0.6299  0.1111
 2129TIP3    H127946   1.662   1.409   0.613 -2.4240  0.7814  2.7647
 2129TIP3    H227947   1.720   1.292   0.689 -0.8601  0.1461  0.6783
 2130TIP3   OH227948   5.530   4.308   8.670 -0.1572  0.5204  0.1119
 2130TIP3    H127949   5.455   4.363   8.650 -0.1733  0.4477 -0.0305
 2130TIP3    H227950   5.516   4.279   8.760 -0.1516  0.7448  0.1855
 2131TIP3   OH227951   1.054   4.178   2.733 -1.0698 -0.5094 -0.1422
 2131TIP3    H127952   0.994   4.213   2.667 -0.0822 -0.1970 -0.9134
 2131TIP3    H227953   1.064   4.086   2.710 -2.6048 -1.0146  1.0628
 2132TIP3   OH227954   2.420   4.953   1.802  0.5513 -0.4128 -0.6033
 2132TIP3    H127955   2.355   5.023   1.808 -0.6706 -1.4340 -1.3920
 2132TIP3    H227956   2.446   4.937   1.893 -0.2922  0.0199 -0.2794
 2133TIP3   OH227957   4.111   2.518   1.233  0.2829 -0.3006  0.3371
 2133TIP3    H127958   4.084   2.610   1.224  1.1742 -0.0164  0.4839
 2133TIP3    H227959   4.169   2.503   1.159  1.0293 -0.4067  0.9273
 2134TIP3   OH227960   0.367   0.844   1.744 -0.5704 -0.3092 -0.0445
 2134TIP3    H127961   0.409   0.824   1.660 -0.3675  0.4677 -0.1334
 2134TIP3    H227962   0.312   0.920   1.726 -0.2994  0.0435  0.5921
 2135TIP3   OH227963   5.378   3.821   8.353 -0.3661 -0.0787  0.2507
 2135TIP3    H127964   5.452   3.819   8.413  0.1334  0.0177 -0.3453
 2135TIP3    H227965   5.310   3.769   8.396 -0.5401  1.1754  1.5506
 2136TIP3   OH227966   0.705   5.671   1.037  0.6122  0.0643  0.1629
 2136TIP3    H127967   0.761   5.593   1.031  1.3622  0.4940  1.1406
 2136TIP3    H227968   0.651   5.655   1.115  1.0788  0.6908  0.6285
 2137TIP3   OH227969   2.796   3.061   1.241 -0.2082  0.4778  0.0068
 2137TIP3    H127970   2.869   3.092   1.187 -0.0899 -1.2922 -0.9585
 2137TIP3    H227971   2.745   3.007   1.181 -1.4545  0.4377  1.0815
 2138TIP3   OH227972   3.535   0.707   1.686  0.3727  0.0825  0.0873
 2138TIP3    H127973   3.503   0.769   1.621  1.2540 -0.9734 -1.4282
 2138TIP3    H227974   3.609   0.663   1.643  2.4862  0.8924  2.6110
 2139TIP3   OH227975   3.561   6.601   1.596 -0.2687 -0.3492  0.2739
 2139TIP3    H127976   3.558   6.529   1.533  0.0303 -2.0503  2.1031
 2139TIP3    H227977   3.619   6.666   1.556  2.4486 -2.7112  0.0642
 2140TIP3   OH227978   4.172   4.128   1.301 -0.0668  0.1914  0.6155
 2140TIP3    H127979   4.266   4.130   1.285 -0.1776  0.2971 -0.0701
 2140TIP3    H227980   4.162   4.154   1.392  0.4605  1.7010  0.2628
 2141TIP3   OH227981   2.442   4.764   0.985  0.0735  0.3582 -0.1202
 2141TIP3    H127982   2.528   4.805   0.993  0.3677 -0.5129  1.8595
 2141TIP3    H227983   2.448   4.710   0.906  2.6528 -2.4628  1.8092
 2142TIP3   OH227984   6.836   4.287   8.306 -0.0087  0.0978  0.0957
 2142TIP3    H127985   6.767   4.224   8.328 -1.1102  1.0736 -0.4603
 2142TIP3    H227986   6.877   4.251   8.228  1.5294 -1.5395  1.5581
 2143TIP3   OH227987   3.144   5.747   3.150  0.1000  0.3473  0.0491
 2143TIP3    H127988   3.064   5.701   3.123  1.0628 -1.2580 -0.2222
 2143TIP3    H227989   3.114   5.809   3.217 -1.0497 -2.1875  2.0641
 2144TIP3   OH227990   1.489   3.793   8.070 -0.1626  0.3644  0.6831
 2144TIP3    H127991   1.540   3.789   8.151  0.4314 -0.2060  0.2911
 2144TIP3    H227992   1.491   3.704   8.035 -0.0911  0.6787 -0.1564
 2145TIP3   OH227993   3.953   0.682   1.162  0.2103  0.2197 -0.0336
 2145TIP3    H127994   4.029   0.697   1.107  1.6200  0.8627  1.9520
 2145TIP3    H227995   3.934   0.768   1.199  1.0259 -0.5929  2.4950
 2146TIP3   OH227996   4.688   3.327   1.457  0.2864 -0.0028 -0.3841
 2146TIP3    H127997   4.740   3.249   1.476 -0.7047 -0.6465 -0.2579
 2146TIP3    H227998   4.728   3.364   1.378  2.3402  0.8125  0.9626
 2147TIP3   OH227999   3.467   1.089   2.569  0.3373  0.7385  0.3154
 2147TIP3    H128000   3.393   1.070   2.626 -0.3691  1.2814 -0.3914
 2147TIP3    H228001   3.531   1.133   2.626 -0.5436  1.6877  0.5952
 2148TIP3   OH228002   2.700   0.212   0.441 -0.0791 -0.0628  0.2835
 2148TIP3    H128003   2.668   0.123   0.457  2.1510 -1.0546 -0.3310
 2148TIP3    H228004   2.757   0.230   0.515 -0.3162  0.7798  0.2691
 2149TIP3   OH228005   3.309   1.133   3.075  0.2781 -0.7593 -0.1706
 2149TIP3    H128006   3.363   1.191   3.022  0.6746 -0.3837  0.6243
 2149TIP3    H228007   3.242   1.189   3.113 -1.0139 -1.3024 -1.5331
 2150TIP3   OH228008   1.072   6.192   1.176 -0.2822 -0.0031 -0.2409
 2150TIP3    H128009   1.078   6.164   1.268 -1.6283 -0.1854 -0.1806
 2150TIP3    H228010   1.098   6.115   1.126 -1.6256 -0.6181 -0.0309
 2151TIP3   OH228011   0.682   3.627   2.646 -0.5601  0.0640 -0.3429
 2151TIP3    H128012   0.698   3.538   2.615 -2.2444  0.0902 -1.4333
 2151TIP3    H228013   0.711   3.683   2.573 -0.5708  0.3524 -0.1281
 2152TIP3   OH228014   3.056   5.222   8.413  0.2822  0.0463 -0.1131
 2152TIP3    H128015   2.988   5.195   8.474  0.7522 -0.6681  0.1021
 2152TIP3    H228016   3.034   5.178   8.331 -1.5716  2.6493 -1.1651
 2153TIP3   OH228017   2.947   5.490   8.421 -0.2527 -0.0902 -0.5525
 2153TIP3    H128018   2.980   5.404   8.447 -0.3834  0.0604  0.1302
 2153TIP3    H228019   2.933   5.536   8.503 -1.9727 -0.0684 -0.8160
 2154TIP3   OH228020   1.395   4.480   8.100 -0.3905  0.1565  0.5253
 2154TIP3    H128021   1.384   4.513   8.010 -1.4790 -0.6399  0.3488
 2154TIP3    H228022   1.453   4.405   8.092  0.1836  0.5861  0.6084
 2155TIP3   OH228023   0.028   3.849   0.593 -0.1445  0.6010  0.0012
 2155TIP3    H128024  -0.046   3.887   0.545  0.3169  1.1624 -0.2746
 2155TIP3    H228025   0.061   3.921   0.647  0.3983  0.4398 -0.1133
 2156TIP3   OH228026   5.289   1.069   3.485 -0.1929  0.8791 -0.1512
 2156TIP3    H128027   5.322   1.102   3.569  1.9149 -0.2185 -0.4806
 2156TIP3    H228028   5.353   1.100   3.421 -0.9538  0.4206 -1.1449
 2157TIP3   OH228029   5.532   1.825   1.301 -0.5516 -0.1026  0.1221
 2157TIP3    H128030   5.554   1.917   1.285  1.1277 -0.2493  1.3611
 2157TIP3    H228031   5.512   1.789   1.215  1.6596  0.7096 -0.7830
 2158TIP3   OH228032   1.442   3.370   8.285  0.7711 -0.1682 -1.0457
 2158TIP3    H128033   1.387   3.404   8.214  0.7387 -1.1709 -1.5283
 2158TIP3    H228034   1.490   3.298   8.244  0.8359 -0.6880 -0.0654
 2159TIP3   OH228035   1.595   3.025   1.658  0.2487  0.5901 -0.0916
 2159TIP3    H128036   1.667   3.065   1.610  0.6205  1.1796  0.9383
 2159TIP3    H228037   1.591   2.935   1.624  1.7366  0.4244  0.1280
 2160TIP3   OH228038   4.074   4.281   1.765 -0.0335 -0.7513 -0.1273
 2160TIP3    H128039   4.159   4.298   1.724 -0.8671 -0.6928 -1.9271
 2160TIP3    H228040   4.056   4.189   1.746  0.0868 -1.0613  1.1752
 2161TIP3   OH228041   1.648   2.981   7.546  0.2212 -0.2507  0.0059
 2161TIP3    H128042   1.731   2.950   7.582  1.4637  3.2534  0.5185
 2161TIP3    H228043   1.582   2.933   7.594  1.8848 -2.3973  0.3258
 2162TIP3   OH228044   1.197   0.880   0.354  0.1971 -0.5856 -0.4639
 2162TIP3    H128045   1.141   0.954   0.379  0.1464 -0.5243 -0.7501
 2162TIP3    H228046   1.202   0.826   0.433  1.3814  0.4306  0.1742
 2163TIP3   OH228047   4.709   2.333   1.961  0.0031 -0.0534  0.0313
 2163TIP3    H128048   4.638   2.293   2.011  1.5934 -1.9559  0.9237
 2163TIP3    H228049   4.717   2.278   1.883  1.2660 -0.6593  0.5542
 2164TIP3   OH228050   3.564   0.165   1.579 -0.5212  0.7496 -0.5789
 2164TIP3    H128051   3.655   0.177   1.555 -0.4369 -0.4796 -0.9755
 2164TIP3    H228052   3.567   0.115   1.661 -0.8172 -0.4868 -1.2940
 2165TIP3   OH228053   1.615   0.876   2.540  0.3999 -0.5423 -0.3804
 2165TIP3    H128054   1.580   0.834   2.462  1.5565 -1.9003 -0.2240
 2165TIP3    H228055   1.539   0.914   2.583 -0.1914  0.6664 -2.3918
 2166TIP3   OH228056   4.907   3.673   7.969  0.4091  0.0882  0.3259
 2166TIP3    H128057   4.901   3.678   8.064  0.0772  1.3506  0.2551
 2166TIP3    H228058   4.981   3.729   7.946 -1.5468  2.5958 -0.3471
 2167TIP3   OH228059   4.543   5.930   0.771  0.5015  0.0384  0.2038
 2167TIP3    H128060   4.524   5.996   0.837 -2.6458 -0.2457 -0.2728
 2167TIP3    H228061   4.579   5.856   0.820  3.3706  1.7274  0.8213
 2168TIP3   OH228062   4.766   4.526   8.449 -0.1979 -0.4974 -0.0570
 2168TIP3    H128063   4.808   4.578   8.380 -0.1198  0.0395  0.3909
 2168TIP3    H228064   4.825   4.533   8.524 -0.5153 -0.6980  0.2141
 2169TIP3   OH228065   3.555   6.651   1.059 -0.2854  0.0113  0.1150
 2169TIP3    H128066   3.638   6.668   1.105  0.4421  0.2661 -1.2361
 2169TIP3    H228067   3.523   6.569   1.097  1.0943 -0.6085  0.0024
 2170TIP3   OH228068   4.779   0.600   0.887 -0.1425  0.0301 -0.1738
 2170TIP3    H128069   4.822   0.652   0.819 -0.7656 -0.6031 -1.0836
 2170TIP3    H228070   4.845   0.535   0.912  0.5370  1.0545  0.7662
 2171TIP3   OH228071   0.269   3.634   0.195  0.0391 -0.1356  1.1449
 2171TIP3    H128072   0.186   3.639   0.147  0.9488  2.7144 -0.3470
 2171TIP3    H228073   0.266   3.709   0.254  2.0061  0.7971  0.1505
 2172TIP3   OH228074   5.295   6.142   0.120 -0.2730  0.7757 -0.4287
 2172TIP3    H128075   5.281   6.071   0.058  0.1162  0.7855 -0.5317
 2172TIP3    H228076   5.318   6.217   0.065  0.3582  0.7120 -0.2596
 2173TIP3   OH228077   5.952   0.754   7.840 -0.4461 -0.1987  0.6610
 2173TIP3    H128078   5.872   0.732   7.793 -0.1117 -1.6894  0.7315
 2173TIP3    H228079   5.959   0.849   7.834 -2.5636  0.0298  1.2167
 2174TIP3   OH228080   6.727   2.656   8.342 -0.4531 -0.3521  0.6352
 2174TIP3    H128081   6.739   2.569   8.380 -1.7799 -1.6537 -1.7238
 2174TIP3    H228082   6.658   2.645   8.277  0.9501  1.9375 -1.4221
 2175TIP3   OH228083   2.374   6.350   7.859 -0.3111 -0.3359  0.1297
 2175TIP3    H128084   2.311   6.374   7.791  0.1486 -0.6177 -0.3988
 2175TIP3    H228085   2.452   6.323   7.811  0.7494  1.3933  0.7911
 2176TIP3   OH228086   5.123   1.850   2.071 -0.6846 -0.0884 -0.6060
 2176TIP3    H128087   5.029   1.864   2.079 -0.4838  0.8354  0.4036
 2176TIP3    H228088   5.160   1.938   2.073  0.1597 -0.4094 -1.6906
 2177TIP3   OH228089   6.639   1.767   1.787 -0.1902 -0.3296  0.4496
 2177TIP3    H128090   6.556   1.801   1.754 -0.1708 -1.0836 -0.4216
 2177TIP3    H228091   6.688   1.743   1.708  0.0957 -1.6360  0.9941
 2178TIP3   OH228092   3.961   4.343   0.138  0.0504 -0.2940 -0.1167
 2178TIP3    H128093   3.880   4.303   0.170 -2.2591  1.6341 -2.9822
 2178TIP3    H228094   4.004   4.274   0.086  0.5150 -1.4300  1.6905
 2179TIP3   OH228095   1.105   0.703   2.415 -0.1333  0.2854 -0.1404
 2179TIP3    H128096   1.099   0.663   2.328  0.2873 -1.8460  0.7485
 2179TIP3    H228097   1.052   0.646   2.471  1.1261  0.5303  1.3543
 2180TIP3   OH228098   1.806   6.637   1.813 -0.6405  0.0090 -0.2620
 2180TIP3    H128099   1.849   6.566   1.765  0.5610  1.4261 -1.3970
 2180TIP3    H228100   1.715   6.635   1.782 -0.5865 -0.9068 -0.4011
 2181TIP3   OH228101   1.213   2.260   0.472  0.2499  0.3044  0.7872
 2181TIP3    H128102   1.262   2.327   0.518  2.1786  0.5884 -1.5009
 2181TIP3    H228103   1.137   2.306   0.435  0.7476  0.9207  0.5118
 2182TIP3   OH228104   2.957   3.708   2.583  0.0497  0.1818  0.0356
 2182TIP3    H128105   3.015   3.764   2.532  1.8752 -1.6069 -0.0107
 2182TIP3    H228106   2.940   3.633   2.527 -0.3575 -0.4401  0.9536
 2183TIP3   OH228107   1.612   2.906   0.439  0.7020 -0.0723  0.1816
 2183TIP3    H128108   1.629   2.884   0.347  2.1667  1.4307  0.0388
 2183TIP3    H228109   1.517   2.912   0.446  0.6120  2.1209 -1.8506
 2184TIP3   OH228110   3.051   5.805   1.030 -0.1152  0.3398  0.3544
 2184TIP3    H128111   3.134   5.812   1.077  0.1793  0.5744 -0.1839
 2184TIP3    H228112   2.984   5.813   1.097  0.2802 -2.0748  1.1400
 2185TIP3   OH228113   0.951   4.448   7.868  0.2744 -0.2454 -0.0717
 2185TIP3    H128114   0.986   4.386   7.932  0.3536 -1.2482 -1.0554
 2185TIP3    H228115   0.872   4.405   7.833  0.0835  0.4004 -0.4567
 2186TIP3   OH228116   3.864   1.944   2.392  0.0907 -0.0695  0.3300
 2186TIP3    H128117   3.925   1.922   2.321 -0.1089  1.2266 -0.2600
 2186TIP3    H228118   3.857   2.039   2.389 -1.0858 -0.1146  1.1272
 2187TIP3   OH228119   0.736   3.385   2.523 -0.4389  0.4442 -0.3220
 2187TIP3    H128120   0.702   3.296   2.517 -4.0217  1.5947  0.3631
 2187TIP3    H228121   0.774   3.403   2.438  2.7689 -2.4706  0.2821
 2188TIP3   OH228122   1.197   4.598   8.567  0.3444 -0.0833  0.1410
 2188TIP3    H128123   1.211   4.642   8.650 -0.0242  1.6564 -0.6699
 2188TIP3    H228124   1.139   4.657   8.518 -0.7554 -1.8217 -0.7463
 2189TIP3   OH228125   0.186   0.493   0.541  0.1580 -0.0536 -0.5832
 2189TIP3    H128126   0.096   0.461   0.535 -0.0289  0.3007  0.1788
 2189TIP3    H228127   0.225   0.470   0.457 -0.4713 -0.7350 -0.7029
 2190TIP3   OH228128   5.558   6.823   1.670 -0.1399  0.2539 -0.2060
 2190TIP3    H128129   5.500   6.767   1.722  0.9456  0.3654  1.1988
 2190TIP3    H228130   5.592   6.886   1.733  0.6473  0.8826 -1.2356
 2191TIP3   OH228131   5.349   6.304   8.611  0.4531 -0.1949 -0.2545
 2191TIP3    H128132   5.342   6.400   8.609  1.6755 -0.1089 -1.2261
 2191TIP3    H228133   5.398   6.282   8.532 -0.4803 -1.7000 -0.4444
 2192TIP3   OH228134   2.575   2.120   0.159  0.1395  0.0817 -0.0819
 2192TIP3    H128135   2.607   2.208   0.176 -0.0106 -0.2311  2.0483
 2192TIP3    H228136   2.524   2.129   0.078  2.5232  1.2991 -1.5824
 2193TIP3   OH228137   6.347   3.311   7.540 -0.2258 -0.6100 -0.3805
 2193TIP3    H128138   6.393   3.301   7.457 -0.8763 -0.7848 -0.7292
 2193TIP3    H228139   6.401   3.370   7.591  0.7447 -1.3499 -0.5145
 2194TIP3   OH228140   0.846   5.832   8.419  0.0379  0.5988  0.2172
 2194TIP3    H128141   0.865   5.887   8.342 -0.8729  0.4489 -0.1173
 2194TIP3    H228142   0.755   5.806   8.409  0.5025 -1.1400  0.2860
 2195TIP3   OH228143   0.857   2.903   7.967  0.1720 -0.4853 -0.3966
 2195TIP3    H128144   0.817   2.873   7.885 -0.2783  2.0577 -1.1908
 2195TIP3    H228145   0.783   2.936   8.018  0.5647 -1.2692  0.7095
 2196TIP3   OH228146   6.607   5.249   2.214 -0.0127  0.2839  0.2537
 2196TIP3    H128147   6.569   5.190   2.149 -0.1821  0.0713  0.5461
 2196TIP3    H228148   6.660   5.192   2.270 -0.4345  0.3635  0.7278
 2197TIP3   OH228149   3.534   2.053   8.490  0.7818  0.1688 -0.0620
 2197TIP3    H128150   3.452   2.007   8.469  0.9631 -0.2740  0.2008
 2197TIP3    H228151   3.598   1.983   8.502  0.9388  0.4613  0.8746
 2198TIP3   OH228152   3.062   4.026   7.691 -0.3377  0.5808  0.6136
 2198TIP3    H128153   3.070   4.067   7.605 -0.5462 -1.1626 -0.2697
 2198TIP3    H228154   2.968   4.022   7.707 -0.4479 -1.4566 -0.2995
 2199TIP3   OH228155   3.582   1.482   7.401 -0.0700  0.6109  0.2957
 2199TIP3    H128156   3.643   1.478   7.475 -0.7961 -3.0832  0.9335
 2199TIP3    H228157   3.638   1.478   7.324  0.6315  2.8857  0.6184
 2200TIP3   OH228158   4.052   6.401   7.945 -0.0173  0.4469  0.3300
 2200TIP3    H128159   4.108   6.326   7.926 -1.8020 -0.6031 -1.1333
 2200TIP3    H228160   4.007   6.378   8.026 -0.1079  0.2260  0.2161
 2201TIP3   OH228161   5.353   1.589   1.383  0.1192 -0.1957 -0.3322
 2201TIP3    H128162   5.395   1.564   1.465 -1.2965 -0.3726  0.3594
 2201TIP3    H228163   5.319   1.678   1.399 -0.3608 -0.3195 -0.6361
 2202TIP3   OH228164   4.457   3.989   2.854  0.5186 -0.3136  0.4783
 2202TIP3    H128165   4.452   4.031   2.940 -2.7151  1.3199 -0.3707
 2202TIP3    H228166   4.421   3.901   2.867  0.7931 -0.3642  0.9084
 2203TIP3   OH228167   5.721   6.180   1.739 -0.4721  0.2587 -0.0233
 2203TIP3    H128168   5.759   6.103   1.697 -1.5695  0.2869 -1.1227
 2203TIP3    H228169   5.709   6.154   1.830  0.4596 -0.3744 -0.0658
 2204TIP3   OH228170   1.381   4.897   2.455  0.1232 -0.4349  0.0492
 2204TIP3    H128171   1.341   4.923   2.538  0.9414  0.6407  0.1182
 2204TIP3    H228172   1.471   4.927   2.461  1.0433 -2.8998 -0.0572
 2205TIP3   OH228173   0.136   1.608   0.190 -0.3354  0.1908 -0.1593
 2205TIP3    H128174   0.089   1.590   0.272 -0.8616  2.1380  0.0181
 2205TIP3    H228175   0.067   1.621   0.126 -0.0149  1.3169 -0.2961
 2206TIP3   OH228176   0.517   6.848   0.680  0.9279  0.1024  0.3031
 2206TIP3    H128177   0.587   6.790   0.709  0.7601 -0.7182 -0.8659
 2206TIP3    H228178   0.552   6.936   0.694  2.0766 -0.2935  0.0270
 2207TIP3   OH228179   3.844   3.770   0.342 -0.4663 -0.3330 -0.2586
 2207TIP3    H128180   3.899   3.760   0.264  1.2347  1.4780  0.6211
 2207TIP3    H228181   3.883   3.713   0.407 -1.5306 -1.3866 -0.5079
 2208TIP3   OH228182   2.245   3.295   0.955  0.4881  0.4322 -0.6757
 2208TIP3    H128183   2.150   3.302   0.951  0.6278  2.7930 -0.9718
 2208TIP3    H228184   2.275   3.314   0.866  1.2834  0.6160 -0.3793
 2209TIP3   OH228185   1.786   5.348   1.240  0.3651  0.3874  0.9857
 2209TIP3    H128186   1.768   5.273   1.182  0.8681  1.1338 -0.1736
 2209TIP3    H228187   1.806   5.308   1.324 -0.4700 -0.7356  0.6775
 2210TIP3   OH228188   5.952   1.115   3.626 -0.2463  0.3942  0.0414
 2210TIP3    H128189   5.943   1.049   3.558 -3.8502  1.1725 -0.4550
 2210TIP3    H228190   5.928   1.197   3.583  1.9045  1.7194  1.1883
 2211TIP3   OH228191   6.135   2.643   8.232 -0.0837  0.1021 -0.5888
 2211TIP3    H128192   6.107   2.697   8.157  0.7545  1.0361 -0.2527
 2211TIP3    H228193   6.108   2.694   8.309 -1.7180 -1.2495 -0.1955
 2212TIP3   OH228194   0.125   1.148   1.152  0.0540  0.0004  0.0590
 2212TIP3    H128195   0.080   1.196   1.082  3.1008 -0.9378 -2.8102
 2212TIP3    H228196   0.145   1.063   1.114  2.1954 -0.4352  1.9137
 2213TIP3   OH228197   3.183   1.379   1.449  0.0333  0.1473 -0.2558
 2213TIP3    H128198   3.183   1.381   1.354 -1.0009  0.1534 -0.2741
 2213TIP3    H228199   3.272   1.402   1.474  1.1288 -2.6778 -1.2544
 2214TIP3   OH228200   0.339   0.251   2.008 -0.3930  0.2048  0.1879
 2214TIP3    H128201   0.428   0.265   2.039 -0.3581  0.7029 -0.1368
 2214TIP3    H228202   0.298   0.198   2.077  1.3069 -3.5755 -1.4413
 2215TIP3   OH228203   1.136   4.155   8.264  0.5605  0.0718 -0.1111
 2215TIP3    H128204   1.107   4.064   8.249 -1.2970  0.8018 -1.3417
 2215TIP3    H228205   1.056   4.201   8.291  1.4627  1.3735  0.3876
 2216TIP3   OH228206   6.811   5.652   1.712 -0.2709  0.5475  0.3041
 2216TIP3    H128207   6.804   5.584   1.645  2.0860  2.7334 -2.4229
 2216TIP3    H228208   6.749   5.719   1.684 -0.8162  0.5835  1.5674
 2217TIP3   OH228209   5.663   3.036   2.102  0.5388  0.4551  0.1455
 2217TIP3    H128210   5.653   3.002   2.191  0.9930  1.0967  0.4536
 2217TIP3    H228211   5.582   3.085   2.086  0.3100  0.0548  0.0780
 2218TIP3   OH228212   0.724   4.833   0.437  0.0656 -1.0603  0.3998
 2218TIP3    H128213   0.679   4.854   0.519 -1.8300 -1.2696 -0.5417
 2218TIP3    H228214   0.654   4.829   0.371  1.7410  1.8945 -1.8171
 2219TIP3   OH228215   0.714   6.470   0.473 -0.3448  0.1045  0.0813
 2219TIP3    H128216   0.758   6.413   0.410 -0.2938  1.1216 -0.8284
 2219TIP3    H228217   0.746   6.440   0.558  2.5871  1.1315 -0.5327
 2220TIP3   OH228218   3.946   0.187   7.872  0.4480  0.3135 -0.0719
 2220TIP3    H128219   3.904   0.262   7.831 -1.1144 -0.1246  0.6479
 2220TIP3    H228220   3.986   0.139   7.800 -1.2053  0.1975 -0.9680
 2221TIP3   OH228221   2.991   5.451   1.956  0.2823 -0.4925 -0.1984
 2221TIP3    H128222   2.958   5.424   2.042 -0.1844 -1.4132 -0.6605
 2221TIP3    H228223   2.915   5.485   1.910  0.3746 -0.7331 -0.5348
 2222TIP3   OH228224   4.610   0.628   7.797 -0.1185 -0.4176 -0.2591
 2222TIP3    H128225   4.535   0.671   7.838  0.0498 -0.3177 -0.0543
 2222TIP3    H228226   4.668   0.700   7.771  0.3618 -0.5279  0.4628
 2223TIP3   OH228227   3.473   3.701   8.289  0.1788  0.0724  0.1049
 2223TIP3    H128228   3.452   3.791   8.312 -0.9337  0.2088 -1.2924
 2223TIP3    H228229   3.389   3.656   8.287  0.5589 -0.6311 -0.6408
 2224TIP3   OH228230   4.091   0.105   0.939  0.0926  0.8291  0.0366
 2224TIP3    H128231   4.159   0.134   0.878 -0.0277  0.7730 -0.1266
 2224TIP3    H228232   4.073   0.014   0.913  0.0107  0.8196  0.1274
 2225TIP3   OH228233   5.232   1.653   0.008 -0.1999 -0.2075  0.2860
 2225TIP3    H128234   5.310   1.707  -0.008 -0.3507  0.1594  0.7562
 2225TIP3    H228235   5.243   1.624   0.099  0.5756 -2.1097 -0.3708
 2226TIP3   OH228236   1.425   2.190   2.031  0.8399  0.7267 -0.4341
 2226TIP3    H128237   1.413   2.285   2.033 -2.2534  0.4063  0.4015
 2226TIP3    H228238   1.375   2.161   1.955 -0.5123 -0.4298  0.8392
 2227TIP3   OH228239   4.654   4.764   1.578  0.0622  0.8716  0.2243
 2227TIP3    H128240   4.608   4.685   1.549 -3.3995  3.0523 -0.8135
 2227TIP3    H228241   4.705   4.791   1.502 -1.3098  1.3239 -0.5667
 2228TIP3   OH228242   1.079   2.556   0.548  0.4773 -0.1620  0.0366
 2228TIP3    H128243   0.993   2.532   0.514  0.7297 -0.7236 -0.2280
 2228TIP3    H228244   1.081   2.519   0.636  0.6876 -0.7222 -0.1976
 2229TIP3   OH228245   6.359   5.378   2.302 -0.5637 -0.0537  0.5100
 2229TIP3    H128246   6.439   5.341   2.264 -0.6651  1.1777 -0.9793
 2229TIP3    H228247   6.383   5.397   2.393  0.7942  0.0853  0.1505
 2230TIP3   OH228248   5.836   3.198   8.544 -0.3753 -0.9494 -0.7053
 2230TIP3    H128249   5.852   3.163   8.632 -0.7771  0.2545 -0.1179
 2230TIP3    H228250   5.766   3.143   8.509 -1.0860 -0.6911  0.2419
 2231TIP3   OH228251   2.342   3.248   1.515 -0.2551 -0.1102  0.4435
 2231TIP3    H128252   2.396   3.172   1.492 -1.2451 -0.7792  0.2662
 2231TIP3    H228253   2.271   3.247   1.451 -0.4498  0.7849  0.6402
 2232TIP3   OH228254   1.201   5.152   2.439  0.5820 -0.0874 -0.0830
 2232TIP3    H128255   1.281   5.201   2.457  1.7553 -1.7041 -0.6450
 2232TIP3    H228256   1.200   5.082   2.504  0.2882 -0.8273 -0.8661
 2233TIP3   OH228257   1.133   1.159   2.061  0.1750 -0.1690 -0.3497
 2233TIP3    H128258   1.086   1.108   1.996 -0.1685 -0.2683 -0.0300
 2233TIP3    H228259   1.137   1.102   2.138 -2.2398  1.0737  0.8204
 2234TIP3   OH228260   5.710   2.100   0.238  0.6957  0.4701 -0.2411
 2234TIP3    H128261   5.709   2.141   0.151  0.6870  0.6715 -0.1470
 2234TIP3    H228262   5.660   2.019   0.227 -2.0119  1.9327  0.2529
 2235TIP3   OH228263   4.750   2.059   2.749  0.7167  0.1030  0.2524
 2235TIP3    H128264   4.690   2.059   2.824  1.9197  0.0451  1.2337
 2235TIP3    H228265   4.814   1.990   2.769 -0.2963 -1.5991 -1.9717
 2236TIP3   OH228266   5.212   5.139   0.143  0.2565 -0.1805 -0.2174
 2236TIP3    H128267   5.291   5.091   0.119  1.3586  1.6580 -0.4767
 2236TIP3    H228268   5.238   5.190   0.220 -1.3622 -1.2075  1.0667
 2237TIP3   OH228269   0.624   5.017   0.998  0.0420  0.3449  0.1709
 2237TIP3    H128270   0.642   5.102   1.038  0.8461  0.1542  0.2285
 2237TIP3    H228271   0.710   4.978   0.983 -0.3092 -0.3880 -0.0145
 2238TIP3   OH228272   2.931   0.342   1.384  0.7744  0.1957  0.1598
 2238TIP3    H128273   2.895   0.333   1.296 -0.6702  2.3175  0.4700
 2238TIP3    H228274   2.912   0.258   1.426  1.2726 -0.7635 -1.4418
 2239TIP3   OH228275   1.125   2.460   0.858  0.3707  0.2760 -0.0841
 2239TIP3    H128276   1.145   2.551   0.883 -0.8690  0.1882  1.3587
 2239TIP3    H228277   1.030   2.456   0.855  0.4013 -0.3159 -2.9331
 2240TIP3   OH228278   5.103   3.503   0.069 -0.3727  0.0616 -0.3623
 2240TIP3    H128279   5.087   3.574   0.007 -1.0528 -0.1907 -0.4872
 2240TIP3    H228280   5.017   3.465   0.084 -0.3960  0.7663  1.5496
 2241TIP3   OH228281   6.446   1.980   0.426 -0.2678 -0.0159 -0.4419
 2241TIP3    H128282   6.514   1.960   0.490 -0.2141 -2.1541 -1.0725
 2241TIP3    H228283   6.494   2.019   0.352  0.1080 -0.3569 -0.3822
 2242TIP3   OH228284   0.952   3.437   8.302  0.1321 -0.2481 -0.0731
 2242TIP3    H128285   0.887   3.435   8.232  0.9413  3.0511 -1.1085
 2242TIP3    H228286   0.921   3.505   8.362  1.9737  0.5349  0.0594
 2243TIP3   OH228287   3.074   2.218   0.231 -0.2399  0.0680 -0.6750
 2243TIP3    H128288   3.065   2.307   0.264  0.8726 -0.3911  0.9663
 2243TIP3    H228289   3.000   2.171   0.268 -0.2095  0.0432 -0.6471
 2244TIP3   OH228290   1.817   4.570   2.214  0.7240  0.1498 -0.0522
 2244TIP3    H128291   1.760   4.583   2.138  0.6020 -0.7444 -0.1200
 2244TIP3    H228292   1.866   4.490   2.194 -0.2807 -0.8873  1.3935
 2245TIP3   OH228293   0.876   1.271   1.907 -0.1152  0.2989 -0.1272
 2245TIP3    H128294   0.852   1.359   1.876  0.7423  0.4282 -0.4595
 2245TIP3    H228295   0.792   1.227   1.920 -0.5513  0.3137 -2.4389
 2246TIP3   OH228296   5.737   4.938   7.877 -0.0316 -0.5953 -0.6975
 2246TIP3    H128297   5.810   4.965   7.821 -1.9603  0.6894 -2.7793
 2246TIP3    H228298   5.716   5.016   7.929 -0.6570 -0.5612 -0.9855
 2247TIP3   OH228299   6.593   1.410   0.284 -0.0026 -0.4747 -0.9640
 2247TIP3    H128300   6.557   1.328   0.316  0.9507 -0.6460 -0.2965
 2247TIP3    H228301   6.576   1.409   0.190 -0.4325 -1.2049 -0.8848
 2248TIP3   OH228302   0.796   5.690   0.157 -0.0014 -0.2940 -0.4189
 2248TIP3    H128303   0.755   5.751   0.218  1.3858  0.5966 -0.3231
 2248TIP3    H228304   0.821   5.615   0.211 -0.8288 -0.5385 -0.3542
 2249TIP3   OH228305   3.702   5.293   7.659 -0.3373 -1.1578  0.6372
 2249TIP3    H128306   3.721   5.378   7.700  0.0737 -0.1003 -1.5620
 2249TIP3    H228307   3.785   5.246   7.663  1.2790  0.9066 -3.1767
 2250TIP3   OH228308   6.369   1.777   0.925 -0.0447 -0.0420 -0.0582
 2250TIP3    H128309   6.280   1.773   0.961 -0.5415 -1.7882 -1.3356
 2250TIP3    H228310   6.403   1.689   0.935  2.0202  0.8419  1.3732
 2251TIP3   OH228311   3.362   1.253   8.406  0.4666 -0.2982  0.5790
 2251TIP3    H128312   3.277   1.232   8.368  0.6772 -0.2266  0.0560
 2251TIP3    H228313   3.347   1.254   8.500  0.4171 -2.6357  0.6392
 2252TIP3   OH228314   5.838   6.451   0.832 -0.2455 -0.0842  0.0525
 2252TIP3    H128315   5.812   6.420   0.745  1.5478  0.9857 -0.9170
 2252TIP3    H228316   5.920   6.497   0.817 -0.3022  0.8042  2.2166
 2253TIP3   OH228317   3.536   6.187   7.308 -0.5982 -0.9013  0.5105
 2253TIP3    H128318   3.558   6.102   7.271 -2.5651  0.1372 -3.6202
 2253TIP3    H228319   3.612   6.243   7.290 -0.3571 -1.1111  0.8567
 2254TIP3   OH228320   3.119   4.797   7.866 -0.1483  0.1587  0.1563
 2254TIP3    H128321   3.026   4.795   7.845 -0.0235  0.8330 -0.5308
 2254TIP3    H228322   3.161   4.828   7.785  0.8452 -1.6367 -0.0698
 2255TIP3   OH228323   5.748   4.735   0.291  0.2963  0.4288 -0.4864
 2255TIP3    H128324   5.668   4.683   0.306  1.0174 -0.6645 -0.2823
 2255TIP3    H228325   5.723   4.798   0.224 -0.5580 -0.3664 -0.9420
 2256TIP3   OH228326   5.734   0.126   8.364  0.2173 -0.0218  0.4816
 2256TIP3    H128327   5.761   0.120   8.273  0.7175 -1.6250  0.7015
 2256TIP3    H228328   5.734   0.219   8.383  1.4205  0.2674 -0.7690
 2257TIP3   OH228329   4.482   0.610   1.961  0.2726 -0.9273  0.3388
 2257TIP3    H128330   4.506   0.687   2.012  2.7344 -2.0754  1.0973
 2257TIP3    H228331   4.552   0.602   1.896 -2.1963 -0.1511 -2.6340
 2258TIP3   OH228332   1.908   5.794   2.753  0.2562  0.1451  0.1599
 2258TIP3    H128333   1.848   5.726   2.724  0.5526  0.3419 -0.9816
 2258TIP3    H228334   1.964   5.752   2.818 -0.9248 -0.1122  1.0456
 2259TIP3   OH228335   5.744   6.670   1.976 -0.5773 -0.1365  0.1008
 2259TIP3    H128336   5.664   6.684   1.926 -1.7338 -0.5357  1.7544
 2259TIP3    H228337   5.793   6.605   1.925 -0.4881  1.3010 -1.7606
 2260TIP3   OH228338   6.739   2.299   1.513 -0.5676 -0.1435  0.0794
 2260TIP3    H128339   6.659   2.256   1.542 -0.5529 -0.4628 -0.3327
 2260TIP3    H228340   6.719   2.330   1.424 -0.2908 -0.0846  0.0365
 2261TIP3   OH228341   5.938   1.587   8.587 -0.6402 -0.5513  0.0702
 2261TIP3    H128342   5.860   1.584   8.642 -0.0083  0.2665  1.0366
 2261TIP3    H228343   5.923   1.660   8.527  0.2352  0.9869  1.6359
 2262TIP3   OH228344   0.125   0.730   2.341 -0.8258 -0.5398 -0.0626
 2262TIP3    H128345   0.142   0.824   2.343  0.6903 -0.7719 -0.3469
 2262TIP3    H228346   0.048   0.720   2.286  1.0902  0.3112 -3.1259
 2263TIP3   OH228347   0.337   4.555   1.576 -0.4122  0.2727 -0.1228
 2263TIP3    H128348   0.405   4.509   1.526  1.2773  2.0233  0.4265
 2263TIP3    H228349   0.259   4.501   1.566  1.1430 -2.0459 -0.4888
 2264TIP3   OH228350   2.044   0.636   2.381  0.3438 -0.4958  0.2028
 2264TIP3    H128351   2.127   0.642   2.429  0.9116 -3.0010 -0.3073
 2264TIP3    H228352   1.982   0.687   2.433  2.2690  1.9332  0.3121
 2265TIP3   OH228353   3.284   6.329   0.528 -0.2897 -0.0583 -0.1509
 2265TIP3    H128354   3.360   6.311   0.472 -1.2717 -0.1931 -1.5043
 2265TIP3    H228355   3.297   6.419   0.558  0.3237 -0.0223 -0.5128
 2266TIP3   OH228356   0.957   1.701   0.891  0.1619  0.1696  0.4625
 2266TIP3    H128357   0.935   1.752   0.813  0.4948 -0.6698 -0.1929
 2266TIP3    H228358   0.975   1.767   0.958 -2.5251  0.9471  0.5530
 2267TIP3   OH228359   0.032   0.263   1.239  0.3068 -0.4216  0.2925
 2267TIP3    H128360   0.003   0.213   1.163 -0.9245 -0.7630  0.9575
 2267TIP3    H228361  -0.035   0.331   1.249  1.7182  1.1246 -0.3320
 2268TIP3   OH228362   6.539   5.457   1.323 -0.4819 -0.5536 -0.6939
 2268TIP3    H128363   6.609   5.392   1.315  1.7671  1.4526  0.8887
 2268TIP3    H228364   6.482   5.422   1.391  1.4205 -0.3998  1.0936
 2269TIP3   OH228365   0.503   2.369   1.143  0.0263 -0.0545  0.1861
 2269TIP3    H128366   0.485   2.289   1.093 -0.7713  1.1068 -1.4504
 2269TIP3    H228367   0.586   2.350   1.187  0.8871 -1.0796 -1.7322
 2270TIP3   OH228368   2.170   5.751   2.609 -0.2388  0.3975 -0.1729
 2270TIP3    H128369   2.135   5.779   2.693  0.4332  1.0316 -0.0985
 2270TIP3    H228370   2.260   5.784   2.608 -0.6568  1.5580 -1.7065
 2271TIP3   OH228371   6.513   3.211   0.196  0.2091  0.2248 -0.2246
 2271TIP3    H128372   6.554   3.169   0.121 -0.0818 -0.4545 -0.0178
 2271TIP3    H228373   6.459   3.281   0.159  0.6786  0.4001 -0.5796
 2272TIP3   OH228374   4.930   3.139   8.178  0.3912 -0.6104 -0.7512
 2272TIP3    H128375   4.964   3.204   8.239  0.6541 -0.9298 -0.5563
 2272TIP3    H228376   4.937   3.056   8.225 -2.7724 -0.4565  0.2101
 2273TIP3   OH228377   0.436   4.018   0.135 -0.2586  0.2129 -0.1052
 2273TIP3    H128378   0.379   4.093   0.150 -0.3413 -0.2982  2.5799
 2273TIP3    H228379   0.461   3.988   0.222  0.7194 -2.1828 -1.0989
 2274TIP3   OH228380   0.005   1.165   7.092 -0.3110  0.2903  0.1687
 2274TIP3    H128381  -0.068   1.107   7.068 -1.1909  1.8046 -1.0787
 2274TIP3    H228382  -0.009   1.244   7.038  1.8085  0.9551  0.4973
 2275TIP3   OH228383   4.893   2.658   3.164 -0.2360 -0.3621  0.3750
 2275TIP3    H128384   4.858   2.579   3.204  0.3939 -2.5178 -2.9771
 2275TIP3    H228385   4.970   2.679   3.216 -0.2168 -2.1564  1.1377
 2276TIP3   OH228386   1.415   2.536   1.716  0.3980 -0.7983 -0.0116
 2276TIP3    H128387   1.356   2.611   1.723 -0.4890 -1.5350  0.5887
 2276TIP3    H228388   1.423   2.520   1.622 -0.6009 -0.8706 -0.0928
 2277TIP3   OH228389   6.505   3.632   2.366 -0.5841  0.3618  0.0927
 2277TIP3    H128390   6.427   3.626   2.312  0.3184  0.5556 -1.2839
 2277TIP3    H228391   6.518   3.726   2.381 -0.1593  0.3906 -0.4068
 2278TIP3   OH228392   6.839   5.307   0.596  0.2898 -0.0815  0.5305
 2278TIP3    H128393   6.842   5.353   0.512 -0.6418  1.3894  1.2529
 2278TIP3    H228394   6.931   5.301   0.623  0.7416 -1.8679 -1.2133
 2279TIP3   OH228395   5.545   0.952   2.644 -0.0297 -0.3887  0.0219
 2279TIP3    H128396   5.583   1.017   2.586  0.0185 -0.1081  0.3675
 2279TIP3    H228397   5.497   1.002   2.709 -1.1980 -0.7488 -0.5478
 2280TIP3   OH228398   6.582   4.930   8.623 -0.0491 -0.3916  0.6147
 2280TIP3    H128399   6.529   5.010   8.632 -1.1915 -1.0499 -0.0558
 2280TIP3    H228400   6.588   4.895   8.712 -0.0142  0.1438  0.8264
 2281TIP3   OH228401   3.921   2.207   2.219 -0.4074  0.7071  0.9646
 2281TIP3    H128402   3.827   2.225   2.209  0.0588  2.3346 -1.3619
 2281TIP3    H228403   3.964   2.286   2.187  1.7913  0.3442  2.8207
 2282TIP3   OH228404   5.568   2.644   0.230  0.8559  0.0832 -0.5542
 2282TIP3    H128405   5.557   2.730   0.271 -0.4641  0.6718 -2.0255
 2282TIP3    H228406   5.495   2.638   0.168  2.2627 -1.0931 -2.1875
 2283TIP3   OH228407   6.273   1.997   2.066  0.7231  0.4403  0.7427
 2283TIP3    H128408   6.241   1.924   2.013  1.3103  0.7044  0.0002
 2283TIP3    H228409   6.273   1.964   2.156  1.6396 -0.7127  0.3344
 2284TIP3   OH228410   5.957   2.333   0.499  0.6397  0.7241  0.3076
 2284TIP3    H128411   5.913   2.364   0.420 -0.2277  0.1513  0.5635
 2284TIP3    H228412   5.982   2.243   0.479 -0.8692  0.0792  1.1913
 2285TIP3   OH228413   0.779   4.994   7.431 -0.0997  0.1516  0.1890
 2285TIP3    H128414   0.800   5.009   7.339  1.2507  0.0719  0.4587
 2285TIP3    H228415   0.803   4.903   7.446  0.2563  0.3288  0.7509
 2286TIP3   OH228416   4.915   1.745   0.399  0.0152  0.0799  0.0292
 2286TIP3    H128417   4.855   1.703   0.461  1.4408 -3.1709 -0.6162
 2286TIP3    H228418   4.936   1.677   0.335  0.6023  2.5517 -2.6271
 2287TIP3   OH228419   3.396   5.763   8.402 -0.5914 -0.4401  0.4059
 2287TIP3    H128420   3.387   5.690   8.341  1.3688  0.4720 -1.0954
 2287TIP3    H228421   3.333   5.828   8.372  1.6237  0.7716 -1.9699
 2288TIP3   OH228422   1.786   4.331   0.145 -0.0173 -0.3022 -0.1944
 2288TIP3    H128423   1.876   4.342   0.176  0.3674  0.3227 -1.4668
 2288TIP3    H228424   1.790   4.253   0.088 -0.4396 -0.6922  0.3019
 2289TIP3   OH228425   6.181   6.073   8.410 -0.2918  0.2941  0.3769
 2289TIP3    H128426   6.211   6.152   8.456  0.2605  0.3472 -0.0658
 2289TIP3    H228427   6.086   6.084   8.404 -0.2323  0.8730  0.4167
 2290TIP3   OH228428   6.851   2.860   1.093  0.3818  0.7067 -0.4592
 2290TIP3    H128429   6.808   2.868   1.179  2.1589  0.3153  0.4982
 2290TIP3    H228430   6.897   2.944   1.082 -0.6311  1.1535 -1.5162
 2291TIP3   OH228431   3.688   3.203   0.360 -0.4252  0.2803  0.2777
 2291TIP3    H128432   3.782   3.191   0.344 -0.7236 -0.6588 -0.9383
 2291TIP3    H228433   3.648   3.124   0.324 -1.6062  0.1910  1.6973
 2292TIP3   OH228434   4.663   2.287   8.426 -0.4140 -0.0413 -0.0605
 2292TIP3    H128435   4.690   2.367   8.382  1.5521 -0.8324 -0.3982
 2292TIP3    H228436   4.610   2.241   8.361  0.0322  0.1320 -0.5555
 2293TIP3   OH228437   3.531   5.990   1.613 -0.2979  0.3184  0.4109
 2293TIP3    H128438   3.568   6.002   1.525  0.2039  0.3908  0.6322
 2293TIP3    H228439   3.569   6.061   1.665  1.0174 -0.9184  1.1969
 2294TIP3   OH228440   5.441   0.540   1.624 -0.1241 -0.5283  0.3687
 2294TIP3    H128441   5.367   0.534   1.563  0.1666 -0.9515  0.0474
 2294TIP3    H228442   5.447   0.452   1.662 -0.6851 -0.1145  1.4714
 2295TIP3   OH228443   4.332   6.334   1.917 -0.3376 -0.0978 -0.6483
 2295TIP3    H128444   4.278   6.279   1.974  0.3652 -0.0844  0.0428
 2295TIP3    H228445   4.319   6.423   1.949  2.1010 -0.3208  1.2956
 2296TIP3   OH228446   0.038   5.129   0.957 -0.0482  0.3952 -0.2453
 2296TIP3    H128447   0.107   5.193   0.941 -0.9578  2.0189  1.8392
 2296TIP3    H228448  -0.039   5.166   0.913 -0.5482  0.7207  0.8680
 2297TIP3   OH228449   1.401   6.638   8.647 -0.8773  0.0611 -0.1238
 2297TIP3    H128450   1.382   6.729   8.624 -0.8551  0.4593  1.3013
 2297TIP3    H228451   1.468   6.610   8.584  0.5614  1.6829  0.5975
 2298TIP3   OH228452   1.103   3.962   8.576  0.4652  0.1261 -0.0935
 2298TIP3    H128453   1.019   3.928   8.606  0.1285 -0.8976 -2.0488
 2298TIP3    H228454   1.151   3.982   8.657  0.1691 -3.6889  1.2254
 2299TIP3   OH228455   4.628   5.309   2.936 -0.0320  0.2464 -0.0173
 2299TIP3    H128456   4.580   5.270   3.009  1.6173 -0.6415  0.6519
 2299TIP3    H228457   4.671   5.235   2.893  0.4699  0.9603 -0.7917
 2300TIP3   OH228458   5.928   5.035   0.513 -0.0114 -0.3143  0.8157
 2300TIP3    H128459   5.838   5.017   0.487 -0.0405  1.2983 -0.3359
 2300TIP3    H228460   5.962   4.950   0.542 -0.4712 -2.0690 -3.1242
 2301TIP3   OH228461   4.164   2.738   2.478  0.1049 -0.1366 -0.1312
 2301TIP3    H128462   4.189   2.648   2.455  0.2269 -0.3094  0.6382
 2301TIP3    H228463   4.073   2.731   2.506  1.0563 -0.6741  3.2333
 2302TIP3   OH228464   3.247   6.398   2.491  0.3990  0.9183  0.1061
 2302TIP3    H128465   3.274   6.394   2.583  1.3325  0.5572 -0.1717
 2302TIP3    H228466   3.282   6.317   2.453 -1.4465  0.2133 -0.1917
 2303TIP3   OH228467   6.141   4.511   7.080 -0.1165 -0.1118  0.2826
 2303TIP3    H128468   6.065   4.551   7.038  0.3677  1.2329  0.6340
 2303TIP3    H228469   6.209   4.578   7.075  0.8231 -1.0103  0.6445
 2304TIP3   OH228470   0.362   2.260   2.448  0.0744  0.2834  0.6432
 2304TIP3    H128471   0.451   2.224   2.457  0.4792  1.3264  0.9133
 2304TIP3    H228472   0.310   2.210   2.510  0.0450 -1.6529 -0.8491
 2305TIP3   OH228473   3.247   3.806   1.568 -0.2752 -0.1554  0.2772
 2305TIP3    H128474   3.265   3.853   1.488 -0.4523 -1.3685 -0.5030
 2305TIP3    H228475   3.298   3.852   1.635 -0.0603  0.8168 -0.5311
 2306TIP3   OH228476   0.408   0.360   8.501 -0.0555  0.2660  0.6789
 2306TIP3    H128477   0.444   0.354   8.413 -0.7532  0.2853  0.3886
 2306TIP3    H228478   0.433   0.277   8.542  1.1341  0.6585  0.8119
 2307TIP3   OH228479   1.545   5.173   1.968 -0.3857  0.3859 -0.2425
 2307TIP3    H128480   1.533   5.267   1.955  0.9660  0.5081 -0.8160
 2307TIP3    H228481   1.628   5.166   2.016  0.1337 -0.5444 -1.2151
 2308TIP3   OH228482   3.036   4.008   1.536  0.4235 -0.0110  0.2118
 2308TIP3    H128483   3.051   3.914   1.551  2.9660 -0.0945 -1.9866
 2308TIP3    H228484   2.953   4.012   1.489  0.5885 -1.2522 -0.2212
 2309TIP3   OH228485   6.405   2.248   3.587 -0.6278  0.7023  0.1767
 2309TIP3    H128486   6.457   2.269   3.510 -1.2977  1.1654 -0.1562
 2309TIP3    H228487   6.411   2.153   3.595  0.4596  0.7695  0.2839
 2310TIP3   OH228488   4.805   0.573   7.553 -0.5151 -0.3097  0.5372
 2310TIP3    H128489   4.754   0.493   7.562 -1.6442  0.1518 -1.2160
 2310TIP3    H228490   4.741   0.639   7.524  0.6643  0.8459  0.4629
 2311TIP3   OH228491   5.394   4.349   0.836  0.0908  0.1257  0.6738
 2311TIP3    H128492   5.338   4.402   0.892  0.7672  0.2792  1.2065
 2311TIP3    H228493   5.469   4.327   0.890  1.5281  1.5792 -0.6314
 2312TIP3   OH228494   4.691   2.075   1.508  0.1711 -0.4412  0.2011
 2312TIP3    H128495   4.759   2.022   1.465 -1.1960  0.3041 -3.1774
 2312TIP3    H228496   4.610   2.027   1.492 -0.6191  0.7786  0.4667
 2313TIP3   OH228497   5.586   4.322   7.413  0.0903 -0.0931 -0.2112
 2313TIP3    H128498   5.581   4.352   7.504 -0.8693  0.0187 -0.3009
 2313TIP3    H228499   5.602   4.402   7.362 -1.8204  0.2282 -0.3811
 2314TIP3   OH228500   2.235   5.390   1.768  0.0062 -0.2901 -0.4581
 2314TIP3    H128501   2.208   5.300   1.783 -0.1442 -0.2216 -0.3107
 2314TIP3    H228502   2.296   5.385   1.694 -1.1303 -0.3357 -1.4069
 2315TIP3   OH228503   3.613   0.133   2.451  0.3340 -0.1349 -0.5499
 2315TIP3    H128504   3.563   0.211   2.474  1.3792 -0.0273  1.5282
 2315TIP3    H228505   3.572   0.062   2.501  3.1618  0.2484  2.6552
 2316TIP3   OH228506   2.636   2.254   8.306 -0.8189 -0.5543  0.2763
 2316TIP3    H128507   2.542   2.243   8.320 -0.6136 -0.9038  1.5054
 2316TIP3    H228508   2.668   2.294   8.387  0.2721 -1.5405  0.3668
 2317TIP3   OH228509   3.835   0.304   8.633 -0.6104  0.9024  0.0184
 2317TIP3    H128510   3.888   0.380   8.655  0.9032 -0.7272  2.4973
 2317TIP3    H228511   3.877   0.266   8.557  1.9401 -0.3230  1.8955
 2318TIP3   OH228512   4.873   3.099   8.561 -0.2670  0.4713  0.5770
 2318TIP3    H128513   4.931   3.173   8.576 -1.6727  1.3551  1.9617
 2318TIP3    H228514   4.786   3.137   8.554 -0.7399 -0.8211 -1.3391
 2319TIP3   OH228515   2.168   5.394   7.917 -0.6618 -0.2635 -0.2090
 2319TIP3    H128516   2.205   5.306   7.926 -2.2351 -1.1105 -1.4776
 2319TIP3    H228517   2.159   5.425   8.007  0.4535 -1.1614  0.2362
 2320TIP3   OH228518   1.197   6.283   1.775 -0.2376  0.2943  0.1329
 2320TIP3    H128519   1.273   6.229   1.751 -1.3344 -1.1842 -0.1416
 2320TIP3    H228520   1.135   6.221   1.814 -1.5624  1.3548 -0.2198
 2321TIP3   OH228521   1.429   5.626   1.189  0.2157 -0.0383  0.1173
 2321TIP3    H128522   1.462   5.554   1.135 -0.9466  0.1732 -0.9051
 2321TIP3    H228523   1.457   5.705   1.142 -2.2070  0.1595 -1.1548
 2322TIP3   OH228524   1.470   2.743   2.176 -0.2219 -0.5144 -0.1764
 2322TIP3    H128525   1.553   2.748   2.223 -0.6428 -0.7654  0.6204
 2322TIP3    H228526   1.468   2.821   2.121  1.3402 -1.4115 -1.5861
 2323TIP3   OH228527   4.549   1.444   3.049 -0.7306 -0.0481 -0.0771
 2323TIP3    H128528   4.459   1.421   3.073 -0.6855 -1.1722 -0.8756
 2323TIP3    H228529   4.579   1.369   2.997  0.4327  0.6226 -0.4010
 2324TIP3   OH228530   1.276   0.625   2.850  0.0804 -0.5209  0.0193
 2324TIP3    H128531   1.300   0.653   2.939  0.4323 -1.2302  0.1493
 2324TIP3    H228532   1.290   0.704   2.796  2.4039 -0.7661  0.1418
 2325TIP3   OH228533   3.831   6.388   1.464 -0.4927 -0.0526 -0.3369
 2325TIP3    H128534   3.752   6.401   1.518 -0.0821  0.4239  0.1591
 2325TIP3    H228535   3.890   6.337   1.520 -0.0087  0.5651 -0.2732
 2326TIP3   OH228536   4.316   1.011   1.970  0.2794 -0.5367 -0.0397
 2326TIP3    H128537   4.324   1.071   1.896  0.9368 -0.2377  0.2724
 2326TIP3    H228538   4.264   1.059   2.034 -1.6015 -1.3503 -0.8703
 2327TIP3   OH228539   0.125   5.002   0.210 -0.1723  0.2063 -0.6690
 2327TIP3    H128540   0.164   5.042   0.133 -1.0779  1.6509 -0.4119
 2327TIP3    H228541   0.041   5.046   0.221 -0.2246 -0.2103  0.9381
 2328TIP3   OH228542   1.284   2.828   0.084  0.6703 -0.0572 -1.0235
 2328TIP3    H128543   1.343   2.775   0.137 -0.2649 -0.8610 -0.7433
 2328TIP3    H228544   1.206   2.773   0.074  0.4787  0.4508 -2.4788
 2329TIP3   OH228545   5.821   1.038   2.779  0.7466  0.1242 -0.1314
 2329TIP3    H128546   5.800   0.961   2.725  2.6304 -0.7490  0.2828
 2329TIP3    H228547   5.891   1.008   2.837  0.9178  1.9244  0.6575
 2330TIP3   OH228548   1.895   0.172   2.859 -0.2111  0.5573 -0.1948
 2330TIP3    H128549   1.986   0.193   2.837 -0.1391 -0.0818 -0.5308
 2330TIP3    H228550   1.843   0.216   2.792 -0.0918  0.1012 -0.5921
 2331TIP3   OH228551   4.970   6.545   0.008 -0.2964 -0.4366  0.2265
 2331TIP3    H128552   4.932   6.628   0.036 -0.8191 -0.3100 -0.8051
 2331TIP3    H228553   4.902   6.480   0.028 -1.3576 -0.1530 -2.0403
 2332TIP3   OH228554   0.613   4.505   0.967 -0.9082  0.7853 -0.2183
 2332TIP3    H128555   0.659   4.577   0.922 -0.1747  0.2321 -0.3809
 2332TIP3    H228556   0.522   4.516   0.941 -0.9588  2.1540  0.4289
 2333TIP3   OH228557   6.006   5.524   1.458  0.3089 -0.1552 -0.6778
 2333TIP3    H128558   6.069   5.551   1.391  1.1836 -0.6063 -0.0625
 2333TIP3    H228559   6.057   5.523   1.540 -0.0539 -2.0966 -0.4259
 2334TIP3   OH228560   3.870   6.674   1.640 -0.2081  0.0363  0.3289
 2334TIP3    H128561   3.936   6.608   1.620  1.6259  1.9846 -0.4271
 2334TIP3    H228562   3.844   6.709   1.554  0.1412  1.4683  0.7882
 2335TIP3   OH228563   6.130   3.898   7.962 -0.7343 -1.1673  0.5658
 2335TIP3    H128564   6.116   3.808   7.933 -2.4536 -0.6453 -0.3462
 2335TIP3    H228565   6.042   3.935   7.969 -0.0869  0.3247  1.3684
 2336TIP3   OH228566   3.980   5.218   7.955  0.1842 -0.3580 -0.6617
 2336TIP3    H128567   3.935   5.233   7.871 -1.2447 -0.7533  0.0107
 2336TIP3    H228568   3.912   5.183   8.013  1.3764 -0.9772  0.4010
 2337TIP3   OH228569   5.955   3.300   0.762  0.0910 -0.5722 -0.2324
 2337TIP3    H128570   5.925   3.348   0.684 -0.0979  0.0459  0.2122
 2337TIP3    H228571   5.998   3.222   0.727 -0.7674 -0.7475 -0.9312
 2338TIP3   OH228572   5.462   1.556   8.198 -0.0287 -0.1896  0.3626
 2338TIP3    H128573   5.451   1.595   8.111 -1.9162 -0.5510  0.3990
 2338TIP3    H228574   5.557   1.548   8.209  0.2448 -0.3524 -1.7623
 2339TIP3   OH228575   3.018   2.255   2.884 -0.1517 -0.0800 -0.2053
 2339TIP3    H128576   3.046   2.190   2.819  1.3332 -0.3140  0.6235
 2339TIP3    H228577   3.052   2.338   2.851 -1.0763  0.1194 -0.6895
 2340TIP3   OH228578   4.143   0.280   8.072 -0.1540  0.2639  0.6090
 2340TIP3    H128579   4.201   0.224   8.020  1.2451  1.0741  1.2493
 2340TIP3    H228580   4.075   0.308   8.010 -0.5265 -1.5754  0.1174
 2341TIP3   OH228581   4.097   2.811   0.505 -0.4758  0.0634  0.2195
 2341TIP3    H128582   4.142   2.888   0.469  0.9326  0.4068  2.5383
 2341TIP3    H228583   4.006   2.838   0.512 -0.4659  0.6040 -1.3063
 2342TIP3   OH228584   0.588   3.271   0.095  0.1083  0.3767 -0.1278
 2342TIP3    H128585   0.498   3.267   0.126 -0.2184 -0.7475 -1.1560
 2342TIP3    H228586   0.597   3.359   0.059 -0.9903  0.0992 -1.1591
 2343TIP3   OH228587   5.084   1.535   2.854 -0.3192  0.5332  0.5578
 2343TIP3    H128588   5.097   1.482   2.775  2.7830  1.1870  0.4800
 2343TIP3    H228589   5.006   1.498   2.896 -1.8907 -0.0439 -2.5882
 2344TIP3   OH228590   5.133   1.585   1.717  0.7712  0.1862 -0.4916
 2344TIP3    H128591   5.184   1.544   1.648 -0.0255  0.2257 -1.1281
 2344TIP3    H228592   5.101   1.667   1.677 -1.1112 -0.5955 -0.7030
 2345TIP3   OH228593   2.539   0.117   1.648  0.0573  0.2479 -0.1021
 2345TIP3    H128594   2.486   0.148   1.722 -2.2160 -1.3993 -0.9284
 2345TIP3    H228595   2.572   0.031   1.676  2.3068  1.1696  0.3356
 2346TIP3   OH228596   1.263   2.118   1.787  0.3498 -0.2522 -0.0755
 2346TIP3    H128597   1.289   2.171   1.712  0.2457 -2.0014 -1.3999
 2346TIP3    H228598   1.168   2.130   1.793  0.4066  0.1847  0.0403
 2347TIP3   OH228599   1.167   1.894   8.106  0.0977  0.0536  0.0988
 2347TIP3    H128600   1.083   1.855   8.083  0.1265  0.0844 -0.0610
 2347TIP3    H228601   1.224   1.820   8.128 -0.2848  0.0848  1.2856
 2348TIP3   OH228602   5.275   2.873   1.910 -0.2690 -0.1195 -0.4303
 2348TIP3    H128603   5.282   2.785   1.948 -1.0572 -1.1535 -2.5219
 2348TIP3    H228604   5.181   2.893   1.913  0.0143  1.2433  1.1418
 2349TIP3   OH228605   6.197   6.300   8.083  0.4485  0.0597  0.3322
 2349TIP3    H128606   6.290   6.293   8.103  0.8789 -0.4849 -1.6820
 2349TIP3    H228607   6.186   6.389   8.050  0.4652 -0.2074 -0.4024
 2350TIP3   OH228608   5.026   4.784   2.091  0.1611 -0.3769 -0.4876
 2350TIP3    H128609   5.014   4.755   2.181 -0.4769  1.3823  0.0256
 2350TIP3    H228610   4.937   4.788   2.055  0.3322 -0.1120 -0.8890
 2351TIP3   OH228611   0.518   5.824   0.578 -0.1666  0.0855  0.4155
 2351TIP3    H128612   0.492   5.761   0.511 -0.9326  0.6783  0.1484
 2351TIP3    H228613   0.441   5.829   0.636 -0.5006  1.5216 -0.1276
 2352TIP3   OH228614   2.653   4.078   2.608  0.2961 -0.2092  0.5598
 2352TIP3    H128615   2.621   4.096   2.696  1.2184  0.5545  0.7601
 2352TIP3    H228616   2.746   4.059   2.620  0.2416 -0.9909 -0.1553
 2353TIP3   OH228617   3.469   2.826   1.856 -0.3208 -0.1894 -0.3090
 2353TIP3    H128618   3.496   2.825   1.764 -2.3765  1.4564 -1.0107
 2353TIP3    H228619   3.511   2.748   1.894  0.2862 -1.1269 -2.7014
 2354TIP3   OH228620   6.052   1.847   1.592 -0.1425  0.7591  0.2210
 2354TIP3    H128621   5.981   1.885   1.540 -0.7053 -0.5193  0.0206
 2354TIP3    H228622   6.049   1.753   1.573  0.5204  0.4455  1.5152
 2355TIP3   OH228623   2.311   0.325   1.000  0.4345  0.4089 -0.6615
 2355TIP3    H128624   2.379   0.291   0.942  1.3734  1.6112 -0.3228
 2355TIP3    H228625   2.316   0.270   1.078  2.2985  1.5520  0.1034
 2356TIP3   OH228626   1.282   0.200   1.455 -0.1531 -0.0856  0.1706
 2356TIP3    H128627   1.290   0.278   1.510 -0.0034  0.0006  0.0278
 2356TIP3    H228628   1.371   0.181   1.427 -0.2289 -0.1273 -0.0425
 2357TIP3   OH228629   5.503   2.085   8.269 -0.0893  0.8006  0.1923
 2357TIP3    H128630   5.490   2.171   8.309 -1.7354  1.0271 -0.7264
 2357TIP3    H228631   5.414   2.055   8.249  0.4139 -1.3955  1.0299
 2358TIP3   OH228632   5.744   0.074   1.455  0.1496 -0.2838 -0.3771
 2358TIP3    H128633   5.819   0.024   1.487 -0.1066  0.8908  2.3787
 2358TIP3    H228634   5.671   0.047   1.511 -0.6614  1.0471 -0.7329
 2359TIP3   OH228635   3.779   5.665   0.175  0.1818 -0.3189 -0.0482
 2359TIP3    H128636   3.821   5.603   0.234 -0.1710 -1.2992 -0.7884
 2359TIP3    H228637   3.755   5.612   0.098 -1.6945  0.3462  0.0226
 2360TIP3   OH228638   0.427   6.651   0.904 -0.3304 -0.1167 -0.0984
 2360TIP3    H128639   0.515   6.622   0.880  0.3165  0.0276  1.9758
 2360TIP3    H228640   0.371   6.611   0.837  1.4431  1.4545 -2.7404
 2361TIP3   OH228641   0.467   3.560   0.878 -0.0413  0.2839 -0.0187
 2361TIP3    H128642   0.514   3.582   0.798  2.2743 -1.1865  0.8379
 2361TIP3    H228643   0.535   3.555   0.945 -1.5902 -0.7369  1.5639
 2362TIP3   OH228644   2.611   6.644   0.824  0.2215  0.3216  0.1894
 2362TIP3    H128645   2.664   6.662   0.747  1.9351 -0.2348  1.2011
 2362TIP3    H228646   2.541   6.586   0.793  0.8562  0.1508 -0.9451
 2363TIP3   OH228647   6.250   6.515   0.474  0.0125 -0.2612 -0.4047
 2363TIP3    H128648   6.324   6.488   0.529 -0.0168 -1.4931 -0.9446
 2363TIP3    H228649   6.268   6.607   0.454  1.9999 -0.8166 -1.4361
 2364TIP3   OH228650   3.419   4.490   2.914  0.7524 -0.0265 -0.0272
 2364TIP3    H128651   3.453   4.478   3.003 -1.3044  1.7408  1.0968
 2364TIP3    H228652   3.436   4.582   2.894  2.5466 -0.7378 -2.1644
 2365TIP3   OH228653   0.325   4.270   0.187 -0.2323 -0.6542 -0.2148
 2365TIP3    H128654   0.309   4.275   0.282 -0.8097 -2.1285 -0.2197
 2365TIP3    H228655   0.250   4.315   0.148 -0.1634 -0.3430 -0.0016
 2366TIP3   OH228656   2.055   0.433   1.345 -0.7616  0.5107 -0.5025
 2366TIP3    H128657   2.107   0.461   1.269 -0.7664 -0.6212 -0.9508
 2366TIP3    H228658   2.061   0.506   1.406  1.4576  0.3864 -0.4943
 2367TIP3   OH228659   6.149   4.131   2.320  0.1193  0.0714 -0.0932
 2367TIP3    H128660   6.132   4.191   2.247  1.8267  0.0784 -0.5189
 2367TIP3    H228661   6.167   4.189   2.394 -0.9260  0.0607  0.1868
 2368TIP3   OH228662   5.484   5.547   8.479  0.3297  0.0332  0.0462
 2368TIP3    H128663   5.413   5.611   8.477  0.6808  0.4341  0.3916
 2368TIP3    H228664   5.530   5.564   8.561  0.5837 -0.4934  0.0212
 2369TIP3   OH228665   3.650   2.714   2.445  0.1708 -0.3112  0.4699
 2369TIP3    H128666   3.619   2.751   2.528 -0.9884 -0.5879  0.1836
 2369TIP3    H228667   3.649   2.788   2.385  2.7249  0.3165  1.0780
 2370TIP3   OH228668   6.090   6.487   0.731  0.8901  0.1602 -0.5702
 2370TIP3    H128669   6.134   6.404   0.713 -1.2538 -0.7232 -2.1961
 2370TIP3    H228670   6.092   6.534   0.647  1.5100  1.5167  0.1688
 2371TIP3   OH228671   2.232   0.039   3.158  0.5163  0.7869  0.0167
 2371TIP3    H128672   2.155  -0.018   3.154  2.6973 -2.6315  1.9810
 2371TIP3    H228673   2.219   0.090   3.238 -0.0906  0.8747 -0.1307
 2372TIP3   OH228674   3.517   1.783   1.749 -0.0429 -0.0076 -0.3011
 2372TIP3    H128675   3.469   1.858   1.716 -1.6285 -0.6009  0.5740
 2372TIP3    H228676   3.451   1.714   1.759  0.5513 -0.2898  2.7481
 2373TIP3   OH228677   6.567   1.283   2.219 -0.4261 -0.4129 -0.0278
 2373TIP3    H128678   6.638   1.221   2.234  0.5570  0.9529  1.2170
 2373TIP3    H228679   6.518   1.284   2.301 -0.9373 -0.1666 -0.3299
 2374TIP3   OH228680   5.040   3.427   7.132 -0.6115  0.0736 -0.5859
 2374TIP3    H128681   5.096   3.493   7.091 -1.4187  1.1910  0.0526
 2374TIP3    H228682   4.978   3.477   7.185  0.6211 -1.2764  2.3742
 2375TIP3   OH228683   0.997   5.833   0.890 -0.0407 -0.2264 -0.5260
 2375TIP3    H128684   0.939   5.871   0.957 -0.3294  0.8102 -1.3303
 2375TIP3    H228685   0.954   5.751   0.865 -0.3504 -0.2257 -0.0174
 2376TIP3   OH228686   3.731   3.393   1.660  0.3127  0.0973  0.2780
 2376TIP3    H128687   3.798   3.361   1.721  0.3091  0.0694  0.2674
 2376TIP3    H228688   3.712   3.482   1.690  0.8718  0.3637 -0.1584
 2377TIP3   OH228689   2.319   4.111   1.922 -0.1481  0.3190 -0.3522
 2377TIP3    H128690   2.278   4.065   1.848 -1.0352 -1.0976  0.9642
 2377TIP3    H228691   2.255   4.175   1.950 -0.1483  0.3006 -0.3097
 2378TIP3   OH228692   2.680   4.831   0.826 -0.1264  0.1513  0.3689
 2378TIP3    H128693   2.691   4.909   0.772 -0.1592  0.0768  0.2527
 2378TIP3    H228694   2.721   4.853   0.910 -2.3457  1.2288  1.2567
 2379TIP3   OH228695   1.253   4.782   0.440  0.4422 -0.2678 -0.3118
 2379TIP3    H128696   1.308   4.721   0.391  0.6754 -0.4631  0.1911
 2379TIP3    H228697   1.173   4.733   0.459  0.5710 -0.3707 -0.0326
 2380TIP3   OH228698   0.793   2.380   2.028 -0.1701 -0.4463 -0.0468
 2380TIP3    H128699   0.725   2.365   2.093 -1.0000 -1.7308 -1.1634
 2380TIP3    H228700   0.870   2.333   2.061  0.0884  0.6606  1.0065
 2381TIP3   OH228701   1.159   6.589   2.109  0.8740  0.7016 -0.1054
 2381TIP3    H128702   1.068   6.596   2.136  0.5414 -0.3031 -0.8910
 2381TIP3    H228703   1.176   6.670   2.061 -0.1870  0.0861 -1.5735
 2382TIP3   OH228704   0.417   2.249   8.109  0.1515 -0.2783  0.3016
 2382TIP3    H128705   0.414   2.156   8.086 -0.5596 -0.9212  2.6750
 2382TIP3    H228706   0.332   2.267   8.147  0.1561  1.4715 -0.4381
 2383TIP3   OH228707   1.536   4.445   0.754  0.1514  0.2741 -0.4345
 2383TIP3    H128708   1.528   4.357   0.719  0.8057  0.3159 -0.6820
 2383TIP3    H228709   1.446   4.478   0.755 -0.2813 -0.8571  0.8825
 2384TIP3   OH228710   3.237   0.516   8.475 -0.2539  0.7263 -0.6163
 2384TIP3    H128711   3.199   0.604   8.486  0.8420  1.1440  0.0445
 2384TIP3    H228712   3.174   0.458   8.516  0.1593  1.4907  1.2034
 2385TIP3   OH228713   0.329   2.581   1.882 -0.3675 -0.2286  0.0575
 2385TIP3    H128714   0.355   2.653   1.940  1.9997  0.6995 -1.9953
 2385TIP3    H228715   0.236   2.596   1.865 -0.4643  1.0039  1.4760
 2386TIP3   OH228716   5.412   1.731   2.443 -0.3255  0.4277  0.1794
 2386TIP3    H128717   5.467   1.659   2.471  0.1565 -0.3733 -2.5922
 2386TIP3    H228718   5.324   1.694   2.440 -0.3821  0.5215  0.5636
 2387TIP3   OH228719   4.535   4.411   8.686 -0.3201 -0.0474  0.2548
 2387TIP3    H128720   4.548   4.470   8.613  1.7033 -0.5228  0.1894
 2387TIP3    H228721   4.530   4.468   8.763  3.2605  0.2618  0.4125
 2388TIP3   OH228722   6.740   3.287   8.230  0.0143  0.4334 -0.5779
 2388TIP3    H128723   6.810   3.235   8.190 -1.0100 -0.7181 -0.9446
 2388TIP3    H228724   6.704   3.231   8.298 -0.0690  1.3159  0.1279
 2389TIP3   OH228725   4.657   2.103   2.475  0.1408  0.1220 -0.4081
 2389TIP3    H128726   4.689   2.073   2.560 -0.4307  4.2780  1.5611
 2389TIP3    H228727   4.581   2.048   2.457  0.4270 -1.0526  1.6425
 2390TIP3   OH228728   1.158   0.875   7.383  0.0063 -0.4265  0.0235
 2390TIP3    H128729   1.128   0.959   7.348  1.5271 -0.0492 -0.4800
 2390TIP3    H228730   1.183   0.824   7.306  2.3919  0.0132  0.4149
 2391TIP3   OH228731   0.992   0.124   2.608  0.0101  0.1154  0.5377
 2391TIP3    H128732   0.914   0.162   2.648  1.0696  2.1340  0.7869
 2391TIP3    H228733   1.009   0.045   2.661 -0.3053  1.1265  2.2245
 2392TIP3   OH228734   6.699   6.625   1.486 -0.1691 -0.8340  0.2482
 2392TIP3    H128735   6.717   6.707   1.440  1.9143 -1.8361 -0.8741
 2392TIP3    H228736   6.733   6.640   1.575  1.2646 -0.8209 -0.2761
 2393TIP3   OH228737   2.379   1.829   1.633  0.2567 -0.1295 -0.6679
 2393TIP3    H128738   2.407   1.805   1.544  1.1960  0.5218 -0.5683
 2393TIP3    H228739   2.322   1.757   1.660  1.8971 -1.5790 -0.8843
 2394TIP3   OH228740   0.363   6.183   2.239 -0.0608 -0.0279 -0.0237
 2394TIP3    H128741   0.388   6.272   2.262 -0.5567  0.3572 -0.9570
 2394TIP3    H228742   0.271   6.176   2.264 -0.0784 -0.2205 -0.1351
 2395TIP3   OH228743   1.116   0.755   3.050  0.3370  0.5105 -0.1203
 2395TIP3    H128744   1.146   0.845   3.038  0.0345  0.7087  0.5434
 2395TIP3    H228745   1.190   0.711   3.092  0.2593  0.6113  0.1249
 2396TIP3   OH228746   5.749   2.304   2.129 -0.5490 -0.2967 -0.0253
 2396TIP3    H128747   5.757   2.219   2.085 -2.0607 -1.6304  2.1194
 2396TIP3    H228748   5.834   2.317   2.172  0.0417 -0.1922 -1.1794
 2397TIP3   OH228749   3.374   1.331   7.505 -0.2159 -0.0866  0.2678
 2397TIP3    H128750   3.314   1.393   7.546 -0.6266 -0.7925  0.7453
 2397TIP3    H228751   3.443   1.386   7.467 -1.5052  0.8022 -0.9092
 2398TIP3   OH228752   6.206   2.870   2.372  0.2951  0.6360 -0.3537
 2398TIP3    H128753   6.240   2.806   2.435  1.1475  2.4174  1.1004
 2398TIP3    H228754   6.112   2.874   2.389  0.1669 -0.4357 -0.7069
 2399TIP3   OH228755   0.981   5.013   1.852 -0.3492 -0.2989 -0.2349
 2399TIP3    H128756   0.928   5.076   1.901 -0.6398  0.0942 -1.0277
 2399TIP3    H228757   1.066   5.056   1.843 -0.8857  0.5376 -1.7798
 2400TIP3   OH228758   3.734   0.918   2.621  0.1092  0.0519 -0.3894
 2400TIP3    H128759   3.730   0.937   2.527  1.0311 -0.7281 -0.5972
 2400TIP3    H228760   3.644   0.897   2.644 -0.3277  1.2755 -0.8642
 2401TIP3   OH228761   1.206   0.226   2.385 -0.3899  0.3429 -0.6856
 2401TIP3    H128762   1.252   0.164   2.442 -1.6527  0.0315  0.0243
 2401TIP3    H228763   1.193   0.179   2.303  0.3161  0.3448 -0.8027
 2402TIP3   OH228764   0.553   5.860   1.491  0.0415  0.3773 -0.0769
 2402TIP3    H128765   0.640   5.830   1.463 -0.1797 -0.3339 -0.0067
 2402TIP3    H228766   0.492   5.814   1.434 -0.3008  0.8507 -0.0997
 2403TIP3   OH228767   3.357   4.116   2.943  0.5450  0.4091  0.5831
 2403TIP3    H128768   3.413   4.075   2.877 -0.5773 -0.2596  0.0235
 2403TIP3    H228769   3.276   4.066   2.940 -0.6163  2.2298  0.3737
 2404TIP3   OH228770   5.002   0.220   8.273 -0.1848  0.1485 -0.5149
 2404TIP3    H128771   5.039   0.275   8.203 -0.5405 -0.2013 -0.9834
 2404TIP3    H228772   4.994   0.279   8.348  1.3967  0.2129 -0.3709
 2405TIP3   OH228773   2.747   1.059   2.800 -0.2222  0.0346 -0.6492
 2405TIP3    H128774   2.656   1.031   2.814 -0.3844  1.1740  0.7888
 2405TIP3    H228775   2.799   0.993   2.846 -0.4411  0.4065  0.1528
 2406TIP3   OH228776   5.489   1.420   2.441 -0.2583 -0.2927  0.7255
 2406TIP3    H128777   5.442   1.426   2.358  1.6324 -3.1027 -0.7315
 2406TIP3    H228778   5.575   1.458   2.423  0.1414 -0.8598  1.3831
 2407TIP3   OH228779   0.448   4.559   0.611 -0.2705  0.0508  0.3599
 2407TIP3    H128780   0.379   4.604   0.561  0.0358 -0.1802 -0.2808
 2407TIP3    H228781   0.489   4.629   0.663  1.1636  0.8436 -1.7133
 2408TIP3   OH228782   6.052   2.644   0.615  0.3563 -0.0529  0.0953
 2408TIP3    H128783   6.055   2.617   0.523  0.4806 -0.8568  0.3294
 2408TIP3    H228784   5.960   2.664   0.632  0.4499  0.8559 -0.4117
 2409TIP3   OH228785   2.408   6.314   2.148  0.0315 -0.2254 -0.0342
 2409TIP3    H128786   2.314   6.332   2.152 -0.2449 -1.5956  0.0774
 2409TIP3    H228787   2.449   6.388   2.194 -0.9737  0.4108 -0.1345
 2410TIP3   OH228788   0.250   6.742   7.720  0.1134  0.9373  0.4565
 2410TIP3    H128789   0.214   6.729   7.632  2.4220 -0.4381 -0.3826
 2410TIP3    H228790   0.178   6.779   7.770 -1.3211  1.6972 -1.9784
 2411TIP3   OH228791   3.574   4.851   0.551 -0.3089 -0.0048 -0.1053
 2411TIP3    H128792   3.611   4.774   0.594 -0.5542  0.6989  1.4475
 2411TIP3    H228793   3.515   4.889   0.616 -2.1868  0.0743 -1.7755
 2412TIP3   OH228794   0.418   2.293   0.142 -0.6258  0.2490 -0.5671
 2412TIP3    H128795   0.417   2.198   0.146 -0.8530  0.2447 -0.6862
 2412TIP3    H228796   0.325   2.317   0.133 -0.5199  0.4525 -1.1555
 2413TIP3   OH228797   2.920   2.955   2.907 -0.4970 -0.3597  0.1547
 2413TIP3    H128798   2.944   2.941   2.815 -0.2583 -2.2045  0.4523
 2413TIP3    H228799   2.956   3.041   2.929  0.3882 -0.3628 -1.1729
 2414TIP3   OH228800   1.806   0.133   0.190  0.0891  0.3341  0.4726
 2414TIP3    H128801   1.871   0.074   0.152 -1.7243 -0.1613 -2.0468
 2414TIP3    H228802   1.858   0.196   0.240  2.4135 -0.7094 -0.4858
 2415TIP3   OH228803   0.587   0.249   2.316 -0.7342  0.3090 -0.6384
 2415TIP3    H128804   0.647   0.286   2.380 -1.4373  0.5978 -0.1322
 2415TIP3    H228805   0.593   0.308   2.241  0.2627 -0.1596 -0.9394
 2416TIP3   OH228806   2.286   4.929   7.518 -0.3291  0.7336  0.6208
 2416TIP3    H128807   2.247   4.964   7.598 -2.1725  1.1004 -0.3566
 2416TIP3    H228808   2.219   4.945   7.451  0.9534  0.0075 -0.8925
 2417TIP3   OH228809   5.779   1.886   2.283 -0.4604  0.3185 -0.2609
 2417TIP3    H128810   5.696   1.916   2.245 -2.2355 -1.5063  1.8803
 2417TIP3    H228811   5.824   1.842   2.211 -0.7742  2.2591 -1.7524
 2418TIP3   OH228812   5.710   6.276   8.208  0.6296  0.2286  0.4460
 2418TIP3    H128813   5.674   6.203   8.158  1.3721  1.0565 -1.3905
 2418TIP3    H228814   5.771   6.235   8.270  0.1434 -0.7875  0.2676
 2419TIP3   OH228815   6.532   0.220   0.114 -0.0598  0.1463  0.1190
 2419TIP3    H128816   6.529   0.271   0.033 -1.5999  0.7121  0.5091
 2419TIP3    H228817   6.495   0.277   0.180  0.7207 -0.4943  1.1394
 2420TIP3   OH228818   6.251   2.757   0.750 -0.0660  0.0716 -0.0646
 2420TIP3    H128819   6.309   2.787   0.681  0.4751  0.4911  0.5685
 2420TIP3    H228820   6.177   2.718   0.703 -0.5869  1.9740 -0.8991
 2421TIP3   OH228821   6.655   0.865   0.717 -0.0911 -0.2017  0.0623
 2421TIP3    H128822   6.681   0.843   0.628  1.8975  1.6918  0.0827
 2421TIP3    H228823   6.583   0.927   0.707 -0.6290 -0.8506 -0.1649
 2422TIP3   OH228824   2.651   5.227   1.432  0.2256 -0.5345 -0.4177
 2422TIP3    H128825   2.606   5.226   1.347 -0.4459 -1.1485 -0.0639
 2422TIP3    H228826   2.702   5.146   1.433  0.7604 -0.2013 -0.5087
 2423TIP3   OH228827   3.590   6.781   2.853 -0.3271  0.7468 -0.1049
 2423TIP3    H128828   3.576   6.851   2.917 -0.6072  0.8453 -0.2697
 2423TIP3    H228829   3.609   6.704   2.906 -1.5816  0.5868  0.1447
 2424TIP3   OH228830   4.632   3.679   8.137  0.1920 -0.8203  0.4635
 2424TIP3    H128831   4.554   3.645   8.179 -1.0219 -0.8850 -1.7284
 2424TIP3    H228832   4.643   3.626   8.058  0.3593  1.3935 -1.1193
 2425TIP3   OH228833   1.899   5.013   1.918 -0.1305 -0.1411  0.2671
 2425TIP3    H128834   1.856   5.064   1.987  1.1402  0.7890  0.4156
 2425TIP3    H228835   1.866   5.051   1.836 -1.5507 -1.1680  0.3353
 2426TIP3   OH228836   6.753   3.282   0.908 -0.4039  0.0148  0.0660
 2426TIP3    H128837   6.772   3.219   0.837 -0.5581 -0.8036  0.7323
 2426TIP3    H228838   6.835   3.329   0.921 -0.1156 -0.4372 -0.0761
 2427TIP3   OH228839   6.091   5.787   7.979  0.6925  0.7391  0.5244
 2427TIP3    H128840   6.014   5.734   7.998  1.8150 -0.9798  0.4589
 2427TIP3    H228841   6.142   5.785   8.060  2.3700 -1.1823 -0.5059
 2428TIP3   OH228842   4.930   4.026   8.379  0.2833 -0.2586 -0.5349
 2428TIP3    H128843   4.986   3.981   8.443  0.7622  0.2794 -0.5695
 2428TIP3    H228844   4.857   3.965   8.365 -0.2577 -0.0430  1.1184
 2429TIP3   OH228845   0.277   3.324   0.218  0.0047 -0.3258  0.2311
 2429TIP3    H128846   0.266   3.418   0.229 -0.5483 -0.6474  3.2168
 2429TIP3    H228847   0.191   3.293   0.188  0.0278  0.0157 -0.2106
 2430TIP3   OH228848   1.291   3.132   0.452  0.1047  0.0225 -0.4079
 2430TIP3    H128849   1.313   3.223   0.433  2.0556 -0.6216 -1.5508
 2430TIP3    H228850   1.257   3.098   0.369 -1.5846 -0.0638  0.2838
 2431TIP3   OH228851   2.107   4.231   8.363  0.2012 -0.0256  0.0056
 2431TIP3    H128852   2.038   4.298   8.370  0.1289 -0.2045  1.1793
 2431TIP3    H228853   2.060   4.151   8.341  0.2320  0.1913 -0.8896
 2432TIP3   OH228854   6.452   3.663   7.268 -0.6816 -0.0131 -0.4906
 2432TIP3    H128855   6.486   3.574   7.281  0.0912  0.2644 -0.5583
 2432TIP3    H228856   6.378   3.670   7.329 -1.7193 -1.2126 -1.5382
 2433TIP3   OH228857   6.455   5.869   8.660  0.0686 -0.1137  0.0081
 2433TIP3    H128858   6.517   5.822   8.715  0.0572 -0.5045 -0.3120
 2433TIP3    H228859   6.440   5.952   8.706 -0.4591 -0.7196  0.9400
 2434TIP3   OH228860   4.791   2.209   7.912 -0.1457  0.0108 -0.5489
 2434TIP3    H128861   4.838   2.172   7.838  1.3519 -2.4715  1.4596
 2434TIP3    H228862   4.837   2.291   7.931  0.9506 -0.4911 -0.9579
 2435TIP3   OH228863   2.372   3.828   2.583 -0.3955 -0.3300  0.4307
 2435TIP3    H128864   2.318   3.806   2.507 -0.7265 -0.2464  0.6376
 2435TIP3    H228865   2.459   3.795   2.562 -0.5868 -0.6918  0.1973
 2436TIP3   OH228866   5.079   1.355   2.612 -0.3944  0.1644  0.3391
 2436TIP3    H128867   5.063   1.379   2.521  0.1087  0.5004  0.3340
 2436TIP3    H228868   5.148   1.289   2.607  0.3692  0.9315  0.5315
 2437TIP3   OH228869   4.086   2.574   8.307 -0.2401  0.8402  0.2504
 2437TIP3    H128870   4.027   2.528   8.367 -1.0033  1.9462  0.3806
 2437TIP3    H228871   4.159   2.514   8.294 -1.7106 -0.9093 -0.4731
 2438TIP3   OH228872   1.805   4.030   3.092 -0.4454  0.2614 -0.0611
 2438TIP3    H128873   1.895   3.999   3.103 -0.0338  0.8973 -1.4669
 2438TIP3    H228874   1.755   3.982   3.158  1.0125  0.3097  1.1400
 2439TIP3   OH228875   4.325   0.869   0.281  0.1541 -0.4436  0.0140
 2439TIP3    H128876   4.286   0.923   0.350 -0.5949 -0.5322 -0.3250
 2439TIP3    H228877   4.261   0.799   0.268 -0.2047  0.1459 -1.4926
 2440TIP3   OH228878   0.902   3.017   0.945  0.7512  0.1057 -0.5445
 2440TIP3    H128879   0.807   3.009   0.938  0.8192 -1.9559  0.3520
 2440TIP3    H228880   0.933   3.016   0.854 -0.0165  0.0287 -0.8084
 2441TIP3   OH228881   0.823   4.336   0.401  0.2524 -0.3561 -0.1054
 2441TIP3    H128882   0.810   4.390   0.479  0.6675 -2.9323  1.8759
 2441TIP3    H228883   0.749   4.275   0.402 -0.3719  0.2552 -2.4486
 2442TIP3   OH228884   5.902   4.695   2.609  0.0050 -0.2491 -0.3205
 2442TIP3    H128885   5.994   4.720   2.618  0.0963 -0.8519  0.5185
 2442TIP3    H228886   5.890   4.684   2.515  0.4940  0.9066 -0.5403
 2443TIP3   OH228887   2.493   0.670   0.283 -0.1377  0.0810 -0.1598
 2443TIP3    H128888   2.469   0.584   0.247  0.7500 -0.3130  0.1550
 2443TIP3    H228889   2.418   0.696   0.336  0.3809 -1.4625  1.4251
 2444TIP3   OH228890   1.969   4.300   1.616 -0.1110 -0.3141 -0.2397
 2444TIP3    H128891   2.045   4.330   1.566  1.0807 -2.6928 -0.0285
 2444TIP3    H228892   1.918   4.248   1.553 -1.1583  0.6040 -0.1724
 2445TIP3   OH228893   5.096   3.257   8.397  0.0828  0.0182 -0.1480
 2445TIP3    H128894   5.134   3.172   8.420  1.4810  0.7466  0.3232
 2445TIP3    H228895   5.147   3.286   8.321  1.1570  1.4432  1.0733
 2446TIP3   OH228896   4.347   1.716   0.443 -0.8213 -0.0749  0.5892
 2446TIP3    H128897   4.418   1.757   0.493 -0.1531  0.0615 -0.4409
 2446TIP3    H228898   4.363   1.622   0.450  0.6279 -0.0156 -1.2238
 2447TIP3   OH228899   0.627   5.007   8.633 -0.4213 -0.0985 -0.0345
 2447TIP3    H128900   0.698   4.946   8.654 -0.3843  0.4314  1.4815
 2447TIP3    H228901   0.635   5.020   8.538  0.5594 -1.2059 -0.1335
 2448TIP3   OH228902   4.028   5.598   0.766  0.1539 -0.2699 -0.5048
 2448TIP3    H128903   4.029   5.513   0.811 -0.2207 -1.4730 -2.6169
 2448TIP3    H228904   3.935   5.620   0.757  0.2274 -0.0023 -0.6170
 2449TIP3   OH228905   6.402   2.697   1.828 -0.1220 -0.1213 -0.0879
 2449TIP3    H128906   6.360   2.647   1.898  0.8932 -1.0511 -0.1131
 2449TIP3    H228907   6.476   2.741   1.872  1.7268 -2.2584 -0.8670
 2450TIP3   OH228908   6.556   0.397   0.726 -0.0012  0.4478  0.0593
 2450TIP3    H128909   6.509   0.334   0.671  1.6662 -0.6335 -0.1986
 2450TIP3    H228910   6.539   0.367   0.816 -0.8279  0.8258  0.0335
 2451TIP3   OH228911   4.859   2.210   2.297  0.0309  0.1211  0.4514
 2451TIP3    H128912   4.922   2.243   2.362  1.3268  0.4826 -0.9266
 2451TIP3    H228913   4.784   2.182   2.349  0.7055  1.0942  2.0435
 2452TIP3   OH228914   4.841   6.142   1.951  0.0314 -0.2469  0.0381
 2452TIP3    H128915   4.818   6.214   1.891  2.1247 -0.5172 -1.2030
 2452TIP3    H228916   4.827   6.178   2.038 -1.2542  0.8414 -0.5883
 2453TIP3   OH228917   3.617   6.021   1.082  0.0791 -0.1077  0.4413
 2453TIP3    H128918   3.696   6.008   1.030 -0.4534 -0.2291 -0.3721
 2453TIP3    H228919   3.545   6.008   1.019 -0.6160 -1.3377  1.4436
 2454TIP3   OH228920   3.774   0.706   2.431 -0.0017 -0.2096 -0.1938
 2454TIP3    H128921   3.774   0.714   2.526 -0.2349 -0.3619 -0.1792
 2454TIP3    H228922   3.842   0.642   2.412 -1.2041 -1.6041  0.0051
 2455TIP3   OH228923   4.048   4.171   0.436 -0.1486 -0.2254  0.1756
 2455TIP3    H128924   4.116   4.178   0.504 -0.1154  0.6969  0.0595
 2455TIP3    H228925   3.967   4.157   0.485  0.0518 -0.8162  0.3420
 2456TIP3   OH228926   5.832   6.537   8.158 -0.1625 -0.0752 -0.6004
 2456TIP3    H128927   5.782   6.455   8.154  1.5825 -1.2241 -0.1710
 2456TIP3    H228928   5.769   6.603   8.187 -1.4039 -1.4667 -0.0366
 2457TIP3   OH228929   0.357   1.471   0.185 -0.2780 -0.5585 -0.2390
 2457TIP3    H128930   0.269   1.507   0.194 -0.2863 -0.6817  0.1837
 2457TIP3    H228931   0.414   1.548   0.177 -0.4379 -0.4822 -0.6611
 2458TIP3   OH228932   0.645   1.175   1.849  0.3002 -0.0016 -0.1572
 2458TIP3    H128933   0.623   1.082   1.847 -1.9484  0.4736 -0.2372
 2458TIP3    H228934   0.656   1.198   1.757  0.4485 -0.1077 -0.1661
 2459TIP3   OH228935   2.524   2.640   1.737 -0.6210 -0.0289  0.3384
 2459TIP3    H128936   2.610   2.652   1.696  0.1747  0.7758  2.1239
 2459TIP3    H228937   2.528   2.553   1.777 -0.8747 -0.2375 -0.0818
 2460TIP3   OH228938   3.391   5.759   0.708 -0.2033 -0.3804  0.2702
 2460TIP3    H128939   3.305   5.779   0.746 -0.4859 -1.5190  0.2627
 2460TIP3    H228940   3.371   5.708   0.630  0.4467  0.4242 -0.4302
 2461TIP3   OH228941   2.204   5.273   2.479 -0.6306  0.5008 -0.8377
 2461TIP3    H128942   2.236   5.233   2.559 -2.5847 -0.1052 -0.3078
 2461TIP3    H228943   2.279   5.320   2.444 -0.2873  2.7706  2.5512
 2462TIP3   OH228944   5.778   0.122   2.092 -0.2281 -0.7123 -1.0286
 2462TIP3    H128945   5.845   0.157   2.151  0.5148 -0.4918 -1.9681
 2462TIP3    H228946   5.785   0.027   2.102 -2.8397 -0.7160  2.1756
 2463TIP3   OH228947   1.487   0.642   8.548 -0.3913  0.0772  0.3299
 2463TIP3    H128948   1.561   0.582   8.545 -1.4441 -1.4251  1.9225
 2463TIP3    H228949   1.512   0.708   8.613  0.1162  0.4182 -0.2073
 2464TIP3   OH228950   3.735   0.779   3.133  1.0840  0.9379  0.0751
 2464TIP3    H128951   3.721   0.869   3.106 -1.5336  0.7291  0.4527
 2464TIP3    H228952   3.702   0.775   3.223 -2.0450 -1.0124 -0.9914
 2465TIP3   OH228953   5.374   6.413   1.782 -0.2198 -0.4521  0.1472
 2465TIP3    H128954   5.332   6.394   1.866 -1.8384 -0.0622 -0.5392
 2465TIP3    H228955   5.405   6.327   1.751  1.2897 -0.4584  1.5669
 2466TIP3   OH228956   0.038   3.088   7.636  0.2984 -0.1883  0.2466
 2466TIP3    H128957  -0.043   3.058   7.594  1.7517  1.0074 -3.8192
 2466TIP3    H228958   0.008   3.144   7.708 -2.4816 -0.1114 -0.8338
 2467TIP3   OH228959   4.687   5.950   0.552  0.2341  0.9126  0.3075
 2467TIP3    H128960   4.764   5.908   0.590  1.0068  2.8006  0.9121
 2467TIP3    H228961   4.629   5.965   0.627  0.0185  1.0669  0.1108
 2468TIP3   OH228962   1.062   4.023   0.737  0.2679  0.3533 -0.3492
 2468TIP3    H128963   1.143   3.974   0.730 -0.0434 -0.8202  2.7027
 2468TIP3    H228964   0.998   3.971   0.688  0.8252 -0.0220 -0.6947
 2469TIP3   OH228965   4.858   2.001   0.299  0.4404 -0.3559  0.5554
 2469TIP3    H128966   4.859   2.043   0.385 -1.5213 -0.5095  0.6863
 2469TIP3    H228967   4.892   1.913   0.315  1.2358  0.0145  0.9317
 2470TIP3   OH228968   6.123   1.391   8.551 -0.2319 -0.4780  0.2504
 2470TIP3    H128969   6.054   1.446   8.590 -0.8592 -1.3951  0.4804
 2470TIP3    H228970   6.076   1.335   8.488  0.8154  1.2654 -2.2193
 2471TIP3   OH228971   2.593   0.661   2.705 -0.0108  0.4121 -0.1600
 2471TIP3    H128972   2.676   0.644   2.751 -0.1889 -0.0051  0.0124
 2471TIP3    H228973   2.526   0.621   2.761 -0.4001  1.3022  0.0196
 2472TIP3   OH228974   1.845   4.841   8.502  0.0394  0.8726 -0.0655
 2472TIP3    H128975   1.835   4.752   8.533 -1.0372  1.0165  0.0063
 2472TIP3    H228976   1.757   4.870   8.479  0.5172  1.5240 -1.1815
 2473TIP3   OH228977   5.001   6.647   2.369  0.2527  0.4929  0.1637
 2473TIP3    H128978   5.080   6.621   2.322  0.5608  0.3363  0.7653
 2473TIP3    H228979   5.027   6.649   2.461 -0.4572  0.3958  0.3717
 2474TIP3   OH228980   0.658   3.539   8.551  0.1730 -0.6391  0.2233
 2474TIP3    H128981   0.734   3.558   8.497  0.1687 -2.3980 -0.4863
 2474TIP3    H228982   0.584   3.545   8.490 -0.1213 -0.1231  0.6286
 2475TIP3   OH228983   6.780   6.775   1.019 -0.3202 -0.3729 -0.5544
 2475TIP3    H128984   6.835   6.737   0.951  0.6045  0.2866 -0.1974
 2475TIP3    H228985   6.747   6.856   0.981 -0.3578 -0.3442 -0.4613
 2476TIP3   OH228986   0.313   3.594   7.592 -0.4178  0.1026  0.3332
 2476TIP3    H128987   0.279   3.683   7.594  1.3076  0.8746 -1.1115
 2476TIP3    H228988   0.408   3.605   7.593 -0.1636 -1.7839  1.1067
 2477TIP3   OH228989   1.057   2.282   2.167  0.2114  0.2131  0.1200
 2477TIP3    H128990   1.002   2.283   2.246  1.2094  1.0317  0.8356
 2477TIP3    H228991   1.115   2.357   2.178 -0.4576  1.1218 -2.0184
 2478TIP3   OH228992   2.008   3.548   8.467  0.0101  0.9852 -0.7412
 2478TIP3    H128993   2.103   3.536   8.473  0.0650  1.5259 -0.4498
 2478TIP3    H228994   1.996   3.643   8.463 -0.5400  0.9356 -0.3999
 2479TIP3   OH228995   6.395   5.636   1.909  0.1131 -0.2614  0.4080
 2479TIP3    H128996   6.385   5.543   1.888  1.4526 -0.0694 -1.2490
 2479TIP3    H228997   6.333   5.651   1.980 -0.5495 -2.2835  0.3154
 2480TIP3   OH228998   3.773   3.028   1.265 -0.9576 -0.4624  0.1665
 2480TIP3    H128999   3.689   2.983   1.275 -0.8931 -0.4885  0.6179
 2480TIP3    H229000   3.789   3.069   1.350 -0.4633 -0.5480  0.1195
 2481TIP3   OH229001   4.837   0.589   8.443  0.7544 -0.4367  0.3361
 2481TIP3    H129002   4.759   0.608   8.495  0.8837 -0.2158  0.4508
 2481TIP3    H229003   4.807   0.526   8.377  0.5807 -0.6946  0.6580
 2482TIP3   OH229004   3.429   1.862   2.943  0.1105  0.4491  0.2955
 2482TIP3    H129005   3.476   1.837   3.023 -2.0957 -0.1007  1.4994
 2482TIP3    H229006   3.398   1.951   2.960 -0.0352  0.4848 -0.1323
 2483TIP3   OH229007   4.978   3.786   0.112 -0.0418 -0.6913  0.0201
 2483TIP3    H129008   4.992   3.878   0.132  0.7341 -1.1771  1.9708
 2483TIP3    H229009   5.043   3.740   0.165 -1.9940 -2.4796  1.0347
 2484TIP3   OH229010   0.908   0.454   0.753 -0.6319  0.0526  0.6843
 2484TIP3    H129011   0.972   0.510   0.708  0.6177 -0.0256  2.2690
 2484TIP3    H229012   0.823   0.495   0.734  0.0357  1.1338 -0.0970
 2485TIP3   OH229013   4.638   1.143   1.815 -0.4396  0.3385  0.5965
 2485TIP3    H129014   4.716   1.112   1.862 -0.1341 -1.3109 -0.8468
 2485TIP3    H229015   4.673   1.189   1.739 -0.8190 -0.8644 -0.3414
 2486TIP3   OH229016   1.342   5.177   8.641 -0.1409  0.1956 -0.0265
 2486TIP3    H129017   1.350   5.221   8.557  3.0368  0.3778  0.2491
 2486TIP3    H229018   1.432   5.161   8.669 -1.0631 -0.1796  3.1980
 2487TIP3   OH229019   5.733   6.314   8.626 -0.1669  0.5399  0.1791
 2487TIP3    H129020   5.687   6.300   8.544 -0.2962  0.1641  0.3095
 2487TIP3    H229021   5.776   6.399   8.617  0.1904  0.2998 -0.4534
 2488TIP3   OH229022   1.677   2.003   0.700  0.4379 -0.6355 -0.0345
 2488TIP3    H129023   1.749   1.983   0.640  0.0860 -0.6609 -0.4537
 2488TIP3    H229024   1.652   1.918   0.736 -0.4792 -0.8496 -1.1526
 2489TIP3   OH229025   1.142   5.671   8.042  0.1949  0.1817 -0.0067
 2489TIP3    H129026   1.208   5.604   8.058  0.5237  0.5547  0.2090
 2489TIP3    H229027   1.191   5.753   8.036 -0.3402  0.6328  1.3410
 2490TIP3   OH229028   2.312   2.410   1.333 -0.0189 -0.5642 -0.3605
 2490TIP3    H129029   2.304   2.482   1.396 -2.8500 -0.0760 -1.1533
 2490TIP3    H229030   2.377   2.351   1.372 -0.6583  0.3906  2.3597
 2491TIP3   OH229031   2.319   6.491   1.483 -0.6390 -0.0285 -0.0996
 2491TIP3    H129032   2.407   6.527   1.482 -1.4004  2.1106  1.6460
 2491TIP3    H229033   2.329   6.402   1.517  0.6655  0.8369  1.9394
 2492TIP3   OH229034   2.610   3.049   1.567 -0.6449 -0.0730 -0.2830
 2492TIP3    H129035   2.651   3.080   1.647 -0.6366 -0.1249 -0.2669
 2492TIP3    H229036   2.675   2.992   1.527 -1.3611 -1.6295  0.6636
 2493TIP3   OH229037   1.285   2.660   0.380  0.2718 -0.7024 -0.6800
 2493TIP3    H129038   1.307   2.724   0.447  0.4012 -0.7068 -0.7191
 2493TIP3    H229039   1.212   2.610   0.417 -0.2427 -0.1305 -0.8926
 2494TIP3   OH229040   5.045   6.189   0.893 -0.3784  0.6363 -0.0295
 2494TIP3    H129041   5.034   6.237   0.975  1.0985  0.9019  0.0457
 2494TIP3    H229042   5.046   6.097   0.919 -1.6589  0.6121  0.0126
 2495TIP3   OH229043   3.730   4.489   8.337  0.2731  0.9646 -0.2692
 2495TIP3    H129044   3.702   4.474   8.427  1.2191 -3.2602 -0.4843
 2495TIP3    H229045   3.654   4.530   8.295 -1.6948 -0.5912  1.5563
 2496TIP3   OH229046   5.769   5.397   1.263  0.0877 -0.6107  0.1970
 2496TIP3    H129047   5.739   5.350   1.185  0.9232 -2.8783  1.1514
 2496TIP3    H229048   5.863   5.379   1.266  0.5000  1.3778  0.5061
 2497TIP3   OH229049   2.201   5.122   8.138  0.1282  0.1892  0.1084
 2497TIP3    H129050   2.263   5.193   8.155  2.0321 -1.5144  0.7779
 2497TIP3    H229051   2.212   5.063   8.212 -0.9554 -1.0947 -0.7115
 2498TIP3   OH229052   2.560   4.046   3.280 -0.1550 -0.1181 -0.1994
 2498TIP3    H129053   2.580   4.026   3.371 -2.7043 -0.0672  0.4768
 2498TIP3    H229054   2.586   3.969   3.231  1.6196  0.0087  0.4905
 2499TIP3   OH229055   4.283   1.181   1.281 -0.5234  0.5302  0.0552
 2499TIP3    H129056   4.319   1.255   1.231 -0.2615 -0.5398 -1.4016
 2499TIP3    H229057   4.202   1.215   1.319  0.1955  1.9157  0.4160
 2500TIP3   OH229058   6.298   5.505   0.033  0.1403 -0.2635  0.0250
 2500TIP3    H129059   6.381   5.481  -0.007 -0.6444 -3.2655 -0.0449
 2500TIP3    H229060   6.284   5.439   0.101 -2.1423  0.1919  0.0821
 2501TIP3   OH229061   0.924   2.392   8.662 -0.0357 -0.3047  0.1100
 2501TIP3    H129062   0.859   2.354   8.602  0.6929 -1.8177  0.2248
 2501TIP3    H229063   0.990   2.323   8.672  0.7722  0.5994  1.2506
 2502TIP3   OH229064   2.936   3.604   7.544 -0.0687 -0.7074 -0.2791
 2502TIP3    H129065   2.850   3.564   7.530  0.6471 -3.0726  1.4129
 2502TIP3    H229066   2.923   3.665   7.616 -0.1215 -2.0446  0.8837
 2503TIP3   OH229067   2.499   0.231   8.273  0.2850 -0.0356 -0.0342
 2503TIP3    H129068   2.479   0.160   8.334 -1.0005  0.3003 -0.0514
 2503TIP3    H229069   2.509   0.187   8.188  1.2928 -0.4029  0.2607
 2504TIP3   OH229070   1.021   5.477   7.379  0.1810 -0.0179 -0.6139
 2504TIP3    H129071   1.062   5.499   7.462  0.0744  0.4945 -0.6905
 2504TIP3    H229072   0.987   5.561   7.346  1.2506 -0.0061 -1.7416
 2505TIP3   OH229073   6.126   2.385   8.416 -0.9295 -0.4555 -0.4764
 2505TIP3    H129074   6.137   2.298   8.455 -0.0289 -0.3599 -0.4817
 2505TIP3    H229075   6.177   2.381   8.335 -0.9313  0.0609 -0.5013
 2506TIP3   OH229076   3.659   3.158   8.622  0.5334 -0.5128  0.5506
 2506TIP3    H129077   3.630   3.088   8.564  1.0730  0.4310 -0.9037
 2506TIP3    H229078   3.581   3.210   8.638  0.7030  0.2021 -0.7733
 2507TIP3   OH229079   3.692   1.058   3.071  0.2862 -0.6572  0.0836
 2507TIP3    H129080   3.685   1.117   3.146  1.1362 -0.3188 -0.0853
 2507TIP3    H229081   3.602   1.030   3.053  0.1969 -1.6752  1.9587
 2508TIP3   OH229082   3.148   2.881   8.581 -0.1249 -0.1334 -0.8321
 2508TIP3    H129083   3.159   2.941   8.508 -1.5225  0.5428 -0.5225
 2508TIP3    H229084   3.083   2.818   8.551  0.0480 -0.4581 -0.5380
 2509TIP3   OH229085   3.876   2.279   3.270 -0.0241  0.0641 -0.1113
 2509TIP3    H129086   3.799   2.263   3.217 -0.2480 -0.1656  0.2752
 2509TIP3    H229087   3.947   2.234   3.225 -0.4476 -1.1888  0.4239
 2510TIP3   OH229088   0.542   0.242   0.377 -0.8530 -0.8759 -0.1683
 2510TIP3    H129089   0.544   0.235   0.472 -2.9463 -1.4603 -0.1108
 2510TIP3    H229090   0.454   0.213   0.353 -1.7704  2.8111 -1.9768
 2511TIP3   OH229091   2.176   1.225   0.189 -0.1276  0.2139 -0.3464
 2511TIP3    H129092   2.116   1.151   0.199  0.9588 -0.4582  1.7942
 2511TIP3    H229093   2.125   1.290   0.141 -1.6641 -1.2968 -0.8750
 2512TIP3   OH229094   5.318   5.299   1.457 -0.3934 -0.5546  0.0387
 2512TIP3    H129095   5.239   5.339   1.421  0.1175  1.1473  0.6967
 2512TIP3    H229096   5.294   5.274   1.546 -0.4217 -0.8201 -0.0413
 2513TIP3   OH229097   3.520   5.338   0.578 -0.5689  0.2390 -0.1592
 2513TIP3    H129098   3.496   5.423   0.540 -1.6274  0.1767  0.3190
 2513TIP3    H229099   3.463   5.330   0.654  1.1736  0.1470  1.1829
 2514TIP3   OH229100   2.716   1.209   1.256  0.0247  0.0251 -0.3002
 2514TIP3    H129101   2.656   1.284   1.251 -0.8672 -0.6213  0.2161
 2514TIP3    H229102   2.760   1.208   1.172  1.2965  2.1130  0.2669
 2515TIP3   OH229103   4.239   5.914   1.816 -0.3782  0.3115  0.5031
 2515TIP3    H129104   4.144   5.918   1.817 -0.6206 -2.7660 -0.2255
 2515TIP3    H229105   4.264   5.899   1.907 -0.6908 -0.0166  0.5375
 2516TIP3   OH229106   5.873   3.116   0.111  0.4584 -0.3523 -0.1246
 2516TIP3    H129107   5.795   3.136   0.162  0.1716  1.0967 -1.0632
 2516TIP3    H229108   5.922   3.053   0.164 -0.1255  0.6251  1.6365
 2517TIP3   OH229109   1.859   3.640   2.292  0.0206  0.5366  0.1106
 2517TIP3    H129110   1.863   3.665   2.384 -1.6282  1.1031  0.0618
 2517TIP3    H229111   1.804   3.706   2.251  0.9100  0.4264 -1.3539
 2518TIP3   OH229112   5.861   2.331   7.691 -0.2832  0.1642  0.1054
 2518TIP3    H129113   5.795   2.393   7.723 -0.0979  0.7460 -0.6177
 2518TIP3    H229114   5.864   2.263   7.758 -0.5114  0.9255  0.9179
 2519TIP3   OH229115   3.472   4.433   7.383 -0.3206 -0.0401  0.3906
 2519TIP3    H129116   3.530   4.366   7.420 -0.2666 -0.4821 -0.4832
 2519TIP3    H229117   3.389   4.420   7.429 -0.2831 -0.6496  0.2929
 2520TIP3   OH229118   0.916   3.911   1.685 -0.8753 -0.0926 -0.0862
 2520TIP3    H129119   0.985   3.971   1.658  1.5181 -2.1960  0.9566
 2520TIP3    H229120   0.869   3.890   1.604  1.8438 -1.1037 -1.4994
 2521TIP3   OH229121   0.740   5.161   2.317  0.1096  0.2060  0.3033
 2521TIP3    H129122   0.786   5.076   2.317 -0.0210  0.1323  0.9111
 2521TIP3    H229123   0.797   5.219   2.368  0.4279  0.6185 -0.5027
 2522TIP3   OH229124   4.651   1.438   0.738 -0.7536  0.0661 -0.4035
 2522TIP3    H129125   4.658   1.479   0.824  0.2324  2.2102 -1.4340
 2522TIP3    H229126   4.737   1.399   0.723 -0.4620  0.8979 -0.9606
 2523TIP3   OH229127   6.617   4.980   7.726  0.0621  0.0288  0.1540
 2523TIP3    H129128   6.608   4.886   7.744 -2.5825 -0.3782 -2.5857
 2523TIP3    H229129   6.670   4.985   7.647 -0.8507  0.7314 -0.4325
 2524TIP3   OH229130   5.558   6.545   8.418 -0.3879  0.9663  0.1215
 2524TIP3    H129131   5.597   6.583   8.339  0.6018 -1.2111 -0.5109
 2524TIP3    H229132   5.468   6.525   8.392  0.1590 -0.4858 -0.7899
 2525TIP3   OH229133   5.237   0.402   7.678 -0.5630 -0.1742 -0.4179
 2525TIP3    H129134   5.162   0.397   7.618 -1.5894  0.7556  0.7395
 2525TIP3    H229135   5.200   0.381   7.764 -0.3128  3.6988  0.8019
 2526TIP3   OH229136   6.426   0.133   8.291  0.0990 -0.0541 -0.3693
 2526TIP3    H129137   6.463   0.068   8.231  0.2326 -0.4830  0.1691
 2526TIP3    H229138   6.483   0.209   8.282  0.5010 -0.3448 -0.3206
 2527TIP3   OH229139   5.673   3.219   3.102  0.2975  0.0964  0.0712
 2527TIP3    H129140   5.724   3.144   3.071 -0.0018 -0.4872  0.9430
 2527TIP3    H229141   5.721   3.295   3.070  2.2694 -0.3943  1.6127
 2528TIP3   OH229142   2.867   5.163   8.628 -0.0262 -0.2043 -0.4690
 2528TIP3    H129143   2.907   5.110   8.697  1.9872  0.4077 -1.0974
 2528TIP3    H229144   2.774   5.167   8.652 -0.0661 -3.0468  0.1691
 2529TIP3   OH229145   2.617   4.444   1.003  0.3206 -0.0775  0.2253
 2529TIP3    H129146   2.683   4.489   1.056  0.2160  2.2280 -1.4132
 2529TIP3    H229147   2.667   4.397   0.937  0.3848 -0.3282  0.4539
 2530TIP3   OH229148   0.865   1.877   0.711  0.2143 -0.2286 -0.1607
 2530TIP3    H129149   0.831   1.852   0.625  0.4829  0.0059 -0.3354
 2530TIP3    H229150   0.933   1.941   0.693  2.0336 -1.9913  0.0421
 2531TIP3   OH229151   6.658   4.510   8.409 -0.2035  0.0608  0.5908
 2531TIP3    H129152   6.589   4.449   8.437  0.4295 -0.0758  1.9559
 2531TIP3    H229153   6.719   4.455   8.360  1.2302 -0.8884  3.2055
 2532TIP3   OH229154   4.911   2.741   3.453  0.0458 -0.0269  0.3254
 2532TIP3    H129155   4.973   2.746   3.526  1.3905 -1.5177 -0.6474
 2532TIP3    H229156   4.906   2.648   3.432 -2.3567  0.0747  0.1798
 2533TIP3   OH229157   3.764   1.368   3.068 -0.0788 -0.0990 -0.0405
 2533TIP3    H129158   3.699   1.405   3.127  0.1776  0.8795 -0.3502
 2533TIP3    H229159   3.823   1.319   3.125 -1.3106 -1.3875  0.2016
 2534TIP3   OH229160   6.448   2.380   1.400 -0.3879 -0.9872 -0.0933
 2534TIP3    H129161   6.424   2.430   1.478  0.1291 -2.1815  0.8722
 2534TIP3    H229162   6.425   2.289   1.422  0.7083 -1.4888 -0.9051
 2535TIP3   OH229163   2.171   2.643   0.987  0.1601  0.4738 -0.0553
 2535TIP3    H129164   2.218   2.561   1.002 -0.6350 -0.4653 -2.2255
 2535TIP3    H229165   2.136   2.667   1.073  0.6666 -1.2937  0.6914
 2536TIP3   OH229166   5.157   0.205   7.882 -0.1715 -0.4855 -0.7051
 2536TIP3    H129167   5.215   0.141   7.841  0.6662 -0.3989  0.3027
 2536TIP3    H229168   5.072   0.161   7.888  0.4361 -1.5690  0.1187
 2537TIP3   OH229169   2.512   0.509   8.571  0.2266  0.4267 -0.2455
 2537TIP3    H129170   2.584   0.566   8.597  0.4078  0.3374 -0.5518
 2537TIP3    H229171   2.471   0.484   8.654  1.9075 -1.3124  0.1404
 2538TIP3   OH229172   4.426   3.874   0.378  0.2755  0.3649 -0.0058
 2538TIP3    H129173   4.504   3.897   0.327  0.1249 -0.3241 -0.5554
 2538TIP3    H229174   4.434   3.926   0.458  0.7609  1.0932 -0.5146
 2539TIP3   OH229175   3.326   0.620   8.241 -0.4859  0.0013 -0.5067
 2539TIP3    H129176   3.280   0.569   8.174  0.8813 -0.8078 -0.8832
 2539TIP3    H229177   3.318   0.568   8.321  1.9430 -1.5522 -1.1542
 2540TIP3   OH229178   0.034   6.446   0.405  0.4669  0.4087 -0.3504
 2540TIP3    H129179  -0.001   6.485   0.325 -1.2267  0.5346  0.4038
 2540TIP3    H229180   0.107   6.391   0.376 -0.2598  0.2796 -2.0056
 2541TIP3   OH229181   0.260   1.719   6.888 -0.4237  0.2299 -0.4691
 2541TIP3    H129182   0.242   1.658   6.960 -1.1685  0.0446 -0.8063
 2541TIP3    H229183   0.353   1.708   6.870  0.2077  1.4920  1.5797
 2542TIP3   OH229184   3.362   6.565   0.350 -0.3811 -0.1001 -0.0522
 2542TIP3    H129185   3.446   6.571   0.304  0.2488 -1.1749  0.9055
 2542TIP3    H229186   3.297   6.557   0.280  0.3092  0.5988 -0.8013
 2543TIP3   OH229187   2.371   1.243   8.182  0.2796  0.6868  0.4715
 2543TIP3    H129188   2.301   1.177   8.185 -0.2552  1.1665 -0.8433
 2543TIP3    H229189   2.337   1.316   8.234  1.0385 -0.1688  2.2783
 2544TIP3   OH229190   4.230   2.359   0.164 -0.5661 -0.0995  0.6644
 2544TIP3    H129191   4.183   2.355   0.247 -0.5701  0.4519  0.6953
 2544TIP3    H229192   4.316   2.395   0.188 -0.3361 -0.5635  0.5271
 2545TIP3   OH229193   0.577   3.626   7.697  0.5987  0.5308 -0.0985
 2545TIP3    H129194   0.573   3.539   7.737  3.6857  0.2138 -0.1856
 2545TIP3    H229195   0.531   3.683   7.758 -0.7501 -1.0085  0.3869
 2546TIP3   OH229196   1.559   0.074   7.882 -0.0500 -0.0751  0.0319
 2546TIP3    H129197   1.531   0.075   7.791 -0.6890  0.1867  0.2243
 2546TIP3    H229198   1.478   0.069   7.932  0.0704  2.6132  0.6605
 2547TIP3   OH229199   4.594   0.408   0.915 -0.0306  0.5619  0.2360
 2547TIP3    H129200   4.524   0.446   0.863 -1.2498 -0.6568  0.9451
 2547TIP3    H229201   4.669   0.467   0.901 -1.3808  2.3179  0.0640
 2548TIP3   OH229202   0.125   3.095   1.031 -0.0266  0.6076  0.6157
 2548TIP3    H129203   0.118   3.086   0.936  3.0889  0.4020  0.3016
 2548TIP3    H229204   0.186   3.168   1.044  2.9195 -1.9155  2.2548
 2549TIP3   OH229205   0.452   5.031   1.368 -0.1900 -0.0824 -0.1388
 2549TIP3    H129206   0.530   5.059   1.415 -0.5263  0.9799 -0.1951
 2549TIP3    H229207   0.398   4.988   1.434 -1.0314  2.1149  0.6991
 2550TIP3   OH229208   5.399   2.728   1.023 -0.4339  0.1259  0.2182
 2550TIP3    H129209   5.450   2.675   1.085 -1.5576 -1.1098  0.1497
 2550TIP3    H229210   5.345   2.784   1.079 -2.2138 -1.7132  0.4982
 2551TIP3   OH229211   4.718   2.219   3.705  0.2484  0.0745  0.4576
 2551TIP3    H129212   4.805   2.184   3.724  1.0604  1.6830 -0.1896
 2551TIP3    H229213   4.719   2.308   3.739 -0.5881  0.6673 -0.9600
 2552TIP3   OH229214   5.431   0.746   1.074 -0.3646  0.0268 -0.3287
 2552TIP3    H129215   5.503   0.735   1.012  1.7414 -0.9229  2.1208
 2552TIP3    H229216   5.364   0.684   1.044  0.9432 -1.0230 -1.1935
 2553TIP3   OH229217   5.227   1.692   8.261 -0.2241 -0.2069 -0.0758
 2553TIP3    H129218   5.258   1.774   8.224 -2.2423  0.6111 -0.1224
 2553TIP3    H229219   5.306   1.642   8.280  1.0642  1.7093 -0.1198
 2554TIP3   OH229220   2.824   3.514   2.391 -0.5411 -0.1471  0.0312
 2554TIP3    H129221   2.806   3.427   2.355 -2.3218  0.1840  0.0243
 2554TIP3    H229222   2.919   3.524   2.384 -0.4773 -1.4247 -1.4673
 2555TIP3   OH229223   2.233   0.490   3.609 -0.2959 -0.1642  0.2443
 2555TIP3    H129224   2.314   0.464   3.565  0.5766  0.4127  1.4436
 2555TIP3    H229225   2.192   0.407   3.636 -1.1097 -0.5593 -1.9974
 2556TIP3   OH229226   3.103   2.321   3.350  0.0505  0.0579 -0.0897
 2556TIP3    H129227   3.023   2.287   3.390 -0.3132  0.7279 -0.2380
 2556TIP3    H229228   3.097   2.416   3.361  1.4738  0.0386  1.1081
 2557TIP3   OH229229   3.872   5.005   2.507  0.1872  0.6893  0.0218
 2557TIP3    H129230   3.778   4.989   2.496  0.1544 -0.0524  1.1681
 2557TIP3    H229231   3.878   5.097   2.530 -0.1961  0.8835 -0.6027
 2558TIP3   OH229232   3.309   5.430   1.055  0.3204 -0.0814 -0.4288
 2558TIP3    H129233   3.366   5.482   1.112  1.1492 -0.4905 -0.8617
 2558TIP3    H229234   3.308   5.343   1.095 -2.8070  0.7011  1.5330
 2559TIP3   OH229235   3.755   5.547   7.791  0.0687 -0.1832  0.3005
 2559TIP3    H129236   3.682   5.562   7.851  0.6487  0.2571  0.9173
 2559TIP3    H229237   3.788   5.635   7.772  0.9402 -0.4178  0.6765
 2560TIP3   OH229238   2.481   6.735   3.217 -0.6489  0.6393  0.1056
 2560TIP3    H129239   2.416   6.804   3.210 -0.4914  0.9065  1.0702
 2560TIP3    H229240   2.564   6.781   3.231 -0.5193  0.2648  0.6045
 2561TIP3   OH229241   4.545   3.432   1.668  0.0200  0.7810  0.4787
 2561TIP3    H129242   4.465   3.462   1.625  0.5952 -0.1291 -1.3358
 2561TIP3    H229243   4.597   3.393   1.597  1.1873 -0.4659  1.9481
 2562TIP3   OH229244   1.769   1.017   3.581 -0.3928 -0.1644 -0.0967
 2562TIP3    H129245   1.789   1.110   3.592 -0.5594  0.1890 -2.3113
 2562TIP3    H229246   1.850   0.972   3.605 -0.3091  0.5305  0.9966
 2563TIP3   OH229247   3.107   6.647   1.713  0.3064  0.0565 -0.5635
 2563TIP3    H129248   3.060   6.696   1.781  1.3668 -2.0187  1.8154
 2563TIP3    H229249   3.191   6.692   1.706  0.8170 -0.6419  0.7409
 2564TIP3   OH229250   5.580   6.651   0.486  0.1662 -0.1579  0.6250
 2564TIP3    H129251   5.544   6.662   0.574  0.3300  2.1203  0.4874
 2564TIP3    H229252   5.503   6.648   0.429  0.0733 -1.2089  0.7879
 2565TIP3   OH229253   3.697   1.174   2.727  0.1347  0.3651  0.0673
 2565TIP3    H129254   3.666   1.156   2.816  0.1838  0.2786  0.0676
 2565TIP3    H229255   3.732   1.090   2.697  0.2531  0.4309  0.0209
 2566TIP3   OH229256   4.049   3.030   7.899  0.1065  0.9132 -0.0668
 2566TIP3    H129257   4.063   3.005   7.808  1.3207 -2.5361  0.9037
 2566TIP3    H229258   4.014   3.120   7.895 -0.4412  0.6742 -3.8776
 2567TIP3   OH229259   3.001   3.700   1.288 -0.1138 -0.2172  0.2403
 2567TIP3    H129260   2.940   3.706   1.361 -1.7763 -0.7360 -1.0495
 2567TIP3    H229261   2.989   3.781   1.240  0.4349 -0.1946  0.1387
 2568TIP3   OH229262   1.395   2.907   2.477 -0.4073 -0.4643  0.4981
 2568TIP3    H129263   1.378   2.925   2.385  0.8716  2.2014  0.6853
 2568TIP3    H229264   1.490   2.903   2.484 -0.4451  0.3853  1.8570
 2569TIP3   OH229265   6.303   5.006   2.113  0.0262  0.5030 -0.6809
 2569TIP3    H129266   6.275   4.983   2.024 -2.0118 -0.1905  0.0825
 2569TIP3    H229267   6.265   5.093   2.128 -1.6947 -0.3785  0.3160
 2570TIP3   OH229268   1.933   2.008   0.575 -0.6147  0.3018  0.0618
 2570TIP3    H129269   1.872   2.027   0.503 -1.8665 -1.2906  0.6530
 2570TIP3    H229270   1.994   2.082   0.573 -0.0895 -0.0542 -3.1498
 2571TIP3   OH229271   5.054   0.855   0.880  0.0549 -0.4865  0.1577
 2571TIP3    H129272   5.011   0.937   0.903 -0.9066 -0.2856 -2.0300
 2571TIP3    H229273   5.100   0.874   0.798 -0.9412 -2.2843 -0.9089
 2572TIP3   OH229274   6.091   1.540   7.870  0.2030  0.2530  0.0667
 2572TIP3    H129275   6.147   1.606   7.911 -0.0721  1.7914 -1.8861
 2572TIP3    H229276   6.141   1.510   7.794 -0.1295 -1.0087  0.3385
 2573TIP3   OH229277   5.494   1.293   8.455 -0.1549 -0.5553 -0.8237
 2573TIP3    H129278   5.533   1.380   8.464  0.2367 -0.7679 -0.4312
 2573TIP3    H229279   5.449   1.296   8.371  0.2400 -0.1217 -1.0255
 2574TIP3   OH229280   4.966   2.043   0.787 -0.0892 -0.2395 -0.1703
 2574TIP3    H129281   4.881   2.070   0.822 -0.3315 -0.2546 -0.7285
 2574TIP3    H229282   5.030   2.084   0.845 -0.4584 -1.8512  1.4893
 2575TIP3   OH229283   2.772   2.366   0.195 -0.0703  0.4456 -0.3061
 2575TIP3    H129284   2.851   2.395   0.151  0.4663 -0.6815 -0.1132
 2575TIP3    H229285   2.723   2.447   0.211  0.4778  1.0429 -1.4728
 2576TIP3   OH229286   1.862   6.348   2.471 -0.3368 -0.2670 -0.1142
 2576TIP3    H129287   1.922   6.315   2.404  0.0055 -0.7079  0.4083
 2576TIP3    H229288   1.919   6.372   2.544 -0.9336 -2.4271  1.1176
 2577TIP3   OH229289   5.281   6.586   8.274  0.8113  0.7835  0.3864
 2577TIP3    H129290   5.277   6.682   8.272  0.2824  0.7714  0.7021
 2577TIP3    H229291   5.200   6.560   8.316  0.6871  0.1725 -0.2124
 2578TIP3   OH229292   4.169   0.160   1.939  0.4835  0.4164  0.2702
 2578TIP3    H129293   4.095   0.102   1.957 -0.0004  0.9218 -0.0474
 2578TIP3    H229294   4.175   0.215   2.018  1.3022 -0.4195  0.8155
 2579TIP3   OH229295   3.786   0.597   1.594  0.1365  0.6987  0.0908
 2579TIP3    H129296   3.829   0.520   1.632  0.5853  1.3253  0.8678
 2579TIP3    H229297   3.845   0.669   1.613 -1.7813  1.8030  2.2636
 2580TIP3   OH229298   5.325   5.328   2.282 -0.5454 -0.2142  0.0120
 2580TIP3    H129299   5.298   5.367   2.366 -0.4720  0.9293 -0.4736
 2580TIP3    H229300   5.360   5.402   2.232 -1.4433 -0.6999 -1.3884
 2581TIP3   OH229301   2.169   2.342   2.987 -0.8249  0.4471  0.1911
 2581TIP3    H129302   2.196   2.312   3.073  1.2603 -1.2039 -0.9530
 2581TIP3    H229303   2.126   2.266   2.947 -0.1409  0.5895 -0.8604
 2582TIP3   OH229304   3.564   3.339   3.621 -0.0592  0.1857 -0.1728
 2582TIP3    H129305   3.622   3.265   3.636 -2.6543 -2.2015 -1.0275
 2582TIP3    H229306   3.618   3.403   3.574  2.2091 -1.2199  0.3752
 2583TIP3   OH229307   2.470   4.085   2.401 -0.1664 -0.5250  0.2202
 2583TIP3    H129308   2.524   4.067   2.478 -1.8209 -2.3525  1.0244
 2583TIP3    H229309   2.404   4.146   2.431  1.2042  1.5162 -0.7036
 2584TIP3   OH229310   6.570   1.238   0.038  0.2234  0.2107 -0.4052
 2584TIP3    H129311   6.650   1.187   0.027  0.2306  0.2641 -0.5935
 2584TIP3    H229312   6.593   1.327   0.011  0.5138  0.5652  0.9454
 2585TIP3   OH229313   1.899   4.523   7.957 -0.0713  0.0348 -0.2702
 2585TIP3    H129314   1.941   4.591   7.904  0.1319  0.0254 -0.1258
 2585TIP3    H229315   1.972   4.470   7.990 -0.2823 -0.8415 -1.1677
 2586TIP3   OH229316   4.791   0.536   1.169 -0.0633 -0.3546 -0.1634
 2586TIP3    H129317   4.767   0.577   1.086  0.3070  1.2034  0.4617
 2586TIP3    H229318   4.876   0.495   1.152  1.0660  1.7819 -0.0449
 2587TIP3   OH229319   6.788   4.461   7.931  0.4218 -0.2296 -0.7706
 2587TIP3    H129320   6.742   4.379   7.950 -0.4613  0.0205 -1.7263
 2587TIP3    H229321   6.852   4.438   7.864  1.6882 -0.5622  0.5106
 2588TIP3   OH229322   1.962   4.536   0.425 -0.2394 -0.4431 -0.3402
 2588TIP3    H129323   1.900   4.463   0.429 -1.5569  0.6387 -0.3614
 2588TIP3    H229324   1.928   4.600   0.487 -0.8770  1.4223 -2.4568
 2589TIP3   OH229325   1.607   3.354   0.507 -0.2035 -0.4858  0.3400
 2589TIP3    H129326   1.621   3.305   0.427  1.8770  1.7682 -0.8352
 2589TIP3    H229327   1.638   3.296   0.577  1.0132 -1.3045 -0.8405
 2590TIP3   OH229328   0.954   6.190   1.839 -0.1075 -0.6702  0.3993
 2590TIP3    H129329   0.902   6.131   1.892  0.4832  0.6046  2.5099
 2590TIP3    H229330   0.924   6.278   1.863  1.3927  0.0105 -0.0549
 2591TIP3   OH229331   0.737   5.490   2.106 -0.0536 -0.5092  0.4631
 2591TIP3    H129332   0.784   5.510   2.187  0.6092 -1.0895  0.2279
 2591TIP3    H229333   0.735   5.574   2.058  1.1391 -0.5718  0.2797
 2592TIP3   OH229334   2.538   3.734   7.454 -1.1998  0.6168 -0.6468
 2592TIP3    H129335   2.615   3.682   7.478 -2.2965 -0.7900 -0.0794
 2592TIP3    H229336   2.548   3.816   7.503  0.1324  0.6245 -0.9034
 2593TIP3   OH229337   2.642   0.369   2.820  0.4307  0.3071 -0.0378
 2593TIP3    H129338   2.579   0.416   2.875 -0.2486 -0.6182 -0.0064
 2593TIP3    H229339   2.727   0.405   2.844  0.0081  0.8776  0.6287
 2594TIP3   OH229340   2.504   1.192   1.744 -0.3027  0.4314  0.1461
 2594TIP3    H129341   2.423   1.156   1.708  0.2049  0.3413 -0.9452
 2594TIP3    H229342   2.553   1.116   1.776 -0.9594  0.5521  1.5232
 2595TIP3   OH229343   4.958   4.936   7.402 -0.2395 -0.3990 -0.5349
 2595TIP3    H129344   5.043   4.973   7.380 -0.2938 -0.8701 -1.6123
 2595TIP3    H229345   4.967   4.842   7.385 -0.2622 -0.8493  1.6540
 2596TIP3   OH229346   3.679   0.804   0.213 -0.7817 -0.5964 -0.1747
 2596TIP3    H129347   3.709   0.808   0.304 -0.2411  1.1862 -0.3775
 2596TIP3    H229348   3.715   0.722   0.179  1.5284  0.0958  0.4128
 2597TIP3   OH229349   5.718   1.612   8.140 -0.2557  0.3887 -0.0740
 2597TIP3    H129350   5.710   1.704   8.115  0.8745  0.7470  0.8017
 2597TIP3    H229351   5.794   1.609   8.198 -0.8968 -0.9269  0.7542
 2598TIP3   OH229352   0.008   4.150   0.424 -0.0083  0.6987  0.2916
 2598TIP3    H129353  -0.054   4.180   0.492  0.8111  1.3793  0.7595
 2598TIP3    H229354   0.080   4.213   0.428 -0.0137  0.8508 -1.3463
 2599TIP3   OH229355   2.702   0.935   1.066 -0.1826  0.6987 -0.0515
 2599TIP3    H129356   2.617   0.894   1.048  0.2245 -0.1292 -0.0843
 2599TIP3    H229357   2.759   0.905   0.996  0.1923  1.1226  0.0678
 2600TIP3   OH229358   3.346   1.653   8.111  0.0595 -0.2065  0.2711
 2600TIP3    H129359   3.396   1.732   8.129  1.0000 -0.3326 -1.4758
 2600TIP3    H229360   3.378   1.589   8.175 -0.0146  0.5487  1.0725
 2601TIP3   OH229361   6.317   0.755   3.613  0.2072  0.5216  0.7314
 2601TIP3    H129362   6.403   0.791   3.592  0.4429  0.0110  0.7831
 2601TIP3    H229363   6.258   0.794   3.550  0.6985 -0.0700 -0.1201
 2602TIP3   OH229364   0.065   2.838   0.748  0.2784  1.1926 -0.8819
 2602TIP3    H129365   0.022   2.838   0.833  1.6988  1.3717 -0.1218
 2602TIP3    H229366   0.058   2.748   0.717  0.1730  1.0126 -0.3381
 2603TIP3   OH229367   0.533   3.951   8.206  0.7976 -0.0019 -0.1999
 2603TIP3    H129368   0.466   3.890   8.236  0.8624  0.0345  0.0209
 2603TIP3    H229369   0.607   3.896   8.181  1.3987  0.0421  1.3484
 2604TIP3   OH229370   2.363   2.792   2.500  0.0258 -0.5429  0.2320
 2604TIP3    H129371   2.402   2.878   2.516  1.1987 -1.3205  1.8489
 2604TIP3    H229372   2.393   2.769   2.412 -0.6075  0.8237 -0.3753
 2605TIP3   OH229373   3.438   5.974   0.887  0.3683 -0.4770 -0.5540
 2605TIP3    H129374   3.461   6.044   0.826  1.1323 -1.3713 -1.3270
 2605TIP3    H229375   3.441   5.894   0.834  0.8696 -1.2526  0.6110
 2606TIP3   OH229376   2.532   1.682   2.608  0.5210  0.2291  0.2819
 2606TIP3    H129377   2.610   1.658   2.558  0.2060  0.4460 -0.3104
 2606TIP3    H229378   2.565   1.737   2.679  0.8041  1.0919 -0.5021
 2607TIP3   OH229379   6.064   3.615   0.530 -0.3889 -0.0088  0.4076
 2607TIP3    H129380   6.039   3.632   0.439  0.1310 -1.2572 -0.0038
 2607TIP3    H229381   6.157   3.593   0.525 -0.5917 -1.1112  1.0777
 2608TIP3   OH229382   5.487   2.616   8.085  0.4372 -0.4894 -0.3465
 2608TIP3    H129383   5.574   2.657   8.089  0.1777  0.3250 -2.2606
 2608TIP3    H229384   5.426   2.689   8.080 -0.1050 -1.0275 -2.7187
 2609TIP3   OH229385   4.899   6.676   2.926  0.4563  0.3141 -0.4195
 2609TIP3    H129386   4.864   6.748   2.875  1.7686  0.2885 -1.4152
 2609TIP3    H229387   4.824   6.642   2.975 -0.2578  2.0853 -0.2142
 2610TIP3   OH229388   5.162   6.438   0.578 -0.3371 -0.6586 -0.4364
 2610TIP3    H129389   5.226   6.384   0.531  0.5544 -0.3264  0.3539
 2610TIP3    H229390   5.189   6.431   0.670 -0.3768  0.8966 -0.2836
 2611TIP3   OH229391   5.379   3.558   0.182 -0.0361  0.0793 -0.1453
 2611TIP3    H129392   5.460   3.509   0.167  0.1512  0.0412  0.9303
 2611TIP3    H229393   5.317   3.522   0.118  0.2676 -1.1521  0.2418
 2612TIP3   OH229394   5.321   4.326   2.581 -0.2553 -0.0254  0.1344
 2612TIP3    H129395   5.369   4.295   2.505  1.5451  3.9929 -0.6616
 2612TIP3    H229396   5.285   4.411   2.554  1.0404  1.9582  3.7712
 2613TIP3   OH229397   3.533   0.018   8.592  0.0950 -0.4000  0.3690
 2613TIP3    H129398   3.469   0.085   8.567  1.2126  0.3913 -0.4437
 2613TIP3    H229399   3.485  -0.038   8.654 -1.5107 -0.0895 -0.5257
 2614TIP3   OH229400   2.471   0.526   1.224  0.5901  0.4418  0.3478
 2614TIP3    H129401   2.505   0.450   1.177 -1.2094  0.2814 -0.8336
 2614TIP3    H229402   2.441   0.491   1.308 -0.5146 -0.2538 -0.3146
 2615TIP3   OH229403   0.175   4.375   3.212  0.0122 -0.1053  0.0724
 2615TIP3    H129404   0.163   4.404   3.122  0.3806 -0.4809 -0.1005
 2615TIP3    H229405   0.205   4.284   3.205  2.1432  0.5015  0.4724
 2616TIP3   OH229406   0.099   3.336   2.859 -0.7751 -0.6707 -0.3427
 2616TIP3    H129407   0.142   3.255   2.887  0.1882 -0.0241  0.1008
 2616TIP3    H229408   0.094   3.389   2.939 -0.1717  0.2346 -0.8774
 2617TIP3   OH229409   3.710   2.749   8.658 -0.1451 -0.3926  0.3020
 2617TIP3    H129410   3.728   2.754   8.565  0.9831 -2.0291  0.3991
 2617TIP3    H229411   3.795   2.764   8.700 -0.2250 -1.6994  0.9860
 2618TIP3   OH229412   6.319   4.925   7.625  0.1467  0.4779  0.1353
 2618TIP3    H129413   6.257   4.996   7.610 -0.8378 -0.4958 -0.5709
 2618TIP3    H229414   6.279   4.872   7.694 -0.1142 -0.4850 -0.7386
 2619TIP3   OH229415   5.978   2.592   7.986  0.1741 -0.1972 -0.2044
 2619TIP3    H129416   6.025   2.510   8.002  0.6601  0.3403  1.2941
 2619TIP3    H229417   6.012   2.623   7.902  1.8408 -0.3014  0.3882
 2620TIP3   OH229418   5.976   1.146   1.575  0.4189 -0.0093 -0.3954
 2620TIP3    H129419   5.900   1.142   1.633  0.2704 -0.6264 -0.6243
 2620TIP3    H229420   6.051   1.128   1.631  0.4780  1.2632 -0.0347
 2621TIP3   OH229421   0.248   3.690   1.337 -0.3129  0.5500  0.1650
 2621TIP3    H129422   0.160   3.690   1.375 -0.0413 -0.0585  0.8321
 2621TIP3    H229423   0.236   3.719   1.247 -1.2415  0.1929  0.1651
 2622TIP3   OH229424   3.146   1.282   0.673  0.2011  0.6737 -0.0759
 2622TIP3    H129425   3.090   1.260   0.598  0.9277 -1.2610 -0.1245
 2622TIP3    H229426   3.219   1.221   0.666  0.4739  0.6986  2.0072
 2623TIP3   OH229427   0.963   1.487   2.513 -0.3271 -0.1474  0.1870
 2623TIP3    H129428   1.011   1.495   2.431 -1.4644 -1.0095 -0.5925
 2623TIP3    H229429   0.933   1.396   2.515  1.1070 -0.6392  2.3911
 2624TIP3   OH229430   0.083   2.800   2.169 -0.2756  0.4270  0.7232
 2624TIP3    H129431   0.018   2.864   2.200 -1.0343  0.1192 -0.1833
 2624TIP3    H229432   0.093   2.819   2.076  1.0344  0.5320  0.8598
 2625TIP3   OH229433   5.634   5.169   2.061  0.0335 -0.3938 -0.2942
 2625TIP3    H129434   5.718   5.183   2.106 -0.8454  2.2976  0.7367
 2625TIP3    H229435   5.604   5.258   2.041 -3.0898 -1.2119  0.3679
 2626TIP3   OH229436   2.781   2.949   8.273 -0.6869 -0.0914  0.2688
 2626TIP3    H129437   2.794   2.995   8.190  2.2518  0.0201  0.6579
 2626TIP3    H229438   2.747   3.015   8.332 -0.8515  0.3827 -0.3463
 2627TIP3   OH229439   6.680   6.457   2.388  0.0935  0.0971  0.1032
 2627TIP3    H129440   6.744   6.521   2.421 -0.2828  0.3185  0.4242
 2627TIP3    H229441   6.598   6.507   2.382 -0.3357 -0.4904  0.8892
 2628TIP3   OH229442   4.325   3.479   1.504  0.3345  0.0638  0.2525
 2628TIP3    H129443   4.230   3.480   1.492  0.2796 -0.0250  0.6760
 2628TIP3    H229444   4.357   3.537   1.435  0.0305 -0.4597 -0.3403
 2629TIP3   OH229445   6.420   3.008   0.357 -0.8423  0.3819  0.1413
 2629TIP3    H129446   6.433   2.918   0.328 -1.0703 -0.4358  2.3822
 2629TIP3    H229447   6.463   3.061   0.290  2.8905 -1.5789  0.7331
 2630TIP3   OH229448   0.186   3.541   1.847 -0.3825  0.0318 -0.0915
 2630TIP3    H129449   0.176   3.454   1.810  2.0758  0.3487 -1.7901
 2630TIP3    H229450   0.275   3.542   1.883 -1.2013  1.1247  2.0463
 2631TIP3   OH229451   5.031   5.407   2.080  0.4066  0.4301  0.3880
 2631TIP3    H129452   4.951   5.371   2.043 -0.3682  0.4284  2.0027
 2631TIP3    H229453   5.092   5.410   2.006 -0.8797 -0.1172 -0.7354
 2632TIP3   OH229454   5.645   0.865   0.405  0.6812  0.1653  0.3048
 2632TIP3    H129455   5.715   0.821   0.453  2.3034  2.2959  0.0126
 2632TIP3    H229456   5.576   0.878   0.469  0.4904 -1.9810  0.6030
 2633TIP3   OH229457   2.948   6.246   1.071  0.1500 -0.1654  0.6306
 2633TIP3    H129458   2.968   6.328   1.116 -0.8636  0.2447  0.3468
 2633TIP3    H229459   3.027   6.226   1.022  0.1850  0.9843  0.1918
 2634TIP3   OH229460   2.484   2.316   0.517 -0.3288  0.2576  0.3486
 2634TIP3    H129461   2.517   2.404   0.539 -0.3397  0.7624 -1.5100
 2634TIP3    H229462   2.484   2.314   0.421  0.7650 -2.1914  0.3354
 2635TIP3   OH229463   3.138   3.686   3.576  0.3144 -0.5178  0.1034
 2635TIP3    H129464   3.069   3.638   3.621 -0.9600  0.7823 -0.3949
 2635TIP3    H229465   3.105   3.776   3.569  1.9181  0.0703 -0.4429
 2636TIP3   OH229466   3.595   5.022   2.521  0.2741  0.0475 -0.0171
 2636TIP3    H129467   3.541   4.953   2.559 -0.2707  0.1389 -0.5990
 2636TIP3    H229468   3.581   5.098   2.577 -2.5455  0.9537 -1.7209
 2637TIP3   OH229469   5.053   2.122   1.311 -0.3485 -0.1655 -0.1345
 2637TIP3    H129470   4.982   2.131   1.375  0.4002 -1.1847  0.8958
 2637TIP3    H229471   5.032   2.185   1.242 -0.3604  2.2000  1.8655
 2638TIP3   OH229472   5.062   0.407   8.058 -0.2658 -0.0577  0.1322
 2638TIP3    H129473   5.130   0.472   8.042 -0.1827 -0.3505 -0.7273
 2638TIP3    H229474   5.086   0.333   8.003 -0.6569 -0.6102  0.6870
 2639TIP3   OH229475   3.607   4.453   0.420  0.0218  0.2744  0.2031
 2639TIP3    H129476   3.650   4.392   0.361  0.5520 -0.1795  1.0412
 2639TIP3    H229477   3.518   4.462   0.385  0.4588  0.3860 -0.9210
 2640TIP3   OH229478   4.435   0.241   8.197 -0.5357 -0.8756  0.5882
 2640TIP3    H129479   4.440   0.304   8.124  1.9195 -2.6183 -0.9184
 2640TIP3    H229480   4.366   0.181   8.172 -0.8997 -0.4591  0.5826
 2641TIP3   OH229481   0.477   3.730   2.178 -0.2594  0.5249  0.3312
 2641TIP3    H129482   0.571   3.727   2.163 -0.3384  1.6205 -0.5157
 2641TIP3    H229483   0.454   3.641   2.203  0.7742 -0.1242 -0.9065
 2642TIP3   OH229484   4.907   4.234   2.134  0.5093 -0.0482 -0.0286
 2642TIP3    H129485   4.920   4.225   2.040  2.7844 -1.2263  0.3173
 2642TIP3    H229486   4.944   4.320   2.155 -2.3940  1.4306 -0.4884
 2643TIP3   OH229487   4.009   2.577   2.221  0.1095 -0.2401 -0.2244
 2643TIP3    H129488   3.968   2.552   2.303  1.4920  1.7205  1.1564
 2643TIP3    H229489   4.099   2.547   2.229 -0.2654 -2.1004 -2.0804
 2644TIP3   OH229490   1.356   4.538   7.839  0.2344  0.4374 -0.1375
 2644TIP3    H129491   1.295   4.469   7.815 -0.5093  1.7566 -2.2380
 2644TIP3    H229492   1.411   4.551   7.762  1.0480  1.4711  0.5787
 2645TIP3   OH229493   1.820   4.750   0.551  0.6725 -0.2509  0.1299
 2645TIP3    H129494   1.801   4.691   0.624 -1.4839 -0.7815 -0.7897
 2645TIP3    H229495   1.808   4.838   0.587 -1.9709 -0.5200  0.1185
 2646TIP3   OH229496   6.731   5.259   1.254  0.0584  0.5479 -0.2714
 2646TIP3    H129497   6.717   5.185   1.313 -1.1580 -1.0569 -2.4120
 2646TIP3    H229498   6.823   5.251   1.227 -0.7286 -2.1070 -2.7049
 2647TIP3   OH229499   5.875   6.478   1.815 -0.3609  0.0782 -0.6273
 2647TIP3    H129500   5.798   6.460   1.760  0.4234 -3.1836 -0.8451
 2647TIP3    H229501   5.935   6.407   1.795  1.2901  0.5751  2.1543
 2648TIP3   OH229502   0.469   4.331   2.883  0.0116 -0.4183  0.0843
 2648TIP3    H129503   0.526   4.374   2.820  0.4878 -1.0209  0.0949
 2648TIP3    H229504   0.445   4.400   2.945  0.3472 -0.0552 -0.1874
 2649TIP3   OH229505   0.606   6.802   8.442  0.0804  0.3066 -0.7395
 2649TIP3    H129506   0.685   6.837   8.402  0.3763  0.5897  0.0801
 2649TIP3    H229507   0.579   6.869   8.505 -0.4207 -0.1011 -0.5115
 2650TIP3   OH229508   3.962   1.031   1.504  0.4923  0.7329 -0.3953
 2650TIP3    H129509   4.050   1.000   1.526 -0.2816 -2.3775 -1.1377
 2650TIP3    H229510   3.912   1.019   1.584  0.2896  0.5132 -0.5544
 2651TIP3   OH229511   1.910   1.352   2.338 -0.1742 -0.2453 -0.0647
 2651TIP3    H129512   1.879   1.386   2.422 -0.2352  1.2370 -0.6568
 2651TIP3    H229513   2.005   1.365   2.341 -0.2114  0.0959 -0.3432
 2652TIP3   OH229514   0.191   5.401   2.919  0.0861 -0.1455 -0.6736
 2652TIP3    H129515   0.179   5.310   2.889 -0.8549 -0.1676 -0.2583
 2652TIP3    H229516   0.106   5.442   2.906  0.5712  0.7584 -1.0872
 2653TIP3   OH229517   6.371   3.002   7.802  0.0359 -0.1733 -0.3800
 2653TIP3    H129518   6.383   2.926   7.858  1.3057  0.2401 -0.0547
 2653TIP3    H229519   6.279   2.998   7.775 -0.2738 -1.0610  0.7232
 2654TIP3   OH229520   2.959   3.922   1.136  0.3771 -0.2375  0.1211
 2654TIP3    H129521   3.044   3.962   1.152  1.3237 -1.0173 -2.4142
 2654TIP3    H229522   2.956   3.909   1.041 -2.6545 -0.1144  0.0932
 2655TIP3   OH229523   1.197   1.395   7.449 -0.4903  0.4063  0.6318
 2655TIP3    H129524   1.283   1.427   7.421  0.1500 -1.8219 -0.1288
 2655TIP3    H229525   1.136   1.435   7.386  0.2404  0.3065 -0.1636
 2656TIP3   OH229526   5.980   5.042   7.818 -0.1573  0.3656  0.0835
 2656TIP3    H129527   6.040   5.083   7.756  0.5626 -0.3960  0.2661
 2656TIP3    H229528   6.016   4.955   7.833  0.6601  1.1045  2.8888
 2657TIP3   OH229529   6.420   1.258   7.059  0.0008  0.1627  0.7477
 2657TIP3    H129530   6.462   1.344   7.063  0.1995  0.0434  1.2259
 2657TIP3    H229531   6.335   1.275   7.019  0.5942  0.3725 -0.4859
 2658TIP3   OH229532   4.930   1.101   0.924  0.7590  0.5079 -0.1716
 2658TIP3    H129533   4.976   1.173   0.967  0.0372  0.9694 -0.1577
 2658TIP3    H229534   4.842   1.105   0.959  0.3114  0.5295 -1.2485
 2659TIP3   OH229535   5.468   1.615   0.544  0.3233 -0.1978  0.1690
 2659TIP3    H129536   5.442   1.706   0.531  0.3713 -0.2975 -0.6434
 2659TIP3    H229537   5.393   1.563   0.514  0.5013 -0.4354  0.1261
 2660TIP3   OH229538   6.640   5.733   2.008 -0.6961 -0.0917  0.2432
 2660TIP3    H129539   6.635   5.715   2.102  0.0807 -1.2535  0.0828
 2660TIP3    H229540   6.551   5.724   1.976 -0.9431  0.1856  0.8386
 2661TIP3   OH229541   2.151   2.873   2.920  0.3170 -0.3396 -0.0386
 2661TIP3    H129542   2.171   2.966   2.932  1.2363 -0.4290 -0.7889
 2661TIP3    H229543   2.081   2.856   2.983  2.0501  0.2000  2.1911
 2662TIP3   OH229544   1.238   0.527   0.720  0.0979  0.1109  0.6694
 2662TIP3    H129545   1.229   0.550   0.813 -0.8779  0.7147  0.4466
 2662TIP3    H229546   1.309   0.462   0.718  2.1610  2.2051  1.4771
 2663TIP3   OH229547   4.690   3.907   8.280 -0.2968  0.3760 -0.1006
 2663TIP3    H129548   4.703   3.821   8.238 -1.3602 -0.3565  0.9907
 2663TIP3    H229549   4.595   3.918   8.281 -0.1486  1.9694 -0.9617
 2664TIP3   OH229550   2.487   0.585   0.825 -0.2082 -0.0107 -0.0623
 2664TIP3    H129551   2.542   0.514   0.856 -0.7058  0.0333  0.9711
 2664TIP3    H229552   2.528   0.614   0.744  0.4030 -0.9966 -0.1153
 2665TIP3   OH229553   0.868   4.030   7.946 -0.8301 -0.3191 -0.5682
 2665TIP3    H129554   0.928   3.986   8.007 -0.9512  0.6207  0.2430
 2665TIP3    H229555   0.917   4.033   7.863  0.0877  0.0760 -0.0226
 2666TIP3   OH229556   2.645   1.962   2.471  0.0423  0.0485 -0.0417
 2666TIP3    H129557   2.714   1.912   2.515 -0.6812 -0.2208  0.8036
 2666TIP3    H229558   2.570   1.959   2.530 -0.4082  1.1344 -0.5153
 2667TIP3   OH229559   6.384   4.854   1.343  0.6974 -0.3523  0.0932
 2667TIP3    H129560   6.354   4.766   1.368 -0.4231  0.2203  0.8383
 2667TIP3    H229561   6.387   4.903   1.425  3.7737 -0.3419  0.0879
 2668TIP3   OH229562   2.512   6.258   0.335 -0.0739 -0.1010 -0.2242
 2668TIP3    H129563   2.423   6.242   0.303  1.1150 -3.2395 -2.4640
 2668TIP3    H229564   2.540   6.336   0.286 -0.6326 -0.8468 -1.8138
 2669TIP3   OH229565   4.754   4.591   1.763 -0.0155  0.0577 -0.4789
 2669TIP3    H129566   4.745   4.664   1.702  2.6927  0.1384 -0.8855
 2669TIP3    H229567   4.757   4.513   1.708 -2.0487 -0.3642 -0.0932
 2670TIP3   OH229568   1.066   0.494   1.474  0.0800  0.6158  0.0933
 2670TIP3    H129569   1.015   0.415   1.494  0.2951 -0.4844 -3.0564
 2670TIP3    H229570   1.154   0.475   1.506  0.0226 -0.2460 -0.2331
 2671TIP3   OH229571   1.486   5.857   0.498  0.1201 -0.2660  0.3296
 2671TIP3    H129572   1.496   5.798   0.423  1.5294  1.4407 -0.8970
 2671TIP3    H229573   1.563   5.841   0.552 -0.5631 -1.0205  1.1085
 2672TIP3   OH229574   4.510   0.800   0.492 -0.3149  0.0395 -0.2456
 2672TIP3    H129575   4.538   0.710   0.477 -1.0454 -0.6199  1.9313
 2672TIP3    H229576   4.447   0.817   0.423  0.2643 -0.8995 -1.0366
 2673TIP3   OH229577   3.800   6.376   0.507 -0.2779 -0.4297 -0.4636
 2673TIP3    H129578   3.850   6.347   0.582  1.3214  1.0403 -0.8938
 2673TIP3    H229579   3.741   6.303   0.487  0.0740 -1.2914  1.4777
 2674TIP3   OH229580   0.758   1.319   0.757 -0.0199 -0.1817  0.0366
 2674TIP3    H129581   0.709   1.340   0.678 -1.6269  1.1563  1.2952
 2674TIP3    H229582   0.752   1.224   0.765  1.1567 -0.4842 -2.0053
 2675TIP3   OH229583   0.788   0.410   2.523  0.2404  0.0959  1.1004
 2675TIP3    H129584   0.738   0.343   2.568 -0.8213  0.7129  0.8684
 2675TIP3    H229585   0.806   0.476   2.591  0.1094  0.2152  1.0204
 2676TIP3   OH229586   2.141   3.917   7.240 -0.9391 -0.1239 -0.3388
 2676TIP3    H129587   2.108   3.833   7.207 -0.7812 -0.0516 -0.6814
 2676TIP3    H229588   2.233   3.918   7.213 -0.6597 -0.2972  0.5526
 2677TIP3   OH229589   0.825   0.649   2.619 -0.1334 -0.8734  0.0324
 2677TIP3    H129590   0.857   0.697   2.695  0.4206 -0.2295 -0.5956
 2677TIP3    H229591   0.733   0.676   2.610  0.0208 -0.3469  0.0092
 2678TIP3   OH229592   4.286   2.211   2.248  0.4404 -0.0590  0.0505
 2678TIP3    H129593   4.266   2.120   2.270 -0.9714 -0.0119 -0.9214
 2678TIP3    H229594   4.379   2.210   2.227  0.3855 -1.3493 -0.2451
 2679TIP3   OH229595   5.399   4.961   7.105 -0.1342  0.7435 -0.2701
 2679TIP3    H129596   5.359   5.045   7.130  0.8514  1.0907  0.1944
 2679TIP3    H229597   5.489   4.968   7.136  0.6135  0.4183 -2.2803
 2680TIP3   OH229598   4.249   5.878   2.467 -0.2687  0.6509  0.1131
 2680TIP3    H129599   4.255   5.815   2.538 -0.2065  0.4242 -0.0946
 2680TIP3    H229600   4.192   5.837   2.402  0.3810  0.4743 -0.3657
 2681TIP3   OH229601   5.439   2.786   3.410 -0.3689  0.1019  0.3599
 2681TIP3    H129602   5.426   2.743   3.494  0.5018 -1.5970 -0.3172
 2681TIP3    H229603   5.521   2.749   3.376 -0.9385  0.3570 -1.4394
 2682TIP3   OH229604   6.846   3.690   1.406  0.1928 -0.2690  0.0364
 2682TIP3    H129605   6.868   3.732   1.323  0.7413  1.9224  1.1871
 2682TIP3    H229606   6.751   3.694   1.411  0.1913  0.1697 -0.2430
 2683TIP3   OH229607   5.681   5.774   7.748 -0.0720 -0.4949  0.2706
 2683TIP3    H129608   5.776   5.760   7.739 -0.1606 -0.6443 -0.4846
 2683TIP3    H229609   5.671   5.870   7.746  0.0703 -0.4778  0.3800
 2684TIP3   OH229610   0.750   0.022   1.120 -0.7795  0.2500 -0.1842
 2684TIP3    H129611   0.748   0.111   1.153  0.9348  0.2555 -0.0080
 2684TIP3    H229612   0.768  -0.032   1.196  0.6108  0.0080 -0.6613
 2685TIP3   OH229613   4.779   4.326   1.649 -0.0151 -0.0496  0.3500
 2685TIP3    H129614   4.848   4.334   1.583  0.1824 -2.9222  0.0747
 2685TIP3    H229615   4.700   4.307   1.599  0.1330 -2.2466  0.8282
 2686TIP3   OH229616   3.718   6.168   1.740  0.1755  0.0750  0.1145
 2686TIP3    H129617   3.688   6.245   1.789  0.5073 -0.5570  1.3701
 2686TIP3    H229618   3.797   6.197   1.695  0.1710  0.5388  0.3965
 2687TIP3   OH229619   2.652   5.503   8.329  0.3632 -0.2591 -0.1156
 2687TIP3    H129620   2.693   5.588   8.313 -1.3412  0.8598  1.1039
 2687TIP3    H229621   2.641   5.499   8.424 -0.4818 -1.4160 -0.2409
 2688TIP3   OH229622   3.254   0.526   1.311 -0.0023  0.1260  0.2472
 2688TIP3    H129623   3.311   0.599   1.287 -1.9776  1.2243 -1.4325
 2688TIP3    H229624   3.203   0.559   1.385  1.1065 -0.6769  1.4208
 2689TIP3   OH229625   2.617   4.831   2.403  0.4342 -0.5609  0.0207
 2689TIP3    H129626   2.594   4.801   2.315  0.9443  0.2814 -0.4164
 2689TIP3    H229627   2.537   4.870   2.437  0.5183  0.0955 -0.5086
 2690TIP3   OH229628   6.068   4.595   8.638 -0.2224 -0.0069 -0.2230
 2690TIP3    H129629   6.120   4.623   8.714  2.1925  1.8935 -2.3767
 2690TIP3    H229630   5.979   4.621   8.659  0.1977 -0.3666  2.3084
 2691TIP3   OH229631   0.478   5.282   7.794 -0.5779  0.1108  0.3258
 2691TIP3    H129632   0.424   5.223   7.742  0.3553 -1.7146  1.3233
 2691TIP3    H229633   0.506   5.350   7.733 -1.6450 -0.5088 -0.8819
 2692TIP3   OH229634   0.879   5.416   1.025  0.3417 -0.6982 -0.4385
 2692TIP3    H129635   0.955   5.456   1.068 -0.1428 -0.5649  0.3114
 2692TIP3    H229636   0.916   5.372   0.948  1.1574 -0.4975 -0.1760
 2693TIP3   OH229637   1.931   3.725   1.725 -0.2830 -0.2747 -0.0568
 2693TIP3    H129638   1.958   3.800   1.672  1.4961  0.8824  2.3230
 2693TIP3    H229639   1.963   3.649   1.676  1.3077  0.7439 -0.6692
 2694TIP3   OH229640   6.351   6.042   7.488 -0.2378 -0.0523  0.1906
 2694TIP3    H129641   6.412   6.095   7.436 -0.2575  0.8741  1.1086
 2694TIP3    H229642   6.268   6.048   7.441 -0.0100 -0.0758 -0.2262
 2695TIP3   OH229643   1.894   5.112   0.255 -0.2295 -0.4671  0.3936
 2695TIP3    H129644   1.897   5.136   0.162  3.2409  0.9718  0.7232
 2695TIP3    H229645   1.942   5.029   0.260  1.1215  0.3133  1.0210
 2696TIP3   OH229646   4.317   3.290   8.549 -0.3109  0.0694  0.5057
 2696TIP3    H129647   4.353   3.354   8.611 -1.0567  1.9391 -0.9177
 2696TIP3    H229648   4.289   3.217   8.604  0.1796  1.1270  2.2348
 2697TIP3   OH229649   0.564   5.484   0.767  0.8712 -0.1668  0.3100
 2697TIP3    H129650   0.493   5.501   0.829 -0.2234  1.7430 -1.3322
 2697TIP3    H229651   0.520   5.452   0.689  1.8251  0.7839 -0.6466
 2698TIP3   OH229652   6.260   4.135   8.120 -0.2586 -0.3225  0.8604
 2698TIP3    H129653   6.254   4.061   8.059  1.2770 -2.8258  3.4927
 2698TIP3    H229654   6.173   4.142   8.160 -0.7480  0.1555 -0.2363
 2699TIP3   OH229655   2.719   5.141   1.749  0.1941 -0.1965 -0.7277
 2699TIP3    H129656   2.683   5.217   1.795  1.4372 -0.2543  0.4095
 2699TIP3    H229657   2.743   5.175   1.663  3.0984  1.4453  0.5802
 2700TIP3   OH229658   0.823   2.548   0.868  0.2219  0.1980  0.0743
 2700TIP3    H129659   0.871   2.606   0.810  0.6300 -1.5728 -1.4487
 2700TIP3    H229660   0.768   2.495   0.810 -0.5314 -0.5662  1.4261
 2701TIP3   OH229661   1.552   1.773   8.621 -0.0339  0.9783 -0.2363
 2701TIP3    H129662   1.608   1.703   8.653 -1.2682  0.7814  1.6687
 2701TIP3    H229663   1.493   1.730   8.559  1.2178  1.0019 -1.4980
 2702TIP3   OH229664   4.045   6.687   2.371  0.0601  0.8654  0.0680
 2702TIP3    H129665   3.955   6.667   2.399  0.7545 -0.9518  1.1537
 2702TIP3    H229666   4.100   6.629   2.424  1.7714  0.7628 -1.7192
 2703TIP3   OH229667   4.829   1.512   7.707 -0.0557 -0.1051  0.3702
 2703TIP3    H129668   4.804   1.576   7.773  1.2155 -0.8623  1.6205
 2703TIP3    H229669   4.922   1.528   7.692 -0.5516  0.9066 -2.2465
 2704TIP3   OH229670   2.933   5.430   0.359  0.0124 -0.7937  0.5047
 2704TIP3    H129671   2.930   5.341   0.393  0.8823 -0.4321  1.6044
 2704TIP3    H229672   2.961   5.420   0.267  0.3870 -1.6348  0.7008
 2705TIP3   OH229673   4.105   4.482   0.531 -0.1728  0.0820 -0.6821
 2705TIP3    H129674   4.163   4.461   0.457  0.2352 -0.5105 -0.2111
 2705TIP3    H229675   4.132   4.420   0.600 -0.1632  0.9973  0.1499
 2706TIP3   OH229676   5.368   5.662   2.672 -0.3266  0.0704 -0.1210
 2706TIP3    H129677   5.391   5.742   2.626  0.8363 -1.0497 -1.5887
 2706TIP3    H229678   5.421   5.663   2.751 -0.0118  0.5361 -0.3361
 2707TIP3   OH229679   2.987   2.446   8.309 -0.5700  0.3680  0.2922
 2707TIP3    H129680   3.061   2.504   8.292 -0.2553 -0.4837 -1.4398
 2707TIP3    H229681   3.023   2.376   8.363 -0.6855  1.1490  1.4193
 2708TIP3   OH229682   5.807   3.027   0.833 -0.3054 -0.1403  0.1188
 2708TIP3    H129683   5.719   2.993   0.850 -1.0969  1.5792 -0.3225
 2708TIP3    H229684   5.797   3.122   0.837  1.0371  0.1738 -2.3003
 2709TIP3   OH229685   4.000   6.752   2.091  0.6869 -0.2961  0.5049
 2709TIP3    H129686   3.948   6.697   2.032  0.5309  0.4008 -0.0193
 2709TIP3    H229687   3.989   6.711   2.177  0.0170 -0.6927  0.2454
 2710TIP3   OH229688   6.266   6.567   1.245 -0.0579 -0.0771 -0.1363
 2710TIP3    H129689   6.310   6.516   1.176 -0.8078 -2.0118  0.7456
 2710TIP3    H229690   6.324   6.560   1.321 -0.2928  0.1720  0.0666
 2711TIP3   OH229691   0.594   2.100   2.260 -0.1094  0.5312  0.2239
 2711TIP3    H129692   0.577   2.186   2.222 -1.9244 -0.6086 -1.8065
 2711TIP3    H229693   0.666   2.065   2.207  0.7662  0.8447  1.1792
 2712TIP3   OH229694   5.100   3.069   7.952  0.2984  0.6392  0.3453
 2712TIP3    H129695   5.046   3.063   7.873  0.0252 -0.0752  0.5756
 2712TIP3    H229696   5.064   3.143   8.001  0.1154  0.7377  0.0593
 2713TIP3   OH229697   2.714   1.641   1.183  0.1058  0.1635 -0.3640
 2713TIP3    H129698   2.737   1.653   1.275 -0.3953  1.3645 -0.3747
 2713TIP3    H229699   2.635   1.587   1.185  0.4133 -0.2796 -0.1173
 2714TIP3   OH229700   1.950   6.253   8.585  0.5106 -0.1930  0.6013
 2714TIP3    H129701   1.956   6.346   8.605  0.6713  0.2290 -1.2239
 2714TIP3    H229702   2.033   6.216   8.615  0.9815  0.5025  0.1832
 2715TIP3   OH229703   4.902   4.994   0.461  0.3403 -0.2440 -0.4626
 2715TIP3    H129704   4.881   4.901   0.453  0.0676 -0.1536 -0.8599
 2715TIP3    H229705   4.969   4.998   0.528 -0.4378 -0.6193  0.3594
 2716TIP3   OH229706   0.141   4.091   8.438 -0.3947 -0.0519 -0.0554
 2716TIP3    H129707   0.202   4.163   8.456  0.3921 -0.4419 -1.0746
 2716TIP3    H229708   0.099   4.116   8.356 -1.4876  0.1127  0.5327
 2717TIP3   OH229709   0.410   6.446   2.905  0.4665  0.6873 -0.7937
 2717TIP3    H129710   0.358   6.371   2.936  2.3086 -0.8634 -1.2978
 2717TIP3    H229711   0.346   6.517   2.899 -0.7804  0.1291  2.8757
 2718TIP3   OH229712   1.114   2.155   1.451 -0.3573 -0.3826  0.2114
 2718TIP3    H129713   1.098   2.076   1.399 -1.0548 -1.0593  1.3995
 2718TIP3    H229714   1.027   2.184   1.479  0.0287 -0.4601  1.5715
 2719TIP3   OH229715   0.398   4.821   8.432 -0.0341  0.1616 -0.1682
 2719TIP3    H129716   0.481   4.782   8.460 -0.4425  0.4358  1.5397
 2719TIP3    H229717   0.415   4.915   8.428 -0.3198  0.2510  0.4937
 2720TIP3   OH229718   5.585   4.488   1.606 -0.5903 -0.0463  0.1643
 2720TIP3    H129719   5.658   4.550   1.602 -0.8945  0.3074  0.0707
 2720TIP3    H229720   5.522   4.521   1.542  0.4268 -2.0146 -2.0335
 2721TIP3   OH229721   2.859   2.548   2.750 -0.0972  0.0471  0.0752
 2721TIP3    H129722   2.829   2.639   2.746  0.0269  0.1364  0.8777
 2721TIP3    H229723   2.926   2.548   2.819 -0.2099 -0.6824  0.1939
 2722TIP3   OH229724   5.657   3.137   1.781  0.2556  0.2188 -0.0497
 2722TIP3    H129725   5.652   3.107   1.873 -0.5556 -1.0524 -0.4687
 2722TIP3    H229726   5.723   3.205   1.781 -1.7248  2.3135  2.0392
 2723TIP3   OH229727   6.509   4.245   7.831  0.1318 -0.0646  0.3458
 2723TIP3    H129728   6.485   4.277   7.918  0.0399  0.6274  0.0716
 2723TIP3    H229729   6.455   4.296   7.770  0.6441 -0.0986 -0.1471
 2724TIP3   OH229730   6.265   6.487   8.639  0.0895  0.4406  0.4764
 2724TIP3    H129731   6.182   6.493   8.686 -0.4556 -0.2961 -0.3660
 2724TIP3    H229732   6.280   6.575   8.605 -0.3134  0.5860  0.6660
 2725TIP3   OH229733   1.504   1.187   3.219  0.5739 -0.1999  0.1948
 2725TIP3    H129734   1.413   1.208   3.195  0.2944  0.0094  1.3511
 2725TIP3    H229735   1.545   1.273   3.232  1.3374 -0.2462 -1.6119
 2726TIP3   OH229736   3.342   4.993   0.707 -0.0775  0.0234 -0.0714
 2726TIP3    H129737   3.407   4.996   0.777  0.1179  0.5822 -0.2759
 2726TIP3    H229738   3.294   5.076   0.715  1.1430  0.9498 -1.7360
 2727TIP3   OH229739   2.762   6.662   8.326  0.3276 -0.2123 -0.0933
 2727TIP3    H129740   2.687   6.606   8.306  1.4065 -0.7244 -3.2279
 2727TIP3    H229741   2.836   6.602   8.332  1.1151  0.6019 -1.1576
 2728TIP3   OH229742   1.355   6.069   1.723  0.3510  0.4124  0.0419
 2728TIP3    H129743   1.428   6.065   1.662  0.6528  0.2036  0.4119
 2728TIP3    H229744   1.294   6.002   1.692  2.4143 -2.9142  2.3764
 2729TIP3   OH229745   4.370   2.410   7.843  0.2645  0.4682 -0.0297
 2729TIP3    H129746   4.315   2.341   7.806  0.8701 -0.9265  1.5431
 2729TIP3    H229747   4.451   2.406   7.792  0.0574  0.4893 -0.3684
 2730TIP3   OH229748   6.270   5.196   0.780 -0.1300 -0.4726  0.4665
 2730TIP3    H129749   6.204   5.149   0.831 -1.7360  0.7078 -0.4659
 2730TIP3    H229750   6.288   5.138   0.706 -0.3477 -0.6552  0.5534
 2731TIP3   OH229751   1.876   0.444   1.033  0.2201  0.0161 -0.2302
 2731TIP3    H129752   1.808   0.379   1.020 -0.5528  0.4925  1.1709
 2731TIP3    H229753   1.931   0.408   1.103  1.3030 -0.2622 -1.1934
 2732TIP3   OH229754   3.365   2.792   0.713 -0.0779 -0.2795 -0.5090
 2732TIP3    H129755   3.349   2.707   0.672  0.5053 -0.5910 -0.1175
 2732TIP3    H229756   3.460   2.803   0.709 -0.1166  0.1901 -0.2443
 2733TIP3   OH229757   0.902   1.808   1.830 -0.1056 -0.4247 -0.3674
 2733TIP3    H129758   0.899   1.809   1.734 -0.2274 -0.5444 -0.3642
 2733TIP3    H229759   0.989   1.774   1.851 -0.3687 -1.1455 -0.4314
 2734TIP3   OH229760   0.322   6.620   1.704  0.9768 -0.2387  1.1234
 2734TIP3    H129761   0.415   6.600   1.719  0.9858  0.6548  2.4292
 2734TIP3    H229762   0.287   6.640   1.791 -0.2442  0.2390  0.5476
 2735TIP3   OH229763   5.346   6.468   8.033  0.1313  0.2985 -0.6041
 2735TIP3    H129764   5.326   6.504   8.120  3.9503 -0.8092  0.9422
 2735TIP3    H229765   5.319   6.377   8.038 -1.0916  0.6169 -1.1900
 2736TIP3   OH229766   5.875   4.565   6.789  0.0214  0.2263  0.4551
 2736TIP3    H129767   5.856   4.486   6.839  1.9026 -1.5787 -1.5012
 2736TIP3    H229768   5.800   4.577   6.732  0.9981 -2.1084 -1.4846
 2737TIP3   OH229769   4.716   0.926   2.504  0.4851  0.7461  0.4789
 2737TIP3    H129770   4.685   0.843   2.466 -0.8297  2.6118 -2.9374
 2737TIP3    H229771   4.808   0.909   2.526  0.2501 -1.6335 -0.0478
 2738TIP3   OH229772   5.159   2.008   7.573  0.1060  0.4895  0.2495
 2738TIP3    H129773   5.127   1.922   7.547 -1.5425  1.1080  0.0961
 2738TIP3    H229774   5.233   2.025   7.515  0.7675 -0.9986  0.6035
 2739TIP3   OH229775   1.804   5.978   7.314  0.2381  0.6991  0.0160
 2739TIP3    H129776   1.879   6.036   7.303  1.7446 -1.2121 -0.2945
 2739TIP3    H229777   1.830   5.917   7.382 -0.2813 -1.1247 -1.3386
 2740TIP3   OH229778   1.603   5.369   7.815 -0.4340 -0.0093 -0.2346
 2740TIP3    H129779   1.575   5.290   7.862  1.6950  0.2950  1.7532
 2740TIP3    H229780   1.675   5.340   7.759 -0.4641  0.2866 -0.4291
 2741TIP3   OH229781   1.823   3.508   1.402  0.2017  0.2670 -0.3285
 2741TIP3    H129782   1.818   3.481   1.494 -2.3715 -1.2636 -0.8174
 2741TIP3    H229783   1.889   3.449   1.364 -1.3236 -1.6449 -0.1739
 2742TIP3   OH229784   5.411   1.546   1.639  0.2740  0.3654 -0.3826
 2742TIP3    H129785   5.407   1.483   1.710  4.3356 -1.0710 -1.1453
 2742TIP3    H229786   5.439   1.628   1.682 -2.1982  0.9601  0.2215
 2743TIP3   OH229787   2.569   6.595   1.449 -0.0816 -0.3351 -0.3057
 2743TIP3    H129788   2.644   6.595   1.508  0.2062  1.1085 -0.6305
 2743TIP3    H229789   2.603   6.563   1.365 -0.0875 -0.7395 -0.1526
 2744TIP3   OH229790   2.121   5.952   1.319 -0.4421 -0.0038  0.2226
 2744TIP3    H129791   2.145   6.036   1.358 -2.0417  1.0347 -0.8823
 2744TIP3    H229792   2.028   5.941   1.341 -0.0783 -1.9180  1.0407
 2745TIP3   OH229793   5.538   5.610   1.120 -0.3884  0.3617 -0.1005
 2745TIP3    H129794   5.504   5.689   1.079 -0.5771 -0.3508 -1.3715
 2745TIP3    H229795   5.536   5.544   1.051 -1.9887 -1.2620  1.3781
 2746TIP3   OH229796   5.406   0.233   1.466  0.3258 -0.1321  0.2837
 2746TIP3    H129797   5.346   0.161   1.488 -1.7599  1.0864 -0.9952
 2746TIP3    H229798   5.460   0.245   1.544 -0.2613 -2.1237  1.0520
 2747TIP3   OH229799   6.177   4.988   1.165 -0.0537  0.2958  0.0775
 2747TIP3    H129800   6.159   5.064   1.220 -2.3525 -1.1816  1.5069
 2747TIP3    H229801   6.250   4.943   1.208 -0.7573  0.0308  1.0124
 2748TIP3   OH229802   5.469   3.824   0.180  0.3484  0.5311  0.5211
 2748TIP3    H129803   5.453   3.738   0.218 -0.5405  1.0259  1.3094
 2748TIP3    H229804   5.428   3.885   0.241  0.0607  1.4471 -0.5580
 2749TIP3   OH229805   6.335   2.319   1.830  0.2433 -0.4698  0.3576
 2749TIP3    H129806   6.323   2.225   1.834 -1.2741 -0.2675  2.3344
 2749TIP3    H229807   6.337   2.347   1.922  2.9399  1.1937 -0.0982
 2750TIP3   OH229808   6.393   3.898   2.736 -0.1738  0.0036  0.2346
 2750TIP3    H129809   6.348   3.824   2.696 -2.0782  0.2334  1.8004
 2750TIP3    H229810   6.325   3.965   2.746  1.5071  2.0336 -1.1813
 2751TIP3   OH229811   2.195   3.737   0.086 -0.0026  0.1677 -0.0524
 2751TIP3    H129812   2.162   3.648   0.101  0.9181 -0.0979  0.4740
 2751TIP3    H229813   2.133   3.793   0.132 -1.8663  0.0279 -2.1882
 2752TIP3   OH229814   0.185   6.636   1.347  0.4471 -0.8871  0.5047
 2752TIP3    H129815   0.252   6.641   1.416  0.2341 -2.3887  0.8475
 2752TIP3    H229816   0.113   6.690   1.379  1.4237  0.6891  0.1675
 2753TIP3   OH229817   6.669   4.731   7.805 -0.4859  0.0543 -0.6838
 2753TIP3    H129818   6.741   4.669   7.795 -0.5073 -0.1162  0.1335
 2753TIP3    H229819   6.592   4.683   7.776 -0.5723 -0.4727  0.3766
 2754TIP3   OH229820   5.942   3.792   1.246  0.3453  0.1558  0.1698
 2754TIP3    H129821   5.974   3.728   1.182  1.1561  0.8651 -0.1659
 2754TIP3    H229822   5.944   3.875   1.198 -2.3289  0.2131  0.0491
 2755TIP3   OH229823   4.802   1.265   2.599 -0.3112 -0.3179 -0.0502
 2755TIP3    H129824   4.787   1.234   2.510  0.8545 -4.1972  0.9236
 2755TIP3    H229825   4.887   1.308   2.595 -1.4500  2.0394 -1.2207
 2756TIP3   OH229826   3.661   5.818   3.198 -0.3469 -0.0955  0.0202
 2756TIP3    H129827   3.730   5.874   3.163  0.2449 -0.2148  0.9677
 2756TIP3    H229828   3.684   5.730   3.170 -0.7650  0.0012 -0.6608
 2757TIP3   OH229829   0.094   6.766   1.606 -0.0565 -0.0896 -0.7085
 2757TIP3    H129830   0.173   6.715   1.622  0.5006  0.5458 -1.3797
 2757TIP3    H229831   0.048   6.766   1.690  1.0353  0.1819 -0.0937
 2758TIP3   OH229832   3.349   1.060   0.591  0.1402 -0.1173  0.3811
 2758TIP3    H129833   3.272   1.083   0.539 -0.1830 -1.4280  0.2329
 2758TIP3    H229834   3.421   1.059   0.528  0.0155 -0.2702  0.2402
 2759TIP3   OH229835   6.463   3.170   0.575  0.5690 -0.2052 -0.0267
 2759TIP3    H129836   6.432   3.120   0.500  1.3953 -0.8966  0.0775
 2759TIP3    H229837   6.492   3.104   0.638 -3.1476  0.1578  2.3664
 2760TIP3   OH229838   2.912   4.290   3.175  0.1812  0.2947  0.6492
 2760TIP3    H129839   2.858   4.369   3.187 -0.5397 -0.1715  0.5294
 2760TIP3    H229840   2.890   4.259   3.087 -0.6103 -0.8308  1.2216
 2761TIP3   OH229841   0.513   3.125   1.289 -0.0736  0.0440 -0.3266
 2761TIP3    H129842   0.460   3.048   1.308 -0.0804  0.1964  0.2999
 2761TIP3    H229843   0.449   3.196   1.281 -0.1518 -0.1772 -1.8658
 2762TIP3   OH229844   2.402   3.410   2.668 -0.0754  0.0391  0.2446
 2762TIP3    H129845   2.346   3.378   2.739 -1.0007 -1.5819 -1.1618
 2762TIP3    H229846   2.484   3.362   2.678  0.3261  0.8593  1.0348
 2763TIP3   OH229847   0.870   0.081   0.883  0.0962  0.1541  0.0940
 2763TIP3    H129848   0.801   0.038   0.933  0.9733 -2.7266 -0.9938
 2763TIP3    H229849   0.910   0.141   0.946 -0.4128 -1.5179  2.1591
 2764TIP3   OH229850   6.670   1.762   1.306  0.7151 -0.3869 -0.0692
 2764TIP3    H129851   6.709   1.838   1.263  0.0896  0.8541  1.4601
 2764TIP3    H229852   6.609   1.727   1.241 -0.0946  1.3214 -0.2938
 2765TIP3   OH229853   2.252   4.064   7.459 -0.3091  0.5379 -0.0215
 2765TIP3    H129854   2.276   3.993   7.518  1.5314  0.2469 -1.0738
 2765TIP3    H229855   2.196   4.023   7.393  2.2940 -0.4687 -1.7537
 2766TIP3   OH229856   3.259   2.708   0.399  0.0766 -0.1532 -0.3974
 2766TIP3    H129857   3.195   2.685   0.466 -0.0949  1.6526  0.1085
 2766TIP3    H229858   3.212   2.766   0.339  0.7217 -0.3177 -1.0820
 2767TIP3   OH229859   3.987   1.493   3.016  0.4585 -0.1522  0.6059
 2767TIP3    H129860   3.892   1.483   3.022  0.3207 -0.4163 -1.3339
 2767TIP3    H229861   4.003   1.584   3.040 -0.3861  0.1196  0.1765
 2768TIP3   OH229862   4.164   5.669   1.363 -0.0510 -0.1875  0.1236
 2768TIP3    H129863   4.126   5.704   1.444 -1.4516 -1.8324  0.2213
 2768TIP3    H229864   4.180   5.577   1.382  0.8521 -0.2947 -1.0630
 2769TIP3   OH229865   2.861   6.532   0.425 -0.4815  0.2324 -0.3018
 2769TIP3    H129866   2.870   6.606   0.365 -2.0357 -0.0151 -0.8882
 2769TIP3    H229867   2.927   6.469   0.396 -0.4665  0.5823 -1.0448
 2770TIP3   OH229868   2.035   2.341   7.763 -0.7923 -0.3690 -0.1032
 2770TIP3    H129869   2.065   2.422   7.806  0.9183 -1.8206  1.6336
 2770TIP3    H229870   2.108   2.316   7.706 -0.2013 -1.9413  1.2599
 2771TIP3   OH229871   0.192   5.202   2.154  0.6908  0.6457  0.0067
 2771TIP3    H129872   0.156   5.291   2.157 -0.3305  0.2524 -0.1669
 2771TIP3    H229873   0.196   5.175   2.246  2.0036  1.2401  0.1491
 2772TIP3   OH229874   4.292   3.722   0.636 -0.5143  0.0803 -0.0801
 2772TIP3    H129875   4.218   3.783   0.638 -1.2953 -0.8425  0.0924
 2772TIP3    H229876   4.272   3.663   0.563  0.9080  0.8261 -1.1247
 2773TIP3   OH229877   3.079   5.947   0.138  0.2465 -0.0757 -0.2343
 2773TIP3    H129878   2.998   5.938   0.088  0.8766 -1.3013 -1.0991
 2773TIP3    H229879   3.120   6.026   0.103 -0.3075  0.2605 -0.1520
 2774TIP3   OH229880   4.606   3.663   2.631  0.1672 -0.2203 -0.4486
 2774TIP3    H129881   4.632   3.571   2.636 -0.8901 -0.4780  1.0593
 2774TIP3    H229882   4.551   3.677   2.708  1.0300  1.9232 -0.1267
 2775TIP3   OH229883   0.915   0.259   7.616  0.0664  0.6772 -0.3195
 2775TIP3    H129884   1.000   0.298   7.596  0.6053  0.3475  1.1811
 2775TIP3    H229885   0.905   0.189   7.552  2.1795 -1.0092  1.0148
 2776TIP3   OH229886   2.632   5.746   8.579 -0.1793  0.2052  0.6381
 2776TIP3    H129887   2.595   5.661   8.603  1.5191 -0.1679  2.1707
 2776TIP3    H229888   2.625   5.798   8.659 -2.6888  2.1746 -0.7019
 2777TIP3   OH229889   3.175   4.366   1.146  0.5657 -0.1809  0.1133
 2777TIP3    H129890   3.132   4.407   1.071  1.4218  0.7904  0.1360
 2777TIP3    H229891   3.128   4.400   1.222  0.2144 -0.5359  0.0552
 2778TIP3   OH229892   5.408   4.189   7.204  0.0185  0.4802 -0.1622
 2778TIP3    H129893   5.460   4.245   7.261 -2.4514  2.8661 -0.0333
 2778TIP3    H229894   5.384   4.114   7.260  0.1959  1.2394  0.9635
 2779TIP3   OH229895   3.599   4.360   1.491  0.6760 -0.5084  0.2440
 2779TIP3    H129896   3.660   4.430   1.468  2.5565 -1.7170  1.2114
 2779TIP3    H229897   3.558   4.335   1.409  0.2050  1.4813 -0.1613
 2780TIP3   OH229898   2.289   3.042   7.387  0.2962  0.4043 -0.5207
 2780TIP3    H129899   2.238   3.060   7.307  1.3032 -0.5491 -1.4141
 2780TIP3    H229900   2.225   3.002   7.447 -0.7047  2.0191 -0.4528
 2781TIP3   OH229901   4.581   0.118   2.594  0.1323  0.3102  0.3188
 2781TIP3    H129902   4.567   0.062   2.670 -0.7105  1.6099  1.1672
 2781TIP3    H229903   4.554   0.205   2.623 -1.3450  0.6419 -1.8099
 2782TIP3   OH229904   3.024   4.329   7.517  0.0918 -0.0247 -0.1423
 2782TIP3    H129905   3.106   4.367   7.547  0.6712 -1.3992  0.0702
 2782TIP3    H229906   3.049   4.246   7.475 -1.0728  0.0541 -1.0624
 2783TIP3   OH229907   3.888   6.678   0.139 -0.0936 -0.3403 -0.1826
 2783TIP3    H129908   3.932   6.744   0.085  0.4951  1.2061  2.0502
 2783TIP3    H229909   3.946   6.602   0.138  0.8702  0.3864 -0.1545
 2784TIP3   OH229910   2.795   0.781   3.205 -0.4510  0.2886 -0.5236
 2784TIP3    H129911   2.845   0.801   3.126  1.2118  0.3374  0.4944
 2784TIP3    H229912   2.739   0.858   3.218 -1.2683 -0.0288 -2.0137
 2785TIP3   OH229913   0.718   6.439   1.373 -0.4745 -0.1942  0.0490
 2785TIP3    H129914   0.779   6.368   1.352  0.1990 -0.0567  1.4494
 2785TIP3    H229915   0.632   6.402   1.355 -0.0913 -1.0905 -0.0002
 2786TIP3   OH229916   1.829   3.038   0.514  0.2467  0.1385  0.3627
 2786TIP3    H129917   1.861   3.062   0.427  1.0362 -0.5839  0.4422
 2786TIP3    H229918   1.734   3.031   0.504  0.2294  1.0284 -0.2001
 2787TIP3   OH229919   4.233   2.186   7.789  0.1196  0.9459  0.0889
 2787TIP3    H129920   4.165   2.122   7.808  0.3033  0.8809  0.5413
 2787TIP3    H229921   4.290   2.144   7.724 -0.4882  1.1513 -0.5904
 2788TIP3   OH229922   2.995   5.902   1.550  0.4306 -0.1774 -0.8279
 2788TIP3    H129923   3.081   5.917   1.589  0.2429 -0.6756 -0.2165
 2788TIP3    H229924   2.978   5.808   1.563 -0.4279  0.0169 -0.4837
 2789TIP3   OH229925   1.697   2.570   8.033 -1.0521 -0.2329  0.3592
 2789TIP3    H129926   1.773   2.628   8.037 -0.1300 -1.3083 -0.7517
 2789TIP3    H229927   1.652   2.584   8.116  0.6148  0.1182  1.2555
 2790TIP3   OH229928   4.074   4.677   7.900 -0.2130  0.6143  0.1110
 2790TIP3    H129929   3.978   4.673   7.904 -0.1890 -0.4223 -0.1785
 2790TIP3    H229930   4.096   4.641   7.814  0.4693  0.1894  0.4545
 2791TIP3   OH229931   1.928   3.289   0.665 -0.2707 -0.3804  0.0170
 2791TIP3    H129932   1.946   3.305   0.757  2.1344 -0.6548 -0.3283
 2791TIP3    H229933   1.856   3.225   0.665 -1.1445  0.5447  1.6315
 2792TIP3   OH229934   5.908   5.400   7.796 -0.0515  0.1384 -0.0197
 2792TIP3    H129935   5.823   5.426   7.832  0.5605 -1.1342  2.5933
 2792TIP3    H229936   5.887   5.337   7.727 -1.2624 -1.2009  1.4812
 2793TIP3   OH229937   6.268   6.798   0.353  0.5859  0.5260 -0.3464
 2793TIP3    H129938   6.322   6.775   0.428 -1.7457 -0.0534  1.2517
 2793TIP3    H229939   6.213   6.870   0.384  0.9898  1.7366 -2.2138
 2794TIP3   OH229940   1.545   4.111   0.937 -0.5556 -0.9950 -0.1945
 2794TIP3    H129941   1.498   4.152   1.009 -0.6724  0.7351 -1.2086
 2794TIP3    H229942   1.567   4.023   0.969 -2.4693 -1.0447  1.1340
 2795TIP3   OH229943   6.256   0.568   1.745  0.1897 -1.0441 -0.2545
 2795TIP3    H129944   6.166   0.575   1.714  0.4494 -0.2250 -0.8630
 2795TIP3    H229945   6.249   0.567   1.841 -0.4727 -1.2585 -0.3007
 2796TIP3   OH229946   4.101   4.589   7.599  0.1046  0.2313 -0.5283
 2796TIP3    H129947   4.118   4.667   7.547  0.3352  0.2523 -0.4214
 2796TIP3    H229948   4.126   4.516   7.542 -0.4762  0.2154 -0.7736
 2797TIP3   OH229949   6.844   1.319   1.682  0.6844 -0.0599 -0.3936
 2797TIP3    H129950   6.939   1.331   1.675  0.5533  1.0351 -0.5193
 2797TIP3    H229951   6.823   1.344   1.772  0.3949  0.6793 -0.6572
 2798TIP3   OH229952   1.770   0.374   0.053  0.2866 -0.6169  0.3070
 2798TIP3    H129953   1.793   0.290   0.091  0.6033 -1.3461 -1.4443
 2798TIP3    H229954   1.680   0.363   0.024  0.0017 -0.0155  0.9219
 2799TIP3   OH229955   4.602   6.221   0.985 -0.2436 -0.2161 -0.5040
 2799TIP3    H129956   4.530   6.234   0.923 -1.3357 -0.1059  0.7325
 2799TIP3    H229957   4.561   6.229   1.071  1.0818 -1.1254  0.2487
 2800TIP3   OH229958   3.225   1.152   8.131  0.1864 -0.1752 -0.4263
 2800TIP3    H129959   3.131   1.134   8.128  0.2264 -0.3333 -0.8939
 2800TIP3    H229960   3.263   1.073   8.170  0.3213 -0.9894 -2.1215
 2801TIP3   OH229961   1.732   4.064   1.992 -0.0453  0.0294 -0.4664
 2801TIP3    H129962   1.663   4.044   2.057  2.2060 -0.1885  2.0203
 2801TIP3    H229963   1.754   3.979   1.955  0.7819 -0.3626  0.8385
 2802TIP3   OH229964   1.708   6.232   2.211  0.0255  0.0410 -0.1004
 2802TIP3    H129965   1.711   6.153   2.264 -1.5426 -0.2111 -0.3303
 2802TIP3    H229966   1.625   6.274   2.236  0.3075  1.0302 -0.7812
 2803TIP3   OH229967   5.580   5.519   8.234  0.4027 -0.3476 -0.4631
 2803TIP3    H129968   5.549   5.534   8.324  0.1900 -0.9678 -0.4277
 2803TIP3    H229969   5.553   5.429   8.215  1.0036 -0.4283 -0.9250
 2804TIP3   OH229970   1.135   1.796   2.207  0.9724 -0.2469  0.7029
 2804TIP3    H129971   1.200   1.804   2.276  1.9289 -1.4015 -0.0262
 2804TIP3    H229972   1.136   1.881   2.163  0.4351  0.4624  1.9935
 2805TIP3   OH229973   1.705   0.747   7.231 -0.8766 -0.3239  0.7275
 2805TIP3    H129974   1.722   0.701   7.150 -0.4890  0.3914  0.3905
 2805TIP3    H229975   1.789   0.745   7.278  0.1440  2.7290 -0.6913
 2806TIP3   OH229976   3.227   6.409   7.798 -0.2638  0.2032  0.1168
 2806TIP3    H129977   3.160   6.342   7.797  0.5217 -0.6056 -1.0135
 2806TIP3    H229978   3.310   6.361   7.806  0.2659  1.0752  0.0846
 2807TIP3   OH229979   6.638   3.266   7.975 -0.2276 -0.4988 -0.1084
 2807TIP3    H129980   6.682   3.266   8.060 -0.0129 -1.5431 -0.2128
 2807TIP3    H229981   6.664   3.349   7.935 -0.6444  0.1832  0.9938
 2808TIP3   OH229982   4.702   0.275   8.669  0.0595 -0.3658  0.5692
 2808TIP3    H129983   4.676   0.284   8.577  0.5164 -0.8226  0.3916
 2808TIP3    H229984   4.635   0.219   8.707  0.9098 -1.7885  0.0403
 2809TIP3   OH229985   6.444   1.038   0.704  0.4612 -0.3883  0.3284
 2809TIP3    H129986   6.378   1.018   0.771  1.1492 -0.9491  0.8514
 2809TIP3    H229987   6.396   1.032   0.621 -0.6031  1.1352  0.7807
 2810TIP3   OH229988   3.100   1.113   1.618 -1.0283  0.3134 -0.2521
 2810TIP3    H129989   3.138   1.169   1.551 -0.6883  1.0220  0.5098
 2810TIP3    H229990   3.087   1.028   1.575 -0.0780  0.5217 -0.9765
 2811TIP3   OH229991   5.680   2.628   3.381 -0.3632 -0.2877  0.3087
 2811TIP3    H129992   5.698   2.696   3.446  0.1169 -1.5400  1.5594
 2811TIP3    H229993   5.766   2.594   3.358 -0.6486 -1.2178  0.5732
 2812TIP3   OH229994   2.122   2.048   2.500  0.0247 -0.4412 -0.1543
 2812TIP3    H129995   2.044   2.085   2.543  0.1077  1.8887 -1.8075
 2812TIP3    H229996   2.109   1.953   2.504 -1.5101 -0.2113  2.0675
 2813TIP3   OH229997   5.275   3.024   3.772 -0.0926  0.3758 -0.0201
 2813TIP3    H129998   5.269   3.116   3.799  0.3927  1.2217 -2.4898
 2813TIP3    H229999   5.206   3.014   3.707  1.1434 -0.4156 -1.2654
 2814TIP3   OH230000   4.157   1.918   1.513  0.2617  0.3210 -0.5748
 2814TIP3    H130001   4.076   1.942   1.559  0.8549  1.4749 -0.0886
 2814TIP3    H230002   4.201   1.857   1.572  1.4505  2.4846  0.8827
 2815TIP3   OH230003   4.536   3.621   2.318 -0.2629 -0.3645  0.1199
 2815TIP3    H130004   4.563   3.704   2.356  0.7796 -0.8142  0.3963
 2815TIP3    H230005   4.460   3.594   2.370  1.3512 -1.1615  2.2225
 2816TIP3   OH230006   3.749   5.831   7.790  0.0828 -0.1217  0.0422
 2816TIP3    H130007   3.671   5.810   7.738  1.0760 -0.0221 -1.5505
 2816TIP3    H230008   3.719   5.896   7.854 -1.3728 -0.9206  0.2061
 2817TIP3   OH230009   4.984   4.590   8.596 -0.1060 -0.0484 -0.2444
 2817TIP3    H130010   5.058   4.598   8.536  0.3435  0.7543  0.3954
 2817TIP3    H230011   4.984   4.672   8.645 -0.5647 -0.6162  0.7388
 2818TIP3   OH230012   4.170   3.984   2.699  0.1069  0.6248 -0.0641
 2818TIP3    H130013   4.147   3.892   2.687 -2.0491  1.2355 -1.1053
 2818TIP3    H230014   4.265   3.986   2.688  0.4015 -1.6374  1.3822
 2819TIP3   OH230015   3.409   6.511   3.008  0.2815 -0.0739  0.1263
 2819TIP3    H130016   3.317   6.510   2.983  0.1956  1.7788  0.2370
 2819TIP3    H230017   3.433   6.419   3.014 -1.1439 -0.5950 -1.4178
 2820TIP3   OH230018   4.941   0.376   0.981 -0.5336  0.4857 -0.6064
 2820TIP3    H130019   4.927   0.302   0.922 -3.1628 -0.1229  0.6497
 2820TIP3    H230020   5.021   0.353   1.029 -1.2450 -1.5321 -0.2891
 2821TIP3   OH230021   0.801   3.106   0.057 -0.2310 -0.3404  0.8477
 2821TIP3    H130022   0.721   3.157   0.066 -1.5637 -1.9465 -1.0822
 2821TIP3    H230023   0.814   3.066   0.143 -3.7462 -3.0938  0.3331
 2822TIP3   OH230024   6.330   6.842   0.094  0.7218 -0.2386  0.0827
 2822TIP3    H130025   6.306   6.817   0.183 -0.5533  0.2535 -0.0942
 2822TIP3    H230026   6.398   6.909   0.105  1.0849 -0.6958  0.6583
 2823TIP3   OH230027   3.762   5.171   8.150 -0.0445  0.0526 -0.2773
 2823TIP3    H130028   3.719   5.256   8.162 -0.0751  0.0447 -0.3319
 2823TIP3    H230029   3.773   5.137   8.239  1.7781  0.9995 -0.0941
 2824TIP3   OH230030   0.331   0.919   2.567  0.1694  0.4262  0.3008
 2824TIP3    H130031   0.393   0.984   2.597  0.1147  0.9262 -0.6205
 2824TIP3    H230032   0.385   0.845   2.538  0.2401  0.1398  1.1310
 2825TIP3   OH230033   2.247   0.256   1.783 -0.3694  0.1383  0.2991
 2825TIP3    H130034   2.220   0.165   1.771 -0.5570 -0.0812  2.1010
 2825TIP3    H230035   2.170   0.299   1.820 -0.5962  1.2985 -1.3711
 2826TIP3   OH230036   1.507   2.197   0.040  0.0163  0.1231  0.8501
 2826TIP3    H130037   1.447   2.182   0.112  0.3035 -0.7793  0.9083
 2826TIP3    H230038   1.593   2.175   0.075  0.0108 -1.6522 -0.1243
 2827TIP3   OH230039   2.934   2.307   2.623  0.2661  0.0986  0.4390
 2827TIP3    H130040   2.900   2.390   2.657 -1.0820  0.1807 -0.9448
 2827TIP3    H230041   3.003   2.332   2.562  2.4306 -0.0317  2.7088
 2828TIP3   OH230042   1.700   4.500   1.049 -0.1526  0.2061 -0.7291
 2828TIP3    H130043   1.613   4.498   1.009 -0.4031 -1.5340 -0.1943
 2828TIP3    H230044   1.687   4.549   1.130 -0.9351 -1.0118 -0.0823
 2829TIP3   OH230045   2.329   4.689   1.203 -0.3483  0.4177 -0.2606
 2829TIP3    H130046   2.410   4.673   1.250 -0.7484 -0.8850  0.0322
 2829TIP3    H230047   2.356   4.728   1.119  0.5632  0.0383 -0.1455
 2830TIP3   OH230048   2.051   5.500   3.243 -0.0770 -0.6200  0.2081
 2830TIP3    H130049   2.009   5.425   3.285 -0.4978 -1.2991 -1.3671
 2830TIP3    H230050   2.122   5.463   3.191  0.7430  0.2531  0.6579
 2831TIP3   OH230051   4.689   5.447   7.770 -0.1996  0.0833  0.4088
 2831TIP3    H130052   4.675   5.357   7.739 -1.2089 -0.3733  2.0493
 2831TIP3    H230053   4.661   5.502   7.696 -2.3035 -0.9480  0.3544
 2832TIP3   OH230054   6.625   2.623   2.668 -0.1756  0.0026  0.0221
 2832TIP3    H130055   6.678   2.617   2.588 -1.6608 -2.1038 -0.9014
 2832TIP3    H230056   6.545   2.668   2.641  0.1344  1.0957  0.8544
 2833TIP3   OH230057   6.627   0.194   3.104 -0.2719  0.3980 -0.0462
 2833TIP3    H130058   6.643   0.223   3.194  0.4255 -0.8343  0.2549
 2833TIP3    H230059   6.550   0.138   3.110 -0.0762  0.1138 -0.1738
 2834TIP3   OH230060   1.101   1.347   1.767  0.1133  0.3721 -0.0026
 2834TIP3    H130061   1.031   1.317   1.709  0.9870 -1.1460 -0.3506
 2834TIP3    H230062   1.075   1.316   1.854  0.8972 -1.3294 -0.3247
 2835TIP3   OH230063   5.769   0.809   2.635 -0.9504 -0.8140  0.5518
 2835TIP3    H130064   5.679   0.840   2.621 -0.5647 -0.6425 -1.9335
 2835TIP3    H230065   5.759   0.714   2.646 -1.5816 -0.5780  2.3141
 2836TIP3   OH230066   4.521   1.258   2.040  0.5055 -0.8498 -0.3118
 2836TIP3    H130067   4.553   1.234   1.953  1.6182 -2.0457  0.3942
 2836TIP3    H230068   4.600   1.267   2.094  0.0397  2.3393  0.0513
 2837TIP3   OH230069   1.920   2.931   7.851 -0.2206 -0.0532 -0.1058
 2837TIP3    H130070   1.940   2.898   7.764  2.7527 -1.3986  0.9423
 2837TIP3    H230071   1.930   2.855   7.908 -0.6427  1.1065  1.5933
 2838TIP3   OH230072   0.676   5.219   7.560  0.4771 -0.1958  0.5377
 2838TIP3    H130073   0.590   5.201   7.597  0.7174 -1.7116  0.4062
 2838TIP3    H230074   0.696   5.143   7.506  1.3548  0.7139 -0.4613
 2839TIP3   OH230075   5.317   3.079   0.980  0.2140  0.1222  0.1253
 2839TIP3    H130076   5.227   3.073   0.947 -0.3173  3.0055  0.8187
 2839TIP3    H230077   5.316   3.031   1.063 -0.2379 -1.1538 -0.5856
 2840TIP3   OH230078   6.639   0.308   2.836 -0.3339 -0.1761 -0.2728
 2840TIP3    H130079   6.568   0.372   2.826 -0.4503 -0.2587 -0.0006
 2840TIP3    H230080   6.633   0.281   2.928  0.2782  0.0815 -0.1543
 2841TIP3   OH230081   5.408   1.788   1.051 -0.3756 -0.0071  0.5815
 2841TIP3    H130082   5.355   1.866   1.069 -0.0688  0.8495 -1.7965
 2841TIP3    H230083   5.355   1.737   0.990 -0.0184 -1.0082  1.1001
 2842TIP3   OH230084   2.043   2.305   0.340 -0.3840  0.2479  0.4038
 2842TIP3    H130085   1.952   2.292   0.367 -0.5301 -0.0719 -0.2122
 2842TIP3    H230086   2.093   2.245   0.396 -0.4469  1.0546  1.3388
 2843TIP3   OH230087   5.540   5.088   8.593  0.0888 -0.4823  0.0310
 2843TIP3    H130088   5.479   5.033   8.544  0.6263 -1.2166  0.1496
 2843TIP3    H230089   5.496   5.172   8.603 -0.5397 -0.7300 -0.6189
 2844TIP3   OH230090   0.635   3.809   0.793 -0.3109 -0.2449  0.6510
 2844TIP3    H130091   0.546   3.803   0.758  0.0105  0.0680 -0.2512
 2844TIP3    H230092   0.691   3.804   0.716  0.4356  0.1342  1.1581
 2845TIP3   OH230093   1.644   5.050   1.418  0.2459 -0.0892  0.6025
 2845TIP3    H130094   1.719   4.992   1.403  0.6668  0.4078  0.7667
 2845TIP3    H230095   1.591   5.041   1.338  0.7586 -0.0235  0.2463
 2846TIP3   OH230096   2.012   4.121   8.628 -0.1143  0.7287  0.1912
 2846TIP3    H130097   2.076   4.107   8.559 -0.3983 -1.2857  0.2878
 2846TIP3    H230098   1.964   4.200   8.601  1.3933  1.4127 -0.6100
 2847TIP3   OH230099   5.959   2.079   0.386 -0.5307  0.0864 -0.0802
 2847TIP3    H130100   6.004   2.022   0.325  0.3754  0.6398  0.0580
 2847TIP3    H230101   5.876   2.100   0.343  0.1297  0.5413 -1.1662
 2848TIP3   OH230102   3.807   4.215   8.073 -0.0876  0.0863 -0.7977
 2848TIP3    H130103   3.731   4.223   8.130  0.0150 -0.5797 -0.5680
 2848TIP3    H230104   3.782   4.262   7.993 -0.8455 -0.3557 -0.8265
 2849TIP3   OH230105   5.912   4.463   7.977 -0.3677  0.3427  0.0787
 2849TIP3    H130106   5.851   4.530   7.943 -0.1953 -0.2567 -1.4983
 2849TIP3    H230107   5.864   4.422   8.049 -1.2258  0.9095 -0.1484
 2850TIP3   OH230108   4.081   1.525   8.347 -0.4510 -0.5763 -0.4010
 2850TIP3    H130109   4.037   1.609   8.359  2.4766  1.0665 -0.2766
 2850TIP3    H230110   4.128   1.510   8.429  0.6017 -1.3318 -1.1068
 2851TIP3   OH230111   0.992   4.851   0.220 -0.1752  0.2289  0.3853
 2851TIP3    H130112   0.933   4.925   0.207  0.8172  0.9927  0.1049
 2851TIP3    H230113   0.968   4.816   0.305  0.3010  1.7860  1.1879
 2852TIP3   OH230114   2.900   2.425   0.737 -0.0299 -0.1073  0.4423
 2852TIP3    H130115   2.935   2.359   0.677 -0.0540  0.7815 -0.5826
 2852TIP3    H230116   2.908   2.386   0.824  1.5272 -0.7842  0.0232
 2853TIP3   OH230117   1.814   1.179   3.140 -0.1627 -0.1505 -0.3977
 2853TIP3    H130118   1.781   1.259   3.179  1.9711  0.7527 -0.3211
 2853TIP3    H230119   1.802   1.112   3.208 -0.0249  0.5594  0.3325
 2854TIP3   OH230120   0.770   3.586   1.863  0.5681  0.0855  0.3106
 2854TIP3    H130121   0.754   3.646   1.790  1.0983 -0.1946 -0.0395
 2854TIP3    H230122   0.683   3.564   1.896  0.2279 -0.9180 -1.1612
 2855TIP3   OH230123   2.275   0.561   2.752  0.4477 -0.1136 -0.1051
 2855TIP3    H130124   2.220   0.485   2.734 -0.8943  0.1103  2.5664
 2855TIP3    H230125   2.240   0.630   2.696  0.4053 -0.8980 -1.0853
 2856TIP3   OH230126   4.025   1.530   1.879 -0.3468  0.2451 -0.2054
 2856TIP3    H130127   4.117   1.556   1.872  0.1280 -0.1202  3.1816
 2856TIP3    H230128   3.980   1.607   1.912 -0.8832 -0.1789  0.0680
 2857TIP3   OH230129   2.069   1.397   1.313 -0.1794  0.8652  0.0180
 2857TIP3    H130130   2.087   1.483   1.351 -0.3403  0.8992  0.0170
 2857TIP3    H230131   2.097   1.335   1.380  1.2090  0.8848 -0.5136
 2858TIP3   OH230132   4.871   0.963   0.486 -0.3144 -0.3955 -0.2444
 2858TIP3    H130133   4.838   0.962   0.396 -0.4557 -0.0620 -0.2003
 2858TIP3    H230134   4.963   0.939   0.479 -0.6961 -1.9531 -0.3041
 2859TIP3   OH230135   3.130   5.840   0.712  0.1233 -0.1572  0.2203
 2859TIP3    H130136   3.158   5.850   0.621 -0.0484  0.3801  0.2212
 2859TIP3    H230137   3.133   5.929   0.747 -0.4622 -0.2668  0.5533
 2860TIP3   OH230138   3.225   3.775   8.032  0.3840  0.0033 -0.2839
 2860TIP3    H130139   3.264   3.748   7.949  0.0197  1.8844 -1.1182
 2860TIP3    H230140   3.175   3.854   8.010  2.5928  2.2650  2.2467
 2861TIP3   OH230141   5.718   0.659   0.152  0.3471  0.1562  0.3690
 2861TIP3    H130142   5.718   0.612   0.069 -0.1334  1.9014 -0.6625
 2861TIP3    H230143   5.787   0.725   0.142 -0.7040  1.3524  0.7645
 2862TIP3   OH230144   4.681   0.102   1.246  0.1812  0.0208 -0.2395
 2862TIP3    H130145   4.690   0.107   1.151 -1.1076 -2.5332 -0.5838
 2862TIP3    H230146   4.622   0.173   1.269 -0.0687  0.2186 -1.4329
 2863TIP3   OH230147   1.491   3.471   1.489  0.2036 -0.0133  0.4342
 2863TIP3    H130148   1.531   3.408   1.430  0.7222  0.5673  0.1582
 2863TIP3    H230149   1.510   3.556   1.450 -2.4568  0.2568 -0.4299
 2864TIP3   OH230150   5.299   1.227   2.491 -0.7428  0.3716 -0.1424
 2864TIP3    H130151   5.319   1.179   2.411  0.9499 -0.7945  0.8867
 2864TIP3    H230152   5.374   1.286   2.502 -0.3691 -0.2911  1.1120
 2865TIP3   OH230153   6.766   4.267   0.924  0.1082 -0.2001  0.2501
 2865TIP3    H130154   6.700   4.287   0.990 -0.5340 -0.7702 -0.2068
 2865TIP3    H230155   6.843   4.317   0.951  0.2010 -1.2453  2.0158
 2866TIP3   OH230156   6.315   0.765   2.239 -0.2594  0.1609  0.1450
 2866TIP3    H130157   6.272   0.810   2.312 -0.9131  1.6510 -1.1006
 2866TIP3    H230158   6.406   0.756   2.267 -0.9852 -1.6551  2.1904
 2867TIP3   OH230159   1.146   1.628   1.964 -0.2014  0.1656 -0.7208
 2867TIP3    H130160   1.140   1.537   1.996  0.1192  0.1535 -0.6953
 2867TIP3    H230161   1.177   1.678   2.039  1.7054 -0.0499 -1.3191
 2868TIP3   OH230162   4.740   5.305   1.209 -0.5327  0.3080 -0.0188
 2868TIP3    H130163   4.658   5.263   1.184 -0.4696  0.4578 -0.4854
 2868TIP3    H230164   4.752   5.281   1.301 -0.0653 -1.4058 -0.4873
 2869TIP3   OH230165   5.299   4.066   8.259  0.3834  0.6689 -0.3245
 2869TIP3    H130166   5.298   3.978   8.297  0.3863  0.6948 -0.2635
 2869TIP3    H230167   5.388   4.098   8.275 -0.0241  1.2442  0.9739
 2870TIP3   OH230168   3.114   2.454   1.016 -0.7531  0.3851 -0.6120
 2870TIP3    H130169   3.124   2.544   1.046 -0.1871  0.3176 -0.5792
 2870TIP3    H230170   3.203   2.425   0.996 -1.0252  0.1571 -1.5740
 2871TIP3   OH230171   0.011   3.799   8.526  0.0946 -0.5544  0.2872
 2871TIP3    H130172   0.100   3.825   8.549  0.7100 -2.8051  0.6867
 2871TIP3    H230173   0.004   3.818   8.432 -0.6924  3.9266  1.0312
 2872TIP3   OH230174   5.772   1.057   0.200  0.3858 -0.1133  0.1856
 2872TIP3    H130175   5.711   1.015   0.261 -0.0663  3.5003  2.5789
 2872TIP3    H230176   5.856   1.055   0.246  0.6217  0.4091 -0.2144
 2873TIP3   OH230177   0.079   0.388   1.565 -0.4920 -0.1277  0.7578
 2873TIP3    H130178   0.130   0.382   1.484  2.3844  1.6756  2.2521
 2873TIP3    H230179   0.066   0.482   1.577 -0.8564 -0.3663  2.3757
 2874TIP3   OH230180   0.661   3.596   1.437  0.3067 -0.4927 -0.0789
 2874TIP3    H130181   0.680   3.611   1.344 -1.0627  0.2969 -0.2574
 2874TIP3    H230182   0.566   3.604   1.444  0.4674  0.4818  1.5548
 2875TIP3   OH230183   3.849   4.233   1.176 -0.3230 -0.0545  0.3242
 2875TIP3    H130184   3.845   4.258   1.084 -2.0376 -2.2893 -0.3086
 2875TIP3    H230185   3.941   4.215   1.193  0.1230  1.1599 -0.7047
 2876TIP3   OH230186   4.050   1.327   1.406 -0.2241 -0.0240 -0.6181
 2876TIP3    H130187   3.986   1.257   1.415  1.8079 -1.8774  0.6503
 2876TIP3    H230188   4.040   1.379   1.485  0.0854 -0.5903 -0.1921
 2877TIP3   OH230189   3.387   5.485   0.328 -0.4056 -0.3638 -0.0964
 2877TIP3    H130190   3.468   5.517   0.367 -1.0217 -0.3550  1.2228
 2877TIP3    H230191   3.380   5.394   0.359 -0.7323 -0.4659 -0.4687
 2878TIP3   OH230192   1.521   1.129   2.663 -0.3174 -0.2683 -0.0832
 2878TIP3    H130193   1.469   1.139   2.583 -0.6288 -1.1332  0.0034
 2878TIP3    H230194   1.610   1.155   2.637 -0.1838 -1.5317 -1.0098
 2879TIP3   OH230195   2.056   2.411   1.581  0.0022 -0.0818  0.9012
 2879TIP3    H130196   2.143   2.451   1.581  0.2446 -0.5681 -0.1219
 2879TIP3    H230197   1.999   2.478   1.543 -0.1581  0.3743  1.9042
 2880TIP3   OH230198   5.357   0.195   1.917 -0.1817 -0.4161  0.1418
 2880TIP3    H130199   5.306   0.133   1.864  0.5660 -0.4924 -0.5014
 2880TIP3    H230200   5.302   0.212   1.993 -1.1167 -0.5902 -0.4805
 2881TIP3   OH230201   4.195   1.939   0.361  0.2546  0.0718  0.7568
 2881TIP3    H130202   4.236   2.002   0.420 -0.6174  0.0914  1.3640
 2881TIP3    H230203   4.221   1.853   0.395  0.9794  0.0820  0.2628
 2882TIP3   OH230204   4.256   5.714   0.877  0.3912 -0.4046 -0.5857
 2882TIP3    H130205   4.317   5.725   0.803  0.9023  1.7529  0.0775
 2882TIP3    H230206   4.175   5.684   0.836  1.0304 -0.4683 -1.8791
 2883TIP3   OH230207   3.244   0.794   7.744  0.4312 -0.4414 -0.3008
 2883TIP3    H130208   3.268   0.788   7.652  1.5912  0.3315 -0.0595
 2883TIP3    H230209   3.192   0.715   7.760  1.2723 -1.2184 -1.3028
 2884TIP3   OH230210   2.431   0.772   1.048  0.1368 -0.3297 -0.1536
 2884TIP3    H130211   2.431   0.719   0.968  0.5698 -0.3428 -0.1498
 2884TIP3    H230212   2.472   0.715   1.113  0.2798 -0.1194 -0.0596
 2885TIP3   OH230213   6.724   0.977   8.686 -0.3485 -0.2097 -0.1334
 2885TIP3    H130214   6.775   0.906   8.723 -1.4169 -1.9031 -1.7523
 2885TIP3    H230215   6.785   1.023   8.627 -0.4362 -1.7573 -1.4869
 2886TIP3   OH230216   2.206   1.682   2.209  0.1550 -0.0044  0.3941
 2886TIP3    H130217   2.265   1.650   2.142 -1.2494  0.1517 -0.9686
 2886TIP3    H230218   2.247   1.762   2.242  1.3966 -0.6766  0.5249
 2887TIP3   OH230219   3.236   2.460   1.805  0.1151  0.1394 -0.2089
 2887TIP3    H130220   3.188   2.420   1.732 -1.4396  1.4276  0.0530
 2887TIP3    H230221   3.232   2.554   1.788  0.6306  0.3994  0.9889
 2888TIP3   OH230222   2.471   3.825   2.259 -0.5837  0.0255  0.3488
 2888TIP3    H130223   2.482   3.912   2.297 -0.7712  0.9703 -1.6453
 2888TIP3    H230224   2.557   3.784   2.268  0.0217  1.1068 -0.2758
 2889TIP3   OH230225   2.807   0.073   1.096 -0.3959  0.1166 -0.4329
 2889TIP3    H130226   2.779  -0.007   1.139  0.2591  0.8483  1.4395
 2889TIP3    H230227   2.846   0.044   1.014 -0.5092 -1.4357  0.0380
 2890TIP3   OH230228   1.405   6.111   1.989 -0.3835  0.0767 -0.3218
 2890TIP3    H130229   1.487   6.159   1.980 -1.1121  1.5869  0.6028
 2890TIP3    H230230   1.378   6.093   1.899 -0.0320  1.3497 -0.6984
 2891TIP3   OH230231   2.909   2.863   2.436  0.2201  0.4701  0.1493
 2891TIP3    H130232   2.955   2.834   2.358  0.9273  1.0379  0.3387
 2891TIP3    H230233   2.818   2.839   2.421  0.1998  1.3185 -1.2246
 2892TIP3   OH230234   0.588   3.558   0.110 -0.4583  0.5057 -0.1242
 2892TIP3    H130235   0.621   3.583   0.024  1.6314  1.8898  0.9860
 2892TIP3    H230236   0.516   3.619   0.127  0.0000  1.1253 -0.3683
 2893TIP3   OH230237   5.275   5.847   7.520  0.2716 -0.0368 -0.0072
 2893TIP3    H130238   5.283   5.802   7.436  0.6134 -1.5297  0.8010
 2893TIP3    H230239   5.348   5.814   7.572  0.9360  1.9565  0.4194
 2894TIP3   OH230240   4.364   0.429   0.635 -0.5814  0.0338  0.1126
 2894TIP3    H130241   4.435   0.478   0.593 -0.0184  0.7378  1.7923
 2894TIP3    H230242   4.303   0.496   0.664 -1.9225 -0.5674 -1.2323
 2895TIP3   OH230243   0.012   2.462   8.531 -0.2695 -0.1644 -0.2752
 2895TIP3    H130244   0.008   2.467   8.627 -0.9958 -0.1252 -0.3002
 2895TIP3    H230245  -0.032   2.379   8.510  0.9231 -0.7473 -0.5181
 2896TIP3   OH230246   0.732   3.852   2.488  0.3417  0.0439  0.2103
 2896TIP3    H130247   0.751   3.907   2.412  0.0087  1.3479  1.0214
 2896TIP3    H230248   0.676   3.908   2.543  2.0893 -0.1203  2.2894
 2897TIP3   OH230249   0.560   1.125   0.117  0.4825  0.6667  0.6804
 2897TIP3    H130250   0.507   1.133   0.197  0.1748  0.2019  0.5271
 2897TIP3    H230251   0.641   1.173   0.137  0.3706  0.6277  1.2384
 2898TIP3   OH230252   1.990   6.489   1.133 -0.2774  0.4401 -0.6218
 2898TIP3    H130253   2.044   6.566   1.115 -1.0023  1.2941  0.7053
 2898TIP3    H230254   1.996   6.477   1.227  0.1230 -1.3909 -0.8399
 2899TIP3   OH230255   0.020   1.978   0.124 -0.1658  0.3906  0.7953
 2899TIP3    H130256  -0.054   1.989   0.064  1.3533  0.8973 -1.1150
 2899TIP3    H230257  -0.020   1.959   0.208 -2.4734  1.0814 -0.0539
 2900TIP3   OH230258   0.970   1.489   0.699  0.0455 -0.1424 -0.4160
 2900TIP3    H130259   0.898   1.429   0.718 -0.9670  1.0314 -0.4065
 2900TIP3    H230260   0.977   1.544   0.777  0.8885 -0.1842 -0.4562
 2901TIP3   OH230261   3.458   2.847   7.949 -0.2656 -0.5319 -0.1352
 2901TIP3    H130262   3.441   2.822   7.858 -2.5952 -0.9053  0.3357
 2901TIP3    H230263   3.531   2.908   7.944 -1.6417  1.1064 -2.5147
 2902TIP3   OH230264   4.177   1.195   0.026 -0.6184  0.4110  0.1575
 2902TIP3    H130265   4.158   1.228   0.114 -0.0635 -0.0553  0.4638
 2902TIP3    H230266   4.253   1.138   0.038 -3.0972 -3.2082  0.1603
 2903TIP3   OH230267   3.890   6.467   1.075  0.1344 -0.2037 -0.2358
 2903TIP3    H130268   3.844   6.470   0.992  0.4956 -3.8728 -0.7292
 2903TIP3    H230269   3.821   6.455   1.141  0.0584 -0.5446 -0.3780
 2904TIP3   OH230270   0.829   1.209   0.347 -0.2752 -0.3424 -0.3744
 2904TIP3    H130271   0.835   1.281   0.285 -0.2357  2.1847  2.3336
 2904TIP3    H230272   0.920   1.188   0.368 -0.2762  0.3904  0.4397
 2905TIP3   OH230273   5.804   5.417   7.373  0.1657  0.2736  0.9095
 2905TIP3    H130274   5.790   5.328   7.341 -1.9692  0.5250  0.9783
 2905TIP3    H230275   5.861   5.407   7.448 -1.0783 -1.2262  1.7262
 2906TIP3   OH230276   0.452   5.972   8.039 -0.4302  0.4212  0.0272
 2906TIP3    H130277   0.527   6.008   7.992 -0.1532  0.8784  0.7998
 2906TIP3    H230278   0.389   6.045   8.044 -0.4558  0.3785  0.3620
 2907TIP3   OH230279   4.862   2.575   7.983  0.2807  0.0379  0.2324
 2907TIP3    H130280   4.813   2.606   7.907  0.2698 -0.3029  0.0963
 2907TIP3    H230281   4.820   2.616   8.058 -0.3425 -0.4131  0.1360
 2908TIP3   OH230282   3.275   3.310   3.656  0.1643  0.7297 -0.4899
 2908TIP3    H130283   3.370   3.299   3.659  0.2001  0.3456 -2.1780
 2908TIP3    H230284   3.262   3.404   3.672  0.7441  0.6343  0.6573
 2909TIP3   OH230285   5.315   4.263   1.620  0.5700 -0.0599  0.2122
 2909TIP3    H130286   5.353   4.199   1.680  0.7101 -0.2955 -0.1241
 2909TIP3    H230287   5.254   4.313   1.674  1.9960  0.9229  0.9728
 2910TIP3   OH230288   1.751   1.389   1.816  0.1963  0.1148 -0.0184
 2910TIP3    H130289   1.672   1.339   1.797 -0.8765  1.1679  1.4124
 2910TIP3    H230290   1.727   1.480   1.796  1.4187  0.3270 -0.6061
 2911TIP3   OH230291   5.664   6.066   0.395  0.0501 -0.4558  0.1328
 2911TIP3    H130292   5.602   6.076   0.467  2.4024 -0.4119  2.3135
 2911TIP3    H230293   5.636   6.130   0.329 -1.1061  0.8704  1.8253
 2912TIP3   OH230294   4.231   4.431   8.683  0.0966  0.2502 -0.1829
 2912TIP3    H130295   4.256   4.343   8.655 -0.7776 -0.3016  0.7222
 2912TIP3    H230296   4.285   4.490   8.629  0.5988 -0.8278 -0.8781
 2913TIP3   OH230297   6.221   0.059   1.609  0.3872  0.7738  0.0255
 2913TIP3    H130298   6.238  -0.018   1.664 -2.6398  1.2195  1.7748
 2913TIP3    H230299   6.189   0.022   1.526  1.0415  0.1724  0.0208
 2914TIP3   OH230300   1.868   4.317   3.274 -0.2105  0.1842  0.6597
 2914TIP3    H130301   1.943   4.356   3.320 -0.4454  1.3129  0.1305
 2914TIP3    H230302   1.904   4.288   3.191  0.0588 -1.1966  1.2239
 2915TIP3   OH230303   4.130   1.135   3.412  0.1009  0.5662 -0.3466
 2915TIP3    H130304   4.210   1.150   3.463  1.4090 -0.7743 -1.8786
 2915TIP3    H230305   4.162   1.121   3.322 -1.9124  0.4446 -1.0826
 2916TIP3   OH230306   2.889   0.376   3.162  0.0551 -0.0699  0.6101
 2916TIP3    H130307   2.897   0.281   3.167 -0.8815 -0.2516 -0.7570
 2916TIP3    H230308   2.907   0.397   3.070  1.5616  1.2352  1.1593
 2917TIP3   OH230309   0.544   2.449   7.483  0.0134  0.3008  0.5178
 2917TIP3    H130310   0.543   2.517   7.550 -1.5716 -2.5462  3.6718
 2917TIP3    H230311   0.454   2.417   7.480  0.6789 -1.5949 -0.8772
 2918TIP3   OH230312   1.606   3.213   1.874 -0.4388  0.5575 -0.2027
 2918TIP3    H130313   1.635   3.189   1.786 -1.9509  3.7053 -1.7366
 2918TIP3    H230314   1.663   3.164   1.933 -0.0047 -2.4637 -2.8641
 2919TIP3   OH230315   2.750   4.090   8.292 -0.0605 -0.1444  0.1071
 2919TIP3    H130316   2.745   4.057   8.202 -1.3895 -1.3812  0.5947
 2919TIP3    H230317   2.697   4.170   8.292 -0.1210 -0.1844 -0.1931
 2920TIP3   OH230318   2.152   0.254   2.817  0.3212 -0.1510  0.2936
 2920TIP3    H130319   2.177   0.307   2.893  0.6389 -1.1918  0.9297
 2920TIP3    H230320   2.235   0.228   2.777  0.1630  1.4304 -1.1884
 2921TIP3   OH230321   4.163   3.832   0.283  0.3045  0.4244  0.2449
 2921TIP3    H130322   4.185   3.766   0.218  1.0072  1.9567 -1.1512
 2921TIP3    H230323   4.242   3.841   0.336 -0.6229 -1.6094  2.1148
 2922TIP3   OH230324   6.237   6.668   1.671 -0.2937  0.0263  0.1612
 2922TIP3    H130325   6.183   6.612   1.615  0.0461 -1.6667  1.4646
 2922TIP3    H230326   6.327   6.653   1.641 -0.3327  1.3080 -0.6773
 2923TIP3   OH230327   0.009   1.746   7.651 -0.2022  0.1841 -0.1729
 2923TIP3    H130328  -0.083   1.761   7.631 -0.3704  0.8290  0.9802
 2923TIP3    H230329   0.054   1.818   7.607 -0.4691  1.0369  0.9122
 2924TIP3   OH230330   1.705   0.773   0.788  0.6551  0.2822  0.1860
 2924TIP3    H130331   1.786   0.726   0.808  0.6379 -0.4257 -1.2720
 2924TIP3    H230332   1.731   0.865   0.786  1.4052  0.0726 -0.1317
 2925TIP3   OH230333   1.422   1.207   8.054 -0.1676 -0.6256  0.3000
 2925TIP3    H130334   1.394   1.122   8.022 -2.0216 -0.3034  0.9285
 2925TIP3    H230335   1.518   1.202   8.055 -0.1875 -2.1282 -1.1227
 2926TIP3   OH230336   3.254   5.213   7.744  0.4536  0.7908  0.3974
 2926TIP3    H130337   3.345   5.235   7.764  1.3866 -1.1326 -1.3383
 2926TIP3    H230338   3.254   5.118   7.736 -1.9995  0.6325  1.4904
 2927TIP3   OH230339   5.132   2.197   0.967 -0.1205  0.2060  0.0532
 2927TIP3    H130340   5.179   2.212   0.885  0.5578  0.1325  0.4229
 2927TIP3    H230341   5.095   2.282   0.990  0.9164  0.5677  0.4222
 2928TIP3   OH230342   2.229   1.271   2.831  0.1089 -0.2216 -0.2617
 2928TIP3    H130343   2.271   1.212   2.894  1.1638  1.2459  0.4758
 2928TIP3    H230344   2.282   1.351   2.834  0.3570 -0.1436 -3.1757
 2929TIP3   OH230345   1.276   0.754   0.590  0.3485 -0.3617 -0.1471
 2929TIP3    H130346   1.370   0.756   0.571  0.3335  0.7254 -0.1722
 2929TIP3    H230347   1.264   0.675   0.642  1.3167 -0.4106  0.0264
 2930TIP3   OH230348   4.781   6.500   8.283 -0.3530 -0.2492 -0.4255
 2930TIP3    H130349   4.751   6.460   8.201 -0.9878 -0.0701 -0.2926
 2930TIP3    H230350   4.794   6.592   8.261 -1.7347  0.0669 -0.0516
 2931TIP3   OH230351   6.133   1.630   3.569  0.2542 -0.0365  0.8854
 2931TIP3    H130352   6.122   1.685   3.491 -0.2410  0.7021  1.4554
 2931TIP3    H230353   6.224   1.602   3.567  0.0480 -0.6603 -0.3634
 2932TIP3   OH230354   5.783   0.566   2.745  0.4515  0.5662 -0.2194
 2932TIP3    H130355   5.755   0.501   2.680  1.2678  1.7158 -1.7853
 2932TIP3    H230356   5.837   0.516   2.807 -1.3362 -0.7894  0.3454
 2933TIP3   OH230357   0.860   5.085   0.172 -0.2682 -0.5745 -0.9700
 2933TIP3    H130358   0.935   5.131   0.134 -0.1749  0.7837  0.7336
 2933TIP3    H230359   0.789   5.149   0.169 -0.3758 -0.5739  0.6588
 2934TIP3   OH230360   3.763   5.038   8.411  0.5271  0.3487 -0.5418
 2934TIP3    H130361   3.695   5.005   8.470  0.6319 -1.8558 -1.5296
 2934TIP3    H230362   3.824   4.964   8.402  0.5742  0.6117 -3.2771
 2935TIP3   OH230363   4.041   1.911   1.106  0.2422 -0.5738 -0.8595
 2935TIP3    H130364   4.094   1.983   1.141 -0.6415 -0.2338 -0.1767
 2935TIP3    H230365   3.955   1.951   1.089  0.2186 -1.0860 -2.0402
 2936TIP3   OH230366   5.445   3.828   2.807  0.2507  0.3379  0.1261
 2936TIP3    H130367   5.419   3.870   2.889  0.3814  2.0777 -0.6801
 2936TIP3    H230368   5.375   3.850   2.745  0.4606 -0.4218 -0.4012
 2937TIP3   OH230369   0.295   0.439   7.524 -0.5476 -0.2896  0.5537
 2937TIP3    H130370   0.204   0.459   7.502 -0.7532 -1.6495  0.0268
 2937TIP3    H230371   0.347   0.490   7.462 -0.9981 -0.5609 -0.0558
 2938TIP3   OH230372   3.552   1.281   2.362 -0.0482  0.1563 -0.3693
 2938TIP3    H130373   3.545   1.295   2.456 -0.1682  0.7123 -0.4612
 2938TIP3    H230374   3.625   1.336   2.335 -0.4566  0.5378 -0.7130
 2939TIP3   OH230375   5.688   0.119   7.598 -0.6265  0.1928 -0.5315
 2939TIP3    H130376   5.610   0.074   7.566 -1.9726  2.8597 -1.2659
 2939TIP3    H230377   5.740   0.134   7.519 -0.1005 -0.1949 -0.2659
 2940TIP3   OH230378   4.109   2.358   2.932  0.2991 -0.1270 -0.3863
 2940TIP3    H130379   4.100   2.286   2.995 -1.8054 -0.3455 -0.8481
 2940TIP3    H230380   4.119   2.436   2.986  3.8465 -0.7896  0.1249
 2941TIP3   OH230381   1.019   6.797   2.395  0.0780  0.4617 -0.2780
 2941TIP3    H130382   1.013   6.884   2.436  0.8705  0.4856 -0.1896
 2941TIP3    H230383   0.991   6.737   2.464  0.8874  0.5451  0.1341
 2942TIP3   OH230384   3.579   1.512   1.048  0.1137  0.6459 -0.1252
 2942TIP3    H130385   3.532   1.472   0.975 -0.3589 -2.8689  1.8366
 2942TIP3    H230386   3.526   1.587   1.073 -0.6381  0.8822 -2.2632
 2943TIP3   OH230387   4.382   3.562   8.022  0.4455 -0.6348  0.4483
 2943TIP3    H130388   4.446   3.510   7.973  1.6139  1.0084  0.1280
 2943TIP3    H230389   4.297   3.538   7.985  1.0927 -1.1726 -0.7232
 2944TIP3   OH230390   1.062   0.172   1.244  0.1525  0.5145  0.5242
 2944TIP3    H130391   1.116   0.207   1.315 -0.1940  1.9478  0.1206
 2944TIP3    H230392   1.099   0.211   1.164 -0.6233  0.4187  0.1074
 2945TIP3   OH230393   4.970   5.744   8.014  0.2015  0.1126  0.2106
 2945TIP3    H130394   4.877   5.751   7.995  0.3836  1.1390 -0.4303
 2945TIP3    H230395   4.993   5.653   7.994 -0.3661  0.2357 -1.0935
 2946TIP3   OH230396   4.328   2.903   2.355  0.4105 -0.3174  0.3016
 2946TIP3    H130397   4.254   2.852   2.388  0.3462 -1.2720 -1.2237
 2946TIP3    H230398   4.398   2.839   2.342  1.1797  0.4052  0.7128
 2947TIP3   OH230399   5.174   4.578   7.855  0.5779 -0.1731  0.0583
 2947TIP3    H130400   5.255   4.624   7.832  0.4634  0.0135  0.0270
 2947TIP3    H230401   5.113   4.601   7.784  0.7629 -1.0077 -0.3837
 2948TIP3   OH230402   3.669   1.650   8.416  0.2772 -0.5188 -0.1304
 2948TIP3    H130403   3.610   1.574   8.411  0.0160 -0.2872 -0.7406
 2948TIP3    H230404   3.673   1.683   8.326  0.7806 -0.1029  0.0392
 2949TIP3   OH230405   3.790   2.948   7.662  0.2291  0.3106  0.3110
 2949TIP3    H130406   3.731   2.882   7.627 -0.0114  1.1136 -0.8483
 2949TIP3    H230407   3.810   2.918   7.751  0.4282 -1.5059 -0.3154
 2950TIP3   OH230408   0.421   6.410   1.322 -0.0678 -0.1463  0.1609
 2950TIP3    H130409   0.443   6.317   1.329 -0.0677 -0.1283  0.4102
 2950TIP3    H230410   0.354   6.424   1.389 -1.6282 -0.4263 -1.2938
 2951TIP3   OH230411   2.291   1.206   8.519 -0.4096 -0.1873 -0.0318
 2951TIP3    H130412   2.211   1.190   8.568 -0.1097  0.0801  0.5514
 2951TIP3    H230413   2.263   1.210   8.428 -1.1685  0.6300  0.2247
 2952TIP3   OH230414   3.113   6.175   0.673  0.5267 -0.8444 -0.3492
 2952TIP3    H130415   3.164   6.242   0.627 -1.1907  0.3181 -0.6620
 2952TIP3    H230416   3.038   6.158   0.616  1.3122 -3.7299 -0.7090
 2953TIP3   OH230417   5.457   4.191   1.385 -0.2754 -0.3584  0.3332
 2953TIP3    H130418   5.404   4.235   1.451 -1.1253  0.7732 -1.0389
 2953TIP3    H230419   5.401   4.189   1.307  0.8106 -1.3602 -0.4593
 2954TIP3   OH230420   6.149   4.659   8.320  0.2956  0.1353 -0.0879
 2954TIP3    H130421   6.078   4.679   8.381  0.2772  0.2836 -0.1597
 2954TIP3    H230422   6.128   4.571   8.288 -0.3886  0.5705 -0.8642
 2955TIP3   OH230423   6.752   1.390   0.539  0.4927 -0.2990  0.7734
 2955TIP3    H130424   6.677   1.390   0.479 -0.3551  0.2062  1.8017
 2955TIP3    H230425   6.790   1.303   0.530  1.2210  0.1755 -1.4841
 2956TIP3   OH230426   1.796   0.838   1.101 -0.3818 -0.0602  0.1384
 2956TIP3    H130427   1.738   0.764   1.085 -0.7878  0.4148 -0.6752
 2956TIP3    H230428   1.810   0.877   1.014  1.5969 -0.4773  0.2255
 2957TIP3   OH230429   1.937   2.744   8.115  0.2346 -0.2046 -0.2293
 2957TIP3    H130430   1.992   2.666   8.119 -0.0018 -0.3630 -0.0421
 2957TIP3    H230431   1.976   2.805   8.178  1.0024  0.2117 -1.0890
 2958TIP3   OH230432   6.360   0.370   2.090 -0.0337  0.1131 -0.7665
 2958TIP3    H130433   6.290   0.435   2.081 -0.2778 -0.1391 -0.7009
 2958TIP3    H230434   6.327   0.293   2.043 -1.4223 -1.3210  2.2657
 2959TIP3   OH230435   0.745   1.857   0.463  0.0119 -0.2820 -0.8625
 2959TIP3    H130436   0.657   1.885   0.438  0.1301 -0.2729 -1.2866
 2959TIP3    H230437   0.802   1.896   0.397  0.1449 -1.8589 -1.7467
 2960TIP3   OH230438   2.678   3.337   3.160 -0.3667  0.0904 -0.2680
 2960TIP3    H130439   2.650   3.429   3.154 -0.0857  0.1056 -1.5685
 2960TIP3    H230440   2.773   3.341   3.170 -0.5321 -0.0300  1.8834
 2961TIP3   OH230441   2.944   5.620   1.467 -0.4317 -0.5373 -0.2568
 2961TIP3    H130442   3.036   5.595   1.467 -0.4145 -0.5682  1.6323
 2961TIP3    H230443   2.912   5.593   1.380  1.0758 -1.4130 -0.5727
 2962TIP3   OH230444   3.658   2.468   0.538 -0.5906  0.2342 -0.2684
 2962TIP3    H130445   3.750   2.471   0.510 -0.2830  1.5287  0.7845
 2962TIP3    H230446   3.621   2.550   0.507 -1.1651  0.1032  0.0615
 2963TIP3   OH230447   5.454   5.136   0.717  0.4734 -0.6701  0.4105
 2963TIP3    H130448   5.416   5.079   0.784  0.2949 -0.5188  0.4398
 2963TIP3    H230449   5.380   5.187   0.685  0.8907  0.7171  1.5319
 2964TIP3   OH230450   4.107   4.371   7.378  0.8306 -0.0560  0.1684
 2964TIP3    H130451   4.131   4.422   7.300  1.4093 -0.4348  0.0948
 2964TIP3    H230452   4.180   4.311   7.390  0.4768 -0.3824  0.6767
 2965TIP3   OH230453   1.476   5.568   2.369 -0.5113  0.1461  0.0012
 2965TIP3    H130454   1.495   5.662   2.365  0.1488  0.1742  2.2101
 2965TIP3    H230455   1.561   5.527   2.383 -0.9163 -0.6941  0.0503
 2966TIP3   OH230456   2.455   4.083   0.112 -0.0644 -0.4255  0.2712
 2966TIP3    H130457   2.504   4.147   0.164  0.2711 -0.0702 -0.4810
 2966TIP3    H230458   2.417   4.023   0.178  0.8028 -0.3079  0.8918
 2967TIP3   OH230459   0.846   4.170   3.045 -0.0250  0.0510  0.3036
 2967TIP3    H130460   0.884   4.244   2.997  0.0260 -0.1921 -0.0391
 2967TIP3    H230461   0.873   4.093   2.994  1.3037 -0.3426  1.5270
 2968TIP3   OH230462   6.784   0.093   2.714  0.1051  0.4651 -0.0215
 2968TIP3    H130463   6.708   0.121   2.765  1.1350  0.8205  1.3996
 2968TIP3    H230464   6.847   0.164   2.726  1.6625 -1.0508  1.1423
 2969TIP3   OH230465   5.946   2.503   8.597 -0.6323 -0.0006 -0.1045
 2969TIP3    H130466   5.911   2.437   8.656 -0.7346  0.6611  0.6050
 2969TIP3    H230467   6.011   2.457   8.544 -0.9815 -0.7428  0.1029
 2970TIP3   OH230468   6.726   5.114   0.225 -0.1865 -0.0011  0.1808
 2970TIP3    H130469   6.699   5.172   0.154 -3.1174  0.1257  1.2777
 2970TIP3    H230470   6.659   5.045   0.226  0.3139 -0.5233  2.1924
 2971TIP3   OH230471   1.651   1.275   2.222 -0.3160  0.4897  0.6008
 2971TIP3    H130472   1.632   1.358   2.179  0.6909 -0.0001 -0.8524
 2971TIP3    H230473   1.734   1.289   2.267 -0.6220  0.5371  1.1723
 2972TIP3   OH230474   5.421   1.090   2.274 -0.1665  0.3073 -0.0658
 2972TIP3    H130475   5.469   1.082   2.191 -0.3847  1.0277 -0.2682
 2972TIP3    H230476   5.488   1.102   2.340 -0.0289  0.4991 -0.2407
 2973TIP3   OH230477   6.274   5.384   0.455  0.4925 -0.4661  0.6983
 2973TIP3    H130478   6.319   5.463   0.425  1.8512 -1.6587 -0.5500
 2973TIP3    H230479   6.310   5.367   0.542  1.5246 -0.6806  0.2402
 2974TIP3   OH230480   2.235   0.388   0.369 -0.1531  0.3426  0.4601
 2974TIP3    H130481   2.212   0.452   0.436  1.5400  0.7432  0.7053
 2974TIP3    H230482   2.310   0.341   0.406  0.7910  0.5345 -1.1071
 2975TIP3   OH230483   0.865   3.471   2.269  0.0444 -0.1275  0.3404
 2975TIP3    H130484   0.938   3.448   2.211 -1.3801 -1.4994 -0.9961
 2975TIP3    H230485   0.841   3.560   2.243  0.6735  0.0011  0.1816
 2976TIP3   OH230486   3.060   4.215   3.810  0.5786  0.3200  0.2995
 2976TIP3    H130487   3.015   4.203   3.727  2.7494  1.4833 -1.1441
 2976TIP3    H230488   3.102   4.130   3.828  0.0336  0.0425  0.2698
 2977TIP3   OH230489   5.431   6.548   7.526 -0.3268 -0.3750  0.5968
 2977TIP3    H130490   5.380   6.481   7.571  0.3539  0.2352  2.3682
 2977TIP3    H230491   5.493   6.498   7.472 -2.8645 -1.1280 -1.8471
 2978TIP3   OH230492   2.190   6.085   7.382 -0.2292 -0.3485  0.5067
 2978TIP3    H130493   2.171   6.002   7.338  3.4479 -0.4654 -1.2279
 2978TIP3    H230494   2.118   6.142   7.357 -1.2347 -2.1100 -0.9125
 2979TIP3   OH230495   3.284   5.402   2.082 -0.2508  0.1307  0.0297
 2979TIP3    H130496   3.276   5.311   2.053 -0.1125 -0.2818  1.2261
 2979TIP3    H230497   3.313   5.449   2.004 -2.1505 -0.4963 -1.1217
 2980TIP3   OH230498   0.751   1.259   8.230 -0.1247  0.5290 -0.0544
 2980TIP3    H130499   0.782   1.304   8.151  2.1060 -0.5797  0.1306
 2980TIP3    H230500   0.728   1.171   8.200  0.7793  0.0875  0.5231
 2981TIP3   OH230501   2.299   0.068   2.070 -0.3375 -0.5319  0.5313
 2981TIP3    H130502   2.216   0.085   2.115 -0.6737  2.5881 -0.9507
 2981TIP3    H230503   2.275   0.066   1.977  1.0289 -1.3556  0.1676
 2982TIP3   OH230504   0.178   6.594   1.075 -0.6323 -0.4159  0.3173
 2982TIP3    H130505   0.186   6.636   1.161 -3.3897 -1.3377  1.1251
 2982TIP3    H230506   0.245   6.637   1.021 -1.2997  2.8871  1.8768
 2983TIP3   OH230507   2.473   2.315   1.800 -0.1502 -0.4027  0.5713
 2983TIP3    H130508   2.440   2.245   1.743 -1.3613  0.4597  0.1831
 2983TIP3    H230509   2.398   2.342   1.852 -0.5266  2.5546 -1.2993
 2984TIP3   OH230510   1.139   3.015   2.637 -0.1459  0.1033 -0.0997
 2984TIP3    H130511   1.049   3.001   2.610 -0.0114  0.1886 -0.6049
 2984TIP3    H230512   1.192   2.978   2.566  0.2170  0.3282  0.0487
 2985TIP3   OH230513   6.791   5.131   2.368 -0.6602  0.5037 -0.3513
 2985TIP3    H130514   6.856   5.184   2.413  0.9237  0.1543 -2.1030
 2985TIP3    H230515   6.757   5.073   2.435  0.7687  0.7674  0.6511
 2986TIP3   OH230516   2.077   5.055   2.295  0.2893  0.4822  0.0952
 2986TIP3    H130517   2.160   5.078   2.336 -1.2354  3.4273  1.9199
 2986TIP3    H230518   2.089   5.077   2.202  1.9407 -0.5843  0.0194
 2987TIP3   OH230519   0.043   3.324   2.347 -0.2394 -0.0732  0.5927
 2987TIP3    H130520   0.084   3.326   2.433  1.3919 -0.5140 -0.1461
 2987TIP3    H230521  -0.043   3.286   2.363  0.3587 -0.9388  1.9070
 2988TIP3   OH230522   6.058   5.663   2.382  0.4303  0.1498  0.5741
 2988TIP3    H130523   5.999   5.696   2.314 -2.0848 -1.8096  1.6069
 2988TIP3    H230524   6.082   5.741   2.433 -0.4468  1.1673 -0.5058
 2989TIP3   OH230525   1.067   3.920   2.622  0.1926  0.9695 -0.3505
 2989TIP3    H130526   1.040   3.848   2.564  0.0729  0.0104  0.8659
 2989TIP3    H230527   1.160   3.905   2.637 -0.3527 -0.5750  2.0548
 2990TIP3   OH230528   5.009   1.171   1.572 -0.2612 -0.3118  0.2162
 2990TIP3    H130529   5.079   1.111   1.599  0.2434  1.0233  2.1258
 2990TIP3    H230530   5.055   1.244   1.532 -0.6619 -0.0547  0.2248
 2991TIP3   OH230531   2.581   5.070   8.437  0.1282 -0.8712  0.2979
 2991TIP3    H130532   2.652   5.117   8.394  2.0117 -3.3477  0.4745
 2991TIP3    H230533   2.604   5.071   8.530 -0.4697 -1.0709  0.4533
 2992TIP3   OH230534   4.363   3.384   2.542 -0.1891 -0.0464 -0.0402
 2992TIP3    H130535   4.430   3.323   2.511 -0.3969 -0.1622 -0.2666
 2992TIP3    H230536   4.349   3.359   2.633  1.4424  1.2058  0.6012
 2993TIP3   OH230537   1.094   5.529   0.119 -0.6878 -0.1032 -0.0992
 2993TIP3    H130538   1.100   5.591   0.192 -1.6715 -0.3921  0.2489
 2993TIP3    H230539   1.006   5.492   0.127 -0.6017 -0.5498 -1.1094
 2994TIP3   OH230540   1.417   2.936   0.798  0.3283  0.0325 -0.0579
 2994TIP3    H130541   1.393   2.970   0.884  0.8851  1.1536 -0.3326
 2994TIP3    H230542   1.507   2.906   0.808  0.5250  0.5136 -0.3365
 2995TIP3   OH230543   2.547   4.798   8.312  0.1507 -0.2646  0.2993
 2995TIP3    H130544   2.565   4.871   8.372 -1.0549 -0.0662  0.4443
 2995TIP3    H230545   2.469   4.826   8.264 -2.6283 -2.8849  2.8667
 2996TIP3   OH230546   4.616   4.890   7.908 -0.5241 -0.5445 -0.5138
 2996TIP3    H130547   4.613   4.809   7.958 -0.1488 -0.7278 -0.7876
 2996TIP3    H230548   4.693   4.881   7.851 -0.5248 -0.0352 -0.6027
 2997TIP3   OH230549   6.853   6.373   8.585 -0.0625 -0.9801 -0.1151
 2997TIP3    H130550   6.899   6.453   8.558 -2.5316  0.7308  0.4110
 2997TIP3    H230551   6.880   6.307   8.520  0.2671  0.8968 -2.0012
 2998TIP3   OH230552   2.301   4.935   0.069  0.3463 -0.0321 -0.6418
 2998TIP3    H130553   2.291   4.840   0.074 -1.4105  0.1594  2.7220
 2998TIP3    H230554   2.393   4.951   0.091  0.4781 -0.9308 -0.5075
 2999TIP3   OH230555   5.410   2.052   1.670  0.2843  0.0019 -0.6674
 2999TIP3    H130556   5.388   2.095   1.587  1.9462 -2.3234 -2.4993
 2999TIP3    H230557   5.481   2.105   1.706  0.0663  0.6284 -1.1315
 3000TIP3   OH230558   6.486   2.032   7.988 -0.2600 -0.5530  0.3643
 3000TIP3    H130559   6.496   2.124   7.963 -0.8874  0.0514  2.1608
 3000TIP3    H230560   6.442   1.992   7.914 -0.1844  0.6570 -0.3611
 3001TIP3   OH230561   4.637   5.169   0.103 -0.0060 -0.0280 -0.1446
 3001TIP3    H130562   4.646   5.144   0.195  0.8496 -0.2125 -0.2644
 3001TIP3    H230563   4.646   5.265   0.103  0.5636 -0.0767 -0.0889
 3002TIP3   OH230564   2.902   5.497   2.455 -0.0566 -0.1511  0.1355
 3002TIP3    H130565   2.975   5.459   2.406  0.4093 -0.8402  1.3095
 3002TIP3    H230566   2.938   5.576   2.494  0.9367 -1.7878  2.8249
 3003TIP3   OH230567   4.542   0.878   2.048  0.2587 -0.0680 -0.8851
 3003TIP3    H130568   4.460   0.926   2.035 -0.9475 -1.4790  0.9889
 3003TIP3    H230569   4.592   0.932   2.109  0.3151  0.3258 -1.2751
 3004TIP3   OH230570   4.214   2.741   2.981  0.0882 -0.1811 -0.4450
 3004TIP3    H130571   4.220   2.825   3.027 -2.0667 -0.9801  1.5095
 3004TIP3    H230572   4.243   2.760   2.892  0.5453  2.4176  0.1841
 3005TIP3   OH230573   1.019   4.237   7.569  0.2975  0.2299  0.2828
 3005TIP3    H130574   0.982   4.177   7.505  0.3516 -0.2480  0.6948
 3005TIP3    H230575   0.991   4.324   7.539  0.5650  0.0394 -0.5391
 3006TIP3   OH230576   3.690   6.356   1.226 -0.8009 -0.4316 -0.2170
 3006TIP3    H130577   3.597   6.378   1.236 -0.8824 -0.8667  0.0105
 3006TIP3    H230578   3.730   6.388   1.307 -0.0944  3.0207 -1.7557
 3007TIP3   OH230579   1.160   2.496   2.383 -0.4992  0.6690 -0.5808
 3007TIP3    H130580   1.235   2.532   2.430 -1.4749  1.3651  0.5002
 3007TIP3    H230581   1.149   2.553   2.307  0.6234 -0.0048 -1.2721
 3008TIP3   OH230582   1.743   4.620   0.779  0.3897  0.5413  0.7798
 3008TIP3    H130583   1.675   4.562   0.743  1.2429  0.1211 -0.2465
 3008TIP3    H230584   1.695   4.693   0.817 -0.6382  0.3029  0.0008
 3009TIP3   OH230585   5.236   3.582   8.063  0.4227  0.2768 -0.3812
 3009TIP3    H130586   5.206   3.537   7.983 -0.6059 -0.2091  0.2626
 3009TIP3    H230587   5.187   3.664   8.064 -0.2288 -0.1125  0.2005
 3010TIP3   OH230588   5.356   0.435   1.292  0.0449 -0.3233 -0.9156
 3010TIP3    H130589   5.398   0.367   1.345  2.4784  0.8978 -1.1680
 3010TIP3    H230590   5.382   0.517   1.333 -1.2795  0.5402 -1.7264
 3011TIP3   OH230591   6.740   1.030   2.111  0.2870 -0.4570  0.0982
 3011TIP3    H130592   6.828   1.061   2.087 -1.1447  2.5258 -1.9598
 3011TIP3    H230593   6.693   1.026   2.028 -2.2478  0.7128  1.3716
 3012TIP3   OH230594   4.978   2.301   3.037 -0.2896  0.4612  0.1876
 3012TIP3    H130595   5.046   2.245   3.075 -0.4032  1.5078  2.0124
 3012TIP3    H230596   4.932   2.337   3.112 -2.5275  0.2322 -0.9985
 3013TIP3   OH230597   1.169   3.527   2.162  0.0024 -0.5049 -1.0872
 3013TIP3    H130598   1.159   3.620   2.182 -0.6715 -0.5936 -0.9767
 3013TIP3    H230599   1.121   3.514   2.081  2.0208 -0.3234 -2.3716
 3014TIP3   OH230600   2.132   5.183   8.431  0.9266  1.0367 -0.7960
 3014TIP3    H130601   2.125   5.088   8.418  4.2609  0.3185  1.3176
 3014TIP3    H230602   2.041   5.213   8.438 -0.2404 -1.9973 -1.4096
 3015TIP3   OH230603   0.671   0.649   1.313  0.4575 -0.4482 -0.5011
 3015TIP3    H130604   0.675   0.567   1.264  2.3178  0.4961 -2.0843
 3015TIP3    H230605   0.656   0.716   1.246 -3.2142  0.4403  0.9417
 3016TIP3   OH230606   5.175   1.235   2.165  0.0295  0.2220 -0.5747
 3016TIP3    H130607   5.230   1.182   2.107  0.5818 -2.7464  2.3293
 3016TIP3    H230608   5.234   1.301   2.201  0.5082  0.0243 -0.9955
 3017TIP3   OH230609   3.388   5.784   3.074 -0.3382  0.0208 -0.2003
 3017TIP3    H130610   3.299   5.769   3.106 -0.3022 -0.0661 -0.1419
 3017TIP3    H230611   3.443   5.781   3.152 -0.3271  0.4431 -0.1880
 3018TIP3   OH230612   2.008   0.867   1.856 -0.3170 -0.0446  0.2077
 3018TIP3    H130613   1.981   0.929   1.788 -1.1022  0.3407  0.8603
 3018TIP3    H230614   2.101   0.888   1.871  0.4635 -1.4716 -2.1458
 3019TIP3   OH230615   4.651   5.446   2.686  0.4871  0.4477 -0.1074
 3019TIP3    H130616   4.628   5.407   2.770 -0.1353  1.6343  0.2909
 3019TIP3    H230617   4.737   5.486   2.701  0.0987  1.1986  0.1592
 3020TIP3   OH230618   2.703   6.755   2.100 -0.4595  0.4452 -0.0672
 3020TIP3    H130619   2.661   6.743   2.015  0.2973 -0.0206 -0.3855
 3020TIP3    H230620   2.631   6.770   2.161 -1.2684 -2.2552 -0.2599
 3021TIP3   OH230621   2.955   0.880   0.904  0.2054  0.2924 -0.6369
 3021TIP3    H130622   2.941   0.786   0.919  0.6438 -0.1005 -2.4129
 3021TIP3    H230623   3.040   0.898   0.943 -0.6105  0.3734  1.2130
 3022TIP3   OH230624   1.510   6.327   1.152  0.2173 -0.0087  0.0036
 3022TIP3    H130625   1.492   6.379   1.230  2.4596  1.9823 -0.6892
 3022TIP3    H230626   1.605   6.331   1.141  0.0285 -0.5972 -2.5684
 3023TIP3   OH230627   6.136   4.125   7.837  0.9514  0.4234  0.1803
 3023TIP3    H130628   6.145   4.037   7.873 -0.7957  0.2033  0.1515
 3023TIP3    H230629   6.113   4.180   7.913 -1.0023  0.2676 -0.2342
 3024TIP3   OH230630   2.903   1.226   0.489  0.0713  0.2563 -0.1182
 3024TIP3    H130631   2.861   1.312   0.478  0.2731  0.2525 -0.9611
 3024TIP3    H230632   2.830   1.164   0.485  0.2421  0.1355 -3.0367
 3025TIP3   OH230633   4.635   0.492   1.399  0.2053  0.7552  0.1468
 3025TIP3    H130634   4.602   0.577   1.429 -2.2324 -0.4527  1.1516
 3025TIP3    H230635   4.696   0.514   1.328 -0.4982  3.3265  0.2301
 3026TIP3   OH230636   5.523   0.289   1.715  0.6633 -0.6047  0.2656
 3026TIP3    H130637   5.605   0.254   1.750 -0.1137 -1.8524  0.8997
 3026TIP3    H230638   5.462   0.287   1.789 -0.1835 -0.4921 -0.4068
 3027TIP3   OH230639   2.041   1.211   0.493 -0.6260 -0.1984 -0.4060
 3027TIP3    H130640   2.103   1.188   0.562 -1.6028 -0.1081  0.5245
 3027TIP3    H230641   1.985   1.134   0.484 -1.8176  0.5425  0.3919
 3028TIP3   OH230642   4.000   4.054   7.665  0.6507  0.0567 -0.0044
 3028TIP3    H130643   4.049   4.034   7.585 -1.2290 -1.7603 -0.8235
 3028TIP3    H230644   3.951   4.133   7.643 -2.0387 -1.9179 -1.9009
 3029TIP3   OH230645   2.051   2.166   0.060 -0.1041 -0.0769  0.1880
 3029TIP3    H130646   2.054   2.112   0.138  0.4305 -1.2340 -0.6122
 3029TIP3    H230647   2.090   2.112  -0.009  1.2182  1.6074 -0.4655
 3030TIP3   OH230648   4.768   4.012   3.057 -0.0536 -0.3892 -0.6212
 3030TIP3    H130649   4.711   3.936   3.071  1.8684 -1.5355  1.7234
 3030TIP3    H230650   4.778   4.050   3.144  3.1755 -0.6023 -0.8007
 3031TIP3   OH230651   3.296   5.331   8.061 -0.0615 -0.1778 -0.1311
 3031TIP3    H130652   3.360   5.288   8.006  0.2565  0.3510 -0.1748
 3031TIP3    H230653   3.223   5.353   8.002  0.7585  1.4199 -0.6080
 3032TIP3   OH230654   0.770   4.935   0.717  0.0792 -0.0766 -0.0921
 3032TIP3    H130655   0.830   4.951   0.643  0.9981 -0.3133  0.5851
 3032TIP3    H230656   0.737   5.021   0.740  1.2522  0.2651  0.4151
 3033TIP3   OH230657   0.040   2.547   0.747  0.3615 -0.9988  0.3891
 3033TIP3    H130658   0.013   2.510   0.831  0.3377 -0.0109  0.8315
 3033TIP3    H230659  -0.038   2.541   0.692  0.1194 -0.8827  0.7145
 3034TIP3   OH230660   3.736   1.660   1.646  0.6155  0.2265 -0.5904
 3034TIP3    H130661   3.652   1.699   1.671  0.1754  1.0658 -3.0777
 3034TIP3    H230662   3.726   1.567   1.669 -1.4556  0.0952 -1.7532
 3035TIP3   OH230663   0.556   4.159   7.278  0.5353 -0.9096 -0.1061
 3035TIP3    H130664   0.607   4.083   7.304  2.5732  0.7259  1.0192
 3035TIP3    H230665   0.608   4.199   7.207 -0.3092 -0.3916 -0.4453
 3036TIP3   OH230666   6.657   6.797   3.310  0.6190  0.3263  0.1975
 3036TIP3    H130667   6.644   6.729   3.376  1.0746  0.9465  0.9570
 3036TIP3    H230668   6.671   6.877   3.361 -2.1025  1.4745 -0.6616
 3037TIP3   OH230669   1.814   5.374   0.111 -0.1812 -0.2774 -0.0172
 3037TIP3    H130670   1.897   5.389   0.156 -0.1173  1.5817 -0.6930
 3037TIP3    H230671   1.834   5.381   0.018 -0.4780 -3.2517 -0.4073
 3038TIP3   OH230672   2.549   0.932   8.454  0.1164 -0.5100 -0.0345
 3038TIP3    H130673   2.456   0.911   8.466 -0.3221  1.1707 -0.3474
 3038TIP3    H230674   2.556   1.025   8.474  1.6800 -0.5289 -0.3576
 3039TIP3   OH230675   0.202   3.184   2.044  0.2067  0.2062 -0.0752
 3039TIP3    H130676   0.286   3.139   2.038  0.0035 -0.1785 -0.0804
 3039TIP3    H230677   0.220   3.261   2.098  1.1094  1.4447 -2.0224
 3040TIP3   OH230678   0.278   3.220   8.436  0.5273  0.4074  0.0154
 3040TIP3    H130679   0.305   3.244   8.524  0.5763  1.0002 -0.1554
 3040TIP3    H230680   0.359   3.191   8.393  0.4474 -0.2071  0.2572
 3041TIP3   OH230681   3.051   5.506   0.597 -0.1927 -0.2310  0.2757
 3041TIP3    H130682   3.055   5.422   0.643 -0.8179  0.4760  1.6834
 3041TIP3    H230683   3.019   5.484   0.509  2.0039 -1.7425 -0.2225
 3042TIP3   OH230684   1.996   2.779   2.283 -0.0251  0.0351 -0.6832
 3042TIP3    H130685   1.968   2.869   2.295 -1.1671 -0.3463 -0.4018
 3042TIP3    H230686   2.046   2.758   2.361  0.2113  0.4058 -0.7329
 3043TIP3   OH230687   0.695   2.558   8.399  0.6199 -0.2646 -0.2673
 3043TIP3    H130688   0.733   2.642   8.375  0.8869 -0.3418 -0.1124
 3043TIP3    H230689   0.693   2.508   8.317 -0.0439  0.0826 -0.4755
 3044TIP3   OH230690   5.314   3.682   1.727  0.1668 -0.4097  0.2149
 3044TIP3    H130691   5.320   3.669   1.822  2.3726 -1.5939 -0.0337
 3044TIP3    H230692   5.399   3.719   1.702 -0.0377 -0.9639 -1.4255
 3045TIP3   OH230693   0.309   3.099   7.677 -0.2324 -0.5590  0.5099
 3045TIP3    H130694   0.225   3.100   7.632  0.1964 -2.1433 -0.4146
 3045TIP3    H230695   0.307   3.176   7.734 -2.0141 -0.1877  0.0060
 3046TIP3   OH230696   1.276   4.727   1.343  0.2890  0.4317 -0.0280
 3046TIP3    H130697   1.325   4.652   1.309 -0.2341 -0.4811  1.1517
 3046TIP3    H230698   1.206   4.688   1.396  1.2801  1.7202  2.4144
 3047TIP3   OH230699   1.725   5.686   7.747  0.1874 -0.7574 -0.1847
 3047TIP3    H130700   1.781   5.663   7.822 -0.6560 -0.2220  0.6361
 3047TIP3    H230701   1.729   5.781   7.743 -0.9256 -0.6769  0.1190
 3048TIP3   OH230702   5.798   4.226   8.537  0.4243  0.4388  0.3970
 3048TIP3    H130703   5.767   4.283   8.607 -2.4955 -3.0971  2.2930
 3048TIP3    H230704   5.873   4.180   8.574  0.7642  0.6974  0.0461
 3049TIP3   OH230705   1.848   2.054   2.372 -0.2427 -0.0378 -0.1815
 3049TIP3    H130706   1.862   1.960   2.381 -1.3637 -0.1293  0.9552
 3049TIP3    H230707   1.767   2.061   2.322  0.6180  0.3704 -1.5646
 3050TIP3   OH230708   6.417   6.139   2.218 -0.0267 -0.9938  0.1603
 3050TIP3    H130709   6.509   6.122   2.196 -0.2727 -1.7482 -0.3298
 3050TIP3    H230710   6.377   6.052   2.218 -0.1314 -1.0682  3.3202
 3051TIP3   OH230711   6.634   2.754   1.543  0.0223  0.0137  0.1531
 3051TIP3    H130712   6.579   2.677   1.559  0.9433 -0.0853  3.8600
 3051TIP3    H230713   6.716   2.733   1.588  1.3118  2.1162 -1.0817
 3052TIP3   OH230714   0.545   3.407   7.827  0.2566  0.0765  0.3270
 3052TIP3    H130715   0.584   3.337   7.879  3.4729  0.1111 -1.7230
 3052TIP3    H230716   0.456   3.377   7.808  0.9859 -2.6968  0.8811
 3053TIP3   OH230717   3.007   5.114   8.160 -0.4040 -0.6600 -0.1110
 3053TIP3    H130718   2.940   5.105   8.092 -1.2114 -1.4236  0.7660
 3053TIP3    H230719   3.088   5.083   8.117 -0.6439  0.0285 -1.0950
 3054TIP3   OH230720   2.095   3.450   1.591  0.5465 -0.3540  0.1852
 3054TIP3    H130721   2.087   3.421   1.500 -1.4754  1.1785 -0.1824
 3054TIP3    H230722   2.177   3.500   1.593  0.8706 -0.8209 -0.6335
 3055TIP3   OH230723   4.238   6.497   0.620 -0.3642 -0.4092  0.5688
 3055TIP3    H130724   4.192   6.575   0.588 -0.5796 -1.0788 -0.7762
 3055TIP3    H230725   4.180   6.461   0.687 -0.1769  0.6684  1.3414
 3056TIP3   OH230726   0.668   1.588   0.378  0.2111  0.0078  1.1400
 3056TIP3    H130727   0.662   1.516   0.441  1.2964 -0.6031  0.5679
 3056TIP3    H230728   0.676   1.667   0.431  0.8006 -0.4736  1.7728
 3057TIP3   OH230729   2.321   5.931   1.779  0.2257  0.2569 -0.2230
 3057TIP3    H130730   2.334   5.884   1.697 -3.0133  0.6384 -1.1055
 3057TIP3    H230731   2.320   6.023   1.755 -1.6842  0.3370 -0.0029
 3058TIP3   OH230732   4.567   3.809   3.101  0.2676  0.5832 -0.2943
 3058TIP3    H130733   4.534   3.769   3.020  0.0753  0.9490 -0.3965
 3058TIP3    H230734   4.497   3.795   3.165  0.0232  1.1182 -0.4396
 3059TIP3   OH230735   0.566   6.857   2.419  0.0228  0.2454  0.0709
 3059TIP3    H130736   0.515   6.871   2.499 -1.5034  0.7675 -0.9324
 3059TIP3    H230737   0.576   6.945   2.381 -1.1256 -0.1736 -1.3384
 3060TIP3   OH230738   6.032   5.591   8.297 -0.0755 -0.0041  0.4577
 3060TIP3    H130739   5.981   5.591   8.216 -2.0004  0.9030  1.6010
 3060TIP3    H230740   5.986   5.531   8.354  0.4916  0.3758  1.3366
 3061TIP3   OH230741   3.017   2.846   2.682 -0.3195  0.6349 -0.6714
 3061TIP3    H130742   2.970   2.855   2.599 -0.8071 -1.7506 -0.7485
 3061TIP3    H230743   3.081   2.776   2.665 -0.9378 -0.4319  1.1321
 3062TIP3   OH230744   6.745   4.290   2.024  0.2599  0.1850  0.4210
 3062TIP3    H130745   6.712   4.347   2.094  1.6599  2.5144 -0.6876
 3062TIP3    H230746   6.715   4.332   1.944  2.6980  0.3141 -0.4960
 3063TIP3   OH230747   1.332   0.978   7.928  0.0286  0.1195 -0.1645
 3063TIP3    H130748   1.288   0.894   7.938 -1.6071  0.5091 -2.9653
 3063TIP3    H230749   1.409   0.959   7.875  1.0645  0.0675  1.3030
 3064TIP3   OH230750   1.719   2.374   2.244  0.0373 -0.3355 -0.8387
 3064TIP3    H130751   1.746   2.386   2.153 -2.0871  3.0926 -1.2148
 3064TIP3    H230752   1.630   2.339   2.238  0.1927 -0.8937 -0.0454
 3065TIP3   OH230753   0.576   1.595   1.149 -1.0206 -0.0059 -0.2048
 3065TIP3    H130754   0.647   1.642   1.107 -0.0625  0.2189  1.5730
 3065TIP3    H230755   0.506   1.594   1.084  0.2634  0.5793 -1.6527
 3066TIP3   OH230756   5.755   0.975   8.470 -1.2227 -1.2183  0.4506
 3066TIP3    H130757   5.747   1.068   8.451  1.0772 -0.0434  4.2122
 3066TIP3    H230758   5.803   0.939   8.395  0.6497  1.3445  0.2914
 3067TIP3   OH230759   4.527   2.123   7.918  0.1510 -0.1762  0.0445
 3067TIP3    H130760   4.620   2.142   7.903  0.7004 -1.1374  1.9491
 3067TIP3    H230761   4.484   2.153   7.838  1.8191  2.1630 -0.0761
 3068TIP3   OH230762   0.240   0.677   0.980 -0.0936  0.6286  0.1178
 3068TIP3    H130763   0.259   0.584   0.981 -0.9217  0.4285 -0.9941
 3068TIP3    H230764   0.252   0.704   0.889  0.5386  1.6965  0.5039
 3069TIP3   OH230765   6.699   4.812   8.264 -0.2631  0.0473  0.1096
 3069TIP3    H130766   6.670   4.861   8.187  1.6265 -0.5149 -1.0196
 3069TIP3    H230767   6.744   4.735   8.228  0.8761 -0.1014  1.7581
 3070TIP3   OH230768   4.716   5.184   0.366  0.1807 -0.0103 -0.2479
 3070TIP3    H130769   4.772   5.131   0.423 -0.8571  0.5151  1.3150
 3070TIP3    H230770   4.775   5.250   0.329  0.6434  0.4859  1.2961
 3071TIP3   OH230771   3.630   3.652   1.765 -0.0503 -0.0894 -0.5902
 3071TIP3    H130772   3.685   3.658   1.844 -0.5060 -0.5406 -0.2324
 3071TIP3    H230773   3.638   3.739   1.725 -1.6912  0.9956  1.2397
 3072TIP3   OH230774   1.657   4.816   2.250 -0.6935 -0.1569  0.0315
 3072TIP3    H130775   1.693   4.727   2.253  0.1054  0.0787 -1.3104
 3072TIP3    H230776   1.662   4.848   2.340  1.8164 -0.4282  0.0539
 3073TIP3   OH230777   0.161   3.272   8.160  0.0468  0.7038  1.1311
 3073TIP3    H130778   0.172   3.263   8.254  2.1626  0.1019  0.8867
 3073TIP3    H230779   0.111   3.195   8.133 -1.0366  1.1488  1.7898
 3074TIP3   OH230780   4.571   0.825   0.166 -0.5816 -0.1278  0.2754
 3074TIP3    H130781   4.489   0.834   0.213 -1.3291 -1.6677 -0.6507
 3074TIP3    H230782   4.567   0.737   0.126  1.2704 -0.0387 -0.2267
 3075TIP3   OH230783   0.649   0.966   8.434  0.4289  0.4531  0.2358
 3075TIP3    H130784   0.657   0.882   8.478 -1.4774  1.0843  1.9648
 3075TIP3    H230785   0.650   0.945   8.341 -1.6173 -1.7122  0.6133
 3076TIP3   OH230786   2.789   6.795   8.037 -0.0910  0.1924  0.3036
 3076TIP3    H130787   2.732   6.734   8.082  0.5752 -0.7239 -0.0600
 3076TIP3    H230788   2.730   6.857   7.994 -0.7617  2.2129  3.8068
 3077TIP3   OH230789   6.520   1.516   0.035  0.2004  0.1151  0.2220
 3077TIP3    H130790   6.487   1.600   0.066 -0.3757 -0.6947  1.9094
 3077TIP3    H230791   6.462   1.493  -0.038  1.7084  2.1441 -1.7723
 3078TIP3   OH230792   2.134   1.958   3.485  0.6010 -0.2395 -0.0308
 3078TIP3    H130793   2.132   1.867   3.516 -1.9293 -0.6850 -1.2236
 3078TIP3    H230794   2.072   1.960   3.413  2.2989  1.9645 -1.5671
 3079TIP3   OH230795   5.967   4.806   8.440 -0.2660  0.2718  0.1109
 3079TIP3    H130796   5.933   4.830   8.526 -1.1754 -0.5055 -0.0068
 3079TIP3    H230797   5.965   4.887   8.390  0.1203  0.6961  0.7727
 3080TIP3   OH230798   4.148   0.687   0.166 -0.3575 -0.5351 -0.0226
 3080TIP3    H130799   4.112   0.610   0.123 -0.6915  0.2464 -1.1656
 3080TIP3    H230800   4.142   0.757   0.101  1.2166  0.1375  0.4981
 3081TIP3   OH230801   4.661   0.163   2.069 -0.4398  0.8537 -0.5182
 3081TIP3    H130802   4.660   0.132   1.978 -3.3490 -2.0366  0.3190
 3081TIP3    H230803   4.752   0.189   2.083  0.3598  0.4814 -3.9280
 3082TIP3   OH230804   5.487   1.185   1.879 -0.4067 -0.7724 -0.0399
 3082TIP3    H130805   5.447   1.194   1.792  0.3992 -0.6118 -0.3992
 3082TIP3    H230806   5.496   1.274   1.911 -0.8281 -0.8394  0.2701
 3083TIP3   OH230807   3.621   6.634   0.220 -0.1099 -0.2617 -0.3669
 3083TIP3    H130808   3.702   6.666   0.181  0.3236  0.3937  0.9811
 3083TIP3    H230809   3.552   6.682   0.175  0.4615  1.6382  0.6649
 3084TIP3   OH230810   1.466   6.095   0.690  0.2460  0.0305 -0.1330
 3084TIP3    H130811   1.382   6.141   0.682 -0.9122 -2.1843 -2.2269
 3084TIP3    H230812   1.490   6.074   0.600  0.8683 -3.0387  0.6317
 3085TIP3   OH230813   4.171   5.595   0.277 -0.1761 -0.8804  0.0689
 3085TIP3    H130814   4.156   5.619   0.368 -0.3913  0.3875 -0.2646
 3085TIP3    H230815   4.236   5.525   0.280 -0.8369 -1.4678  1.2281
 3086TIP3   OH230816   3.226   2.566   0.063 -0.2331  0.5238 -0.1067
 3086TIP3    H130817   3.254   2.512  -0.011  0.5564 -1.0387  1.2479
 3086TIP3    H230818   3.290   2.636   0.067  0.2647  0.0913 -0.3561
 3087TIP3   OH230819   5.124   6.084   2.665 -0.7632 -0.1063 -0.6593
 3087TIP3    H130820   5.066   6.029   2.718 -2.1621 -0.7287 -2.6728
 3087TIP3    H230821   5.119   6.171   2.705 -2.3495 -0.3838 -0.1726
 3088TIP3   OH230822   3.947   5.807   7.211 -0.2134 -0.0215  0.3170
 3088TIP3    H130823   3.985   5.811   7.298  0.6037 -1.0170  0.0215
 3088TIP3    H230824   3.907   5.721   7.205 -1.4217  0.5203  0.1500
 3089TIP3   OH230825   3.842   2.712   8.422  0.8245  0.3578  0.1065
 3089TIP3    H130826   3.793   2.750   8.349  1.0813  0.2039 -0.1507
 3089TIP3    H230827   3.816   2.621   8.424 -1.4826  0.9794  2.1283
 3090TIP3   OH230828   1.095   5.413   7.665  0.3945 -0.0635  0.3362
 3090TIP3    H130829   1.026   5.399   7.730  1.8105  1.5036  2.2919
 3090TIP3    H230830   1.173   5.372   7.703  0.8357 -0.8767 -1.3327
 3091TIP3   OH230831   5.459   6.584   0.731 -0.5788  0.3881  0.1710
 3091TIP3    H130832   5.404   6.524   0.781 -2.3590  1.1789 -0.7371
 3091TIP3    H230833   5.501   6.639   0.797 -2.8639  1.4016  0.8761
 3092TIP3   OH230834   6.336   1.710   1.734 -0.1678 -0.9133 -0.7361
 3092TIP3    H130835   6.334   1.634   1.675  1.8158  0.6138 -2.9517
 3092TIP3    H230836   6.365   1.783   1.679 -1.1801  1.3177  1.4925
 3093TIP3   OH230837   0.736   2.018   8.626 -0.0090  0.2524  0.2499
 3093TIP3    H130838   0.753   1.924   8.631  1.7566  0.6094  2.1399
 3093TIP3    H230839   0.649   2.029   8.665 -1.5765 -0.8091 -2.6133
 3094TIP3   OH230840   0.480   2.015   7.960 -0.4158 -0.3237 -0.0851
 3094TIP3    H130841   0.510   1.944   8.016 -0.3576  0.9219  1.5238
 3094TIP3    H230842   0.559   2.048   7.918 -0.3438 -0.6940 -0.2489
 3095TIP3   OH230843   6.673   2.187   1.837  0.6297 -0.5620 -0.5063
 3095TIP3    H130844   6.614   2.155   1.905  2.0838  0.3343  1.2610
 3095TIP3    H230845   6.622   2.181   1.756 -0.5570 -3.3362  0.3457
 3096TIP3   OH230846   0.658   2.423   0.213 -0.6909  0.4793 -0.1661
 3096TIP3    H130847   0.569   2.389   0.206  0.1167 -1.6888 -0.6178
 3096TIP3    H230848   0.677   2.459   0.127 -0.4098 -1.0691 -0.7914
 3097TIP3   OH230849   6.454   4.497   3.027 -0.0495 -0.3028 -0.2114
 3097TIP3    H130850   6.363   4.467   3.034  0.0164 -0.7138 -1.0086
 3097TIP3    H230851   6.473   4.495   2.934  0.2928  1.2586 -0.2036
 3098TIP3   OH230852   3.807   4.665   2.292 -0.0814 -0.1690  0.3875
 3098TIP3    H130853   3.749   4.732   2.255  1.0441 -0.2280 -1.6113
 3098TIP3    H230854   3.796   4.674   2.387 -0.9652  1.9392  0.1437
 3099TIP3   OH230855   5.986   4.441   8.433  0.7326 -0.0506  0.2794
 3099TIP3    H130856   5.904   4.415   8.476 -0.8837  0.5552 -2.2288
 3099TIP3    H230857   6.032   4.493   8.498 -1.0403 -0.1238  1.6672
 3100TIP3   OH230858   6.206   6.807   1.346 -0.8112 -0.9946  0.1925
 3100TIP3    H130859   6.250   6.887   1.316 -0.2813 -0.6459  1.7626
 3100TIP3    H230860   6.233   6.740   1.284 -1.0728 -0.0100 -1.0259
 3101TIP3   OH230861   5.432   6.769   2.535 -0.8599 -0.2345  0.6687
 3101TIP3    H130862   5.488   6.696   2.562  1.2609  1.2440  0.5385
 3101TIP3    H230863   5.373   6.782   2.609 -0.2755 -1.1403  1.3221
 3102TIP3   OH230864   6.056   2.404   3.250 -0.1068 -0.1756  0.0415
 3102TIP3    H130865   6.002   2.481   3.265 -0.2910 -0.3014  0.0188
 3102TIP3    H230866   6.004   2.330   3.281 -0.3214 -0.3913 -0.7942
 3103TIP3   OH230867   4.150   5.938   2.763 -0.5036  0.2421 -0.8420
 3103TIP3    H130868   4.152   6.019   2.712  0.2779  1.0842  0.4498
 3103TIP3    H230869   4.131   5.967   2.853 -0.4016 -1.0321 -0.3862
 3104TIP3   OH230870   2.652   0.778   7.957 -0.3303  0.1756  0.2082
 3104TIP3    H130871   2.677   0.788   7.865 -0.5640 -0.5629  0.0578
 3104TIP3    H230872   2.731   0.799   8.006  0.4474 -1.5393 -0.2342
 3105TIP3   OH230873   6.000   0.495   8.257 -0.1603  0.9377  0.1510
 3105TIP3    H130874   6.051   0.575   8.242 -1.7527  2.0042  0.1823
 3105TIP3    H230875   5.961   0.508   8.344 -1.4014  0.7043 -0.3439
 3106TIP3   OH230876   0.977   3.434   1.979  0.1254  0.3643  0.1128
 3106TIP3    H130877   0.911   3.484   1.931  0.8899  1.2835 -0.0233
 3106TIP3    H230878   0.989   3.354   1.928 -0.8593  0.1907  0.1346
 3107TIP3   OH230879   4.074   2.559   3.106  0.4599  0.0249 -0.3357
 3107TIP3    H130880   4.020   2.582   3.181 -0.3349  0.4075 -1.0143
 3107TIP3    H230881   4.092   2.642   3.062  1.1766 -0.1606 -0.4101
 3108TIP3   OH230882   2.931   3.940   2.355  0.0037  0.0251 -0.5438
 3108TIP3    H130883   2.931   4.018   2.299 -0.1820  1.2639  1.1236
 3108TIP3    H230884   3.024   3.927   2.378 -0.2174  1.4745  1.4106
 3109TIP3   OH230885   6.559   1.502   7.086 -0.1369 -0.4942  0.0023
 3109TIP3    H130886   6.569   1.513   7.180 -0.3191  1.0130 -0.1364
 3109TIP3    H230887   6.481   1.552   7.063  0.1714 -0.4422 -1.0094
 3110TIP3   OH230888   6.660   1.739   0.626  0.4497  0.1778  0.4594
 3110TIP3    H130889   6.641   1.692   0.544 -0.9296 -0.2274  0.9649
 3110TIP3    H230890   6.754   1.728   0.639  0.9533  1.4172 -1.7518
 3111TIP3   OH230891   4.966   1.036   2.263  0.5793 -0.0915 -0.5990
 3111TIP3    H130892   5.032   1.106   2.260  1.2375 -0.7098 -0.7838
 3111TIP3    H230893   4.975   1.000   2.351  0.7911 -0.4579 -0.7681
 3112TIP3   OH230894   6.113   4.404   7.394  0.0037  0.0090 -0.4487
 3112TIP3    H130895   6.050   4.407   7.322 -1.3697 -0.0889  0.7140
 3112TIP3    H230896   6.133   4.310   7.403 -0.5135 -0.0715 -0.1232
 3113TIP3   OH230897   2.527   2.818   8.463  0.1848  0.0504  0.4885
 3113TIP3    H130898   2.505   2.864   8.382 -1.7010  2.1535  2.0645
 3113TIP3    H230899   2.472   2.740   8.462 -0.3665  0.4309  0.0514
 3114TIP3   OH230900   6.788   3.561   0.606 -0.1332 -0.0667  0.3595
 3114TIP3    H130901   6.739   3.590   0.682  1.0164  0.5219  0.9018
 3114TIP3    H230902   6.755   3.614   0.533  0.6671  1.3447  0.9892
 3115TIP3   OH230903   1.005   4.065   0.449 -0.0184 -0.0661 -0.4736
 3115TIP3    H130904   1.057   4.139   0.479  1.7797 -0.4439 -2.4046
 3115TIP3    H230905   0.921   4.075   0.493 -0.0581  3.4585 -1.0933
 3116TIP3   OH230906   5.396   2.594   3.621  0.0112  0.1779  0.2617
 3116TIP3    H130907   5.400   2.499   3.638  0.0453 -0.0011 -0.6988
 3116TIP3    H230908   5.361   2.631   3.702  1.3376 -0.5039  1.1887
 3117TIP3   OH230909   1.294   0.101   8.028 -0.1446  0.0754 -0.1437
 3117TIP3    H130910   1.310   0.062   8.115  0.9290 -1.4765 -0.9819
 3117TIP3    H230911   1.203   0.079   8.009  0.4016 -2.0604 -0.5492
 3118TIP3   OH230912   3.968   3.032   2.244  0.2032 -1.1653 -0.0903
 3118TIP3    H130913   3.926   2.977   2.311 -1.6796 -0.6426 -0.7833
 3118TIP3    H230914   4.017   3.097   2.294 -1.5762 -0.4693  0.8458
 3119TIP3   OH230915   4.705   6.657   2.612 -0.3369 -0.1105  0.3745
 3119TIP3    H130916   4.679   6.749   2.602  0.3988  0.0243 -0.3835
 3119TIP3    H230917   4.797   6.655   2.586 -0.1247 -0.9338  1.1325
 3120TIP3   OH230918   4.833   5.603   0.081 -0.1482 -0.4188 -0.1710
 3120TIP3    H130919   4.873   5.638   0.001 -1.5936 -0.9897 -1.1863
 3120TIP3    H230920   4.875   5.651   0.152  0.1766  1.1128 -1.3466
 3121TIP3   OH230921   6.193   5.331   1.003  0.0206  0.2168  0.1541
 3121TIP3    H130922   6.252   5.387   1.053 -0.9449  0.1993  1.3536
 3121TIP3    H230923   6.248   5.293   0.935  1.1299  1.0718  0.5470
 3122TIP3   OH230924   0.236   2.034   0.409 -0.3360  0.5965 -0.1964
 3122TIP3    H130925   0.187   2.068   0.484  1.8157  2.1128  0.6115
 3122TIP3    H230926   0.172   2.035   0.337 -1.8353  1.2913  1.0741
 3123TIP3   OH230927   5.456   1.956   7.599  0.7161 -0.1583 -0.2165
 3123TIP3    H130928   5.414   2.031   7.556 -1.3648 -0.3951  1.2528
 3123TIP3    H230929   5.509   1.995   7.668 -1.3270  0.0361  1.3605
 3124TIP3   OH230930   5.395   2.164   2.999  0.4694  0.0318  0.3915
 3124TIP3    H130931   5.420   2.104   3.070 -0.9138 -0.7552  0.2451
 3124TIP3    H230932   5.315   2.126   2.963  0.3797  1.1907 -0.6802
 3125TIP3   OH230933   3.123   0.866   3.234  0.0040 -0.3800  0.2080
 3125TIP3    H130934   3.188   0.915   3.285  0.0337  0.2762 -0.4395
 3125TIP3    H230935   3.111   0.785   3.283  2.5419 -1.2766 -0.4877
 3126TIP3   OH230936   2.680   5.473   0.161  0.2138 -0.2829 -0.5606
 3126TIP3    H130937   2.598   5.481   0.210 -0.5978 -2.9631 -1.3475
 3126TIP3    H230938   2.743   5.442   0.226 -0.4183 -2.0440 -0.7244
 3127TIP3   OH230939   0.656   3.736   1.651  0.0570 -0.1403  0.4832
 3127TIP3    H130940   0.614   3.816   1.619 -0.1404 -0.2438  0.4819
 3127TIP3    H230941   0.653   3.676   1.577 -0.7354 -0.5098  0.8021
 3128TIP3   OH230942   3.892   6.455   2.239  0.3434  0.2512  0.3618
 3128TIP3    H130943   3.841   6.498   2.308  1.2914  0.6538  0.8272
 3128TIP3    H230944   3.944   6.389   2.285  0.6949  0.2587 -0.0169
 3129TIP3   OH230945   2.734   2.201   3.743  0.1049 -0.1648  0.7132
 3129TIP3    H130946   2.752   2.149   3.822  0.3481 -2.3932 -0.7207
 3129TIP3    H230947   2.640   2.215   3.745 -0.1359 -1.5909  0.6432
 3130TIP3   OH230948   6.691   6.575   1.763 -0.5885 -0.0856 -0.1356
 3130TIP3    H130949   6.607   6.581   1.809 -1.0474 -1.3298 -0.7624
 3130TIP3    H230950   6.685   6.493   1.713  1.7556 -1.2574  1.3292
 3131TIP3   OH230951   3.107   3.689   0.651 -0.5320 -0.2552  1.2479
 3131TIP3    H130952   3.060   3.643   0.721  0.0733 -4.3029 -0.6657
 3131TIP3    H230953   3.187   3.638   0.639 -0.4603  0.3914 -2.1443
 3132TIP3   OH230954   3.936   2.280   8.089  0.6690  0.6298 -0.0839
 3132TIP3    H130955   3.977   2.325   8.162  2.5573 -0.5492 -0.3581
 3132TIP3    H230956   4.007   2.235   8.045 -0.5959  0.3478 -1.9762
 3133TIP3   OH230957   6.698   2.255   2.172  0.0163 -0.1666 -0.2115
 3133TIP3    H130958   6.656   2.186   2.121  0.8492 -0.9487  0.1356
 3133TIP3    H230959   6.716   2.215   2.257  0.5494  0.4603 -0.0160
 3134TIP3   OH230960   0.940   5.707   1.301 -0.1115 -0.3501  0.0611
 3134TIP3    H130961   1.021   5.750   1.272 -1.1198  1.2737 -0.4858
 3134TIP3    H230962   0.964   5.615   1.307  1.2115 -0.2600 -2.2753
 3135TIP3   OH230963   3.964   5.489   7.231 -0.5369  0.1794 -0.3638
 3135TIP3    H130964   4.038   5.500   7.172  0.0228 -0.2787  0.2388
 3135TIP3    H230965   3.887   5.498   7.175 -0.1763  4.0355 -0.5168
 3136TIP3   OH230966   1.472   3.917   8.496  0.5896 -0.2454 -0.0450
 3136TIP3    H130967   1.466   3.851   8.427  3.5750  0.5012 -1.1552
 3136TIP3    H230968   1.423   3.880   8.569  0.0746 -2.5442 -1.4484
 3137TIP3   OH230969   0.131   4.518   2.412  0.2014  0.1520 -0.5184
 3137TIP3    H130970   0.154   4.485   2.325 -0.3581 -1.3033 -0.1467
 3137TIP3    H230971   0.035   4.522   2.411  0.1066 -1.2094  0.4667
 3138TIP3   OH230972   5.318   4.947   2.067  0.9605 -0.2364 -0.2159
 3138TIP3    H130973   5.255   4.883   2.033 -1.6529  1.7276  0.5205
 3138TIP3    H230974   5.366   4.976   1.990  0.1191 -0.9442 -1.0448
 3139TIP3   OH230975   0.972   0.349   2.270  0.0669  0.5608 -0.4942
 3139TIP3    H130976   1.042   0.296   2.307  0.4847  1.7447  0.5091
 3139TIP3    H230977   0.926   0.384   2.347 -0.1431  1.6813 -1.1112
 3140TIP3   OH230978   3.804   5.985   8.306 -0.0506 -0.3777  0.0213
 3140TIP3    H130979   3.813   5.890   8.314  0.6551 -0.6623 -2.8475
 3140TIP3    H230980   3.735   5.996   8.241 -0.9509  1.1424  1.1910
 3141TIP3   OH230981   1.559   5.087   0.527  0.1835 -0.3092  0.1908
 3141TIP3    H130982   1.632   5.053   0.580  0.3309 -0.9582 -0.4143
 3141TIP3    H230983   1.602   5.140   0.460  0.0653 -0.2762  0.1428
 3142TIP3   OH230984   3.823   5.016   0.484 -0.3167 -0.3542 -0.4350
 3142TIP3    H130985   3.912   5.003   0.454 -0.4345  2.7866 -2.6114
 3142TIP3    H230986   3.770   4.958   0.429  0.2505 -1.7072  0.3931
 3143TIP3   OH230987   1.828   0.138   2.516  0.1996  0.0253  0.0565
 3143TIP3    H130988   1.814   0.091   2.434 -1.4279  0.5831 -0.0189
 3143TIP3    H230989   1.903   0.194   2.498  0.2082 -0.2601 -0.8718
 3144TIP3   OH230990   1.197   0.590   0.297  0.0226  0.4192  0.5908
 3144TIP3    H130991   1.163   0.678   0.284 -0.7109  0.1257  0.4811
 3144TIP3    H230992   1.165   0.565   0.384  1.0525  0.6304  1.0403
 3145TIP3   OH230993   5.271   2.409   1.204  0.1695 -0.1012 -1.0256
 3145TIP3    H130994   5.337   2.343   1.183  0.2165 -0.0507 -1.0358
 3145TIP3    H230995   5.319   2.478   1.250  0.0642 -0.2216 -0.7328
 3146TIP3   OH230996   3.213   1.346   2.834  0.1111 -0.0182 -0.5074
 3146TIP3    H130997   3.189   1.407   2.905 -0.9958 -0.9050 -0.0919
 3146TIP3    H230998   3.305   1.366   2.817  0.3034  0.4945  0.9083
 3147TIP3   OH230999   0.619   0.823   2.169 -0.1460  0.4703 -0.1955
 3147TIP3    H131000   0.538   0.817   2.219  0.3957 -1.1792  0.5704
 3147TIP3    H231001   0.681   0.866   2.228 -0.2268  0.9604 -0.4635
 3148TIP3   OH231002   6.669   3.280   2.458 -0.0223 -0.1084 -0.8162
 3148TIP3    H131003   6.637   3.193   2.481 -1.3586  1.1413  2.7909
 3148TIP3    H231004   6.590   3.334   2.452  0.7900  0.9780 -2.7223
 3149TIP3   OH231005   1.731   6.690   0.891  0.4264 -0.6530  0.0848
 3149TIP3    H131006   1.780   6.766   0.921 -0.6400  0.3836 -0.6990
 3149TIP3    H231007   1.795   6.635   0.846  1.0951  0.0613  0.1690
 3150TIP3   OH231008   3.259   4.660   0.156 -0.4691  0.1852  0.0601
 3150TIP3    H131009   3.198   4.641   0.085  0.7685 -0.9269 -0.7459
 3150TIP3    H231010   3.276   4.575   0.196  1.1908  0.3261 -0.2873
 3151TIP3   OH231011   4.813   1.381   8.295  0.4911 -0.9512  0.4550
 3151TIP3    H131012   4.760   1.386   8.375  1.8201 -0.5355  1.3465
 3151TIP3    H231013   4.902   1.364   8.326  0.9482 -1.3624 -0.9818
 3152TIP3   OH231014   0.894   2.627   8.059  0.6664  0.0115  0.0975
 3152TIP3    H131015   0.817   2.587   8.017  1.1531  1.2563 -2.1390
 3152TIP3    H231016   0.904   2.712   8.015  2.5197  0.4794  1.3036
 3153TIP3   OH231017   1.822   5.022   8.000  0.0132  0.0539  0.1048
 3153TIP3    H131018   1.790   4.996   7.914  0.8171  0.2662 -0.2703
 3153TIP3    H231019   1.754   4.994   8.061 -0.8755  0.5075 -0.6643
 3154TIP3   OH231020   2.343   6.190   0.693 -0.7070 -0.0026 -0.2609
 3154TIP3    H131021   2.293   6.115   0.660 -0.4998 -0.2472 -0.0288
 3154TIP3    H231022   2.299   6.213   0.775 -1.4597  0.8517 -0.8803
 3155TIP3   OH231023   4.143   3.395   8.325  1.0274 -0.6315 -0.5599
 3155TIP3    H131024   4.176   3.469   8.274  1.5865 -0.4964 -0.0112
 3155TIP3    H231025   4.215   3.332   8.326  0.8019 -0.8899 -0.4466
 3156TIP3   OH231026   3.982   6.257   1.675 -0.0203  0.5581  0.1071
 3156TIP3    H131027   4.064   6.208   1.678 -0.1308  0.1981 -1.5756
 3156TIP3    H231028   3.989   6.319   1.747  0.3579 -1.5302  2.0086
 3157TIP3   OH231029   0.375   0.522   8.203 -0.3931  0.3369 -0.9712
 3157TIP3    H131030   0.466   0.527   8.174 -0.2551 -0.3057 -0.6479
 3157TIP3    H231031   0.354   0.611   8.232  0.3913  0.2975 -0.2571
 3158TIP3   OH231032   4.755   0.957   2.861  0.3182 -0.1246 -0.0099
 3158TIP3    H131033   4.756   0.877   2.808  1.2245 -0.8938  1.1287
 3158TIP3    H231034   4.748   0.926   2.951 -0.8096  1.1534  0.3817
 3159TIP3   OH231035   3.711   1.291   0.350  0.0819  0.2921  0.6458
 3159TIP3    H131036   3.730   1.239   0.271  0.2595 -0.3342  1.0906
 3159TIP3    H231037   3.615   1.288   0.358 -0.0928  1.7343 -0.4481
 3160TIP3   OH231038   3.096   4.864   0.787  0.1080  0.9545  0.3786
 3160TIP3    H131039   3.146   4.944   0.769 -1.4077  2.8218  3.6541
 3160TIP3    H231040   3.150   4.817   0.851  0.5346 -0.2206 -0.8107
 3161TIP3   OH231041   1.139   4.631   0.143 -0.0009  0.0739  0.1705
 3161TIP3    H131042   1.228   4.649   0.174 -0.4723 -0.1181  1.7393
 3161TIP3    H231043   1.086   4.704   0.177 -0.3700  0.4957 -1.2341
 3162TIP3   OH231044   4.851   4.705   0.480  0.1402 -0.1985  0.1012
 3162TIP3    H131045   4.827   4.657   0.559 -0.7972  1.4691  0.8795
 3162TIP3    H231046   4.792   4.671   0.412  0.9519 -1.6334  0.0805
 3163TIP3   OH231047   5.155   3.205   7.673 -0.2563 -0.0648  0.1115
 3163TIP3    H131048   5.069   3.188   7.635  0.9860  1.3503 -3.7592
 3163TIP3    H231049   5.210   3.134   7.639  0.7328  0.6923  0.1080
 3164TIP3   OH231050   4.234   6.689   8.459  0.6709 -0.7434  0.2161
 3164TIP3    H131051   4.284   6.681   8.540  0.9742 -1.8352 -0.0604
 3164TIP3    H231052   4.230   6.599   8.424  2.0100 -0.0792 -1.8332
 3165TIP3   OH231053   5.806   1.295   3.013  0.5939  0.1182  0.1931
 3165TIP3    H131054   5.748   1.253   3.077  0.7584  0.2188  0.4113
 3165TIP3    H231055   5.747   1.328   2.945  0.4992 -0.8817 -0.2328
 3166TIP3   OH231056   1.457   4.559   7.592 -0.2717  0.6756  0.2107
 3166TIP3    H131057   1.444   4.561   7.497  0.4293  2.4467  0.1148
 3166TIP3    H231058   1.550   4.579   7.605 -0.2796  0.1243  1.2649
 3167TIP3   OH231059   3.409   1.474   2.029 -0.3818  0.0077 -0.6442
 3167TIP3    H131060   3.401   1.490   1.935  0.3947 -0.4160 -0.7844
 3167TIP3    H231061   3.487   1.522   2.055 -0.6777  0.2420 -0.1853
 3168TIP3   OH231062   6.542   3.127   7.387 -0.1997  0.3281  0.2694
 3168TIP3    H131063   6.554   3.049   7.441 -0.3968  0.4493  0.4896
 3168TIP3    H231064   6.614   3.124   7.324  1.3095  1.2691  1.8369
 3169TIP3   OH231065   5.457   6.216   1.623  0.1544 -0.0161 -0.2378
 3169TIP3    H131066   5.385   6.163   1.587 -0.4350  0.1196  0.7161
 3169TIP3    H231067   5.534   6.159   1.616 -0.3712 -0.8061  0.2862
 3170TIP3   OH231068   3.099   6.749   8.666  0.2550 -0.7396 -0.0261
 3170TIP3    H131069   3.088   6.833   8.622  0.4267 -0.9759 -0.5357
 3170TIP3    H231070   3.162   6.702   8.611 -0.9858 -1.7887 -0.6092
 3171TIP3   OH231071   0.834   2.009   0.233 -0.1665 -0.2154 -0.5932
 3171TIP3    H131072   0.812   2.019   0.140  1.8693 -1.8653 -1.3275
 3171TIP3    H231073   0.865   2.095   0.260  1.2506 -0.2168 -2.0731
 3172TIP3   OH231074   1.501   4.809   3.072  0.5254  0.5262  0.6003
 3172TIP3    H131075   1.409   4.785   3.086 -0.1595  2.4224 -0.2908
 3172TIP3    H231076   1.546   4.779   3.151 -0.4686 -2.1472  0.2337
 3173TIP3   OH231077   2.461   4.576   8.510 -0.1691 -0.0629  0.4059
 3173TIP3    H131078   2.492   4.662   8.480  1.1714 -0.9531 -0.9047
 3173TIP3    H231079   2.503   4.564   8.595  2.7863 -0.9478 -1.0331
 3174TIP3   OH231080   5.716   5.154   1.759  0.2873 -0.4718 -0.2349
 3174TIP3    H131081   5.658   5.224   1.788 -0.4846 -1.1375 -0.1264
 3174TIP3    H231082   5.717   5.160   1.664 -0.7040 -1.0124 -0.2951
 3175TIP3   OH231083   5.105   0.802   1.742  0.1991 -0.0192  0.3232
 3175TIP3    H131084   5.016   0.779   1.717  0.6725 -0.6377 -0.8657
 3175TIP3    H231085   5.123   0.748   1.819 -0.6805  0.6406  1.0165
 3176TIP3   OH231086   6.627   1.047   7.009  0.2221 -0.4566 -0.4900
 3176TIP3    H131087   6.576   1.128   7.011  1.7624  0.5544 -0.4792
 3176TIP3    H231088   6.573   0.983   7.056 -0.7581  0.7192  0.0296
 3177TIP3   OH231089   1.660   4.302   1.868  0.2662 -0.5106 -0.1317
 3177TIP3    H131090   1.688   4.295   1.776 -0.8905 -1.8194 -0.4208
 3177TIP3    H231091   1.688   4.219   1.907  0.0890 -0.2656  0.5124
 3178TIP3   OH231092   4.971   0.336   2.508 -0.3143  0.1454  0.5046
 3178TIP3    H131093   5.030   0.310   2.437 -0.1976  0.1199  0.6113
 3178TIP3    H231094   4.950   0.427   2.488 -1.0506 -0.1500 -0.0942
 3179TIP3   OH231095   0.377   5.127   0.672 -0.1519 -0.2081 -0.1174
 3179TIP3    H131096   0.347   5.177   0.748 -1.1398 -0.9158 -0.0257
 3179TIP3    H231097   0.418   5.193   0.615  0.9006  0.2900  1.1467
 3180TIP3   OH231098   1.696   3.513   8.224 -0.0023  0.2009  0.0593
 3180TIP3    H131099   1.763   3.448   8.244  3.4896  2.4000 -3.0770
 3180TIP3    H231100   1.647   3.475   8.151  0.3953  0.0679 -0.1423
 3181TIP3   OH231101   2.816   5.970   8.686  0.3887  0.4365 -0.5067
 3181TIP3    H131102   2.832   5.878   8.709  1.4768  0.7074 -0.1199
 3181TIP3    H231103   2.783   5.966   8.596 -0.0095 -0.3617 -0.3357
 3182TIP3   OH231104   6.302   4.447   1.982  0.0937 -0.2117 -0.4827
 3182TIP3    H131105   6.248   4.521   1.957  1.1650  1.6088  2.1860
 3182TIP3    H231106   6.332   4.410   1.898 -0.8199  2.0694 -1.9100
 3183TIP3   OH231107   0.441   4.177   7.685  0.3265  0.2717  0.2115
 3183TIP3    H131108   0.481   4.262   7.701  1.6581 -0.1242 -0.8545
 3183TIP3    H231109   0.431   4.138   7.772  2.4853  0.3257  0.5401
 3184TIP3   OH231110   1.307   0.953   1.487 -0.0547  0.6488 -0.2391
 3184TIP3    H131111   1.289   1.012   1.414 -1.7194 -0.0589 -0.4562
 3184TIP3    H231112   1.306   1.009   1.564 -1.5888  0.9550 -0.4429
 3185TIP3   OH231113   2.530   3.520   7.913  0.1916  0.8722  0.7104
 3185TIP3    H131114   2.530   3.474   7.997  1.0848  0.2124  0.3565
 3185TIP3    H231115   2.563   3.456   7.850 -2.1379  0.7579 -0.5110
 3186TIP3   OH231116   0.130   4.384   2.171  0.2262 -0.4571  0.3967
 3186TIP3    H131117   0.059   4.375   2.108 -0.5121  0.7759  1.0090
 3186TIP3    H231118   0.161   4.295   2.186  0.1612 -0.8196 -1.3894
 3187TIP3   OH231119   5.142   1.693   2.325 -0.0066 -0.2769  0.0186
 3187TIP3    H131120   5.106   1.609   2.298  1.4364 -1.3174  1.1339
 3187TIP3    H231121   5.156   1.741   2.243  1.8395 -2.2870 -0.9613
 3188TIP3   OH231122   5.716   0.955   1.176 -0.2960 -0.0883  0.0475
 3188TIP3    H131123   5.796   0.903   1.181 -1.3610 -1.6489  1.9043
 3188TIP3    H231124   5.719   1.012   1.253 -1.5679 -1.1515  0.9330
 3189TIP3   OH231125   0.494   1.507   8.372  0.3211 -0.0999 -0.0183
 3189TIP3    H131126   0.475   1.488   8.464  0.7452  0.2935  0.1545
 3189TIP3    H231127   0.444   1.587   8.353 -0.3308 -0.5728 -0.3389
 3190TIP3   OH231128   2.382   2.921   3.535  0.0515 -0.5986 -0.0957
 3190TIP3    H131129   2.472   2.947   3.515  0.0057 -1.4709 -1.6339
 3190TIP3    H231130   2.354   2.871   3.458 -2.0972  0.5085 -0.1092
 3191TIP3   OH231131   6.142   2.944   0.137 -0.0991  0.5547 -0.1929
 3191TIP3    H131132   6.238   2.935   0.135  0.0701  2.1199 -0.3180
 3191TIP3    H231133   6.124   3.020   0.082 -1.4778 -0.0797 -0.6400
 3192TIP3   OH231134   1.992   4.051   0.842  0.1714 -0.6046  0.0637
 3192TIP3    H131135   2.065   3.999   0.808  0.7239  1.5002 -2.2292
 3192TIP3    H231136   1.917   4.025   0.788 -0.1509 -0.8313  0.6154
 3193TIP3   OH231137   2.630   2.500   2.510 -0.3978 -0.0438 -0.1080
 3193TIP3    H131138   2.685   2.439   2.560  0.3724  0.1130 -0.7329
 3193TIP3    H231139   2.551   2.450   2.489  0.0321 -0.6908 -0.2286
 3194TIP3   OH231140   5.125   5.049   3.044 -0.1593  0.7096  0.0384
 3194TIP3    H131141   5.150   5.135   3.078  0.3966  0.1098  1.2012
 3194TIP3    H231142   5.159   4.987   3.108 -0.7574 -0.3757 -0.6622
 3195TIP3   OH231143   1.926   0.175   1.702  0.1230  0.1568 -0.2110
 3195TIP3    H131144   1.934   0.230   1.780  1.0596  1.1276 -0.9638
 3195TIP3    H231145   1.835   0.186   1.675  0.4157  1.8249 -0.6628
 3196TIP3   OH231146   0.690   6.404   0.135 -0.0734  0.4513  0.3449
 3196TIP3    H131147   0.699   6.492   0.097  2.1448  1.2058  2.3572
 3196TIP3    H231148   0.625   6.414   0.204 -0.9124  0.1436 -0.3986
 3197TIP3   OH231149   0.840   4.897   2.288  0.0818  0.3751 -0.2602
 3197TIP3    H131150   0.796   4.830   2.340  1.6300 -0.7638 -0.3381
 3197TIP3    H231151   0.899   4.848   2.231  1.7400  1.8170  0.1198
 3198TIP3   OH231152   1.941   3.113   0.266 -0.1421  0.6004 -0.5338
 3198TIP3    H131153   1.947   3.208   0.263 -1.1710  0.6989 -3.6332
 3198TIP3    H231154   1.896   3.090   0.185  1.5985 -2.6323 -0.7341
 3199TIP3   OH231155   1.793   3.820   7.067  0.0989  1.0498  0.7898
 3199TIP3    H131156   1.710   3.856   7.099 -0.1023  0.6030  0.7744
 3199TIP3    H231157   1.811   3.747   7.125 -0.5480 -0.1190 -0.4205
 3200TIP3   OH231158   3.493   2.643   8.503 -0.1108 -0.3613 -0.4244
 3200TIP3    H131159   3.514   2.694   8.581 -1.0702  0.8338 -0.9114
 3200TIP3    H231160   3.438   2.572   8.536  2.3380 -1.9917  0.4615
 3201TIP3   OH231161   2.695   6.308   2.909 -0.2256  0.1471  0.6971
 3201TIP3    H131162   2.784   6.340   2.901 -0.0781 -0.5397 -0.4718
 3201TIP3    H231163   2.699   6.244   2.980  0.4059 -0.5383  0.0555
 3202TIP3   OH231164   5.883   0.154   1.239 -0.6433  0.2679 -0.5180
 3202TIP3    H131165   5.821   0.227   1.242 -1.2912 -0.2831  2.2569
 3202TIP3    H231166   5.852   0.094   1.307  1.9820 -0.8285 -0.1938
 3203TIP3   OH231167   0.395   5.809   1.007 -0.2507  0.0587  0.2366
 3203TIP3    H131168   0.325   5.866   0.973  0.9235  0.8332 -0.9980
 3203TIP3    H231169   0.461   5.870   1.040  1.6149 -0.4349 -2.2854
 3204TIP3   OH231170   2.922   1.169   7.955 -0.6850 -0.0615 -0.1758
 3204TIP3    H131171   3.009   1.132   7.938 -0.5202  0.3592 -0.2678
 3204TIP3    H231172   2.862   1.111   7.909 -0.3877  0.0857 -0.7565
 3205TIP3   OH231173   5.426   5.424   0.220 -0.2589  0.3522  0.1722
 3205TIP3    H131174   5.462   5.362   0.283 -1.7502  0.3218  1.0629
 3205TIP3    H231175   5.463   5.399   0.136 -0.7896 -1.7434  0.5121
 3206TIP3   OH231176   2.552   4.715   2.725  0.1418  0.5643  0.1724
 3206TIP3    H131177   2.638   4.680   2.748  0.5102  1.5569  0.3694
 3206TIP3    H231178   2.505   4.719   2.808 -0.7171 -1.5137 -0.1517
 3207TIP3   OH231179   3.028   2.854   0.279  0.8073 -0.0417  0.3865
 3207TIP3    H131180   3.046   2.920   0.212  0.0293  1.5690  1.6776
 3207TIP3    H231181   2.933   2.842   0.275  0.8251 -0.3450  0.8308
 3208TIP3   OH231182   1.941   2.339   1.179  0.0974  0.2380  0.2416
 3208TIP3    H131183   1.904   2.257   1.211  0.2402  0.3331  0.6657
 3208TIP3    H231184   2.027   2.316   1.146 -0.4671 -0.0463 -1.0773
 3209TIP3   OH231185   1.713   4.057   0.446 -0.3326  0.1948  0.1511
 3209TIP3    H131186   1.750   4.023   0.528 -0.5829 -0.7729 -0.1203
 3209TIP3    H231187   1.714   3.982   0.387 -2.4162  0.2139  0.0145
 3210TIP3   OH231188   1.365   0.622   0.964  0.4601  0.2599  0.2663
 3210TIP3    H131189   1.373   0.562   1.038  0.1229 -1.6355 -1.1665
 3210TIP3    H231190   1.451   0.664   0.958  1.0046 -0.7443  0.7578
 3211TIP3   OH231191   0.190   6.609   2.878  0.2785  0.0888 -0.2851
 3211TIP3    H131192   0.130   6.560   2.822  1.6091 -0.5277 -1.2312
 3211TIP3    H231193   0.157   6.699   2.876  0.3618  0.1198 -2.2328
 3212TIP3   OH231194   4.781   6.766   8.178  0.1677  0.4369  0.0517
 3212TIP3    H131195   4.756   6.833   8.114 -1.4812  0.0529  0.2459
 3212TIP3    H231196   4.778   6.812   8.263  1.3168  0.6835 -0.0347
 3213TIP3   OH231197   5.609   1.937   8.498  0.3518  0.2888  0.0630
 3213TIP3    H131198   5.536   1.943   8.559 -0.8656 -2.5974 -0.9556
 3213TIP3    H231199   5.577   1.979   8.418  0.6069  0.8730  0.2633
 3214TIP3   OH231200   1.365   3.329   1.876  0.1380  0.0327 -0.3871
 3214TIP3    H131201   1.336   3.306   1.964 -1.4398 -2.3349 -1.4222
 3214TIP3    H231202   1.456   3.298   1.872  0.2879  0.3384  0.4439
 3215TIP3   OH231203   4.920   1.066   7.689  0.1848 -0.2904  0.2676
 3215TIP3    H131204   4.890   1.156   7.676 -0.8941 -0.8223 -1.1770
 3215TIP3    H231205   4.974   1.048   7.612  0.0597 -1.0041  0.3433
 3216TIP3   OH231206   3.866   5.513   8.558 -0.4724  0.0192 -0.1862
 3216TIP3    H131207   3.898   5.493   8.646  0.3112  0.1123 -0.4448
 3216TIP3    H231208   3.806   5.441   8.538 -3.3559  1.7351  1.7387
 3217TIP3   OH231209   5.293   5.753   7.248 -0.2708 -0.0682  0.1306
 3217TIP3    H131210   5.298   5.838   7.205  0.0520  0.5092  1.2790
 3217TIP3    H231211   5.359   5.700   7.203 -2.5376 -0.7582 -2.7080
 3218TIP3   OH231212   0.330   5.633   3.473 -0.1423 -0.4103  0.3000
 3218TIP3    H131213   0.354   5.542   3.459  2.1322  0.2720 -0.6651
 3218TIP3    H231214   0.405   5.671   3.519 -0.9802  1.0094  0.5424
 3219TIP3   OH231215   0.983   3.685   2.497 -0.0781 -0.3223 -0.0905
 3219TIP3    H131216   0.899   3.729   2.487  0.3881  0.7327  0.4439
 3219TIP3    H231217   0.985   3.621   2.426 -1.7600 -1.0979  0.5084
 3220TIP3   OH231218   4.941   0.221   7.440  0.5449 -0.2189 -0.0248
 3220TIP3    H131219   4.935   0.132   7.477  0.8444 -0.2029  0.0729
 3220TIP3    H231220   4.859   0.263   7.464  0.7226 -0.2199  0.6137
 3221TIP3   OH231221   1.455   1.317   1.196 -0.7474  0.2299 -0.0959
 3221TIP3    H131222   1.398   1.346   1.124  1.4261 -1.6359 -2.7991
 3221TIP3    H231223   1.474   1.225   1.175  2.2063  0.4046  1.3365
 3222TIP3   OH231224   0.160   1.305   7.306 -0.2721  0.2466 -0.8724
 3222TIP3    H131225   0.124   1.240   7.246 -1.1534  1.3113 -1.5310
 3222TIP3    H231226   0.254   1.286   7.307 -0.5353 -1.2085 -0.8115
 3223TIP3   OH231227   2.139   6.839   1.267  0.2967  0.4163 -0.3131
 3223TIP3    H131228   2.185   6.921   1.251 -0.7903  0.9188 -1.0064
 3223TIP3    H231229   2.124   6.838   1.362 -0.0727  1.2428 -0.3557
 3224TIP3   OH231230   3.854   2.598   8.120 -0.3897  0.2130 -0.0303
 3224TIP3    H131231   3.910   2.595   8.197  0.0031  0.3564 -0.3085
 3224TIP3    H231232   3.767   2.617   8.154 -0.5014 -1.1650  0.5174
 3225TIP3   OH231233   5.189   1.724   0.864 -0.1755  0.2558 -0.0279
 3225TIP3    H131234   5.170   1.764   0.779  0.2122 -0.1417 -0.3066
 3225TIP3    H231235   5.184   1.630   0.848  2.3118  0.0783 -0.2389
 3226TIP3   OH231236   0.847   1.775   8.579 -0.1120  0.7946 -0.1009
 3226TIP3    H131237   0.875   1.695   8.625 -0.9179  0.5649 -0.0005
 3226TIP3    H231238   0.874   1.761   8.489 -0.9433  0.0546 -0.2497
 3227TIP3   OH231239   3.399   1.875   2.270 -0.3012  0.0532  0.1648
 3227TIP3    H131240   3.354   1.929   2.205 -0.7408 -0.1726  0.2725
 3227TIP3    H231241   3.486   1.859   2.233 -0.1616  0.8505  0.1455
 3228TIP3   OH231242   4.019   0.878   2.658 -0.5851  0.4343 -0.6161
 3228TIP3    H131243   3.931   0.881   2.695 -0.6182  1.5725 -0.7352
 3228TIP3    H231244   4.060   0.802   2.699 -1.8253 -0.4968 -1.0519
 3229TIP3   OH231245   3.147   5.694   2.097  0.1228  0.3197 -0.3603
 3229TIP3    H131246   3.066   5.704   2.147  0.5710 -0.0535  0.4634
 3229TIP3    H231247   3.119   5.662   2.012 -0.4508 -2.0494  0.6447
 3230TIP3   OH231248   0.931   5.300   8.211  0.4376 -0.1664  0.0028
 3230TIP3    H131249   0.863   5.264   8.154  1.8278 -1.7747 -0.7326
 3230TIP3    H231250   0.916   5.394   8.210 -1.4373 -0.4399 -0.5652
 3231TIP3   OH231251   1.598   2.857   3.392 -0.0592 -0.1403  0.5340
 3231TIP3    H131252   1.626   2.769   3.366 -1.2816 -0.3667 -0.1127
 3231TIP3    H231253   1.638   2.870   3.478  0.6246 -1.0854  0.3830
 3232TIP3   OH231254   6.086   3.638   7.885 -0.2753 -0.3134 -0.2823
 3232TIP3    H131255   6.027   3.581   7.835 -0.8188  0.3612 -0.4230
 3232TIP3    H231256   6.169   3.590   7.888 -1.0984 -1.7097  0.7366
 3233TIP3   OH231257   5.241   0.650   7.883  0.2251  0.0825  0.3489
 3233TIP3    H131258   5.312   0.589   7.862  1.5746  1.3952  0.8895
 3233TIP3    H231259   5.198   0.666   7.799 -0.1650 -1.5722  0.1924
 3234TIP3   OH231260   5.185   0.285   2.141 -0.5216 -0.1255  0.2386
 3234TIP3    H131261   5.091   0.305   2.137 -1.0124 -2.3741 -1.0252
 3234TIP3    H231262   5.201   0.266   2.233 -1.4251 -0.1362  0.4062
 3235TIP3   OH231263   1.236   6.074   8.691  0.1200  0.2095 -0.4410
 3235TIP3    H131264   1.208   6.023   8.766 -0.9410  1.1972 -0.1408
 3235TIP3    H231265   1.238   6.011   8.619 -2.6717 -0.0059 -0.4350
 3236TIP3   OH231266   5.881   3.978   2.670  0.0487  0.0810  0.0747
 3236TIP3    H131267   5.936   3.902   2.686 -0.3057 -0.9072 -2.8206
 3236TIP3    H231268   5.794   3.951   2.701  0.2375 -0.0917  0.4651
 3237TIP3   OH231269   5.879   2.178   7.906 -0.0028 -0.3405 -0.2691
 3237TIP3    H131270   5.869   2.220   7.991  0.1965  1.6036 -1.1446
 3237TIP3    H231271   5.959   2.126   7.914 -0.6775 -1.2211  1.0904
 3238TIP3   OH231272   2.537   1.797   7.991 -0.2239 -0.1194 -0.5733
 3238TIP3    H131273   2.541   1.887   8.023 -2.3403  0.3889 -1.5471
 3238TIP3    H231274   2.605   1.792   7.924  0.0446  0.6846 -0.3702
 3239TIP3   OH231275   3.115   3.505   2.449  0.1593  0.6706 -0.8395
 3239TIP3    H131276   3.134   3.438   2.515 -0.3383  1.9149  0.6430
 3239TIP3    H231277   3.201   3.538   2.422  0.3568  1.5011  0.6873
 3240TIP3   OH231278   6.058   0.643   0.788 -0.4605  0.4736 -0.1165
 3240TIP3    H131279   6.015   0.728   0.796 -2.2673 -0.3053 -0.8224
 3240TIP3    H231280   5.989   0.585   0.754  0.6183 -1.3458  0.6502
 3241TIP3   OH231281   5.334   1.448   2.202  0.3463 -1.1562 -0.2884
 3241TIP3    H131282   5.251   1.465   2.157  0.3847  0.8201  0.2507
 3241TIP3    H231283   5.389   1.524   2.180  0.4435 -0.1682  2.7751
 3242TIP3   OH231284   2.241   0.980   1.963 -0.1961 -0.2286  0.2551
 3242TIP3    H131285   2.285   0.898   1.984 -0.0411  0.2435  1.8786
 3242TIP3    H231286   2.288   1.047   2.013  0.9497  1.2210 -2.5086
 3243TIP3   OH231287   3.491   4.079   0.454  0.1208 -0.1664 -0.5201
 3243TIP3    H131288   3.434   4.043   0.385  0.8775  0.4039 -1.4730
 3243TIP3    H231289   3.560   4.125   0.406 -0.1818  1.5808  0.6349
 3244TIP3   OH231290   1.934   3.435   7.952  0.2047 -0.2272  0.1947
 3244TIP3    H131291   1.879   3.358   7.940 -0.2480 -0.0304  0.9536
 3244TIP3    H231292   1.960   3.432   8.044  1.0674 -0.0500 -0.0336
 3245TIP3   OH231293   2.147   3.037   2.396  0.3778  0.3961 -0.5953
 3245TIP3    H131294   2.194   3.015   2.476 -3.2892  0.2019  1.7271
 3245TIP3    H231295   2.191   3.116   2.364  0.9321  1.5481  2.6337
 3246TIP3   OH231296   6.470   0.643   0.046 -0.1297 -0.5631  0.1031
 3246TIP3    H131297   6.517   0.645   0.130 -0.3022  2.5918  0.2419
 3246TIP3    H231298   6.403   0.711   0.055  0.1456  0.1909 -2.7502
 3247TIP3   OH231299   1.170   1.487   3.077 -0.4334  0.0426  0.2227
 3247TIP3    H131300   1.082   1.509   3.105 -0.9494 -1.6883  0.0921
 3247TIP3    H231301   1.174   1.391   3.083  1.4658  0.0912  0.3223
 3248TIP3   OH231302   6.642   2.293   0.455 -0.1242  0.6237 -0.2726
 3248TIP3    H131303   6.669   2.305   0.364  1.2728 -0.5967 -0.0490
 3248TIP3    H231304   6.552   2.262   0.450 -0.3163  1.2961 -1.1897
 3249TIP3   OH231305   0.327   6.315   1.034  0.5296 -0.4084  0.0445
 3249TIP3    H131306   0.291   6.384   1.090  0.8218  0.1255 -0.4112
 3249TIP3    H231307   0.386   6.362   0.975 -0.3283 -0.8619 -1.1950
 3250TIP3   OH231308   0.718   2.459   2.568  0.3621 -0.0021  0.2051
 3250TIP3    H131309   0.674   2.399   2.627 -2.1344  1.9338  0.4944
 3250TIP3    H231310   0.767   2.518   2.625  2.8647 -1.6611 -0.0794
 3251TIP3   OH231311   2.287   6.045   8.454  0.3603  0.2900  0.0496
 3251TIP3    H131312   2.253   6.034   8.366 -2.8027  0.4184  1.1450
 3251TIP3    H231313   2.339   5.966   8.470 -1.0219 -0.8892 -1.0879
 3252TIP3   OH231314   6.413   4.563   2.409 -0.0487 -0.2191  0.5508
 3252TIP3    H131315   6.393   4.651   2.377  0.5787 -0.1668  0.3093
 3252TIP3    H231316   6.345   4.508   2.370 -0.4987  0.1686  0.7746
 3253TIP3   OH231317   1.087   4.607   1.540  0.0929 -0.6510  0.1568
 3253TIP3    H131318   1.031   4.530   1.549 -0.0863 -0.7259 -1.4002
 3253TIP3    H231319   1.029   4.682   1.554 -1.1620 -0.5865 -3.9254
 3254TIP3   OH231320   0.927   2.271   0.330  0.5691  0.1028  0.0766
 3254TIP3    H131321   0.859   2.277   0.397 -0.9493 -1.2679 -1.2523
 3254TIP3    H231322   0.920   2.352   0.280  1.1595  0.7620  1.0328
 3255TIP3   OH231323   4.976   4.700   2.378 -0.0710  0.3423 -0.1475
 3255TIP3    H131324   4.914   4.632   2.351 -0.6932  2.1016 -3.9144
 3255TIP3    H231325   4.921   4.775   2.399  0.6859  0.4965  1.3786
 3256TIP3   OH231326   1.632   2.644   8.293  0.2352  0.2960 -0.0626
 3256TIP3    H131327   1.560   2.626   8.353  0.5694 -2.9227 -0.4876
 3256TIP3    H231328   1.709   2.650   8.350 -0.0324  1.8190  0.1933
 3257TIP3   OH231329   1.664   2.650   1.980 -0.2518 -0.1088  0.2910
 3257TIP3    H131330   1.633   2.579   2.037 -1.3473  0.3621  0.2918
 3257TIP3    H231331   1.755   2.664   2.008 -0.6167 -0.2013  1.6224
 3258TIP3   OH231332   4.606   6.255   1.488 -0.2759  0.2576 -0.3339
 3258TIP3    H131333   4.621   6.343   1.523 -2.2900  0.1207  1.0920
 3258TIP3    H231334   4.678   6.202   1.522 -0.0689  0.9833  0.3814
 3259TIP3   OH231335   4.677   3.600   7.517  0.1516  0.1704  0.5395
 3259TIP3    H131336   4.745   3.651   7.561 -0.1645  1.3355 -0.2861
 3259TIP3    H231337   4.623   3.665   7.472  0.0431 -0.9186 -0.9919
 3260TIP3   OH231338   5.258   0.779   8.364  0.2687  0.4386  0.3022
 3260TIP3    H131339   5.173   0.779   8.407  1.4468 -0.2981  2.8581
 3260TIP3    H231340   5.247   0.836   8.288 -2.4128  0.5377  0.6764
 3261TIP3   OH231341   4.143   2.644   8.648 -0.2013  0.2378 -0.1310
 3261TIP3    H131342   4.204   2.665   8.718 -1.7381  0.8799  1.0523
 3261TIP3    H231343   4.159   2.551   8.629  0.8468  0.2934  0.4243
 3262TIP3   OH231344   0.808   5.731   0.486 -0.2485 -0.5343 -0.1566
 3262TIP3    H131345   0.732   5.782   0.513 -0.7486 -0.7795 -1.0758
 3262TIP3    H231346   0.875   5.751   0.552 -1.0013 -0.0775  0.4865
 3263TIP3   OH231347   2.942   2.051   1.203  0.0467 -0.2342 -0.4470
 3263TIP3    H131348   2.897   2.067   1.286  0.4170 -0.5841 -0.1763
 3263TIP3    H231349   2.985   1.966   1.215 -1.8185 -1.4599 -1.8205
 3264TIP3   OH231350   6.052   3.488   1.489 -0.1427 -0.4803  0.1857
 3264TIP3    H131351   6.029   3.400   1.520  2.1922 -0.8555  1.0167
 3264TIP3    H231352   5.988   3.545   1.531 -2.1578 -1.7735 -0.9179
 3265TIP3   OH231353   0.711   0.051   2.132 -0.0132 -0.3066  0.1261
 3265TIP3    H131354   0.735   0.110   2.060  0.0871 -2.2780 -1.5796
 3265TIP3    H231355   0.661   0.105   2.192  0.6816  1.6669 -0.9771
 3266TIP3   OH231356   1.519   3.067   7.808  0.0726  0.6156 -0.2998
 3266TIP3    H131357   1.481   2.984   7.781 -0.1564  0.2159  1.1705
 3266TIP3    H231358   1.487   3.130   7.743  0.0909 -0.3952 -1.3174
 3267TIP3   OH231359   0.954   0.323   0.989  0.4464  0.0155  0.2778
 3267TIP3    H131360   1.048   0.319   1.009  0.2086  1.5604  1.9964
 3267TIP3    H231361   0.950   0.365   0.904  1.3415 -1.7410 -0.6941
 3268TIP3   OH231362   0.294   4.728   8.123 -0.1237  0.2378  0.6056
 3268TIP3    H131363   0.340   4.795   8.173 -0.5511  0.3839  0.8084
 3268TIP3    H231364   0.204   4.759   8.119 -1.0945 -1.8235  3.4386
 3269TIP3   OH231365   4.046   1.284   1.723  0.1776 -0.0321 -0.1967
 3269TIP3    H131366   4.042   1.356   1.786  0.8589 -1.2681  1.3143
 3269TIP3    H231367   3.966   1.293   1.671  0.2092  1.7478  0.0053
 3270TIP3   OH231368   1.273   1.337   2.429  0.1942  0.0608  0.5478
 3270TIP3    H131369   1.339   1.272   2.404  1.4399  1.6031 -0.4480
 3270TIP3    H231370   1.240   1.370   2.345 -1.1406  0.0264  1.0372
 3271TIP3   OH231371   3.812   3.196   2.576 -0.1799 -0.8159  0.3492
 3271TIP3    H131372   3.840   3.122   2.522  0.4319 -0.8766  0.7420
 3271TIP3    H231373   3.878   3.264   2.559 -1.4496  0.1455 -1.0469
 3272TIP3   OH231374   5.002   1.093   8.216 -0.3314 -0.6080  0.4335
 3272TIP3    H131375   4.933   1.040   8.176 -2.0517  1.6722  0.1634
 3272TIP3    H231376   4.982   1.091   8.310 -1.3825  0.7460  0.2786
 3273TIP3   OH231377   2.620   0.506   0.522 -0.2726 -0.1403 -0.4964
 3273TIP3    H131378   2.715   0.518   0.515 -0.0029 -2.1787 -1.0957
 3273TIP3    H231379   2.583   0.565   0.457  0.6751 -0.2703 -1.1749
 3274TIP3   OH231380   5.880   5.775   2.204 -0.2284 -0.2598  0.6504
 3274TIP3    H131381   5.845   5.864   2.211  1.0135  0.3441 -0.2564
 3274TIP3    H231382   5.814   5.728   2.153 -0.1383  0.6340 -0.3477
 3275TIP3   OH231383   1.198   1.903   7.406  0.0913 -0.4631  0.0777
 3275TIP3    H131384   1.213   1.991   7.440 -2.3575  0.4492 -0.9566
 3275TIP3    H231385   1.120   1.872   7.453 -1.4272 -0.4457 -2.2585
 3276TIP3   OH231386   4.126   4.843   7.479  0.1238 -0.2971  0.0712
 3276TIP3    H131387   4.194   4.910   7.476  0.6343 -0.6545  2.0253
 3276TIP3    H231388   4.064   4.875   7.545  0.1975 -1.5568  0.7794
 3277TIP3   OH231389   4.218   6.340   8.528 -0.4665 -0.0027  0.3853
 3277TIP3    H131390   4.296   6.350   8.582  0.0419  0.7213 -0.4535
 3277TIP3    H231391   4.247   6.363   8.439 -1.1236 -1.7064 -0.3219
 3278TIP3   OH231392   0.446   4.700   2.375  0.2186  0.2303 -0.2343
 3278TIP3    H131393   0.439   4.604   2.375 -0.8999  0.2699 -1.9226
 3278TIP3    H231394   0.485   4.721   2.290  1.0712  1.2656  0.3856
 3279TIP3   OH231395   2.459   2.199   3.743  0.5592 -0.2209  0.0575
 3279TIP3    H131396   2.436   2.277   3.694 -0.1181 -1.7801 -2.2541
 3279TIP3    H231397   2.375   2.156   3.761  1.0704 -2.1985 -1.9103
 3280TIP3   OH231398   1.955   5.233   0.503  0.4765 -0.3570  0.2530
 3280TIP3    H131399   1.893   5.213   0.432 -1.9349  0.1412  2.1054
 3280TIP3    H231400   1.928   5.177   0.575  0.0475  2.2007  2.1972
 3281TIP3   OH231401   5.396   4.959   2.711 -0.0267 -0.1595  0.1934
 3281TIP3    H131402   5.343   4.975   2.633 -2.4735 -2.0596  1.3358
 3281TIP3    H231403   5.393   5.043   2.758  1.4902  1.0167 -1.6399
 3282TIP3   OH231404   6.228   4.122   1.464 -0.1726 -0.4191  0.1342
 3282TIP3    H131405   6.153   4.165   1.506 -0.8207 -0.3826 -1.0160
 3282TIP3    H231406   6.205   4.028   1.466  1.1467 -0.7528  2.4619
 3283TIP3   OH231407   3.348   3.299   2.268  0.0499  0.7267  0.4085
 3283TIP3    H131408   3.330   3.387   2.298  1.3611  1.3029 -0.4033
 3283TIP3    H231409   3.382   3.310   2.179 -0.8163 -0.6808 -0.1394
 3284TIP3   OH231410   0.686   1.965   1.974  0.5312  0.7524 -0.1226
 3284TIP3    H131411   0.695   2.060   1.959 -1.6732  0.8530 -1.2409
 3284TIP3    H231412   0.774   1.931   1.960  0.9407  2.3772 -2.0885
 3285TIP3   OH231413   6.723   3.095   1.763  0.1863  1.0744 -0.3357
 3285TIP3    H131414   6.719   3.141   1.680  0.7019 -0.1158 -1.0418
 3285TIP3    H231415   6.656   3.138   1.817 -0.9944  1.0960 -1.7452
 3286TIP3   OH231416   2.906   4.921   8.348 -0.7871 -0.2463  0.0918
 3286TIP3    H131417   2.839   4.925   8.279 -1.5247 -0.2442  0.7949
 3286TIP3    H231418   2.985   4.955   8.307 -1.1991 -0.3078 -0.7748
 3287TIP3   OH231419   0.571   6.026   1.130 -0.0051 -0.2134  0.1735
 3287TIP3    H131420   0.516   6.039   1.207 -0.3602  1.7048 -0.3486
 3287TIP3    H231421   0.656   6.060   1.156 -0.4761  1.7033 -0.6683
 3288TIP3   OH231422   2.153   1.377   0.985 -0.5031  0.3667  0.2074
 3288TIP3    H131423   2.200   1.321   1.047 -1.7391  1.1283  1.9085
 3288TIP3    H231424   2.063   1.343   0.986 -0.7855  1.0746 -0.3557
 3289TIP3   OH231425   1.785   4.838   7.777 -0.0114 -0.4047 -0.4508
 3289TIP3    H131426   1.873   4.806   7.793 -0.1895 -1.4104 -1.3724
 3289TIP3    H231427   1.796   4.909   7.714  0.1631 -0.2758 -0.2750
 3290TIP3   OH231428   2.869   6.332   8.066  0.4280  0.7426 -0.1880
 3290TIP3    H131429   2.791   6.278   8.057  0.5120  0.8034 -1.4080
 3290TIP3    H231430   2.842   6.405   8.121  0.5032 -0.8605  2.0924
 3291TIP3   OH231431   1.722   2.473   1.337  0.1143 -0.0953 -0.2579
 3291TIP3    H131432   1.779   2.419   1.282 -1.0038  0.1002 -1.6540
 3291TIP3    H231433   1.754   2.562   1.323 -1.2868  0.1800 -2.0927
 3292TIP3   OH231434   4.083   5.307   1.104 -0.1454  0.5928  0.2298
 3292TIP3    H131435   4.029   5.309   1.025  0.6457  0.2915 -0.3264
 3292TIP3    H231436   4.114   5.216   1.109 -0.1161  0.6327  0.8424
 3293TIP3   OH231437   1.498   6.102   0.971 -0.0525 -0.4666 -0.2271
 3293TIP3    H131438   1.489   6.193   0.999  0.2612 -0.0457 -1.4176
 3293TIP3    H231439   1.491   6.106   0.875 -1.2822 -1.8424 -0.2361
 3294TIP3   OH231440   1.240   4.318   7.715  0.1577  0.3281 -0.4189
 3294TIP3    H131441   1.257   4.232   7.676  2.5062  0.5099  0.0989
 3294TIP3    H231442   1.197   4.298   7.798  0.2760 -0.3311 -0.5047
 3295TIP3   OH231443   1.375   3.998   7.930 -0.5467 -0.6051 -0.2016
 3295TIP3    H131444   1.420   3.917   7.955  2.5274  0.9265 -0.2479
 3295TIP3    H231445   1.393   4.058   8.002  0.4982  1.0980 -1.7914
 3296TIP3   OH231446   5.935   0.878   0.847 -0.2486  0.7927 -0.0868
 3296TIP3    H131447   6.002   0.903   0.911  0.7177 -0.4403 -0.5823
 3296TIP3    H231448   5.931   0.951   0.786  0.1710  1.1646  0.3251
 3297TIP3   OH231449   0.917   5.793   2.588 -0.2399  0.0460  0.4070
 3297TIP3    H131450   0.998   5.745   2.605  0.3876  0.9700  0.0580
 3297TIP3    H231451   0.921   5.869   2.646  1.6118  2.8784 -3.0900
 3298TIP3   OH231452   1.046   3.881   1.093  0.0630 -0.4060 -0.0487
 3298TIP3    H131453   1.032   3.967   1.053  0.3914  0.1831  1.0514
 3298TIP3    H231454   1.103   3.899   1.168  0.8282 -1.7087 -0.2817
 3299TIP3   OH231455   4.654   0.980   8.466 -0.3049 -0.5924 -0.6988
 3299TIP3    H131456   4.727   0.974   8.527 -2.0274 -0.2368  1.5090
 3299TIP3    H231457   4.647   0.893   8.428 -0.6012 -1.5188  1.3648
 3300TIP3   OH231458   1.553   5.392   1.053 -0.1482  0.0823 -0.5131
 3300TIP3    H131459   1.499   5.313   1.043  1.5803 -1.3133  0.6443
 3300TIP3    H231460   1.606   5.394   0.973 -2.6454  2.1938 -2.2999
 3301TIP3   OH231461   5.216   2.066   1.878  0.3612 -0.3372 -0.1439
 3301TIP3    H131462   5.236   2.051   1.785 -0.6027 -2.0344 -0.1085
 3301TIP3    H231463   5.301   2.065   1.921  0.6777 -1.6581 -0.7488
 3302TIP3   OH231464   4.515   4.619   8.506 -0.0840 -0.2425 -0.1735
 3302TIP3    H131465   4.606   4.611   8.477  0.1104  0.4052  0.2529
 3302TIP3    H231466   4.468   4.651   8.429  0.0265 -0.6694 -0.4225
 3303TIP3   OH231467   5.417   4.724   7.859  0.1063  0.1122  0.0711
 3303TIP3    H131468   5.497   4.683   7.826  1.3012 -0.3336  3.1823
 3303TIP3    H231469   5.428   4.817   7.839  1.1634 -0.0262 -0.0725
 3304TIP3   OH231470   5.583   3.405   8.310  0.1538  0.3627  0.4016
 3304TIP3    H131471   5.618   3.403   8.220 -1.2880  0.3352 -0.1829
 3304TIP3    H231472   5.561   3.314   8.328  0.0245  0.4352  0.6059
 3305TIP3   OH231473   2.017   1.750   3.072 -0.2151  0.5193  0.2787
 3305TIP3    H131474   1.948   1.698   3.112  0.0392 -0.1885 -0.1887
 3305TIP3    H231475   1.971   1.824   3.032 -0.6161  0.4574  0.6236
 3306TIP3   OH231476   0.695   3.678   7.449 -0.2141 -0.2757 -0.0343
 3306TIP3    H131477   0.635   3.619   7.404 -0.0494  0.5207 -1.3602
 3306TIP3    H231478   0.694   3.648   7.540 -0.2949 -2.1763 -0.6082
 3307TIP3   OH231479   0.319   5.288   8.237  0.1271 -0.4361  0.1242
 3307TIP3    H131480   0.287   5.377   8.250 -0.2677 -0.6012  0.3048
 3307TIP3    H231481   0.391   5.297   8.174  0.4132  0.0677  0.5155
 3308TIP3   OH231482   6.532   0.400   8.263 -0.7827  0.7558 -0.3239
 3308TIP3    H131483   6.566   0.487   8.286 -1.1704  0.3679  1.9144
 3308TIP3    H231484   6.452   0.419   8.213  0.3775  1.6510 -1.9431
 3309TIP3   OH231485   1.706   1.089   0.285  0.7740  0.0601  0.1668
 3309TIP3    H131486   1.621   1.060   0.317  0.4529  0.7957  0.0013
 3309TIP3    H231487   1.769   1.049   0.345  0.3605 -0.9895 -0.0764
 3310TIP3   OH231488   6.226   6.807   7.300  0.5381  0.5551 -0.3222
 3310TIP3    H131489   6.241   6.863   7.224  0.3487  0.8373 -0.1553
 3310TIP3    H231490   6.177   6.733   7.266  0.5345  0.6348 -0.4928
 3311TIP3   OH231491   3.191   1.327   0.930 -0.0037  0.3082  0.1642
 3311TIP3    H131492   3.160   1.318   0.840 -0.5010  0.8237  0.2791
 3311TIP3    H231493   3.155   1.250   0.975 -0.4701  0.4945  0.1164
 3312TIP3   OH231494   2.795   4.280   2.408 -0.3337 -0.0558 -0.0416
 3312TIP3    H131495   2.731   4.209   2.415 -1.1479  0.8109  1.5577
 3312TIP3    H231496   2.790   4.307   2.316 -0.6983 -1.4141 -0.4466
 3313TIP3   OH231497   0.272   6.480   1.993 -0.0962  0.1867 -0.2755
 3313TIP3    H131498   0.271   6.571   2.021  3.8788  0.6410 -1.0985
 3313TIP3    H231499   0.298   6.431   2.071  0.6365  0.1450 -0.5386
 3314TIP3   OH231500   6.448   6.782   7.443 -0.2283 -0.2144  0.2547
 3314TIP3    H131501   6.505   6.753   7.372 -0.9738 -0.8865 -0.0879
 3314TIP3    H231502   6.361   6.790   7.402 -0.8656 -1.5162  1.2896
 3315TIP3   OH231503   3.392   4.964   7.976 -0.0606  0.2251 -0.4279
 3315TIP3    H131504   3.417   4.922   7.893 -0.5781  0.0900 -0.5198
 3315TIP3    H231505   3.386   4.892   8.038  2.0533  0.5061  0.1867
 3316TIP3   OH231506   6.852   2.762   3.457 -0.1833  0.3935  0.6982
 3316TIP3    H131507   6.879   2.672   3.437  0.8889  1.1187 -1.3090
 3316TIP3    H231508   6.812   2.794   3.376  2.5935  2.8495  0.1236
 3317TIP3   OH231509   2.153   5.179   7.635  0.2831 -0.1276 -1.1595
 3317TIP3    H131510   2.235   5.163   7.682 -0.4658 -1.9520 -0.3876
 3317TIP3    H231511   2.180   5.189   7.544  1.4826  0.5692 -0.7537
 3318TIP3   OH231512   2.473   1.222   7.617  0.2106  0.3821  0.7769
 3318TIP3    H131513   2.513   1.270   7.545  0.9935  0.5063  1.2855
 3318TIP3    H231514   2.409   1.283   7.655  0.4658  0.6512  0.7719
 3319TIP3   OH231515   1.670   3.882   0.241  0.1730 -0.2288  0.0430
 3319TIP3    H131516   1.709   3.809   0.193  0.2583 -0.4078  0.3802
 3319TIP3    H231517   1.581   3.852   0.262 -0.7981  0.8312 -2.2087
 3320TIP3   OH231518   6.781   6.840   1.810  0.7285 -0.2178 -0.1929
 3320TIP3    H131519   6.718   6.874   1.874  1.4868  2.1185 -0.5998
 3320TIP3    H231520   6.757   6.748   1.799 -3.0621  0.6728 -0.8059
 3321TIP3   OH231521   2.171   2.082   1.251 -0.3958  0.4452  0.3562
 3321TIP3    H131522   2.160   2.062   1.344 -0.4669 -1.4073 -0.0274
 3321TIP3    H231523   2.260   2.118   1.244  1.3473 -3.3294  0.6201
 3322TIP3   OH231524   4.223   5.651   8.198 -0.0785 -0.2425  0.0127
 3322TIP3    H131525   4.219   5.653   8.293 -0.5193  0.0254 -0.0067
 3322TIP3    H231526   4.150   5.706   8.170  0.4512  0.2244 -0.4780
 3323TIP3   OH231527   2.616   1.154   8.140  0.2362 -0.5673 -0.8771
 3323TIP3    H131528   2.520   1.160   8.139  0.2215 -0.4237  0.4794
 3323TIP3    H231529   2.635   1.075   8.189  0.8208  0.0989  0.0041
 3324TIP3   OH231530   3.333   1.159   0.194 -0.0863 -0.3404 -0.5036
 3324TIP3    H131531   3.409   1.107   0.170  1.0175  1.1485 -0.3660
 3324TIP3    H231532   3.310   1.206   0.114  0.0105  0.2575 -0.1886
 3325TIP3   OH231533   4.635   3.315   1.886 -0.1157  0.5282 -0.2130
 3325TIP3    H131534   4.620   3.373   1.961 -0.9666 -0.3965  0.3540
 3325TIP3    H231535   4.615   3.369   1.810 -1.3503  0.8709  0.3208
 3326TIP3   OH231536   5.085   1.825   1.212 -0.0882 -0.0481 -0.5411
 3326TIP3    H131537   5.039   1.836   1.129  0.7166  0.8014 -0.9010
 3326TIP3    H231538   5.057   1.740   1.245 -1.6022  0.2766 -0.9261
 3327TIP3   OH231539   1.177   5.813   1.208 -0.2828  0.4087  0.0550
 3327TIP3    H131540   1.271   5.802   1.226 -0.2353 -0.5866 -0.7031
 3327TIP3    H231541   1.172   5.892   1.155  0.2250  0.0539 -0.5423
 3328TIP3   OH231542   0.167   1.446   8.205 -0.4124  0.8135  0.3206
 3328TIP3    H131543   0.187   1.540   8.209 -0.3437  0.8486 -0.6929
 3328TIP3    H231544   0.241   1.408   8.159 -0.2910  0.2022  1.0069
 3329TIP3   OH231545   1.382   5.047   7.229 -0.2549 -0.7191 -0.1195
 3329TIP3    H131546   1.422   5.073   7.312 -1.4599  0.3150  0.1467
 3329TIP3    H231547   1.448   4.990   7.189  1.5371  0.9706  0.2661
 3330TIP3   OH231548   3.161   0.727   1.100 -0.5096  0.5080  0.1398
 3330TIP3    H131549   3.241   0.751   1.145 -0.9335  0.0988  1.1460
 3330TIP3    H231550   3.183   0.648   1.051 -0.7424 -0.6859  1.8821
 3331TIP3   OH231551   5.797   2.443   7.444 -0.2711 -0.1165 -0.5708
 3331TIP3    H131552   5.841   2.398   7.517  1.9104  0.5112 -1.3961
 3331TIP3    H231553   5.838   2.530   7.443  0.6586 -0.5004 -3.2409
 3332TIP3   OH231554   6.183   2.586   2.381  0.1841 -0.2094  0.1638
 3332TIP3    H131555   6.112   2.633   2.338  0.8791 -0.5979 -1.4861
 3332TIP3    H231556   6.150   2.496   2.391  0.6464 -0.5436 -1.1741
 3333TIP3   OH231557   3.478   4.409   2.082 -0.2393  0.2674 -0.3195
 3333TIP3    H131558   3.411   4.385   2.146  0.1843 -0.8475 -0.2744
 3333TIP3    H231559   3.504   4.497   2.107 -0.8758  0.2779  0.3591
 3334TIP3   OH231560   2.833   5.344   2.173  0.1871 -0.3168 -1.0433
 3334TIP3    H131561   2.798   5.288   2.244  0.5981 -0.2225 -0.7647
 3334TIP3    H231562   2.924   5.358   2.197  0.8209 -1.7166 -2.5016
 3335TIP3   OH231563   2.488   0.770   3.159  0.6905  0.0389 -0.0757
 3335TIP3    H131564   2.440   0.848   3.129  2.0215  0.8030 -0.3056
 3335TIP3    H231565   2.429   0.729   3.223 -1.1285 -0.2301 -1.8283
 3336TIP3   OH231566   1.252   5.006   2.668 -0.3046  0.0733  0.0862
 3336TIP3    H131567   1.170   5.053   2.687 -0.0697  0.1324  0.9929
 3336TIP3    H231568   1.299   5.006   2.751  0.5782 -0.0492 -0.4045
 3337TIP3   OH231569   1.285   5.790   7.308  0.5831 -0.3105  0.0648
 3337TIP3    H131570   1.299   5.841   7.228 -0.5082 -2.3345 -1.4977
 3337TIP3    H231571   1.213   5.835   7.352  1.3099  0.9304  0.0360
 3338TIP3   OH231572   4.883   0.073   8.661 -0.2584 -0.7066  0.0488
 3338TIP3    H131573   4.840   0.153   8.631 -1.6046 -1.0518  1.0103
 3338TIP3    H231574   4.918   0.096   8.747  1.3884 -0.4907 -0.6258
 3339TIP3   OH231575   5.897   4.025   8.012 -0.0401  0.1214  0.1276
 3339TIP3    H131576   5.845   4.102   8.035  0.6399  0.6482 -0.0500
 3339TIP3    H231577   5.835   3.952   8.015 -0.6659  0.6544  0.4299
 3340TIP3   OH231578   5.107   6.804   8.274  0.1836 -0.1237 -0.6097
 3340TIP3    H131579   5.060   6.886   8.263 -0.1948 -0.3535 -0.7528
 3340TIP3    H231580   5.113   6.768   8.185 -1.4102 -1.1974 -0.3149
 3341TIP3   OH231581   0.872   5.188   2.076  0.5342 -0.1825  0.7096
 3341TIP3    H131582   0.811   5.241   2.127  0.2755  0.7784 -0.5417
 3341TIP3    H231583   0.946   5.174   2.135 -0.5368 -0.7225  1.9867
 3342TIP3   OH231584   4.649   2.361   8.153 -0.8362 -0.0970 -0.2275
 3342TIP3    H131585   4.733   2.328   8.119 -0.7467  1.0782 -1.2018
 3342TIP3    H231586   4.600   2.282   8.175  0.7693 -0.8188  1.0387
 3343TIP3   OH231587   5.742   0.737   7.334 -0.5973  0.4106 -0.4415
 3343TIP3    H131588   5.668   0.745   7.394  1.3342  0.5848  2.0671
 3343TIP3    H231589   5.741   0.645   7.307 -0.0398 -0.3780  1.9852
 3344TIP3   OH231590   5.660   3.901   3.579  0.2029  0.0966  0.5482
 3344TIP3    H131591   5.744   3.945   3.568  0.3928 -0.0168  1.4453
 3344TIP3    H231592   5.682   3.813   3.608 -0.2164  0.0269  0.6677
 3345TIP3   OH231593   1.835   5.322   2.806 -0.3027 -0.5592 -0.1028
 3345TIP3    H131594   1.884   5.393   2.847  0.3112 -0.1562 -1.4942
 3345TIP3    H231595   1.878   5.242   2.836 -0.6007 -0.3365  0.9607
 3346TIP3   OH231596   1.515   1.260   8.656  0.0049 -0.2099 -0.6624
 3346TIP3    H131597   1.573   1.311   8.713  0.6773 -1.6943  0.0304
 3346TIP3    H231598   1.450   1.223   8.715 -0.4919 -0.1422 -1.1620
 3347TIP3   OH231599   4.304   5.542   8.669 -0.2304 -0.7452  0.3089
 3347TIP3    H131600   4.302   5.491   8.588 -0.5201 -0.8089  0.3560
 3347TIP3    H231601   4.397   5.549   8.691 -0.2234 -1.9810  0.7711
 3348TIP3   OH231602   2.770   4.980   3.147 -0.1953  0.0486 -0.1868
 3348TIP3    H131603   2.750   4.919   3.218  1.7350  0.7742  1.0661
 3348TIP3    H231604   2.845   5.030   3.179  1.5126 -0.3599 -3.2118
 3349TIP3   OH231605   3.696   5.161   0.231 -0.1484 -0.1189 -0.4720
 3349TIP3    H131606   3.646   5.186   0.153  0.5955 -1.4383 -1.4224
 3349TIP3    H231607   3.630   5.142   0.298 -0.8781 -0.4731 -1.2698
 3350TIP3   OH231608   5.697   3.251   0.944 -0.2668  0.3749  0.4720
 3350TIP3    H131609   5.712   3.315   1.013 -0.4898 -1.1222  1.9735
 3350TIP3    H231610   5.688   3.167   0.990 -1.8423 -0.4859 -1.2404
 3351TIP3   OH231611   3.337   0.344   0.156  0.2079 -0.0513 -0.4067
 3351TIP3    H131612   3.280   0.267   0.154  0.0855 -0.1079  2.1962
 3351TIP3    H231613   3.417   0.315   0.111 -0.1171 -1.4514 -0.1547
 3352TIP3   OH231614   3.131   3.951   3.824  0.1414  0.0163  0.8394
 3352TIP3    H131615   3.189   3.945   3.748 -0.2951  0.0018  0.5023
 3352TIP3    H231616   3.167   3.889   3.887  0.1125 -0.4684  0.3816
 3353TIP3   OH231617   6.018   6.412   2.160  0.5538 -0.1035  0.3928
 3353TIP3    H131618   6.077   6.364   2.218  0.3959 -0.5321  0.2019
 3353TIP3    H231619   5.939   6.358   2.157  0.8599 -0.5006 -0.8753
 3354TIP3   OH231620   0.714   6.359   3.133 -0.2697  0.8835 -0.2383
 3354TIP3    H131621   0.688   6.281   3.084  2.2835  0.0307 -0.3614
 3354TIP3    H231622   0.717   6.428   3.067  1.6533  0.0786 -1.0507
 3355TIP3   OH231623   0.215   6.151   1.658 -0.8004  0.3058  0.7247
 3355TIP3    H131624   0.300   6.107   1.661 -0.1304  1.5713  1.0476
 3355TIP3    H231625   0.151   6.080   1.672  0.2491 -0.4929  1.6932
 3356TIP3   OH231626   6.148   4.418   8.103  0.2953 -0.2987 -0.7706
 3356TIP3    H131627   6.085   4.452   8.039  1.5079 -0.8020 -2.3141
 3356TIP3    H231628   6.104   4.343   8.143 -0.8314  0.5746 -0.3211
 3357TIP3   OH231629   5.388   2.630   1.353 -0.6073  0.4283  0.4765
 3357TIP3    H131630   5.328   2.677   1.411 -1.6163 -0.7950  0.4701
 3357TIP3    H231631   5.461   2.691   1.339 -0.5005  0.9097  2.7314
 3358TIP3   OH231632   0.095   5.787   1.387 -0.0504 -0.0223 -0.3944
 3358TIP3    H131633   0.136   5.822   1.466  1.8716 -1.9233 -0.4713
 3358TIP3    H231634   0.005   5.768   1.413  0.1844  0.5983  0.9505
 3359TIP3   OH231635   6.228   4.688   2.935  0.2455  0.1553 -0.0072
 3359TIP3    H131636   6.233   4.605   2.983  0.3652 -0.1499 -0.5432
 3359TIP3    H231637   6.135   4.710   2.935  0.0985 -0.4525 -0.6620
 3360TIP3   OH231638   0.469   3.588   1.850 -0.2908 -0.5603  0.4446
 3360TIP3    H131639   0.485   3.620   1.762 -1.4267 -1.6017 -0.1809
 3360TIP3    H231640   0.459   3.667   1.903 -0.4296  0.0879 -0.5236
 3361TIP3   OH231641   1.378   3.086   1.032 -0.3473  0.4480 -0.6613
 3361TIP3    H131642   1.385   3.180   1.045 -1.0419  0.7775 -2.3734
 3361TIP3    H231643   1.460   3.050   1.066  0.0651  1.6948 -0.3047
 3362TIP3   OH231644   1.507   1.368   1.698  0.0411 -0.4381 -0.1199
 3362TIP3    H131645   1.437   1.433   1.701  0.3373 -0.1278  0.1300
 3362TIP3    H231646   1.504   1.334   1.609  0.6072  0.7267 -0.6107
 3363TIP3   OH231647   3.425   1.084   7.616  0.3257 -0.6708  0.1510
 3363TIP3    H131648   3.377   1.155   7.573 -0.1906 -0.7308  0.6094
 3363TIP3    H231649   3.492   1.058   7.553 -0.0962 -0.4208 -0.4056
 3364TIP3   OH231650   4.655   1.905   8.339  0.3507  0.4526 -0.9612
 3364TIP3    H131651   4.726   1.841   8.332 -0.5551 -0.8119  0.6334
 3364TIP3    H231652   4.608   1.880   8.419 -0.4141  2.7688 -0.6138
 3365TIP3   OH231653   1.768   2.922   2.759  0.0595  0.0218 -0.3750
 3365TIP3    H131654   1.827   2.990   2.726  0.4000 -0.4252 -0.6961
 3365TIP3    H231655   1.793   2.910   2.851 -0.6395  0.9996 -0.0290
 3366TIP3   OH231656   1.376   1.365   4.965  0.3022 -0.4769  0.3914
 3366TIP3    H131657   1.341   1.355   4.877  0.5045 -0.3788  0.2990
 3366TIP3    H231658   1.435   1.440   4.959 -0.7370  0.4160  0.9337
 3367TIP3   OH231659   6.120   4.815   8.087  0.3323 -0.5436  0.6645
 3367TIP3    H131660   6.123   4.902   8.127 -1.0916 -0.6007  0.9429
 3367TIP3    H231661   6.124   4.754   8.161 -0.9571 -0.6675  0.6480
 3368TIP3   OH231662   2.114   0.964   1.508 -0.5036  0.1366  0.4716
 3368TIP3    H131663   2.147   1.010   1.585 -1.2707 -0.9203  1.4718
 3368TIP3    H231664   2.019   0.974   1.512 -0.6458 -1.0188  0.4048
 3369TIP3   OH231665   2.657   0.800   0.636  0.2954  0.4611 -0.2679
 3369TIP3    H131666   2.650   0.887   0.675 -0.1867 -0.3051  1.4548
 3369TIP3    H231667   2.750   0.790   0.616  0.4048  1.2307 -0.1805
 3370TIP3   OH231668   4.956   6.273   2.237  0.3148  0.5186  0.1663
 3370TIP3    H131669   4.907   6.199   2.272 -1.1665  1.5143  0.3071
 3370TIP3    H231670   5.045   6.241   2.228  0.0118 -0.8380  1.5569
 3371TIP3   OH231671   2.737   3.896   0.028  0.3397 -0.2792 -0.2327
 3371TIP3    H131672   2.700   3.848   0.102  1.6495 -0.5341  0.2974
 3371TIP3    H231673   2.832   3.888   0.040  0.5776  0.7740 -1.2305
 3372TIP3   OH231674   6.698   1.979   0.798  0.1657  0.1462  0.4128
 3372TIP3    H131675   6.696   1.909   0.732 -0.8322  0.9061 -0.4099
 3372TIP3    H231676   6.607   2.005   0.807  0.6675  2.4117 -0.4938
 3373TIP3   OH231677   2.798   1.454   0.787 -0.0636  0.0296 -0.3434
 3373TIP3    H131678   2.863   1.476   0.853  0.2034 -0.4850 -0.4299
 3373TIP3    H231679   2.769   1.365   0.810  0.0298 -0.1523 -0.9090
 3374TIP3   OH231680   0.883   4.340   2.000 -0.2257 -0.0693  0.1466
 3374TIP3    H131681   0.885   4.254   1.958 -2.8442 -1.1709  2.0038
 3374TIP3    H231682   0.973   4.354   2.029  0.2569 -2.2507 -0.0947
 3375TIP3   OH231683   3.047   5.760   2.462  0.3472  0.2694 -0.2312
 3375TIP3    H131684   2.997   5.753   2.381 -0.1155 -2.8225  0.2145
 3375TIP3    H231685   2.992   5.814   2.519 -0.7724 -0.0530 -0.9664
 3376TIP3   OH231686   2.408   6.684   0.256  0.4926  0.5831 -0.2741
 3376TIP3    H131687   2.469   6.667   0.328 -1.5033  0.2032  1.4243
 3376TIP3    H231688   2.431   6.620   0.189 -0.6831 -2.5359  2.0570
 3377TIP3   OH231689   6.048   1.999   3.315 -0.7673  0.5121  0.3139
 3377TIP3    H131690   6.058   1.906   3.295  0.0064  0.2516  1.7379
 3377TIP3    H231691   6.124   2.040   3.273 -1.0863  0.5107 -0.2790
 3378TIP3   OH231692   0.404   3.537   1.515 -0.0046  0.5271 -0.2900
 3378TIP3    H131693   0.342   3.508   1.582 -0.8041  0.6121 -0.9714
 3378TIP3    H231694   0.349   3.563   1.441  0.7999  1.6279 -0.5263
 3379TIP3   OH231695   0.483   4.643   2.772 -0.3384 -0.7159  0.1482
 3379TIP3    H131696   0.577   4.653   2.781 -0.6103  0.8705  1.7836
 3379TIP3    H231697   0.446   4.697   2.842 -2.4743 -0.9344 -0.7264
 3380TIP3   OH231698   2.984   3.299   1.048  0.1431 -0.3836 -0.1931
 3380TIP3    H131699   3.067   3.321   1.091  1.1935  0.9001 -2.6698
 3380TIP3    H231700   2.967   3.373   0.990 -3.4330 -0.0293  1.0968
 3381TIP3   OH231701   4.695   4.067   0.635 -0.0379 -0.4638  0.2412
 3381TIP3    H131702   4.745   3.986   0.630  2.1726  0.8143  0.3800
 3381TIP3    H231703   4.725   4.110   0.715 -0.6188  0.8295 -0.1948
 3382TIP3   OH231704   3.324   4.774   1.832 -0.3586  0.1419  0.3129
 3382TIP3    H131705   3.249   4.822   1.866 -0.3412  1.8343 -1.8772
 3382TIP3    H231706   3.398   4.833   1.842  0.0938 -0.2834 -0.4126
 3383TIP3   OH231707   3.482   5.484   1.499 -0.0433 -0.3188 -0.1057
 3383TIP3    H131708   3.493   5.407   1.555  0.4320 -0.0070  0.2335
 3383TIP3    H231709   3.551   5.545   1.527  0.2452 -0.1797 -1.0656
 3384TIP3   OH231710   2.044   1.852   0.279  0.0994 -0.1500 -0.1898
 3384TIP3    H131711   2.114   1.918   0.277 -0.3481  0.4296  1.3277
 3384TIP3    H231712   2.090   1.769   0.292  0.5588  0.1176 -0.0676
 3385TIP3   OH231713   4.670   1.025   2.237 -0.1406  0.3409 -0.0349
 3385TIP3    H131714   4.758   1.039   2.202 -0.3402  2.7791  0.2465
 3385TIP3    H231715   4.685   0.983   2.322  0.7348  0.3298 -0.1853
 3386TIP3   OH231716   5.887   5.031   8.358  0.2134  0.4984 -0.0833
 3386TIP3    H131717   5.824   4.989   8.300  0.3339  1.5843 -1.0223
 3386TIP3    H231718   5.834   5.086   8.415  0.2638  1.1003 -0.6068
 3387TIP3   OH231719   1.778   5.763   2.464  0.4017 -0.0135 -0.0701
 3387TIP3    H131720   1.737   5.744   2.548  1.0054 -0.9008  0.0344
 3387TIP3    H231721   1.705   5.786   2.406 -0.1755 -0.8841  0.2912
 3388TIP3   OH231722   4.533   4.952   8.332  0.0215  0.5167  0.0111
 3388TIP3    H131723   4.487   4.871   8.309 -0.8993  1.5495 -2.1236
 3388TIP3    H231724   4.474   4.998   8.392 -0.3837  0.4876 -0.3599
 3389TIP3   OH231725   1.166   4.063   0.117  0.1662  0.2239 -0.1414
 3389TIP3    H131726   1.160   4.029   0.206 -3.6847 -0.0384 -0.3219
 3389TIP3    H231727   1.132   4.152   0.123 -1.5373 -0.2774 -1.4891
 3390TIP3   OH231728   2.597   0.918   0.213 -0.2396  0.0435 -0.4767
 3390TIP3    H131729   2.525   0.941   0.155 -1.1000 -3.5198 -1.0578
 3390TIP3    H231730   2.576   0.830   0.245  3.6291 -1.0476 -0.3673
 3391TIP3   OH231731   6.616   3.709   0.742  0.3174 -0.2454 -0.0203
 3391TIP3    H131732   6.614   3.782   0.803 -0.2469  0.0962 -0.4420
 3391TIP3    H231733   6.573   3.637   0.789 -1.2864  0.3877 -0.4742
 3392TIP3   OH231734   5.796   6.202   7.926  0.7358 -0.3218 -0.0535
 3392TIP3    H131735   5.713   6.224   7.969 -0.4523  0.3087 -2.4633
 3392TIP3    H231736   5.783   6.114   7.892  1.1452 -0.3175 -0.2318
 3393TIP3   OH231737   0.283   3.019   0.384  0.4478  0.8833 -0.0099
 3393TIP3    H131738   0.214   3.023   0.318 -0.8471 -2.5192  0.9698
 3393TIP3    H231739   0.292   3.110   0.413 -2.4454  1.7242 -1.3243
 3394TIP3   OH231740   4.739   1.717   7.889  0.1718 -0.4711 -0.5939
 3394TIP3    H131741   4.759   1.637   7.937 -1.6210 -0.2404  0.6564
 3394TIP3    H231742   4.726   1.784   7.957 -1.4533  0.1079 -1.4223
 3395TIP3   OH231743   3.067   1.967   2.487 -0.3048  0.2337 -0.3197
 3395TIP3    H131744   2.998   1.906   2.461  1.1969 -2.2700  1.2046
 3395TIP3    H231745   3.148   1.930   2.453  0.7313  1.1002  1.0486
 3396TIP3   OH231746   3.192   2.573   1.446  0.0772  0.3172 -0.7449
 3396TIP3    H131747   3.111   2.609   1.410  0.0703 -0.2414 -1.3115
 3396TIP3    H231748   3.166   2.489   1.484  0.7248 -0.9542 -2.8956
 3397TIP3   OH231749   5.085   2.755   1.538 -0.3252 -0.0136  0.3382
 3397TIP3    H131750   5.054   2.715   1.457  2.6761 -0.8631 -0.4771
 3397TIP3    H231751   5.080   2.685   1.603  1.0678 -0.5525 -0.1127
 3398TIP3   OH231752   5.652   3.825   1.187 -0.3862 -0.0193  0.1706
 3398TIP3    H131753   5.661   3.821   1.092 -1.3201  1.8674 -0.0444
 3398TIP3    H231754   5.738   3.800   1.220 -0.0828 -0.8214 -1.1500
 3399TIP3   OH231755   2.767   0.086   0.049  0.1398 -0.0355 -0.4485
 3399TIP3    H131756   2.766   0.166  -0.003 -0.5218  0.1414 -0.1757
 3399TIP3    H231757   2.766   0.015  -0.015  2.2493  0.1328 -0.7321
 3400TIP3   OH231758   5.297   5.643   2.191 -0.0751 -0.0239 -0.4992
 3400TIP3    H131759   5.231   5.686   2.136 -0.4588  0.6910  0.4948
 3400TIP3    H231760   5.249   5.617   2.270  0.3103 -1.6483 -0.7592
 3401TIP3   OH231761   5.773   2.433   0.691  0.0642  0.1735  0.0891
 3401TIP3    H131762   5.842   2.388   0.642 -1.5163 -1.8012 -0.4701
 3401TIP3    H231763   5.745   2.504   0.634  1.1431  0.5467  0.0168
 3402TIP3   OH231764   6.012   0.017   8.409  0.2571  0.5099 -0.4382
 3402TIP3    H131765   5.920   0.044   8.412  0.1842  0.2073  0.3092
 3402TIP3    H231766   6.038   0.010   8.501  1.0721  0.7335 -0.6429
 3403TIP3   OH231767   1.021   0.394   8.343 -0.1883  0.1599  0.1471
 3403TIP3    H131768   0.975   0.424   8.421 -0.1267  2.1116 -0.5166
 3403TIP3    H231769   1.096   0.344   8.378 -1.2347 -0.6974  1.2651
 3404TIP3   OH231770   2.582   1.054   2.541 -0.3475 -0.1737 -0.0147
 3404TIP3    H131771   2.631   1.107   2.478 -1.7757  1.6264  0.2853
 3404TIP3    H231772   2.491   1.081   2.528 -0.8562 -0.9281  1.7443
 3405TIP3   OH231773   3.042   5.392   0.107  0.7142 -0.1660  0.2297
 3405TIP3    H131774   3.104   5.432   0.046  0.1370 -0.9990 -0.9453
 3405TIP3    H231775   3.024   5.306   0.070  0.4625 -0.7702  1.6842
 3406TIP3   OH231776   4.135   4.319   3.322  0.1401 -0.4322 -0.6012
 3406TIP3    H131777   4.062   4.262   3.348  0.8259 -1.2890 -0.5066
 3406TIP3    H231778   4.096   4.406   3.314 -1.1060 -1.0557 -1.5525
 3407TIP3   OH231779   6.216   6.155   7.705 -0.0133 -0.1091  0.8630
 3407TIP3    H131780   6.131   6.196   7.687 -0.8372 -1.7455  0.8885
 3407TIP3    H231781   6.244   6.122   7.620 -0.7014 -1.8918  1.2721
 3408TIP3   OH231782   0.407   4.106   2.019 -0.1753  0.2362 -0.0376
 3408TIP3    H131783   0.360   4.104   2.102  0.4638 -0.7915  0.3182
 3408TIP3    H231784   0.345   4.143   1.956 -0.1558  2.5270  1.1900
 3409TIP3   OH231785   1.683   6.796   2.660  0.5449 -0.7031 -0.0900
 3409TIP3    H131786   1.769   6.829   2.633  0.7077 -0.4311  0.7345
 3409TIP3    H231787   1.622   6.835   2.597  0.6672  1.6331  1.1562
 3410TIP3   OH231788   2.459   2.323   0.947  0.2394 -0.3239 -0.2300
 3410TIP3    H131789   2.503   2.403   0.920  1.8144 -0.8710  0.5819
 3410TIP3    H231790   2.434   2.280   0.865 -0.7873  1.0556 -0.6712
 3411TIP3   OH231791   5.642   1.958   8.056  0.0080 -0.2694 -0.5119
 3411TIP3    H131792   5.595   1.965   7.973  0.5336  0.8881 -0.7367
 3411TIP3    H231793   5.598   2.020   8.114 -0.8805 -1.6693  0.3664
 3412TIP3   OH231794   1.587   2.463   0.552  0.3237  0.4006 -0.0483
 3412TIP3    H131795   1.613   2.528   0.617 -2.4376  1.9838 -0.3698
 3412TIP3    H231796   1.577   2.513   0.471 -0.7055 -0.6411 -0.5872
 3413TIP3   OH231797   5.304   4.066   8.561  0.1881 -0.2460  0.1164
 3413TIP3    H131798   5.218   4.106   8.546  0.7126  1.3900  1.2259
 3413TIP3    H231799   5.365   4.121   8.513  0.7005 -1.1138 -0.2610
 3414TIP3   OH231800   2.672   0.601   1.652  0.0906  0.0822 -0.2291
 3414TIP3    H131801   2.674   0.628   1.744  0.8779  2.8920 -0.9956
 3414TIP3    H231802   2.764   0.603   1.625  0.1664 -3.0009 -0.5601
 3415TIP3   OH231803   4.159   4.393   1.174 -0.1905  0.5629  0.1033
 3415TIP3    H131804   4.216   4.424   1.104  1.0263 -0.5374  0.5705
 3415TIP3    H231805   4.197   4.309   1.201 -2.0847 -0.2799  0.3535
 3416TIP3   OH231806   3.907   2.685   1.003 -0.1670  0.3086 -0.3713
 3416TIP3    H131807   3.896   2.734   0.921  0.5541  1.4977  0.2228
 3416TIP3    H231808   3.988   2.719   1.040  1.1236 -2.3101 -0.5803
 3417TIP3   OH231809   2.221   5.574   8.448  0.0301  0.2481 -0.0401
 3417TIP3    H131810   2.146   5.598   8.502  0.4261 -0.6606  0.9419
 3417TIP3    H231811   2.283   5.646   8.460 -0.7773  1.1709 -1.1210
 3418TIP3   OH231812   6.804   6.762   8.169 -0.1977  0.1596 -0.3364
 3418TIP3    H131813   6.783   6.766   8.076  1.0434 -0.1689 -0.6387
 3418TIP3    H231814   6.897   6.740   8.172 -0.8980 -3.3522  0.9812
 3419TIP3   OH231815   4.161   3.012   0.310 -0.1332 -0.0554  0.8604
 3419TIP3    H131816   4.178   2.981   0.220 -1.9123 -1.5116  0.9813
 3419TIP3    H231817   4.104   3.088   0.299  1.1800  0.9681  0.7359
 3420TIP3   OH231818   4.794   4.555   0.248  0.4505  0.0253  0.0383
 3420TIP3    H131819   4.706   4.548   0.212  0.2793 -0.1647  0.4901
 3420TIP3    H231820   4.837   4.474   0.220  0.6692  0.3710 -0.6666
 3421TIP3   OH231821   4.613   4.365   8.291 -0.1728 -0.4717 -0.5567
 3421TIP3    H131822   4.681   4.430   8.313  0.0176  0.2515 -2.9778
 3421TIP3    H231823   4.531   4.415   8.292 -0.0836 -0.2568 -1.9676
 3422TIP3   OH231824   5.751   6.574   1.244 -0.0444  0.2456  0.5707
 3422TIP3    H131825   5.771   6.633   1.316 -2.2993  1.6731  0.1141
 3422TIP3    H231826   5.687   6.513   1.279  1.0363 -0.9369  0.5608
 3423TIP3   OH231827   5.201   5.169   0.498  0.1348  0.0460  0.3784
 3423TIP3    H131828   5.281   5.208   0.461  0.1160  0.1592  0.4561
 3423TIP3    H231829   5.151   5.244   0.530  0.7258 -0.1367  1.7941
 3424TIP3   OH231830   1.645   3.615   2.642  0.2653  0.0613 -0.4191
 3424TIP3    H131831   1.718   3.581   2.694 -0.8474 -1.7341  0.0347
 3424TIP3    H231832   1.634   3.706   2.672  1.5195 -0.0338  0.3613
 3425TIP3   OH231833   3.082   3.388   8.161  0.0505  0.1029  0.0271
 3425TIP3    H131834   3.136   3.310   8.149  1.1750  0.4700  2.1391
 3425TIP3    H231835   3.019   3.364   8.228  0.4269  0.9952  0.7206
 3426TIP3   OH231836   0.737   0.447   1.086 -0.4940 -1.0050  0.7711
 3426TIP3    H131837   0.672   0.379   1.069 -0.1021 -1.1518 -0.2111
 3426TIP3    H231838   0.810   0.424   1.029 -1.0747  1.2775 -1.0266
 3427TIP3   OH231839   3.559   5.556   0.808 -0.3262 -0.1159 -0.1912
 3427TIP3    H131840   3.499   5.623   0.774 -1.3684 -1.7727 -1.7798
 3427TIP3    H231841   3.502   5.486   0.839  0.7568 -0.9770 -0.0847
 3428TIP3   OH231842   4.297   4.304   2.754 -0.3947 -0.0388  0.2693
 3428TIP3    H131843   4.336   4.261   2.678 -2.2692  0.9528 -1.3434
 3428TIP3    H231844   4.278   4.393   2.723 -1.2643  0.3650  1.8933
 3429TIP3   OH231845   3.888   5.031   1.436  0.7027 -0.1041  0.1334
 3429TIP3    H131846   3.898   5.020   1.530 -0.9274 -0.8719  0.2413
 3429TIP3    H231847   3.892   4.942   1.400 -2.0675 -0.2205 -0.1132
 3430TIP3   OH231848   0.759   3.491   8.102  0.2536 -0.1832 -0.4236
 3430TIP3    H131849   0.799   3.549   8.037  0.0238  0.1037 -0.3102
 3430TIP3    H231850   0.714   3.424   8.050 -0.0392  0.1199 -0.5659
 3431TIP3   OH231851   4.093   3.365   7.353 -0.2994 -0.6347  0.2336
 3431TIP3    H131852   4.168   3.409   7.313  1.1811 -1.8601  1.5316
 3431TIP3    H231853   4.123   3.275   7.368 -1.7278 -0.9314  1.5852
 3432TIP3   OH231854   2.768   5.118   2.663 -0.4711 -0.6226 -0.8723
 3432TIP3    H131855   2.687   5.070   2.681 -1.3087  1.5675  1.7453
 3432TIP3    H231856   2.836   5.065   2.703 -1.0408 -0.9151 -0.2699
 3433TIP3   OH231857   1.425   1.703   1.920 -0.3900 -0.3229 -0.0252
 3433TIP3    H131858   1.344   1.652   1.926 -1.3486  0.8331 -1.9281
 3433TIP3    H231859   1.403   1.774   1.860  1.4396  1.2541  1.0716
 3434TIP3   OH231860   5.944   4.933   2.839  0.2314  0.0991  0.1788
 3434TIP3    H131861   5.996   4.882   2.901 -0.8817  1.1177  2.0011
 3434TIP3    H231862   6.008   4.989   2.795  1.2661 -1.7566 -0.8246
 3435TIP3   OH231863   4.546   6.121   2.918 -0.1522  0.0524 -0.1542
 3435TIP3    H131864   4.588   6.206   2.908 -0.9630  0.2962 -1.9386
 3435TIP3    H231865   4.477   6.135   2.983 -1.7016  1.3940 -1.9647
 3436TIP3   OH231866   6.551   4.472   1.029 -0.4386 -0.9046 -0.0577
 3436TIP3    H131867   6.498   4.408   0.982 -0.6353 -0.5773 -0.2816
 3436TIP3    H231868   6.601   4.517   0.962  0.1808 -1.2576  0.1604
 3437TIP3   OH231869   4.478   1.213   0.698  0.0069 -0.0900 -0.1740
 3437TIP3    H131870   4.530   1.157   0.641  0.2145  1.0441 -1.1532
 3437TIP3    H231871   4.526   1.296   0.701 -1.2240  0.6750 -0.3483
 3438TIP3   OH231872   5.382   3.125   7.903  0.2634 -0.7252  0.4392
 3438TIP3    H131873   5.418   3.070   7.834  1.3218 -1.9175  1.8934
 3438TIP3    H231874   5.287   3.109   7.900  0.5169 -2.4382  0.6521
 3439TIP3   OH231875   6.366   6.761   0.632  0.1283 -0.3921  0.0008
 3439TIP3    H131876   6.458   6.754   0.660  0.5909  0.6001 -1.1814
 3439TIP3    H231877   6.318   6.706   0.694  1.7181 -2.3040 -0.3479
 3440TIP3   OH231878   6.854   4.567   3.268 -0.0382  0.6260 -0.2009
 3440TIP3    H131879   6.895   4.483   3.246 -0.6760  0.8296 -2.4011
 3440TIP3    H231880   6.925   4.630   3.263 -0.1379  0.6642 -1.9064
 3441TIP3   OH231881   4.286   6.222   3.019 -0.2990 -0.5500 -0.1746
 3441TIP3    H131882   4.347   6.290   3.048 -0.7564 -0.7857  1.4304
 3441TIP3    H231883   4.205   6.270   2.999 -0.4589 -0.5503  0.4517
 3442TIP3   OH231884   2.654   6.165   8.000  0.4225  0.3768  0.6082
 3442TIP3    H131885   2.680   6.079   7.967  0.7312  0.6233  0.1908
 3442TIP3    H231886   2.648   6.220   7.921  1.3580  1.0264  0.9777
 3443TIP3   OH231887   5.090   4.970   1.612  0.2554  0.1657  0.2773
 3443TIP3    H131888   5.000   5.001   1.626  0.3133  0.0901  0.8194
 3443TIP3    H231889   5.082   4.907   1.540  0.0117  0.8118 -0.2719
 3444TIP3   OH231890   5.210   0.565   1.515 -0.4831 -0.0636 -0.7733
 3444TIP3    H131891   5.143   0.626   1.546 -0.7372 -0.0687 -1.2946
 3444TIP3    H231892   5.166   0.480   1.514  0.5422 -0.7460  2.2443
 3445TIP3   OH231893   4.369   1.250   7.475  0.3746  0.5483  0.0965
 3445TIP3    H131894   4.339   1.298   7.552 -0.0658 -0.2056  0.4086
 3445TIP3    H231895   4.365   1.313   7.404 -2.0943  0.4877  0.0857
 3446TIP3   OH231896   0.567   1.719   8.612  0.5048 -0.6506  0.6231
 3446TIP3    H131897   0.663   1.721   8.613  0.5236 -1.3378  0.8136
 3446TIP3    H231898   0.543   1.716   8.704  0.2699  0.4199  0.6017
 3447TIP3   OH231899   4.188   6.191   7.837 -0.4492 -0.8032 -0.2247
 3447TIP3    H131900   4.149   6.252   7.775  0.3417  0.1027  0.1455
 3447TIP3    H231901   4.252   6.141   7.785  2.4312  1.9810  0.3147
 3448TIP3   OH231902   4.460   3.390   0.060  0.4652  0.5441  0.3552
 3448TIP3    H131903   4.514   3.320   0.096  1.2894  0.0708 -1.6871
 3448TIP3    H231904   4.379   3.386   0.111  0.6630 -1.6002  0.5878
 3449TIP3   OH231905   2.315   0.140   0.727 -0.6032  0.0976  0.4826
 3449TIP3    H131906   2.303   0.141   0.632 -1.4715 -1.7040  0.5435
 3449TIP3    H231907   2.408   0.126   0.739 -0.0643  2.6305 -0.0424
 3450TIP3   OH231908   4.565   4.647   8.061 -0.2833  0.4449 -0.3078
 3450TIP3    H131909   4.648   4.602   8.079 -0.4529  0.5926  0.9302
 3450TIP3    H231910   4.508   4.579   8.027 -0.6757 -0.4389  1.9470
 3451TIP3   OH231911   2.523   0.534   1.936 -0.0365  0.5976  0.0270
 3451TIP3    H131912   2.496   0.545   1.845  2.2412  0.5159 -0.7257
 3451TIP3    H231913   2.536   0.440   1.946 -2.2352  0.3455  1.1055
 3452TIP3   OH231914   6.361   4.466   0.084  0.0101  0.0376  0.0753
 3452TIP3    H131915   6.325   4.554   0.096 -0.5562 -0.1986  0.1078
 3452TIP3    H231916   6.394   4.441   0.171 -0.2223  0.0394  0.1627
 3453TIP3   OH231917   4.100   3.889   8.632  0.2246  0.4830  0.6020
 3453TIP3    H131918   4.013   3.912   8.666 -0.9332  0.8335 -2.2891
 3453TIP3    H231919   4.103   3.931   8.546  1.8068 -2.4503 -0.9270
 3454TIP3   OH231920   5.151   5.804   8.284 -0.3564  0.2573  0.0192
 3454TIP3    H131921   5.073   5.749   8.290  0.4408 -0.7820  2.6355
 3454TIP3    H231922   5.156   5.829   8.192 -2.9489 -0.8080 -0.5154
 3455TIP3   OH231923   2.492   1.836   1.371  0.2167  0.2257 -0.3430
 3455TIP3    H131924   2.463   1.803   1.285 -1.0095  0.6772 -0.1258
 3455TIP3    H231925   2.582   1.805   1.379 -0.4189 -1.8967 -0.7439
 3456TIP3   OH231926   1.937   1.645   7.377  0.3429  0.2912 -0.1223
 3456TIP3    H131927   1.943   1.739   7.364 -0.2660  0.2758 -0.5273
 3456TIP3    H231928   1.991   1.628   7.454 -0.4812  1.1294  0.6669
 3457TIP3   OH231929   2.699   1.630   1.867 -0.2953  0.4573 -0.0179
 3457TIP3    H131930   2.744   1.698   1.817 -0.4194  0.3119 -0.3347
 3457TIP3    H231931   2.769   1.583   1.913 -0.2271  0.9029  0.3353
 3458TIP3   OH231932   2.383   1.706   0.448 -0.2627 -0.0818  0.1703
 3458TIP3    H131933   2.314   1.654   0.406 -1.4333 -1.2811  3.2847
 3458TIP3    H231934   2.338   1.751   0.519  1.4196  2.6050 -0.3411
 3459TIP3   OH231935   6.764   2.332   7.947 -0.5775 -0.3699 -0.6390
 3459TIP3    H131936   6.796   2.242   7.952 -0.2291 -0.2174  0.0182
 3459TIP3    H231937   6.670   2.323   7.935 -0.5017 -0.8228 -0.9050
 3460TIP3   OH231938   0.149   4.942   1.697  0.1315 -0.3959 -0.0233
 3460TIP3    H131939   0.159   5.010   1.763 -0.4139 -1.1510  0.8693
 3460TIP3    H231940   0.143   4.989   1.614  1.9404  0.5329  0.3200
 3461TIP3   OH231941   2.170   1.356   2.196  0.2251 -0.4263 -0.2848
 3461TIP3    H131942   2.228   1.394   2.131  0.4012  2.0977  1.2302
 3461TIP3    H231943   2.082   1.376   2.163  0.3124  1.4441  0.4827
 3462TIP3   OH231944   0.627   3.139   2.516  0.8542  0.1697  0.2372
 3462TIP3    H131945   0.604   3.060   2.565  0.1883  0.5127  0.4940
 3462TIP3    H231946   0.620   3.114   2.424 -0.4089  0.2170  0.3096
 3463TIP3   OH231947   4.446   4.649   0.462 -0.2779  0.2354  0.1520
 3463TIP3    H131948   4.458   4.740   0.434 -0.2048  0.2925  0.3649
 3463TIP3    H231949   4.504   4.639   0.537  0.5347 -0.3090 -0.5337
 3464TIP3   OH231950   5.104   4.265   8.331  0.4506 -0.2500  0.2799
 3464TIP3    H131951   5.033   4.250   8.393  1.6619  1.5762  2.2132
 3464TIP3    H231952   5.157   4.185   8.335 -0.4364 -0.8581  0.2305
 3465TIP3   OH231953   6.370   1.714   2.177  0.0570 -0.0868  0.2043
 3465TIP3    H131954   6.443   1.764   2.141 -0.8733  0.2791 -1.2124
 3465TIP3    H231955   6.307   1.707   2.106 -1.5407  0.0406  1.5388
 3466TIP3   OH231956   1.279   4.601   7.207  1.0199 -0.6694 -0.1218
 3466TIP3    H131957   1.255   4.683   7.164 -1.5049 -1.2006  0.0728
 3466TIP3    H231958   1.309   4.544   7.135  0.5712 -0.3097 -0.6040
 3467TIP3   OH231959   1.800   3.923   0.659 -0.1953  0.2657  0.0579
 3467TIP3    H131960   1.843   3.838   0.652  0.2773  0.3540  1.5008
 3467TIP3    H231961   1.710   3.903   0.686 -0.0480  0.2093  0.5251
 3468TIP3   OH231962   4.879   0.214   0.746 -0.0295  0.5412  0.0253
 3468TIP3    H131963   4.834   0.131   0.763  0.0897  0.5321  0.2990
 3468TIP3    H231964   4.958   0.190   0.698 -0.0108  0.5018  0.0770
 3469TIP3   OH231965   0.759   4.333   1.366  0.2768  0.3084  0.0762
 3469TIP3    H131966   0.697   4.316   1.295  0.0888  0.1158  0.2869
 3469TIP3    H231967   0.841   4.357   1.321  0.4998 -0.9534 -0.2266
 3470TIP3   OH231968   0.799   5.544   8.627 -0.5604  0.5466  0.5891
 3470TIP3    H131969   0.725   5.575   8.575 -0.3197  0.8293  0.4167
 3470TIP3    H231970   0.792   5.594   8.709 -1.3867 -0.4410  1.1555
 3471TIP3   OH231971   2.445   0.291   0.521 -0.2166 -0.3610  0.4444
 3471TIP3    H131972   2.500   0.222   0.559 -0.0472 -1.2206 -1.2777
 3471TIP3    H231973   2.497   0.371   0.532  1.4025 -1.1324 -1.0126
 3472TIP3   OH231974   5.883   4.013   0.656 -0.5798 -0.8927  0.4155
 3472TIP3    H131975   5.793   4.032   0.627 -0.9480  0.0656  2.0732
 3472TIP3    H231976   5.934   4.013   0.576 -2.1594 -2.1985 -0.6737
 3473TIP3   OH231977   6.198   0.597   2.038 -0.0728 -0.2621 -0.0405
 3473TIP3    H131978   6.234   0.662   2.098  2.2029  0.6529 -2.2313
 3473TIP3    H231979   6.107   0.586   2.066  0.1994  1.9110  1.9995
 3474TIP3   OH231980   0.891   1.633   2.210  0.3597 -0.3998  0.3476
 3474TIP3    H131981   0.966   1.690   2.198 -1.5393  2.4899  1.2857
 3474TIP3    H231982   0.816   1.683   2.177 -1.4639 -2.2653  1.3532
 3475TIP3   OH231983   6.436   5.166   7.777  0.2870  0.3056 -0.2174
 3475TIP3    H131984   6.491   5.091   7.752 -1.3373 -1.1127  0.2942
 3475TIP3    H231985   6.346   5.136   7.763 -0.4227  1.9485  0.5954
 3476TIP3   OH231986   0.466   0.724   0.005  0.4842 -0.3527 -0.3964
 3476TIP3    H131987   0.431   0.756  -0.079 -0.3637 -1.3463 -0.4304
 3476TIP3    H231988   0.396   0.670   0.042  0.2795  1.1743  1.6409
 3477TIP3   OH231989   0.961   3.726   0.229 -0.1693  0.0294  0.0486
 3477TIP3    H131990   1.009   3.805   0.252  0.2855  0.1233 -1.1354
 3477TIP3    H231991   1.002   3.657   0.281  0.6776  0.2623 -0.2901
 3478TIP3   OH231992   2.523   4.873   7.964 -0.1906  0.2595 -0.1066
 3478TIP3    H131993   2.447   4.853   7.909 -1.4880  4.6353 -0.2724
 3478TIP3    H231994   2.580   4.926   7.908  0.8592  0.6871  1.3047
 3479TIP3   OH231995   1.897   0.036   8.599 -0.3272  0.0523  0.0105
 3479TIP3    H131996   1.957   0.024   8.673  4.1947  0.7288 -3.1074
 3479TIP3    H231997   1.894  -0.050   8.557  0.1103  0.4895 -0.9354
 3480TIP3   OH231998   4.483   2.646   1.633 -0.0548  0.2147 -0.0699
 3480TIP3    H131999   4.572   2.666   1.602 -0.3428  0.0951 -1.0063
 3480TIP3    H232000   4.482   2.676   1.724  0.8032  0.6501 -0.1938
 3481TIP3   OH232001   2.209   5.645   1.894 -0.0668  0.0798  0.0238
 3481TIP3    H132002   2.194   5.559   1.855 -1.9373 -0.4485  1.7833
 3481TIP3    H232003   2.170   5.707   1.832  1.0479 -0.2928 -1.1136
 3482TIP3   OH232004   5.711   1.403   3.342 -0.0802  0.0046 -0.2061
 3482TIP3    H132005   5.686   1.318   3.307  1.4013 -0.2542 -0.7377
 3482TIP3    H232006   5.752   1.384   3.426  1.1374  0.0500 -0.7573
 3483TIP3   OH232007   0.355   2.927   1.863  0.1187 -0.6189  0.4625
 3483TIP3    H132008   0.323   2.975   1.787  3.2560  1.4561  0.2651
 3483TIP3    H232009   0.408   2.856   1.827 -1.4286 -2.0112  0.7926
 3484TIP3   OH232010   0.984   3.303   8.558 -0.2009  0.0956  0.1723
 3484TIP3    H132011   0.945   3.361   8.624 -0.2949 -0.2066  0.3877
 3484TIP3    H232012   1.007   3.361   8.486 -0.4111  0.3829  0.3313
 3485TIP3   OH232013   1.927   1.264   1.122 -0.4350  0.2700  0.4836
 3485TIP3    H132014   1.954   1.173   1.133 -2.3819 -0.3213  0.8078
 3485TIP3    H232015   1.958   1.308   1.200  0.3692 -0.1553  0.4120
 3486TIP3   OH232016   3.399   6.358   8.605 -0.4167 -0.1596  0.0793
 3486TIP3    H132017   3.346   6.319   8.674 -1.5163  1.7988  0.3953
 3486TIP3    H232018   3.481   6.381   8.648 -1.3524  1.6837  0.9581
 3487TIP3   OH232019   2.096   4.916   8.383 -0.2963  0.0276 -0.0850
 3487TIP3    H132020   2.022   4.921   8.443  0.4940  2.1169  0.8512
 3487TIP3    H232021   2.146   4.840   8.412 -0.2918  0.6043  1.5155
 3488TIP3   OH232022   4.363   4.499   3.045  0.2766  0.1572 -0.2756
 3488TIP3    H132023   4.342   4.412   3.010  0.1611 -0.7746  1.9277
 3488TIP3    H232024   4.433   4.531   2.988 -0.5963 -0.7636 -1.9665
 3489TIP3   OH232025   0.699   3.481   1.017  0.2206  0.1262  0.0480
 3489TIP3    H132026   0.702   3.418   1.089  2.4034 -0.8984 -0.8430
 3489TIP3    H232027   0.788   3.517   1.013 -0.1014  0.8613 -1.5237
 3490TIP3   OH232028   4.071   1.554   0.935  0.1287  0.6034 -1.0929
 3490TIP3    H132029   4.071   1.515   1.023  0.9502 -0.6124 -1.6094
 3490TIP3    H232030   3.984   1.593   0.927 -0.0026  0.6377  0.2147
 3491TIP3   OH232031   2.987   4.153   0.431 -0.5843 -0.3490 -0.8782
 3491TIP3    H132032   3.074   4.192   0.428 -1.2197  1.6922  2.3893
 3491TIP3    H232033   2.950   4.170   0.344  1.3741  0.9900 -1.5125
 3492TIP3   OH232034   2.102   4.962   7.953 -0.5274  0.4725  0.1913
 3492TIP3    H132035   2.013   4.975   7.986 -0.5134 -0.1491  0.4935
 3492TIP3    H232036   2.154   5.028   7.998 -0.8013  0.7093  0.1623
 3493TIP3   OH232037   0.855   5.437   0.254  0.2928 -0.0133 -0.0374
 3493TIP3    H132038   0.781   5.398   0.301  1.1744 -1.7859 -0.0558
 3493TIP3    H232039   0.927   5.435   0.317  0.9228 -0.4076 -0.7602
 3494TIP3   OH232040   1.446   1.397   1.983 -0.0569  0.3022  0.3143
 3494TIP3    H132041   1.458   1.440   1.898  1.2498  0.2680  0.4533
 3494TIP3    H232042   1.441   1.304   1.963  3.6784 -0.0635  0.4542
 3495TIP3   OH232043   4.549   3.078   2.002 -0.0575 -0.3583  0.7681
 3495TIP3    H132044   4.458   3.075   1.973  0.2812 -2.6468 -0.2473
 3495TIP3    H232045   4.591   3.144   1.946 -0.8484 -0.0203  0.5675
 3496TIP3   OH232046   6.241   2.543   0.270  0.2446 -0.0550  0.1761
 3496TIP3    H132047   6.163   2.589   0.236  0.7293  0.4645 -0.2683
 3496TIP3    H232048   6.314   2.590   0.230  0.8910  0.9956  2.4296
 3497TIP3   OH232049   2.354   3.201   2.347  0.2298  0.2725 -0.1700
 3497TIP3    H132050   2.437   3.202   2.394  0.4394  0.5906 -0.5434
 3497TIP3    H232051   2.326   3.293   2.346 -0.1978  0.1485  0.0793
 3498TIP3   OH232052   1.413   0.009   8.326 -0.4649  0.0844  0.2056
 3498TIP3    H132053   1.504  -0.005   8.350  0.5022  2.0255 -1.9609
 3498TIP3    H232054   1.377  -0.079   8.314  1.6113 -0.7129 -0.5529
 3499TIP3   OH232055   2.680   6.217   2.646 -0.2116  0.9890 -0.3606
 3499TIP3    H132056   2.666   6.123   2.656  1.3384  0.7776  0.1732
 3499TIP3    H232057   2.705   6.247   2.733  0.5680  1.6322 -0.7870
 3500TIP3   OH232058   6.378   4.749   2.211 -0.0546 -0.1561 -0.1612
 3500TIP3    H132059   6.293   4.707   2.228 -1.0242  1.9380  0.4649
 3500TIP3    H232060   6.358   4.842   2.204  2.3705  0.5320  1.0732
 3501TIP3   OH232061   2.075   5.355   2.026  0.0700 -0.5228  0.2270
 3501TIP3    H132062   2.044   5.402   1.948  1.2724 -0.6322 -0.3367
 3501TIP3    H232063   2.043   5.407   2.100  0.1837  0.4049 -0.3617
 3502TIP3   OH232064   0.384   3.781   8.398 -0.7311  0.0572 -0.2316
 3502TIP3    H132065   0.341   3.837   8.462 -1.2117  1.4001 -1.6609
 3502TIP3    H232066   0.361   3.691   8.424 -1.3128  0.5885  1.1535
 3503TIP3   OH232067   1.700   5.690   0.038 -0.8953 -0.2713  0.4061
 3503TIP3    H132068   1.691   5.610   0.089  0.1303 -2.9156 -3.2216
 3503TIP3    H232069   1.637   5.682  -0.033  0.2687  1.3773 -0.9105
 3504TIP3   OH232070   6.749   0.714   8.276  0.1642  0.1991 -0.9175
 3504TIP3    H132071   6.725   0.670   8.357  0.2023 -0.0850 -1.0614
 3504TIP3    H232072   6.774   0.803   8.303 -0.5335  0.3335 -0.7023
 3505TIP3   OH232073   0.981   6.727   2.677 -0.1413  0.0564 -0.1726
 3505TIP3    H132074   1.034   6.702   2.752 -0.0305  0.0900 -0.2400
 3505TIP3    H232075   0.957   6.644   2.636 -0.8993 -0.0084  0.3777
 3506TIP3   OH232076   3.300   5.855   1.089 -0.5927 -0.6955  0.3031
 3506TIP3    H132077   3.313   5.919   1.019 -1.0475 -0.6715  0.2417
 3506TIP3    H232078   3.378   5.799   1.084  0.3320  0.4762  1.0295
 3507TIP3   OH232079   6.676   2.685   0.601  0.3184  0.0641  0.6367
 3507TIP3    H132080   6.739   2.696   0.530 -1.0742 -0.1760 -0.6832
 3507TIP3    H232081   6.593   2.663   0.557 -0.9911  1.5043  2.2177
 3508TIP3   OH232082   2.167   1.916   8.604  0.2964 -0.1341  0.3945
 3508TIP3    H132083   2.214   1.838   8.633 -0.9708 -0.2920  2.1864
 3508TIP3    H232084   2.084   1.882   8.571 -0.5973  0.4608  1.9188
 3509TIP3   OH232085   3.949   0.219   1.762  0.5572 -0.5072  0.3378
 3509TIP3    H132086   4.024   0.204   1.820  1.4609  0.9350 -0.4284
 3509TIP3    H232087   3.901   0.291   1.803 -1.2597 -2.2701  1.5679
 3510TIP3   OH232088   6.268   2.208   1.127  0.4771 -0.6355 -0.2557
 3510TIP3    H132089   6.208   2.281   1.147 -1.3883 -1.6520 -1.8354
 3510TIP3    H232090   6.345   2.250   1.089 -0.4243  0.5389 -0.8342
 3511TIP3   OH232091   4.263   4.651   1.772 -0.4078 -0.4358  0.5357
 3511TIP3    H132092   4.298   4.623   1.688 -3.4617  0.8010 -1.2985
 3511TIP3    H232093   4.270   4.573   1.828  1.8836 -1.2180 -0.7178
 3512TIP3   OH232094   1.151   1.723   8.367 -0.0441  0.7235  0.4022
 3512TIP3    H132095   1.203   1.683   8.298  1.1556  2.7013  0.0961
 3512TIP3    H232096   1.107   1.649   8.410  1.2548 -0.7888 -0.7677
 3513TIP3   OH232097   4.597   2.046   2.972  0.1848  0.3249 -0.2271
 3513TIP3    H132098   4.509   2.048   3.009  0.2511  0.0514 -0.0605
 3513TIP3    H232099   4.652   2.007   3.040  0.4510  0.5739 -0.2969
 3514TIP3   OH232100   6.672   5.845   3.440  0.5507 -0.3431 -0.1651
 3514TIP3    H132101   6.690   5.764   3.392  1.1089 -1.5875  1.9929
 3514TIP3    H232102   6.727   5.911   3.398 -0.5054 -0.8455 -2.4742
 3515TIP3   OH232103   1.652   3.165   2.569  0.6634 -0.0431  0.1882
 3515TIP3    H132104   1.714   3.120   2.512  0.7165 -0.4973  0.5969
 3515TIP3    H232105   1.648   3.254   2.535 -0.0776 -0.5672 -1.1548
 3516TIP3   OH232106   6.051   0.642   1.336 -0.3738 -0.6334  0.6057
 3516TIP3    H132107   6.130   0.589   1.327  1.4409  2.0040 -0.5099
 3516TIP3    H232108   6.029   0.668   1.247 -1.2813  0.2955  1.0772
 3517TIP3   OH232109   0.350   3.880   2.550  0.4143  0.4415  1.0310
 3517TIP3    H132110   0.392   3.817   2.608 -0.7334 -1.1999  0.1648
 3517TIP3    H232111   0.402   3.960   2.559  3.6333 -1.3926  0.1154
 3518TIP3   OH232112   6.424   6.836   1.038  0.1636  0.2413  0.3269
 3518TIP3    H132113   6.449   6.775   1.107 -0.7402 -0.4337  0.0687
 3518TIP3    H232114   6.428   6.784   0.957  0.8837  0.9327 -0.0965
 3519TIP3   OH232115   2.611   3.476   1.199 -0.4003 -0.2278  0.1208
 3519TIP3    H132116   2.525   3.482   1.156  0.0973 -0.3234 -0.9137
 3519TIP3    H232117   2.659   3.410   1.149  0.1511 -0.4574  0.9286
 3520TIP3   OH232118   1.779   2.270   0.557  0.0446  0.6784  0.0321
 3520TIP3    H132119   1.736   2.186   0.571  0.0478  0.1332 -2.6941
 3520TIP3    H232120   1.708   2.335   0.563 -0.0785  0.4473  1.4133
 3521TIP3   OH232121   2.088   4.858   1.766 -0.8018 -0.0054  0.3860
 3521TIP3    H132122   1.997   4.841   1.740 -0.8209 -0.2623  0.6200
 3521TIP3    H232123   2.136   4.780   1.740 -0.4190  0.6059 -0.8156
 3522TIP3   OH232124   1.209   0.118   7.681  0.3655 -0.6010 -0.6110
 3522TIP3    H132125   1.155   0.172   7.623 -0.3259 -1.4825 -0.8159
 3522TIP3    H232126   1.296   0.156   7.675  0.3403 -0.7321 -2.3335
 3523TIP3   OH232127   2.469   2.607   0.570 -0.1948 -0.2215  0.5755
 3523TIP3    H132128   2.438   2.697   0.577 -1.3701 -0.6130  0.6293
 3523TIP3    H232129   2.390   2.555   0.563  0.4999 -1.1332 -0.9513
 3524TIP3   OH232130   5.098   4.040   0.165  0.4495 -0.6366 -0.0682
 3524TIP3    H132131   5.095   4.025   0.260  1.7831 -0.6302 -0.0050
 3524TIP3    H232132   5.188   4.022   0.141  0.9618  2.3984 -0.8401
 3525TIP3   OH232133   0.168   0.929   0.527  0.5438 -0.2283 -0.0731
 3525TIP3    H132134   0.107   0.914   0.456 -1.2501  0.9613  1.1431
 3525TIP3    H232135   0.201   0.841   0.550  0.9686 -0.6445 -2.1311
 3526TIP3   OH232136   5.354   1.867   0.562  0.0695  0.3123 -0.5611
 3526TIP3    H132137   5.260   1.882   0.567  0.1054  0.6348 -0.8160
 3526TIP3    H232138   5.392   1.927   0.626  0.0342 -0.5519  0.2906
 3527TIP3   OH232139   2.883   4.468   8.377 -0.6635  0.6341 -0.1922
 3527TIP3    H132140   2.841   4.553   8.389 -0.9262  0.6957 -1.4316
 3527TIP3    H232141   2.977   4.487   8.376 -0.7222  1.4814 -3.8307
 3528TIP3   OH232142   1.406   0.063   0.591 -0.1244 -0.5951 -0.1643
 3528TIP3    H132143   1.419  -0.006   0.655 -0.7918  0.5562  1.2734
 3528TIP3    H232144   1.411   0.018   0.506  0.7956 -2.1519  0.6636
 3529TIP3   OH232145   5.379   6.789   2.114  0.1328 -0.3020  0.2969
 3529TIP3    H132146   5.402   6.878   2.141 -1.2122  0.0423  0.3693
 3529TIP3    H232147   5.286   6.781   2.133 -0.4428 -0.7371 -2.3385
 3530TIP3   OH232148   6.191   3.077   8.279  0.3042  0.7896  0.3594
 3530TIP3    H132149   6.183   3.015   8.207 -0.5000  1.9379 -0.5838
 3530TIP3    H232150   6.101   3.094   8.307  0.3112  3.0601 -0.7870
 3531TIP3   OH232151   1.127   5.211   7.327 -0.3629  0.4278 -0.0558
 3531TIP3    H132152   1.089   5.204   7.415 -2.4266 -1.5820 -0.9922
 3531TIP3    H232153   1.125   5.304   7.306 -0.6820  0.8328  1.6671
 3532TIP3   OH232154   0.898   0.726   2.882 -0.1306  0.5261  0.0980
 3532TIP3    H132155   0.892   0.821   2.887 -0.2887  0.5933 -1.0720
 3532TIP3    H232156   0.979   0.704   2.927  1.4536  1.4980 -2.0955
 3533TIP3   OH232157   4.291   0.880   2.302 -0.1892  0.3321 -0.6472
 3533TIP3    H132158   4.244   0.816   2.355 -0.1060  1.4191  0.8252
 3533TIP3    H232159   4.222   0.925   2.253 -0.3599 -0.1305 -0.8359
 3534TIP3   OH232160   1.595   1.758   0.794 -0.2574 -0.3002 -0.1393
 3534TIP3    H132161   1.543   1.726   0.868  0.9213 -0.9631  0.4544
 3534TIP3    H232162   1.553   1.722   0.717 -1.1087 -0.1882  0.2646
 3535TIP3   OH232163   1.214   4.104   1.321  0.0443 -0.1590 -0.6803
 3535TIP3    H132164   1.265   4.052   1.383  0.2625  1.6054  0.6971
 3535TIP3    H232165   1.175   4.173   1.375  1.0236  2.0324 -2.6434
 3536TIP3   OH232166   2.421   0.209   2.726 -0.0931 -0.0415 -0.4405
 3536TIP3    H132167   2.415   0.138   2.790  1.3523  0.8813  0.7910
 3536TIP3    H232168   2.490   0.266   2.760 -1.9888  2.6106 -0.7062
 3537TIP3   OH232169   1.229   5.440   7.037 -0.1757 -0.1230  0.0583
 3537TIP3    H132170   1.297   5.472   6.978  0.9247 -3.1043 -0.4253
 3537TIP3    H232171   1.160   5.507   7.033  0.6188  0.6380 -3.2236
 3538TIP3   OH232172   5.892   1.672   2.153 -0.1615  0.2495  0.4499
 3538TIP3    H132173   5.957   1.623   2.204  0.2555 -0.6284 -0.8569
 3538TIP3    H232174   5.906   1.642   2.063 -3.2972 -1.0223  0.2884
 3539TIP3   OH232175   0.181   4.939   0.469 -0.2540  0.2204  0.3344
 3539TIP3    H132176   0.168   5.020   0.518  3.3073  1.1666 -0.0648
 3539TIP3    H232177   0.180   4.966   0.377  1.0406 -0.1494  0.1999
 3540TIP3   OH232178   6.665   4.263   0.661 -0.7234  0.2640  0.2078
 3540TIP3    H132179   6.695   4.227   0.745  0.1135  0.8103  0.1635
 3540TIP3    H232180   6.580   4.222   0.646 -0.7879 -0.0016  1.2188
 3541TIP3   OH232181   4.758   5.995   1.524  0.5949 -0.0370  0.2497
 3541TIP3    H132182   4.728   6.008   1.434 -0.6409  0.7089  0.7455
 3541TIP3    H232183   4.736   5.903   1.543 -2.5574  0.7359  0.9504
 3542TIP3   OH232184   1.634   6.727   3.231 -0.5626  0.3873 -0.1121
 3542TIP3    H132185   1.691   6.788   3.278 -0.1552 -0.3125  0.3206
 3542TIP3    H232186   1.691   6.654   3.208 -1.1192  0.0162 -0.3380
 3543TIP3   OH232187   3.454   3.321   1.981 -0.1490 -0.1340 -0.0531
 3543TIP3    H132188   3.378   3.292   1.930 -0.7416 -0.4167  0.9552
 3543TIP3    H232189   3.500   3.241   2.004 -0.6750 -0.1571  1.0259
 3544TIP3   OH232190   0.814   3.761   0.526 -0.3589  0.1555  0.6201
 3544TIP3    H132191   0.840   3.770   0.434 -1.2644  0.9375  0.4227
 3544TIP3    H232192   0.852   3.678   0.554  0.7075  0.3390 -0.1889
 3545TIP3   OH232193   5.592   4.245   1.046 -0.0808  0.3133 -0.1074
 3545TIP3    H132194   5.638   4.288   1.119 -0.1787 -0.2566  0.2980
 3545TIP3    H232195   5.662   4.217   0.987  0.0448  0.1983  0.0933
 3546TIP3   OH232196   5.408   0.671   0.496  0.4266 -0.3659  0.3371
 3546TIP3    H132197   5.327   0.712   0.464  2.8729  4.5139 -0.4858
 3546TIP3    H232198   5.449   0.636   0.418  0.9694  1.0130 -0.0346
 3547TIP3   OH232199   2.065   4.884   0.255 -0.0864 -0.2031  0.5130
 3547TIP3    H132200   2.092   4.871   0.346  0.6857  2.7867  0.8358
 3547TIP3    H232201   2.143   4.919   0.212 -0.1170 -2.5495 -1.6549
 3548TIP3   OH232202   6.085   6.523   1.505 -0.1651 -0.6639  0.5116
 3548TIP3    H132203   6.087   6.433   1.538 -1.0009 -0.8845 -0.0258
 3548TIP3    H232204   6.111   6.516   1.413 -0.2868 -0.3622  0.4530
 3549TIP3   OH232205   6.115   1.565   2.264 -0.2005  0.2523  0.1092
 3549TIP3    H132206   6.198   1.597   2.230 -1.7434  2.3524 -2.0556
 3549TIP3    H232207   6.100   1.483   2.218  0.7093 -0.2192  0.6300
 3550TIP3   OH232208   3.864   3.855   1.516 -0.0189 -0.6382 -0.1198
 3550TIP3    H132209   3.855   3.763   1.492  1.2897 -0.5037 -1.2282
 3550TIP3    H232210   3.843   3.903   1.436  0.5198 -0.0230  0.1009
 3551TIP3   OH232211   1.037   2.996   8.235  0.1539  0.1059 -0.3569
 3551TIP3    H132212   1.097   2.971   8.305 -0.5592 -0.1958  0.1566
 3551TIP3    H232213   1.091   2.994   8.155  0.2830 -2.5787 -0.2774
 3552TIP3   OH232214   5.257   1.120   0.486 -0.2154  0.4806  0.3035
 3552TIP3    H132215   5.224   1.030   0.494 -0.0877  0.2850 -1.1178
 3552TIP3    H232216   5.218   1.153   0.406  1.4787  0.9064 -0.4024
 3553TIP3   OH232217   6.294   5.681   1.424 -0.2847 -0.0256  0.0567
 3553TIP3    H132218   6.353   5.745   1.384 -0.4937  0.2767  0.2282
 3553TIP3    H232219   6.348   5.604   1.438  0.4752  0.7383  1.5942
 3554TIP3   OH232220   1.468   0.759   1.583 -0.8183 -0.5745 -0.2190
 3554TIP3    H132221   1.451   0.770   1.677 -0.9708 -2.2580 -0.0271
 3554TIP3    H232222   1.400   0.812   1.541 -0.0549  1.1264  0.6051
 3555TIP3   OH232223   3.699   1.018   2.369 -0.0434 -0.1342 -0.0489
 3555TIP3    H132224   3.718   1.071   2.292  0.0424 -1.2018 -0.7874
 3555TIP3    H232225   3.628   1.065   2.413 -0.6071  0.1267 -1.1797
 3556TIP3   OH232226   1.426   1.518   0.312  0.2191  0.5803 -0.2605
 3556TIP3    H132227   1.435   1.423   0.323  1.1767  0.5593 -1.0687
 3556TIP3    H232228   1.405   1.529   0.219 -1.4197  1.0923  0.1300
 3557TIP3   OH232229   4.068   1.128   1.098 -0.6124  0.3895  0.6584
 3557TIP3    H132230   4.024   1.160   1.020  0.2282 -0.3424 -0.1363
 3557TIP3    H232231   4.124   1.200   1.126  0.2192  0.1421 -0.3082
 3558TIP3   OH232232   5.867   2.250   1.346 -0.3918  0.5817  0.8707
 3558TIP3    H132233   5.923   2.323   1.374  0.2835 -0.0958  1.3171
 3558TIP3    H232234   5.781   2.271   1.382  0.0407  0.6499  1.9052
 3559TIP3   OH232235   2.265   3.063   0.339 -0.1718 -0.4279  0.2325
 3559TIP3    H132236   2.316   3.107   0.272  0.1724 -0.2424  0.6164
 3559TIP3    H232237   2.182   3.043   0.296 -0.8219  1.6646  0.3886
 3560TIP3   OH232238   3.113   2.076   0.494  0.1154  0.0498  0.1828
 3560TIP3    H132239   3.181   2.143   0.504  0.0497  0.0834  0.4144
 3560TIP3    H232240   3.134   2.032   0.412 -1.1663  1.8675 -1.2054
 3561TIP3   OH232241   2.843   4.569   1.370 -0.2577  0.1456 -0.4672
 3561TIP3    H132242   2.931   4.533   1.363 -0.3114  0.1507 -1.3345
 3561TIP3    H232243   2.849   4.637   1.436 -0.1705 -1.5167  1.3320
 3562TIP3   OH232244   5.310   3.146   0.532 -0.6938  0.8314  0.4139
 3562TIP3    H132245   5.341   3.182   0.615 -2.5821  0.9469  1.1092
 3562TIP3    H232246   5.367   3.186   0.466  0.4994  1.1487  1.5791
 3563TIP3   OH232247   5.165   3.594   1.354  0.5290  0.2533  0.2313
 3563TIP3    H132248   5.103   3.644   1.301  1.1836  0.0348 -0.7676
 3563TIP3    H232249   5.241   3.581   1.296 -0.2195 -3.2704 -0.1267
 3564TIP3   OH232250   2.389   6.537   1.168  0.4414  0.4611 -0.4008
 3564TIP3    H132251   2.365   6.560   1.258  0.6502 -0.0673 -0.2080
 3564TIP3    H232252   2.331   6.591   1.114  0.5071  0.9926  0.0439
 3565TIP3   OH232253   3.484   1.156   7.997  0.1758 -0.1502 -0.2466
 3565TIP3    H132254   3.480   1.065   7.970  0.0041 -0.3496  0.4433
 3565TIP3    H232255   3.399   1.173   8.038  0.9005 -0.2426  1.3590
 3566TIP3   OH232256   1.113   0.574   2.140 -1.0811  0.0594  0.0533
 3566TIP3    H132257   1.055   0.502   2.166 -0.9975  0.5020  1.5861
 3566TIP3    H232258   1.055   0.636   2.096 -1.1191 -1.0050 -1.4698
 3567TIP3   OH232259   1.618   5.532   1.449  0.7826  0.3832 -0.0739
 3567TIP3    H132260   1.610   5.512   1.356  2.4323 -2.1183  0.2035
 3567TIP3    H232261   1.626   5.446   1.491  0.0664  1.4301  2.4078
 3568TIP3   OH232262   0.616   0.590   1.831 -0.2295  0.2028  0.1889
 3568TIP3    H132263   0.562   0.668   1.822  0.6410  0.6487 -2.1815
 3568TIP3    H232264   0.567   0.521   1.785 -0.9684 -0.7140  2.2139
 3569TIP3   OH232265   0.912   3.616   2.858 -0.0334 -0.5304 -0.6547
 3569TIP3    H132266   0.898   3.684   2.793 -0.6177  1.0119  0.9979
 3569TIP3    H232267   0.825   3.580   2.874 -0.6633  1.8395  2.0368
 3570TIP3   OH232268   3.998   1.938   0.194 -0.3783  0.5583 -0.1048
 3570TIP3    H132269   3.971   2.029   0.205 -1.6478  0.0019  2.0283
 3570TIP3    H232270   4.060   1.923   0.265  0.2001 -0.1250 -0.7401
 3571TIP3   OH232271   5.748   6.016   2.285 -0.3925  0.1860  0.1892
 3571TIP3    H132272   5.677   6.064   2.243  0.6757  0.2491 -1.6730
 3571TIP3    H232273   5.816   6.081   2.300 -0.2233 -0.1161  0.7659
 3572TIP3   OH232274   5.541   3.051   1.182 -0.3045  0.1454 -0.3556
 3572TIP3    H132275   5.481   2.977   1.195 -1.1727  0.5956 -1.5776
 3572TIP3    H232276   5.515   3.114   1.249  0.7522 -0.8064  1.0019
 3573TIP3   OH232277   4.390   4.155   0.064 -0.0442  0.0669 -0.0284
 3573TIP3    H132278   4.411   4.247   0.052 -1.5220  0.3605 -0.5895
 3573TIP3    H232279   4.322   4.155   0.132  1.0802 -0.7714  1.1681
 3574TIP3   OH232280   6.555   3.750   1.793  0.9182 -0.0165 -0.5014
 3574TIP3    H132281   6.501   3.671   1.799 -1.3842  1.4921 -0.0601
 3574TIP3    H232282   6.520   3.797   1.717  1.0659  1.3814  0.2730
 3575TIP3   OH232283   1.515   5.143   7.962 -0.3588 -0.0095 -0.1521
 3575TIP3    H132284   1.428   5.142   8.001 -0.2507 -2.2739  0.1723
 3575TIP3    H232285   1.563   5.073   8.008  0.7951 -0.5699 -2.0712
 3576TIP3   OH232286   1.844   2.078   2.951  0.4147 -0.3286  0.2544
 3576TIP3    H132287   1.867   2.032   2.871  0.4961  0.3669 -0.1262
 3576TIP3    H232288   1.765   2.126   2.930  1.7261  1.7518 -0.1629
 3577TIP3   OH232289   5.813   4.197   0.910  0.4717  0.2438  0.5004
 3577TIP3    H132290   5.881   4.264   0.904 -0.3481  1.0537 -0.0472
 3577TIP3    H232291   5.816   4.151   0.826  2.4666 -1.8999  1.6287
 3578TIP3   OH232292   3.507   2.289   7.567 -0.2513 -0.1926 -0.4871
 3578TIP3    H132293   3.484   2.335   7.486  1.7127 -0.6632 -1.3572
 3578TIP3    H232294   3.532   2.359   7.628  0.6991  0.0395 -1.1223
 3579TIP3   OH232295   4.256   5.998   0.878 -0.1322  0.1559 -0.2733
 3579TIP3    H132296   4.216   6.028   0.959  0.6884  0.9091 -0.1326
 3579TIP3    H232297   4.270   5.904   0.892 -0.9995  0.0610  0.0135
 3580TIP3   OH232298   5.285   4.722   0.792 -0.8688 -0.3946 -0.2336
 3580TIP3    H132299   5.284   4.645   0.736 -1.0516 -0.6289  0.0877
 3580TIP3    H232300   5.268   4.688   0.880  2.1407 -0.4225  0.4456
 3581TIP3   OH232301   6.721   0.466   1.292  0.4785  0.3527 -0.0292
 3581TIP3    H132302   6.727   0.560   1.277 -1.7983  0.4271 -0.8553
 3581TIP3    H232303   6.671   0.458   1.373  1.1969 -0.1551  0.3746
 3582TIP3   OH232304   2.904   4.139   2.179  0.1881  0.2382 -0.1763
 3582TIP3    H132305   2.875   4.230   2.175  1.6779  0.6982 -2.3481
 3582TIP3    H232306   2.986   4.138   2.129  0.5487 -2.1845  0.3421
 3583TIP3   OH232307   3.510   4.259   2.460  0.0907  0.6899 -0.5555
 3583TIP3    H132308   3.539   4.348   2.438  0.4126  0.9565  0.8246
 3583TIP3    H232309   3.486   4.265   2.553 -1.4357 -0.2900 -0.8634
 3584TIP3   OH232310   2.408   1.734   8.370 -0.1260 -0.0459  0.2228
 3584TIP3    H132311   2.501   1.728   8.348 -0.8720 -3.7798 -3.0766
 3584TIP3    H232312   2.381   1.820   8.337  1.7683  0.2958 -0.5901
 3585TIP3   OH232313   4.727   5.750   7.870 -0.0559  0.2535 -0.5014
 3585TIP3    H132314   4.713   5.661   7.837  0.4804 -0.9424  2.2160
 3585TIP3    H232315   4.657   5.802   7.830 -0.8962 -1.5701 -1.5024
 3586TIP3   OH232316   1.701   3.228   7.447 -0.2469 -0.0015 -0.3289
 3586TIP3    H132317   1.792   3.226   7.477 -0.2607  1.0694 -0.1749
 3586TIP3    H232318   1.666   3.142   7.470  0.6282 -0.3023 -0.0883
 3587TIP3   OH232319   5.387   4.971   2.330 -0.4038 -0.0198  0.5778
 3587TIP3    H132320   5.359   4.965   2.239 -0.4866 -0.3225  0.6233
 3587TIP3    H232321   5.399   5.065   2.345 -1.9299  0.1828  0.7242
 3588TIP3   OH232322   4.165   2.002   1.895  0.0555 -0.0148  0.6390
 3588TIP3    H132323   4.255   2.013   1.926  0.3085 -2.5070  1.0151
 3588TIP3    H232324   4.167   2.033   1.805  0.4966  2.7873  1.5182
 3589TIP3   OH232325   5.243   2.897   0.639 -0.2777  0.0594  0.1346
 3589TIP3    H132326   5.319   2.950   0.613  1.2439 -1.1808  1.7862
 3589TIP3    H232327   5.207   2.943   0.715 -1.1269  0.5634 -0.5543
 3590TIP3   OH232328   5.586   2.345   7.981 -0.0573  0.5181 -0.0492
 3590TIP3    H132329   5.503   2.312   7.944 -0.9370  0.8162  1.5506
 3590TIP3    H232330   5.613   2.414   7.921 -0.9308  0.3678 -0.6452
 3591TIP3   OH232331   5.778   5.458   2.158  0.6722  0.1107 -0.4344
 3591TIP3    H132332   5.830   5.506   2.093  0.6770  0.8537  0.1061
 3591TIP3    H232333   5.722   5.525   2.198  0.5124 -0.3800  0.1813
 3592TIP3   OH232334   0.281   0.394   1.024 -0.1092 -0.0535  0.2968
 3592TIP3    H132335   0.232   0.386   1.105  0.7641 -0.8486  0.7583
 3592TIP3    H232336   0.361   0.344   1.038  0.3914  0.3876 -0.7960
 3593TIP3   OH232337   5.702   3.595   3.290  0.5082 -0.6300 -0.0040
 3593TIP3    H132338   5.624   3.560   3.247  1.6778 -1.6632 -1.3816
 3593TIP3    H232339   5.770   3.592   3.223  2.3218 -1.9410  1.7762
 3594TIP3   OH232340   6.438   6.109   1.468 -0.2267 -0.4347 -0.2774
 3594TIP3    H132341   6.436   6.093   1.562  0.9690 -1.0331 -0.3286
 3594TIP3    H232342   6.515   6.061   1.437  0.7536  1.6051 -1.2066
 3595TIP3   OH232343   2.091   5.621   1.245  0.1100  0.2438 -0.4517
 3595TIP3    H132344   2.083   5.536   1.288 -1.0489  0.6654  0.1997
 3595TIP3    H232345   2.031   5.678   1.293 -1.7735  0.5982 -3.0025
 3596TIP3   OH232346   3.488   3.050   1.295 -0.5131  0.0364 -0.1181
 3596TIP3    H132347   3.471   2.973   1.241  2.2476 -0.1719 -0.8408
 3596TIP3    H232348   3.442   3.121   1.251  0.6960 -0.3675 -2.1434
 3597TIP3   OH232349   3.769   3.757   2.363  0.0460 -0.1386 -0.1558
 3597TIP3    H132350   3.721   3.826   2.409  0.5615  0.0339  0.1415
 3597TIP3    H232351   3.722   3.677   2.384 -1.6340  0.3140 -1.9612
 3598TIP3   OH232352   0.305   1.708   7.945 -0.8137 -0.2431  0.1133
 3598TIP3    H132353   0.220   1.668   7.927 -0.4318 -2.0478  1.9760
 3598TIP3    H232354   0.314   1.706   8.040  0.3848  2.0066  0.1378
 3599TIP3   OH232355   0.403   0.083   0.920 -0.5715 -0.2540 -0.0337
 3599TIP3    H132356   0.425  -0.003   0.883 -0.2643 -0.5198  0.7570
 3599TIP3    H232357   0.357   0.127   0.849 -1.4248 -1.3536 -0.2009
 3600TIP3   OH232358   4.947   3.782   1.493 -0.7942  0.1416  0.3511
 3600TIP3    H132359   5.010   3.850   1.515 -0.3917 -0.4609  1.1499
 3600TIP3    H232360   4.989   3.701   1.520 -2.3199 -0.1966  1.9459
 3601TIP3   OH232361   1.793   6.816   2.265  0.4623  0.6867 -0.4627
 3601TIP3    H132362   1.785   6.828   2.171 -1.1136 -0.6745 -0.5485
 3601TIP3    H232363   1.878   6.773   2.277  0.1899 -0.1476 -1.3920
 3602TIP3   OH232364   2.149   2.167   7.930  0.3703 -0.2305  0.1959
 3602TIP3    H132365   2.110   2.229   7.869  0.6534 -0.5973 -0.3711
 3602TIP3    H232366   2.123   2.081   7.898 -2.0003 -0.4174  2.3021
 3603TIP3   OH232367   5.645   0.478   0.349  0.1027 -0.7358  0.7343
 3603TIP3    H132368   5.708   0.496   0.419 -0.9895  0.8123  1.3640
 3603TIP3    H232369   5.667   0.541   0.280 -0.7748 -0.1587  0.9748
 3604TIP3   OH232370   5.373   0.990   7.679  0.5244 -0.0446  0.1030
 3604TIP3    H132371   5.290   0.988   7.633  0.9245 -0.8005 -0.6060
 3604TIP3    H232372   5.377   1.078   7.717 -0.7753 -0.1370  0.5098
 3605TIP3   OH232373   3.331   2.926   2.925 -0.1246  0.7654  0.1271
 3605TIP3    H132374   3.266   2.963   2.865 -0.8637  1.0443  1.0729
 3605TIP3    H232375   3.391   2.999   2.943  0.2344  0.6181 -0.4316
 3606TIP3   OH232376   2.312   3.127   8.067 -0.3899 -0.8066 -0.2754
 3606TIP3    H132377   2.225   3.112   8.031 -0.6987 -1.6426  0.7717
 3606TIP3    H232378   2.367   3.145   7.990 -1.3473 -0.8869 -1.0004
 3607TIP3   OH232379   0.721   2.720   2.169  0.2204  0.0401 -0.1963
 3607TIP3    H132380   0.764   2.689   2.248  0.0542 -2.7228 -1.0843
 3607TIP3    H232381   0.791   2.733   2.105  0.2052  0.7376 -0.0806
 3608TIP3   OH232382   3.301   5.078   2.604 -0.0557 -0.4598  0.3802
 3608TIP3    H132383   3.351   5.013   2.653  1.0294 -0.4615 -0.6467
 3608TIP3    H232384   3.354   5.158   2.610 -0.2390 -0.2863 -0.2148
 3609TIP3   OH232385   1.813   0.774   1.384  0.3479 -0.7876 -0.3994
 3609TIP3    H132386   1.823   0.782   1.290  0.2515 -0.7403 -0.4064
 3609TIP3    H232387   1.757   0.848   1.408  3.3601  1.5117  0.2061
 3610TIP3   OH232388   6.618   2.847   1.948  0.4630 -0.1235 -0.6093
 3610TIP3    H132389   6.659   2.892   1.875 -0.0020 -0.4594 -1.0929
 3610TIP3    H232390   6.580   2.916   2.002 -1.8848  0.0640 -2.3224
 3611TIP3   OH232391   6.100   6.326   0.979  0.2043  0.3190 -0.3286
 3611TIP3    H132392   6.185   6.369   0.991  1.2690 -1.7381 -0.0647
 3611TIP3    H232393   6.052   6.385   0.920  2.7747  0.3154 -2.6479
 3612TIP3   OH232394   3.210   4.067   1.155  0.3736 -0.5003  0.0305
 3612TIP3    H132395   3.301   4.039   1.144  0.1898 -0.7304 -1.0574
 3612TIP3    H232396   3.211   4.159   1.130  0.5278 -0.1515  1.2567
 3613TIP3   OH232397   1.922   3.681   0.372 -0.1491 -0.5369 -0.1268
 3613TIP3    H132398   1.991   3.741   0.400 -1.2499  1.6741 -1.8127
 3613TIP3    H232399   1.905   3.627   0.449  1.4447  0.7962  1.2544
 3614TIP3   OH232400   3.409   2.377   0.224  0.0729  0.8090  0.1390
 3614TIP3    H132401   3.487   2.431   0.213 -0.5194  1.5063 -0.8635
 3614TIP3    H232402   3.342   2.422   0.173 -0.0769 -1.6162 -2.0042
 3615TIP3   OH232403   6.199   5.631   0.942 -0.4826  0.0633 -0.5640
 3615TIP3    H132404   6.243   5.550   0.918  0.0800  0.6015 -1.3872
 3615TIP3    H232405   6.223   5.693   0.873 -1.5380  0.7110 -0.3635
 3616TIP3   OH232406   3.629   4.465   2.609 -0.2790 -0.3403 -0.1013
 3616TIP3    H132407   3.712   4.470   2.657 -0.4056 -0.5928  0.1402
 3616TIP3    H232408   3.573   4.408   2.661 -0.4300 -0.5931 -0.5299
 3617TIP3   OH232409   5.185   5.332   3.075 -0.1172 -0.2154 -0.2636
 3617TIP3    H132410   5.096   5.368   3.072  0.0082  0.1219 -0.0898
 3617TIP3    H232411   5.235   5.397   3.125  0.6639  0.5363 -1.9398
 3618TIP3   OH232412   2.151   0.827   0.108 -0.2974  0.7649 -0.0549
 3618TIP3    H132413   2.058   0.829   0.087 -0.7537  1.5527  1.8408
 3618TIP3    H232414   2.175   0.734   0.100 -0.9401  0.6977 -1.6274
 3619TIP3   OH232415   0.479   4.773   2.128 -0.1253  0.4827  0.0177
 3619TIP3    H132416   0.439   4.857   2.105  1.4786  0.4890 -3.3255
 3619TIP3    H232417   0.444   4.711   2.065 -1.4674 -1.5624  2.5655
 3620TIP3   OH232418   0.714   5.203   0.717 -0.0198  0.0510 -0.6914
 3620TIP3    H132419   0.723   5.238   0.628  1.0686 -0.2341 -0.7026
 3620TIP3    H232420   0.628   5.236   0.746 -0.2556  0.4082 -1.7204
 3621TIP3   OH232421   6.849   3.479   8.421 -0.0488 -0.2466 -1.0961
 3621TIP3    H132422   6.805   3.449   8.342  0.6669  0.4059 -1.7607
 3621TIP3    H232423   6.904   3.553   8.392  0.6084 -0.3139 -0.0950
 3622TIP3   OH232424   2.645   2.066   1.654  0.5226  0.7495  0.2319
 3622TIP3    H132425   2.561   2.070   1.700  0.5135  1.1675  0.1877
 3622TIP3    H232426   2.711   2.071   1.723  0.5809 -2.8638  0.5863
 3623TIP3   OH232427   0.280   5.529   0.533 -0.1882  0.5133  0.6314
 3623TIP3    H132428   0.284   5.612   0.485  1.4979  0.6997  1.0171
 3623TIP3    H232429   0.245   5.552   0.619  0.2922  0.8482  0.7432
 3624TIP3   OH232430   1.498   1.031   0.679  0.0758 -0.0218  0.1081
 3624TIP3    H132431   1.560   1.100   0.703  2.6890 -3.0669  3.2126
 3624TIP3    H232432   1.543   0.980   0.611 -1.7603  1.0363 -2.0540
 3625TIP3   OH232433   1.297   1.777   1.528  0.1011  0.5101 -0.6869
 3625TIP3    H132434   1.258   1.719   1.593 -0.4440  0.4851 -1.0323
 3625TIP3    H232435   1.350   1.838   1.579  0.4386 -0.1032 -0.2992
 3626TIP3   OH232436   6.831   6.798   2.262  0.3457  0.1208 -0.4192
 3626TIP3    H132437   6.768   6.748   2.210  0.4979  0.0311 -0.5191
 3626TIP3    H232438   6.839   6.748   2.344  0.0609  0.2943 -0.2869
 3627TIP3   OH232439   3.039   1.543   0.640  0.6547 -0.1351  0.2131
 3627TIP3    H132440   3.015   1.603   0.711  1.0261 -0.2345  0.4249
 3627TIP3    H232441   3.057   1.460   0.684 -1.0562 -0.7524 -0.2001
 3628TIP3   OH232442   0.242   2.049   0.907 -0.1835  0.5066  0.6829
 3628TIP3    H132443   0.318   2.100   0.878 -0.0923  0.3094  0.5716
 3628TIP3    H232444   0.170   2.113   0.910 -0.6588  0.1984 -1.8116
 3629TIP3   OH232445   4.965   1.761   0.992  0.1971  0.3124 -0.2862
 3629TIP3    H132446   5.046   1.715   0.968 -0.1351 -0.0610 -0.7230
 3629TIP3    H232447   4.958   1.831   0.927  0.3867  0.6055  0.0086
 3630TIP3   OH232448   1.901   3.393   0.395  0.0709 -0.2031 -0.9057
 3630TIP3    H132449   1.809   3.398   0.372  0.4005 -0.6012 -2.4199
 3630TIP3    H232450   1.902   3.353   0.482 -1.2799  2.1538  0.2926
 3631TIP3   OH232451   2.022   4.267   3.070 -0.0037  0.2862 -0.4718
 3631TIP3    H132452   2.088   4.322   3.028 -0.2936  2.6211  1.8879
 3631TIP3    H232453   2.065   4.183   3.082  2.2698  1.4712  0.1901
 3632TIP3   OH232454   2.663   2.912   0.159  0.2234  0.0341  0.0947
 3632TIP3    H132455   2.570   2.898   0.178  0.4401  0.8144  1.9140
 3632TIP3    H232456   2.680   2.858   0.082 -1.7338 -0.1254 -0.2637
 3633TIP3   OH232457   6.504   0.929   8.474  0.5454 -0.5114 -0.9349
 3633TIP3    H132458   6.566   0.935   8.546 -1.5944  0.2137  0.9803
 3633TIP3    H232459   6.480   0.837   8.470  2.0085 -0.8850 -2.0031
 3634TIP3   OH232460   6.802   1.679   1.554  0.1266 -0.0166  0.0549
 3634TIP3    H132461   6.774   1.661   1.464 -0.2624 -0.8472  0.3368
 3634TIP3    H232462   6.897   1.666   1.553  0.0656 -0.4578 -0.1379
 3635TIP3   OH232463   2.837   2.779   2.006 -0.0931  0.6219  0.1643
 3635TIP3    H132464   2.799   2.867   2.010  0.6830  0.9466  0.7321
 3635TIP3    H232465   2.762   2.720   2.004 -0.6303  1.2685  0.6727
 3636TIP3   OH232466   0.430   5.803   8.695  0.0641 -0.3874  0.5720
 3636TIP3    H132467   0.360   5.768   8.749 -1.0320  0.9075  0.0541
 3636TIP3    H232468   0.434   5.745   8.619 -1.3789  0.2548 -0.0327
 3637TIP3   OH232469   1.553   4.521   2.817  0.3656 -0.6216 -0.5842
 3637TIP3    H132470   1.547   4.611   2.787 -0.4125 -0.1126  0.9887
 3637TIP3    H232471   1.508   4.470   2.751 -1.2134  0.4366 -0.3706
 3638TIP3   OH232472   5.755   1.695   1.638  0.2268  0.0597 -0.6800
 3638TIP3    H132473   5.672   1.721   1.678  0.5605 -0.2640  0.2377
 3638TIP3    H232474   5.730   1.660   1.552 -0.2951  3.0473 -1.8912
 3639TIP3   OH232475   5.104   4.741   1.087 -0.5905  0.6191 -0.1272
 3639TIP3    H132476   5.196   4.735   1.115 -0.8337  1.1352  0.8127
 3639TIP3    H232477   5.085   4.834   1.087 -1.4271  0.4690  0.7663
 3640TIP3   OH232478   1.421   2.303   3.124  0.3928  1.1814 -0.5292
 3640TIP3    H132479   1.499   2.252   3.145  0.5234  1.9599  1.0522
 3640TIP3    H232480   1.436   2.388   3.167 -1.0926  1.5118 -0.6170
 3641TIP3   OH232481   3.217   1.260   2.560 -0.2838 -0.2091  0.4079
 3641TIP3    H132482   3.260   1.335   2.519  0.9721 -1.3262 -0.4030
 3641TIP3    H232483   3.223   1.278   2.654  0.7453  0.3308  0.2626
 3642TIP3   OH232484   0.210   0.101   0.022 -0.2684  0.0527  0.2435
 3642TIP3    H132485   0.233   0.126   0.112 -0.4408  1.4164 -0.0696
 3642TIP3    H232486   0.115   0.112   0.017 -0.3283 -0.5205  0.0350
 3643TIP3   OH232487   1.464   5.830   0.990  0.2323 -0.1308  0.1329
 3643TIP3    H132488   1.502   5.918   0.986  0.2661 -0.1384  0.2864
 3643TIP3    H232489   1.485   5.791   0.905 -1.4095  0.6790 -0.7011
 3644TIP3   OH232490   0.175   6.225   0.300 -0.0369 -0.8702 -0.4598
 3644TIP3    H132491   0.241   6.210   0.232  0.2671  2.1540 -0.9612
 3644TIP3    H232492   0.104   6.164   0.279  1.0948 -1.7218 -1.9876
 3645TIP3   OH232493   4.755   0.892   0.804 -0.7081  0.4712  0.2718
 3645TIP3    H132494   4.835   0.935   0.833 -0.6066 -0.5248  1.5709
 3645TIP3    H232495   4.685   0.951   0.832 -0.4604  1.4463 -1.0534
 3646TIP3   OH232496   6.484   0.402   8.602  0.1228 -0.2424 -0.6375
 3646TIP3    H132497   6.522   0.405   8.514  0.9555  0.6259 -0.2717
 3646TIP3    H232498   6.489   0.492   8.634  0.8933 -0.7306  0.7237
 3647TIP3   OH232499   4.220   0.648   1.088 -0.1558 -0.1504  0.5586
 3647TIP3    H132500   4.224   0.735   1.048  0.9555 -0.9057 -1.1313
 3647TIP3    H232501   4.292   0.647   1.151 -0.2481  0.2087  0.6694
 3648TIP3   OH232502   2.153   2.235   8.203  0.3266 -0.3429  0.1179
 3648TIP3    H132503   2.076   2.188   8.236 -0.8705  1.8621  0.6996
 3648TIP3    H232504   2.155   2.216   8.110 -0.1870 -1.4132  0.3091
 3649TIP3   OH232505   4.090   0.465   8.250  0.2904 -0.0635  0.3359
 3649TIP3    H132506   4.133   0.405   8.189  0.5373  0.7664 -0.3219
 3649TIP3    H232507   4.070   0.542   8.198 -1.3173 -0.1140  0.8168
 3650TIP3   OH232508   2.057   3.048   1.046 -0.5374  0.2729  0.1765
 3650TIP3    H132509   2.048   3.048   0.951 -0.3012 -0.9267  0.1442
 3650TIP3    H232510   2.150   3.067   1.061 -0.8971  2.2343  0.2436
 3651TIP3   OH232511   3.804   0.157   0.821 -0.1046 -0.1315 -0.4831
 3651TIP3    H132512   3.800   0.245   0.859 -1.3058  0.3229 -1.5987
 3651TIP3    H232513   3.885   0.120   0.855  0.5862  1.5294 -0.2468
 3652TIP3   OH232514   0.061   6.274   7.803 -0.7105  0.2822 -0.4423
 3652TIP3    H132515   0.084   6.270   7.710 -1.8375  0.0338 -0.7261
 3652TIP3    H232516   0.093   6.360   7.832 -0.2831  0.3267 -1.0374
 3653TIP3   OH232517   1.085   4.919   1.401 -0.5250 -0.2541  0.9625
 3653TIP3    H132518   0.999   4.893   1.366 -0.0551  1.1245 -1.4119
 3653TIP3    H232519   1.142   4.845   1.380 -0.6070 -0.1295  0.2813
 3654TIP3   OH232520   5.421   5.948   2.648  0.3747  0.1430 -0.1565
 3654TIP3    H132521   5.387   5.987   2.729 -0.9625  1.7710 -1.4233
 3654TIP3    H232522   5.516   5.952   2.658  0.2475 -0.4183  1.6484
 3655TIP3   OH232523   6.768   4.710   1.796  0.8977  0.4365 -0.0031
 3655TIP3    H132524   6.816   4.763   1.732  1.0832 -0.0264 -0.2481
 3655TIP3    H232525   6.822   4.633   1.809  0.0369 -0.2833 -0.5837
 3656TIP3   OH232526   4.355   0.378   0.090  0.5771 -0.2328 -0.2938
 3656TIP3    H132527   4.375   0.357  -0.001  1.3923 -1.1538  0.0770
 3656TIP3    H232528   4.342   0.293   0.132 -0.3725  0.2116  0.3254
 3657TIP3   OH232529   2.977   1.635   1.439  0.3383 -0.6140 -0.3950
 3657TIP3    H132530   2.991   1.634   1.533  0.8486  0.3963 -0.4477
 3657TIP3    H232531   3.030   1.563   1.406  0.5878 -0.6338  0.0418
 3658TIP3   OH232532   2.424   3.130   2.069  0.0459  0.1963 -0.1884
 3658TIP3    H132533   2.418   3.223   2.088 -1.3292  0.3315 -1.1302
 3658TIP3    H232534   2.386   3.087   2.146  0.2039  0.4238  0.0186
 3659TIP3   OH232535   1.638   4.737   0.284 -0.5098 -0.0951  0.1196
 3659TIP3    H132536   1.709   4.705   0.228 -1.4261 -0.6295 -0.7844
 3659TIP3    H232537   1.679   4.754   0.368  0.4966 -1.3714 -0.0855
 3660TIP3   OH232538   2.653   2.614   0.258 -0.3383 -0.4126  0.1885
 3660TIP3    H132539   2.571   2.661   0.242 -0.2414 -0.1543  0.4465
 3660TIP3    H232540   2.721   2.681   0.254 -0.1019 -0.6789 -0.3436
 3661TIP3   OH232541   0.029   1.859   2.413 -0.0065  0.2092  0.3590
 3661TIP3    H132542   0.064   1.790   2.469  0.3333  1.1853  1.3905
 3661TIP3    H232543  -0.066   1.849   2.418  0.0404 -1.4293 -1.1425
 3662TIP3   OH232544   4.645   5.179   2.478 -0.2564  0.0761  0.0284
 3662TIP3    H132545   4.658   5.253   2.419  0.5865 -0.9040 -1.0727
 3662TIP3    H232546   4.703   5.197   2.552 -1.3971  1.3653  0.6552
 3663TIP3   OH232547   1.704   2.466   2.599  0.6425  0.3765  0.0775
 3663TIP3    H132548   1.788   2.469   2.553  1.5772 -1.2599  1.5370
 3663TIP3    H232549   1.668   2.380   2.575  0.4969  0.0968  1.2642
 3664TIP3   OH232550   6.289   5.296   8.149 -0.1655 -0.3180  0.4381
 3664TIP3    H132551   6.224   5.268   8.084 -1.2359  0.3295  1.2006
 3664TIP3    H232552   6.365   5.322   8.097 -0.6852 -0.6219 -0.5068
 3665TIP3   OH232553   5.709   4.675   2.303  0.2651  0.2598  0.1670
 3665TIP3    H132554   5.701   4.746   2.239 -0.8030 -0.1086 -0.1421
 3665TIP3    H232555   5.636   4.689   2.364  0.4174 -0.2110  0.4606
 3666TIP3   OH232556   4.293   1.367   1.902 -0.2392  0.4344 -0.1089
 3666TIP3    H132557   4.377   1.343   1.942 -1.3347 -0.6533  1.6689
 3666TIP3    H232558   4.285   1.308   1.828  0.8558  1.0130 -0.7151
 3667TIP3   OH232559   0.733   6.625   3.050 -0.1744 -0.3578 -0.3547
 3667TIP3    H132560   0.663   6.684   3.078 -0.5547 -0.8690 -0.1882
 3667TIP3    H232561   0.799   6.631   3.118 -0.2536 -0.1932 -0.2929
 3668TIP3   OH232562   5.789   1.505   0.917 -0.2770  0.4982  0.2369
 3668TIP3    H132563   5.814   1.582   0.866  0.1756 -0.5026 -1.1071
 3668TIP3    H232564   5.857   1.440   0.899 -1.7290 -0.9456 -0.3967
 3669TIP3   OH232565   4.713   0.161   8.105 -0.3788 -0.3532 -0.2125
 3669TIP3    H132566   4.643   0.168   8.169  1.8422 -0.4427  2.3737
 3669TIP3    H232567   4.750   0.249   8.100  0.6716 -0.7664  0.1028
 3670TIP3   OH232568   4.517   3.445   0.634 -0.5033  0.3774  0.4963
 3670TIP3    H132569   4.514   3.529   0.588  2.8619  0.0797 -0.5684
 3670TIP3    H232570   4.434   3.403   0.612 -1.6095  2.7359 -0.2312
 3671TIP3   OH232571   6.079   6.814   8.660 -0.2639  0.0580  0.2265
 3671TIP3    H132572   6.052   6.731   8.700  0.0907  0.0399  0.4348
 3671TIP3    H232573   6.167   6.829   8.694 -0.6660  0.9838  0.8863
 3672TIP3   OH232574   3.109   1.611   2.167 -0.3805  0.1031 -0.7149
 3672TIP3    H132575   3.141   1.663   2.093  0.9291  1.3068  0.6182
 3672TIP3    H232576   3.188   1.568   2.202 -0.6962  0.6859  0.8092
 3673TIP3   OH232577   5.181   3.172   2.531  0.4974 -0.0075  0.0396
 3673TIP3    H132578   5.195   3.098   2.472  1.1376  0.1124  0.0382
 3673TIP3    H232579   5.151   3.131   2.613  1.5956 -0.3468  0.2907
 3674TIP3   OH232580   6.701   2.234   8.616 -0.6328 -0.3189 -0.6257
 3674TIP3    H132581   6.720   2.148   8.579 -1.1731 -0.3633 -0.8075
 3674TIP3    H232582   6.613   2.254   8.585 -0.1553  0.7143 -1.3537
 3675TIP3   OH232583   6.662   0.562   0.237  0.4810  0.2568  0.1959
 3675TIP3    H132584   6.739   0.606   0.272  0.7466 -0.2242  0.2280
 3675TIP3    H232585   6.605   0.550   0.313  0.6196  0.1098  0.2769
 3676TIP3   OH232586   4.067   2.829   2.040 -0.5294 -0.2388  0.1583
 3676TIP3    H132587   4.076   2.755   2.100 -0.2326 -0.8194 -0.6008
 3676TIP3    H232588   4.021   2.895   2.092  1.9056  0.2513  1.8967
 3677TIP3   OH232589   6.441   6.606   2.398  0.6123 -0.3544  0.1269
 3677TIP3    H132590   6.354   6.565   2.403 -0.1398  1.1540 -0.1060
 3677TIP3    H232591   6.425   6.693   2.361  2.2368 -0.0571  0.0436
 3678TIP3   OH232592   3.552   0.032   7.950 -0.0965 -0.0047 -0.2721
 3678TIP3    H132593   3.640   0.029   7.986  0.1410 -1.1159 -0.9115
 3678TIP3    H232594   3.564   0.056   7.858 -0.7475  3.6144  0.4217
 3679TIP3   OH232595   3.241   6.238   2.130 -0.1746 -0.1046 -0.0080
 3679TIP3    H132596   3.318   6.260   2.077  0.6929  2.0405  1.9678
 3679TIP3    H232597   3.168   6.282   2.085  0.2027  0.0504 -0.4859
 3680TIP3   OH232598   1.265   0.023   0.904  0.0773  0.1585 -0.4844
 3680TIP3    H132599   1.238  -0.058   0.948 -0.3849  0.5796  0.0146
 3680TIP3    H232600   1.340  -0.003   0.849 -1.2656 -1.0183 -1.8399
 3681TIP3   OH232601   5.566   1.276   0.180  0.0656 -0.5686  0.1659
 3681TIP3    H132602   5.544   1.290   0.272  0.6975 -0.7692  0.3449
 3681TIP3    H232603   5.661   1.277   0.177  0.0507 -0.7140 -0.4647
 3682TIP3   OH232604   1.155   5.533   1.066  0.1489  0.6327 -0.0429
 3682TIP3    H132605   1.194   5.591   1.131 -1.6797  0.3231  1.4250
 3682TIP3    H232606   1.217   5.533   0.993  1.0113  3.0643  0.6023
 3683TIP3   OH232607   0.219   5.352   0.186 -0.2012 -0.0434 -1.0698
 3683TIP3    H132608   0.301   5.399   0.176  0.2828 -1.1647 -3.0051
 3683TIP3    H232609   0.166   5.408   0.242  2.2922  0.1106  1.3187
 3684TIP3   OH232610   6.612   1.948   7.683 -0.5355  0.1352  0.0071
 3684TIP3    H132611   6.613   1.867   7.632  0.8014 -1.4485  2.3508
 3684TIP3    H232612   6.519   1.968   7.693 -0.9370 -1.5175 -0.0665
 3685TIP3   OH232613   0.443   4.046   7.932 -0.3806  0.4336 -0.3764
 3685TIP3    H132614   0.399   4.090   8.005  0.4140  0.7706 -0.0948
 3685TIP3    H232615   0.532   4.080   7.933  1.3592 -3.4836  1.8925
 3686TIP3   OH232616   1.223   0.907   1.852  0.2068 -0.2841  0.1415
 3686TIP3    H132617   1.156   0.884   1.788  0.8726 -1.7971 -0.0548
 3686TIP3    H232618   1.259   0.990   1.821 -0.0266 -0.5958 -1.0068
 3687TIP3   OH232619   0.483   6.630   1.184 -0.0057 -0.1363  0.2475
 3687TIP3    H132620   0.450   6.559   1.238 -0.7666  1.2173  1.6459
 3687TIP3    H232621   0.489   6.593   1.096 -0.6629 -1.8238  0.8826
 3688TIP3   OH232622   5.962   1.069   0.656  0.0818  0.0603  0.2104
 3688TIP3    H132623   5.886   1.103   0.608  0.0757  1.3939  1.1079
 3688TIP3    H232624   5.986   1.140   0.716 -0.9073 -2.0525  3.3518
 3689TIP3   OH232625   0.071   4.442   7.687  0.6015  0.4452 -0.2373
 3689TIP3    H132626   0.057   4.532   7.657  3.2162  0.9203 -0.2611
 3689TIP3    H232627   0.110   4.398   7.613  2.5625  0.2776  0.8356
 3690TIP3   OH232628   5.716   2.949   2.391  0.3256 -0.3425 -0.5780
 3690TIP3    H132629   5.807   2.960   2.418  0.2633  0.3997 -0.6519
 3690TIP3    H232630   5.671   2.919   2.470  0.6297 -0.7022 -0.5406
 3691TIP3   OH232631   5.612   6.081   7.616  0.3473 -0.3104 -0.0107
 3691TIP3    H132632   5.541   6.120   7.564 -0.7296 -3.7341 -1.3664
 3691TIP3    H232633   5.690   6.091   7.562  0.4734  1.2179  0.3804
 3692TIP3   OH232634   5.088   4.277   0.477 -0.3656  0.5752 -0.0362
 3692TIP3    H132635   5.142   4.310   0.406 -0.6129  0.8437 -0.1003
 3692TIP3    H232636   5.031   4.350   0.500  0.4850  0.8852  1.2035
 3693TIP3   OH232637   4.665   4.526   1.434 -0.2742  0.2980  0.1070
 3693TIP3    H132638   4.744   4.543   1.382  1.2048  0.2549  2.2046
 3693TIP3    H232639   4.649   4.432   1.423 -0.4729  0.4296 -0.8581
 3694TIP3   OH232640   2.898   6.071   7.225  0.2060 -0.2157  0.4843
 3694TIP3    H132641   2.988   6.064   7.257  0.4309  0.9774  0.1546
 3694TIP3    H232642   2.855   5.991   7.256  0.9784 -0.1032  1.9376
 3695TIP3   OH232643   4.297   5.873   8.589  0.1037 -0.3738  0.2636
 3695TIP3    H132644   4.236   5.926   8.538 -1.0652 -2.3595 -0.5340
 3695TIP3    H232645   4.334   5.811   8.526  3.2108  0.9032  0.6736
 3696TIP3   OH232646   5.306   6.470   2.597  0.0860 -0.2063 -0.2318
 3696TIP3    H132647   5.277   6.390   2.641  0.2669  0.1310  0.5120
 3696TIP3    H232648   5.395   6.484   2.629 -0.0915  0.5189 -0.0386
 3697TIP3   OH232649   5.660   1.522   8.477 -0.4581 -0.6185 -0.4667
 3697TIP3    H132650   5.719   1.458   8.439 -0.3873 -1.6591  1.2921
 3697TIP3    H232651   5.706   1.605   8.469 -1.1150 -0.4459 -3.9929
 3698TIP3   OH232652   0.943   0.730   3.484 -0.3030  0.4213  0.2902
 3698TIP3    H132653   0.947   0.686   3.399  0.5259 -1.8606  1.4332
 3698TIP3    H232654   0.869   0.790   3.476  0.1671  0.7832 -2.2411
 3699TIP3   OH232655   2.581   4.029   1.547  0.2558  1.1086 -0.5155
 3699TIP3    H132656   2.671   4.013   1.577  0.5383 -1.4345 -2.3704
 3699TIP3    H232657   2.529   3.963   1.593 -0.4179  1.5339 -0.6619
 3700TIP3   OH232658   3.765   4.383   0.959 -0.4951 -0.1512  0.2061
 3700TIP3    H132659   3.685   4.423   0.924 -1.0179  1.0437  2.5247
 3700TIP3    H232660   3.826   4.456   0.969  1.7695 -1.2927 -3.3295
 3701TIP3   OH232661   1.988   3.351   0.944  0.2722 -0.4710  0.3267
 3701TIP3    H132662   1.902   3.334   0.983  0.2212 -0.5437  0.1839
 3701TIP3    H232663   1.996   3.446   0.942  0.0476 -0.4581  0.0193
 3702TIP3   OH232664   6.340   1.275   2.057  0.2461  1.0170  0.4493
 3702TIP3    H132665   6.350   1.180   2.056 -1.7791  0.7552 -1.3443
 3702TIP3    H232666   6.417   1.307   2.105  1.4545 -1.4451  0.2769
 3703TIP3   OH232667   4.981   4.739   8.015 -0.4545 -0.6909 -0.4830
 3703TIP3    H132668   4.913   4.705   7.957  0.2789 -0.2081 -1.6622
 3703TIP3    H232669   5.059   4.688   7.993 -0.6174 -1.8687  1.5016
 3704TIP3   OH232670   1.467   2.273   2.601 -0.3641 -0.0518  0.2324
 3704TIP3    H132671   1.440   2.364   2.590 -0.4018 -0.0099  0.6556
 3704TIP3    H232672   1.475   2.261   2.696  0.7474 -0.1623  0.1425
 3705TIP3   OH232673   3.299   2.495   0.619 -0.1114 -0.1609 -0.7304
 3705TIP3    H132674   3.210   2.526   0.604 -0.0540 -0.0919 -0.9297
 3705TIP3    H232675   3.311   2.424   0.556 -1.0327 -2.1469  1.1976
 3706TIP3   OH232676   3.531   1.563   2.366  0.6576 -0.5287 -0.2374
 3706TIP3    H132677   3.541   1.637   2.425  0.2904 -0.9261  0.3392
 3706TIP3    H232678   3.545   1.599   2.279 -2.5061  0.8945 -0.3031
 3707TIP3   OH232679   1.819   1.759   2.403 -0.0711 -0.4889 -0.0702
 3707TIP3    H132680   1.778   1.682   2.441 -1.1398 -0.0483 -0.2911
 3707TIP3    H232681   1.813   1.745   2.308  0.4699 -0.5047 -0.1057
 3708TIP3   OH232682   4.596   6.403   0.307  0.1998 -0.3577 -0.4477
 3708TIP3    H132683   4.686   6.388   0.337  0.7447  0.2136 -1.6874
 3708TIP3    H232684   4.541   6.367   0.376  1.3796 -3.1637 -0.8638
 3709TIP3   OH232685   2.340   1.207   2.586 -0.0399  0.0923 -0.8761
 3709TIP3    H132686   2.314   1.227   2.676 -1.4690 -0.9888 -1.0118
 3709TIP3    H232687   2.363   1.292   2.548 -1.6475  0.8740 -0.1682
 3710TIP3   OH232688   1.670   3.525   0.715  0.1312  0.0545  0.3940
 3710TIP3    H132689   1.646   3.454   0.654 -0.1912 -0.0646  0.6519
 3710TIP3    H232690   1.673   3.482   0.801 -0.4395  0.4268  0.6060
 3711TIP3   OH232691   4.685   5.837   8.377 -0.8690  0.5091 -0.6029
 3711TIP3    H132692   4.686   5.792   8.293 -2.4164 -0.4678 -0.1518
 3711TIP3    H232693   4.690   5.930   8.356 -0.1029  0.2364 -1.6953
 3712TIP3   OH232694   2.251   4.425   7.516  0.5248  0.4781  0.2568
 3712TIP3    H132695   2.166   4.384   7.535  1.4390 -0.9867  1.4498
 3712TIP3    H232696   2.309   4.394   7.586  1.9645  1.7288 -0.3236
 3713TIP3   OH232697   3.507   6.316   7.752 -0.1278  0.4598 -0.2054
 3713TIP3    H132698   3.532   6.256   7.682 -1.3160  0.3248 -0.5178
 3713TIP3    H232699   3.586   6.368   7.767  0.6189 -0.5256 -0.5876
 3714TIP3   OH232700   2.989   2.989   0.774 -0.4617 -0.8986  0.7105
 3714TIP3    H132701   3.082   2.984   0.755 -0.6555 -1.3301 -0.1814
 3714TIP3    H232702   2.963   2.898   0.788 -0.5939 -0.7100  1.7684
 3715TIP3   OH232703   2.132   1.390   8.029 -0.1175  0.4725 -0.5362
 3715TIP3    H132704   2.041   1.360   8.025 -0.3010  0.2506  2.7413
 3715TIP3    H232705   2.181   1.323   7.982 -1.2651 -1.5360  0.9875
 3716TIP3   OH232706   2.910   0.072   7.779 -0.2077 -0.9035  0.0931
 3716TIP3    H132707   2.930   0.164   7.767  1.3500 -1.3267 -0.7657
 3716TIP3    H232708   2.815   0.070   7.791 -0.4929  0.6537 -1.4761
 3717TIP3   OH232709   6.605   6.017   1.114 -0.4388  0.3382  0.1728
 3717TIP3    H132710   6.615   6.112   1.119  3.1350  0.0424  3.2918
 3717TIP3    H232711   6.668   5.989   1.048 -1.6196  0.0900 -0.8795
 3718TIP3   OH232712   2.964   3.774   7.812  0.0422  0.0413 -0.1211
 3718TIP3    H132713   3.002   3.823   7.885  0.4612  0.9013 -0.9019
 3718TIP3    H232714   2.879   3.815   7.796 -0.5941 -0.9132  0.6323
 3719TIP3   OH232715   5.873   4.935   1.837  0.1580 -0.5632 -0.2461
 3719TIP3    H132716   5.819   5.014   1.839 -1.0801 -1.3666 -0.7631
 3719TIP3    H232717   5.918   4.939   1.752  1.8424  0.6709  0.6493
 3720TIP3   OH232718   3.972   0.810   1.755  0.3158 -0.0453 -0.5225
 3720TIP3    H132719   3.981   0.738   1.817 -0.5814  1.5550  1.5777
 3720TIP3    H232720   4.062   0.836   1.736  0.6054  0.1156  0.9657
 3721TIP3   OH232721   0.378   1.957   2.304 -0.2878 -0.2498  0.0534
 3721TIP3    H132722   0.458   2.010   2.304 -0.6798  0.3487  0.4016
 3721TIP3    H232723   0.345   1.963   2.393 -1.8396  1.2527 -0.5626
 3722TIP3   OH232724   4.550   6.744   1.394  0.0171  0.4432  0.0040
 3722TIP3    H132725   4.537   6.805   1.321 -2.6098 -0.2917 -0.2701
 3722TIP3    H232726   4.608   6.677   1.359 -1.7252 -0.2535 -1.7367
 3723TIP3   OH232727   3.113   2.235   8.435  0.3300 -0.7831 -0.0974
 3723TIP3    H132728   3.048   2.170   8.460 -0.9852  0.0669 -1.2187
 3723TIP3    H232729   3.180   2.185   8.388 -0.7744 -1.3086 -1.1475
 3724TIP3   OH232730   4.887   6.815   0.441 -0.6133  0.7667  0.4099
 3724TIP3    H132731   4.855   6.902   0.415 -0.3563 -0.1867 -3.8128
 3724TIP3    H232732   4.831   6.754   0.394  2.8289 -1.1232 -1.6590
 3725TIP3   OH232733   5.465   6.255   8.360 -0.2546  0.2120  0.1198
 3725TIP3    H132734   5.526   6.261   8.286  0.9582  1.6654  1.1733
 3725TIP3    H232735   5.427   6.167   8.352  1.9895 -0.7878 -0.5869
 3726TIP3   OH232736   5.998   0.415   1.793  0.7466 -0.0779  0.6398
 3726TIP3    H132737   5.941   0.437   1.720 -1.5194  0.3595  2.4021
 3726TIP3    H232738   6.001   0.319   1.794  0.1010 -0.1040  0.4520
 3727TIP3   OH232739   1.569   3.801   0.727  0.0759  0.0009 -0.8599
 3727TIP3    H132740   1.588   3.709   0.710 -0.9065 -0.5954  1.0102
 3727TIP3    H232741   1.583   3.811   0.821 -1.6271  1.3078 -0.7125
 3728TIP3   OH232742   2.384   2.594   8.412  0.0789 -0.1423  0.6430
 3728TIP3    H132743   2.308   2.641   8.446  1.4079  1.1628  1.9477
 3728TIP3    H232744   2.378   2.603   8.317 -1.0659  0.4722  0.7614
 3729TIP3   OH232745   3.535   5.787   1.829 -0.5874 -0.4733 -0.7318
 3729TIP3    H132746   3.475   5.846   1.874 -1.1848 -0.4196 -1.5585
 3729TIP3    H232747   3.557   5.832   1.747  0.6200 -0.4776 -0.4353
 3730TIP3   OH232748   2.840   0.910   2.564 -0.7556  0.0096 -0.1933
 3730TIP3    H132749   2.786   0.967   2.619 -2.5617  0.5603 -2.3634
 3730TIP3    H232750   2.882   0.969   2.502  0.7876 -0.6476  0.1734
 3731TIP3   OH232751   3.768   1.655   2.872  0.0999 -0.3867 -0.6827
 3731TIP3    H132752   3.675   1.631   2.864  0.0671 -0.4189 -0.2247
 3731TIP3    H232753   3.774   1.702   2.955  0.2261  0.9674 -1.4449
 3732TIP3   OH232754   4.674   0.130   3.135  0.2725 -0.1532  0.2159
 3732TIP3    H132755   4.711   0.186   3.203  0.3588 -0.5148  0.4705
 3732TIP3    H232756   4.580   0.145   3.140  0.3181  0.2008  0.0734
 3733TIP3   OH232757   1.347   0.495   2.017 -0.4862 -0.3018  0.2606
 3733TIP3    H132758   1.271   0.501   1.959 -0.0478 -0.0608 -0.2969
 3733TIP3    H232759   1.312   0.515   2.104 -1.1076 -0.4376  0.0465
 3734TIP3   OH232760   5.740   4.296   2.307 -0.8676 -0.2299  0.3940
 3734TIP3    H132761   5.704   4.277   2.220 -1.6192  0.6365  0.5067
 3734TIP3    H232762   5.671   4.346   2.351  0.8451  2.4004  0.2678
 3735TIP3   OH232763   5.146   4.422   0.256  0.3305 -0.0226  0.1291
 3735TIP3    H132764   5.107   4.500   0.296  0.4871  1.2674 -2.0796
 3735TIP3    H232765   5.070   4.367   0.233  0.0984  0.3333  0.0345
 3736TIP3   OH232766   2.351   0.648   1.460  0.2244 -0.1638 -0.7561
 3736TIP3    H132767   2.401   0.720   1.423 -1.4421  1.9511  0.8421
 3736TIP3    H232768   2.259   0.671   1.445 -0.3943 -1.3857  0.7621
 3737TIP3   OH232769   2.200   6.417   0.459  0.2487 -0.2602  0.8140
 3737TIP3    H132770   2.136   6.348   0.475  0.5468 -1.0565 -1.2074
 3737TIP3    H232771   2.252   6.385   0.385  3.2842  0.1377  2.5710
 3738TIP3   OH232772   5.882   0.663   8.645 -0.0676 -0.4615  0.0153
 3738TIP3    H132773   5.914   0.752   8.660 -1.0783 -0.2715  1.2392
 3738TIP3    H232774   5.959   0.614   8.615  0.5502  0.7695 -0.4538
 3739TIP3   OH232775   1.696   1.523   2.156 -0.2065  0.5397 -0.1082
 3739TIP3    H132776   1.675   1.539   2.063 -0.9319 -2.1991 -0.4950
 3739TIP3    H232777   1.790   1.508   2.156 -0.1786  0.6905 -0.3730
 3740TIP3   OH232778   3.032   6.774   1.461  0.1244  0.1196  0.0339
 3740TIP3    H132779   3.046   6.710   1.531 -0.6179 -2.1368 -1.7373
 3740TIP3    H232780   2.963   6.735   1.408  0.1357  2.1147 -1.5387
 3741TIP3   OH232781   5.561   5.388   2.864 -0.0225 -0.1650 -0.5049
 3741TIP3    H132782   5.553   5.387   2.768  1.3824  0.8208 -0.6672
 3741TIP3    H232783   5.540   5.478   2.888 -2.1309 -0.8102  0.3453
 3742TIP3   OH232784   6.761   0.726   1.100  0.0104 -0.2418  0.0400
 3742TIP3    H132785   6.704   0.792   1.061  1.3623  0.1970 -1.3224
 3742TIP3    H232786   6.753   0.650   1.042 -0.4423 -0.7638  0.7796
 3743TIP3   OH232787   4.352   3.691   8.255 -0.5696 -0.6948 -0.4942
 3743TIP3    H132788   4.353   3.640   8.174 -0.2503 -0.8397 -0.4014
 3743TIP3    H232789   4.278   3.752   8.244 -2.6722 -2.9261  0.5157
 3744TIP3   OH232790   3.385   4.144   1.993 -0.0038  0.0876 -0.0852
 3744TIP3    H132791   3.360   4.185   2.076  0.6262  0.2641  0.0169
 3744TIP3    H232792   3.378   4.050   2.010  0.2240  0.1229  0.1967
 3745TIP3   OH232793   4.506   6.012   1.997  0.2717  0.2967  0.3158
 3745TIP3    H132794   4.507   5.991   1.904  0.2010  1.7683 -0.0379
 3745TIP3    H232795   4.450   5.945   2.036  0.1298 -0.2078 -0.7328
 3746TIP3   OH232796   4.258   5.465   2.158  0.0719 -0.1243  0.4387
 3746TIP3    H132797   4.223   5.396   2.215  1.6074 -0.9215  0.4606
 3746TIP3    H232798   4.292   5.531   2.218  2.7069 -1.4708  0.5814
 3747TIP3   OH232799   3.489   3.479   0.991 -0.1839  0.1648 -0.1127
 3747TIP3    H132800   3.542   3.422   1.047  1.0569 -0.6941 -2.0732
 3747TIP3    H232801   3.522   3.567   1.010 -1.4938  0.2297  2.2711
 3748TIP3   OH232802   1.338   0.034   2.558 -0.0475  0.8016  0.5149
 3748TIP3    H132803   1.280  -0.042   2.554 -3.1553  2.9612  1.3564
 3748TIP3    H232804   1.412   0.010   2.502 -1.8400 -2.0343 -0.8824
 3749TIP3   OH232805   5.283   1.970   8.172  0.2485 -0.5373  0.7178
 3749TIP3    H132806   5.187   1.965   8.166  0.3216 -1.3168 -0.0292
 3749TIP3    H232807   5.313   1.945   8.085  1.0921  1.8267  0.2580
 3750TIP3   OH232808   3.721   4.321   1.850  0.2650 -0.4563  0.0558
 3750TIP3    H132809   3.777   4.371   1.791  0.7769 -0.0789  0.8424
 3750TIP3    H232810   3.776   4.247   1.878 -0.0756 -0.7955 -0.1625
 3751TIP3   OH232811   1.247   0.947   0.100 -0.4990 -0.1066 -0.6020
 3751TIP3    H132812   1.218   0.919   0.187 -2.2069  0.4042 -0.9730
 3751TIP3    H232813   1.172   0.929   0.043  0.3918  0.0852 -1.8774
 3752TIP3   OH232814   2.824   5.627   8.030 -0.1966  0.4746  0.4500
 3752TIP3    H132815   2.838   5.533   8.043  2.0153  1.0044  2.9773
 3752TIP3    H232816   2.845   5.643   7.938 -1.6368 -1.6087 -0.2923
 3753TIP3   OH232817   4.634   2.019   0.566  0.5814 -0.2577 -0.2990
 3753TIP3    H132818   4.590   2.100   0.589  0.2421 -0.9814  1.8290
 3753TIP3    H232819   4.611   2.003   0.474 -1.5375  0.6618  0.0370
 3754TIP3   OH232820   1.185   2.294   8.350  0.2510  0.1529 -0.0160
 3754TIP3    H132821   1.240   2.332   8.419  0.2650 -0.5208  0.3457
 3754TIP3    H232822   1.126   2.366   8.325  0.9270  0.7151 -0.0305
 3755TIP3   OH232823   0.549   5.815   8.294 -0.1900 -0.1510 -0.0802
 3755TIP3    H132824   0.541   5.721   8.279 -0.9788 -0.0114 -0.6521
 3755TIP3    H232825   0.475   5.852   8.246  0.1907  0.7712  0.0331
 3756TIP3   OH232826   2.956   1.485   2.738  0.1724 -0.4874  0.2184
 3756TIP3    H132827   2.984   1.462   2.827 -0.3437 -1.8733  0.0437
 3756TIP3    H232828   2.885   1.424   2.719  0.2167 -0.1438 -1.1290
 3757TIP3   OH232829   3.052   0.393   8.239 -0.3802  0.0165  0.5108
 3757TIP3    H132830   3.106   0.329   8.285  1.8787  1.2504 -0.2683
 3757TIP3    H232831   3.097   0.407   8.156 -2.0048  1.0266 -0.2476
 3758TIP3   OH232832   4.733   1.342   2.267 -0.4494 -0.3788  0.1617
 3758TIP3    H132833   4.689   1.417   2.306 -1.0592 -1.4310  1.5780
 3758TIP3    H232834   4.764   1.374   2.182 -1.4138  1.2163  0.3709
 3759TIP3   OH232835   0.557   0.017   7.705 -0.3408  0.0717  0.4850
 3759TIP3    H132836   0.475   0.031   7.753 -0.2422  0.1143  0.6436
 3759TIP3    H232837   0.602   0.101   7.711 -1.2595  0.7601 -1.5016
 3760TIP3   OH232838   3.805   3.134   1.529  0.4127 -0.0456 -0.0259
 3760TIP3    H132839   3.889   3.179   1.522  0.4503  0.1458  1.4645
 3760TIP3    H232840   3.743   3.201   1.557  0.8566 -1.1585  4.2707
 3761TIP3   OH232841   4.827   3.957   1.342 -0.3854 -0.9254 -0.2148
 3761TIP3    H132842   4.854   4.027   1.402 -1.1096 -0.8550  0.0422
 3761TIP3    H232843   4.855   3.876   1.384  0.2368 -0.8064 -0.3947
 3762TIP3   OH232844   3.919   3.475   1.411  0.7574 -0.1062  0.2797
 3762TIP3    H132845   3.883   3.562   1.391  0.6180 -0.1602  0.2947
 3762TIP3    H232846   3.925   3.432   1.326 -1.2138 -0.8743  0.4626
 3763TIP3   OH232847   4.017   3.853   1.856  0.0866  0.3828 -0.0188
 3763TIP3    H132848   4.041   3.930   1.805  3.3308  1.1492  2.3246
 3763TIP3    H232849   4.056   3.780   1.809  1.4515  0.8574  0.3316
 3764TIP3   OH232850   4.321   3.083   7.932  0.3062  0.4259 -0.3323
 3764TIP3    H132851   4.234   3.107   7.965  0.3779  2.0711 -1.2938
 3764TIP3    H232852   4.307   3.061   7.840  0.9727  1.0590 -0.5877
 3765TIP3   OH232853   5.167   5.756   1.986 -0.4519 -0.0669 -0.5227
 3765TIP3    H132854   5.082   5.800   1.991 -0.3125  0.1942 -0.4776
 3765TIP3    H232855   5.170   5.721   1.897 -2.4576 -3.7791  0.6443
 3766TIP3   OH232856   1.213   2.002   0.846  0.0534 -0.0249 -0.4495
 3766TIP3    H132857   1.193   1.922   0.798  0.8803 -0.4110 -0.1637
 3766TIP3    H232858   1.306   2.018   0.828  0.0685  0.4794  0.0688
 3767TIP3   OH232859   1.766   2.946   3.136 -0.3232  0.8996 -0.7346
 3767TIP3    H132860   1.728   2.985   3.215 -0.4263  3.5598 -1.9851
 3767TIP3    H232861   1.694   2.896   3.097 -0.3438 -0.2166  0.6696
 3768TIP3   OH232862   1.871   0.088   7.199  0.1738  0.2524 -0.0475
 3768TIP3    H132863   1.786   0.106   7.238  0.0738 -1.1111  0.3914
 3768TIP3    H232864   1.853   0.029   7.126  0.6793  0.4516 -0.3434
 3769TIP3   OH232865   2.173   4.513   8.094 -0.3939  0.2228 -0.1986
 3769TIP3    H132866   2.210   4.426   8.110  2.3099  1.1930 -0.6324
 3769TIP3    H232867   2.170   4.554   8.180  0.5088  0.4698 -0.2757
 3770TIP3   OH232868   4.414   1.331   3.389  0.2834 -0.1402 -0.6623
 3770TIP3    H132869   4.383   1.266   3.452 -1.8881  1.8906  0.4830
 3770TIP3    H232870   4.510   1.328   3.397  0.1146 -0.8428  1.8025
 3771TIP3   OH232871   0.410   1.293   1.964 -0.3519 -0.0949  0.4005
 3771TIP3    H132872   0.428   1.377   2.006  0.9375  0.1657 -0.6186
 3771TIP3    H232873   0.492   1.270   1.920 -0.4713 -2.2229  1.1937
 3772TIP3   OH232874   2.991   4.634   3.366 -0.2548  0.6372  0.1436
 3772TIP3    H132875   3.085   4.650   3.361 -0.4874  2.9177  1.7473
 3772TIP3    H232876   2.982   4.565   3.432  0.2314  1.6891  1.3486
 3773TIP3   OH232877   3.030   4.454   0.914  0.6367 -0.1896  0.3296
 3773TIP3    H132878   2.976   4.521   0.955  0.7773  0.7940 -1.0430
 3773TIP3    H232879   2.972   4.379   0.904  0.0614  0.2196  0.5619
 3774TIP3   OH232880   6.546   3.183   1.044  0.5221 -0.1450 -0.3099
 3774TIP3    H132881   6.624   3.215   0.998  0.4156 -1.5624 -1.5571
 3774TIP3    H232882   6.515   3.259   1.094  2.1250  0.7215 -0.5628
 3775TIP3   OH232883   4.618   6.382   0.635 -0.0749 -0.2469  0.0779
 3775TIP3    H132884   4.704   6.341   0.639 -0.6189 -1.4992 -0.6564
 3775TIP3    H232885   4.567   6.339   0.703 -0.3007  0.0842  0.1231
 3776TIP3   OH232886   6.327   0.659   0.339  0.2613  0.2047  0.2474
 3776TIP3    H132887   6.296   0.604   0.411  0.7021  0.6533  0.7970
 3776TIP3    H232888   6.262   0.648   0.270  0.1945 -0.7640  0.4584
 3777TIP3   OH232889   4.020   0.039   7.659 -0.3081  0.4190 -0.2627
 3777TIP3    H132890   4.077   0.015   7.586  2.6265 -1.7132  2.4132
 3777TIP3    H232891   3.938  -0.008   7.642 -0.2629  1.1364 -2.7909
 3778TIP3   OH232892   1.214   1.985   8.406 -0.2936 -0.5254 -0.2874
 3778TIP3    H132893   1.184   1.998   8.496  3.1666  1.1744  0.8082
 3778TIP3    H232894   1.209   1.890   8.393 -0.5973 -0.8636  1.8201
 3779TIP3   OH232895   3.723   0.174   2.751  0.6032  0.0497  0.4932
 3779TIP3    H132896   3.810   0.202   2.724  0.2366  2.1979  1.3088
 3779TIP3    H232897   3.691   0.119   2.679  2.2681 -0.0533 -0.2037
 3780TIP3   OH232898   2.140   4.251   1.039 -0.2928 -0.2535 -0.1815
 3780TIP3    H132899   2.180   4.165   1.052 -1.0805 -0.8383 -1.4988
 3780TIP3    H232900   2.212   4.313   1.053  0.7067 -1.2110 -0.9335
 3781TIP3   OH232901   0.893   2.981   3.069  0.3864  0.2617 -0.5902
 3781TIP3    H132902   0.836   3.020   3.136 -0.0538  1.0664 -1.4131
 3781TIP3    H232903   0.835   2.922   3.020  0.5305  0.2474 -0.7436
 3782TIP3   OH232904   6.656   0.972   0.251  0.2094  0.1009 -0.0696
 3782TIP3    H132905   6.702   1.055   0.252 -1.0274  0.8613 -1.6838
 3782TIP3    H232906   6.649   0.949   0.158 -1.9339 -0.3549  0.1421
 3783TIP3   OH232907   2.702   3.766   7.755 -0.0788 -0.7054  0.1673
 3783TIP3    H132908   2.607   3.763   7.747 -0.2538  0.8418  1.3548
 3783TIP3    H232909   2.726   3.681   7.791 -1.4968  0.3304  3.9566
 3784TIP3   OH232910   1.246   4.718   3.070 -0.0046 -0.9112  0.3225
 3784TIP3    H132911   1.218   4.681   2.986 -0.8544 -1.3417  0.7884
 3784TIP3    H232912   1.218   4.655   3.136  0.2455 -0.3605  0.9741
 3785TIP3   OH232913   6.788   3.318   0.444 -0.3760  0.6845  0.4120
 3785TIP3    H132914   6.787   3.378   0.519 -0.0109 -1.1878  2.0187
 3785TIP3    H232915   6.767   3.233   0.482 -1.3512 -0.1561 -1.8464
 3786TIP3   OH232916   0.603   4.670   8.554  0.0582  0.0172  0.0582
 3786TIP3    H132917   0.664   4.724   8.606 -0.5933 -0.4143  1.3034
 3786TIP3    H232918   0.611   4.582   8.591  0.4625 -0.5715 -1.3865
 3787TIP3   OH232919   4.146   1.093   2.205 -0.6770 -0.0915 -0.0389
 3787TIP3    H132920   4.125   1.179   2.170  0.7792  0.3728  0.1922
 3787TIP3    H232921   4.074   1.073   2.266 -1.2757  0.7225 -0.4678
 3788TIP3   OH232922   6.485   4.272   8.117  0.3556 -0.5356  0.1366
 3788TIP3    H132923   6.531   4.257   8.199  0.1678  1.4455  0.6504
 3788TIP3    H232924   6.398   4.235   8.132  1.1702 -2.7651 -0.2441
 3789TIP3   OH232925   0.149   5.991   0.766  0.1798  0.2168  0.0773
 3789TIP3    H132926   0.206   6.033   0.702  0.6063 -0.3424  0.0870
 3789TIP3    H232927   0.178   6.027   0.850  0.6230 -0.1803  0.0970
 3790TIP3   OH232928   1.576   4.578   7.348 -0.5391 -0.3442  0.4832
 3790TIP3    H132929   1.642   4.621   7.294 -0.1920  0.5060  1.5250
 3790TIP3    H232930   1.553   4.498   7.301  1.8563 -1.1086  0.4667
 3791TIP3   OH232931   6.219   2.180   2.912 -0.4677 -0.2339  0.5305
 3791TIP3    H132932   6.189   2.110   2.854 -1.0242 -1.2163  1.9373
 3791TIP3    H232933   6.245   2.251   2.854 -2.0872 -0.7414 -0.8845
 3792TIP3   OH232934   3.357   0.132   8.119  0.0147 -0.4969  0.4918
 3792TIP3    H132935   3.337   0.206   8.062 -0.7630 -0.7214  0.4560
 3792TIP3    H232936   3.419   0.079   8.069 -1.8529 -1.5277 -0.8656
 3793TIP3   OH232937   2.852   1.889   1.871  0.2838 -0.1261  0.3075
 3793TIP3    H132938   2.832   1.905   1.963 -1.5082 -1.7725  0.2616
 3793TIP3    H232939   2.855   1.977   1.832 -1.0639  0.5161  1.5452
 3794TIP3   OH232940   2.299   5.375   0.938 -0.3134  0.0366  0.1842
 3794TIP3    H132941   2.206   5.376   0.959 -1.0819  0.7006 -2.8170
 3794TIP3    H232942   2.343   5.390   1.022 -2.9221  0.7891  1.5084
 3795TIP3   OH232943   3.344   1.013   1.021  0.3192  0.1374  0.4727
 3795TIP3    H132944   3.391   0.966   1.090 -0.7615  0.9303  1.8140
 3795TIP3    H232945   3.405   1.081   0.992  0.0479  1.1941  2.2335
 3796TIP3   OH232946   2.002   0.908   0.844  0.6908  0.2001  0.3020
 3796TIP3    H132947   2.013   0.814   0.827  1.5883  0.2727  0.4324
 3796TIP3    H232948   2.039   0.921   0.931  0.0246  0.5792  0.5356
 3797TIP3   OH232949   0.942   2.153   8.257  0.0841 -0.0276 -0.4217
 3797TIP3    H132950   0.918   2.060   8.265  2.5321 -0.6926  0.1846
 3797TIP3    H232951   0.895   2.196   8.328 -1.1782 -0.7706 -0.7724
 3798TIP3   OH232952   0.185   1.535   7.096 -0.0761  0.5563  0.7044
 3798TIP3    H132953   0.216   1.454   7.136 -2.2898  0.7108  2.9604
 3798TIP3    H232954   0.095   1.515   7.069 -0.2843  1.9689  0.3057
 3799TIP3   OH232955   3.347   4.456   0.361 -0.2898 -0.2884  0.0356
 3799TIP3    H132956   3.292   4.528   0.393 -0.6402  0.0641 -1.2945
 3799TIP3    H232957   3.287   4.384   0.346 -0.1613 -0.3747 -0.0679
 3800TIP3   OH232958   5.001   5.864   2.795  0.3098 -0.0663 -0.4947
 3800TIP3    H132959   4.914   5.871   2.833  0.8831 -0.3523  0.9274
 3800TIP3    H232960   4.994   5.791   2.733  0.4225 -2.7699  2.3935
 3801TIP3   OH232961   2.373   6.564   1.907  0.1250 -0.5274  0.4734
 3801TIP3    H132962   2.305   6.525   1.853  0.7698 -0.1912 -0.6127
 3801TIP3    H232963   2.340   6.556   1.997 -0.6006 -1.8203  0.1175
 3802TIP3   OH232964   0.220   1.629   2.782 -0.0706  0.7612 -0.3307
 3802TIP3    H132965   0.273   1.699   2.820  2.5914  0.1297 -2.5566
 3802TIP3    H232966   0.220   1.560   2.849  1.2594  1.1072  0.0518
 3803TIP3   OH232967   4.251   0.450   1.970 -0.6985  0.1065 -0.3493
 3803TIP3    H132968   4.320   0.515   1.959 -0.6322  0.1758  0.4221
 3803TIP3    H232969   4.223   0.429   1.881 -1.0297  1.5244 -0.6129
 3804TIP3   OH232970   6.730   1.971   8.576 -0.2755  0.2699 -0.2318
 3804TIP3    H132971   6.812   1.933   8.543 -0.1502  1.9332 -1.9888
 3804TIP3    H232972   6.662   1.935   8.519 -0.4141  0.9803 -0.5223
 3805TIP3   OH232973   1.588   5.369   2.703 -0.1721  0.3991  0.1568
 3805TIP3    H132974   1.656   5.319   2.746 -1.2295  0.4557  1.9858
 3805TIP3    H232975   1.617   5.375   2.612  2.1651  0.2921  0.8181
 3806TIP3   OH232976   2.806   4.404   2.181  0.2996  0.3622 -0.1228
 3806TIP3    H132977   2.771   4.411   2.092  0.9861  0.5877 -0.3776
 3806TIP3    H232978   2.793   4.491   2.219 -2.2155 -0.3458  0.8566
 3807TIP3   OH232979   5.668   2.685   3.033 -0.4797 -0.0561  0.1325
 3807TIP3    H132980   5.709   2.719   3.113 -0.4885  0.1108  0.0679
 3807TIP3    H232981   5.741   2.659   2.978 -0.2653  2.7154 -1.0980
 3808TIP3   OH232982   0.826   2.296   8.034  0.2847  0.6781  0.5752
 3808TIP3    H132983   0.762   2.367   8.032 -1.0174 -0.4601 -0.1436
 3808TIP3    H232984   0.823   2.263   8.123 -1.6213 -0.5946  0.1158
 3809TIP3   OH232985   4.301   3.093   1.903 -0.2824  0.3903 -0.0555
 3809TIP3    H132986   4.287   3.104   1.809 -1.5045 -0.5519 -0.0138
 3809TIP3    H232987   4.214   3.107   1.941  0.2253  0.8718  0.9540
 3810TIP3   OH232988   4.080   4.964   3.198  0.4794  0.0600 -0.0402
 3810TIP3    H132989   4.071   5.053   3.164 -1.8285  0.2019  0.7705
 3810TIP3    H232990   4.097   4.910   3.121  2.8071  1.2395 -0.4490
 3811TIP3   OH232991   6.829   3.038   2.680 -0.1733  0.0668  0.1777
 3811TIP3    H132992   6.900   3.098   2.702  0.9483 -0.6138 -1.4365
 3811TIP3    H232993   6.859   2.953   2.711 -0.2456 -0.2327 -0.5516
 3812TIP3   OH232994   5.788   1.531   7.646 -0.2440 -0.4988 -0.4848
 3812TIP3    H132995   5.811   1.622   7.627 -0.5580 -0.4296 -0.5385
 3812TIP3    H232996   5.800   1.486   7.562 -2.6960  0.0189 -1.1800
 3813TIP3   OH232997   0.499   4.431   7.315 -0.3777 -0.0157 -0.2944
 3813TIP3    H132998   0.581   4.473   7.288  0.0888  0.3110  1.4981
 3813TIP3    H232999   0.519   4.338   7.318 -0.1072  0.0480 -0.0346
 3814TIP3   OH233000   3.383   6.040   0.566  0.0727 -0.2892  0.1731
 3814TIP3    H133001   3.428   6.114   0.607 -0.1238  0.0180 -0.1652
 3814TIP3    H233002   3.299   6.075   0.539 -0.1435 -0.7162  0.2804
 3815TIP3   OH233003   4.635   1.653   1.972 -0.2077  0.4891  0.2587
 3815TIP3    H133004   4.588   1.603   1.905 -0.8310  0.4724  0.6952
 3815TIP3    H233005   4.716   1.605   1.986  0.1359  0.7491 -0.8155
 3816TIP3   OH233006   4.041   2.875   1.776  0.3385  0.9849  0.4947
 3816TIP3    H133007   4.006   2.845   1.860 -1.2780  0.1325 -0.4358
 3816TIP3    H233008   4.082   2.960   1.795 -0.6296  1.1388  2.0001
 3817TIP3   OH233009   5.414   5.879   1.770 -0.4876 -0.5199 -0.0440
 3817TIP3    H133010   5.332   5.923   1.747 -0.4394  0.0252  0.8204
 3817TIP3    H233011   5.478   5.915   1.709 -0.5319  0.3254  0.3941
 3818TIP3   OH233012   0.368   2.835   1.009 -0.1259  0.0674  0.0640
 3818TIP3    H133013   0.304   2.881   1.064 -0.5471 -0.4679  0.0291
 3818TIP3    H233014   0.388   2.755   1.057 -2.6277 -1.8257 -1.7824
 3819TIP3   OH233015   3.128   0.722   0.223 -0.1025 -0.3205 -0.0831
 3819TIP3    H133016   3.119   0.758   0.135  0.1087  0.6681  0.2886
 3819TIP3    H233017   3.057   0.658   0.230 -0.8566  0.4392 -0.5656
 3820TIP3   OH233018   4.228   1.847   8.560 -0.2056 -0.0715 -0.4654
 3820TIP3    H133019   4.198   1.937   8.549  1.7366  0.7997  0.8695
 3820TIP3    H233020   4.153   1.802   8.599 -0.6851  1.3575  0.3412
 3821TIP3   OH233021   4.369   5.525   0.641 -0.0589 -0.3979 -0.5234
 3821TIP3    H133022   4.361   5.565   0.554 -0.6252 -0.8752 -0.6977
 3821TIP3    H233023   4.321   5.442   0.634  1.5587 -1.3963 -0.3527
 3822TIP3   OH233024   4.102   1.383   2.090  0.1385 -0.1357 -0.3717
 3822TIP3    H133025   4.175   1.399   2.031 -0.0393  2.1341 -0.0693
 3822TIP3    H233026   4.025   1.417   2.044  0.0009  1.6745  1.0856
 3823TIP3   OH233027   5.162   3.710   0.297  0.2556 -0.3752  0.2572
 3823TIP3    H133028   5.189   3.792   0.340 -0.5596  0.4326 -0.7021
 3823TIP3    H233029   5.240   3.681   0.250 -0.0573  1.1360 -1.2876
 3824TIP3   OH233030   6.551   4.524   2.169 -0.0964  0.0249 -0.1303
 3824TIP3    H133031   6.488   4.573   2.221  1.8720  0.8823  1.6133
 3824TIP3    H233032   6.589   4.588   2.110 -1.3168 -0.6445 -1.7026
 3825TIP3   OH233033   1.032   5.810   1.918  0.7969 -0.1040 -0.8023
 3825TIP3    H133034   1.109   5.826   1.973  0.9187  0.7722 -1.2219
 3825TIP3    H233035   0.975   5.886   1.932  0.3759 -0.3509 -1.1252
 3826TIP3   OH233036   0.203   1.611   1.554 -0.2818 -0.0080 -0.4807
 3826TIP3    H133037   0.228   1.581   1.641 -0.1318 -0.3852 -0.6517
 3826TIP3    H233038   0.277   1.664   1.524 -0.4948  0.4393 -0.2281
 3827TIP3   OH233039   6.540   5.757   1.679  0.2389  0.5421  0.4807
 3827TIP3    H133040   6.495   5.713   1.752  0.9099 -1.7317 -0.3796
 3827TIP3    H233041   6.490   5.837   1.664 -0.6884  0.4188  2.5644
 3828TIP3   OH233042   6.656   6.785   0.610 -0.1028  0.0594 -0.6109
 3828TIP3    H133043   6.643   6.757   0.520 -0.2131  0.0926 -0.6064
 3828TIP3    H233044   6.748   6.767   0.629  0.4428  1.8702 -1.3720
 3829TIP3   OH233045   1.733   2.306   0.940 -0.0838  0.1978 -0.1966
 3829TIP3    H133046   1.777   2.358   1.008 -3.6826  0.1793  2.4595
 3829TIP3    H233047   1.648   2.349   0.930  0.3497  0.3928 -5.1569
 3830TIP3   OH233048   2.541   4.759   0.497 -0.2797 -0.1653 -0.7077
 3830TIP3    H133049   2.629   4.749   0.460  0.4628 -2.2572  1.3426
 3830TIP3    H233050   2.544   4.842   0.544  0.6453 -0.2513 -0.5888
 3831TIP3   OH233051   4.137   6.199   0.339  0.1940 -0.2454 -0.0124
 3831TIP3    H133052   4.161   6.267   0.276 -0.4035  0.5626  0.5986
 3831TIP3    H233053   4.204   6.204   0.407  0.9090 -1.2007 -0.6223
 3832TIP3   OH233054   0.689   1.594   0.881  0.1571 -0.5204  0.2540
 3832TIP3    H133055   0.780   1.623   0.882  0.3753 -0.9673 -1.7533
 3832TIP3    H233056   0.693   1.501   0.862 -0.6715 -0.0452 -3.0371
 3833TIP3   OH233057   4.747   1.958   1.952 -0.2347 -0.2512  0.6834
 3833TIP3    H133058   4.776   1.898   1.883 -2.7254 -0.5566 -0.1914
 3833TIP3    H233059   4.684   2.016   1.909  0.2153  1.3635  2.1083
 3834TIP3   OH233060   6.786   6.824   1.310 -0.4851 -0.7656  0.1576
 3834TIP3    H133061   6.792   6.807   1.216 -0.5177 -0.0945  0.0305
 3834TIP3    H233062   6.857   6.886   1.327 -1.1251 -0.0775  0.3778
 3835TIP3   OH233063   0.603   0.439   8.066 -0.1920  0.2117  0.0612
 3835TIP3    H133064   0.694   0.430   8.095 -0.4681 -2.9575  0.3402
 3835TIP3    H233065   0.608   0.447   7.971  0.3956  1.4317  0.1820
 3836TIP3   OH233066   6.480   6.481   0.192 -0.1728  0.5398 -0.0059
 3836TIP3    H133067   6.451   6.551   0.133 -0.8443 -1.7550 -2.6195
 3836TIP3    H233068   6.423   6.407   0.171  2.5223 -1.7880  0.2548
 3837TIP3   OH233069   0.810   1.881   2.433  0.3930 -0.1361 -0.2678
 3837TIP3    H133070   0.900   1.849   2.439  0.6700  0.4043 -1.2968
 3837TIP3    H233071   0.802   1.911   2.342 -0.5690  0.5845  0.0520
 3838TIP3   OH233072   1.904   5.318   8.475  0.6823 -0.3021  0.1053
 3838TIP3    H133073   1.821   5.314   8.427  0.4581 -0.0277  0.4610
 3838TIP3    H233074   1.947   5.396   8.442  1.4347 -1.1799 -1.0728
 3839TIP3   OH233075   5.820   5.024   0.831  0.0232 -0.2303  0.4839
 3839TIP3    H133076   5.746   4.986   0.783  0.0844 -1.4045  1.2702
 3839TIP3    H233077   5.875   5.063   0.764  0.9344 -3.2118 -0.6659
 3840TIP3   OH233078   0.969   4.179   8.514 -0.2831 -0.1940  0.0060
 3840TIP3    H133079   1.024   4.104   8.537  0.4262  0.2439 -0.2246
 3840TIP3    H233080   0.895   4.173   8.574  1.0643  0.4094  1.8139
 3841TIP3   OH233081   1.861   2.651   8.425 -0.4395 -0.1644 -0.4833
 3841TIP3    H133082   1.940   2.704   8.422 -1.6729  1.7551 -0.9428
 3841TIP3    H233083   1.891   2.562   8.408  1.5661  0.5611 -1.0244
 3842TIP3   OH233084   0.141   3.020   2.439 -0.7867 -0.4547 -0.2646
 3842TIP3    H133085   0.140   3.085   2.510 -0.5972  0.3182 -0.9552
 3842TIP3    H233086   0.067   3.044   2.383  0.5008  0.4873 -1.6560
 3843TIP3   OH233087   6.363   5.445   1.523 -0.3489 -0.5141 -0.3164
 3843TIP3    H133088   6.293   5.380   1.535  0.1661 -0.7805  1.6231
 3843TIP3    H233089   6.402   5.453   1.610  1.5114  0.2327 -1.1875
 3844TIP3   OH233090   0.633   0.749   3.112 -0.3962 -0.5049 -1.0795
 3844TIP3    H133091   0.645   0.742   3.017 -1.6632  0.1329 -1.3069
 3844TIP3    H233092   0.567   0.817   3.123  1.5700  1.3031  0.3816
 3845TIP3   OH233093   0.739   0.207   2.721  0.7932 -0.2440  0.2187
 3845TIP3    H133094   0.722   0.294   2.756 -0.0255  0.3582 -1.5716
 3845TIP3    H233095   0.770   0.157   2.797  0.2502  1.2845  1.5186
 3846TIP3   OH233096   3.606   2.795   2.691 -0.0351 -0.1417  0.1936
 3846TIP3    H133097   3.591   2.873   2.744 -2.6659 -0.2759 -0.1817
 3846TIP3    H233098   3.605   2.722   2.753  0.1998 -0.0406  0.3138
 3847TIP3   OH233099   4.766   0.542   2.534 -0.3759 -0.1238  1.0546
 3847TIP3    H133100   4.696   0.562   2.596 -1.1656  0.3014  0.0616
 3847TIP3    H233101   4.827   0.615   2.543 -0.8155  0.2728  0.8877
 3848TIP3   OH233102   5.949   2.090   3.811 -0.5157  0.0918 -0.1889
 3848TIP3    H133103   6.016   2.139   3.858  1.6857 -1.3710 -1.6270
 3848TIP3    H233104   5.996   2.047   3.740 -2.6329 -2.5171 -0.1768
 3849TIP3   OH233105   3.285   2.710   2.664  0.3048  0.0310 -0.2734
 3849TIP3    H133106   3.378   2.697   2.682  0.4398 -0.0052 -0.9736
 3849TIP3    H233107   3.275   2.689   2.571 -0.1844  1.1669 -0.4987
 3850TIP3   OH233108   6.131   1.728   3.314  0.1059 -0.1015  0.4104
 3850TIP3    H133109   6.184   1.674   3.255 -0.2571 -0.5964  0.5378
 3850TIP3    H233110   6.044   1.689   3.311 -0.3809  0.9848 -0.1544
 3851TIP3   OH233111   1.543   3.113   8.222 -0.4678  0.2598  0.3132
 3851TIP3    H133112   1.508   3.052   8.286 -1.1287 -0.4571 -0.7061
 3851TIP3    H233113   1.610   3.063   8.174  1.2767  1.2966  1.5414
 3852TIP3   OH233114   4.212   5.254   1.861  0.1062  0.4327  0.3377
 3852TIP3    H133115   4.207   5.350   1.867 -1.7364  0.4196 -0.3115
 3852TIP3    H233116   4.297   5.237   1.820 -0.5311  1.9478 -1.7911
 3853TIP3   OH233117   2.877   5.678   0.739  0.9895  0.2227 -0.0063
 3853TIP3    H133118   2.915   5.760   0.768  1.2640 -0.4025  1.5003
 3853TIP3    H233119   2.945   5.637   0.685  1.4534  0.2695  0.5420
 3854TIP3   OH233120   3.174   6.575   0.159 -0.3789 -0.5567  0.2113
 3854TIP3    H133121   3.110   6.517   0.119  0.2905 -0.6107 -0.8186
 3854TIP3    H233122   3.158   6.661   0.119  0.1221 -0.5516  0.0144
 3855TIP3   OH233123   6.551   1.339   8.270 -0.0209 -0.4698 -0.7911
 3855TIP3    H133124   6.544   1.243   8.270 -1.8824 -0.3629 -0.4087
 3855TIP3    H233125   6.498   1.367   8.195 -0.4229  0.2948 -0.2347
 3856TIP3   OH233126   5.366   2.002   0.324  0.2090  0.2789  0.1799
 3856TIP3    H133127   5.396   1.953   0.400  0.1206 -0.6232 -0.3540
 3856TIP3    H233128   5.420   2.081   0.323  0.3664  0.1901  1.0398
 3857TIP3   OH233129   6.256   5.414   8.384  0.2598 -0.4192 -0.3223
 3857TIP3    H133130   6.286   5.358   8.312  0.3291 -0.5611 -0.1816
 3857TIP3    H233131   6.208   5.355   8.442  0.9202 -0.4714  0.1783
 3858TIP3   OH233132   5.260   2.494   8.558 -0.2917 -0.2560  0.3507
 3858TIP3    H133133   5.251   2.436   8.483 -3.0859 -1.8555  1.7523
 3858TIP3    H233134   5.183   2.550   8.554 -0.6057 -0.5083  2.0913
 3859TIP3   OH233135   2.740   4.967   8.139  0.1616  0.3207 -0.2756
 3859TIP3    H133136   2.660   4.917   8.122 -0.5460  1.6053 -0.8436
 3859TIP3    H233137   2.725   5.052   8.098  0.5949  1.6938  2.2063
 3860TIP3   OH233138   6.074   5.560   1.733  0.0760  0.1633  0.5586
 3860TIP3    H133139   6.120   5.587   1.812  1.1805 -0.1586  0.0448
 3860TIP3    H233140   6.081   5.465   1.732  0.0643  0.1642  0.0808
 3861TIP3   OH233141   1.271   6.643   8.246 -0.2441 -0.1462  0.1485
 3861TIP3    H133142   1.217   6.643   8.325 -0.2982 -1.1714  0.1171
 3861TIP3    H233143   1.210   6.658   8.174 -0.7290 -2.5033 -0.0130
 3862TIP3   OH233144   1.635   0.075   7.317 -0.5628  0.0919  0.1891
 3862TIP3    H133145   1.543   0.086   7.295 -0.9685 -1.4527  0.9570
 3862TIP3    H233146   1.650   0.136   7.389 -0.6457  1.2123 -0.7127
 3863TIP3   OH233147   2.090   2.842   0.151 -0.6379 -0.2224  0.0962
 3863TIP3    H133148   2.114   2.769   0.209  0.0305  0.7609  1.0827
 3863TIP3    H233149   2.000   2.864   0.177 -0.5522 -0.1696  0.3474
 3864TIP3   OH233150   3.399   1.823   8.679 -0.4471  0.2331 -0.2219
 3864TIP3    H133151   3.390   1.778   8.763 -0.5324  0.1216 -0.2898
 3864TIP3    H233152   3.362   1.910   8.694  2.1715  1.2939  0.6925
 3865TIP3   OH233153   3.240   1.618   3.569 -0.1567  0.0452 -0.3300
 3865TIP3    H133154   3.296   1.671   3.512 -1.3267  1.8410  0.1078
 3865TIP3    H233155   3.267   1.642   3.657 -1.1022  0.3796 -0.1229
 3866TIP3   OH233156   3.882   5.312   1.342 -0.0414  0.4272  0.2631
 3866TIP3    H133157   3.958   5.320   1.285  2.2172 -0.3516  2.9396
 3866TIP3    H233158   3.848   5.224   1.325  0.2915  0.3920 -0.2382
 3867TIP3   OH233159   4.693   0.347   2.845 -0.4441  0.1419  0.2785
 3867TIP3    H133160   4.616   0.336   2.789 -0.7216  1.0849  0.4604
 3867TIP3    H233161   4.674   0.425   2.898  1.5628  1.7500 -1.2152
 3868TIP3   OH233162   1.289   5.435   8.075 -0.7873  0.1245  0.3277
 3868TIP3    H133163   1.265   5.343   8.093 -0.9510 -0.2579 -1.6166
 3868TIP3    H233164   1.384   5.437   8.082 -0.3793 -1.1262 -3.1015
 3869TIP3   OH233165   1.802   5.985   1.013  0.7312 -0.3441  0.4920
 3869TIP3    H133166   1.794   6.052   0.944  0.5992 -0.8684 -0.0125
 3869TIP3    H233167   1.794   6.033   1.095  2.2956  0.5112  0.1950
 3870TIP3   OH233168   6.057   6.663   1.891 -0.0780  0.1613 -0.2603
 3870TIP3    H133169   5.988   6.598   1.877  0.3836 -0.4790  0.3668
 3870TIP3    H233170   6.125   6.642   1.827  0.9244 -1.2094  1.1749
 3871TIP3   OH233171   1.144   5.201   0.331  0.0804 -0.9553 -0.0894
 3871TIP3    H133172   1.223   5.150   0.315  0.1232 -1.1438  0.6744
 3871TIP3    H233173   1.116   5.231   0.245  1.3210 -0.3753 -0.3034
 3872TIP3   OH233174   6.453   6.831   3.116 -0.0369  0.7549 -0.4034
 3872TIP3    H133175   6.525   6.828   3.179  0.9472 -0.7580 -1.5434
 3872TIP3    H233176   6.377   6.798   3.164  0.8450 -1.0232 -0.1657
 3873TIP3   OH233177   3.412   2.855   2.135  0.6579 -0.1640  0.0194
 3873TIP3    H133178   3.335   2.904   2.108  0.8000  0.2523  0.3610
 3873TIP3    H233179   3.440   2.808   2.056  0.5073  0.2864 -0.2993
 3874TIP3   OH233180   0.078   4.492   1.857  0.2082 -0.2001 -0.0840
 3874TIP3    H133181   0.149   4.430   1.843  0.2455 -0.0079 -0.8180
 3874TIP3    H233182   0.013   4.444   1.909  0.2116 -0.8750 -0.6825
 3875TIP3   OH233183   5.505   2.845   7.838 -0.2421 -0.2637  0.2399
 3875TIP3    H133184   5.467   2.808   7.758 -1.6850  0.9982  0.2842
 3875TIP3    H233185   5.598   2.823   7.833 -0.1562  0.3090 -2.1181
 3876TIP3   OH233186   4.871   6.082   7.231  0.4327  0.4441  0.2068
 3876TIP3    H133187   4.830   6.013   7.178  0.4401 -0.0664  0.8594
 3876TIP3    H233188   4.807   6.101   7.299  1.5993 -0.9843  1.7809
 3877TIP3   OH233189   1.972   1.761   0.703 -0.1501 -0.4078 -0.1391
 3877TIP3    H133190   2.057   1.764   0.746  0.8624 -0.3588 -2.0118
 3877TIP3    H233191   1.969   1.841   0.651 -0.9831 -0.8058 -0.7302
 3878TIP3   OH233192   1.660   6.854   0.460 -0.2362  0.2345  0.3746
 3878TIP3    H133193   1.637   6.930   0.513  0.9432  1.0377 -0.2247
 3878TIP3    H233194   1.674   6.889   0.372  0.6470 -0.6133  0.1589
 3879TIP3   OH233195   1.957   6.524   8.642 -0.6285  0.0434  0.5576
 3879TIP3    H133196   2.016   6.575   8.698 -1.2456 -1.3106  2.5329
 3879TIP3    H233197   1.930   6.585   8.574  0.8954  1.4905  1.1739
 3880TIP3   OH233198   1.122   6.740   0.103 -0.6020 -0.0771 -0.4713
 3880TIP3    H133199   1.145   6.801   0.033 -0.1128 -0.2371 -0.4492
 3880TIP3    H233200   1.040   6.774   0.139 -0.7746  0.0902 -1.0217
 3881TIP3   OH233201   3.583   6.366   2.414 -0.4837 -0.5297 -0.2543
 3881TIP3    H133202   3.567   6.441   2.471 -0.3612 -0.0475 -0.8388
 3881TIP3    H233203   3.522   6.299   2.444 -1.7858  0.3765 -0.7976
 3882TIP3   OH233204   0.206   5.574   1.897 -0.0261 -0.5204 -0.7210
 3882TIP3    H133205   0.161   5.491   1.879 -1.5655 -0.4357  2.0753
 3882TIP3    H233206   0.296   5.550   1.918  0.1070 -1.2152 -2.0310
 3883TIP3   OH233207   2.662   2.794   7.545 -0.5154  0.1819 -0.3700
 3883TIP3    H133208   2.617   2.878   7.540 -0.8905 -0.0863 -1.9151
 3883TIP3    H233209   2.602   2.732   7.504  0.2415 -0.6276 -0.2797
 3884TIP3   OH233210   4.260   4.578   2.725 -0.3979  0.2961  0.3344
 3884TIP3    H133211   4.267   4.661   2.772 -1.7458  0.3469  0.4671
 3884TIP3    H233212   4.184   4.588   2.668  1.6502  0.5931 -2.6227
 3885TIP3   OH233213   2.838   5.007   2.123 -0.3891 -0.0079 -0.3122
 3885TIP3    H133214   2.888   5.053   2.055 -3.0221 -0.3937 -2.7144
 3885TIP3    H233215   2.843   4.915   2.098 -1.3342 -0.1610  0.0097
 3886TIP3   OH233216   5.026   0.451   1.783 -0.2784  0.1255  0.0391
 3886TIP3    H133217   4.960   0.503   1.738 -0.5761  0.3586  0.7261
 3886TIP3    H233218   5.085   0.422   1.714 -1.9651 -1.4014 -0.8614
 3887TIP3   OH233219   2.656   2.242   7.351 -0.2038  0.0033 -0.2961
 3887TIP3    H133220   2.599   2.265   7.424 -1.0530  0.5801 -1.1051
 3887TIP3    H233221   2.682   2.152   7.367 -2.9816 -0.9983 -0.8868
 3888TIP3   OH233222   0.961   6.108   2.539  0.7790 -0.2761 -0.3651
 3888TIP3    H133223   0.973   6.203   2.547 -0.0622 -0.1392 -0.6325
 3888TIP3    H233224   0.960   6.077   2.629  2.3023 -0.2119 -0.2974
 3889TIP3   OH233225   6.746   5.673   2.487 -0.4449 -0.0719 -0.2884
 3889TIP3    H133226   6.706   5.624   2.559  0.2043 -0.5490 -0.2480
 3889TIP3    H233227   6.833   5.635   2.477  0.1323  1.1767 -0.1464
 3890TIP3   OH233228   3.809   2.511   3.639 -0.0245 -0.7385  0.6676
 3890TIP3    H133229   3.887   2.548   3.598 -0.6999  2.1757  1.8049
 3890TIP3    H233230   3.826   2.417   3.640  0.9450 -0.8960 -4.2197
 3891TIP3   OH233231   6.085   1.475   2.718  0.0856 -0.0283  0.0565
 3891TIP3    H133232   6.061   1.561   2.753 -0.6177 -0.4126  0.5224
 3891TIP3    H233233   6.172   1.489   2.680 -0.2733  1.0378 -0.4254
 3892TIP3   OH233234   3.517   2.758   3.084 -0.8051  0.3102 -0.1122
 3892TIP3    H133235   3.452   2.820   3.053 -2.0822 -1.2631 -0.7014
 3892TIP3    H233236   3.488   2.735   3.172 -0.5565  0.2450 -0.0460
 3893TIP3   OH233237   3.177   6.828   2.006 -0.6359  0.0065  0.5468
 3893TIP3    H133238   3.096   6.839   2.055 -0.7298  0.7838  0.2287
 3893TIP3    H233239   3.171   6.892   1.935 -0.2177 -0.6679 -0.1014
 3894TIP3   OH233240   2.115   0.199   1.523 -0.5145 -0.5812 -0.3466
 3894TIP3    H133241   2.043   0.230   1.579  0.7725  0.3937  0.8610
 3894TIP3    H233242   2.145   0.278   1.478  1.3116 -0.4252  1.0035
 3895TIP3   OH233243   1.614   1.538   1.067 -0.2145  0.1866 -0.0814
 3895TIP3    H133244   1.545   1.473   1.081  0.6572 -0.2442  2.7735
 3895TIP3    H233245   1.575   1.621   1.093 -0.9456  0.7292 -2.6100
 3896TIP3   OH233246   2.012   6.023   7.779 -0.6833  0.2651  0.1241
 3896TIP3    H133247   2.054   6.085   7.719  0.1732  1.6765  2.0621
 3896TIP3    H233248   1.919   6.048   7.778 -0.9042 -0.5019 -1.4440
 3897TIP3   OH233249   0.174   6.636   8.624  0.0824  0.0587  0.5073
 3897TIP3    H133250   0.247   6.603   8.573  0.0601  2.1229 -0.9983
 3897TIP3    H233251   0.200   6.726   8.647 -1.0974  0.1104  1.7603
 3898TIP3   OH233252   1.387   3.308   1.165 -0.0295 -0.3737 -0.2945
 3898TIP3    H133253   1.464   3.326   1.111 -0.5686  2.6091 -0.2462
 3898TIP3    H233254   1.422   3.276   1.247  1.1297  0.0909 -0.5844
 3899TIP3   OH233255   1.558   6.851   2.405 -0.1034  0.1702 -0.2589
 3899TIP3    H133256   1.648   6.839   2.376 -0.0879 -1.3918  0.3568
 3899TIP3    H233257   1.506   6.801   2.342 -0.5519  1.0002 -0.5659
 3900TIP3   OH233258   5.981   6.570   0.056  0.1828 -0.2838  0.0444
 3900TIP3    H133259   5.914   6.527   0.109  0.5821 -1.1113 -0.1011
 3900TIP3    H233260   5.952   6.559  -0.034 -0.4617  1.0656  0.0775
 3901TIP3   OH233261   5.739   0.898   7.632 -0.2492  0.3451  0.2763
 3901TIP3    H133262   5.656   0.851   7.625 -0.5171  0.7630  0.5326
 3901TIP3    H233263   5.730   0.950   7.713  0.9010 -0.8447  1.2155
 3902TIP3   OH233264   2.767   3.509   8.148  0.0526 -1.0633 -0.1408
 3902TIP3    H133265   2.685   3.462   8.163 -2.6453  2.3747 -2.6143
 3902TIP3    H233266   2.784   3.500   8.054  1.9644 -0.7917  0.1235
 3903TIP3   OH233267   1.087   0.367   0.451  0.5237 -0.0600 -0.2487
 3903TIP3    H133268   1.001   0.330   0.469 -0.7808  2.1084 -1.4804
 3903TIP3    H233269   1.133   0.365   0.535 -0.2537 -2.2933  0.1901
 3904TIP3   OH233270   1.671   3.872   1.002  0.3794  0.4951 -0.3390
 3904TIP3    H133271   1.675   3.781   1.032  0.2724  0.9546  1.1633
 3904TIP3    H233272   1.754   3.911   1.032 -0.0107  1.1357 -0.0709
 3905TIP3   OH233273   3.809   2.299   1.873 -0.7711 -1.0763 -0.6093
 3905TIP3    H133274   3.828   2.360   1.802 -2.7855  1.4788  0.8320
 3905TIP3    H233275   3.882   2.309   1.934 -2.3136  2.3184  0.9670
 3906TIP3   OH233276   5.314   4.634   8.098 -0.3314  0.6441  0.9116
 3906TIP3    H133277   5.248   4.568   8.116 -0.7419  1.0498  0.9083
 3906TIP3    H233278   5.337   4.621   8.006  0.8917 -0.6467  1.3705
 3907TIP3   OH233279   2.609   2.156   1.096  0.7995  0.2354  0.0820
 3907TIP3    H133280   2.574   2.236   1.057  0.3251  0.9382  1.8455
 3907TIP3    H233281   2.561   2.146   1.178  0.3977 -2.2379 -0.3897
 3908TIP3   OH233282   5.070   2.116   2.676 -0.5361  0.0318  0.1452
 3908TIP3    H133283   5.014   2.166   2.617  0.7074 -0.2604 -1.3205
 3908TIP3    H233284   5.032   2.028   2.675  0.6024 -0.4835 -1.8142
 3909TIP3   OH233285   4.039   0.817   8.348 -0.1655  0.1575 -0.0131
 3909TIP3    H133286   3.948   0.828   8.319  0.2185  1.0578 -0.9294
 3909TIP3    H233287   4.082   0.899   8.323  1.1879 -0.7299 -0.7179
 3910TIP3   OH233288   2.133   5.778   2.121  0.4983 -0.0853 -0.2253
 3910TIP3    H133289   2.126   5.704   2.061  0.3072 -0.7833  0.6385
 3910TIP3    H233290   2.084   5.751   2.198  2.8295 -0.2702  1.2780
 3911TIP3   OH233291   5.478   4.550   2.750 -0.2289  0.1787 -0.3862
 3911TIP3    H133292   5.500   4.459   2.730  0.1312  0.0536  0.5106
 3911TIP3    H233293   5.413   4.543   2.821 -1.2515  0.5983 -1.2472
 3912TIP3   OH233294   1.030   6.134   7.720  0.2651 -0.2528  0.2523
 3912TIP3    H133295   1.098   6.174   7.665  0.0687  0.4396  0.5039
 3912TIP3    H233296   1.069   6.133   7.807 -0.1356  0.3717  0.4423
 3913TIP3   OH233297   2.146   4.978   0.745 -0.3098 -0.2860 -0.3952
 3913TIP3    H133298   2.060   4.970   0.703  0.2014  0.2124 -1.5618
 3913TIP3    H233299   2.174   5.067   0.725  0.2579 -0.2638  0.4483
 3914TIP3   OH233300   3.022   3.105   8.445  0.0385  0.3521 -0.2183
 3914TIP3    H133301   2.963   3.174   8.414  1.9331  2.1001 -0.1698
 3914TIP3    H233302   2.994   3.027   8.398 -2.1554  1.1276 -0.3471
 3915TIP3   OH233303   2.120   6.437   1.817  0.1245  0.1503 -0.3369
 3915TIP3    H133304   2.100   6.481   1.900  0.6389  0.1071 -0.1863
 3915TIP3    H233305   2.038   6.393   1.793 -0.2583  0.8005 -0.2524
 3916TIP3   OH233306   1.926   5.761   0.973  0.4789  0.3882  0.3182
 3916TIP3    H133307   1.876   5.703   1.031  1.8634  1.3495  2.5954
 3916TIP3    H233308   1.890   5.848   0.990  1.3225  0.7689  0.1820
 3917TIP3   OH233309   5.355   5.306   8.531  0.8855 -0.0394  0.3791
 3917TIP3    H133310   5.265   5.309   8.563 -0.2612 -2.6640 -2.1855
 3917TIP3    H233311   5.378   5.398   8.517 -0.5937  0.8376  2.9395
 3918TIP3   OH233312   4.100   2.291   0.478  0.0641 -0.1221  0.8000
 3918TIP3    H133313   4.156   2.219   0.508  0.0337 -0.1268  0.8451
 3918TIP3    H233314   4.157   2.368   0.480  0.9076 -0.5735 -1.7606
 3919TIP3   OH233315   1.054   5.051   0.787 -0.4221  0.2158 -0.6140
 3919TIP3    H133316   1.107   4.972   0.780  2.6735  1.9215  1.0546
 3919TIP3    H233317   1.020   5.066   0.699  2.5395 -0.6578 -2.0119
 3920TIP3   OH233318   1.841   4.927   1.271 -0.6806 -0.0290 -0.4585
 3920TIP3    H133319   1.793   4.984   1.210 -1.7255  0.8966  1.1324
 3920TIP3    H233320   1.924   4.909   1.228 -0.8774  1.6291 -1.6073
 3921TIP3   OH233321   0.546   3.250   8.290  0.0471 -0.0037  0.6323
 3921TIP3    H133322   0.503   3.334   8.306 -0.2895 -0.3083  1.3903
 3921TIP3    H233323   0.597   3.234   8.370 -0.7305 -1.0190  0.9505
 3922TIP3   OH233324   4.890   5.312   7.372 -0.5307  0.2120  0.1149
 3922TIP3    H133325   4.867   5.405   7.382 -1.3393 -0.0963  1.3228
 3922TIP3    H233326   4.985   5.311   7.377 -0.5690  0.8277  1.8206
 3923TIP3   OH233327   1.801   6.004   2.343 -0.4117 -0.1004 -0.0060
 3923TIP3    H133328   1.817   5.916   2.376  0.6207  0.1634  0.2365
 3923TIP3    H233329   1.836   6.003   2.254  3.0646  1.0405  1.1834
 3924TIP3   OH233330   1.367   3.157   7.579 -0.1241 -0.1322  0.0173
 3924TIP3    H133331   1.420   3.101   7.522  0.5004 -0.4356  0.8662
 3924TIP3    H233332   1.288   3.175   7.528  0.3847 -0.4401 -0.9123
 3925TIP3   OH233333   4.234   2.031   1.284  0.0863 -0.2528  0.4344
 3925TIP3    H133334   4.206   1.997   1.369  0.0944 -0.8037  0.2180
 3925TIP3    H233335   4.225   2.126   1.292 -3.0256 -0.4085  0.0069
 3926TIP3   OH233336   4.059   1.470   1.169 -0.6157 -0.3550  0.3360
 3926TIP3    H133337   4.039   1.551   1.216  2.1185  0.1290  0.8423
 3926TIP3    H233338   4.051   1.401   1.236 -1.0965 -0.2750  0.3680
 3927TIP3   OH233339   6.292   3.078   1.296  0.6184 -1.0008 -0.1916
 3927TIP3    H133340   6.384   3.052   1.299  0.5907 -1.0676  0.2682
 3927TIP3    H233341   6.264   3.074   1.388  0.1553 -0.9951 -0.3314
 3928TIP3   OH233342   1.218   4.320   1.908 -0.3459  0.2343 -0.1997
 3928TIP3    H133343   1.308   4.327   1.939 -0.2697  1.7114 -0.6956
 3928TIP3    H233344   1.182   4.408   1.919 -1.3821 -0.0658 -1.0480
 3929TIP3   OH233345   1.367   6.088   3.186  0.0707  0.2819  0.2832
 3929TIP3    H133346   1.323   6.121   3.108 -0.6894  2.8143  1.6723
 3929TIP3    H233347   1.428   6.157   3.211 -1.9633  1.1156  3.6580
 3930TIP3   OH233348   1.286   6.244   2.645 -0.5727  0.1730  0.6036
 3930TIP3    H133349   1.351   6.313   2.661 -0.5269 -0.0657  1.4906
 3930TIP3    H233350   1.207   6.291   2.619 -0.2549  0.5055  0.2297
 3931TIP3   OH233351   2.455   5.652   1.154 -0.1450 -0.0393 -0.4610
 3931TIP3    H133352   2.374   5.688   1.118 -0.9171  1.5169  2.5294
 3931TIP3    H233353   2.432   5.628   1.244  2.5655 -0.1907  0.2542
 3932TIP3   OH233354   2.529   0.104   7.250 -1.0130 -0.3445 -0.1056
 3932TIP3    H133355   2.485   0.188   7.261  0.3477  0.8091 -2.6734
 3932TIP3    H233356   2.617   0.117   7.286 -0.6177 -0.4611 -0.9967
 3933TIP3   OH233357   5.206   2.912   0.320  0.0374 -0.2843  0.4030
 3933TIP3    H133358   5.200   2.912   0.224 -0.3568  1.2825  0.4054
 3933TIP3    H233359   5.124   2.951   0.349  0.2852 -0.4700  1.3818
 3934TIP3   OH233360   3.978   3.563   1.860  0.5313  0.1684  0.1866
 3934TIP3    H133361   4.040   3.549   1.933  0.1749 -2.3200  0.1203
 3934TIP3    H233362   3.895   3.583   1.903  0.5218 -0.4240  0.4598
 3935TIP3   OH233363   0.266   2.511   2.353  0.5925  0.8540 -0.3750
 3935TIP3    H133364   0.334   2.520   2.286 -0.1997 -0.3066 -1.3824
 3935TIP3    H233365   0.276   2.421   2.385 -0.6971  0.5510 -0.8005
 3936TIP3   OH233366   2.240   0.212   7.474  0.4325 -0.1159 -0.1847
 3936TIP3    H133367   2.210   0.281   7.532  2.1984  0.2207  0.3779
 3936TIP3    H233368   2.300   0.255   7.413  0.3113 -0.8731 -0.8734
 3937TIP3   OH233369   0.900   2.706   7.738  0.6527  0.6204  0.3744
 3937TIP3    H133370   0.897   2.645   7.663 -0.3578 -1.8196  2.2528
 3937TIP3    H233371   0.989   2.741   7.736  1.0464 -0.3237 -1.2556
 3938TIP3   OH233372   3.820   0.088   8.083 -0.2176 -0.2460 -0.0117
 3938TIP3    H133373   3.865   0.008   8.110 -0.0606  0.0076  0.4749
 3938TIP3    H233374   3.876   0.125   8.015  0.5827  0.3353  0.9453
 3939TIP3   OH233375   1.800   4.202   8.135 -0.3231 -0.1381  0.0995
 3939TIP3    H133376   1.893   4.203   8.115  0.1868  1.5310  2.2461
 3939TIP3    H233377   1.791   4.139   8.206 -0.7781  0.0680  0.2295
 3940TIP3   OH233378   3.913   4.856   1.654  0.3733  0.1710 -0.4407
 3940TIP3    H133379   4.004   4.880   1.673  0.8976 -0.5490 -1.8757
 3940TIP3    H233380   3.916   4.761   1.640 -0.4890  0.2405 -1.1353
 3941TIP3   OH233381   5.823   2.525   8.295 -0.0121  0.1138  0.0025
 3941TIP3    H133382   5.854   2.605   8.253  0.6536 -0.0744  0.1156
 3941TIP3    H233383   5.899   2.494   8.346  0.1553 -1.2363 -0.9964
 3942TIP3   OH233384   0.234   1.638   8.602  0.1197  0.2744 -0.2743
 3942TIP3    H133385   0.224   1.637   8.506 -1.0266  0.3097 -0.1665
 3942TIP3    H233386   0.275   1.554   8.623  0.0090  0.0951 -0.7578
 3943TIP3   OH233387   1.769   4.272   2.979 -0.2881  0.2760  0.3110
 3943TIP3    H133388   1.864   4.287   2.988 -0.2915  0.4584  0.0477
 3943TIP3    H233389   1.753   4.193   3.030  0.1211 -0.1492 -0.1964
 3944TIP3   OH233390   1.354   3.973   1.540 -0.2510 -0.1273 -0.6499
 3944TIP3    H133391   1.450   3.976   1.534 -0.2495  1.7566 -0.2720
 3944TIP3    H233392   1.335   3.890   1.584  1.2492 -0.1203  0.0526
 3945TIP3   OH233393   1.621   0.022   8.560 -0.3799  0.3125 -0.3747
 3945TIP3    H133394   1.587   0.101   8.519  0.2568  1.3880  1.1005
 3945TIP3    H233395   1.715   0.036   8.567 -0.2054 -0.7390 -0.4317
 3946TIP3   OH233396   4.835   3.433   0.009  0.2313  0.1198 -0.3124
 3946TIP3    H133397   4.761   3.454   0.067 -0.0719 -0.1336 -0.6036
 3946TIP3    H233398   4.805   3.459  -0.078  0.8562  0.9243 -0.3025
 3947TIP3   OH233399   6.508   3.000   1.516 -0.4287 -0.1753 -0.1551
 3947TIP3    H133400   6.413   3.001   1.531 -0.6064 -2.1235 -0.9448
 3947TIP3    H233401   6.534   2.909   1.532  1.3656  0.3848  0.3026
 3948TIP3   OH233402   1.793   5.116   7.372  0.1269 -0.8646 -0.0991
 3948TIP3    H133403   1.816   5.200   7.331 -1.4429  0.6096  1.8232
 3948TIP3    H233404   1.755   5.065   7.300 -0.5661  0.7825 -0.9798
 3949TIP3   OH233405   5.734   5.657   1.986 -0.1125 -0.2094 -0.5366
 3949TIP3    H133406   5.650   5.619   2.011 -0.2890  1.4566  1.7993
 3949TIP3    H233407   5.742   5.639   1.892 -1.7444 -2.8063 -0.2710
 3950TIP3   OH233408   4.853   4.883   1.419  0.0382  0.5379 -0.3487
 3950TIP3    H133409   4.842   4.966   1.465  0.0178  1.3429 -1.7348
 3950TIP3    H233410   4.800   4.893   1.339 -0.4532 -1.0473 -0.2670
 3951TIP3   OH233411   1.275   4.600   1.721 -0.2740 -0.0044 -0.4577
 3951TIP3    H133412   1.197   4.609   1.666 -1.6111  0.7327  1.4902
 3951TIP3    H233413   1.257   4.651   1.799  1.3717 -1.3779  0.9180
 3952TIP3   OH233414   3.558   5.140   8.656 -0.0710 -0.1967  0.0161
 3952TIP3    H133415   3.595   5.058   8.690 -0.3153  0.6521  2.5260
 3952TIP3    H233416   3.524   5.116   8.570  1.4401 -2.2984 -0.0852
 3953TIP3   OH233417   2.932   1.840   8.656  0.1694 -0.3328  0.5567
 3953TIP3    H133418   2.983   1.784   8.715 -2.0885 -2.0969  0.9728
 3953TIP3    H233419   2.841   1.828   8.684 -0.6758  1.3723 -1.2008
 3954TIP3   OH233420   3.338   4.699   8.033 -0.6120 -0.6245 -0.7604
 3954TIP3    H133421   3.320   4.606   8.041 -0.2191 -0.7637 -1.4178
 3954TIP3    H233422   3.279   4.730   7.965  0.7299 -0.8455 -2.0818
 3955TIP3   OH233423   6.021   6.617   1.084 -0.1266 -0.1378 -0.0644
 3955TIP3    H133424   5.945   6.598   1.139 -0.1029 -0.9175 -0.2807
 3955TIP3    H233425   6.096   6.615   1.144 -0.3857  1.8887  0.3785
 3956TIP3   OH233426   6.117   2.511   7.524 -0.2169 -0.3852  0.1012
 3956TIP3    H133427   6.122   2.564   7.603  1.1390 -1.5314  0.8315
 3956TIP3    H233428   6.064   2.563   7.463 -1.1291  0.6063  1.6732
 3957TIP3   OH233429   6.388   3.873   1.605 -0.5924  0.4599 -0.0630
 3957TIP3    H133430   6.354   3.952   1.563  0.0472 -0.4392 -2.4085
 3957TIP3    H233431   6.310   3.821   1.624 -0.8244  0.2032 -1.6305
 3958TIP3   OH233432   4.979   6.467   1.472 -0.4182  0.0386  0.0010
 3958TIP3    H133433   4.892   6.477   1.512 -0.6575  1.1934 -0.7641
 3958TIP3    H233434   5.040   6.474   1.546 -0.9469 -0.1325  0.4607
 3959TIP3   OH233435   6.343   1.658   1.327  0.1234  0.2666  0.4513
 3959TIP3    H133436   6.436   1.641   1.336  0.4702  1.5974 -0.2903
 3959TIP3    H233437   6.335   1.753   1.338 -1.2444  0.0861  1.2522
 3960TIP3   OH233438   1.669   2.070   1.747 -1.1820  0.0550  0.4328
 3960TIP3    H133439   1.692   2.155   1.711 -1.4821  0.4288  1.1063
 3960TIP3    H233440   1.754   2.032   1.772 -1.0297  0.0608 -0.0594
 3961TIP3   OH233441   6.618   1.839   8.364  0.2493 -0.0168  0.4953
 3961TIP3    H133442   6.551   1.773   8.347  0.2971  0.3648 -1.4202
 3961TIP3    H233443   6.695   1.808   8.317  0.8494  0.4497  1.1562
 3962TIP3   OH233444   6.067   5.463   2.024 -0.0178 -0.3270  0.0337
 3962TIP3    H133445   6.111   5.546   2.041  0.4277 -0.8772  1.6990
 3962TIP3    H233446   6.053   5.425   2.111 -0.9514 -1.6217 -0.6557
 3963TIP3   OH233447   3.650   6.363   2.140  0.0343 -0.3538 -0.8870
 3963TIP3    H133448   3.626   6.372   2.233 -0.1894  0.6927 -1.0356
 3963TIP3    H233449   3.743   6.341   2.142 -0.5423 -3.1616 -0.3447
 3964TIP3   OH233450   5.081   2.522   2.232  0.3024 -0.0560 -0.7095
 3964TIP3    H133451   5.052   2.484   2.149  0.3857 -0.5355 -0.5236
 3964TIP3    H233452   5.148   2.462   2.263  0.8491  0.5575 -0.6850
 3965TIP3   OH233453   5.788   1.806   3.210  0.6580 -0.1663 -0.0537
 3965TIP3    H133454   5.709   1.818   3.263  1.5070  1.1602  1.0037
 3965TIP3    H233455   5.785   1.878   3.147  2.8959  2.4544  2.5473
 3966TIP3   OH233456   4.748   4.583   0.963  1.2119  0.4800  0.1043
 3966TIP3    H133457   4.771   4.667   1.004  0.0171  0.4960  0.7534
 3966TIP3    H233458   4.814   4.522   0.994  1.5325  0.9637  0.3847
 3967TIP3   OH233459   5.644   3.106   1.478  0.2593 -0.0804 -0.1666
 3967TIP3    H133460   5.732   3.118   1.442  0.6445  1.6738  1.2144
 3967TIP3    H233461   5.648   3.146   1.565 -1.8280 -0.2133  0.0407
 3968TIP3   OH233462   4.000   4.450   1.374 -0.1622  0.2866 -0.0883
 3968TIP3    H133463   3.919   4.484   1.337 -0.3389  0.2644  0.2706
 3968TIP3    H233464   4.057   4.436   1.299 -0.3594  0.6537 -0.3108
 3969TIP3   OH233465   1.540   6.522   2.430  1.1660 -0.5148  0.2275
 3969TIP3    H133466   1.531   6.468   2.352 -0.9088 -0.8593  0.6388
 3969TIP3    H233467   1.453   6.561   2.442  1.4407 -0.4225  2.3143
 3970TIP3   OH233468   5.269   1.253   3.068  0.0947 -0.7218  0.6898
 3970TIP3    H133469   5.324   1.214   3.136 -0.1290 -2.1108  0.0928
 3970TIP3    H233470   5.208   1.184   3.043 -0.8013  0.2460  0.1196
 3971TIP3   OH233471   4.562   6.506   2.305 -0.5696 -0.2637 -0.8170
 3971TIP3    H133472   4.630   6.528   2.240 -0.8633 -1.8312 -1.7358
 3971TIP3    H233473   4.522   6.426   2.269 -2.6108  0.3872 -0.0679
 3972TIP3   OH233474   4.356   0.992   0.025 -0.3673  0.2612 -0.0175
 3972TIP3    H133475   4.362   0.941  -0.056 -0.2764 -0.7142  0.5737
 3972TIP3    H233476   4.420   0.951   0.084  0.0962  1.4217  0.3119
 3973TIP3   OH233477   3.870   4.240   1.487  0.6144  0.2021 -0.9100
 3973TIP3    H133478   3.907   4.321   1.451  0.0371  0.5453 -0.7358
 3973TIP3    H233479   3.775   4.250   1.477  0.5166 -0.2612 -0.4802
 3974TIP3   OH233480   4.246   6.060   8.379  0.3413  0.7538 -0.1241
 3974TIP3    H133481   4.160   6.085   8.343  0.0165  3.3357  2.0933
 3974TIP3    H233482   4.304   6.131   8.352  0.9451  0.7954  1.2140
 3975TIP3   OH233483   5.431   0.421   2.147 -0.0030 -0.3481  0.6146
 3975TIP3    H133484   5.434   0.411   2.242  0.5443  0.5999  0.7068
 3975TIP3    H233485   5.338   0.433   2.128 -0.0041  0.6888  1.1842
 3976TIP3   OH233486   2.256   3.111   1.851 -0.6381  0.3302  0.1891
 3976TIP3    H133487   2.336   3.139   1.896 -0.6251  1.5951 -0.5854
 3976TIP3    H233488   2.287   3.062   1.775 -0.6062  0.3939  0.1608
 3977TIP3   OH233489   3.807   2.425   8.348  0.7027  0.0966  0.6041
 3977TIP3    H133490   3.738   2.405   8.285  1.3810  1.1770 -0.5324
 3977TIP3    H233491   3.848   2.340   8.366  0.4295 -0.2586 -0.3536
 3978TIP3   OH233492   4.025   0.543   0.833  0.1173 -0.2245  0.2907
 3978TIP3    H133493   3.955   0.479   0.846 -0.2856  0.3053  0.7550
 3978TIP3    H233494   4.101   0.505   0.875 -0.1372 -0.3720  0.6166
 3979TIP3   OH233495   5.024   3.570   1.649  0.2130 -0.2321 -0.1081
 3979TIP3    H133496   4.975   3.535   1.724 -0.6862 -0.1944 -0.6622
 3979TIP3    H233497   5.101   3.610   1.688  0.3451 -1.2135  0.7019
 3980TIP3   OH233498   0.609   5.893   1.935  0.4339  0.4792 -0.0637
 3980TIP3    H133499   0.618   5.851   2.020 -1.1272  2.4611  1.1795
 3980TIP3    H233500   0.586   5.984   1.955 -1.3099  0.7078 -2.5774
 3981TIP3   OH233501   2.733   2.373   3.146  0.3997  0.2519  0.4280
 3981TIP3    H133502   2.655   2.327   3.177  0.0016  0.7197  0.1484
 3981TIP3    H233503   2.787   2.305   3.107 -0.4159  0.0735 -0.4464
 3982TIP3   OH233504   2.858   3.214   2.321  0.1918  0.1403 -0.4556
 3982TIP3    H133505   2.947   3.182   2.337  0.4439  0.6094 -0.8830
 3982TIP3    H233506   2.856   3.233   2.227 -0.9279 -1.6015 -0.8255
 3983TIP3   OH233507   3.983   0.968   2.395 -0.1132 -0.1613  0.3259
 3983TIP3    H133508   3.893   0.992   2.417 -0.9600 -2.4430 -0.3767
 3983TIP3    H233509   4.010   0.909   2.465  0.3418 -0.5629 -0.1810
 3984TIP3   OH233510   0.875   1.033   1.510  0.1743  0.2507  0.2528
 3984TIP3    H133511   0.921   0.994   1.436  1.6559  1.1806  0.6409
 3984TIP3    H233512   0.847   0.958   1.563 -1.0194 -0.4307 -1.2598
 3985TIP3   OH233513   6.253   6.664   0.883  0.1490  0.0619  0.1386
 3985TIP3    H133514   6.197   6.734   0.851  1.2224  1.0652  0.4093
 3985TIP3    H233515   6.198   6.586   0.880 -1.1317  0.9495  0.0528
 3986TIP3   OH233516   3.299   3.338   1.667 -0.3828 -0.0068  0.5643
 3986TIP3    H133517   3.353   3.270   1.626 -0.7494  0.9514 -1.6773
 3986TIP3    H233518   3.341   3.420   1.641 -1.7891  0.6949  0.4348
 3987TIP3   OH233519   3.561   1.104   0.862  0.2525 -0.9577  0.2664
 3987TIP3    H133520   3.520   1.057   0.790 -0.8331 -0.7388  0.7216
 3987TIP3    H233521   3.606   1.178   0.821 -0.3662 -0.8271 -0.1784
 3988TIP3   OH233522   6.638   4.085   8.340  0.0850 -0.0773 -0.1428
 3988TIP3    H133523   6.661   3.992   8.339 -0.3542 -0.1895 -0.1741
 3988TIP3    H233524   6.563   4.090   8.399  0.0061  0.2290 -0.2685
 3989TIP3   OH233525   6.212   2.591   8.668  0.2667 -0.0126  0.4593
 3989TIP3    H133526   6.246   2.548   8.590  0.6363  0.4760  0.3494
 3989TIP3    H233527   6.118   2.571   8.667  0.6799 -2.3297  1.3811
 3990TIP3   OH233528   0.282   1.417   7.885 -0.4178  0.0722 -0.4317
 3990TIP3    H133529   0.286   1.511   7.902 -0.5498  0.4082 -2.0878
 3990TIP3    H233530   0.285   1.410   7.790 -1.1787 -1.5688 -0.3658
 3991TIP3   OH233531   6.191   6.256   2.325  0.4347  0.2209 -0.5598
 3991TIP3    H133532   6.157   6.169   2.343  1.1892  0.1052  0.3429
 3991TIP3    H233533   6.269   6.242   2.272  0.1233  0.3973 -1.0767
 3992TIP3   OH233534   4.394   4.507   2.074  0.2203  0.6364 -0.3695
 3992TIP3    H133535   4.473   4.473   2.117 -0.2449 -1.3821 -0.9893
 3992TIP3    H233536   4.323   4.452   2.108 -0.2224 -0.8699 -3.3883
 3993TIP3   OH233537   4.222   4.629   1.332  0.1318 -0.0035  0.4152
 3993TIP3    H133538   4.238   4.556   1.392  0.5860 -0.2164  0.0414
 3993TIP3    H233539   4.203   4.586   1.248  1.0239  0.3197  0.0423
 3994TIP3   OH233540   1.705   6.584   0.428  0.0129  0.4819  0.2136
 3994TIP3    H133541   1.699   6.679   0.438  1.1609  0.4438  1.6640
 3994TIP3    H233542   1.668   6.549   0.509 -2.7444 -0.4593 -1.3265
 3995TIP3   OH233543   6.310   1.018   1.517  0.5222  0.2417  0.1963
 3995TIP3    H133544   6.246   1.072   1.469 -2.2315  0.8137  4.0694
 3995TIP3    H233545   6.351   1.079   1.579  0.2621 -1.3023  1.9583
 3996TIP3   OH233546   5.973   6.290   0.294 -0.3358 -0.8481  0.2216
 3996TIP3    H133547   5.944   6.224   0.231  0.3789 -0.5503 -0.4362
 3996TIP3    H233548   5.911   6.363   0.282  1.4599  0.4329 -2.2971
 3997TIP3   OH233549   0.177   5.614   2.558 -0.4528 -0.1766  0.5203
 3997TIP3    H133550   0.191   5.520   2.555 -0.6696 -0.2153  0.6809
 3997TIP3    H233551   0.209   5.640   2.644  3.0429  0.4699 -0.8035
 3998TIP3   OH233552   6.626   3.083   7.780  0.3785  0.1988 -0.0866
 3998TIP3    H133553   6.636   3.150   7.848  1.5590  1.1137 -1.1146
 3998TIP3    H233554   6.531   3.070   7.774  0.0642  2.1242 -0.1603
 3999TIP3   OH233555   0.357   6.258   0.048  0.9459  0.5179  0.2885
 3999TIP3    H133556   0.302   6.256  -0.031 -1.6472 -1.4711  1.9968
 3999TIP3    H233557   0.420   6.187   0.034  3.0275  2.5524 -1.5031
 4000TIP3   OH233558   0.942   5.360   2.389 -0.1728  0.1251  0.1145
 4000TIP3    H133559   0.999   5.390   2.460 -0.1784  0.2019  0.0862
 4000TIP3    H233560   0.969   5.410   2.313 -0.6445  0.5660  0.2299
 4001TIP3   OH233561   3.603   2.530   1.491 -0.0193 -0.3250  0.3517
 4001TIP3    H133562   3.692   2.563   1.474  0.2301 -0.9391  0.4493
 4001TIP3    H233563   3.548   2.581   1.431  0.3851  0.1141  0.3411
 4002TIP3   OH233564   5.549   6.293   2.408  0.0763  0.3645 -0.8566
 4002TIP3    H133565   5.470   6.239   2.402  0.0100  0.3128  0.3110
 4002TIP3    H233566   5.590   6.267   2.491  0.9315  0.9139 -1.0938
 4003TIP3   OH233567   3.588   5.468   2.457  0.3863 -0.0670  0.1336
 4003TIP3    H133568   3.659   5.479   2.521  1.2443 -3.0466 -0.1265
 4003TIP3    H233569   3.526   5.538   2.477  1.3558  0.0606  3.2084
 4004TIP3   OH233570   3.186   0.139   1.767  0.2373  0.3777 -0.2820
 4004TIP3    H133571   3.230   0.063   1.729  2.9062  2.2343 -1.2015
 4004TIP3    H233572   3.133   0.175   1.696  1.1436  0.9021 -0.7068
 4005TIP3   OH233573   5.944   4.515   2.347 -0.1941 -0.8857 -0.2556
 4005TIP3    H133574   5.874   4.564   2.305 -0.4752 -0.5497  0.5946
 4005TIP3    H233575   5.907   4.429   2.363 -0.0440 -1.0566 -0.7934
 4006TIP3   OH233576   3.276   5.240   0.382  0.4319  0.6530 -0.3104
 4006TIP3    H133577   3.246   5.160   0.425  2.8055 -0.2555 -0.1521
 4006TIP3    H233578   3.252   5.229   0.290  0.4887 -0.1254 -0.2352
 4007TIP3   OH233579   1.540   5.454   7.522  0.9938 -0.0158 -0.1197
 4007TIP3    H133580   1.491   5.456   7.440  1.5735 -0.8470 -0.5055
 4007TIP3    H233581   1.500   5.383   7.572  0.3241  0.8070  0.5337
 4008TIP3   OH233582   5.291   4.986   0.902  0.0184 -0.3072 -0.2111
 4008TIP3    H133583   5.301   4.894   0.878 -0.2427  0.2952 -2.9950
 4008TIP3    H233584   5.196   4.999   0.905  0.0553 -0.1275  0.2030
 4009TIP3   OH233585   6.804   5.568   8.694  0.7255 -0.2331 -0.0440
 4009TIP3    H133586   6.880   5.520   8.662  1.9809  1.5633  0.0361
 4009TIP3    H233587   6.840   5.652   8.724 -1.1705  0.3128  0.8826
 4010TIP3   OH233588   1.809   2.116   2.670  0.5922  0.0607 -0.3786
 4010TIP3    H133589   1.796   2.086   2.580 -0.9609  0.8018 -0.4406
 4010TIP3    H233590   1.725   2.100   2.713  0.7202  1.4130  0.4363
 4011TIP3   OH233591   2.985   5.842   8.423  0.6037 -0.8112  0.0579
 4011TIP3    H133592   2.973   5.800   8.338 -2.8237 -3.1374  1.4663
 4011TIP3    H233593   2.994   5.769   8.484 -1.0706  0.6038  2.1273
 4012TIP3   OH233594   3.792   1.152   2.112 -0.3891 -0.3264 -0.8146
 4012TIP3    H133595   3.715   1.148   2.056 -0.2511 -1.0934 -0.9625
 4012TIP3    H233596   3.864   1.125   2.055  0.0146  0.5424 -0.7221
 4013TIP3   OH233597   6.319   4.504   1.460  0.7458  0.3734 -0.0821
 4013TIP3    H133598   6.385   4.516   1.393  1.4538 -0.2316  0.4923
 4013TIP3    H233599   6.246   4.462   1.415 -0.0995  2.8376 -1.1793
 4014TIP3   OH233600   2.254   5.483   0.566 -0.3447 -0.0968  0.3992
 4014TIP3    H133601   2.159   5.490   0.553 -0.1248 -0.3602 -1.6720
 4014TIP3    H233602   2.290   5.474   0.478  1.6391  0.1447  1.1279
 4015TIP3   OH233603   3.057   2.051   7.732 -0.3103 -0.2037  0.1892
 4015TIP3    H133604   3.139   2.060   7.780 -0.0336  0.0979 -0.3309
 4015TIP3    H233605   3.016   1.972   7.768 -0.7379  0.7198  1.8403
 4016TIP3   OH233606   3.527   3.214   2.568 -0.6033 -0.2482  0.4747
 4016TIP3    H133607   3.621   3.196   2.573 -0.6503 -0.3536  1.1124
 4016TIP3    H233608   3.492   3.145   2.512 -0.3752 -0.5180  0.6603
 4017TIP3   OH233609   6.453   2.336   8.567  0.1170  0.2551 -0.2509
 4017TIP3    H133610   6.462   2.392   8.490 -0.5057  2.4178  1.1742
 4017TIP3    H233611   6.411   2.257   8.534 -1.9037  1.8858 -1.8355
 4018TIP3   OH233612   2.576   4.978   1.298 -0.4135 -0.0366  0.2889
 4018TIP3    H133613   2.502   4.974   1.359 -2.1159 -0.2582 -1.6869
 4018TIP3    H233614   2.651   4.951   1.350 -2.0607 -1.8838  1.8692
 4019TIP3   OH233615   0.281   4.474   8.221 -0.1009  0.1513  0.3501
 4019TIP3    H133616   0.368   4.436   8.212 -1.1396 -1.7816 -3.8188
 4019TIP3    H233617   0.287   4.559   8.177 -0.4937 -0.3167 -0.6098
 4020TIP3   OH233618   5.606   4.090   2.702 -0.1357 -0.5782  0.1823
 4020TIP3    H133619   5.543   4.128   2.762 -0.1871 -0.6088  0.1471
 4020TIP3    H233620   5.553   4.052   2.632 -0.0369  0.5643 -0.5413
 4021TIP3   OH233621   6.268   1.054   0.945  0.3063 -0.0770 -0.1469
 4021TIP3    H133622   6.202   1.117   0.914 -0.6449 -0.3578  1.2385
 4021TIP3    H233623   6.343   1.108   0.970 -0.6874  0.5914  1.5160
 4022TIP3   OH233624   2.003   6.736   2.848 -0.0100 -0.6044 -0.3163
 4022TIP3    H133625   1.934   6.786   2.805  0.0393  0.1704  0.4838
 4022TIP3    H233626   1.960   6.693   2.922  0.1430 -1.0244 -0.4622
 4023TIP3   OH233627   6.567   3.431   7.364 -0.2410 -0.1013  0.0165
 4023TIP3    H133628   6.584   3.339   7.342 -0.6143 -0.1173 -0.2161
 4023TIP3    H233629   6.634   3.453   7.428  0.4834 -0.2370 -0.6868
 4024TIP3   OH233630   2.176   1.461   2.443 -0.0514 -0.2125  0.1495
 4024TIP3    H133631   2.192   1.427   2.355 -0.3183  0.7526 -0.2804
 4024TIP3    H233632   2.250   1.518   2.461 -1.2823  1.6858 -0.5331
 4025TIP3   OH233633   2.337   6.747   1.603  0.2681  0.0334 -0.0123
 4025TIP3    H133634   2.286   6.679   1.560 -3.2849  1.7947  1.0228
 4025TIP3    H233635   2.371   6.800   1.531  1.1013 -1.4346 -0.7499
 4026TIP3   OH233636   3.918   2.705   7.500  0.6638 -0.0089 -0.0529
 4026TIP3    H133637   3.960   2.790   7.518 -0.5554  0.4583  0.6750
 4026TIP3    H233638   3.827   2.717   7.525  0.4127 -1.4758 -0.1641
 4027TIP3   OH233639   6.292   1.498   0.900 -1.0019  0.0874 -0.0406
 4027TIP3    H133640   6.377   1.486   0.859 -1.0390  0.8616 -0.3604
 4027TIP3    H233641   6.231   1.451   0.842 -1.1138  1.5252 -1.1325
 4028TIP3   OH233642   3.565   4.266   1.243 -0.1169 -0.1267  0.1316
 4028TIP3    H133643   3.499   4.221   1.190  0.6434 -1.6328  0.4003
 4028TIP3    H233644   3.646   4.258   1.192  0.2621 -0.0707  0.7082
 4029TIP3   OH233645   5.340   6.675   0.300  0.4262 -0.3088 -0.0100
 4029TIP3    H133646   5.289   6.612   0.250  0.0414  1.4135 -1.9428
 4029TIP3    H233647   5.277   6.718   0.357 -0.3970  1.5880 -2.1618
 4030TIP3   OH233648   3.963   6.298   0.733  0.2793  0.0094 -0.2954
 4030TIP3    H133649   4.045   6.321   0.776  0.5925  0.3614 -1.0698
 4030TIP3    H233650   3.936   6.216   0.774  1.3973 -0.4975 -0.5533
 4031TIP3   OH233651   2.846   4.485   2.574  0.0508  0.5767 -0.1514
 4031TIP3    H133652   2.823   4.406   2.524 -1.7012  2.0697 -1.8725
 4031TIP3    H233653   2.831   4.557   2.513  1.9975  2.2718  1.2234
 4032TIP3   OH233654   5.729   2.503   1.594  0.3448 -0.4149  0.0887
 4032TIP3    H133655   5.766   2.422   1.629  1.9355  0.3911  0.3682
 4032TIP3    H233656   5.695   2.479   1.508  1.4913 -1.2317 -0.1618
 4033TIP3   OH233657   1.769   4.587   8.629  0.3097 -0.7603 -0.5438
 4033TIP3    H133658   1.685   4.545   8.647 -1.4186  2.2562 -0.8772
 4033TIP3    H233659   1.802   4.612   8.716  0.5968 -1.4318 -0.4536
 4034TIP3   OH233660   0.152   2.285   1.590 -0.4081  0.3250 -0.1694
 4034TIP3    H133661   0.173   2.195   1.567  2.6036  1.0095 -0.5194
 4034TIP3    H233662   0.057   2.290   1.582 -0.6362 -2.6917 -0.5049
 4035TIP3   OH233663   2.993   3.018   0.060 -0.6945 -0.0057  0.3506
 4035TIP3    H133664   3.029   2.988  -0.024 -2.3672 -1.4594  0.0796
 4035TIP3    H233665   2.901   3.036   0.041 -1.3968 -1.4477  2.0648
 4036TIP3   OH233666   6.181   2.913   8.054 -0.1864 -0.5057  0.2173
 4036TIP3    H133667   6.250   2.866   8.007 -0.0177  1.3891 -1.6045
 4036TIP3    H233668   6.121   2.941   7.985 -1.7893 -0.5166  1.5720
 4037TIP3   OH233669   4.011   6.205   7.449 -0.1704  0.2212 -0.2182
 4037TIP3    H133670   3.968   6.176   7.369 -1.6114  2.2175 -0.2538
 4037TIP3    H233671   4.101   6.174   7.440 -0.7430 -1.1779 -1.7352
 4038TIP3   OH233672   4.994   2.602   2.800 -0.6131 -0.3195 -0.1230
 4038TIP3    H133673   4.919   2.660   2.787 -0.2794 -0.6187 -6.1172
 4038TIP3    H233674   4.955   2.514   2.803 -0.6679 -0.3608 -1.5062
 4039TIP3   OH233675   5.923   2.479   1.878 -0.6151  0.6540  0.4149
 4039TIP3    H133676   5.895   2.438   1.960 -0.6634 -0.4035 -0.1087
 4039TIP3    H233677   5.965   2.409   1.829 -1.2986  1.0580 -0.8025
 4040TIP3   OH233678   2.393   6.128   8.158 -0.3368 -0.0539  0.2010
 4040TIP3    H133679   2.460   6.175   8.109 -1.8530  2.2885  0.2288
 4040TIP3    H233680   2.344   6.079   8.092 -0.0186  0.0577 -0.1168
 4041TIP3   OH233681   2.542   3.544   0.533  0.2987  0.0246 -0.4974
 4041TIP3    H133682   2.549   3.474   0.468  1.3922  0.7944 -1.2258
 4041TIP3    H233683   2.463   3.592   0.508  0.4536  0.0361 -0.9745
 4042TIP3   OH233684   3.428   1.344   0.366 -0.0815 -0.3806 -0.3596
 4042TIP3    H133685   3.393   1.278   0.306 -1.0378  1.4812 -1.9438
 4042TIP3    H233686   3.351   1.388   0.400  0.4875 -0.8630  1.6932
 4043TIP3   OH233687   4.597   3.115   2.626  0.0852  0.1881  0.7572
 4043TIP3    H133688   4.598   3.116   2.722 -0.1213  0.4788  0.7577
 4043TIP3    H233689   4.665   3.178   2.601 -0.3416  0.6353  0.7162
 4044TIP3   OH233690   1.601   3.937   2.454  0.0255 -0.5778 -0.1089
 4044TIP3    H133691   1.578   3.850   2.422 -0.8469 -0.5158  0.2994
 4044TIP3    H233692   1.597   3.929   2.549 -1.3391  0.2009 -0.0653
 4045TIP3   OH233693   6.236   2.757   2.922 -0.5462  0.3804  0.0823
 4045TIP3    H133694   6.152   2.756   2.968 -0.0100  0.4594  1.0976
 4045TIP3    H233695   6.237   2.841   2.876 -0.8458  0.5674  0.4160
 4046TIP3   OH233696   6.587   0.179   1.375  0.1190  0.7286  0.1787
 4046TIP3    H133697   6.672   0.135   1.369  0.3729  1.2559 -0.1686
 4046TIP3    H233698   6.595   0.239   1.449 -0.3013  0.0461  0.7908
 4047TIP3   OH233699   2.487   6.833   2.231  0.2035 -0.2470  0.4352
 4047TIP3    H133700   2.454   6.840   2.321 -1.5588  0.3604 -0.2093
 4047TIP3    H233701   2.427   6.887   2.179  1.3231 -0.3872 -1.0826
 4048TIP3   OH233702   3.559   6.322   1.499 -0.0435 -0.2265 -0.6408
 4048TIP3    H133703   3.615   6.245   1.492  0.4811 -0.0379  1.1060
 4048TIP3    H233704   3.473   6.292   1.469  0.2891 -1.3167 -0.5312
 4049TIP3   OH233705   5.158   1.023   2.972  0.2688  0.2566  0.3241
 4049TIP3    H133706   5.106   0.973   3.035  1.2292 -1.9712 -0.5305
 4049TIP3    H233707   5.102   1.029   2.895  0.8451 -1.3176 -0.2633
 4050TIP3   OH233708   5.377   3.953   3.049 -0.0835 -0.3366  0.7294
 4050TIP3    H133709   5.305   4.013   3.065  0.2700  0.5057 -0.6725
 4050TIP3    H233710   5.373   3.890   3.121 -1.9043 -0.0228  0.9336
 4051TIP3   OH233711   1.149   0.385   7.536  0.2072 -0.3014 -0.4524
 4051TIP3    H133712   1.133   0.459   7.595  2.3649 -0.7922  0.8339
 4051TIP3    H233713   1.206   0.420   7.468  1.7408 -0.8785  0.4986
 4052TIP3   OH233714   4.840   3.854   0.605 -0.3070 -0.1417 -0.0370
 4052TIP3    H133715   4.789   3.793   0.553  0.7324 -0.9074 -0.2066
 4052TIP3    H233716   4.872   3.801   0.679 -0.2338  0.4585  0.3690
 4053TIP3   OH233717   2.815   6.726   0.615 -0.0005 -0.2649 -0.2845
 4053TIP3    H133718   2.893   6.780   0.596  0.4783 -1.2152 -1.1293
 4053TIP3    H233719   2.816   6.658   0.547 -1.6534 -0.2249 -0.3881
 4054TIP3   OH233720   5.352   6.098   2.868  0.4675  0.4079  0.0319
 4054TIP3    H133721   5.435   6.141   2.886  0.6183 -0.1450  0.6783
 4054TIP3    H233722   5.301   6.163   2.819  0.8685  1.1408  0.5804
 4055TIP3   OH233723   2.097   1.267   7.777 -0.1511  0.3644 -0.5210
 4055TIP3    H133724   2.170   1.317   7.741 -1.3859  1.9665 -0.9075
 4055TIP3    H233725   2.032   1.266   7.707  0.1349 -2.6595 -0.9131
 4056TIP3   OH233726   3.099   5.898   7.410  0.6783 -0.2084  0.3569
 4056TIP3    H133727   3.180   5.946   7.424  0.9031 -0.5841  0.3782
 4056TIP3    H233728   3.097   5.882   7.315 -1.4391  3.3799 -0.3555
 4057TIP3   OH233729   2.979   6.395   2.618 -0.7436  0.0780  0.1922
 4057TIP3    H133730   2.940   6.367   2.701 -1.1005 -0.1520 -0.0536
 4057TIP3    H233731   3.011   6.315   2.578  2.0001  0.4672  1.3938
 4058TIP3   OH233732   5.532   4.923   3.017  0.2279 -0.2167  0.5062
 4058TIP3    H133733   5.496   5.012   3.022  0.3286 -0.1865  0.7221
 4058TIP3    H233734   5.513   4.885   3.103 -1.3055 -0.9894 -0.1358
 4059TIP3   OH233735   1.209   1.479   0.062  0.2155  0.2011 -0.2460
 4059TIP3    H133736   1.234   1.566   0.032  1.3063 -0.0852 -0.2207
 4059TIP3    H233737   1.209   1.426  -0.018  1.4390 -0.1864 -0.0037
 4060TIP3   OH233738   3.134   4.525   1.361  0.1267  0.2415  0.0077
 4060TIP3    H133739   3.217   4.536   1.315  0.6039 -2.3108  0.1460
 4060TIP3    H233740   3.159   4.511   1.452 -0.6236  1.5523  0.4506
 4061TIP3   OH233741   3.073   2.581   2.030 -0.0500  0.1770 -0.1592
 4061TIP3    H133742   3.014   2.529   2.084  0.8858 -0.9634 -0.1897
 4061TIP3    H233743   3.039   2.570   1.941  0.2975 -0.6095 -0.1982
 4062TIP3   OH233744   1.585   0.429   2.132  0.0840 -0.2503 -0.0550
 4062TIP3    H133745   1.508   0.460   2.085 -0.1767 -0.6084  0.1248
 4062TIP3    H233746   1.550   0.366   2.196  0.2817  1.1352  1.4823
 4063TIP3   OH233747   5.940   5.098   2.501 -0.5016  0.0906  0.3390
 4063TIP3    H133748   6.014   5.069   2.554 -1.1456 -1.8099  0.2526
 4063TIP3    H233749   5.952   5.055   2.416 -0.4382  1.6886 -0.5018
 4064TIP3   OH233750   5.256   5.676   8.505  0.4311  0.1040  0.0957
 4064TIP3    H133751   5.226   5.706   8.590 -0.6506 -0.0694 -0.2070
 4064TIP3    H233752   5.191   5.711   8.443  0.2686 -1.1522 -0.4687
 4065TIP3   OH233753   6.838   4.597   8.161  0.2253  0.3591  0.4808
 4065TIP3    H133754   6.922   4.552   8.159  0.3753  0.6232 -1.3777
 4065TIP3    H233755   6.794   4.569   8.080 -1.8147 -0.3830  1.7571
 4066TIP3   OH233756   1.350   6.265   7.809  0.2048  0.2117  0.2445
 4066TIP3    H133757   1.301   6.336   7.850 -0.7529  0.9318 -1.9653
 4066TIP3    H233758   1.294   6.188   7.819  0.7076  0.0137  1.6277
 4067TIP3   OH233759   0.996   0.920   0.017  0.6271  0.1645 -0.5908
 4067TIP3    H133760   0.940   0.993   0.044 -0.3214 -0.8091  0.1546
 4067TIP3    H233761   0.975   0.907  -0.075 -0.8732 -0.5688 -0.1846
 4068TIP3   OH233762   2.403   1.199   2.088 -0.2424 -0.3371 -0.7209
 4068TIP3    H133763   2.344   1.252   2.034 -0.3166  0.9047  0.5366
 4068TIP3    H233764   2.491   1.229   2.064 -0.0885 -1.7139 -2.0963
 4069TIP3   OH233765   5.631   1.347   8.078 -0.0600 -0.0307 -0.2922
 4069TIP3    H133766   5.647   1.441   8.077  3.4772 -0.5070 -0.3598
 4069TIP3    H233767   5.620   1.324   7.985  0.2517  0.1547 -0.3754
 4070TIP3   OH233768   1.385   6.697   3.304 -0.3007  0.2452  0.2718
 4070TIP3    H133769   1.471   6.718   3.269 -0.5052 -0.1010 -0.4631
 4070TIP3    H233770   1.392   6.712   3.398  0.3186  1.0114  0.1066
 4071TIP3   OH233771   2.494   0.366   1.463 -0.4176 -0.0180  0.0067
 4071TIP3    H133772   2.516   0.303   1.531  0.5183  0.9517  0.6390
 4071TIP3    H233773   2.508   0.451   1.504 -1.6996  0.6086 -0.8149
 4072TIP3   OH233774   1.659   6.420   7.985 -0.0137 -0.5922  0.3125
 4072TIP3    H133775   1.647   6.514   7.999  1.7391 -0.5030  1.4256
 4072TIP3    H233776   1.706   6.414   7.902 -1.5511 -0.6237 -0.6131
 4073TIP3   OH233777   5.011   1.270   8.481  0.5321  0.1652 -0.3621
 4073TIP3    H133778   5.069   1.196   8.500 -0.5796 -0.4345  0.7919
 4073TIP3    H233779   5.071   1.344   8.469  1.5829 -0.6127 -0.0686
 4074TIP3   OH233780   2.681   6.080   3.079 -0.1792  0.0580  0.0421
 4074TIP3    H133781   2.628   6.099   3.157  0.0159  0.1595  0.1491
 4074TIP3    H233782   2.730   6.002   3.103  1.2180  1.0939  0.6824
 4075TIP3   OH233783   2.704   4.886   1.781 -0.2679  0.3217  0.1773
 4075TIP3    H133784   2.623   4.859   1.738  0.1594  1.4766 -1.4608
 4075TIP3    H233785   2.701   4.981   1.782  0.9364  0.3834  0.3544
 4076TIP3   OH233786   3.613   2.679   1.024 -0.3236  1.0263 -0.0651
 4076TIP3    H133787   3.585   2.623   0.951 -0.8073  0.8481  0.2478
 4076TIP3    H233788   3.708   2.678   1.021 -0.2842 -0.6783  0.5652
 4077TIP3   OH233789   6.550   0.510   1.818 -0.3847  0.3296 -0.1513
 4077TIP3    H133790   6.530   0.423   1.852  1.4687 -0.1647 -0.1981
 4077TIP3    H233791   6.466   0.556   1.818 -1.6223 -1.7658 -1.0907
 4078TIP3   OH233792   2.732   1.181   2.346 -0.3080 -0.7916  0.5106
 4078TIP3    H133793   2.739   1.117   2.275  1.0574 -3.0366  2.5141
 4078TIP3    H233794   2.793   1.251   2.323  0.7089 -1.8721 -0.1772
 4079TIP3   OH233795   2.972   5.082   1.038 -0.4750  0.0611 -0.3225
 4079TIP3    H133796   3.053   5.048   1.076 -0.1260 -0.0466 -1.1472
 4079TIP3    H233797   2.996   5.111   0.950 -1.3127  0.0976 -0.5551
 4080TIP3   OH233798   2.775   4.796   3.336  0.0100 -0.6418  0.0204
 4080TIP3    H133799   2.737   4.751   3.260 -2.4703 -1.9964  1.9087
 4080TIP3    H233800   2.857   4.749   3.353  1.1723  0.3621 -2.3444
 4081TIP3   OH233801   3.490   0.285   7.482 -0.2526  0.4800 -0.0467
 4081TIP3    H133802   3.506   0.324   7.396  2.5735 -0.4143 -0.0312
 4081TIP3    H233803   3.542   0.338   7.543  1.3688 -1.4717  0.3831
 4082TIP3   OH233804   0.848   3.882   8.320 -0.0919 -0.7159 -0.1918
 4082TIP3    H133805   0.836   3.975   8.300  1.0603 -0.1550  1.4774
 4082TIP3    H233806   0.912   3.852   8.256  2.3200  0.6151  1.4498
 4083TIP3   OH233807   2.752   4.193   3.391  0.3240  0.4523 -1.0228
 4083TIP3    H133808   2.668   4.222   3.355  0.5396  2.0247 -0.3658
 4083TIP3    H233809   2.815   4.209   3.321  0.2031  0.0134 -1.2360
 4084TIP3   OH233810   1.773   0.872   7.867 -0.6949 -0.4427  0.1807
 4084TIP3    H133811   1.709   0.891   7.798  0.1386 -1.2184 -0.8366
 4084TIP3    H233812   1.847   0.928   7.848  0.2100 -1.8464 -0.5582
 4085TIP3   OH233813   0.845   4.087   7.382  0.6222 -0.0310 -0.0127
 4085TIP3    H133814   0.802   4.017   7.334  0.9436 -0.5557  0.4502
 4085TIP3    H233815   0.796   4.094   7.464  1.0981 -0.2813  0.2954
 4086TIP3   OH233816   1.346   2.268   1.578  0.1369  0.1415 -0.7263
 4086TIP3    H133817   1.422   2.253   1.522 -0.4086 -1.8529 -0.9887
 4086TIP3    H233818   1.271   2.245   1.524 -0.4398 -1.1801  0.5641
 4087TIP3   OH233819   5.441   5.070   1.134 -0.3049  0.4351 -0.4988
 4087TIP3    H133820   5.361   5.064   1.186  0.8650  1.2590  1.5117
 4087TIP3    H233821   5.415   5.037   1.047 -2.3464 -1.0169  0.5518
 4088TIP3   OH233822   4.760   2.620   1.919  0.7091  0.4545  0.3865
 4088TIP3    H133823   4.724   2.531   1.912  2.5252 -0.3772  0.9079
 4088TIP3    H233824   4.695   2.667   1.971 -0.3967 -0.5008 -0.0746
 4089TIP3   OH233825   1.199   5.879   1.594 -0.2040  0.5779 -0.1389
 4089TIP3    H133826   1.206   5.811   1.527  1.1097  1.2200 -0.6809
 4089TIP3    H233827   1.173   5.832   1.674  0.9284 -0.5922 -0.4375
 4090TIP3   OH233828   3.855   2.158   0.388 -0.0018 -0.2706 -0.0556
 4090TIP3    H133829   3.931   2.194   0.435  1.4459 -1.9443 -0.9678
 4090TIP3    H233830   3.843   2.071   0.426  0.3490 -1.1271 -1.8175
 4091TIP3   OH233831   1.147   1.443   0.502 -0.0105 -0.7593 -0.4569
 4091TIP3    H133832   1.210   1.392   0.553 -0.6890 -1.4347 -0.2817
 4091TIP3    H233833   1.084   1.475   0.566  0.1267 -0.0987 -0.6370
 4092TIP3   OH233834   1.546   4.385   0.234  0.2980 -0.2220  0.0519
 4092TIP3    H133835   1.633   4.380   0.195 -0.9390 -0.7713 -2.9072
 4092TIP3    H233836   1.494   4.437   0.173 -1.7292 -0.8548  1.1160
 4093TIP3   OH233837   3.983   4.838   1.950 -0.3827 -0.2762 -0.1385
 4093TIP3    H133838   3.980   4.769   2.017  0.7472  0.4295  0.6838
 4093TIP3    H233839   4.072   4.833   1.915 -0.4010  0.5174 -0.3174
 4094TIP3   OH233840   2.649   4.179   0.576 -0.4427  0.5565  0.3246
 4094TIP3    H133841   2.575   4.189   0.636 -0.8302 -1.4123  0.2522
 4094TIP3    H233842   2.700   4.107   0.614  0.4288  0.6482 -0.6357
 4095TIP3   OH233843   1.772   2.699   1.005 -0.4832  0.0143  0.7112
 4095TIP3    H133844   1.839   2.744   0.954 -0.6442 -0.4723  0.0519
 4095TIP3    H233845   1.807   2.696   1.094  0.9701 -1.3266  0.1514
 4096TIP3   OH233846   4.882   5.956   7.730 -0.0633 -0.6159 -0.1192
 4096TIP3    H133847   4.816   5.936   7.664  0.2714 -1.3273 -0.2494
 4096TIP3    H233848   4.841   5.932   7.813 -1.3107  2.2736  0.2219
 4097TIP3   OH233849   4.569   5.132   8.084  0.1415 -0.8092  0.1718
 4097TIP3    H133850   4.526   5.148   8.000  1.3130 -0.2059 -0.3368
 4097TIP3    H233851   4.571   5.036   8.092  0.7542 -0.8995 -0.8893
 4098TIP3   OH233852   6.735   5.104   1.875  0.0599  0.0766  0.4672
 4098TIP3    H133853   6.811   5.061   1.915 -1.6057 -1.5530  2.1091
 4098TIP3    H233854   6.675   5.120   1.948 -1.3674  0.9117 -0.8286
 4099TIP3   OH233855   1.078   4.051   7.777  0.5849 -0.1640 -0.4047
 4099TIP3    H133856   1.168   4.019   7.783  0.8964  0.9119  1.5917
 4099TIP3    H233857   1.081   4.121   7.713  0.7782 -1.2621 -1.6364
 4100TIP3   OH233858   1.153   6.077   7.946  0.4038  0.3789 -0.0394
 4100TIP3    H133859   1.138   6.092   8.039 -0.4611  0.6477 -0.2113
 4100TIP3    H233860   1.215   6.004   7.943 -1.3543 -1.2231  0.7379
 4101TIP3   OH233861   6.568   4.925   2.465  0.1352  0.5529 -0.2002
 4101TIP3    H133862   6.474   4.926   2.447  0.3382  1.5717 -1.3152
 4101TIP3    H233863   6.602   4.858   2.406  0.2262  0.7572 -0.3755
 4102TIP3   OH233864   5.821   5.533   0.961 -0.2606 -0.1593  0.7811
 4102TIP3    H133865   5.739   5.496   0.992  0.2003 -1.5190  0.4473
 4102TIP3    H233866   5.867   5.460   0.919  2.1234 -0.0724  2.9318
 4103TIP3   OH233867   1.864   2.724   0.396  0.0912  0.2732 -0.4902
 4103TIP3    H133868   1.924   2.666   0.348  0.3785  1.6532 -1.8614
 4103TIP3    H233869   1.785   2.672   0.407  1.2073 -1.3024  0.6245
 4104TIP3   OH233870   4.868   2.879   2.307  0.0422 -0.3745 -0.1181
 4104TIP3    H133871   4.795   2.936   2.328  0.5325 -0.4879  2.1779
 4104TIP3    H233872   4.833   2.790   2.319  0.5286 -0.4291  0.9640
 4105TIP3   OH233873   1.606   2.164   2.862  0.1363  0.6145 -0.3929
 4105TIP3    H133874   1.609   2.258   2.846 -0.6014  0.4501 -1.6300
 4105TIP3    H233875   1.513   2.143   2.863  0.2878 -0.0653  0.1324
 4106TIP3   OH233876   0.991   0.282   7.954  0.1372 -0.3329  0.1629
 4106TIP3    H133877   0.923   0.218   7.935 -0.6954  0.3531  0.7615
 4106TIP3    H233878   0.967   0.359   7.903  0.4490 -0.0735  0.4028
 4107TIP3   OH233879   3.567   5.308   1.688  0.6730  0.3186 -0.5427
 4107TIP3    H133880   3.648   5.353   1.713  0.7098  1.0182 -1.8420
 4107TIP3    H233881   3.498   5.357   1.733  0.8502  0.7069 -0.6835
 4108TIP3   OH233882   6.731   4.769   1.249 -0.1330  0.7068 -0.7255
 4108TIP3    H133883   6.772   4.693   1.208 -1.0503 -0.3681  0.2568
 4108TIP3    H233884   6.798   4.837   1.247  0.9066 -0.2941 -1.1371
 4109TIP3   OH233885   2.117   2.188   1.696 -0.5507 -0.0311 -0.3699
 4109TIP3    H133886   2.150   2.131   1.626 -1.5687  0.6812 -1.4853
 4109TIP3    H233887   2.113   2.274   1.656 -0.9693  0.4394  0.6529
 4110TIP3   OH233888   4.461   4.103   2.604 -0.2912 -0.5069  0.1271
 4110TIP3    H133889   4.489   4.062   2.686  1.0740 -1.8433 -0.9428
 4110TIP3    H233890   4.537   4.096   2.547 -0.1584  3.0958 -0.3498
 4111TIP3   OH233891   2.466   4.358   2.553 -0.1796  0.2708 -0.0153
 4111TIP3    H133892   2.528   4.344   2.625  0.2584 -1.1286 -0.6467
 4111TIP3    H233893   2.512   4.330   2.475 -0.3422  2.5601 -1.0162
 4112TIP3   OH233894   5.492   2.066   0.757  0.6077 -0.4530  0.1050
 4112TIP3    H133895   5.565   2.056   0.695  1.4500 -1.1459  1.1733
 4112TIP3    H233896   5.508   2.000   0.824 -1.1499 -0.7747  0.2550
 4113TIP3   OH233897   5.125   3.711   1.094  0.0872  0.4691  0.4081
 4113TIP3    H133898   5.146   3.664   1.013  0.4042 -2.0685  1.8414
 4113TIP3    H233899   5.032   3.730   1.088 -0.3404 -1.4924  0.2574
 4114TIP3   OH233900   5.805   2.280   8.135  0.5212  0.2221 -0.5489
 4114TIP3    H133901   5.718   2.268   8.098 -0.0568  0.7124  0.6139
 4114TIP3    H233902   5.811   2.373   8.155 -0.9266 -0.5125  4.5556
 4115TIP3   OH233903   6.017   6.308   7.639 -0.4769  1.0048  0.2052
 4115TIP3    H133904   5.972   6.374   7.692 -1.8930  0.4069 -0.1930
 4115TIP3    H233905   5.970   6.310   7.555  0.0714  0.1424 -0.1254
 4116TIP3   OH233906   6.436   1.963   0.748 -0.1839 -0.2781 -1.1112
 4116TIP3    H133907   6.371   1.987   0.683 -0.3313  1.7874 -0.2857
 4116TIP3    H233908   6.396   1.892   0.798 -1.3160  0.1720 -1.3563
 4117TIP3   OH233909   1.491   0.946   8.676 -0.2708 -0.3466 -0.1305
 4117TIP3    H133910   1.407   0.958   8.720  0.2318  1.6036  0.4075
 4117TIP3    H233911   1.547   0.903   8.740 -0.6472 -1.0020 -0.2386
 4118TIP3   OH233912   5.129   3.824   0.707 -0.3330 -0.1709 -0.2214
 4118TIP3    H133913   5.164   3.808   0.619  0.5971  0.7428 -0.0451
 4118TIP3    H233914   5.163   3.910   0.730  1.3749 -1.3382  1.9674
 4119TIP3   OH233915   6.084   5.395   2.295 -0.9286 -0.0394 -0.1572
 4119TIP3    H133916   6.170   5.363   2.322  0.8357  0.9207 -3.9700
 4119TIP3    H233917   6.081   5.486   2.325 -0.5809 -0.0465 -0.1006
 4120TIP3   OH233918   3.318   6.790   2.972 -0.0624  0.2153 -0.5363
 4120TIP3    H133919   3.244   6.749   2.926  0.8215 -1.0609 -0.8577
 4120TIP3    H233920   3.375   6.718   2.994 -0.1405  0.8606  2.0534
 4121TIP3   OH233921   4.859   3.107   1.409 -0.2813  0.2511  0.4019
 4121TIP3    H133922   4.870   3.059   1.491 -1.3346 -0.3465  0.2045
 4121TIP3    H233923   4.949   3.125   1.380  0.1117 -0.4131  1.1705
 4122TIP3   OH233924   5.168   0.144   3.523 -0.2343  0.5351 -0.1669
 4122TIP3    H133925   5.245   0.100   3.488 -1.0490 -2.1368  1.1570
 4122TIP3    H233926   5.107   0.150   3.449  0.3229  0.4528 -0.6346
 4123TIP3   OH233927   2.188   6.025   0.366  0.0961  0.2678  0.7353
 4123TIP3    H133928   2.237   5.983   0.295  1.3851  1.8313  0.6509
 4123TIP3    H233929   2.213   5.975   0.444  1.1389  0.4811  0.5546
 4124TIP3   OH233930   3.469   1.653   2.775 -0.4413 -0.2533  0.0201
 4124TIP3    H133931   3.449   1.697   2.692  3.2630  1.5454 -0.1388
 4124TIP3    H233932   3.412   1.696   2.839 -2.1456 -0.4742 -1.2613
 4125TIP3   OH233933   1.074   5.213   0.039  0.1008 -0.0897 -0.3010
 4125TIP3    H133934   1.159   5.177   0.015 -0.2948 -1.1608 -0.1607
 4125TIP3    H233935   1.022   5.211  -0.042 -0.4589 -1.4485  0.0616
 4126TIP3   OH233936   6.077   1.102   1.334  0.5642 -0.0400  0.8898
 4126TIP3    H133937   6.075   1.166   1.262 -2.7166 -1.1331 -0.2057
 4126TIP3    H233938   6.036   1.148   1.407 -0.4125 -0.3486  0.5590
 4127TIP3   OH233939   5.163   0.299   1.086 -0.3385 -0.2397  0.7174
 4127TIP3    H133940   5.220   0.313   1.162 -0.4187  1.2931  0.5377
 4127TIP3    H233941   5.222   0.306   1.011 -0.7186  1.4552  0.5253
 4128TIP3   OH233942   1.942   3.931   0.130 -0.3379  0.1483  0.2633
 4128TIP3    H133943   1.860   3.885   0.147 -1.5903  2.6320  1.4391
 4128TIP3    H233944   1.920   3.995   0.062  1.1747 -0.4323 -0.8368
 4129TIP3   OH233945   2.871   0.971   3.593 -0.7756 -0.1767 -0.3856
 4129TIP3    H133946   2.930   0.911   3.640 -2.3570 -1.2821  0.3010
 4129TIP3    H233947   2.871   1.051   3.646 -0.4856 -0.4487  0.0326
 4130TIP3   OH233948   3.194   2.367   8.099  0.3860 -0.3054  0.0724
 4130TIP3    H133949   3.236   2.453   8.102  0.2202 -0.2336  0.4106
 4130TIP3    H233950   3.218   2.332   8.013  0.0956  0.2562 -0.2467
 4131TIP3   OH233951   6.148   5.739   1.937 -0.0796  0.5867 -0.1147
 4131TIP3    H133952   6.176   5.793   2.011  0.0712  2.1065 -1.2441
 4131TIP3    H233953   6.092   5.797   1.885 -0.5626 -0.6018 -0.9514
 4132TIP3   OH233954   3.360   6.765   1.377 -0.2243 -0.2793 -0.3130
 4132TIP3    H133955   3.422   6.837   1.362 -1.6949  1.4005  1.1420
 4132TIP3    H233956   3.298   6.771   1.304 -0.4094  0.0320 -0.1352
 4133TIP3   OH233957   3.683   4.925   0.073  0.0334  0.3862 -0.2481
 4133TIP3    H133958   3.634   4.872   0.137 -0.4554  0.0683 -0.8759
 4133TIP3    H233959   3.748   4.971   0.126  0.2515 -0.5774  0.3682
 4134TIP3   OH233960   6.327   2.605   1.211  0.2379 -0.1034  0.0854
 4134TIP3    H133961   6.293   2.635   1.295 -1.1530  0.8182 -0.7769
 4134TIP3    H233962   6.374   2.524   1.232  0.5575  0.4903  1.8457
 4135TIP3   OH233963   2.528   3.025   2.499 -0.0843 -0.0260 -0.0319
 4135TIP3    H133964   2.522   3.079   2.578  2.4030 -2.1917  1.8251
 4135TIP3    H233965   2.616   3.041   2.466 -0.4085 -0.6395 -1.2390
 4136TIP3   OH233966   2.095   2.295   0.827  0.3096  0.9305  0.1919
 4136TIP3    H133967   2.038   2.219   0.839 -0.1237  1.2187 -0.0302
 4136TIP3    H233968   2.102   2.334   0.914  1.1230  0.2281  0.4551
 4137TIP3   OH233969   3.067   1.562   2.520  0.0294 -0.4850 -0.0371
 4137TIP3    H133970   3.144   1.512   2.493 -0.3174 -0.5325 -0.9503
 4137TIP3    H233971   3.031   1.512   2.593  0.6607 -0.6469  0.1728
 4138TIP3   OH233972   5.894   5.977   1.315 -0.2452  1.1038 -0.2617
 4138TIP3    H133973   5.923   5.906   1.258  1.3350  0.4083  1.3216
 4138TIP3    H233974   5.954   6.049   1.296 -0.4357  1.2556 -0.2862
 4139TIP3   OH233975   0.290   4.714   3.271  0.0101  0.1097  0.2004
 4139TIP3    H133976   0.225   4.760   3.219  1.2254  1.7846  0.0971
 4139TIP3    H233977   0.372   4.760   3.255  0.9506 -1.0064  1.4919
 4140TIP3   OH233978   4.786   5.423   8.078  0.1526 -0.6986 -0.1085
 4140TIP3    H133979   4.783   5.329   8.092 -0.5713 -0.9230 -1.5480
 4140TIP3    H233980   4.724   5.439   8.007 -2.3026  1.3032  2.2277
 4141TIP3   OH233981   2.071   0.019   0.822  0.4204  0.0148  0.1764
 4141TIP3    H133982   2.155   0.063   0.822  1.0082 -1.0297  1.5391
 4141TIP3    H233983   2.045   0.015   0.730  1.1089  1.6944 -0.1121
 4142TIP3   OH233984   0.710   0.135   0.188 -0.3276 -0.3154  0.4339
 4142TIP3    H133985   0.669   0.178   0.263 -0.5352  0.1113  0.0757
 4142TIP3    H233986   0.693   0.042   0.202 -1.7501 -0.1224  0.0939
 4143TIP3   OH233987   6.461   1.802   0.100 -0.2546  0.2853 -0.1287
 4143TIP3    H133988   6.458   1.894   0.075  0.1729  0.1335 -0.7593
 4143TIP3    H233989   6.377   1.766   0.070  0.2240  0.1225 -1.2922
 4144TIP3   OH233990   6.503   2.137   7.125  0.0033  0.3806  0.0137
 4144TIP3    H133991   6.560   2.103   7.056 -0.0569  0.0451  0.1262
 4144TIP3    H233992   6.556   2.132   7.204 -0.7265 -1.5514  0.4408
 4145TIP3   OH233993   3.984   5.326   0.822  0.1066 -0.1313 -0.1278
 4145TIP3    H133994   4.064   5.283   0.791  0.2410 -2.0991  2.5412
 4145TIP3    H233995   3.915   5.292   0.765  0.4982 -2.6499  0.7508
 4146TIP3   OH233996   1.462   5.242   8.390  0.2538 -0.0562  0.4538
 4146TIP3    H133997   1.372   5.274   8.382  0.5896  1.3824  1.8401
 4146TIP3    H233998   1.455   5.148   8.380 -1.2705  0.1099 -0.3980
 4147TIP3   OH233999   2.678   1.060   1.512 -0.5346  0.2712  0.3698
 4147TIP3    H134000   2.678   1.080   1.606  0.8003 -0.1561  0.4861
 4147TIP3    H234001   2.712   1.139   1.470  1.7706 -0.5452  0.5536
 4148TIP3   OH234002   6.553   3.914   3.482  0.1854  0.1815  0.0627
 4148TIP3    H134003   6.502   3.868   3.548  2.6181 -1.3325  1.0324
 4148TIP3    H234004   6.597   3.845   3.433 -0.2331  1.3421 -2.1001
 4149TIP3   OH234005   6.803   1.698   8.217 -0.0161  0.1643 -0.0811
 4149TIP3    H134006   6.789   1.619   8.270  0.3895  1.1388  1.5466
 4149TIP3    H234007   6.898   1.708   8.214  0.0391 -0.4752 -1.9871
 4150TIP3   OH234008   0.443   4.011   0.660 -0.0162 -0.9929  0.1309
 4150TIP3    H134009   0.360   3.965   0.663 -1.0000  0.5278 -1.5754
 4150TIP3    H234010   0.479   4.004   0.749 -2.1839 -1.2584  1.0320
 4151TIP3   OH234011   0.082   6.440   1.804  1.0229 -0.0365 -0.1530
 4151TIP3    H134012  -0.003   6.475   1.830  0.0801 -1.1885 -1.5395
 4151TIP3    H234013   0.135   6.444   1.884 -0.0763  1.3936  0.5482
 4152TIP3   OH234014   3.119   0.664   1.529  0.3168 -0.4041  0.2979
 4152TIP3    H134015   3.036   0.687   1.487  0.5497 -0.2943 -0.1040
 4152TIP3    H234016   3.097   0.590   1.586  0.1201 -0.9866 -0.5148
 4153TIP3   OH234017   6.178   0.941   8.471 -0.1323 -0.1935 -0.1317
 4153TIP3    H134018   6.158   0.890   8.550 -1.1828  0.0517 -0.2216
 4153TIP3    H234019   6.272   0.928   8.457 -0.1341 -1.0807  0.5648
 4154TIP3   OH234020   1.027   6.748   1.341  0.0604 -0.1485  0.6754
 4154TIP3    H134021   1.057   6.665   1.303  0.3834 -0.0740  0.7576
 4154TIP3    H234022   1.019   6.807   1.266 -1.4380 -0.6072  0.4383
 4155TIP3   OH234023   1.150   3.011   2.907 -0.3952 -0.0375 -0.4228
 4155TIP3    H134024   1.055   3.012   2.919 -0.2172 -0.9160  1.4800
 4155TIP3    H234025   1.163   3.022   2.813 -2.4189 -0.9263 -0.8472
 4156TIP3   OH234026   3.773   5.955   7.471 -0.1518 -0.6974  0.0481
 4156TIP3    H134027   3.732   5.947   7.385 -2.5716 -0.6541  1.1153
 4156TIP3    H234028   3.827   5.877   7.480  2.1245  0.4473 -2.4168
 4157TIP3   OH234029   6.660   4.650   0.003  0.0209 -0.2076  0.0818
 4157TIP3    H134030   6.668   4.554   0.002 -0.1742 -0.2405 -1.4035
 4157TIP3    H234031   6.729   4.679   0.062  1.4696 -1.1860 -1.0390
 4158TIP3   OH234032   0.680   0.870   1.157  0.1002 -0.3846  0.4130
 4158TIP3    H134033   0.740   0.944   1.159  0.4932 -0.7087  0.8263
 4158TIP3    H234034   0.678   0.843   1.065  2.0139 -1.5066  0.6431
 4159TIP3   OH234035   4.028   0.799   0.385 -0.2179  0.1135 -0.1808
 4159TIP3    H134036   4.018   0.755   0.470  0.1732  2.2241  1.0198
 4159TIP3    H234037   4.048   0.728   0.324 -1.1888 -1.5568  1.3392
 4160TIP3   OH234038   1.918   5.260   2.516 -0.2108 -0.1352 -0.0332
 4160TIP3    H134039   1.902   5.230   2.605 -0.5215 -0.1492 -0.0922
 4160TIP3    H234040   2.013   5.253   2.505 -0.2259 -0.6203  0.1189
 4161TIP3   OH234041   4.033   0.995   8.035 -0.2440 -0.3592 -0.5883
 4161TIP3    H134042   4.064   1.071   7.986 -0.7340  0.3765  0.2144
 4161TIP3    H234043   4.108   0.935   8.034  0.5636  0.5984 -0.3021
 4162TIP3   OH234044   1.776   0.406   1.420 -0.0363 -0.3494  0.0344
 4162TIP3    H134045   1.806   0.474   1.480  1.0223  0.1712 -1.0730
 4162TIP3    H234046   1.849   0.390   1.361 -1.1138 -0.7288 -1.2518
 4163TIP3   OH234047   5.448   4.270   2.841  0.1194 -0.0128 -0.2827
 4163TIP3    H134048   5.407   4.283   2.756 -3.2363  0.1384  1.1994
 4163TIP3    H234049   5.396   4.323   2.901  2.0042 -0.5687  1.9774
 4164TIP3   OH234050   5.942   0.892   7.438  0.1985 -0.2798  0.4170
 4164TIP3    H134051   5.858   0.846   7.444  1.0765 -1.8357  1.7551
 4164TIP3    H234052   5.951   0.936   7.522  0.3645  0.5745 -0.0407
 4165TIP3   OH234053   4.583   2.427   7.661  0.3077  0.0659 -0.1814
 4165TIP3    H134054   4.539   2.390   7.585  2.1023  0.7290 -1.6018
 4165TIP3    H234055   4.673   2.396   7.654  0.3931 -0.3363  2.0207
 4166TIP3   OH234056   6.412   1.273   2.440  0.1340 -0.8399 -0.1562
 4166TIP3    H134057   6.403   1.347   2.500  0.9856 -1.8006  1.2132
 4166TIP3    H234058   6.322   1.241   2.429 -0.1019 -0.3081  0.1575
 4167TIP3   OH234059   1.463   3.967   1.815  0.0030  0.1974 -0.2022
 4167TIP3    H134060   1.520   3.992   1.741  0.5005 -0.3067  0.0032
 4167TIP3    H234061   1.520   3.916   1.873 -0.9553 -1.4230 -0.6005
 4168TIP3   OH234062   1.876   4.397   8.450 -0.3442  0.7807 -0.6787
 4168TIP3    H134063   1.897   4.445   8.370 -0.4869  0.2833 -1.0205
 4168TIP3    H234064   1.832   4.462   8.505 -1.5723  0.7671 -1.5874
 4169TIP3   OH234065   2.526   6.853   0.512 -0.1044 -0.6599  0.5436
 4169TIP3    H134066   2.437   6.826   0.490  0.0376 -0.7368  0.0625
 4169TIP3    H234067   2.578   6.774   0.502  0.6122  0.1033 -2.5109
 4170TIP3   OH234068   4.171   4.809   8.131 -0.8710  0.1285  0.2616
 4170TIP3    H134069   4.188   4.893   8.089  0.5541  0.4217  1.3204
 4170TIP3    H234070   4.139   4.753   8.061 -0.5207  1.1622 -0.7619
 4171TIP3   OH234071   2.207   5.691   1.021  0.2777 -0.1304 -0.6329
 4171TIP3    H134072   2.128   5.730   0.983 -1.8013 -3.2801  0.1306
 4171TIP3    H234073   2.180   5.659   1.107  2.7429 -0.2697  0.1714
 4172TIP3   OH234074   1.924   4.988   1.528 -0.1342 -0.4610 -0.2573
 4172TIP3    H134075   1.912   4.942   1.445  3.7026 -0.3579 -1.0471
 4172TIP3    H234076   1.897   4.924   1.594 -0.1051 -1.8290 -1.4983
 4173TIP3   OH234077   2.330   2.876   0.552 -0.1023 -0.3580 -0.1412
 4173TIP3    H134078   2.359   2.948   0.495  1.7547  0.1202  1.2872
 4173TIP3    H234079   2.250   2.843   0.511  0.4257  0.8126 -2.2648
 4174TIP3   OH234080   6.659   0.187   3.410 -0.0838  0.3791  0.0228
 4174TIP3    H134081   6.564   0.185   3.409 -0.2070 -1.5038  3.2010
 4174TIP3    H234082   6.681   0.269   3.455 -0.3108 -0.3733  1.5270
 4175TIP3   OH234083   0.558   1.170   1.548 -0.2215 -0.1175 -0.2188
 4175TIP3    H134084   0.577   1.080   1.521  1.4928  0.1660 -0.0749
 4175TIP3    H234085   0.621   1.223   1.499 -1.2216  1.0109 -0.3060
 4176TIP3   OH234086   0.750   0.226   1.911 -0.3011  0.2616 -0.1317
 4176TIP3    H134087   0.745   0.303   1.969 -0.6200  0.6882 -0.7213
 4176TIP3    H234088   0.731   0.260   1.824  0.2115 -0.3741 -0.5034
 4177TIP3   OH234089   4.114   1.329   2.410 -0.1996 -0.5457  0.2850
 4177TIP3    H134090   4.193   1.363   2.453  0.2759 -0.8125 -0.3549
 4177TIP3    H234091   4.125   1.352   2.318 -2.0638  1.6493  0.5128
 4178TIP3   OH234092   0.384   1.220   0.957 -0.1180  0.1697 -0.6210
 4178TIP3    H134093   0.372   1.147   1.018 -0.0874  1.9275  1.6368
 4178TIP3    H234094   0.342   1.191   0.876 -0.9547 -1.9555  0.5001
 4179TIP3   OH234095   0.428   1.907   8.445 -0.3588  0.3586 -0.3323
 4179TIP3    H134096   0.364   1.869   8.385  0.7216 -0.0290 -1.2781
 4179TIP3    H234097   0.455   1.834   8.501 -1.7494  0.8276  1.0498
 4180TIP3   OH234098   4.885   0.689   0.625  0.0252 -0.2486  0.1003
 4180TIP3    H134099   4.834   0.768   0.607 -0.0688 -0.1252  0.8519
 4180TIP3    H234100   4.963   0.697   0.571 -0.6381 -0.3284 -0.8882
 4181TIP3   OH234101   0.440   0.042   2.667 -0.4519  0.0692 -0.7012
 4181TIP3    H134102   0.436  -0.007   2.749 -2.0758 -1.0239 -1.3941
 4181TIP3    H234103   0.450   0.133   2.695 -0.8490 -0.2908  0.7035
 4182TIP3   OH234104   3.209   2.149   1.216  0.5435  0.1056  0.4339
 4182TIP3    H134105   3.114   2.140   1.207  0.6500 -0.5309 -0.0477
 4182TIP3    H234106   3.243   2.144   1.127  1.0301  0.4438  0.5904
 4183TIP3   OH234107   2.804   4.044   1.357  0.1383  0.3514  0.2534
 4183TIP3    H134108   2.720   4.036   1.312  0.0700  0.5078  0.3503
 4183TIP3    H234109   2.788   4.109   1.426 -0.1957 -1.0248  1.5299
 4184TIP3   OH234110   2.402   5.717   2.328 -0.4471 -0.0988  0.6654
 4184TIP3    H134111   2.309   5.730   2.308 -0.0488  1.5575 -0.2530
 4184TIP3    H234112   2.423   5.787   2.389  0.7215  0.9837 -0.9124
 4185TIP3   OH234113   3.074   0.145   8.536 -0.1198  0.1885  0.3680
 4185TIP3    H134114   2.998   0.203   8.541  1.0549  1.6780  2.4357
 4185TIP3    H234115   3.103   0.151   8.445 -0.8915  1.7093  0.1859
 4186TIP3   OH234116   0.845   4.539   3.240 -0.0981  0.5505 -0.1938
 4186TIP3    H134117   0.782   4.509   3.305  0.8699  0.1651  0.5762
 4186TIP3    H234118   0.874   4.624   3.273  0.6045  0.2265  0.0271
 4187TIP3   OH234119   0.791   6.241   0.647  0.2364 -0.8082  0.0518
 4187TIP3    H134120   0.745   6.208   0.725  1.4487 -3.0103 -0.1000
 4187TIP3    H234121   0.777   6.174   0.580  3.2322 -1.4233 -0.1131
 4188TIP3   OH234122   6.803   0.170   2.424  0.6501 -0.4783 -1.1195
 4188TIP3    H134123   6.800   0.097   2.363 -1.1178 -0.8989 -0.5769
 4188TIP3    H234124   6.827   0.131   2.508 -0.1808 -0.4259 -0.8535
 4189TIP3   OH234125   5.692   0.762   8.106  0.1150  0.3855  0.0361
 4189TIP3    H134126   5.748   0.839   8.102 -0.7393  0.9897 -1.4240
 4189TIP3    H234127   5.606   0.796   8.129 -0.2000 -0.1609 -0.2853
 4190TIP3   OH234128   0.463   4.838   1.147 -0.2103  0.2930  0.8440
 4190TIP3    H134129   0.501   4.847   1.234  0.4516  1.1401  0.4845
 4190TIP3    H234130   0.519   4.892   1.091  0.0071 -1.0670 -0.3015
 4191TIP3   OH234131   1.206   2.760   1.160 -0.3211 -0.0387  1.0921
 4191TIP3    H134132   1.161   2.747   1.077 -1.1696 -1.8931  1.7895
 4191TIP3    H234133   1.188   2.852   1.183 -1.0175  0.1726 -0.2117
 4192TIP3   OH234134   0.323   3.730   3.004 -0.1378 -0.2103  0.8268
 4192TIP3    H134135   0.276   3.790   2.946 -0.6542 -0.3504  1.0987
 4192TIP3    H234136   0.340   3.782   3.083  2.1363  0.5736 -0.0738
 4193TIP3   OH234137   3.429   6.495   1.272 -0.1358  0.0711  0.0810
 4193TIP3    H134138   3.397   6.432   1.336  1.1605  0.7190  1.4250
 4193TIP3    H234139   3.410   6.580   1.310  1.6577  0.4685  0.1879
 4194TIP3   OH234140   2.839   0.195   0.710 -0.1596 -0.3840 -0.8544
 4194TIP3    H134141   2.887   0.142   0.646  2.8483  0.0478  0.8283
 4194TIP3    H234142   2.886   0.279   0.711  0.3676 -0.6022  2.3011
 4195TIP3   OH234143   2.144   5.144   1.841  0.3801  0.4847 -0.2406
 4195TIP3    H134144   2.112   5.203   1.910  1.7134 -0.5231  1.3276
 4195TIP3    H234145   2.096   5.063   1.854  0.1031  0.5232 -0.9985
 4196TIP3   OH234146   3.660   2.306   8.151 -0.1104  0.0205  0.1270
 4196TIP3    H134147   3.618   2.268   8.075  1.2021 -2.2422  0.4256
 4196TIP3    H234148   3.747   2.332   8.120 -0.6706  2.0677  0.1514
 4197TIP3   OH234149   5.724   1.543   2.786 -0.0679 -0.0031 -0.4181
 4197TIP3    H134150   5.805   1.534   2.836 -0.3858  2.8053  0.7699
 4197TIP3    H234151   5.718   1.461   2.736  2.7105 -0.9191  0.5421
 4198TIP3   OH234152   4.353   5.990   7.739 -0.0155  0.3956  0.2385
 4198TIP3    H134153   4.374   5.910   7.690 -0.8048  0.3725 -0.0768
 4198TIP3    H234154   4.376   6.061   7.680 -0.5241  0.3766  0.0178
 4199TIP3   OH234155   5.421   3.223   1.391 -0.0314  0.0604 -0.4966
 4199TIP3    H134156   5.490   3.169   1.431 -1.0201  0.1856  1.4994
 4199TIP3    H234157   5.360   3.240   1.462 -2.4577 -0.5116 -2.3312
 4200TIP3   OH234158   1.229   5.823   8.298  0.4132  0.5815  1.2693
 4200TIP3    H134159   1.247   5.862   8.383  3.1251 -0.5002  1.2957
 4200TIP3    H234160   1.281   5.743   8.297 -0.5271 -0.0801 -0.9371
 4201TIP3   OH234161   3.380   3.808   0.619  0.3309  0.0964 -0.1929
 4201TIP3    H134162   3.330   3.852   0.551 -0.2078  0.4575  0.4183
 4201TIP3    H234163   3.467   3.795   0.581 -0.0429  0.0203 -1.0482
 4202TIP3   OH234164   1.080   3.629   8.069  0.1248 -0.4066  0.3619
 4202TIP3    H134165   1.079   3.540   8.105  1.5120  0.3379  2.3955
 4202TIP3    H234166   1.157   3.631   8.012 -0.8679 -0.9555 -1.0610
 4203TIP3   OH234167   1.100   5.873   0.212  0.0832  0.2879 -0.1375
 4203TIP3    H134168   1.072   5.785   0.238 -0.4418  0.3651 -0.4309
 4203TIP3    H234169   1.050   5.892   0.133 -1.6061  1.8044  1.2275
 4204TIP3   OH234170   2.015   3.691   3.127 -0.3380 -0.0705 -0.2238
 4204TIP3    H134171   2.025   3.639   3.206 -1.9260  1.6447  1.2043
 4204TIP3    H234172   1.927   3.670   3.095 -1.0652  1.7009  0.4470
 4205TIP3   OH234173   1.663   5.299   0.815 -0.5908  0.4664  0.1134
 4205TIP3    H134174   1.660   5.366   0.747 -0.3160  0.3570 -0.0082
 4205TIP3    H234175   1.702   5.223   0.771 -0.6044  0.3305  0.3380
 4206TIP3   OH234176   2.405   1.493   2.857 -0.6330  0.0058 -0.6409
 4206TIP3    H134177   2.379   1.557   2.791 -0.3335 -0.5836 -1.3302
 4206TIP3    H234178   2.487   1.528   2.893 -1.4017  0.9409  0.2831
 4207TIP3   OH234179   5.784   5.225   8.568  0.2323 -0.4371 -0.4474
 4207TIP3    H134180   5.809   5.224   8.660 -2.4080  2.0838  0.4428
 4207TIP3    H234181   5.693   5.195   8.567  0.3251 -0.7616 -2.2878
 4208TIP3   OH234182   1.193   4.374   1.356  0.5191 -0.1258 -0.1362
 4208TIP3    H134183   1.283   4.402   1.347 -0.2516  2.5445 -0.1892
 4208TIP3    H234184   1.165   4.407   1.441 -0.2814 -1.3605  0.1080
 4209TIP3   OH234185   1.341   0.480   1.204  0.2161 -0.0693  0.3262
 4209TIP3    H134186   1.271   0.465   1.268 -0.5627  0.2126 -0.4403
 4209TIP3    H234187   1.418   0.500   1.257 -0.2467 -0.5165  1.1924
 4210TIP3   OH234188   5.188   3.422   7.850  0.4370 -0.2301 -0.2409
 4210TIP3    H134189   5.109   3.464   7.816  0.0394  0.2829  1.2518
 4210TIP3    H234190   5.199   3.344   7.796 -1.0456 -0.2681 -0.5223
 4211TIP3   OH234191   0.330   0.473   0.328 -0.2980 -0.3807  0.4366
 4211TIP3    H134192   0.415   0.514   0.347 -0.1486 -0.0708 -0.7958
 4211TIP3    H234193   0.309   0.502   0.239 -1.7308 -0.4146  0.7433
 4212TIP3   OH234194   1.090   5.953   7.442  0.1505 -0.1983  0.1923
 4212TIP3    H134195   1.111   5.908   7.524 -1.0554 -1.4892 -0.1777
 4212TIP3    H234196   0.995   5.968   7.446  0.2059  0.4496 -0.6192
 4213TIP3   OH234197   4.474   2.274   0.638 -0.1633  0.0755 -0.4448
 4213TIP3    H134198   4.388   2.315   0.650 -0.9243 -1.9274  1.9938
 4213TIP3    H234199   4.523   2.298   0.717 -0.1140 -2.2164  0.3148
 4214TIP3   OH234200   4.589   4.244   1.456  0.7305 -0.3744 -0.0982
 4214TIP3    H134201   4.536   4.209   1.385  0.8911 -0.3307 -0.2409
 4214TIP3    H234202   4.608   4.169   1.513 -0.5357 -0.1662  0.6356
 4215TIP3   OH234203   6.161   1.142   2.492  0.0215 -0.1211 -0.0512
 4215TIP3    H134204   6.122   1.061   2.460  2.1397 -0.4762 -1.9567
 4215TIP3    H234205   6.161   1.132   2.587 -0.6599 -1.8928 -0.1963
 4216TIP3   OH234206   3.311   5.579   2.530  0.0065  0.0306 -0.2028
 4216TIP3    H134207   3.309   5.577   2.435 -2.9384  0.7318 -0.2478
 4216TIP3    H234208   3.238   5.636   2.555  0.0260 -0.9563  2.4954
 4217TIP3   OH234209   5.082   0.156   3.004  0.1733  0.2948  0.5870
 4217TIP3    H134210   5.170   0.193   3.001 -0.0143  0.7539  0.7584
 4217TIP3    H234211   5.051   0.161   2.914  0.6346 -0.6481  0.3535
 4218TIP3   OH234212   6.553   5.490   0.278 -0.6588 -0.0428 -0.0999
 4218TIP3    H134213   6.531   5.545   0.353 -0.5892 -0.1398 -0.0077
 4218TIP3    H234214   6.587   5.552   0.212  2.8897 -0.2729  1.2758
 4219TIP3   OH234215   1.901   6.598   2.601  0.3941  0.1155  0.5499
 4219TIP3    H134216   1.965   6.638   2.659  0.8421  0.9093 -0.4510
 4219TIP3    H234217   1.950   6.581   2.520 -0.4308 -0.1148  0.0852
 4220TIP3   OH234218   6.227   3.017   8.561  0.1240 -0.5675 -0.1047
 4220TIP3    H134219   6.250   3.107   8.583 -1.0679  0.0806 -1.3380
 4220TIP3    H234220   6.235   3.013   8.466 -0.5154 -1.5759 -0.1316
 4221TIP3   OH234221   6.379   1.459   8.464 -0.1322  0.6601 -0.2329
 4221TIP3    H134222   6.295   1.412   8.461  1.0426 -1.7992  1.6160
 4221TIP3    H234223   6.439   1.403   8.415  1.1014  0.7442  1.1198
 4222TIP3   OH234224   0.053   4.545   1.274 -0.2353 -0.2294  0.2509
 4222TIP3    H134225   0.145   4.569   1.285 -1.0347  1.9876  3.5158
 4222TIP3    H234226   0.031   4.496   1.354 -2.3217  1.1003  0.5779
 4223TIP3   OH234227   3.790   5.648   0.656 -0.0876  0.6303  0.4602
 4223TIP3    H134228   3.763   5.617   0.569  1.6855 -0.2506  0.1795
 4223TIP3    H234229   3.719   5.619   0.714 -0.4431 -0.3691 -0.4305
 4224TIP3   OH234230   2.053   5.715   1.675  0.6602  0.1203  0.7169
 4224TIP3    H134231   2.124   5.725   1.612 -0.3111  1.5885 -0.1748
 4224TIP3    H234232   1.987   5.664   1.629  0.3791  0.2981  0.9208
 4225TIP3   OH234233   0.788   0.336   1.664  0.2236  0.4370 -0.3727
 4225TIP3    H134234   0.808   0.282   1.588  1.8511  0.7024 -0.1734
 4225TIP3    H234235   0.750   0.416   1.628 -0.5796 -0.1073 -0.7722
 4226TIP3   OH234236   3.535   2.603   2.022 -0.3262  0.0950  0.1670
 4226TIP3    H134237   3.587   2.566   1.950  0.1214  1.4324 -0.2299
 4226TIP3    H234238   3.600   2.630   2.086 -0.5987  0.6991  0.1932
 4227TIP3   OH234239   2.461   2.359   8.049 -0.0796  0.0592  0.4520
 4227TIP3    H134240   2.506   2.274   8.053 -1.4273 -0.7078 -0.0585
 4227TIP3    H234241   2.420   2.361   7.963  0.0552  1.3051  0.4046
 4228TIP3   OH234242   4.995   3.520   0.402  0.3859 -0.3306  0.5302
 4228TIP3    H134243   5.023   3.562   0.484 -1.3119  1.9018  0.0604
 4228TIP3    H234244   5.043   3.567   0.334 -0.7766  0.1778  0.0497
 4229TIP3   OH234245   5.057   0.978   2.527 -0.3971 -0.1896  0.3559
 4229TIP3    H134246   5.134   0.973   2.471 -1.1441  0.0091 -0.7229
 4229TIP3    H234247   5.092   0.992   2.615  0.8247 -1.2636  0.0589
 4230TIP3   OH234248   5.719   5.292   2.396 -0.5777  0.5159 -0.2681
 4230TIP3    H134249   5.726   5.334   2.310 -0.9915  1.0067 -0.0713
 4230TIP3    H234250   5.776   5.216   2.391 -0.4911  0.6208 -0.9328
 4231TIP3   OH234251   3.802   4.205   0.560  0.5280 -0.3185  0.5063
 4231TIP3    H134252   3.755   4.280   0.597  0.8547  0.1731 -0.0601
 4231TIP3    H234253   3.751   4.129   0.588 -1.1932  0.2380 -0.9134
 4232TIP3   OH234254   4.332   2.284   1.957  0.2204 -0.3781  0.2092
 4232TIP3    H134255   4.324   2.357   1.895  0.8990  0.5628  1.1857
 4232TIP3    H234256   4.266   2.304   2.025  0.7626 -0.3810  0.7472
 4233TIP3   OH234257   1.265   4.263   0.354  0.7322  0.3727  0.5302
 4233TIP3    H134258   1.286   4.292   0.266  0.7153  0.1396  0.4500
 4233TIP3    H234259   1.341   4.212   0.382  1.2757  1.4556  1.1133
 4234TIP3   OH234260   0.082   0.410   8.144  0.4146  0.0458  0.3799
 4234TIP3    H134261   0.157   0.358   8.116  1.0976  0.7978  0.7429
 4234TIP3    H234262   0.098   0.426   8.238  0.4502  1.2329  0.1962
 4235TIP3   OH234263   6.386   2.544   8.410 -0.0059  0.0331  0.2794
 4235TIP3    H134264   6.450   2.523   8.342  0.2469 -0.9586  0.8086
 4235TIP3    H234265   6.301   2.529   8.370  0.0930  0.7694 -0.2342
 4236TIP3   OH234266   3.315   1.745   2.509  0.0128  0.0299 -0.3823
 4236TIP3    H134267   3.236   1.691   2.508 -0.4163  0.5981  0.7579
 4236TIP3    H234268   3.319   1.783   2.422  0.3569 -1.8545 -1.2441
 4237TIP3   OH234269   0.171   5.868   1.625 -0.2483  0.0852  0.1839
 4237TIP3    H134270   0.100   5.864   1.688 -0.0383  0.9968  0.5001
 4237TIP3    H234271   0.251   5.863   1.678 -0.0580  1.5684  0.0964
 4238TIP3   OH234272   2.924   0.815   0.639  0.1712  0.1219  0.0179
 4238TIP3    H134273   2.969   0.845   0.718  1.9198 -0.8857 -0.5223
 4238TIP3    H234274   2.976   0.853   0.567  0.0995 -0.9930 -0.6385
 4239TIP3   OH234275   2.242   4.552   7.841 -0.4703  0.3956 -0.0711
 4239TIP3    H134276   2.231   4.558   7.936 -0.8903  0.2199 -0.1093
 4239TIP3    H234277   2.277   4.464   7.826 -0.4630  0.4007 -0.0848
 4240TIP3   OH234278   6.551   0.161   1.877  0.7764  0.1188  0.2055
 4240TIP3    H134279   6.611   0.176   1.804  2.2693 -0.6497  1.2480
 4240TIP3    H234280   6.591   0.205   1.951 -1.0125  1.3945  0.4960
 4241TIP3   OH234281   5.150   5.114   2.214  0.2107  0.1565  0.2404
 4241TIP3    H134282   5.216   5.074   2.158 -0.0105  0.4437 -0.2378
 4241TIP3    H234283   5.182   5.203   2.229  0.4738 -0.0503  0.9175
 4242TIP3   OH234284   6.436   0.470   2.786 -0.0795 -0.2285  0.3906
 4242TIP3    H134285   6.438   0.516   2.702 -1.9735 -0.0471  0.4045
 4242TIP3    H234286   6.343   0.463   2.808  0.3704  0.0346  2.6559
 4243TIP3   OH234287   3.176   3.132   8.117 -0.1312 -0.2551  0.9437
 4243TIP3    H134288   3.155   3.050   8.073 -1.6833  0.5899  0.0234
 4243TIP3    H234289   3.223   3.105   8.196 -1.4803 -2.0964  1.1945
 4244TIP3   OH234290   3.699   1.075   3.564  0.5329 -0.3815 -0.1325
 4244TIP3    H134291   3.617   1.105   3.524  0.1671  0.6818  1.3571
 4244TIP3    H234292   3.674   1.047   3.652  1.7823  0.0154  0.3604
 4245TIP3   OH234293   1.872   4.249   1.197 -0.3690  0.3013 -0.1768
 4245TIP3    H134294   1.827   4.300   1.129  1.1166 -1.5904 -2.7435
 4245TIP3    H234295   1.963   4.278   1.193  0.4367 -2.1901 -1.4557
 4246TIP3   OH234296   3.856   5.845   1.474 -0.1846  0.1495  0.3036
 4246TIP3    H134297   3.938   5.807   1.504 -0.4712  0.6013  1.7416
 4246TIP3    H234298   3.855   5.830   1.380  1.7176  0.4659  0.1975
 4247TIP3   OH234299   1.346   5.021   0.366  0.2018 -0.7550  0.0600
 4247TIP3    H134300   1.412   5.051   0.429  0.5901 -0.2771 -0.5689
 4247TIP3    H234301   1.311   4.942   0.405 -1.2497  0.7650  2.0649
 4248TIP3   OH234302   6.120   3.901   2.906  0.7551  0.6897 -0.1591
 4248TIP3    H134303   6.033   3.885   2.942  1.1725 -0.9159  0.2171
 4248TIP3    H234304   6.115   3.872   2.815  1.4118 -1.4227  0.4204
 4249TIP3   OH234305   1.627   5.149   0.029 -0.1170  0.1502 -0.8152
 4249TIP3    H134306   1.684   5.206   0.080 -0.6872 -0.6106  0.7496
 4249TIP3    H234307   1.685   5.106  -0.033  0.7873  0.3964 -0.1567
 4250TIP3   OH234308   0.258   0.717   0.693  0.9619  0.1877 -0.1217
 4250TIP3    H134309   0.227   0.636   0.653  0.9147  1.2041 -2.2690
 4250TIP3    H234310   0.341   0.735   0.650  3.0514 -0.7321  3.1893
 4251TIP3   OH234311   0.219   2.090   7.534 -0.6568  0.5165 -0.1512
 4251TIP3    H134312   0.182   2.011   7.495  0.9568  0.2550 -1.2280
 4251TIP3    H234313   0.240   2.064   7.624  1.1292 -0.7791 -0.8711
 4252TIP3   OH234314   2.713   0.748   2.014  0.3025 -0.3874 -0.4033
 4252TIP3    H134315   2.801   0.727   1.982  0.2306 -2.6449  0.6660
 4252TIP3    H234316   2.668   0.663   2.018 -1.8788  0.6867 -0.7227
 4253TIP3   OH234317   3.918   0.916   0.881 -0.4245  0.1386  0.2124
 4253TIP3    H134318   3.911   0.928   0.976  1.9426 -0.5695  0.5362
 4253TIP3    H234319   3.991   0.855   0.870 -0.9876 -0.2057 -2.0668
 4254TIP3   OH234320   3.035   0.496   1.765  0.5875  0.5260 -0.1715
 4254TIP3    H134321   3.097   0.458   1.827  1.3330  0.4126 -0.9549
 4254TIP3    H234322   3.017   0.583   1.800 -0.2383 -0.1046  1.0245
 4255TIP3   OH234323   6.633   4.246   7.530  0.5658 -0.0421 -0.1317
 4255TIP3    H134324   6.563   4.234   7.465  1.3464 -0.8653 -0.8484
 4255TIP3    H234325   6.601   4.317   7.586 -1.0589 -0.7107 -0.1487
 4256TIP3   OH234326   5.438   1.129   8.665  0.2317 -0.0659 -0.4759
 4256TIP3    H134327   5.473   1.152   8.751  0.2019  0.5351 -0.6167
 4256TIP3    H234328   5.481   1.191   8.605  0.9293 -1.0517 -1.0163
 4257TIP3   OH234329   6.571   0.647   2.316  0.4735 -0.1637  0.4802
 4257TIP3    H134330   6.604   0.560   2.296 -0.3051 -0.0157 -1.7178
 4257TIP3    H234331   6.641   0.706   2.287  1.2527 -0.0188  2.5031
 4258TIP3   OH234332   4.344   1.576   0.109 -0.1688 -0.2410 -0.1098
 4258TIP3    H134333   4.433   1.610   0.111 -0.5163  0.7505 -0.8437
 4258TIP3    H234334   4.307   1.599   0.194  0.0084  0.0939 -0.1240
 4259TIP3   OH234335   0.664   3.882   7.268  0.1913  0.2488 -0.0925
 4259TIP3    H134336   0.703   3.858   7.184 -0.8626 -0.1381 -0.4885
 4259TIP3    H234337   0.665   3.801   7.319 -1.4336 -0.1657 -0.6590
 4260TIP3   OH234338   3.291   3.770   7.777  0.2216  0.5993 -0.0529
 4260TIP3    H134339   3.256   3.737   7.694 -1.5762  1.9188  0.1204
 4260TIP3    H234340   3.370   3.818   7.752 -0.2379  0.8853 -1.0068
 4261TIP3   OH234341   5.570   1.543   0.070  0.4064  0.2300  0.0777
 4261TIP3    H134342   5.598   1.531  -0.021 -1.9758 -1.6673 -0.4977
 4261TIP3    H234343   5.551   1.454   0.101 -0.5830  1.0076  1.8288
 4262TIP3   OH234344   0.173   5.273   1.324 -0.0151  0.3067 -0.2438
 4262TIP3    H134345   0.140   5.356   1.289 -1.5818 -0.6562 -1.1459
 4262TIP3    H234346   0.235   5.242   1.257 -1.3520 -0.4627 -1.1576
 4263TIP3   OH234347   6.043   4.529   0.562 -0.2570  0.8865 -0.1366
 4263TIP3    H134348   6.054   4.439   0.531 -1.6606  0.5665  0.1941
 4263TIP3    H234349   5.988   4.521   0.640  0.7841  1.9213  0.7328
 4264TIP3   OH234350   4.965   2.332   8.093  0.1369  0.1233 -0.5443
 4264TIP3    H134351   4.954   2.420   8.058  0.4737  0.3555 -0.0746
 4264TIP3    H234352   5.059   2.315   8.085  0.5535  0.8985  1.8980
 4265TIP3   OH234353   0.623   2.308   3.014 -0.8511  0.0336 -0.3160
 4265TIP3    H134354   0.649   2.399   3.003 -1.4070  0.2754  0.3367
 4265TIP3    H234355   0.544   2.311   3.068 -1.3076 -0.7832 -0.9006
 4266TIP3   OH234356   4.413   4.727   8.273  0.2457 -0.0330  0.1750
 4266TIP3    H134357   4.327   4.752   8.239 -0.4487  0.1137  1.9301
 4266TIP3    H234358   4.458   4.688   8.198 -1.6492 -0.8938 -0.5899
 4267TIP3   OH234359   5.330   0.057   7.781  0.0988  0.2804 -0.5840
 4267TIP3    H134360   5.337  -0.033   7.812 -0.5258  0.4513  0.0594
 4267TIP3    H234361   5.364   0.054   7.691 -0.8445 -0.7973 -0.9266
 4268TIP3   OH234362   6.479   6.272   1.246 -0.1676  0.0531  0.0392
 4268TIP3    H134363   6.405   6.276   1.306 -1.1438  1.7747 -1.1812
 4268TIP3    H234364   6.442   6.295   1.161  1.3851 -1.1773 -1.0291
 4269TIP3   OH234365   1.996   1.018   7.723 -0.5776  0.2767 -0.4985
 4269TIP3    H134366   2.025   1.098   7.768 -0.6726  0.7683 -1.2867
 4269TIP3    H234367   2.077   0.973   7.700 -0.5228  0.1412 -0.0429
 4270TIP3   OH234368   5.105   4.648   0.385  0.3021 -0.6325 -0.1302
 4270TIP3    H134369   5.037   4.710   0.412  0.6320  0.7944 -2.3375
 4270TIP3    H234370   5.179   4.667   0.442  0.4026  1.0854 -0.7735
 4271TIP3   OH234371   5.624   2.485   1.074  0.6780 -0.4762  0.5078
 4271TIP3    H134372   5.580   2.402   1.052  1.3589 -0.7064 -0.0131
 4271TIP3    H234373   5.708   2.480   1.030  0.5406  0.7026  0.0779
 4272TIP3   OH234374   1.421   6.732   1.171 -0.3875 -0.2136  0.4203
 4272TIP3    H134375   1.376   6.686   1.242 -0.9073  0.2859  0.4182
 4272TIP3    H234376   1.494   6.674   1.148 -0.8418 -0.8881  0.6319
 4273TIP3   OH234377   3.872   4.863   0.764  0.5419 -0.4372  0.0502
 4273TIP3    H134378   3.855   4.945   0.719 -0.0736 -0.4054  0.3220
 4273TIP3    H234379   3.790   4.844   0.811  1.4188 -0.0547  1.8116
 4274TIP3   OH234380   6.849   1.958   2.080  0.2924 -0.1971 -0.0140
 4274TIP3    H134381   6.803   2.041   2.070 -0.7357 -0.7608 -0.1303
 4274TIP3    H234382   6.937   1.982   2.109  0.5550  1.0206 -1.6944
 4275TIP3   OH234383   3.789   1.290   1.632 -0.0013 -0.0264  0.2107
 4275TIP3    H134384   3.755   1.320   1.716  0.2418  0.9129 -0.0139
 4275TIP3    H234385   3.714   1.297   1.573  0.3379  1.2960 -0.1049
 4276TIP3   OH234386   2.188   4.701   0.700 -0.4668  0.2627  0.0534
 4276TIP3    H134387   2.158   4.787   0.730  1.8210  1.1311  0.0579
 4276TIP3    H234388   2.237   4.719   0.619  0.2353 -1.0074  0.1652
 4277TIP3   OH234389   1.578   2.867   0.172  0.1995 -0.0156 -0.3147
 4277TIP3    H134390   1.631   2.855   0.093 -2.9324 -3.1175 -2.2004
 4277TIP3    H234391   1.505   2.922   0.144 -0.5966 -0.5747  0.6311
 4278TIP3   OH234392   4.754   6.724   3.211 -0.1586 -0.1715 -0.5852
 4278TIP3    H134393   4.697   6.666   3.160 -0.2190 -1.4014  0.8090
 4278TIP3    H234394   4.763   6.802   3.157 -0.2383 -1.3892 -2.4683
 4279TIP3   OH234395   0.560   2.965   8.481  0.1189  0.2928  0.1548
 4279TIP3    H134396   0.614   2.915   8.542 -1.0726  1.6906  2.4501
 4279TIP3    H234397   0.604   3.050   8.474 -0.7874  0.8055  0.5946
 4280TIP3   OH234398   0.781   6.228   1.144  0.0247  0.1783 -0.3358
 4280TIP3    H134399   0.867   6.187   1.138 -0.6591 -1.2346 -1.0737
 4280TIP3    H234400   0.796   6.319   1.118  1.7525  0.7391  2.2619
 4281TIP3   OH234401   5.542   5.668   2.901 -0.1964 -0.2552 -0.1932
 4281TIP3    H134402   5.513   5.701   2.986  0.3791  0.0841 -0.1247
 4281TIP3    H234403   5.629   5.704   2.890  0.4344 -1.6844 -0.1448
 4282TIP3   OH234404   6.214   4.196   0.225 -0.3122 -0.3779 -0.1484
 4282TIP3    H134405   6.295   4.177   0.177 -0.3772  0.8720 -0.8168
 4282TIP3    H234406   6.144   4.183   0.161 -0.6305 -1.1801  0.3475
 4283TIP3   OH234407   1.438   4.259   2.060  0.2027 -0.0582  0.3066
 4283TIP3    H134408   1.515   4.273   2.005 -0.6173  0.7169 -0.6715
 4283TIP3    H234409   1.440   4.331   2.123 -0.2411  0.5169 -0.3306
 4284TIP3   OH234410   1.725   6.788   8.234  0.0868  0.0901  0.2225
 4284TIP3    H134411   1.658   6.763   8.171  0.6681 -0.2851 -0.2495
 4284TIP3    H234412   1.790   6.836   8.183 -0.2901  1.3111  0.8522
 4285TIP3   OH234413   3.601   2.402   8.666 -0.5018 -0.3214  0.0369
 4285TIP3    H134414   3.590   2.367   8.577 -0.1175  0.0588 -0.1581
 4285TIP3    H234415   3.670   2.348   8.704 -0.2316 -0.0784 -0.1073
 4286TIP3   OH234416   2.317   4.893   6.930  0.0757 -0.3376  0.4430
 4286TIP3    H134417   2.230   4.916   6.963  0.0369 -1.1928  0.9745
 4286TIP3    H234418   2.316   4.920   6.839 -0.3563  0.6853  0.7354
 4287TIP3   OH234419   4.472   4.076   3.139 -0.3996  0.6768  0.4923
 4287TIP3    H134420   4.519   3.995   3.160 -0.3506  0.5620 -0.0307
 4287TIP3    H234421   4.458   4.119   3.223 -1.5731 -0.5054  0.9282
 4288TIP3   OH234422   1.132   2.955   7.985 -0.0164  0.0770 -0.4328
 4288TIP3    H134423   1.158   2.923   7.899 -0.0250  0.4641 -0.5820
 4288TIP3    H234424   1.037   2.946   7.987  0.0565 -0.7394 -0.1304
 4289TIP3   OH234425   5.887   1.749   0.770 -0.0154  0.3723 -0.0866
 4289TIP3    H134426   5.940   1.787   0.700 -0.7696  0.3072 -0.7095
 4289TIP3    H234427   5.918   1.791   0.850  0.4551  0.8821 -0.5316
 4290TIP3   OH234428   2.236   6.369   0.169  0.1856 -0.5529  0.4784
 4290TIP3    H134429   2.226   6.445   0.113 -1.3106 -1.3070 -0.3276
 4290TIP3    H234430   2.224   6.294   0.111 -0.7471 -1.3580  1.6503
 4291TIP3   OH234431   6.311   3.652   2.621  0.2191  0.3913  0.2857
 4291TIP3    H134432   6.283   3.567   2.588 -0.7786  0.8820 -0.1722
 4291TIP3    H234433   6.365   3.631   2.697  1.3508 -0.7000 -0.7692
 4292TIP3   OH234434   2.734   5.736   1.674 -0.2730  0.0811 -0.2476
 4292TIP3    H134435   2.664   5.674   1.695 -0.6194  0.9753  1.4257
 4292TIP3    H234436   2.794   5.687   1.618 -0.1404 -2.0010  1.5922
 4293TIP3   OH234437   4.865   5.622   1.425  0.1272  0.5799  0.2932
 4293TIP3    H134438   4.770   5.619   1.415  0.0353 -0.0306  1.2276
 4293TIP3    H234439   4.899   5.600   1.339 -0.5578  2.1892 -0.4250
 4294TIP3   OH234440   2.695   6.268   0.905  0.2615 -0.3196 -1.0344
 4294TIP3    H134441   2.733   6.194   0.857 -0.2999 -0.9125 -0.5900
 4294TIP3    H234442   2.767   6.302   0.957  0.5942 -0.3881 -1.4431
 4295TIP3   OH234443   5.858   1.778   2.648  0.5957 -0.1582  0.3716
 4295TIP3    H134444   5.769   1.743   2.639  1.1835 -2.2436  1.8161
 4295TIP3    H234445   5.883   1.754   2.738  2.3543  1.0562  0.2481
 4296TIP3   OH234446   4.169   3.710   1.659 -0.6159  0.0388  0.2755
 4296TIP3    H134447   4.216   3.791   1.642 -1.4727  0.7154  1.0126
 4296TIP3    H234448   4.237   3.643   1.666 -0.0279  0.1755 -2.9314
 4297TIP3   OH234449   5.254   4.920   3.260  0.2923 -0.1499  0.0276
 4297TIP3    H134450   5.223   4.883   3.342  0.6259  0.0573  0.2530
 4297TIP3    H234451   5.343   4.885   3.250 -0.1332 -1.0270 -0.7939
 4298TIP3   OH234452   3.756   1.422   2.111  0.0006 -0.0064  0.5556
 4298TIP3    H134453   3.770   1.352   2.174  2.9045  1.2146  1.4680
 4298TIP3    H234454   3.777   1.502   2.159 -3.5616  1.6695 -0.3131
 4299TIP3   OH234455   3.289   2.427   8.543  0.0648 -0.0554  0.0083
 4299TIP3    H134456   3.374   2.395   8.514 -0.3563  0.1823 -1.5393
 4299TIP3    H234457   3.228   2.357   8.523 -0.2165  0.0370  0.5107
 4300TIP3   OH234458   5.091   4.949   0.658  0.6731 -0.7797  0.1730
 4300TIP3    H134459   5.157   4.881   0.668  1.2682 -0.8022 -2.8620
 4300TIP3    H234460   5.141   5.027   0.632 -0.3294 -0.3069 -0.4074
 4301TIP3   OH234461   0.874   1.006   2.881 -0.1839 -0.5470 -0.2084
 4301TIP3    H134462   0.918   1.047   2.956 -0.7099 -1.5058  0.6414
 4301TIP3    H234463   0.805   1.069   2.858  1.5588  0.9894 -1.5746
 4302TIP3   OH234464   3.176   1.872   0.287  0.1310 -0.2308  0.3570
 4302TIP3    H134465   3.110   1.815   0.247  0.0675 -0.5424  0.8895
 4302TIP3    H234466   3.257   1.822   0.282  0.3469  0.1723 -0.3413
 4303TIP3   OH234467   2.992   4.176   8.198  0.1613 -0.1437  0.2533
 4303TIP3    H134468   2.993   4.270   8.218  2.2034 -0.2279  0.7843
 4303TIP3    H234469   2.914   4.143   8.242 -1.3470  1.4941 -1.0695
 4304TIP3   OH234470   0.381   2.912   2.178  0.8715 -0.0134  0.2923
 4304TIP3    H134471   0.364   2.942   2.088 -0.1225 -0.9414  0.1503
 4304TIP3    H234472   0.298   2.926   2.224  0.5963 -1.7500  0.4138
 4305TIP3   OH234473   5.650   0.749   0.898  0.3261 -0.4931  0.2986
 4305TIP3    H134474   5.734   0.794   0.893 -0.0910  0.5344  1.7638
 4305TIP3    H234475   5.636   0.714   0.810  1.9607 -0.1019 -0.1427
 4306TIP3   OH234476   1.292   4.245   8.551  0.6547 -0.1529  0.0015
 4306TIP3    H134477   1.339   4.241   8.467  2.2636  0.9822  0.8017
 4306TIP3    H234478   1.205   4.276   8.528  0.1317 -2.4932 -1.5548
 4307TIP3   OH234479   5.762   3.873   8.545  0.2743 -0.3051  0.1648
 4307TIP3    H134480   5.766   3.826   8.461 -0.5375  2.8063 -1.7775
 4307TIP3    H234481   5.670   3.874   8.568  0.2726  0.3340  0.1531
 4308TIP3   OH234482   1.529   5.850   2.337 -0.5318 -0.2376  0.5676
 4308TIP3    H134483   1.573   5.850   2.252 -1.6105 -1.5084 -0.0183
 4308TIP3    H234484   1.522   5.942   2.360  1.4510  0.0648  0.1936
 4309TIP3   OH234485   1.454   4.678   0.975 -0.2812  0.3320 -0.0413
 4309TIP3    H134486   1.516   4.750   0.959 -0.6842  0.6371 -0.2462
 4309TIP3    H234487   1.393   4.683   0.902 -1.7241  1.2801  1.1750
 4310TIP3   OH234488   3.228   3.512   2.886 -0.5183 -0.2070 -0.0058
 4310TIP3    H134489   3.236   3.446   2.954  0.6472 -0.6903 -0.5880
 4310TIP3    H234490   3.296   3.489   2.822 -0.3636  1.3178 -0.4221
 4311TIP3   OH234491   0.094   5.736   8.431 -0.5471  0.0276  0.5159
 4311TIP3    H134492   0.124   5.648   8.451  1.6222  0.3758 -0.9154
 4311TIP3    H234493   0.010   5.724   8.387  0.1915 -1.4008 -0.5617
 4312TIP3   OH234494   1.694   1.291   0.902  0.5003 -0.4615 -0.0606
 4312TIP3    H134495   1.744   1.289   0.984  0.3987  3.7387  0.3366
 4312TIP3    H234496   1.679   1.384   0.886 -1.0181 -1.2036 -3.9907
 4313TIP3   OH234497   5.172   1.068   8.586  0.2695 -0.3439 -0.3926
 4313TIP3    H134498   5.252   1.113   8.613 -1.3735  1.1959  2.3106
 4313TIP3    H234499   5.175   0.984   8.631  0.6507 -0.5807 -0.8479
 4314TIP3   OH234500   2.201   3.982   0.669 -0.0906  0.0877 -0.0451
 4314TIP3    H134501   2.234   3.892   0.662 -1.3796 -0.3696 -0.5082
 4314TIP3    H234502   2.277   4.037   0.646  0.5178 -0.8952 -0.4687
 4315TIP3   OH234503   6.841   0.278   8.510  0.1719 -0.0392  0.4077
 4315TIP3    H134504   6.914   0.327   8.473 -0.9525  0.9125 -0.6110
 4315TIP3    H234505   6.813   0.220   8.440 -0.5967  0.2276  0.4846
 4316TIP3   OH234506   5.035   2.545   1.686 -0.3603 -0.2173  0.7674
 4316TIP3    H134507   5.035   2.587   1.772  0.2839  0.1664  0.5875
 4316TIP3    H234508   5.064   2.455   1.703 -2.0037 -0.7153  1.1916
 4317TIP3   OH234509   1.716   2.968   8.069 -0.3511  0.3838  0.0530
 4317TIP3    H134510   1.805   2.933   8.070 -1.2136 -1.9204  1.0672
 4317TIP3    H234511   1.695   2.975   7.976  0.3371 -0.5616 -0.1903
 4318TIP3   OH234512   5.446   0.592   8.289 -0.0476 -0.4198  0.2631
 4318TIP3    H134513   5.522   0.648   8.306 -0.3457 -0.2604  1.1075
 4318TIP3    H234514   5.371   0.644   8.316 -0.5404 -0.2477 -1.3635
 4319TIP3   OH234515   6.654   2.392   1.209  0.3084  0.2050  0.1340
 4319TIP3    H134516   6.587   2.410   1.275 -0.4119  1.3973 -0.8802
 4319TIP3    H234517   6.611   2.332   1.147  1.2130 -1.4967  1.0624
 4320TIP3   OH234518   4.308   0.617   1.577  0.6143  0.1721  0.0176
 4320TIP3    H134519   4.288   0.631   1.484  0.1374 -1.1312 -0.0858
 4320TIP3    H234520   4.270   0.693   1.621 -1.9131 -0.6776 -0.5209
 4321TIP3   OH234521   4.535   2.845   7.660 -0.2149 -1.2579 -0.1638
 4321TIP3    H134522   4.600   2.902   7.620  0.7572 -0.1834  2.6839
 4321TIP3    H234523   4.452   2.889   7.645  0.4913  0.9021  1.7213
 4322TIP3   OH234524   0.076   3.293   3.421 -0.1882 -0.3082 -0.0849
 4322TIP3    H134525   0.082   3.225   3.488 -0.9743 -0.7728 -0.4771
 4322TIP3    H234526   0.152   3.280   3.366 -1.1432 -1.9183 -1.1101
 4323TIP3   OH234527   2.264   6.542   2.677 -0.2260  0.6297 -0.1198
 4323TIP3    H134528   2.358   6.540   2.661 -0.1206 -0.2825  0.5658
 4323TIP3    H234529   2.253   6.604   2.750 -0.2689  1.5036 -0.8572
 4324TIP3   OH234530   1.279   3.723   1.645  0.3023  0.5860 -0.5101
 4324TIP3    H134531   1.275   3.628   1.635  0.9361  0.2056  2.1159
 4324TIP3    H234532   1.200   3.746   1.694  1.1256  1.0917  0.6333
 4325TIP3   OH234533   2.898   1.000   1.247  0.1275 -0.1342  0.1508
 4325TIP3    H134534   2.840   0.956   1.184  0.9986  1.0594 -1.5799
 4325TIP3    H234535   2.843   1.067   1.288 -0.0724  0.1376 -0.5387
 4326TIP3   OH234536   0.811   4.816   8.640  0.0865  0.1315  0.0073
 4326TIP3    H134537   0.866   4.773   8.707 -0.3874 -1.0675 -0.3392
 4326TIP3    H234538   0.874   4.857   8.581  0.6019 -0.5275  0.0706
 4327TIP3   OH234539   2.415   4.398   2.250  0.3863 -0.1332 -0.3981
 4327TIP3    H134540   2.375   4.464   2.194 -0.7562 -0.3199  0.1629
 4327TIP3    H234541   2.391   4.424   2.339  0.2864 -1.0569 -0.1450
 4328TIP3   OH234542   4.869   5.962   8.187 -0.0692  0.0037  0.3690
 4328TIP3    H134543   4.909   5.916   8.113 -0.4887  0.8328 -0.3891
 4328TIP3    H234544   4.922   6.042   8.197  0.5731 -0.5455  1.5870
 4329TIP3   OH234545   6.250   6.792   8.182 -0.5675 -0.1599 -0.0447
 4329TIP3    H134546   6.318   6.728   8.162 -0.0442  0.1050  0.8402
 4329TIP3    H234547   6.206   6.807   8.098 -0.1720 -1.0599 -0.4298
 4330TIP3   OH234548   4.730   6.162   8.059 -0.6935 -0.5287  0.5327
 4330TIP3    H134549   4.646   6.131   8.025 -0.8395 -0.4046  0.7761
 4330TIP3    H234550   4.744   6.111   8.139  0.6841 -2.3886 -0.7855
 4331TIP3   OH234551   3.785   1.339   1.029 -0.1158  0.0086 -0.4664
 4331TIP3    H134552   3.717   1.406   1.034 -1.3693 -1.0679 -2.0743
 4331TIP3    H234553   3.818   1.331   1.119 -0.7130  1.9413 -0.0283
 4332TIP3   OH234554   5.846   6.779   2.390 -0.0506 -0.4013 -0.0950
 4332TIP3    H134555   5.908   6.759   2.320 -0.5196 -1.7253 -0.1750
 4332TIP3    H234556   5.763   6.741   2.360 -0.7778  0.8887  0.2348
 4333TIP3   OH234557   0.385   0.029   1.197 -0.2298 -0.0098 -0.7096
 4333TIP3    H134558   0.413  -0.063   1.196  2.4910  0.7503 -0.7381
 4333TIP3    H234559   0.402   0.060   1.108  1.5605  1.2324  0.0240
 4334TIP3   OH234560   1.371   5.711   0.159 -0.6192  0.7697 -0.2740
 4334TIP3    H134561   1.422   5.791   0.153  0.8110 -0.1848 -1.2766
 4334TIP3    H234562   1.432   5.641   0.138 -1.8951 -0.5860  0.3168
 4335TIP3   OH234563   6.622   1.292   3.110  0.7155  0.1071 -0.0417
 4335TIP3    H134564   6.560   1.315   3.179 -0.9534 -0.7181 -1.1880
 4335TIP3    H234565   6.579   1.220   3.063  2.2233  0.0106 -1.3365
 4336TIP3   OH234566   3.987   6.548   1.309 -0.8303  0.3042  0.5743
 4336TIP3    H134567   3.926   6.498   1.363 -1.1187  1.8769  1.7817
 4336TIP3    H234568   3.980   6.508   1.222 -0.1806 -2.4806  1.6677
 4337TIP3   OH234569   3.861   5.365   1.659 -0.3463  0.7297 -0.2765
 4337TIP3    H134570   3.852   5.349   1.565 -3.7871 -1.7970  0.2658
 4337TIP3    H234571   3.915   5.294   1.691 -0.2949  0.8156 -0.1702
 4338TIP3   OH234572   0.086   4.947   1.189 -0.4303  0.2213 -0.0804
 4338TIP3    H134573   0.084   5.014   1.120  0.1075 -0.1976 -0.5107
 4338TIP3    H234574   0.143   4.879   1.154  0.2339  0.2201  0.9757
 4339TIP3   OH234575   4.512   6.850   2.829  0.2758  0.3210  0.4861
 4339TIP3    H134576   4.436   6.884   2.876  0.1076 -0.7286  0.9866
 4339TIP3    H234577   4.515   6.758   2.851  2.3906  0.5707  1.4048
 4340TIP3   OH234578   3.132   3.256   2.610  0.3845  0.0273  0.4262
 4340TIP3    H134579   3.060   3.246   2.673  0.5380  0.6043  0.6948
 4340TIP3    H234580   3.142   3.168   2.572 -0.3572 -0.0978  0.4981
 4341TIP3   OH234581   4.855   2.314   2.780 -0.8779 -0.0524  0.6526
 4341TIP3    H134582   4.814   2.229   2.763 -0.7325 -0.5431  2.5032
 4341TIP3    H234583   4.916   2.296   2.852  0.8482  1.1600 -0.4409
 4342TIP3   OH234584   4.387   3.231   1.426 -0.1702  0.0220 -0.8688
 4342TIP3    H134585   4.475   3.201   1.448  0.2645  0.0109 -2.4774
 4342TIP3    H234586   4.377   3.313   1.474  1.6799  1.2696 -2.4416
 4343TIP3   OH234587   2.346   3.520   1.069 -0.4665  0.2043 -0.7849
 4343TIP3    H134588   2.301   3.449   1.114  1.0090 -1.6069 -2.0119
 4343TIP3    H234589   2.351   3.491   0.978 -1.4625  2.7714 -1.7679
 4344TIP3   OH234590   6.301   1.177   7.787  0.4618 -0.2493 -0.6889
 4344TIP3    H134591   6.303   1.165   7.882  0.8618 -0.5417 -0.7296
 4344TIP3    H234592   6.222   1.132   7.759 -1.8409  3.0667 -0.0948
 4345TIP3   OH234593   1.695   5.335   8.297 -0.3722 -0.3912  1.0559
 4345TIP3    H134594   1.673   5.330   8.204 -2.0319  3.3031  1.0663
 4345TIP3    H234595   1.624   5.290   8.342  0.5758 -2.4298  0.6220
 4346TIP3   OH234596   5.217   5.777   0.691  0.4092 -0.3763 -0.1459
 4346TIP3    H134597   5.240   5.865   0.661  3.4479 -1.4979 -1.4890
 4346TIP3    H234598   5.300   5.730   0.696 -1.0557 -3.1409  0.7712
 4347TIP3   OH234599   5.461   3.070   8.224  0.0782 -0.3518 -0.0061
 4347TIP3    H134600   5.416   2.991   8.255  0.9483 -1.4505 -1.4270
 4347TIP3    H234601   5.414   3.093   8.143  1.1215 -0.6590 -0.7167
 4348TIP3   OH234602   2.907   5.066   0.180 -0.1513  0.0458 -0.2878
 4348TIP3    H134603   2.952   4.982   0.185 -0.3180 -0.0598 -0.5373
 4348TIP3    H234604   2.975   5.131   0.193  0.1053 -0.1063 -0.8338
 4349TIP3   OH234605   3.884   2.645   1.451 -0.2660 -0.0416 -0.4223
 4349TIP3    H134606   3.856   2.736   1.466 -0.3793  0.0894 -1.3564
 4349TIP3    H234607   3.976   2.653   1.427 -0.6843  0.0087 -2.1438
 4350TIP3   OH234608   2.510   1.460   1.144  0.3727  0.2637 -0.2909
 4350TIP3    H134609   2.425   1.423   1.165 -0.2178  1.6152 -0.2168
 4350TIP3    H234610   2.526   1.433   1.054  0.6992 -1.4734  0.2502
 4351TIP3   OH234611   3.730   3.684   1.326 -1.0029  0.2840  0.1370
 4351TIP3    H134612   3.745   3.701   1.234 -0.9653  1.1699  0.2998
 4351TIP3    H234613   3.653   3.627   1.328 -2.0699  1.6674 -0.3661
 4352TIP3   OH234614   0.968   6.666   0.597  0.0114  0.4656 -0.5617
 4352TIP3    H134615   1.032   6.641   0.664 -0.8883  0.9447  0.5194
 4352TIP3    H234616   1.008   6.741   0.553  0.8649 -0.2144 -0.9617
 4353TIP3   OH234617   0.855   0.524   8.174 -0.8408  0.0520  1.1344
 4353TIP3    H134618   0.923   0.486   8.229  0.2349  1.8353  1.0791
 4353TIP3    H234619   0.893   0.525   8.086 -0.8130  1.2719  1.1432
 4354TIP3   OH234620   3.522   2.189   7.954  0.5746  0.2207 -0.3477
 4354TIP3    H134621   3.579   2.115   7.976 -1.7122 -1.2984  0.8953
 4354TIP3    H234622   3.480   2.163   7.872 -0.6918 -0.2059  0.4026
 4355TIP3   OH234623   1.120   5.431   2.198  0.1058  0.3221  0.5927
 4355TIP3    H134624   1.212   5.453   2.215  0.6366  0.8078 -2.3423
 4355TIP3    H234625   1.124   5.349   2.150 -0.9685  0.4545  0.2599
 4356TIP3   OH234626   1.029   3.714   1.803  0.0757  0.1246 -0.2816
 4356TIP3    H134627   0.996   3.789   1.753  0.8076  0.9001  0.3718
 4356TIP3    H234628   0.952   3.681   1.849 -0.2060  0.6553 -0.3570
 4357TIP3   OH234629   3.706   5.462   2.811  0.1567 -0.0760 -0.4363
 4357TIP3    H134630   3.796   5.435   2.833 -0.1928 -1.0340 -0.1278
 4357TIP3    H234631   3.695   5.546   2.855  1.1877  0.4834 -1.1875
 4358TIP3   OH234632   2.909   1.692   3.126  0.4535  0.1056 -0.4337
 4358TIP3    H134633   2.927   1.706   3.218 -0.2645 -1.2212 -0.0688
 4358TIP3    H234634   2.814   1.698   3.119  0.1412 -2.9583 -0.4397
 4359TIP3   OH234635   2.064   4.895   1.125 -0.4145  0.3500 -0.0449
 4359TIP3    H134636   2.060   4.801   1.107  0.5926  0.4757 -1.0222
 4359TIP3    H234637   2.147   4.923   1.087 -1.5023  1.9712 -1.3338
 4360TIP3   OH234638   0.263   1.607   7.383 -0.2678 -1.0874  0.2240
 4360TIP3    H134639   0.243   1.583   7.293  0.5321 -1.6364  0.1860
 4360TIP3    H234640   0.202   1.678   7.403  0.2412 -0.2317 -1.1003
 4361TIP3   OH234641   5.466   4.741   0.224 -0.5909  0.1150  0.2568
 4361TIP3    H134642   5.463   4.646   0.236 -1.2873  0.2170  0.9983
 4361TIP3    H234643   5.509   4.753   0.140 -1.1497 -0.8892 -0.1970
 4362TIP3   OH234644   5.730   0.144   1.838  0.1698 -0.3458 -0.4050
 4362TIP3    H134645   5.820   0.111   1.831 -0.4304 -2.0997 -0.4197
 4362TIP3    H234646   5.712   0.143   1.932  0.1714  0.0289 -0.4003
 4363TIP3   OH234647   3.347   0.461   7.785 -0.2759  0.1472  0.1416
 4363TIP3    H134648   3.278   0.512   7.741 -0.6666  0.5239  1.1665
 4363TIP3    H234649   3.420   0.460   7.722 -1.3397 -0.5997 -1.1284
 4364TIP3   OH234650   1.467   4.144   0.643 -0.1351 -0.3881  0.3589
 4364TIP3    H134651   1.545   4.125   0.591 -0.1655 -0.6293  0.4002
 4364TIP3    H234652   1.492   4.123   0.733 -0.2395 -0.4449  0.3749
 4365TIP3   OH234653   3.348   2.390   1.244  0.0018  0.1790  0.1824
 4365TIP3    H134654   3.302   2.307   1.230 -1.2976  1.0534 -1.0335
 4365TIP3    H234655   3.340   2.405   1.339 -1.4586 -0.1660  0.1491
 4366TIP3   OH234656   6.811   6.350   2.164  0.0579 -0.7688 -0.4367
 4366TIP3    H134657   6.746   6.368   2.231 -0.4753 -0.0292 -1.1275
 4366TIP3    H234658   6.882   6.305   2.210 -0.2519 -0.1974  0.6243
 4367TIP3   OH234659   0.998   4.810   2.913 -0.1295 -0.1809 -0.8517
 4367TIP3    H134660   1.065   4.877   2.920 -0.1071 -0.4165  2.2011
 4367TIP3    H234661   0.930   4.836   2.976 -0.4303 -2.6256 -0.0317
 4368TIP3   OH234662   5.876   3.430   8.235 -0.1825 -0.5947 -0.4952
 4368TIP3    H134663   5.887   3.524   8.225 -2.2689 -0.4620 -2.3462
 4368TIP3    H234664   5.792   3.420   8.279  0.1128 -1.6160 -0.1306
 4369TIP3   OH234665   4.469   5.341   1.957 -0.0928 -0.0277 -0.1833
 4369TIP3    H134666   4.450   5.294   2.038  3.6644 -2.7405 -0.6105
 4369TIP3    H234667   4.483   5.272   1.892  0.5574  1.9287 -2.2492
 4370TIP3   OH234668   1.595   6.045   3.011 -0.1453 -0.1086 -0.3934
 4370TIP3    H134669   1.516   6.092   2.986  1.1783  2.3439 -0.3326
 4370TIP3    H234670   1.580   6.019   3.102 -0.5741  1.1206 -0.0950
 4371TIP3   OH234671   3.266   6.398   8.093  0.1344 -0.1374  0.4296
 4371TIP3    H134672   3.353   6.380   8.130 -0.4290 -0.8766  1.4376
 4371TIP3    H234673   3.234   6.313   8.064  0.3598  0.3603 -1.3740
 4372TIP3   OH234674   6.225   0.878   7.956 -0.1366 -0.6595  0.0077
 4372TIP3    H134675   6.313   0.913   7.946  0.5467 -2.1948  0.2628
 4372TIP3    H234676   6.171   0.953   7.978  1.3523  0.1208  1.1572
 4373TIP3   OH234677   2.315   5.463   3.137  0.0800  0.0753 -0.1155
 4373TIP3    H134678   2.336   5.380   3.095 -0.7661 -0.0313 -0.3492
 4373TIP3    H234679   2.338   5.529   3.072 -0.1696 -0.0275 -0.3068
 4374TIP3   OH234680   1.869   0.368   2.295  0.0068 -0.1707 -0.2714
 4374TIP3    H134681   1.783   0.407   2.279  0.0757  0.5317  0.9308
 4374TIP3    H234682   1.929   0.418   2.241  0.1998  1.9444  1.7597
 4375TIP3   OH234683   0.041   0.647   0.340  0.1420  0.0738  0.1849
 4375TIP3    H134684   0.123   0.691   0.364 -0.6332  1.4819  0.3460
 4375TIP3    H234685   0.069   0.562   0.305  1.6618  0.4931  0.3052
 4376TIP3   OH234686   6.441   0.697   1.584 -0.1951 -0.0963  0.6135
 4376TIP3    H134687   6.362   0.690   1.637 -2.0400 -3.1447 -2.1691
 4376TIP3    H234688   6.485   0.613   1.594  0.7995  0.2356 -0.6407
 4377TIP3   OH234689   3.058   6.307   0.315 -0.3540 -0.4017 -0.3505
 4377TIP3    H134690   3.130   6.346   0.364  0.4708 -1.1508 -0.9361
 4377TIP3    H234691   3.100   6.248   0.253 -1.4231 -0.1210 -1.3759
 4378TIP3   OH234692   0.387   4.485   2.161 -0.0511  0.2352 -0.0158
 4378TIP3    H134693   0.295   4.462   2.172  0.0011 -0.2805 -0.5992
 4378TIP3    H234694   0.394   4.515   2.071  0.0210  1.9370  0.5247
 4379TIP3   OH234695   0.225   0.544   1.804  0.1488  0.0887 -0.1556
 4379TIP3    H134696   0.158   0.599   1.764  0.1283 -1.5673 -2.6047
 4379TIP3    H234697   0.179   0.463   1.828  0.5425  0.3664  1.7222
 4380TIP3   OH234698   1.251   6.244   0.721 -0.1132 -0.2412 -0.4668
 4380TIP3    H134699   1.245   6.337   0.700  0.2470 -0.0984  0.0681
 4380TIP3    H234700   1.232   6.239   0.815  3.8253 -0.2245  0.5087
 4381TIP3   OH234701   2.080   3.648   2.121 -0.1153  0.0304 -0.2858
 4381TIP3    H134702   2.006   3.632   2.179  0.7923  0.5384  1.0419
 4381TIP3    H234703   2.074   3.577   2.056  0.5351 -2.4225  2.1376
 4382TIP3   OH234704   4.329   4.547   2.420  0.7405  0.3646  0.6501
 4382TIP3    H134705   4.368   4.462   2.401  1.5256  0.5288  1.4876
 4382TIP3    H234706   4.274   4.531   2.496 -0.8509  0.1456 -0.4828
 4383TIP3   OH234707   2.035   0.701   7.902 -1.2722  0.0010 -0.0442
 4383TIP3    H134708   2.044   0.609   7.877 -0.9776  0.1117 -0.3542
 4383TIP3    H234709   1.941   0.717   7.904 -1.3160 -0.2430 -0.2222
 4384TIP3   OH234710   0.674   3.991   1.465  0.2121 -0.0225 -0.2810
 4384TIP3    H134711   0.590   3.948   1.449 -0.1232  0.2946  0.5653
 4384TIP3    H234712   0.658   4.083   1.446  0.2548  0.1001  0.2683
 4385TIP3   OH234713   1.335   4.096   2.480  0.4669  0.2999  0.4335
 4385TIP3    H134714   1.327   4.029   2.547  1.7400  0.4149  0.7300
 4385TIP3    H234715   1.411   4.069   2.428  0.8000  1.3200  0.3596
 4386TIP3   OH234716   6.321   2.836   1.057  0.2912  0.2200  0.6593
 4386TIP3    H134717   6.316   2.751   1.102  0.3730  1.1678  2.5697
 4386TIP3    H234718   6.380   2.888   1.111  0.2767  1.4867 -0.5067
 4387TIP3   OH234719   4.387   1.777   2.022 -0.3446 -0.0519  0.3158
 4387TIP3    H134720   4.476   1.743   2.020 -0.6899 -1.0338  0.8324
 4387TIP3    H234721   4.397   1.872   2.013  0.7716 -0.1153  0.7470
 4388TIP3   OH234722   0.949   4.817   1.657  0.1525  0.6654 -0.1523
 4388TIP3    H134723   0.992   4.866   1.727 -0.5296 -0.1310  0.8614
 4388TIP3    H234724   0.895   4.882   1.612  2.0364  1.5783 -1.1751
 4389TIP3   OH234725   5.815   3.827   2.155  0.4011 -0.3679  0.2229
 4389TIP3    H134726   5.835   3.882   2.079  2.5458  0.1204  1.0717
 4389TIP3    H234727   5.842   3.880   2.230  0.7940 -1.8578  1.1678
 4390TIP3   OH234728   3.936   4.124   1.994  0.2690 -0.5102  0.2443
 4390TIP3    H134729   4.017   4.175   1.984 -0.6767  1.3213  1.4221
 4390TIP3    H234730   3.961   4.035   1.969  2.2644  0.2937 -0.8742
 4391TIP3   OH234731   2.160   4.100   2.473 -0.7273  0.3670  0.2753
 4391TIP3    H134732   2.180   4.154   2.548 -0.2334  1.4931 -0.6405
 4391TIP3    H234733   2.085   4.047   2.500  0.4937 -0.5305  2.1441
 4392TIP3   OH234734   1.113   0.992   2.703  0.1121 -0.1461  0.4474
 4392TIP3    H134735   1.078   1.036   2.625 -0.0100 -0.8598  0.0892
 4392TIP3    H234736   1.036   0.969   2.754 -0.0146 -2.0416 -0.5155
 4393TIP3   OH234737   3.071   2.941   7.930 -0.2449  0.4841  0.1738
 4393TIP3    H134738   3.131   2.911   7.861  0.8698 -1.7459  1.9727
 4393TIP3    H234739   3.010   2.867   7.942 -2.2683  1.9893 -0.3501
 4394TIP3   OH234740   5.490   0.243   7.117 -0.2644 -0.5763 -0.0457
 4394TIP3    H134741   5.410   0.191   7.128 -1.9618  1.6947 -0.7807
 4394TIP3    H234742   5.490   0.304   7.190  0.6257 -0.3073 -0.2542
 4395TIP3   OH234743   3.746   4.266   0.286 -0.4229  0.0107  0.0611
 4395TIP3    H134744   3.790   4.271   0.371 -0.1906 -0.7878 -0.0048
 4395TIP3    H234745   3.735   4.172   0.270 -3.0255  0.1731  0.5195
 4396TIP3   OH234746   4.398   1.403   2.238 -0.5101 -0.1818 -0.4166
 4396TIP3    H134747   4.388   1.313   2.269  1.4385  0.2393  1.7004
 4396TIP3    H234748   4.437   1.394   2.151  2.2594 -1.5014  0.8101
 4397TIP3   OH234749   2.879   0.597   0.480 -0.0128 -0.5597 -0.4320
 4397TIP3    H134750   2.916   0.678   0.516  1.0547 -1.4179  0.4549
 4397TIP3    H234751   2.887   0.607   0.385 -0.4802  0.6349 -0.3644
 4398TIP3   OH234752   3.447   3.822   2.718 -0.1545  0.1497  0.2937
 4398TIP3    H134753   3.363   3.853   2.754 -0.3660 -2.3249  2.2118
 4398TIP3    H234754   3.500   3.802   2.796  1.5442 -0.0853 -0.8767
 4399TIP3   OH234755   4.544   0.972   7.494 -0.4788 -0.5015  0.4168
 4399TIP3    H134756   4.533   1.061   7.463 -0.4978 -1.3231 -2.1620
 4399TIP3    H234757   4.456   0.944   7.520 -0.5425  0.0850  0.8401
 4400TIP3   OH234758   6.792   0.579   1.951 -0.5005  0.1896 -0.4231
 4400TIP3    H134759   6.718   0.569   1.892  0.3646  0.6504 -1.6248
 4400TIP3    H234760   6.858   0.518   1.917  1.0647  2.4533 -1.7244
 4401TIP3   OH234761   5.779   6.575   8.576  0.0153  0.6588 -0.1900
 4401TIP3    H134762   5.784   6.670   8.576 -1.8053  0.8033  1.0448
 4401TIP3    H234763   5.698   6.555   8.529 -0.6823 -0.1467  1.2793
 4402TIP3   OH234764   6.249   2.389   0.517  0.4038  0.0198  0.4137
 4402TIP3    H134765   6.268   2.395   0.424 -0.5235 -0.8475  0.1594
 4402TIP3    H234766   6.157   2.363   0.522  0.4236  0.1132  1.5690
 4403TIP3   OH234767   3.285   3.783   1.945 -0.3707 -0.5973 -0.3644
 4403TIP3    H134768   3.364   3.748   1.987 -0.6586 -2.1977 -1.0719
 4403TIP3    H234769   3.318   3.853   1.888 -0.1136  2.5793  3.3367
 4404TIP3   OH234770   2.676   5.383   1.945 -0.4043 -0.1792 -0.4004
 4404TIP3    H134771   2.727   5.366   2.024  0.2768  2.0564 -0.2886
 4404TIP3    H234772   2.604   5.439   1.973 -0.3310  0.3858 -1.2917
 4405TIP3   OH234773   3.087   1.870   1.319  0.4402  0.1138  0.0677
 4405TIP3    H134774   3.038   1.791   1.339 -0.8673  0.7969 -0.3394
 4405TIP3    H234775   3.110   1.906   1.405 -1.0822  0.5603  0.3167
 4406TIP3   OH234776   5.294   2.384   2.637  0.0741  0.1040 -0.0143
 4406TIP3    H134777   5.361   2.348   2.695  1.2935  1.0819 -0.7744
 4406TIP3    H234778   5.245   2.307   2.607  1.2241 -0.6955  0.0832
 4407TIP3   OH234779   4.695   6.485   1.623 -0.4840 -0.0242  0.2188
 4407TIP3    H134780   4.700   6.443   1.709 -0.0205 -0.6340 -0.0931
 4407TIP3    H234781   4.731   6.573   1.637  0.4285 -0.4227  0.4684
 4408TIP3   OH234782   4.243   1.641   2.224  0.5344  0.0961  0.2988
 4408TIP3    H134783   4.252   1.696   2.146 -1.4098  0.0618 -0.0015
 4408TIP3    H234784   4.308   1.573   2.213  0.9848  0.6804 -0.7944
 4409TIP3   OH234785   5.184   0.876   2.112  0.2041  0.6218 -0.5264
 4409TIP3    H134786   5.120   0.804   2.115  1.7264 -0.8083 -0.8719
 4409TIP3    H234787   5.180   0.915   2.199 -0.1388 -0.3565 -0.0897
 4410TIP3   OH234788   3.144   4.155   2.673  0.0542 -0.1931 -0.1966
 4410TIP3    H134789   3.154   4.239   2.717  0.4878 -0.7249  0.7490
 4410TIP3    H234790   3.195   4.094   2.726 -0.4364 -1.0940 -0.7418
 4411TIP3   OH234791   2.012   3.263   8.574  0.3359 -0.2142 -0.2477
 4411TIP3    H134792   1.933   3.238   8.525  0.3933 -0.7160 -0.0857
 4411TIP3    H234793   2.027   3.354   8.550 -0.7800  0.1528  0.3670
 4412TIP3   OH234794   0.623   0.512   7.824  0.2317  0.1667  0.1105
 4412TIP3    H134795   0.566   0.584   7.798  0.0405 -0.4745 -1.3791
 4412TIP3    H234796   0.698   0.518   7.765  1.0840  0.1934  1.1575
 4413TIP3   OH234797   2.266   6.775   0.478 -0.3877  0.1429  0.0469
 4413TIP3    H134798   2.262   6.711   0.550  1.8748 -0.2007 -0.0426
 4413TIP3    H234799   2.287   6.722   0.401 -0.4934  0.7679 -0.4156
 4414TIP3   OH234800   2.732   2.372   2.177  0.4637 -0.0888 -0.5270
 4414TIP3    H134801   2.822   2.345   2.192  0.4556  0.8750  1.7617
 4414TIP3    H234802   2.683   2.337   2.252 -0.3784  2.2244  0.1015
 4415TIP3   OH234803   6.071   3.315   8.045 -0.1338 -0.0195  0.2680
 4415TIP3    H134804   6.165   3.305   8.057  0.1369  1.5436 -0.3373
 4415TIP3    H234805   6.042   3.362   8.124  0.0121  1.5283 -0.5541
 4416TIP3   OH234806   0.235   4.675   8.605  0.3399  0.2017  0.2017
 4416TIP3    H134807   0.234   4.584   8.575  0.0998  0.4714 -0.6437
 4416TIP3    H234808   0.315   4.711   8.567  0.3696  0.3768  0.4293
 4417TIP3   OH234809   0.169   4.411   8.480 -0.0157 -0.3689  0.0650
 4417TIP3    H134810   0.214   4.442   8.402  0.0105 -1.5198 -0.4007
 4417TIP3    H234811   0.093   4.363   8.446 -0.2780 -0.4651  0.7652
 4418TIP3   OH234812   4.397   4.208   3.389  0.3437 -0.5503  0.5863
 4418TIP3    H134813   4.323   4.269   3.386  0.7093 -0.1188  0.1311
 4418TIP3    H234814   4.473   4.264   3.407  0.4190 -1.1289  2.2503
 4419TIP3   OH234815   5.174   2.630   2.573  0.4074  0.0645 -0.0130
 4419TIP3    H134816   5.122   2.638   2.653 -1.0123 -0.9616 -0.7829
 4419TIP3    H234817   5.207   2.540   2.575  0.0260 -0.1025 -0.7500
 4420TIP3   OH234818   0.802   0.744   0.565  0.0522 -0.0580 -0.0510
 4420TIP3    H134819   0.810   0.808   0.494 -2.2059 -0.0669 -0.3930
 4420TIP3    H234820   0.744   0.785   0.629 -0.5291 -1.3010  0.2577
 4421TIP3   OH234821   0.236   3.844   0.368  0.2790  0.0320  0.0345
 4421TIP3    H134822   0.180   3.850   0.446  0.7910 -2.8987  0.7710
 4421TIP3    H234823   0.212   3.919   0.315 -0.9177  1.5269  2.4877
 4422TIP3   OH234824   3.842   3.680   2.717  0.0880 -0.2927  0.0965
 4422TIP3    H134825   3.791   3.696   2.797  0.9820  0.6769  0.5079
 4422TIP3    H234826   3.803   3.740   2.652 -2.4644 -3.0105 -1.1104
 4423TIP3   OH234827   0.944   3.692   7.345  0.0494  0.0616  0.8086
 4423TIP3    H134828   0.862   3.704   7.393 -0.3550  1.4576 -0.1986
 4423TIP3    H234829   0.934   3.607   7.302 -1.7863  1.0820 -0.9660
 4424TIP3   OH234830   1.302   6.730   6.983  0.0254  0.0588 -0.9971
 4424TIP3    H134831   1.235   6.792   7.014 -0.7513 -0.0647 -2.3559
 4424TIP3    H234832   1.257   6.645   6.983  1.4106 -0.8369  2.0029
 4425TIP3   OH234833   0.695   0.563   1.561  0.2925  0.0920 -0.2417
 4425TIP3    H134834   0.703   0.607   1.476  1.1159 -0.0174 -0.2284
 4425TIP3    H234835   0.735   0.624   1.623 -1.2068  0.6166  0.2298
 4426TIP3   OH234836   1.248   3.553   3.266 -0.1906  0.3420 -0.8407
 4426TIP3    H134837   1.246   3.489   3.338  0.6448 -0.8700 -1.8506
 4426TIP3    H234838   1.171   3.532   3.214  0.7707 -0.7704 -1.8925
 4427TIP3   OH234839   3.612   2.071   1.105  0.3166 -0.0802  0.0884
 4427TIP3    H134840   3.632   2.061   1.198  1.8693  1.4658 -0.0196
 4427TIP3    H234841   3.564   2.153   1.099  0.6425  0.0695 -0.5233
 4428TIP3   OH234842   0.242   5.980   2.013  0.2315 -0.5923  0.4414
 4428TIP3    H134843   0.270   6.064   2.051 -0.5345  0.1014 -0.4794
 4428TIP3    H234844   0.321   5.926   2.015  0.7672  0.1705  0.9773
 4429TIP3   OH234845   0.780   5.650   2.385 -0.7421 -0.0476  0.1632
 4429TIP3    H134846   0.815   5.702   2.457 -0.1105  0.7730 -0.7173
 4429TIP3    H234847   0.856   5.625   2.333 -1.2819  0.2730 -0.8110
 4430TIP3   OH234848   0.499   3.131   1.973  0.2786 -0.1077  0.3621
 4430TIP3    H134849   0.525   3.198   1.910  2.1956 -1.6098 -0.5511
 4430TIP3    H234850   0.480   3.054   1.920  1.1172 -1.1762  1.5502
 4431TIP3   OH234851   6.367   2.826   0.003 -0.2287 -0.0830 -0.6638
 4431TIP3    H134852   6.340   2.734  -0.005 -0.9864  0.1968 -1.5454
 4431TIP3    H234853   6.292   2.876  -0.029  0.2204  0.8486 -0.3080
 4432TIP3   OH234854   0.532   5.502   7.650  0.0010  0.1012 -0.3137
 4432TIP3    H134855   0.531   5.544   7.565  1.5141  1.5777  0.3444
 4432TIP3    H234856   0.607   5.541   7.696  0.8495 -2.5341  0.7616
 4433TIP3   OH234857   6.343   6.653   7.900  0.0497 -0.1619  0.2470
 4433TIP3    H134858   6.316   6.565   7.873  1.3243 -0.1564 -1.1791
 4433TIP3    H234859   6.296   6.712   7.842 -1.4952  0.1891  1.7876
 4434TIP3   OH234860   6.710   4.368   1.475  1.0422  0.4038 -0.3683
 4434TIP3    H134861   6.659   4.298   1.434  0.2619  0.8936 -0.2612
 4434TIP3    H234862   6.668   4.449   1.444  1.0245  0.7946  0.6389
 4435TIP3   OH234863   2.287   6.564   8.679  0.4791  0.9548  0.0776
 4435TIP3    H134864   2.247   6.646   8.654 -1.5325 -0.5310 -1.9700
 4435TIP3    H234865   2.346   6.542   8.607 -0.6268 -0.3885 -0.4521
 4436TIP3   OH234866   3.183   1.933   7.970  0.4644  0.0380  0.1119
 4436TIP3    H134867   3.181   1.860   7.909  1.4044  0.7824 -0.8578
 4436TIP3    H234868   3.260   1.917   8.024  0.0988 -0.2012  0.5623
 4437TIP3   OH234869   2.043   6.778   1.538 -0.1608 -0.3590 -0.3258
 4437TIP3    H134870   1.963   6.813   1.578 -0.1743 -0.7654  0.0151
 4437TIP3    H234871   2.113   6.836   1.570 -0.0496 -1.1937  1.0237
 4438TIP3   OH234872   5.307   5.357   0.949 -0.2117  1.0948 -0.0850
 4438TIP3    H134873   5.251   5.422   0.991 -1.0893 -0.4291  1.1840
 4438TIP3    H234874   5.248   5.303   0.897 -0.0827 -0.8420  1.6538
 4439TIP3   OH234875   3.545   1.006   0.079  0.4465  0.0553  0.4383
 4439TIP3    H134876   3.617   0.952   0.109 -0.3078 -0.3849  1.5235
 4439TIP3    H234877   3.508   0.959   0.004  1.4155  0.4119 -0.2841
 4440TIP3   OH234878   5.237   0.334   7.241  0.0317 -0.1511  0.2002
 4440TIP3    H134879   5.309   0.379   7.284  0.3038  1.1872 -1.5288
 4440TIP3    H234880   5.158   0.378   7.272  0.2269  0.8047 -0.5963
 4441TIP3   OH234881   6.218   3.368   1.981  0.1596  0.0403 -0.2152
 4441TIP3    H134882   6.230   3.295   1.921 -0.6305 -1.3768  1.2665
 4441TIP3    H234883   6.151   3.422   1.940 -0.4022 -0.9194 -0.5976
 4442TIP3   OH234884   2.716   4.021   1.051  0.5619 -0.0828  0.6073
 4442TIP3    H134885   2.691   3.943   1.001 -1.8240  0.5338  0.7154
 4442TIP3    H234886   2.782   3.990   1.113  1.0316 -1.5910 -0.5839
 4443TIP3   OH234887   2.613   5.258   0.517  0.1619 -0.8257  0.1711
 4443TIP3    H134888   2.647   5.263   0.606 -0.1154 -0.7829  0.2746
 4443TIP3    H234889   2.607   5.349   0.488 -1.5714 -0.6875  0.8051
 4444TIP3   OH234890   5.325   1.382   3.370  0.5179 -0.2436 -0.3972
 4444TIP3    H134891   5.238   1.397   3.335  1.7427  2.5533 -2.6558
 4444TIP3    H234892   5.343   1.289   3.352 -1.2895 -0.4155 -1.4940
 4445TIP3   OH234893   2.548   3.354   8.149 -0.4196  0.2238  0.3431
 4445TIP3    H134894   2.512   3.281   8.099  0.5805 -0.5570  0.7304
 4445TIP3    H234895   2.526   3.334   8.240 -1.0651  0.9611  0.3634
 4446TIP3   OH234896   3.639   4.645   0.747 -0.0350  0.2469 -0.0803
 4446TIP3    H134897   3.635   4.724   0.803 -0.5503  0.4405 -0.3821
 4446TIP3    H234898   3.729   4.642   0.717  0.3176 -0.0016  0.9718
 4447TIP3   OH234899   0.675   2.337   0.751 -0.4225  0.2060  0.1350
 4447TIP3    H134900   0.685   2.289   0.668 -0.8487  0.1604  0.1093
 4447TIP3    H234901   0.706   2.275   0.818 -2.2484 -0.6693  0.2539
 4448TIP3   OH234902   0.329   4.599   1.926  0.0147  0.1418  0.5788
 4448TIP3    H134903   0.349   4.576   1.835 -0.2327  1.4518  0.1753
 4448TIP3    H234904   0.235   4.585   1.935  0.3041 -1.6494  1.1590
 4449TIP3   OH234905   2.637   6.669   1.117  0.2625  0.3459 -0.0557
 4449TIP3    H134906   2.657   6.649   1.026  0.3250 -0.2860  0.0932
 4449TIP3    H234907   2.547   6.639   1.130  0.0625  0.9237 -0.0473
 4450TIP3   OH234908   4.829   1.448   2.035 -0.4743 -0.7970 -0.2508
 4450TIP3    H134909   4.904   1.508   2.037 -2.4287  1.8764 -1.3242
 4450TIP3    H234910   4.839   1.399   1.953 -0.8082  0.8852 -1.3352
 4451TIP3   OH234911   3.724   4.520   0.103  0.1982  0.3009 -0.5888
 4451TIP3    H134912   3.804   4.471   0.120 -0.4072 -1.4421 -2.3123
 4451TIP3    H234913   3.731   4.598   0.158  1.3668 -1.5428  2.1494
 4452TIP3   OH234914   3.602   2.249   1.516  0.0994  0.1717  0.6487
 4452TIP3    H134915   3.604   2.339   1.484 -0.7027  0.9910  2.6970
 4452TIP3    H234916   3.511   2.221   1.503  0.6856 -0.9771 -1.4384
 4453TIP3   OH234917   2.272   6.042   7.919 -0.2298 -0.1667  0.2154
 4453TIP3    H134918   2.189   6.031   7.873  0.7499  0.9573 -1.9671
 4453TIP3    H234919   2.330   6.082   7.855  2.1250 -1.2238  1.5517
 4454TIP3   OH234920   5.639   0.482   1.183  0.2155  0.9112  0.1539
 4454TIP3    H134921   5.561   0.530   1.210 -0.2332 -0.5619  1.6684
 4454TIP3    H234922   5.677   0.450   1.264  0.9830 -0.5060 -0.7176
 4455TIP3   OH234923   4.654   5.362   0.789 -0.2525 -0.0011  0.0245
 4455TIP3    H134924   4.626   5.323   0.706  0.5743  0.4998 -0.5105
 4455TIP3    H234925   4.573   5.377   0.837 -0.5891 -2.6776  0.4244
 4456TIP3   OH234926   3.148   0.799   2.042 -0.2511  0.6924 -0.3809
 4456TIP3    H134927   3.194   0.718   2.061 -0.1365  0.3657 -1.8845
 4456TIP3    H234928   3.092   0.814   2.118 -0.5564 -1.0077 -0.2401
 4457TIP3   OH234929   3.855   1.211   8.078  1.0055 -0.0143 -0.0188
 4457TIP3    H134930   3.936   1.195   8.126 -0.4460  0.4416  2.7830
 4457TIP3    H234931   3.785   1.189   8.140 -1.0296  1.6866 -1.5526
 4458TIP3   OH234932   1.882   0.712   0.304  0.2189  0.1654 -0.1794
 4458TIP3    H134933   1.920   0.677   0.224  1.5793 -0.8969  0.8798
 4458TIP3    H234934   1.871   0.636   0.361 -0.1112  0.9857  0.8897
 4459TIP3   OH234935   1.495   0.889   7.735  0.0690  0.1849  0.2248
 4459TIP3    H134936   1.560   0.833   7.691 -0.5620  0.4090 -1.0188
 4459TIP3    H234937   1.412   0.867   7.694 -0.4546  0.8633  0.8842
 4460TIP3   OH234938   1.640   2.128   8.284  0.1070 -0.4545 -0.7679
 4460TIP3    H134939   1.667   2.200   8.228  1.4678 -0.0593  0.3288
 4460TIP3    H234940   1.569   2.163   8.338  0.0999 -0.2374 -0.9206
 4461TIP3   OH234941   4.229   3.676   0.032 -0.0759 -0.2399  0.1000
 4461TIP3    H134942   4.204   3.760  -0.007  1.3532 -0.5407 -1.5724
 4461TIP3    H234943   4.320   3.663   0.005  0.0780 -1.8314  1.2495
 4462TIP3   OH234944   3.536   0.142   1.307 -0.5576 -0.3086  0.4374
 4462TIP3    H134945   3.537   0.167   1.400  3.2772  1.3390  0.1175
 4462TIP3    H234946   3.493   0.216   1.264 -0.8386 -0.3047  0.7147
 4463TIP3   OH234947   4.619   6.302   1.815  0.4814  0.7384 -0.1667
 4463TIP3    H134948   4.529   6.330   1.835  0.4255  0.4418  0.0093
 4463TIP3    H234949   4.608   6.216   1.774  0.8008 -0.4641  2.1183
 4464TIP3   OH234950   4.699   3.736   0.180 -1.0514  0.9218  0.5375
 4464TIP3    H134951   4.778   3.735   0.127 -2.0968 -0.4823 -1.0893
 4464TIP3    H234952   4.671   3.828   0.181  0.4107  1.3929  0.9378
 4465TIP3   OH234953   2.519   0.400   2.535 -0.2918 -0.1702  0.4583
 4465TIP3    H134954   2.484   0.331   2.592  0.5754 -0.7245  0.3459
 4465TIP3    H234955   2.614   0.396   2.548 -0.1106 -0.0066 -0.6825
 4466TIP3   OH234956   2.467   4.851   1.525 -1.0050 -0.4542 -0.5173
 4466TIP3    H134957   2.455   4.885   1.613  0.0918 -0.0443 -0.5124
 4466TIP3    H234958   2.380   4.855   1.486 -1.2346  0.7576  0.0646
 4467TIP3   OH234959   2.081   2.083   3.109  0.1425  0.5699 -0.1395
 4467TIP3    H134960   2.165   2.050   3.077 -0.0515  0.5184 -0.5989
 4467TIP3    H234961   2.019   2.064   3.039 -0.2653  0.5661  0.2169
 4468TIP3   OH234962   2.806   1.372   8.545  0.1479 -0.1496  0.3474
 4468TIP3    H134963   2.797   1.401   8.636  0.7605 -0.5674  0.5550
 4468TIP3    H234964   2.901   1.375   8.529  0.1481 -1.1444  0.0919
 4469TIP3   OH234965   6.389   4.511   8.032 -0.1571  0.5441 -0.1488
 4469TIP3    H134966   6.303   4.480   8.060 -0.6259  0.9939 -1.0733
 4469TIP3    H234967   6.450   4.447   8.069 -1.0606 -1.1727 -1.4852
 4470TIP3   OH234968   4.604   1.464   2.653 -0.1535  0.2051  0.4189
 4470TIP3    H134969   4.657   1.542   2.673 -1.1270  0.5297  1.8702
 4470TIP3    H234970   4.667   1.392   2.656  0.4579  0.7374  0.8395
 4471TIP3   OH234971   5.692   0.357   1.424  0.4732  0.4159  0.5275
 4471TIP3    H134972   5.695   0.277   1.476 -0.8740  0.1622  0.2602
 4471TIP3    H234973   5.743   0.421   1.474  1.4469 -0.5588  0.8097
 4472TIP3   OH234974   4.735   4.655   2.181 -0.7428 -0.0994  0.7714
 4472TIP3    H134975   4.677   4.691   2.248  1.9689  3.8410  1.3363
 4472TIP3    H234976   4.728   4.716   2.108  2.0604  0.2136  0.6328
 4473TIP3   OH234977   6.354   3.535   1.722  0.0303 -0.3893 -0.1507
 4473TIP3    H134978   6.351   3.488   1.640  0.1826 -0.9007  0.1355
 4473TIP3    H234979   6.282   3.598   1.716 -0.3322 -0.8260 -0.4257
 4474TIP3   OH234980   1.764   0.925   8.149 -0.0464 -0.3762  0.4721
 4474TIP3    H134981   1.774   0.876   8.067  0.7620 -0.7489  0.7830
 4474TIP3    H234982   1.762   0.858   8.217 -0.4472 -0.0522  0.7846
 4475TIP3   OH234983   2.704   3.812   0.279 -0.2349 -0.6957  0.1196
 4475TIP3    H134984   2.637   3.847   0.338 -0.1294 -1.9318  1.0070
 4475TIP3    H234985   2.785   3.812   0.330 -0.3533 -2.7869  0.4114
 4476TIP3   OH234986   6.232   4.193   8.471  0.1458  0.2755  0.0653
 4476TIP3    H134987   6.177   4.210   8.395  0.6428 -0.4356 -0.4636
 4476TIP3    H234988   6.196   4.113   8.509 -0.3401  0.8338  0.8190
 4477TIP3   OH234989   5.174   3.017   8.468 -0.1132  0.2299 -0.6139
 4477TIP3    H134990   5.084   2.987   8.482  0.4126 -0.9138  0.6102
 4477TIP3    H234991   5.219   2.940   8.433  0.7732  0.2380  0.4532
 4478TIP3   OH234992   1.872   6.400   1.684 -0.1245  0.2145 -0.0184
 4478TIP3    H134993   1.878   6.305   1.696  0.1574  0.0605 -1.2076
 4478TIP3    H234994   1.811   6.411   1.611 -0.7465  1.0013  0.5878
 4479TIP3   OH234995   3.981   1.344   2.701 -0.3192 -0.1271 -0.5130
 4479TIP3    H134996   3.972   1.261   2.748  1.4141  0.7829  1.6033
 4479TIP3    H234997   4.034   1.323   2.624  0.1995 -0.9863  0.0614
 4480TIP3   OH234998   6.817   2.091   7.771  0.5492  0.4376  0.2436
 4480TIP3    H134999   6.738   2.043   7.747  1.8807 -1.3417 -0.8107
 4480TIP3    H235000   6.877   2.024   7.805  2.3336  1.3507 -0.9059
 4481TIP3   OH235001   6.555   6.648   8.615 -0.1351 -0.0518 -0.3455
 4481TIP3    H135002   6.638   6.682   8.581  0.0071  1.9585  1.7442
 4481TIP3    H235003   6.494   6.721   8.603 -0.6249 -0.1207  1.4766
 4482TIP3   OH235004   2.828   1.985   8.006  0.1554  0.0748  0.4024
 4482TIP3    H135005   2.906   1.940   8.037 -0.3946 -0.7579  0.6109
 4482TIP3    H235006   2.806   1.941   7.924 -0.8327 -0.5700  0.9980
 4483TIP3   OH235007   5.536   4.454   2.481 -0.8918  0.0927 -0.8161
 4483TIP3    H135008   5.532   4.547   2.506 -0.8039 -0.1808  0.2969
 4483TIP3    H235009   5.611   4.420   2.531 -2.2586 -1.0481  0.5461
 4484TIP3   OH235010   4.514   3.380   7.865  0.0158 -0.3923 -0.3348
 4484TIP3    H135011   4.442   3.331   7.825 -0.9725 -1.2728  2.3204
 4484TIP3    H235012   4.579   3.313   7.888  0.1780 -0.0355  0.2680
 4485TIP3   OH235013   2.969   0.488   0.229  0.2878 -0.7616  0.0834
 4485TIP3    H135014   3.022   0.460   0.303  1.6119  0.8853 -0.1636
 4485TIP3    H235015   2.944   0.407   0.185  1.4211 -1.6620  1.0276
 4486TIP3   OH235016   3.219   0.855   8.556  0.4752 -0.1950 -0.6157
 4486TIP3    H135017   3.205   0.888   8.467  1.4951 -0.4326 -0.8760
 4486TIP3    H235018   3.311   0.830   8.558 -0.2554 -3.1951 -0.4915
 4487TIP3   OH235019   6.646   3.289   8.636  0.0706  0.6367  0.2465
 4487TIP3    H135020   6.700   3.341   8.577  1.5637 -0.1955  0.8303
 4487TIP3    H235021   6.622   3.212   8.584 -0.4202  0.9206  0.0456
 4488TIP3   OH235022   2.628   6.031   7.517 -0.0526 -0.3903 -0.7503
 4488TIP3    H135023   2.652   5.986   7.437  0.0276 -1.1234 -0.3252
 4488TIP3    H235024   2.708   6.032   7.569 -0.7909 -2.6873  0.5951
 4489TIP3   OH235025   5.085   0.024   1.230  0.2545  0.0848  0.2838
 4489TIP3    H135026   5.090   0.118   1.212  0.2142 -0.0670 -0.5711
 4489TIP3    H235027   5.081  -0.017   1.143  0.2368 -0.7047  0.6467
 4490TIP3   OH235028   3.861   2.243   3.542 -0.2431  0.3764  0.7681
 4490TIP3    H135029   3.867   2.242   3.447 -3.8657 -1.0579  0.4053
 4490TIP3    H235030   3.880   2.153   3.569 -0.4439  0.4874  1.2981
 4491TIP3   OH235031   1.726   5.899   8.495  0.0448 -0.7150  0.6406
 4491TIP3    H135032   1.716   5.981   8.447  1.8480 -0.5723  0.4550
 4491TIP3    H235033   1.734   5.925   8.587  0.4370 -0.6948  0.6014
 4492TIP3   OH235034   6.658   0.973   0.979  0.6152  0.4110  0.0180
 4492TIP3    H135035   6.633   1.058   0.942 -2.4522 -0.6358 -0.6680
 4492TIP3    H235036   6.655   0.913   0.904 -0.0492 -0.7534  0.9421
 4493TIP3   OH235037   2.568   6.086   0.556 -0.3907  0.3641 -0.1239
 4493TIP3    H135038   2.498   6.130   0.605 -0.7567 -0.2721 -0.0573
 4493TIP3    H235039   2.586   6.145   0.483 -0.9110  0.6017 -0.0705
 4494TIP3   OH235040   2.632   5.335   2.476  0.2385  0.0245 -0.5456
 4494TIP3    H135041   2.684   5.400   2.427  0.1852 -1.3785 -2.6188
 4494TIP3    H235042   2.691   5.261   2.487 -0.0252  0.0063  0.8851
 4495TIP3   OH235043   6.809   3.913   0.909 -0.6106 -0.4056  0.0254
 4495TIP3    H135044   6.884   3.955   0.868 -0.5462 -0.6476 -0.1118
 4495TIP3    H235045   6.733   3.947   0.861 -0.4533 -1.5993 -1.1269
 4496TIP3   OH235046   3.599   3.134   1.809  0.0933  0.2475 -0.1164
 4496TIP3    H135047   3.674   3.170   1.762  1.4325 -0.2978  1.5066
 4496TIP3    H235048   3.523   3.164   1.759  1.2910  2.2969 -0.8334
 4497TIP3   OH235049   5.957   2.905   0.353  0.2581  0.1610 -0.4050
 4497TIP3    H135050   5.998   2.867   0.275  1.4969 -0.8712  0.6936
 4497TIP3    H235051   6.021   2.967   0.386 -0.2396  0.5543 -0.1627
 4498TIP3   OH235052   4.221   1.977   0.783 -0.1594  0.3644  0.2142
 4498TIP3    H135053   4.282   1.903   0.792  1.2491  1.3126 -1.0655
 4498TIP3    H235054   4.149   1.942   0.730 -0.1775 -0.4395  0.7392
 4499TIP3   OH235055   1.104   6.578   0.828 -0.3367  0.1246 -0.5537
 4499TIP3    H135056   1.196   6.552   0.840  0.1428  0.6144 -2.7039
 4499TIP3    H235057   1.055   6.497   0.840  0.4420 -0.3074 -0.1591
 4500TIP3   OH235058   4.858   4.926   2.429  0.1500 -0.0456 -0.7882
 4500TIP3    H135059   4.766   4.926   2.405 -1.2292  3.0570  3.2560
 4500TIP3    H235060   4.891   5.010   2.397  0.7529  0.1044  0.1906
 4501TIP3   OH235061   3.677   3.674   1.035  0.5836  0.0667  0.3983
 4501TIP3    H135062   3.753   3.655   0.980 -0.4906 -0.7262 -0.8659
 4501TIP3    H235063   3.624   3.734   0.983  0.2449  0.4879  1.2068
 4502TIP3   OH235064   3.728   5.593   3.076  0.3454  0.5418  0.0027
 4502TIP3    H135065   3.814   5.598   3.034  0.6608 -0.1194  0.5495
 4502TIP3    H235066   3.731   5.512   3.127 -0.9424  0.0035 -0.7215
 4503TIP3   OH235067   1.064   5.834   7.029 -0.2078  0.5110  0.4848
 4503TIP3    H135068   1.157   5.845   7.007 -0.5079  0.0837 -1.1743
 4503TIP3    H235069   1.030   5.923   7.035  0.4535  0.6943  1.9021
 4504TIP3   OH235070   1.482   1.252   0.426 -0.1763  0.3151 -0.4953
 4504TIP3    H135071   1.551   1.265   0.491  0.4865 -0.5281 -1.0110
 4504TIP3    H235072   1.471   1.157   0.421 -1.8835  0.4454  0.0840
 4505TIP3   OH235073   5.291   4.853   1.775 -0.3164  0.0756  0.5150
 4505TIP3    H135074   5.234   4.899   1.714 -1.3953 -0.1626  1.3324
 4505TIP3    H235075   5.370   4.907   1.780 -0.6627  0.6612 -0.2377
 4506TIP3   OH235076   6.008   4.782   0.324  0.0179 -0.2235 -0.0975
 4506TIP3    H135077   6.029   4.783   0.418  0.4880 -0.9064 -0.1860
 4506TIP3    H235078   5.913   4.774   0.321 -0.0890  0.6637  0.3146
 4507TIP3   OH235079   1.648   0.624   1.105  0.2156 -0.1653 -0.5812
 4507TIP3    H135080   1.671   0.533   1.086  0.7183  0.0322 -0.9605
 4507TIP3    H235081   1.602   0.620   1.189 -1.4690 -0.9898 -1.4913
 4508TIP3   OH235082   0.862   4.313   8.258  0.1087  0.3388  0.0166
 4508TIP3    H135083   0.876   4.316   8.353  1.0334  0.8491 -0.1271
 4508TIP3    H235084   0.772   4.344   8.246 -0.2516 -0.3685  0.7653
 4509TIP3   OH235085   5.964   1.273   3.266  0.0045 -0.2360  0.6123
 4509TIP3    H135086   5.966   1.360   3.306  0.7749  0.1068 -0.1347
 4509TIP3    H235087   5.897   1.278   3.199  1.1229  0.2977 -0.5069
 4510TIP3   OH235088   4.574   0.750   1.430  0.3956 -0.5855  0.2767
 4510TIP3    H135089   4.648   0.778   1.376 -0.1209 -1.1260 -0.7438
 4510TIP3    H235090   4.576   0.809   1.505  2.8172 -1.5995  1.1100
 4511TIP3   OH235091   2.347   5.837   0.538  0.7402  0.2273  0.0366
 4511TIP3    H135092   2.439   5.812   0.530  0.8872  0.3849  1.1262
 4511TIP3    H235093   2.331   5.840   0.632  0.0358  1.6896 -0.1098
 4512TIP3   OH235094   0.545   6.152   7.557  0.3544  0.4843  0.6915
 4512TIP3    H135095   0.527   6.063   7.528  0.0451  0.3843  1.1936
 4512TIP3    H235096   0.576   6.197   7.478  0.2550  0.0051  0.3798
 4513TIP3   OH235097   4.347   3.691   3.664 -0.6189 -0.4340  0.5394
 4513TIP3    H135098   4.339   3.770   3.610 -2.5075 -0.1073  1.1931
 4513TIP3    H235099   4.332   3.619   3.604  0.8936 -0.3043 -0.0224
 4514TIP3   OH235100   5.314   1.470   0.859  0.0789  0.0436  0.4987
 4514TIP3    H135101   5.307   1.474   0.954  2.4101 -0.5998  0.7497
 4514TIP3    H235102   5.407   1.459   0.842 -0.5064 -2.3889 -1.7489
 4515TIP3   OH235103   1.950   2.401   8.372  0.0767 -0.7524 -0.0629
 4515TIP3    H135104   1.943   2.307   8.388 -1.6851 -0.9778 -1.8032
 4515TIP3    H235105   1.963   2.409   8.278 -1.9669  0.7602 -0.2922
 4516TIP3   OH235106   2.385   1.507   0.829  0.3732  0.2947  0.2556
 4516TIP3    H135107   2.342   1.565   0.766  0.2722 -1.1784 -1.0700
 4516TIP3    H235108   2.313   1.460   0.872  0.5296 -0.2642 -0.0842
 4517TIP3   OH235109   2.654   2.914   0.739 -0.2979 -0.1960 -0.0750
 4517TIP3    H135110   2.568   2.956   0.739  0.0616  0.5925  0.6393
 4517TIP3    H235111   2.692   2.939   0.823  0.2026 -1.4419  0.0834
 4518TIP3   OH235112   0.525   3.446   2.249  0.3338 -0.1836 -0.6360
 4518TIP3    H135113   0.589   3.437   2.178  1.4743  0.3447  0.3022
 4518TIP3    H235114   0.573   3.422   2.328 -0.7885 -0.2999  0.0266
 4519TIP3   OH235115   4.070   1.289   8.233  0.4529  0.1588 -0.4450
 4519TIP3    H135116   4.055   1.252   8.320  0.7672  0.4416 -0.2682
 4519TIP3    H235117   4.112   1.374   8.249  1.8220 -0.4037 -0.9018
 4520TIP3   OH235118   6.402   1.439   7.890  0.1510 -0.2243  0.4985
 4520TIP3    H135119   6.429   1.531   7.900 -0.0683 -0.2165  1.0269
 4520TIP3    H235120   6.346   1.439   7.813 -0.4958  0.2278  0.9615
 4521TIP3   OH235121   5.108   6.727   0.906  0.1982  0.0895 -0.7585
 4521TIP3    H135122   5.040   6.661   0.897  2.0325 -2.0400  0.1873
 4521TIP3    H235123   5.132   6.751   0.816 -0.4961 -0.5185 -1.1056
 4522TIP3   OH235124   2.378   2.026   7.974 -0.3722  0.0425  0.0009
 4522TIP3    H135125   2.315   2.091   7.946 -1.7503 -1.4057 -0.4280
 4522TIP3    H235126   2.462   2.072   7.977 -1.5658  2.2529  1.4523
 4523TIP3   OH235127   0.992   0.481   7.234 -0.2447 -0.1828 -0.1182
 4523TIP3    H135128   1.047   0.555   7.208 -0.3851 -0.4668 -1.2635
 4523TIP3    H235129   0.924   0.520   7.288  0.5100  0.3105  0.4968
 4524TIP3   OH235130   0.246   2.218   2.682 -0.4267 -0.8419  0.2881
 4524TIP3    H135131   0.230   2.308   2.710 -1.9925 -1.6727  2.3543
 4524TIP3    H235132   0.255   2.169   2.764  0.3336 -2.6001 -0.7873
 4525TIP3   OH235133   3.928   2.574   3.348  0.4499  0.2368  0.1731
 4525TIP3    H135134   3.899   2.483   3.349 -0.1760  0.4411  0.9671
 4525TIP3    H235135   3.876   2.615   3.279 -0.6066  0.4128  1.0494
 4526TIP3   OH235136   3.164   3.629   7.353 -0.1334  0.6403  0.4813
 4526TIP3    H135137   3.117   3.660   7.431 -0.4548  0.4081  0.3815
 4526TIP3    H235138   3.103   3.568   7.311 -0.6133  1.9749 -0.8357
 4527TIP3   OH235139   2.578   0.067   0.831  0.2962 -0.1494  0.3462
 4527TIP3    H135140   2.588  -0.028   0.833 -0.6797 -0.3095 -0.8979
 4527TIP3    H235141   2.663   0.099   0.800  0.0150 -0.7910 -1.2069
 4528TIP3   OH235142   6.309   4.157   2.791 -0.0095 -0.3550 -0.1930
 4528TIP3    H135143   6.266   4.228   2.838 -0.7389 -2.3759  2.4590
 4528TIP3    H235144   6.253   4.140   2.715  0.5189  2.1862 -1.2370
 4529TIP3   OH235145   1.267   4.983   1.580  0.2372 -0.3182  0.5726
 4529TIP3    H135146   1.344   4.937   1.546  0.3066  0.6949 -0.7200
 4529TIP3    H235147   1.196   4.954   1.523  0.1285  0.5340  0.2703
 4530TIP3   OH235148   5.964   3.299   1.664  0.1028 -0.2598  0.3352
 4530TIP3    H135149   5.995   3.362   1.729  1.2218 -0.3747 -0.0531
 4530TIP3    H235150   5.959   3.216   1.711 -0.5502 -0.0492  0.6397
 4531TIP3   OH235151   1.140   6.440   7.928 -0.0769 -0.5558  0.9040
 4531TIP3    H135152   1.125   6.512   7.989 -0.3949 -0.6661  0.9562
 4531TIP3    H235153   1.058   6.432   7.880  1.1287  1.6773 -1.8257
 4532TIP3   OH235154   3.660   5.612   6.832  0.4058  0.5209  0.8908
 4532TIP3    H135155   3.573   5.574   6.825  0.4927  0.6151 -2.3442
 4532TIP3    H235156   3.647   5.706   6.819  0.9855  0.5085  0.1395
 4533TIP3   OH235157   1.077   1.105   0.415  0.1440 -0.0856  0.1886
 4533TIP3    H135158   1.098   1.186   0.368  1.5762 -0.7608 -0.3776
 4533TIP3    H235159   1.085   1.128   0.508  2.6350 -0.0652  0.0220
 4534TIP3   OH235160   4.149   3.135   1.676 -0.1473 -0.3460  0.4509
 4534TIP3    H135161   4.103   3.218   1.672  0.1823 -0.1382  0.8253
 4534TIP3    H235162   4.152   3.104   1.586 -1.5660 -0.6755  0.5065
 4535TIP3   OH235163   1.280   3.451   0.337  0.3526  0.1137  0.0902
 4535TIP3    H135164   1.266   3.492   0.252  0.6132  1.0556  0.4926
 4535TIP3    H235165   1.328   3.516   0.388  0.7007 -0.6554  0.7791
 4536TIP3   OH235166   0.295   4.159   2.290  0.3561  0.1953  0.1231
 4536TIP3    H135167   0.254   4.130   2.372  1.6555 -0.1747  0.6676
 4536TIP3    H235168   0.374   4.204   2.317  1.9993 -1.8293 -0.9508
 4537TIP3   OH235169   6.754   1.169   1.491 -0.7280  0.1834  0.1709
 4537TIP3    H135170   6.796   1.221   1.559 -0.9485  0.0432  0.4167
 4537TIP3    H235171   6.731   1.232   1.422 -0.1720  0.2668  0.0622
 4538TIP3   OH235172   5.632   3.418   0.200  0.7718 -0.2146 -0.4030
 4538TIP3    H135173   5.679   3.458   0.273  0.4227  0.5760 -0.5976
 4538TIP3    H235174   5.692   3.423   0.126  1.1702 -1.1189 -0.1655
 4539TIP3   OH235175   1.973   6.551   0.761  0.0978 -0.1772  0.2983
 4539TIP3    H135176   2.057   6.594   0.748 -0.8477  1.1676 -2.0128
 4539TIP3    H235177   1.995   6.462   0.787  2.2642 -0.0853 -1.0127
 4540TIP3   OH235178   2.131   6.682   1.056 -0.6949 -0.3368 -0.0283
 4540TIP3    H135179   2.120   6.730   1.138  1.5264 -0.6847  0.5394
 4540TIP3    H235180   2.111   6.746   0.988 -0.6469  0.5425  0.7593
 4541TIP3   OH235181   0.465   2.321   3.354 -0.3579  0.4602 -0.2565
 4541TIP3    H135182   0.544   2.298   3.404  0.5124  0.9723 -1.3437
 4541TIP3    H235183   0.393   2.304   3.414  0.4604 -1.6534  0.2041
 4542TIP3   OH235184   3.430   0.347   1.097  0.2588  0.2924 -0.1936
 4542TIP3    H135185   3.471   0.302   1.023  0.6408 -0.5352  0.5101
 4542TIP3    H235186   3.497   0.408   1.128 -0.0135  0.8670 -0.7148
 4543TIP3   OH235187   2.395   0.953   7.557  0.1877 -0.0764  0.0704
 4543TIP3    H135188   2.418   1.043   7.581 -1.5214  0.2768  0.5718
 4543TIP3    H235189   2.401   0.904   7.639 -0.4484 -0.0541  0.1346
 4544TIP3   OH235190   6.823   5.390   0.312 -0.0827 -0.2208 -0.1657
 4544TIP3    H135191   6.826   5.300   0.278 -1.9574 -0.2269 -0.3859
 4544TIP3    H235192   6.730   5.411   0.316  0.3419  2.0869 -1.0673
 4545TIP3   OH235193   5.777   5.053   1.103 -0.2749 -0.9404 -0.6546
 4545TIP3    H135194   5.793   5.059   1.009 -1.7792 -1.0716 -0.9309
 4545TIP3    H235195   5.690   5.016   1.111 -0.5926  0.0267  0.7768
 4546TIP3   OH235196   1.713   3.287   8.394 -0.5907  0.4264 -0.3701
 4546TIP3    H135197   1.766   3.208   8.402 -1.7204 -0.2292  1.2774
 4546TIP3    H235198   1.628   3.256   8.361 -1.0680  0.9189  0.3684
 4547TIP3   OH235199   3.513   4.517   1.087  0.1135 -0.4444  0.0789
 4547TIP3    H135200   3.517   4.479   1.174 -2.2692  0.6353  0.7384
 4547TIP3    H235201   3.485   4.444   1.030  0.9611 -0.9653  0.3056
 4548TIP3   OH235202   4.246   1.903   2.792  0.3617  0.3134  0.0656
 4548TIP3    H135203   4.219   1.922   2.882  1.5691  0.7527  0.3479
 4548TIP3    H235204   4.302   1.977   2.768  2.2634 -1.1114 -0.0890
 4549TIP3   OH235205   3.421   2.286   1.918 -0.0220 -0.3289 -0.0284
 4549TIP3    H135206   3.343   2.329   1.882 -1.2603 -0.1424  2.6257
 4549TIP3    H235207   3.395   2.261   2.007  2.9633 -0.2360  0.9764
 4550TIP3   OH235208   0.665   0.958   2.481  0.0388  0.0191 -0.4834
 4550TIP3    H135209   0.627   0.875   2.451 -0.2967  0.4063 -1.1606
 4550TIP3    H235210   0.608   0.984   2.553 -1.0622  0.6145 -1.5174
 4551TIP3   OH235211   3.937   3.682   7.908 -0.1289 -0.0810  0.1229
 4551TIP3    H135212   3.946   3.717   7.819  1.0546 -0.3401  0.1272
 4551TIP3    H235213   3.869   3.615   7.900 -0.1477  0.0108 -0.5579
 4552TIP3   OH235214   5.003   1.603   1.343 -0.6414  0.3080 -0.1339
 4552TIP3    H135215   4.929   1.551   1.374 -0.5165 -1.6998 -2.8121
 4552TIP3    H235216   5.077   1.574   1.396 -0.8704 -1.3221 -0.6309
 4553TIP3   OH235217   6.089   1.981   8.332  0.2179 -0.1532  0.4095
 4553TIP3    H135218   5.997   1.991   8.307  0.4834  0.5253 -0.3505
 4553TIP3    H235219   6.138   2.020   8.259  1.1169 -0.6839  0.7094
 4554TIP3   OH235220   2.971   1.324   1.786  0.2528 -0.3333  0.1829
 4554TIP3    H135221   3.028   1.291   1.716  0.7543  0.1361  0.3677
 4554TIP3    H235222   2.931   1.245   1.823  0.5558 -0.6439 -0.1434
 4555TIP3   OH235223   6.835   5.694   0.622  0.1834 -0.4740 -0.3402
 4555TIP3    H135224   6.814   5.734   0.537  0.5688 -1.0897 -0.7291
 4555TIP3    H235225   6.919   5.733   0.645  0.3571 -0.7445 -0.5176
 4556TIP3   OH235226   6.205   5.841   2.832 -0.8530  0.1590  0.0964
 4556TIP3    H135227   6.210   5.896   2.910 -1.5849  1.2334 -0.5815
 4556TIP3    H235228   6.201   5.752   2.865 -2.6464  0.6547  1.3628
 4557TIP3   OH235229   1.810   3.047   1.464 -0.2760  0.7778 -0.2521
 4557TIP3    H135230   1.799   3.080   1.376 -3.8155  1.1769  0.1872
 4557TIP3    H235231   1.811   2.952   1.454  0.6112  0.8229 -0.7540
 4558TIP3   OH235232   1.937   1.774   8.243 -0.5032  0.1178  0.5508
 4558TIP3    H135233   1.929   1.816   8.328 -0.6412 -0.3713  0.7828
 4558TIP3    H235234   1.914   1.842   8.180  4.0548  2.0430  0.5403
 4559TIP3   OH235235   0.701   0.224   7.787  0.0998  0.3055 -0.0811
 4559TIP3    H135236   0.654   0.299   7.824 -0.7646 -0.4364  0.3715
 4559TIP3    H235237   0.763   0.263   7.725 -0.7856  1.3596 -0.3452
 4560TIP3   OH235238   0.541   0.895   1.486 -0.5514 -0.1071 -0.4708
 4560TIP3    H135239   0.597   0.888   1.409 -1.4858 -0.6876 -1.1193
 4560TIP3    H235240   0.452   0.904   1.451 -1.0565 -0.9120  0.5262
 4561TIP3   OH235241   5.721   6.846   7.864  0.1329 -0.4001 -0.5918
 4561TIP3    H135242   5.640   6.800   7.889  0.0915 -0.0320 -0.0200
 4561TIP3    H235243   5.697   6.894   7.785 -0.4707  0.3972  0.0586
 4562TIP3   OH235244   4.664   5.804   2.450  0.2786  0.0773 -0.1469
 4562TIP3    H135245   4.667   5.898   2.470  0.5582  0.2807 -1.1069
 4562TIP3    H235246   4.613   5.766   2.521  1.9607  0.6332  1.4161
 4563TIP3   OH235247   5.621   5.821   7.315  0.8743 -0.2841  0.3985
 4563TIP3    H135248   5.592   5.884   7.249  0.7014 -0.4416  0.3222
 4563TIP3    H235249   5.576   5.849   7.395  0.2709 -0.7024  0.2127
 4564TIP3   OH235250   6.465   6.322   8.004  0.5201  0.1506  0.4615
 4564TIP3    H135251   6.540   6.380   7.989 -1.0039  2.2408  0.3323
 4564TIP3    H235252   6.443   6.336   8.096  1.9842 -2.7179  1.3636
 4565TIP3   OH235253   1.340   5.473   8.569  0.3380 -0.4409 -0.6095
 4565TIP3    H135254   1.251   5.488   8.600  0.3436 -1.4907 -0.0350
 4565TIP3    H235255   1.384   5.557   8.580 -0.3097 -0.1722  0.0244
 4566TIP3   OH235256   3.954   1.524   0.267 -0.0017 -0.5864  0.2577
 4566TIP3    H135257   3.898   1.518   0.344 -0.1376 -1.9532  0.0644
 4566TIP3    H235258   3.915   1.595   0.215  0.2783  0.5761  1.5582
 4567TIP3   OH235259   4.149   6.189   2.075  0.3127  0.0116 -0.1909
 4567TIP3    H135260   4.061   6.152   2.071  0.1473  0.2923  0.6535
 4567TIP3    H235261   4.150   6.240   2.156  1.9206 -1.7817  1.0375
 4568TIP3   OH235262   0.654   0.705   8.231 -0.3227 -0.2383 -0.4510
 4568TIP3    H135263   0.731   0.658   8.197 -0.3111 -1.7718  1.5185
 4568TIP3    H235264   0.661   0.793   8.193  0.9514 -1.1111 -2.4037
 4569TIP3   OH235265   0.859   5.983   2.039 -0.2604 -0.1540 -0.2521
 4569TIP3    H135266   0.876   6.028   2.122 -2.1408 -0.2459  0.2434
 4569TIP3    H235267   0.783   5.928   2.058 -1.3960  0.6082 -2.2995
 4570TIP3   OH235268   0.189   2.253   2.188  0.8423 -0.1077 -0.4177
 4570TIP3    H135269   0.143   2.327   2.147  1.7710 -0.1061 -1.4997
 4570TIP3    H235270   0.156   2.253   2.278 -1.0141  0.0924 -1.0357
 4571TIP3   OH235271   5.654   1.152   2.434  0.0811 -0.7013 -0.3861
 4571TIP3    H135272   5.726   1.129   2.375  1.8006 -2.2870  2.0863
 4571TIP3    H235273   5.680   1.237   2.471  0.8251 -1.3293  0.5956
 4572TIP3   OH235274   5.807   4.541   0.050 -0.1792  0.3495 -0.1028
 4572TIP3    H135275   5.870   4.501   0.110 -0.4025  1.4779  0.9135
 4572TIP3    H235276   5.818   4.635   0.062 -3.1534  0.6342  1.3506
 4573TIP3   OH235277   3.855   0.250   2.505 -0.0083 -0.0539 -0.0845
 4573TIP3    H135278   3.767   0.219   2.482 -0.5822  0.1862  1.6603
 4573TIP3    H235279   3.909   0.224   2.430 -0.9295 -3.1149  0.1697
 4574TIP3   OH235280   5.536   0.855   8.639  0.3172 -0.2462  0.0376
 4574TIP3    H135281   5.510   0.942   8.609  0.6228 -0.1915 -0.0762
 4574TIP3    H235282   5.627   0.846   8.609  0.3641 -0.5086  0.2574
 4575TIP3   OH235283   6.286   1.931   1.458 -0.3474  0.3209  0.4678
 4575TIP3    H135284   6.250   2.006   1.410 -0.3846 -0.8752 -1.4580
 4575TIP3    H235285   6.222   1.913   1.527 -1.6263  0.4920 -0.6372
 4576TIP3   OH235286   2.271   0.405   3.008 -0.1567  0.0788 -0.1651
 4576TIP3    H135287   2.332   0.448   2.949 -1.4007  0.8109 -0.9513
 4576TIP3    H235288   2.324   0.384   3.086  0.7875  1.8439 -0.2884
 4577TIP3   OH235289   2.343   2.733   3.050 -0.3136  0.1893  0.7062
 4577TIP3    H135290   2.299   2.817   3.039  0.4816  0.7004  1.2542
 4577TIP3    H235291   2.316   2.703   3.137 -1.3744 -0.6182  0.1219
 4578TIP3   OH235292   6.416   2.582   0.610  0.3937  0.1666  0.1039
 4578TIP3    H135293   6.361   2.520   0.563 -0.9215  0.9240  0.6027
 4578TIP3    H235294   6.398   2.566   0.703  2.5289 -0.9188  0.4104
 4579TIP3   OH235295   5.795   2.732   0.514  0.9289 -0.2077  0.1137
 4579TIP3    H135296   5.838   2.793   0.454 -1.0269  0.7234 -0.4107
 4579TIP3    H235297   5.725   2.783   0.555 -0.2849 -1.8735  0.2417
 4580TIP3   OH235298   5.305   6.312   0.353  0.2807  0.0270  0.1635
 4580TIP3    H135299   5.269   6.244   0.297  1.2899 -1.4500  1.2433
 4580TIP3    H235300   5.383   6.343   0.305  0.0912  0.0914 -0.1073
 4581TIP3   OH235301   2.638   3.755   1.238  0.3415 -0.8591 -0.1172
 4581TIP3    H135302   2.673   3.746   1.327 -1.6549 -2.2123  0.5986
 4581TIP3    H235303   2.653   3.670   1.197 -0.3820 -0.8411 -0.4409
 4582TIP3   OH235304   4.018   3.670   8.179  0.2282 -0.0923 -0.1643
 4582TIP3    H135305   3.998   3.666   8.085  0.7939 -1.1877 -0.2488
 4582TIP3    H235306   3.957   3.609   8.219  0.0742  0.2791  0.1765
 4583TIP3   OH235307   4.984   3.646   0.883 -0.2886  0.5051  0.1778
 4583TIP3    H135308   4.893   3.636   0.857  0.0502 -0.9090 -0.6209
 4583TIP3    H235309   5.023   3.701   0.815 -0.7336  1.8979  1.0253
 4584TIP3   OH235310   6.754   4.451   0.282  0.2089  0.3719  0.3362
 4584TIP3    H135311   6.748   4.417   0.193 -0.5063 -0.4051  0.6676
 4584TIP3    H235312   6.672   4.424   0.323  0.7395  0.3103  1.3801
 4585TIP3   OH235313   4.084   0.398   0.180  0.1910  0.0773 -0.1569
 4585TIP3    H135314   4.049   0.316   0.145 -3.2976  1.9565 -1.6545
 4585TIP3    H235315   4.167   0.410   0.136 -0.7344 -1.1472 -2.3944
 4586TIP3   OH235316   4.588   1.938   7.459  0.1970  0.5219 -0.1597
 4586TIP3    H135317   4.571   2.023   7.419  0.7734  0.9193  0.4062
 4586TIP3    H235318   4.637   1.959   7.539 -0.6036 -0.2673  0.5641
 4587TIP3   OH235319   2.202   2.581   0.574 -0.2385  0.0770 -0.6199
 4587TIP3    H135320   2.141   2.515   0.608 -0.0956 -0.1819 -0.8601
 4587TIP3    H235321   2.153   2.663   0.578  0.1870  0.2959  1.4327
 4588TIP3   OH235322   0.436   3.902   7.535  0.7233  0.0290 -0.6253
 4588TIP3    H135323   0.348   3.903   7.496  0.8614  1.1681 -0.9573
 4588TIP3    H235324   0.495   3.899   7.461  0.9752  0.9002 -0.4713
 4589TIP3   OH235325   1.507   6.627   8.116  0.4568 -0.5144 -0.2527
 4589TIP3    H135326   1.529   6.534   8.122  1.3445 -0.2331  2.6364
 4589TIP3    H235327   1.454   6.644   8.194  0.4984  1.4451 -0.5998
 4590TIP3   OH235328   0.032   0.349   0.927  0.8496  0.1196  0.4081
 4590TIP3    H135329   0.127   0.357   0.936  0.6677  2.0281  0.9532
 4590TIP3    H235330   0.002   0.436   0.900 -0.6903 -0.6202 -0.4396
 4591TIP3   OH235331   4.954   3.227   0.155 -0.3571 -0.1109  0.2459
 4591TIP3    H135332   4.919   3.300   0.104 -0.4926 -0.6997 -0.5177
 4591TIP3    H235333   4.909   3.233   0.240  0.2191  1.1557  0.4796
 4592TIP3   OH235334   3.058   3.274   8.663  0.9012  0.4592 -0.3084
 4592TIP3    H135335   3.059   3.222   8.583  0.9641 -1.7975  1.0549
 4592TIP3    H235336   2.970   3.261   8.699  2.2058 -2.5868  2.2921
 4593TIP3   OH235337   2.724   3.013   2.021  0.7815 -0.3315 -0.5509
 4593TIP3    H135338   2.725   3.069   1.943 -1.1138  2.7512  1.4376
 4593TIP3    H235339   2.634   3.018   2.053  1.1038 -2.8611  0.9796
 4594TIP3   OH235340   5.979   1.961   2.890 -0.9052 -0.0730  0.1241
 4594TIP3    H135341   5.979   2.021   2.816 -2.7001 -2.4234 -1.9226
 4594TIP3    H235342   5.889   1.962   2.923 -0.2583  0.5539  2.0136
 4595TIP3   OH235343   3.361   3.073   0.242  0.0610  0.4208  0.0903
 4595TIP3    H135344   3.349   3.106   0.153  0.6739 -0.4548 -0.3239
 4595TIP3    H235345   3.427   3.005   0.234  1.1546  1.2646  1.4252
 4596TIP3   OH235346   6.523   6.363   1.676  0.0352 -0.2949  0.2771
 4596TIP3    H135347   6.475   6.323   1.749 -0.4563 -1.2099 -0.5162
 4596TIP3    H235348   6.577   6.291   1.642  1.6300  0.5866  0.8444
 4597TIP3   OH235349   1.146   5.087   7.610 -0.3817 -0.0994  0.1589
 4597TIP3    H135350   1.217   5.149   7.596  0.2691 -0.8275  0.1507
 4597TIP3    H235351   1.150   5.029   7.534 -0.5146 -0.5928  0.5224
 4598TIP3   OH235352   2.727   6.061   2.306  0.3468 -0.0362 -0.1947
 4598TIP3    H135353   2.654   6.091   2.252 -0.1184 -0.4488  0.1892
 4598TIP3    H235354   2.799   6.046   2.245 -0.6291 -2.0331 -0.9574
 4599TIP3   OH235355   4.686   2.765   1.306 -0.0609  0.4596  0.1335
 4599TIP3    H135356   4.712   2.850   1.270 -1.2327  0.7775 -0.0051
 4599TIP3    H235357   4.768   2.717   1.316  0.5137  1.2288 -0.7506
 4600TIP3   OH235358   3.205   2.417   7.480 -0.1847  0.6256 -0.0703
 4600TIP3    H135359   3.282   2.451   7.435  1.1211 -0.2993  1.3981
 4600TIP3    H235360   3.181   2.486   7.542 -0.3759  0.7875 -0.3203
 4601TIP3   OH235361   2.253   6.052   2.230 -0.1793 -0.0363  0.3785
 4601TIP3    H135362   2.244   5.972   2.178 -0.9150  0.9370 -1.0600
 4601TIP3    H235363   2.305   6.026   2.306  1.2789 -1.4440 -1.0299
 4602TIP3   OH235364   3.542   5.052   1.250  0.0928  0.2269  0.3044
 4602TIP3    H135365   3.550   5.079   1.158  0.2967  1.5180  0.6795
 4602TIP3    H235366   3.503   4.965   1.246  0.1393  0.2427 -1.0095
 4603TIP3   OH235367   1.942   3.320   1.823  0.0399  0.2617  0.5851
 4603TIP3    H135368   1.853   3.346   1.802  0.7848  2.0194 -0.6176
 4603TIP3    H235369   1.991   3.329   1.741  1.0848 -1.9465  0.8783
 4604TIP3   OH235370   0.937   5.662   2.883 -0.6483 -0.0329 -0.5844
 4604TIP3    H135371   0.846   5.680   2.860 -0.6574  0.7032 -0.0131
 4604TIP3    H235372   0.956   5.724   2.954 -0.0151 -0.8936  0.0041
 4605TIP3   OH235373   0.898   3.826   1.432  0.1068  0.9106 -0.2481
 4605TIP3    H135374   0.824   3.886   1.434 -0.0289  0.8955 -2.4198
 4605TIP3    H235375   0.886   3.775   1.352  0.5743 -1.5917  1.1862
 4606TIP3   OH235376   0.659   0.909   1.908 -0.2478 -0.5767 -0.4799
 4606TIP3    H135377   0.610   0.879   1.985 -0.5234 -1.7370 -1.0776
 4606TIP3    H235378   0.747   0.926   1.940 -0.5830 -0.2223  0.2611
 4607TIP3   OH235379   4.703   2.578   0.530  0.1783  0.3311 -0.1149
 4607TIP3    H135380   4.637   2.632   0.573  0.4143  1.3281 -0.9751
 4607TIP3    H235381   4.677   2.488   0.551  0.1557  0.7550  1.9078
 4608TIP3   OH235382   3.438   0.887   7.926  0.0604  0.0562 -0.0086
 4608TIP3    H135383   3.486   0.805   7.932  1.6750  0.6607 -2.8939
 4608TIP3    H235384   3.361   0.866   7.874  2.0317  0.7999 -3.5240
 4609TIP3   OH235385   5.203   2.650   8.175  0.0024  0.0271 -0.0671
 4609TIP3    H135386   5.231   2.573   8.124  0.3838  0.1017  0.0289
 4609TIP3    H235387   5.220   2.724   8.118  2.3666  0.3096  0.9075
 4610TIP3   OH235388   5.911   2.703   7.432  0.3863  0.0382 -0.1772
 4610TIP3    H135389   5.996   2.747   7.435  0.0086  0.8218 -0.7448
 4610TIP3    H235390   5.849   2.773   7.413 -0.1567 -0.8241 -1.7660
 4611TIP3   OH235391   1.100   2.010   2.059  0.1631  0.1613  0.4056
 4611TIP3    H135392   1.160   2.084   2.073  0.8197 -0.5226  1.3459
 4611TIP3    H235393   1.063   2.026   1.973  2.1791  0.3166 -0.4986
 4612TIP3   OH235394   6.197   0.177   2.312 -0.1778  0.1177 -0.2748
 4612TIP3    H135395   6.252   0.255   2.311 -0.1665  0.1042 -1.4857
 4612TIP3    H235396   6.208   0.139   2.225 -0.3737 -1.1000  0.2175
 4613TIP3   OH235397   6.291   0.190   1.831  0.1944  0.6102 -0.1147
 4613TIP3    H135398   6.272   0.154   1.745  1.8693  1.2037 -0.7775
 4613TIP3    H235399   6.384   0.172   1.845  0.0790  1.0067  1.3305
 4614TIP3   OH235400   6.060   3.890   0.806  0.3350 -0.0385  0.2284
 4614TIP3    H135401   5.993   3.933   0.752  0.4475 -0.5468 -0.3255
 4614TIP3    H235402   6.037   3.797   0.803 -0.2574  0.0043  1.8922
 4615TIP3   OH235403   5.153   5.413   0.272  0.0081 -0.1398  0.2954
 4615TIP3    H135404   5.234   5.435   0.225  0.4608 -1.2589  0.5343
 4615TIP3    H235405   5.132   5.493   0.321  0.8074  0.2584  0.0091
 4616TIP3   OH235406   5.679   6.536   2.411  0.4020  0.6201  0.3094
 4616TIP3    H135407   5.655   6.579   2.329  0.3489  1.7217  0.8835
 4616TIP3    H235408   5.621   6.460   2.417  2.6847 -1.5050 -2.3307
 4617TIP3   OH235409   1.743   0.576   8.269  0.1095 -0.0387  0.4654
 4617TIP3    H135410   1.788   0.569   8.353  0.6001  0.2963  0.2318
 4617TIP3    H235411   1.691   0.496   8.263  0.8745 -0.5591  0.6284
 4618TIP3   OH235412   6.159   4.992   0.195 -0.7422  0.3384 -0.3431
 4618TIP3    H135413   6.187   5.040   0.273 -1.4149  0.8992 -0.4425
 4618TIP3    H235414   6.098   4.926   0.228 -1.5723  1.0282 -0.4602
 4619TIP3   OH235415   6.178   1.944   3.085 -0.4349 -0.6245 -0.8491
 4619TIP3    H135416   6.106   1.952   3.023  1.2793  0.0460 -2.8950
 4619TIP3    H235417   6.222   1.863   3.061  0.3122 -0.3069 -0.5817
 4620TIP3   OH235418   6.197   6.491   2.470  0.0034 -0.0331 -0.4779
 4620TIP3    H135419   6.104   6.507   2.488 -0.2055 -0.5200 -1.0745
 4620TIP3    H235420   6.197   6.414   2.413  0.8148 -0.4096  0.0215
 4621TIP3   OH235421   2.527   4.921   0.220 -0.4247  0.6308 -0.0875
 4621TIP3    H135422   2.493   4.896   0.306 -0.7957  0.1637 -0.3659
 4621TIP3    H235423   2.587   4.993   0.238 -1.9842  1.8864  0.3734
 4622TIP3   OH235424   0.101   1.004   7.453 -0.0661 -0.1426  0.2993
 4622TIP3    H135425   0.146   0.971   7.375 -1.3668  0.3040 -0.6686
 4622TIP3    H235426   0.076   0.925   7.501 -0.7935 -0.5011 -0.6359
 4623TIP3   OH235427   4.091   3.399   7.622 -0.0616  0.0091  0.4890
 4623TIP3    H135428   4.041   3.318   7.633 -0.1613  0.1409  0.9794
 4623TIP3    H235429   4.108   3.403   7.527  0.4341 -0.8813  0.5267
 4624TIP3   OH235430   0.757   2.469   1.569 -0.1783 -0.0101 -0.1943
 4624TIP3    H135431   0.768   2.510   1.655  1.1910  1.4195 -0.9991
 4624TIP3    H235432   0.677   2.508   1.534  0.6243  1.3632 -0.5797
 4625TIP3   OH235433   5.130   6.816   8.564  0.2238 -0.0370  0.5904
 4625TIP3    H135434   5.046   6.853   8.592  0.9635  0.7895  1.8058
 4625TIP3    H235435   5.133   6.831   8.470 -0.7830  0.3591  0.6124
 4626TIP3   OH235436   0.349   0.325   0.691  0.1177  0.6210 -0.3292
 4626TIP3    H135437   0.290   0.384   0.643  2.0547  1.7703 -1.4006
 4626TIP3    H235438   0.422   0.380   0.718  1.2521 -0.9843  0.0007
 4627TIP3   OH235439   5.241   0.817   1.410 -0.0577 -0.2403 -0.0153
 4627TIP3    H135440   5.272   0.739   1.455  0.6529 -0.8076 -1.4086
 4627TIP3    H235441   5.191   0.784   1.335  0.1256  0.6202 -0.5411
 4628TIP3   OH235442   1.599   4.233   3.247 -0.0042 -0.2555 -0.3120
 4628TIP3    H135443   1.601   4.138   3.238  1.4587 -0.1533 -1.4590
 4628TIP3    H235444   1.688   4.258   3.270 -0.6501  0.7606  1.2720
 4629TIP3   OH235445   4.297   2.501   1.811  0.0435  0.1508  0.0274
 4629TIP3    H135446   4.310   2.490   1.717  1.7497 -2.4464  0.4694
 4629TIP3    H235447   4.319   2.593   1.828 -1.0877  0.8839 -2.1655
 4630TIP3   OH235448   6.686   1.854   3.030 -0.1600  0.1811 -0.6414
 4630TIP3    H135449   6.639   1.802   2.964 -1.2362  0.9029 -0.4758
 4630TIP3    H235450   6.778   1.848   3.005 -0.5720  0.7039 -2.4202
 4631TIP3   OH235451   4.980   2.595   1.332 -0.2817  0.0224 -0.0364
 4631TIP3    H135452   4.961   2.527   1.397 -0.4153 -0.1556 -0.2597
 4631TIP3    H235453   4.988   2.547   1.250 -1.3226  0.3881 -0.3606
 4632TIP3   OH235454   3.313   0.306   0.802  0.2357  0.4209 -0.5078
 4632TIP3    H135455   3.372   0.350   0.740  1.1430  1.3101  0.9264
 4632TIP3    H235456   3.335   0.213   0.793 -1.1574  0.2507 -3.0087
 4633TIP3   OH235457   2.596   6.720   1.818 -0.2859 -0.2739  0.0366
 4633TIP3    H135458   2.527   6.689   1.877 -0.2371 -0.9548 -0.2473
 4633TIP3    H235459   2.617   6.643   1.765 -0.3553  0.3311 -0.8872
 4634TIP3   OH235460   2.943   6.360   2.082  0.1224  0.2176  0.2005
 4634TIP3    H135461   2.947   6.456   2.077 -2.7560  0.4303 -0.0078
 4634TIP3    H235462   2.953   6.341   2.176 -1.0824  0.9384  0.5111
 4635TIP3   OH235463   2.297   1.115   7.882  0.0883  0.2784  0.3063
 4635TIP3    H135464   2.379   1.097   7.837 -0.4718  1.4501 -1.2695
 4635TIP3    H235465   2.245   1.165   7.819 -1.0702  1.2776  1.9680
 4636TIP3   OH235466   4.425   3.359   1.174 -0.4573  0.7780 -0.0219
 4636TIP3    H135467   4.485   3.423   1.213 -0.2244 -0.4073  1.6639
 4636TIP3    H235468   4.413   3.293   1.242 -0.8476 -0.8839 -1.6336
 4637TIP3   OH235469   3.524   0.310   1.998  0.1102  0.4708 -0.3301
 4637TIP3    H135470   3.556   0.228   1.961 -0.6037  0.6271 -1.3443
 4637TIP3    H235471   3.508   0.366   1.922 -2.0362  0.5745  0.1423
 4638TIP3   OH235472   3.208   4.370   8.056  0.0974 -0.1354 -0.1822
 4638TIP3    H135473   3.204   4.296   7.996  1.1434 -1.6019  1.4874
 4638TIP3    H235474   3.294   4.409   8.042 -0.4671  0.8500 -1.0929
 4639TIP3   OH235475   2.326   5.805   0.264 -0.0512  0.3463 -0.4921
 4639TIP3    H135476   2.365   5.805   0.352  1.0908 -0.0984 -0.9798
 4639TIP3    H235477   2.256   5.740   0.269 -0.8015  1.1915  0.4134
 4640TIP3   OH235478   4.992   6.289   3.421  0.1841 -0.9755  0.3123
 4640TIP3    H135479   4.964   6.379   3.436  0.6686 -0.8726  0.6428
 4640TIP3    H235480   4.916   6.245   3.383  0.2781 -0.1492 -0.8978
 4641TIP3   OH235481   3.046   4.827   0.283  0.2797  0.3333  0.5768
 4641TIP3    H135482   3.099   4.766   0.230  1.8826  1.7360  0.4851
 4641TIP3    H235483   3.108   4.863   0.346 -0.8636  1.1855  1.2376
 4642TIP3   OH235484   1.556   0.756   0.541 -0.1456 -0.0835  0.0876
 4642TIP3    H135485   1.631   0.765   0.600 -1.6285  1.9750  1.8028
 4642TIP3    H235486   1.562   0.666   0.509  2.5860 -0.2393  0.7515
 4643TIP3   OH235487   0.689   0.500   0.008  0.2653  0.7296 -0.1309
 4643TIP3    H135488   0.709   0.492   0.101 -1.3592 -0.0360  0.1894
 4643TIP3    H235489   0.610   0.554   0.005 -0.3110 -0.1133 -0.9636
 4644TIP3   OH235490   0.248   0.499   1.330 -0.5421 -0.3725  0.4577
 4644TIP3    H135491   0.231   0.593   1.322  1.1198 -0.1648 -1.2774
 4644TIP3    H235492   0.331   0.493   1.377 -0.4967 -0.9678  0.3061
 4645TIP3   OH235493   1.739   3.261   7.855 -0.2572  0.2424 -0.2979
 4645TIP3    H135494   1.677   3.321   7.815 -2.6233 -0.8376  1.5275
 4645TIP3    H235495   1.695   3.176   7.854  1.6234 -0.8124  0.1716
 4646TIP3   OH235496   6.454   1.062   8.241  0.4119  0.3239  0.9945
 4646TIP3    H135497   6.538   1.042   8.201 -0.1561 -1.2468  0.5212
 4646TIP3    H235498   6.465   1.039   8.333  0.4769  0.0654  0.9210
 4647TIP3   OH235499   5.865   1.903   8.224  0.4564 -0.1675 -0.0543
 4647TIP3    H135500   5.787   1.928   8.174 -1.6651 -2.7842  1.6387
 4647TIP3    H235501   5.914   1.846   8.166 -0.6113 -1.0549 -0.1309
 4648TIP3   OH235502   3.701   6.730   1.411  0.2364 -0.3398  1.3795
 4648TIP3    H135503   3.708   6.730   1.315  0.3079 -1.7821  1.3608
 4648TIP3    H235504   3.679   6.820   1.433  2.0231  0.4715  0.1413
 4649TIP3   OH235505   2.727   1.731   1.453 -0.2002  0.7815 -0.1663
 4649TIP3    H135506   2.816   1.697   1.445 -0.6385 -0.5337  0.3894
 4649TIP3    H235507   2.716   1.750   1.546 -0.7765  0.1389 -0.0951
 4650TIP3   OH235508   4.728   2.054   8.590  0.2405 -0.0888 -0.0253
 4650TIP3    H135509   4.689   2.124   8.536  0.5888 -0.6864 -1.0852
 4650TIP3    H235510   4.675   1.977   8.572  0.6671 -0.4175  0.0952
 4651TIP3   OH235511   0.905   5.884   7.733  0.6627  0.2663 -0.0969
 4651TIP3    H135512   0.915   5.839   7.818 -0.8528  0.3510  0.1556
 4651TIP3    H235513   0.965   5.958   7.739 -0.6257  1.2642  1.6378
 4652TIP3   OH235514   2.342   6.046   7.598 -0.1644 -0.2901 -0.0075
 4652TIP3    H135515   2.429   6.006   7.587 -0.1491 -0.3798  0.4352
 4652TIP3    H235516   2.311   6.060   7.508  1.8383  3.1567 -0.3399
 4653TIP3   OH235517   2.661   3.788   2.595 -0.3404 -0.2007  0.5949
 4653TIP3    H135518   2.666   3.883   2.601  1.3650 -0.2463  0.2557
 4653TIP3    H235519   2.750   3.760   2.575 -1.1629 -1.7508 -1.1960
 4654TIP3   OH235520   1.548   3.254   2.962 -0.6017  0.0651 -0.0629
 4654TIP3    H135521   1.529   3.211   2.878  0.3654 -1.3368  0.4246
 4654TIP3    H235522   1.533   3.187   3.028  1.2614  0.3384  0.6927
 4655TIP3   OH235523   0.608   6.629   1.753  0.0471  0.6652 -0.5516
 4655TIP3    H135524   0.691   6.676   1.750  0.3095  0.3799  1.0767
 4655TIP3    H235525   0.629   6.539   1.729  0.0329  0.7754 -0.9938
 4656TIP3   OH235526   2.700   2.726   8.649 -0.0719 -0.3163 -0.8004
 4656TIP3    H135527   2.640   2.767   8.586 -1.6576 -0.1690  0.7172
 4656TIP3    H235528   2.667   2.637   8.659  0.1187 -0.3111 -0.1249
 4657TIP3   OH235529   2.963   0.139   3.235 -0.1622 -0.1003  0.0147
 4657TIP3    H135530   2.997   0.163   3.321 -0.4231 -1.0283  0.3824
 4657TIP3    H235531   3.019   0.067   3.207 -1.0601 -0.8418  0.0990
 4658TIP3   OH235532   1.225   3.839   2.238  0.0820  0.7071  0.2106
 4658TIP3    H135533   1.267   3.865   2.156 -0.0621  1.5310  0.3900
 4658TIP3    H235534   1.163   3.910   2.257  0.3568  0.7028  1.2035
 4659TIP3   OH235535   5.797   2.183   8.412 -0.4666  0.7829 -0.4216
 4659TIP3    H135536   5.820   2.213   8.324 -0.9395 -1.7559 -1.5116
 4659TIP3    H235537   5.772   2.092   8.400 -0.9961  0.4832  2.3127
 4660TIP3   OH235538   6.128   0.881   3.159 -0.2752  0.0507 -0.0604
 4660TIP3    H135539   6.218   0.889   3.127 -0.2880  2.9802  0.3952
 4660TIP3    H235540   6.073   0.901   3.083 -0.4979  0.0723  0.1052
 4661TIP3   OH235541   5.987   5.286   1.821  0.2960  0.2366  0.1017
 4661TIP3    H135542   5.914   5.237   1.860  1.3931 -0.6204  1.1563
 4661TIP3    H235543   6.010   5.350   1.887  1.6019 -0.6467  0.5418
 4662TIP3   OH235544   3.299   0.879   7.494 -0.1351 -0.7560  0.6416
 4662TIP3    H135545   3.319   0.955   7.550 -1.0366 -0.2886  0.3454
 4662TIP3    H235546   3.374   0.821   7.505  0.4530  0.0674  1.0712
 4663TIP3   OH235547   3.092   2.801   8.327 -0.0159  0.3730 -0.3597
 4663TIP3    H135548   3.164   2.748   8.292 -0.7492 -0.9770  0.0963
 4663TIP3    H235549   3.051   2.744   8.393 -0.9899  1.4267 -0.0317
 4664TIP3   OH235550   3.256   4.161   0.561 -0.4408  0.1593 -0.7962
 4664TIP3    H135551   3.344   4.132   0.536  0.1422  1.4560 -0.3182
 4664TIP3    H235552   3.271   4.238   0.617 -1.8325 -0.3510  0.3410
 4665TIP3   OH235553   0.588   3.018   0.528  0.1027 -0.0068 -0.5311
 4665TIP3    H135554   0.535   3.096   0.512 -1.1505 -0.8051 -0.4264
 4665TIP3    H235555   0.677   3.051   0.539 -0.1728  1.2707 -1.8552
 4666TIP3   OH235556   3.632   2.487   0.813 -0.2567 -0.0469 -0.8052
 4666TIP3    H135557   3.622   2.460   0.722  1.1213  0.2695 -1.0696
 4666TIP3    H235558   3.679   2.414   0.854 -0.8552 -0.1805 -0.3518
 4667TIP3   OH235559   4.001   1.713   1.329  0.0279 -0.3557  0.6710
 4667TIP3    H135560   4.006   1.768   1.251  0.8444 -0.8062  0.3887
 4667TIP3    H235561   4.008   1.775   1.402 -1.6873  0.1567  0.4242
 4668TIP3   OH235562   4.641   0.710   8.201  0.0588 -0.4760  0.3470
 4668TIP3    H135563   4.699   0.634   8.206 -0.3048 -0.8674 -0.9361
 4668TIP3    H235564   4.559   0.675   8.164 -0.8863  0.1371  1.7710
 4669TIP3   OH235565   1.300   2.436   1.250 -0.3313  0.1313 -0.0400
 4669TIP3    H135566   1.276   2.503   1.186 -1.3781  0.2680  0.4778
 4669TIP3    H235567   1.299   2.354   1.201  0.7541  0.4527 -0.6288
 4670TIP3   OH235568   5.535   2.517   8.604  0.9121 -0.0018  0.5239
 4670TIP3    H135569   5.553   2.508   8.510  2.2889 -2.5205  0.9400
 4670TIP3    H235570   5.440   2.502   8.611  0.9601 -0.8442 -0.3795
 4671TIP3   OH235571   4.298   1.148   1.711  0.2087 -0.2108  0.4493
 4671TIP3    H135572   4.227   1.176   1.654  0.9935 -0.1378 -0.5245
 4671TIP3    H235573   4.374   1.142   1.654  1.2464  0.7680  1.6518
 4672TIP3   OH235574   2.034   6.833   0.125 -0.2254 -0.6576  0.8357
 4672TIP3    H135575   2.125   6.859   0.140  0.1923 -1.0329 -0.8830
 4672TIP3    H235576   2.025   6.751   0.172  0.4464 -0.8269  0.6797
 4673TIP3   OH235577   1.143   4.252   7.963  0.1244 -0.0804  0.1183
 4673TIP3    H135578   1.098   4.170   7.942  1.8154 -0.7951 -1.0019
 4673TIP3    H235579   1.155   4.250   8.058 -0.3374 -0.8721  0.1657
 4674TIP3   OH235580   5.015   6.701   8.007  0.1178  0.2294 -0.0072
 4674TIP3    H135581   4.931   6.670   8.041  0.3208 -2.0611 -1.3537
 4674TIP3    H235582   4.998   6.789   7.976 -1.5175  0.1826  0.6570
 4675TIP3   OH235583   3.903   2.584   2.830 -0.0516  0.4257  0.2723
 4675TIP3    H135584   3.947   2.571   2.914  1.9903  0.7538 -0.6750
 4675TIP3    H235585   3.813   2.605   2.853  0.2425 -0.3218  2.3339
 4676TIP3   OH235586   5.589   4.615   3.425 -0.4190 -0.7835  0.1561
 4676TIP3    H135587   5.671   4.566   3.432  0.0621 -0.0533 -0.1545
 4676TIP3    H235588   5.524   4.549   3.401 -0.0414 -1.4737  0.9877
 4677TIP3   OH235589   1.220   6.112   0.470 -0.0513 -0.0010 -0.4353
 4677TIP3    H135590   1.225   6.143   0.560  1.4606  2.5584 -1.3082
 4677TIP3    H235591   1.225   6.016   0.477  0.4620  0.1582  2.1571
 4678TIP3   OH235592   0.425   0.984   8.232  0.8249  0.0129  0.1488
 4678TIP3    H135593   0.508   0.998   8.187  1.1442 -0.6083  0.5331
 4678TIP3    H235594   0.399   1.071   8.263 -0.3642  0.8457 -2.8402
 4679TIP3   OH235595   2.442   0.611   8.163  0.0146  0.5084  0.1347
 4679TIP3    H135596   2.374   0.668   8.198  0.0986  0.0729  1.0500
 4679TIP3    H235597   2.523   0.644   8.202 -0.0950 -1.0423  1.7944
 4680TIP3   OH235598   0.723   5.872   0.754  0.4122  0.4441 -0.2819
 4680TIP3    H135599   0.654   5.863   0.690 -1.8046  0.5107  1.9407
 4680TIP3    H235600   0.742   5.782   0.782  1.6031  0.3869 -1.2058
 4681TIP3   OH235601   3.600   3.673   0.146  0.7003  0.5489  0.5353
 4681TIP3    H135602   3.572   3.582   0.159 -1.9484  0.9815 -1.2611
 4681TIP3    H235603   3.692   3.666   0.121  0.4584 -1.6980  0.0164
 4682TIP3   OH235604   3.220   5.469   1.725 -0.2008 -0.1532 -0.2768
 4682TIP3    H135605   3.272   5.546   1.746 -0.3419 -0.1703  0.1516
 4682TIP3    H235606   3.136   5.484   1.769 -0.3873 -0.3448 -0.5602
 4683TIP3   OH235607   0.158   0.025   2.937 -0.0402 -1.0822 -0.1556
 4683TIP3    H135608   0.129   0.104   2.892  0.2567  0.0125  1.4866
 4683TIP3    H235609   0.083  -0.003   2.989  0.5253 -0.5809  0.9663
 4684TIP3   OH235610   5.252   3.633   8.520 -0.4630  0.4619  0.5339
 4684TIP3    H135611   5.332   3.581   8.524  0.2375  1.5348  1.1520
 4684TIP3    H235612   5.185   3.572   8.490  0.6188 -0.4248 -0.1643
 4685TIP3   OH235613   4.832   3.310   2.557 -0.0550  0.4712 -0.2717
 4685TIP3    H135614   4.891   3.236   2.572 -0.2108  0.5546  0.8829
 4685TIP3    H235615   4.807   3.338   2.645 -3.3466 -0.7406 -0.7082
 4686TIP3   OH235616   2.437   0.829   7.788 -0.0427 -0.2444 -0.4263
 4686TIP3    H135617   2.511   0.856   7.843  0.0045  0.5763 -0.8778
 4686TIP3    H235618   2.421   0.738   7.813  0.1875  0.0119  0.7074
 4687TIP3   OH235619   2.305   1.243   1.162  0.7236 -0.2512 -0.2189
 4687TIP3    H135620   2.222   1.214   1.199  1.4836 -1.6284  0.4981
 4687TIP3    H235621   2.371   1.213   1.225  1.9610 -1.4469 -1.9696
 4688TIP3   OH235622   4.846   5.239   0.921 -0.4521 -0.7319 -0.3112
 4688TIP3    H135623   4.839   5.240   1.016  1.2334  0.0131 -0.1662
 4688TIP3    H235624   4.778   5.300   0.892  0.1750  0.4069  0.5334
 4689TIP3   OH235625   1.481   2.907   8.447 -1.0842 -0.2465  0.7483
 4689TIP3    H135626   1.391   2.879   8.428 -0.2062 -0.7181 -3.9322
 4689TIP3    H235627   1.534   2.831   8.426  0.5765  1.0252  0.1176
 4690TIP3   OH235628   3.094   3.350   3.402 -0.2970  0.2485 -0.0144
 4690TIP3    H135629   3.166   3.311   3.352 -0.8189  0.8949 -1.3435
 4690TIP3    H235630   3.109   3.323   3.492  1.4105  0.0702 -0.3142
 4691TIP3   OH235631   0.275   2.342   7.539  0.0287 -0.0192  0.0106
 4691TIP3    H135632   0.291   2.248   7.542  1.5698  0.2374  0.7001
 4691TIP3    H235633   0.180   2.350   7.542 -0.3120 -1.6136 -2.8611
 4692TIP3   OH235634   3.027   3.588   1.624  0.3180 -0.2849 -0.1989
 4692TIP3    H135635   3.118   3.602   1.598 -0.3398  1.6400 -1.6575
 4692TIP3    H235636   3.007   3.660   1.683 -0.0621 -1.1579  0.7735
 4693TIP3   OH235637   6.577   2.072   2.438  0.1970 -0.3033 -0.4821
 4693TIP3    H135638   6.554   1.980   2.451 -2.2183  0.2720 -0.0108
 4693TIP3    H235639   6.607   2.102   2.524  0.4735 -0.5390 -0.4989
 4694TIP3   OH235640   1.694   1.018   3.315 -0.7980 -0.1471 -0.4367
 4694TIP3    H135641   1.693   1.039   3.409 -1.8446 -0.5517 -0.3359
 4694TIP3    H235642   1.611   1.053   3.283 -0.3028  0.2665 -1.2839
 4695TIP3   OH235643   4.912   1.853   1.453 -0.2240  0.0960  0.2550
 4695TIP3    H135644   4.981   1.920   1.448  0.1901 -0.3483 -0.1769
 4695TIP3    H235645   4.945   1.781   1.399 -2.3991  1.0744 -2.6110
 4696TIP3   OH235646   3.152   0.132   8.288  0.3572 -0.7118  0.5968
 4696TIP3    H135647   3.080   0.114   8.227  0.4047 -0.3629  0.4374
 4696TIP3    H235648   3.231   0.130   8.234  0.6554 -2.6550  1.0261
 4697TIP3   OH235649   1.902   1.853   8.512  0.4146 -0.0573 -0.0216
 4697TIP3    H135650   1.857   1.905   8.578 -0.0618  0.9439 -1.0914
 4697TIP3    H235651   1.893   1.762   8.542 -0.5560  0.3045  0.8209
 4698TIP3   OH235652   6.638   4.751   3.230  0.0660 -0.4005 -0.1684
 4698TIP3    H135653   6.699   4.809   3.274  0.3412 -0.3074 -0.6667
 4698TIP3    H235654   6.552   4.775   3.266  0.1595  0.4091 -0.4592
 4699TIP3   OH235655   1.138   0.012   0.468  0.0770 -0.4634  0.0174
 4699TIP3    H135656   1.141   0.074   0.540  1.5094  0.8100 -1.0876
 4699TIP3    H235657   1.226   0.015   0.430  0.0675 -2.8686 -0.3422
 4700TIP3   OH235658   1.297   5.566   1.899 -0.2214 -0.0195  0.5138
 4700TIP3    H135659   1.241   5.632   1.940 -0.9952 -0.4497  0.1747
 4700TIP3    H235660   1.245   5.532   1.827  1.2159  0.8897 -1.0145
 4701TIP3   OH235661   6.159   2.687   7.757 -0.4554 -0.3909  0.3622
 4701TIP3    H135662   6.212   2.712   7.833  2.3356 -1.1393 -1.2376
 4701TIP3    H235663   6.137   2.771   7.715  2.5778 -0.1332 -0.9024
 4702TIP3   OH235664   4.015   0.383   2.719 -0.4683  0.2316 -0.5600
 4702TIP3    H135665   4.089   0.434   2.686  0.2275 -0.8571 -0.7481
 4702TIP3    H235666   3.979   0.339   2.642  0.4774 -1.4614 -0.0971
 4703TIP3   OH235667   3.505   2.319   8.411 -0.3787 -0.1849  0.6307
 4703TIP3    H135668   3.521   2.227   8.431  2.4947 -0.0329 -0.5194
 4703TIP3    H235669   3.531   2.329   8.320  0.1030  1.8975  0.9470
 4704TIP3   OH235670   5.694   5.621   0.243 -0.0188 -0.1218  0.2145
 4704TIP3    H135671   5.711   5.672   0.163 -2.9782  0.1279 -0.3530
 4704TIP3    H235672   5.725   5.678   0.314  0.5129  0.6676 -0.6160
 4705TIP3   OH235673   4.663   5.547   1.090  0.6845 -0.9691 -0.2637
 4705TIP3    H135674   4.725   5.476   1.074 -0.0074 -1.6477  0.0685
 4705TIP3    H235675   4.623   5.527   1.174  1.6729  0.6931  0.6711
 4706TIP3   OH235676   5.092   5.915   0.918 -0.0199 -0.0270  0.2231
 4706TIP3    H135677   5.158   5.852   0.890  0.3672  0.4628  0.0237
 4706TIP3    H235678   5.014   5.862   0.933  0.5582 -0.7029  1.0005
 4707TIP3   OH235679   4.784   4.816   7.695 -0.4291  0.7355  0.7042
 4707TIP3    H135680   4.704   4.808   7.643  0.7524  0.2741 -1.1399
 4707TIP3    H235681   4.843   4.750   7.660  1.1225  1.7160  1.3233
 4708TIP3   OH235682   4.270   2.830   2.726  0.0654 -0.0587  0.0265
 4708TIP3    H135683   4.338   2.793   2.669  0.2807 -0.6783  0.6732
 4708TIP3    H235684   4.197   2.850   2.667 -1.3011 -4.3016 -0.0772
 4709TIP3   OH235685   2.258   6.370   0.906  0.4105 -0.3875 -0.4238
 4709TIP3    H135686   2.187   6.413   0.954  0.8093  1.0877 -1.0945
 4709TIP3    H235687   2.319   6.341   0.974 -0.5847 -1.2363  0.1259
 4710TIP3   OH235688   0.966   2.478   1.373  0.4433 -0.3652 -0.2946
 4710TIP3    H135689   0.911   2.489   1.451 -2.2522  2.1394 -2.3503
 4710TIP3    H235690   1.041   2.536   1.389 -1.0517  1.6814 -0.2386
 4711TIP3   OH235691   0.237   0.194   2.469 -0.0481  0.1505 -0.9066
 4711TIP3    H135692   0.161   0.243   2.437 -0.1910  1.6327  1.4354
 4711TIP3    H235693   0.221   0.184   2.563  0.3419 -3.8741 -1.0745
 4712TIP3   OH235694   2.361   4.312   8.464 -0.2457  1.0314  0.1047
 4712TIP3    H135695   2.269   4.294   8.445  0.0600  1.1261 -1.6650
 4712TIP3    H235696   2.366   4.407   8.471 -0.5525  0.9443  1.9341
 4713TIP3   OH235697   2.188   4.591   1.812  0.3601 -0.0746 -0.1847
 4713TIP3    H135698   2.242   4.615   1.887  0.8059  1.9485 -1.0668
 4713TIP3    H235699   2.098   4.594   1.846  0.6655 -1.6135  0.8314
 4714TIP3   OH235700   5.329   2.024   2.397  0.0660  0.3555 -0.1009
 4714TIP3    H135701   5.241   1.985   2.395 -1.0632  2.6938  0.3629
 4714TIP3    H235702   5.341   2.053   2.487 -0.0452  2.7856 -0.7837
 4715TIP3   OH235703   3.204   6.202   0.927  0.0930 -0.5471 -0.1877
 4715TIP3    H135704   3.187   6.194   0.833 -0.0117  0.4003 -0.2607
 4715TIP3    H235705   3.293   6.236   0.933 -0.3268  0.5695  0.0039
 4716TIP3   OH235706   6.280   1.836   2.753  0.3359 -0.2524 -0.2178
 4716TIP3    H135707   6.263   1.776   2.825  0.5099 -0.7497 -0.5808
 4716TIP3    H235708   6.247   1.790   2.675 -0.6375  0.6438 -0.3485
 4717TIP3   OH235709   2.774   6.064   0.745  0.2292  0.2764 -0.4658
 4717TIP3    H135710   2.822   6.087   0.666  0.7875  1.6111  0.2390
 4717TIP3    H235711   2.687   6.039   0.714  1.0570 -1.3105 -1.6736
 4718TIP3   OH235712   6.501   1.827   1.546 -0.1089 -0.6427 -0.1253
 4718TIP3    H135713   6.429   1.885   1.521 -0.4000 -0.6020  0.7982
 4718TIP3    H235714   6.562   1.831   1.472 -0.2024  0.7074 -0.1398
 4719TIP3   OH235715   3.664   3.454   0.456  0.0092 -0.0162  0.3401
 4719TIP3    H135716   3.736   3.459   0.519 -2.1550  1.6300  2.9317
 4719TIP3    H235717   3.665   3.363   0.426  2.8662 -0.1481  0.5322
 4720TIP3   OH235718   5.670   3.867   8.005 -0.4071 -0.3069 -0.3600
 4720TIP3    H135719   5.607   3.803   8.038  1.3180 -1.8722  0.0572
 4720TIP3    H235720   5.674   3.850   7.911 -0.5779 -0.2247 -0.3830
 4721TIP3   OH235721   0.082   2.098   1.274 -0.2718 -0.2589 -0.2249
 4721TIP3    H135722   0.032   2.053   1.206  0.1750  1.2735 -1.6464
 4721TIP3    H235723   0.018   2.154   1.318 -0.3284 -0.3523 -0.1882
 4722TIP3   OH235724   1.446   4.513   1.231  0.2074 -0.0981  0.0538
 4722TIP3    H135725   1.450   4.546   1.142  0.8554 -1.3249 -0.3949
 4722TIP3    H235726   1.521   4.553   1.275  0.0329  0.3065 -0.0066
 4723TIP3   OH235727   3.683   6.490   8.458  0.5852  0.2748  0.3617
 4723TIP3    H135728   3.739   6.567   8.453 -1.5113  1.9062  0.6913
 4723TIP3    H235729   3.658   6.485   8.550 -0.4735  0.0909  0.0732
 4724TIP3   OH235730   4.465   1.875   1.482 -0.1704  0.1243  0.1803
 4724TIP3    H135731   4.454   1.821   1.561  2.6267 -0.2159  0.4240
 4724TIP3    H235732   4.424   1.824   1.412 -1.6355 -0.1204  1.1547
 4725TIP3   OH235733   6.724   6.172   1.581  0.2070  0.0699  0.0611
 4725TIP3    H135734   6.678   6.110   1.525 -2.5191  0.5329  1.6183
 4725TIP3    H235735   6.815   6.168   1.551 -0.1888 -3.2499 -1.1469
 4726TIP3   OH235736   0.045   4.714   0.115  0.1090  0.4748 -0.3956
 4726TIP3    H135737   0.074   4.698   0.026  0.1619  3.2717 -0.9701
 4726TIP3    H235738   0.045   4.809   0.124  0.5205  0.2959  2.7360
 4727TIP3   OH235739   3.408   1.938   2.656  0.0030  0.1194  0.5091
 4727TIP3    H135740   3.412   1.889   2.738 -1.2170 -1.1185 -0.1284
 4727TIP3    H235741   3.375   1.875   2.592  5.1415 -0.4244 -2.0841
 4728TIP3   OH235742   2.171   0.149   3.401 -0.2679  0.3655  0.2555
 4728TIP3    H135743   2.081   0.168   3.428 -0.3201  1.5856 -0.7033
 4728TIP3    H235744   2.224   0.185   3.472 -0.4794  1.4105 -0.1034
 4729TIP3   OH235745   4.355   0.604   8.331 -0.7347  0.2433  0.0377
 4729TIP3    H135746   4.271   0.559   8.339 -0.6299 -0.4551 -2.1301
 4729TIP3    H235747   4.370   0.610   8.237  1.9778 -0.2691  0.3470
 4730TIP3   OH235748   5.524   5.000   1.883  0.2030 -0.5515 -0.2328
 4730TIP3    H135749   5.550   5.069   1.943 -1.8502  1.1282 -1.1698
 4730TIP3    H235750   5.590   5.002   1.813  1.0217 -0.6451  0.5178
 4731TIP3   OH235751   3.787   5.995   7.052  0.0476 -0.1661  0.3184
 4731TIP3    H135752   3.851   5.924   7.056 -2.0445 -2.4076 -2.1438
 4731TIP3    H235753   3.711   5.961   7.099 -0.7831  0.6958 -0.3670
 4732TIP3   OH235754   6.295   3.105   0.925  0.0539  0.4474 -0.1034
 4732TIP3    H135755   6.315   3.165   0.853  2.8895 -2.0767 -1.6537
 4732TIP3    H235756   6.380   3.082   0.962 -0.9352 -2.0430  0.8606
 4733TIP3   OH235757   3.796   5.150   2.122 -0.5395 -0.3897 -0.0356
 4733TIP3    H135758   3.730   5.212   2.151 -2.0627 -1.3376 -1.3096
 4733TIP3    H235759   3.879   5.188   2.150 -1.3589  2.4074 -1.0975
 4734TIP3   OH235760   6.333   0.670   8.417  0.1817  0.1997  0.3209
 4734TIP3    H135761   6.263   0.639   8.474  0.8424 -1.1147  0.4474
 4734TIP3    H235762   6.287   0.709   8.342 -0.6830  0.0783  0.7780
 4735TIP3   OH235763   3.627   2.833   0.654  0.3133 -0.4806 -0.2257
 4735TIP3    H135764   3.705   2.800   0.698 -0.1799 -0.8140  0.4182
 4735TIP3    H235765   3.622   2.782   0.573  0.6173 -0.6342 -0.1498
 4736TIP3   OH235766   4.336   4.081   0.962  0.2481  0.2512  0.0855
 4736TIP3    H135767   4.423   4.061   0.927  0.4315  0.1664  0.5777
 4736TIP3    H235768   4.290   4.125   0.890  0.1710 -1.0607 -0.6950
 4737TIP3   OH235769   2.060   6.260   2.287  0.4832 -0.0926 -0.4868
 4737TIP3    H135770   2.030   6.282   2.199 -0.3116 -0.5819 -0.3587
 4737TIP3    H235771   2.109   6.179   2.277  1.7832  0.6933 -0.6919
 4738TIP3   OH235772   3.261   2.586   8.273  0.2562 -0.0374  0.2663
 4738TIP3    H135773   3.340   2.619   8.231  0.0770 -0.7776 -0.7029
 4738TIP3    H235774   3.290   2.510   8.324  0.1261 -0.5625 -0.4222
 4739TIP3   OH235775   2.572   5.268   1.121  0.3248  0.0157  0.0592
 4739TIP3    H135776   2.667   5.265   1.126  0.5617  1.0406 -2.5501
 4739TIP3    H235777   2.548   5.195   1.065 -0.4282 -0.0556  0.4559
 4740TIP3   OH235778   2.020   1.872   1.156  0.1071  0.2860  0.2615
 4740TIP3    H135779   2.086   1.937   1.181  0.1964  0.0072  0.7594
 4740TIP3    H235780   2.072   1.797   1.126  0.0454 -0.3661  1.7349
 4741TIP3   OH235781   6.657   5.960   1.388 -0.0567  0.7364 -0.4895
 4741TIP3    H135782   6.654   5.970   1.293 -0.4512 -0.6798 -0.6439
 4741TIP3    H235783   6.670   5.866   1.402 -2.3916  0.5406  0.8705
 4742TIP3   OH235784   4.446   2.707   0.597 -0.9279  0.5781 -0.4807
 4742TIP3    H135785   4.476   2.768   0.665  2.6405 -0.1377 -1.2097
 4742TIP3    H235786   4.408   2.634   0.645  1.7052 -0.0148  0.8847
 4743TIP3   OH235787   0.729   1.911   8.343 -0.1697  0.1515 -0.0589
 4743TIP3    H135788   0.674   1.945   8.414  0.0259  1.3746 -0.4555
 4743TIP3    H235789   0.668   1.897   8.271 -0.1983 -0.0282 -0.0007
 4744TIP3   OH235790   1.124   0.690   8.480 -0.6692  0.4011 -0.4607
 4744TIP3    H135791   1.187   0.729   8.541  0.6882 -0.3543 -1.3239
 4744TIP3    H235792   1.084   0.619   8.529  1.4741 -1.1629 -0.8233
 4745TIP3   OH235793   0.550   0.517   0.701  0.2276  0.4835  0.3913
 4745TIP3    H135794   0.575   0.573   0.775 -1.5630  1.4951  0.2972
 4745TIP3    H235795   0.535   0.578   0.629 -0.3939 -0.2504 -0.1206
 4746TIP3   OH235796   2.303   2.714   2.749  0.1270  0.9410  0.3090
 4746TIP3    H135797   2.317   2.772   2.674 -2.7468  1.1698 -0.1758
 4746TIP3    H235798   2.240   2.761   2.803 -0.8833 -0.9474  0.8235
 4747TIP3   OH235799   3.412   3.585   2.284  0.2284 -0.1284 -0.0295
 4747TIP3    H135800   3.459   3.617   2.361 -1.0235 -0.0063  0.7067
 4747TIP3    H235801   3.467   3.612   2.210  0.7796  0.9529  0.7414
 4748TIP3   OH235802   1.250   3.398   8.093 -0.3471  0.0631 -0.2684
 4748TIP3    H135803   1.250   3.304   8.072 -1.4328  0.1487 -0.7076
 4748TIP3    H235804   1.266   3.441   8.009 -1.9957  0.3254 -0.4769
 4749TIP3   OH235805   1.769   1.561   0.014  0.8624  0.0993 -0.5670
 4749TIP3    H135806   1.850   1.540  -0.033  1.8149  1.6240  0.3092
 4749TIP3    H235807   1.764   1.494   0.082  1.0227 -0.3973 -1.0335
 4750TIP3   OH235808   4.201   1.074   7.641  0.1915  0.0236  0.2558
 4750TIP3    H135809   4.218   0.989   7.601  1.2694  0.1071  0.5100
 4750TIP3    H235810   4.233   1.137   7.578 -1.7567  0.3234 -0.5059
 4751TIP3   OH235811   3.816   6.511   2.813  0.5817  0.0444  0.6806
 4751TIP3    H135812   3.759   6.549   2.880  1.5945 -0.3343  1.7931
 4751TIP3    H235813   3.870   6.584   2.783 -0.6817  0.4867 -0.6393
 4752TIP3   OH235814   3.119   6.627   2.707  0.2634 -0.0472  0.0913
 4752TIP3    H135815   3.147   6.567   2.775 -0.2160  0.4028  0.6877
 4752TIP3    H235816   3.083   6.571   2.638  0.6982 -0.4945  0.2240
 4753TIP3   OH235817   5.886   4.033   1.138 -0.5359 -0.5311 -0.4285
 4753TIP3    H135818   5.793   4.046   1.158 -0.7946  0.3871 -2.0365
 4753TIP3    H235819   5.899   4.079   1.055  1.4989 -0.1510  0.0534
 4754TIP3   OH235820   2.906   2.138   1.776 -0.1256  0.0972 -0.1652
 4754TIP3    H135821   2.854   2.210   1.812  0.7881  1.5625 -1.6245
 4754TIP3    H235822   2.979   2.181   1.732  0.5691 -1.7538 -0.9217
 4755TIP3   OH235823   0.906   2.993   1.222  0.0194  0.0990  0.4057
 4755TIP3    H135824   0.999   2.985   1.244  0.1548 -0.5983 -0.3476
 4755TIP3    H235825   0.905   3.003   1.127 -0.7665 -3.1520 -0.0489
 4756TIP3   OH235826   4.368   1.236   0.343 -0.2657  0.0025  0.0874
 4756TIP3    H135827   4.284   1.246   0.298 -0.2074 -0.5501 -0.1577
 4756TIP3    H235828   4.350   1.174   0.414 -0.0258 -0.2675 -0.0830
 4757TIP3   OH235829   3.024   1.416   7.874  0.3092  0.0640 -0.2762
 4757TIP3    H135830   2.985   1.329   7.867  1.4650 -0.5853  0.9661
 4757TIP3    H235831   2.961   1.474   7.830 -1.0455 -1.2212 -0.1082
 4758TIP3   OH235832   0.666   6.036   7.890  0.1509  0.0387 -0.4032
 4758TIP3    H135833   0.688   5.948   7.862  0.1142  0.2319 -1.0549
 4758TIP3    H235834   0.741   6.090   7.863  0.8600 -0.0191  1.3128
 4759TIP3   OH235835   3.755   3.996   1.276 -0.8361  0.7705 -0.0863
 4759TIP3    H135836   3.772   4.089   1.264 -1.7464  1.0784  0.8051
 4759TIP3    H235837   3.813   3.952   1.214 -0.3039  1.9215 -0.4281
 4760TIP3   OH235838   6.598   1.219   7.998 -0.5508 -0.1733  0.6427
 4760TIP3    H135839   6.556   1.277   7.935  0.4494 -2.2307 -2.1071
 4760TIP3    H235840   6.688   1.251   8.004 -0.9878  0.8877  2.2604
 4761TIP3   OH235841   2.575   4.277   8.139 -0.0206 -0.3508  0.1238
 4761TIP3    H135842   2.585   4.282   8.044  2.3738 -1.0503  0.2647
 4761TIP3    H235843   2.585   4.367   8.170 -1.0906 -0.0817 -0.2791
 4762TIP3   OH235844   3.779   6.252   8.014 -0.7188  0.1552 -0.0512
 4762TIP3    H135845   3.783   6.305   7.934 -0.4974 -0.5644 -0.5309
 4762TIP3    H235846   3.836   6.178   7.996 -2.2754 -1.0957 -0.0393
 4763TIP3   OH235847   4.918   6.375   0.359  0.0546  0.0376  0.1279
 4763TIP3    H135848   5.009   6.397   0.338 -0.1411  2.7672  1.5863
 4763TIP3    H235849   4.915   6.377   0.455 -1.5554  0.1301  0.0967
 4764TIP3   OH235850   3.925   6.361   2.592 -0.1596  0.1434 -0.0711
 4764TIP3    H135851   4.009   6.407   2.586  0.0216 -0.2394 -0.5118
 4764TIP3    H235852   3.877   6.408   2.660  0.2259  0.6613 -0.1488
 4765TIP3   OH235853   6.818   6.773   3.095 -0.1544  0.1740  0.4561
 4765TIP3    H135854   6.877   6.711   3.138 -0.1896 -0.2567 -0.1021
 4765TIP3    H235855   6.758   6.802   3.165 -0.2125 -0.5084  0.7011
 4766TIP3   OH235856   3.061   6.712   2.346  0.7070  0.0955 -0.2525
 4766TIP3    H135857   3.037   6.619   2.341  1.4528 -0.1153  0.0194
 4766TIP3    H235858   3.154   6.712   2.368  1.2822  0.8644 -2.3927
 4767TIP3   OH235859   4.560   4.445   3.386  0.1716  0.0108 -0.7294
 4767TIP3    H135860   4.550   4.541   3.382 -0.6291 -0.0898 -1.1440
 4767TIP3    H235861   4.646   4.429   3.345  0.0966  0.5112 -1.0982
 4768TIP3   OH235862   2.505   6.423   3.311 -0.6912  0.0405  0.4869
 4768TIP3    H135863   2.584   6.472   3.289 -1.2769  1.4433  1.4051
 4768TIP3    H235864   2.534   6.332   3.318  0.6713  0.4234  0.0364
 4769TIP3   OH235865   2.755   5.118   2.360  0.4092 -0.2108 -0.3646
 4769TIP3    H135866   2.755   5.044   2.421  0.9986 -0.4001 -0.5830
 4769TIP3    H235867   2.769   5.078   2.274 -2.3472 -0.1652 -0.9278
 4770TIP3   OH235868   0.053   1.637   7.886  0.8144 -0.1939  0.2836
 4770TIP3    H135869  -0.015   1.688   7.929  3.1898  1.5676  2.2288
 4770TIP3    H235870   0.040   1.652   7.792 -0.9925  0.6649  0.6418
 4771TIP3   OH235871   3.205   4.387   0.732 -0.1420 -0.0044 -0.1789
 4771TIP3    H135872   3.126   4.403   0.784 -0.1987 -0.1828 -0.2058
 4771TIP3    H235873   3.274   4.372   0.796 -0.2767 -0.5364 -0.1457
 4772TIP3   OH235874   4.512   4.583   0.199  0.1356 -0.2512  0.2526
 4772TIP3    H135875   4.494   4.629   0.281  1.6652  1.6108 -0.3902
 4772TIP3    H235876   4.490   4.647   0.131  0.2289 -1.2652 -0.7518
 4773TIP3   OH235877   6.353   3.785   1.259  0.3934  0.0976  0.2259
 4773TIP3    H135878   6.401   3.856   1.217 -0.8290  1.4726  1.0718
 4773TIP3    H235879   6.359   3.712   1.197  0.1196  1.5103 -1.5542
 4774TIP3   OH235880   2.496   3.316   8.432  0.4269 -0.5549  0.3671
 4774TIP3    H135881   2.490   3.223   8.454 -0.3918 -0.2593  1.4951
 4774TIP3    H235882   2.549   3.353   8.501  0.5195 -0.1345  0.0720
 4775TIP3   OH235883   3.091   3.311   0.722 -0.0478  0.6216  0.0348
 4775TIP3    H135884   3.096   3.217   0.703  0.7143  1.0523 -2.1219
 4775TIP3    H235885   3.180   3.336   0.746  0.2758  1.1940 -1.6452
 4776TIP3   OH235886   5.777   3.487   3.023 -0.0987  0.1660 -0.5903
 4776TIP3    H135887   5.834   3.559   3.048 -0.9947  1.0269 -0.9636
 4776TIP3    H235888   5.701   3.529   2.982 -0.7998 -0.9659 -0.5065
 4777TIP3   OH235889   3.231   5.742   1.766 -0.8821  0.1318  0.1220
 4777TIP3    H135890   3.300   5.742   1.833 -0.3295 -1.4460 -0.4078
 4777TIP3    H235891   3.258   5.811   1.705  0.5062 -0.7398 -0.3101
 4778TIP3   OH235892   2.986   2.629   7.869 -0.0510 -0.1223 -0.0341
 4778TIP3    H135893   2.941   2.565   7.925  0.9248 -1.1143 -0.3481
 4778TIP3    H235894   2.916   2.685   7.836 -1.1616 -1.9561 -0.9432
 4779TIP3   OH235895   5.030   1.820   8.580 -0.6006  0.5353  0.1673
 4779TIP3    H135896   5.046   1.911   8.554 -0.6999  0.2257 -1.0406
 4779TIP3    H235897   5.118   1.783   8.594 -0.4547  0.3627 -1.0403
 4780TIP3   OH235898   5.033   0.381   8.515 -0.2325  0.6837  0.2610
 4780TIP3    H135899   5.006   0.466   8.482 -0.2725  0.7738  0.5213
 4780TIP3    H235900   5.008   0.382   8.608  2.2664  1.4928  1.0114
 4781TIP3   OH235901   5.775   1.093   1.397  0.2722 -0.2300  0.0983
 4781TIP3    H135902   5.723   1.173   1.407  1.6028  0.4548  1.9793
 4781TIP3    H235903   5.857   1.111   1.443  1.0528 -2.3130 -0.3512
 4782TIP3   OH235904   5.922   2.648   3.279 -0.3771 -0.2058 -0.0397
 4782TIP3    H135905   5.967   2.677   3.358  0.4758 -0.8670 -0.2630
 4782TIP3    H235906   5.965   2.696   3.208 -0.4720 -0.3433 -0.1911
 4783TIP3   OH235907   3.099   3.427   1.282  0.2158 -0.4441  0.1793
 4783TIP3    H135908   3.016   3.390   1.313 -0.8690 -0.6775 -2.6988
 4783TIP3    H235909   3.080   3.520   1.269  1.6562  0.3855  3.2362
 4784TIP3   OH235910   2.852   3.052   8.006 -0.3944 -0.0982  0.0531
 4784TIP3    H135911   2.838   3.080   7.916  0.8731 -0.2388 -0.2063
 4784TIP3    H235912   2.945   3.030   8.010 -0.3646  0.1954  1.4783
 4785TIP3   OH235913   1.960   1.065   0.172  1.2022 -0.5455  0.3053
 4785TIP3    H135914   1.912   1.092   0.250  0.6224  0.0390 -0.2494
 4785TIP3    H235915   1.892   1.048   0.106  1.7414  2.5717 -1.2436
 4786TIP3   OH235916   1.326   5.631   0.843 -0.4021 -0.0329  0.2302
 4786TIP3    H135917   1.274   5.698   0.886  0.1860 -0.2902  1.3956
 4786TIP3    H235918   1.316   5.648   0.750 -1.8727  0.4348  0.4549
 4787TIP3   OH235919   3.996   4.817   8.322  0.0882 -0.1463  0.1513
 4787TIP3    H135920   3.929   4.837   8.256  0.0157 -3.2500 -0.8854
 4787TIP3    H235921   4.070   4.784   8.271  0.5611 -1.2895  1.5112
 4788TIP3   OH235922   3.779   6.484   0.817  0.0075  0.2239 -0.2067
 4788TIP3    H135923   3.743   6.528   0.740  0.0742 -0.1344 -0.4427
 4788TIP3    H235924   3.822   6.405   0.783  0.6094  0.3978  0.1193
 4789TIP3   OH235925   2.476   3.632   0.210  0.0905 -0.0268 -0.1690
 4789TIP3    H135926   2.526   3.707   0.243  0.5918 -0.3503 -0.1821
 4789TIP3    H235927   2.391   3.638   0.254 -0.0029  0.7523 -0.4499
 4790TIP3   OH235928   3.518   4.510   8.610  0.0877  0.0628  0.0469
 4790TIP3    H135929   3.460   4.586   8.603 -0.3785 -0.3229 -0.3775
 4790TIP3    H235930   3.582   4.535   8.676 -1.0585  0.1856  1.1540
 4791TIP3   OH235931   0.071   6.301   0.856  0.2155  0.0116 -0.0231
 4791TIP3    H135932   0.134   6.298   0.929 -0.4567 -0.6241  0.5392
 4791TIP3    H235933  -0.003   6.351   0.891 -0.1248 -0.3290 -0.2593
 4792TIP3   OH235934   5.401   4.040   1.773  0.5632 -0.3713 -0.4313
 4792TIP3    H135935   5.413   4.039   1.868  2.1824  1.2506 -0.5754
 4792TIP3    H235936   5.489   4.050   1.738 -0.0994 -0.0974 -2.0948
 4793TIP3   OH235937   2.188   3.113   0.039 -0.2141 -0.6189  0.5132
 4793TIP3    H135938   2.120   3.047   0.055 -1.2882  0.6886  1.5970
 4793TIP3    H235939   2.148   3.172  -0.025 -0.2565  0.3675  1.4343
 4794TIP3   OH235940   4.132   4.126   2.413  0.2690 -0.4525  0.0015
 4794TIP3    H135941   4.062   4.061   2.406 -0.0910 -0.0741  0.0628
 4794TIP3    H235942   4.176   4.104   2.496 -1.6480  1.1060  1.5414
 4795TIP3   OH235943   0.304   6.575   2.545 -0.3085 -0.3320  0.2318
 4795TIP3    H135944   0.281   6.665   2.570  0.5004  0.2832 -1.0753
 4795TIP3    H235945   0.232   6.521   2.577 -1.9800  1.0836 -0.9656
 4796TIP3   OH235946   6.596   6.373   8.593 -0.0721 -0.5005  0.3241
 4796TIP3    H135947   6.691   6.389   8.590 -0.1605 -0.0842 -0.7531
 4796TIP3    H235948   6.559   6.456   8.624 -0.0682 -0.7874  1.1228
 4797TIP3   OH235949   3.810   4.085   2.392  0.1276 -0.3718 -0.5041
 4797TIP3    H135950   3.744   4.124   2.449  1.3590  1.7591 -0.4348
 4797TIP3    H235951   3.781   4.105   2.303 -0.1046 -0.8129 -0.5310
 4798TIP3   OH235952   3.333   6.780   1.653  0.0885 -0.0839 -0.0351
 4798TIP3    H135953   3.337   6.771   1.558  1.3990  1.8715 -0.2374
 4798TIP3    H235954   3.413   6.739   1.685  0.4063  0.5942  0.0617
 4799TIP3   OH235955   2.421   4.998   2.094 -1.0334 -0.0666 -0.1160
 4799TIP3    H135956   2.328   4.977   2.084 -1.0440 -0.3302  0.4579
 4799TIP3    H235957   2.423   5.079   2.145 -0.9869  1.3385 -2.2384
 4800TIP3   OH235958   2.443   5.538   2.535  0.3112  0.1397  0.5463
 4800TIP3    H135959   2.402   5.572   2.456  0.0125 -0.3674  0.4740
 4800TIP3    H235960   2.502   5.469   2.503 -1.9329 -2.1388  0.9005
 4801TIP3   OH235961   3.302   6.029   7.532  0.1397 -0.0353  0.1236
 4801TIP3    H135962   3.286   5.990   7.618 -0.3678  0.2029  0.1432
 4801TIP3    H235963   3.397   6.026   7.521  0.1592 -0.5912  0.4426
 4802TIP3   OH235964   2.510   6.456   8.506  0.2487  0.0515 -0.2927
 4802TIP3    H135965   2.560   6.375   8.518 -0.8635 -0.5118  0.8759
 4802TIP3    H235966   2.442   6.432   8.442  0.1686  0.1721 -0.2534
 4803TIP3   OH235967   5.808   1.676   0.238 -0.0182  0.2878 -0.4037
 4803TIP3    H135968   5.839   1.759   0.200 -1.4259  0.9083 -0.2665
 4803TIP3    H235969   5.724   1.698   0.277 -0.0214 -1.0394  0.3877
 4804TIP3   OH235970   5.396   5.521   8.037  0.5508  0.4999  0.4284
 4804TIP3    H135971   5.457   5.539   8.108  0.6017  0.7015  0.3323
 4804TIP3    H235972   5.372   5.607   8.002  1.6761  0.3659 -0.7729
 4805TIP3   OH235973   6.492   0.194   2.400  0.4407 -0.4161 -0.6008
 4805TIP3    H135974   6.578   0.172   2.437  0.0287  0.1864  0.7717
 4805TIP3    H235975   6.431   0.181   2.472 -1.2908 -4.6003 -2.4734
 4806TIP3   OH235976   0.994   6.499   0.070  0.1202 -0.5158  0.3396
 4806TIP3    H135977   1.034   6.582   0.094 -0.5161  0.5029 -1.8496
 4806TIP3    H235978   0.900   6.514   0.079 -0.0967 -0.3772 -1.6755
 4807TIP3   OH235979   1.354   6.523   1.318  0.4412  0.4360 -0.2088
 4807TIP3    H135980   1.344   6.509   1.412 -0.1065 -0.4590 -0.3808
 4807TIP3    H235981   1.273   6.487   1.280 -0.6913  3.3852 -0.8003
 4808TIP3   OH235982   4.346   0.174   8.581  0.5333  0.3777 -0.2364
 4808TIP3    H135983   4.404   0.099   8.564 -0.0799 -1.0438  3.1434
 4808TIP3    H235984   4.262   0.148   8.544  1.0256  0.7879 -1.7403
 4809TIP3   OH235985   0.458   5.482   0.080 -0.2618 -0.1803 -0.4232
 4809TIP3    H135986   0.531   5.432   0.043 -0.1976 -0.6937  0.3591
 4809TIP3    H235987   0.418   5.527   0.005  0.6419 -0.1700 -0.9108
 4810TIP3   OH235988   3.300   3.681   1.260  0.4890  0.0094  0.3390
 4810TIP3    H135989   3.213   3.689   1.298  0.5045  1.5008  0.1030
 4810TIP3    H235990   3.291   3.714   1.171  1.2412 -0.0590  0.2291
 4811TIP3   OH235991   6.699   6.305   0.197  0.1364  0.2898 -0.4060
 4811TIP3    H135992   6.759   6.379   0.185 -1.5697  1.9893  0.9904
 4811TIP3    H235993   6.614   6.345   0.213 -1.0653 -2.0268 -0.5684
 4812TIP3   OH235994   2.845   5.293   1.156 -0.0596  0.5541 -0.9263
 4812TIP3    H135995   2.905   5.234   1.110 -0.6051  1.0844 -2.4068
 4812TIP3    H235996   2.902   5.353   1.203  0.5042 -1.1512  0.6659
 4813TIP3   OH235997   3.807   4.396   2.236  0.1464 -0.1517  0.8386
 4813TIP3    H135998   3.798   4.384   2.142  0.4477 -1.1831  0.9276
 4813TIP3    H235999   3.800   4.490   2.249 -1.8053 -0.1175 -0.0051
 4814TIP3   OH236000   0.519   5.298   2.349  0.5366 -0.3630  0.0128
 4814TIP3    H136001   0.454   5.229   2.362  0.9026 -0.4707  1.3239
 4814TIP3    H236002   0.596   5.253   2.316  0.2479 -0.3452 -0.7176
 4815TIP3   OH236003   4.240   5.254   0.782  0.1357 -0.0947  0.6570
 4815TIP3    H136004   4.316   5.291   0.826 -0.4046  0.3369  1.2388
 4815TIP3    H236005   4.277   5.193   0.718  0.9441 -0.6234  1.6000
 4816TIP3   OH236006   0.015   0.968   8.361  0.1258  0.2338  0.1190
 4816TIP3    H136007  -0.014   0.993   8.274 -0.3518  1.5082  0.6370
 4816TIP3    H236008   0.021   1.050   8.410 -0.6315 -0.5522  1.6008
 4817TIP3   OH236009   1.183   2.208   0.033 -0.0479  0.1593 -0.2945
 4817TIP3    H136010   1.247   2.201   0.104 -1.2087 -0.1527  0.7391
 4817TIP3    H236011   1.164   2.118   0.008 -0.3163  0.2431 -0.3947
 4818TIP3   OH236012   4.884   2.300   1.161  0.1803 -0.4129  0.1902
 4818TIP3    H136013   4.802   2.348   1.163  0.3070 -0.1934  0.2092
 4818TIP3    H236014   4.878   2.245   1.084  0.9252  1.2317 -1.1170
 4819TIP3   OH236015   4.080   0.725   0.638 -0.1889 -0.5890 -0.4505
 4819TIP3    H136016   4.042   0.652   0.687  0.9163 -0.5210  0.5505
 4819TIP3    H236017   4.146   0.761   0.696 -0.1816  0.7397 -1.2452
 4820TIP3   OH236018   4.445   2.904   1.224  0.2429  0.2778 -0.6772
 4820TIP3    H136019   4.526   2.857   1.244  0.3713 -0.2999 -2.4058
 4820TIP3    H236020   4.457   2.989   1.266  1.2867 -0.1759  0.0043
 4821TIP3   OH236021   4.423   4.071   8.255 -0.3057 -0.3019 -0.5611
 4821TIP3    H136022   4.400   4.118   8.335  0.1159  0.2984 -0.7871
 4821TIP3    H236023   4.344   4.021   8.233 -1.0338  0.8913 -0.7289
 4822TIP3   OH236024   1.483   3.123   2.282 -0.4093 -0.6274  0.4112
 4822TIP3    H136025   1.389   3.136   2.275 -0.8696 -2.5947  2.0001
 4822TIP3    H236026   1.517   3.145   2.196 -2.2661  0.5052 -0.0744
 4823TIP3   OH236027   1.430   4.958   8.345 -0.3163  0.0533  0.1268
 4823TIP3    H136028   1.450   4.875   8.389 -0.2353  0.3972  0.7476
 4823TIP3    H236029   1.342   4.945   8.309 -0.1030 -0.4798 -0.2203
 4824TIP3   OH236030   3.110   1.093   8.433 -0.0416  0.2352  0.0047
 4824TIP3    H136031   3.054   1.142   8.373 -1.2037 -0.7282  0.2736
 4824TIP3    H236032   3.111   1.004   8.398 -0.2877 -0.2109  1.0963
 4825TIP3   OH236033   0.517   2.304   8.551 -0.2655  0.0924 -0.6064
 4825TIP3    H136034   0.429   2.270   8.534  0.0165 -0.3290 -1.2444
 4825TIP3    H236035   0.515   2.328   8.644 -0.4643 -1.7187 -0.0890
 4826TIP3   OH236036   5.018   6.071   1.266 -0.7881 -0.3596  0.2824
 4826TIP3    H136037   5.084   6.139   1.250 -2.4937  2.0315  2.4855
 4826TIP3    H236038   4.951   6.086   1.200 -0.9049 -0.2645  0.4221
 4827TIP3   OH236039   2.713   1.400   8.269  0.0809  0.1768 -0.3025
 4827TIP3    H136040   2.718   1.408   8.364  0.6047  0.6710 -0.3630
 4827TIP3    H236041   2.639   1.342   8.253  2.3793 -3.2805  0.5455
 4828TIP3   OH236042   6.172   4.120   1.756  0.1281  0.7668 -0.1719
 4828TIP3    H136043   6.233   4.077   1.817 -0.9778 -1.8144 -0.7553
 4828TIP3    H236044   6.085   4.101   1.792 -0.5212 -0.3055 -2.1755
 4829TIP3   OH236045   3.456   1.506   8.312  0.9907 -0.3861  0.3234
 4829TIP3    H136046   3.395   1.533   8.380  1.4772  0.2036  0.5357
 4829TIP3    H236047   3.458   1.410   8.318  0.4850 -0.3747  0.6560
 4830TIP3   OH236048   2.810   0.274   1.782 -0.6192 -0.2283  0.2169
 4830TIP3    H136049   2.871   0.342   1.752 -1.2208  0.1241 -0.2222
 4830TIP3    H236050   2.786   0.300   1.871 -0.5839 -0.0538  0.1747
 4831TIP3   OH236051   1.982   0.066   0.579  0.6106 -0.0610  0.8825
 4831TIP3    H136052   1.981  -0.024   0.547 -1.0487  0.0292  0.5908
 4831TIP3    H236053   2.015   0.117   0.504  1.4192 -0.3945  1.0022
 4832TIP3   OH236054   5.931   3.860   1.671 -0.0895 -0.7261 -0.3034
 4832TIP3    H136055   5.953   3.932   1.611  1.5156 -1.1387 -0.2731
 4832TIP3    H236056   5.921   3.784   1.613 -0.4006 -0.7540 -0.2123
 4833TIP3   OH236057   2.397   2.435   8.673  0.1912  0.2223  0.7181
 4833TIP3    H136058   2.365   2.481   8.595  1.3548  1.2983  0.8414
 4833TIP3    H236059   2.478   2.394   8.645  1.0928  1.3595  1.5604
 4834TIP3   OH236060   5.198   5.802   0.196 -0.1524 -0.1223 -0.3721
 4834TIP3    H136061   5.268   5.844   0.246  0.4792 -0.9888 -0.5225
 4834TIP3    H236062   5.137   5.874   0.176 -1.8900 -0.0700  3.9393
 4835TIP3   OH236063   5.217   6.177   2.219 -0.0036 -0.3314 -0.1400
 4835TIP3    H136064   5.257   6.157   2.303 -0.9459  0.4601  0.5250
 4835TIP3    H236065   5.246   6.106   2.161 -1.1133 -2.1597  1.4143
 4836TIP3   OH236066   6.080   2.997   0.708 -0.4870 -0.4530 -0.1031
 4836TIP3    H136067   6.123   2.992   0.623 -0.5084  2.5368 -0.3720
 4836TIP3    H236068   5.988   2.977   0.691 -0.4092 -0.3032 -0.6982
 4837TIP3   OH236069   3.216   1.464   7.683 -0.3238 -0.0425 -0.3614
 4837TIP3    H136070   3.202   1.559   7.691 -2.5607 -0.3724  0.4219
 4837TIP3    H236071   3.159   1.426   7.750  1.3558 -1.9366  0.1012
 4838TIP3   OH236072   1.721   4.329   0.446 -0.1351  0.1868 -0.8218
 4838TIP3    H136073   1.713   4.234   0.455 -0.9945  0.3878  1.0199
 4838TIP3    H236074   1.645   4.355   0.394  0.0334 -0.1206 -1.2243
 4839TIP3   OH236075   2.364   2.595   2.075  0.0552  0.1728  0.3632
 4839TIP3    H136076   2.331   2.626   1.990 -0.5352 -0.6832  0.2728
 4839TIP3    H236077   2.291   2.546   2.113  1.0967 -1.4681  0.3182
 4840TIP3   OH236078   2.372   1.090   2.997  0.4572  0.3170  0.2310
 4840TIP3    H136079   2.399   1.026   2.931  0.7482  1.4549 -0.7869
 4840TIP3    H236080   2.448   1.096   3.055  1.5208  1.6906 -1.2200
 4841TIP3   OH236081   4.939   2.486   0.066  0.2607 -0.0196 -0.6096
 4841TIP3    H136082   4.969   2.396   0.058  2.6197  0.5291  0.9860
 4841TIP3    H236083   4.849   2.485   0.034 -0.3955 -3.2915  0.9812
 4842TIP3   OH236084   5.493   0.659   1.347 -0.3160  0.0597  0.2077
 4842TIP3    H136085   5.502   0.710   1.267  2.5829 -2.7947 -1.5482
 4842TIP3    H236086   5.559   0.695   1.406  0.9879 -0.8774 -0.6285
 4843TIP3   OH236087   5.800   4.373   1.751  0.3733  0.6464 -0.1616
 4843TIP3    H136088   5.725   4.418   1.712  0.2680  1.4247  0.8909
 4843TIP3    H236089   5.766   4.286   1.773 -0.4327  1.1954  0.8743
 4844TIP3   OH236090   1.323   3.692   2.442 -0.6432  0.2260 -0.3993
 4844TIP3    H136091   1.340   3.741   2.523  1.1070  1.1326 -1.2672
 4844TIP3    H236092   1.277   3.755   2.386 -1.8783 -0.4089 -0.1488
 4845TIP3   OH236093   1.057   4.914   8.500 -0.1439  0.4748 -0.3970
 4845TIP3    H136094   1.084   4.877   8.416 -0.2705 -0.1432 -0.1692
 4845TIP3    H236095   1.137   4.913   8.553 -0.7710 -2.4421  0.6770
 4846TIP3   OH236096   4.841   6.767   1.790 -0.1232  0.1723  0.3107
 4846TIP3    H136097   4.757   6.781   1.746 -0.0409  2.5387  0.8026
 4846TIP3    H236098   4.818   6.718   1.869 -1.2701  1.9112  1.1007
 4847TIP3   OH236099   0.951   3.243   3.008 -0.6900 -0.4730  0.5914
 4847TIP3    H136100   0.956   3.150   3.026  1.0825 -0.3580  0.8033
 4847TIP3    H236101   0.924   3.248   2.916 -0.3214 -1.2016  0.4396
 4848TIP3   OH236102   3.074   1.763   1.941 -0.3403 -0.4051  0.0616
 4848TIP3    H136103   2.981   1.764   1.915 -0.4351 -0.2527  0.4063
 4848TIP3    H236104   3.116   1.826   1.883 -0.7210  0.6495  0.8933
 4849TIP3   OH236105   1.987   5.771   3.324  0.0481  0.8291 -0.2441
 4849TIP3    H136106   2.064   5.825   3.307  0.7064  0.4373  1.3174
 4849TIP3    H236107   2.019   5.681   3.321 -0.3098  0.6640  0.5359
 4850TIP3   OH236108   3.028   5.025   2.704 -0.1359  0.0356  0.4518
 4850TIP3    H136109   3.105   5.069   2.666  0.2443 -1.3775 -0.5285
 4850TIP3    H236110   3.024   5.056   2.794  1.1599  0.7031  0.3036
 4851TIP3   OH236111   2.165   0.032   2.592  0.0688 -0.0330 -0.1385
 4851TIP3    H136112   2.147   0.124   2.613 -1.6136 -0.0813 -1.1638
 4851TIP3    H236113   2.217   0.000   2.665 -2.8933  0.5952  2.4813
 4852TIP3   OH236114   4.970   0.985   3.148 -0.0799  0.2305  0.2930
 4852TIP3    H136115   5.004   0.959   3.234  2.4500 -1.7516 -1.1835
 4852TIP3    H236116   4.885   0.942   3.141  0.3059 -0.7156  1.2567
 4853TIP3   OH236117   3.687   0.614   1.986 -0.0089  0.0493  0.4712
 4853TIP3    H136118   3.709   0.705   1.966 -1.7751  0.0556 -1.8014
 4853TIP3    H236119   3.666   0.614   2.079 -3.1475  2.7070 -0.0855
 4854TIP3   OH236120   1.801   6.169   1.210  0.3265 -0.7506 -0.3111
 4854TIP3    H136121   1.874   6.148   1.268  0.4489  1.4299  0.4475
 4854TIP3    H236122   1.729   6.114   1.242  0.4549  0.2040  1.8574
 4855TIP3   OH236123   6.410   5.930   2.436 -0.3289 -0.4048 -0.0447
 4855TIP3    H136124   6.396   6.006   2.491 -0.7383 -1.2150  1.0099
 4855TIP3    H236125   6.325   5.885   2.435  0.0543 -1.1479 -0.1764
 4856TIP3   OH236126   3.250   0.413   8.054 -0.1449  0.0699  0.0731
 4856TIP3    H136127   3.324   0.418   7.993  0.2749 -1.0764  0.4537
 4856TIP3    H236128   3.175   0.389   8.000  0.0405 -0.0766 -0.1204
 4857TIP3   OH236129   0.986   3.303   0.871 -0.2012  0.1900 -0.3877
 4857TIP3    H136130   1.048   3.230   0.861  0.4668  0.5799  0.6877
 4857TIP3    H236131   0.901   3.266   0.846  0.7304  0.2940 -4.3627
 4858TIP3   OH236132   1.747   5.467   2.213  0.3607 -0.6697 -0.5082
 4858TIP3    H136133   1.835   5.496   2.234  0.3011 -0.3188 -0.7269
 4858TIP3    H236134   1.743   5.471   2.117 -0.3101  0.5896 -0.4492
 4859TIP3   OH236135   4.824   2.586   1.069 -0.1058 -0.0917  0.1494
 4859TIP3    H136136   4.775   2.521   1.120  0.8946 -0.5565  0.5421
 4859TIP3    H236137   4.906   2.542   1.046 -0.5263  0.0913 -1.9119
 4860TIP3   OH236138   6.815   0.806   7.924  0.2250  0.1928  0.2391
 4860TIP3    H136139   6.842   0.827   7.834 -0.4311  1.2816  0.2882
 4860TIP3    H236140   6.786   0.715   7.919 -0.4776  0.4570 -0.8135
 4861TIP3   OH236141   2.944   5.162   1.894  0.3744 -0.0588  0.1293
 4861TIP3    H136142   2.869   5.155   1.834  2.0505 -0.5625 -2.0411
 4861TIP3    H236143   2.960   5.256   1.902  0.7295 -0.0073 -1.0399
 4862TIP3   OH236144   3.834   0.443   1.863  0.0183  0.1747 -0.3331
 4862TIP3    H136145   3.893   0.513   1.889 -0.7173  0.9530 -0.6822
 4862TIP3    H236146   3.747   0.476   1.884 -0.2440 -1.7007  1.9318
 4863TIP3   OH236147   6.681   4.714   0.359 -0.4195  0.3582  0.0569
 4863TIP3    H136148   6.730   4.640   0.322 -1.8767 -0.0491 -1.1385
 4863TIP3    H236149   6.601   4.675   0.394 -0.3484  1.1380  1.1303
 4864TIP3   OH236150   6.695   3.958   1.920 -0.1571 -1.1907 -0.1845
 4864TIP3    H136151   6.627   3.896   1.892 -0.4521 -0.9866  0.0721
 4864TIP3    H236152   6.744   3.911   1.987 -0.8528 -0.8805  0.5467
 4865TIP3   OH236153   2.163   5.492   8.168  0.0127  0.1952  0.2534
 4865TIP3    H136154   2.212   5.499   8.250  0.6555 -0.2893 -0.0834
 4865TIP3    H236155   2.077   5.459   8.195  0.7823 -1.6609  0.5613
 4866TIP3   OH236156   6.411   5.422   2.564 -0.1658  0.6179 -0.3082
 4866TIP3    H136157   6.498   5.439   2.601 -0.2200  1.0016 -0.3541
 4866TIP3    H236158   6.371   5.359   2.624 -0.2333  1.1943  0.2670
 4867TIP3   OH236159   1.883   3.927   2.360  0.3542  0.0732  0.3352
 4867TIP3    H136160   1.801   3.952   2.402  0.6498 -1.5415  1.9848
 4867TIP3    H236161   1.910   3.847   2.405  2.9265  0.6438 -0.0210
 4868TIP3   OH236162   0.608   3.499   0.617  0.1185  0.0382  0.3155
 4868TIP3    H136163   0.696   3.511   0.653 -0.1212 -0.3717  1.0617
 4868TIP3    H236164   0.622   3.461   0.530  0.7017  0.8492  0.0443
 4869TIP3   OH236165   1.057   1.133   2.460  0.3229  0.0643 -0.4462
 4869TIP3    H136166   1.118   1.207   2.462 -2.1058  2.2265 -0.6149
 4869TIP3    H236167   0.977   1.169   2.421 -1.3349 -2.3825  0.4541
 4870TIP3   OH236168   1.036   2.104   0.662 -0.1139 -0.0216 -0.5328
 4870TIP3    H136169   1.086   2.121   0.582  0.6962  2.0476  0.3364
 4870TIP3    H236170   1.103   2.090   0.729 -0.7319  0.2789  0.1620
 4871TIP3   OH236171   2.183   1.672   1.394 -0.1894  0.0430 -0.0299
 4871TIP3    H136172   2.230   1.697   1.314 -1.0373 -0.5874 -0.7513
 4871TIP3    H236173   2.120   1.743   1.408 -0.4426 -0.1329 -0.2658
 4872TIP3   OH236174   0.915   5.900   1.496  0.3235  0.2840  0.1409
 4872TIP3    H136175   1.005   5.899   1.528  0.3356 -2.3513  0.2434
 4872TIP3    H236176   0.901   5.812   1.460 -0.9281  1.8092 -3.6715
 4873TIP3   OH236177   2.444   3.342   0.166 -0.1897  0.3702  0.4145
 4873TIP3    H136178   2.452   3.437   0.164  0.7759  0.2947 -0.0669
 4873TIP3    H236179   2.354   3.325   0.139  0.2946  1.0771 -1.8697
 4874TIP3   OH236180   0.489   1.502   1.661  0.7094 -0.2657 -0.1217
 4874TIP3    H136181   0.428   1.442   1.704  0.3027  0.4400  0.3093
 4874TIP3    H236182   0.489   1.580   1.717  0.5279  0.4893 -1.1495
 4875TIP3   OH236183   5.596   2.215   1.816 -0.6058 -0.2357  0.2549
 4875TIP3    H136184   5.643   2.171   1.887  0.4261 -0.2576 -0.4137
 4875TIP3    H236185   5.509   2.231   1.851 -0.5827 -1.5955  0.9969
 4876TIP3   OH236186   5.764   2.709   8.088 -0.1906 -0.7903 -0.2425
 4876TIP3    H136187   5.766   2.801   8.115  1.8515 -1.4335  2.1406
 4876TIP3    H236188   5.845   2.697   8.038 -0.5631 -1.2754 -0.7459
 4877TIP3   OH236189   5.185   3.271   3.834  0.0253 -0.2616 -0.3384
 4877TIP3    H136190   5.198   3.354   3.879 -0.3813 -0.4912  0.2128
 4877TIP3    H236191   5.090   3.264   3.824  0.0686 -0.5791 -0.5283
 4878TIP3   OH236192   0.685   5.973   2.423 -0.3647 -0.4432 -0.8135
 4878TIP3    H136193   0.763   5.961   2.478 -1.5486 -0.3383  0.9754
 4878TIP3    H236194   0.673   6.067   2.417 -0.3957 -0.4600 -1.0310
 4879TIP3   OH236195   4.540   2.620   2.370 -0.0855 -0.2725 -0.2306
 4879TIP3    H136196   4.633   2.619   2.347  0.0304 -1.1623  0.2571
 4879TIP3    H236197   4.535   2.674   2.449  0.2714 -1.5904  0.7281
 4880TIP3   OH236198   3.557   4.684   2.103 -0.1689 -0.2356  0.0743
 4880TIP3    H136199   3.583   4.758   2.158 -0.7567 -0.5254  0.7642
 4880TIP3    H236200   3.598   4.701   2.019 -1.4476  1.6344 -0.2382
 4881TIP3   OH236201   2.960   4.902   2.402 -0.3996  0.0649 -0.0426
 4881TIP3    H136202   2.945   4.968   2.334  0.5107 -0.2276 -0.5492
 4881TIP3    H236203   3.055   4.889   2.401 -0.2782  0.6044  1.8043
 4882TIP3   OH236204   6.224   0.515   0.560 -0.0211  0.2547 -0.0304
 4882TIP3    H136205   6.208   0.423   0.583 -0.8488  0.2558 -0.5751
 4882TIP3    H236206   6.184   0.564   0.631 -0.0822  0.2038 -0.0292
 4883TIP3   OH236207   5.600   2.957   0.590  0.0287  0.5692  0.0177
 4883TIP3    H136208   5.664   3.027   0.598 -0.7232  1.1069  1.7298
 4883TIP3    H236209   5.571   2.940   0.679 -0.5238 -1.2676 -0.4684
 4884TIP3   OH236210   4.020   1.955   8.234 -0.1343  0.3020  0.8375
 4884TIP3    H136211   3.986   1.891   8.296 -0.3911  0.4936  0.8969
 4884TIP3    H236212   3.973   2.036   8.255 -1.1055  0.0936 -0.3812
 4885TIP3   OH236213   3.301   2.638   7.992 -0.0775 -0.5489  0.5795
 4885TIP3    H136214   3.215   2.679   7.983 -1.4308 -2.4703  3.5226
 4885TIP3    H236215   3.360   2.710   8.013 -1.4152  0.4958  0.8416
 4886TIP3   OH236216   3.824   0.973   8.523 -0.1857  0.5981  0.6766
 4886TIP3    H136217   3.744   0.924   8.506 -0.5202  1.1952  0.4988
 4886TIP3    H236218   3.846   0.953   8.615  0.5813 -1.1401  0.1659
 4887TIP3   OH236219   5.356   1.897   7.859  0.3879  0.3876 -0.3766
 4887TIP3    H136220   5.390   1.823   7.910 -1.4047  1.2633  2.3107
 4887TIP3    H236221   5.316   1.856   7.782 -0.1334 -1.4627  0.7950
 4888TIP3   OH236222   5.098   4.226   2.757 -1.0368  0.6225 -0.4886
 4888TIP3    H136223   5.177   4.265   2.721  0.1369 -1.7531 -0.7038
 4888TIP3    H236224   5.092   4.259   2.846 -0.3195  1.5361 -0.7730
 4889TIP3   OH236225   6.032   3.511   1.834 -0.8153  0.4530 -0.2097
 4889TIP3    H136226   5.990   3.550   1.910 -0.4287 -0.4376  0.4803
 4889TIP3    H236227   6.080   3.583   1.793 -1.4822  1.0549  0.0699
 4890TIP3   OH236228   1.897   5.051   7.627 -0.2138  0.1672 -0.6663
 4890TIP3    H136229   1.869   5.081   7.540 -1.2143  0.5999 -0.1993
 4890TIP3    H236230   1.980   5.097   7.643  0.2201 -0.2647 -1.5780
 4891TIP3   OH236231   3.854   6.282   0.225 -0.4586  0.0392  0.7244
 4891TIP3    H136232   3.894   6.346   0.284  0.1638 -1.6504  2.2337
 4891TIP3    H236233   3.791   6.236   0.280 -0.6031 -0.9095 -0.2196
 4892TIP3   OH236234   4.513   3.089   0.155  0.0006  0.7172  0.4937
 4892TIP3    H136235   4.458   3.094   0.233 -0.5107  0.2194  0.1704
 4892TIP3    H236236   4.598   3.058   0.188  0.3484  2.2060  1.1073
 4893TIP3   OH236237   0.386   2.711   0.080 -0.3410  0.3101  0.0558
 4893TIP3    H136238   0.445   2.785   0.077 -0.6757  0.6414  1.2597
 4893TIP3    H236239   0.443   2.634   0.079 -0.0114  0.4946 -2.2028
 4894TIP3   OH236240   3.647   1.844   0.346 -0.6876 -0.7838  0.2221
 4894TIP3    H136241   3.681   1.806   0.264 -0.5117 -0.5173  0.1706
 4894TIP3    H236242   3.722   1.890   0.383 -1.1684  0.3882 -0.2314
 4895TIP3   OH236243   4.241   2.894   0.977  0.2748  0.1849  0.0866
 4895TIP3    H136244   4.240   2.980   0.934  2.9555  0.8686  1.1741
 4895TIP3    H236245   4.319   2.896   1.033 -0.4057 -2.4363  1.2947
 4896TIP3   OH236246   4.629   3.590   1.300  0.0201  1.1011 -0.2428
 4896TIP3    H136247   4.679   3.573   1.380 -1.0418 -3.5389 -0.2294
 4896TIP3    H236248   4.692   3.581   1.229  0.2998  1.5720 -0.0577
 4897TIP3   OH236249   1.928   2.019   1.826  0.5901 -0.1902  0.1259
 4897TIP3    H136250   1.989   2.079   1.781  0.2312 -1.2644 -1.9009
 4897TIP3    H236251   1.951   2.027   1.919  2.0235  1.4199 -0.3131
 4898TIP3   OH236252   4.832   2.962   0.763  0.2950 -0.1633 -0.4845
 4898TIP3    H136253   4.785   3.025   0.708 -0.1860  0.6148  0.7948
 4898TIP3    H236254   4.764   2.910   0.805  0.5324  0.8195  1.2049
 4899TIP3   OH236255   3.203   0.361   1.932 -0.9227 -0.3636  0.8779
 4899TIP3    H136256   3.283   0.402   1.901 -1.3193  1.1633  1.7643
 4899TIP3    H236257   3.197   0.279   1.882  0.0623  0.4976 -0.7474
 4900TIP3   OH236258   6.391   4.138   1.919  0.3633 -0.5483  0.2802
 4900TIP3    H136259   6.479   4.162   1.891  0.4350 -0.2903  0.7246
 4900TIP3    H236260   6.374   4.192   1.996 -0.6530  0.3040 -0.4970
 4901TIP3   OH236261   0.308   3.095   1.664 -0.6569 -0.5112 -0.0539
 4901TIP3    H136262   0.275   3.158   1.729  0.1352  1.9894 -1.9079
 4901TIP3    H236263   0.401   3.114   1.658 -0.9474  0.5308 -2.9883
 4902TIP3   OH236264   0.725   4.585   2.199 -0.2005  0.3349 -0.7713
 4902TIP3    H136265   0.645   4.602   2.149  0.0207  2.5364 -0.4793
 4902TIP3    H236266   0.773   4.522   2.146 -1.9862 -0.8461 -1.0775
 4903TIP3   OH236267   4.995   6.306   7.365  0.3549  0.6935 -0.5292
 4903TIP3    H136268   5.008   6.213   7.388 -3.3931  0.3616  1.1332
 4903TIP3    H236269   4.939   6.303   7.287 -1.1005  1.4393  0.4433
 4904TIP3   OH236270   0.521   6.703   2.134  0.0368  0.1985 -0.1170
 4904TIP3    H136271   0.541   6.677   2.224  1.6240 -1.5935 -0.9264
 4904TIP3    H236272   0.587   6.769   2.113  0.5944 -0.4334 -0.4047
 4905TIP3   OH236273   0.571   0.235   1.318 -0.2833 -0.0657  0.2824
 4905TIP3    H136274   0.531   0.312   1.357 -0.4904  0.2228 -0.4822
 4905TIP3    H236275   0.507   0.165   1.333  0.1162 -0.2114  1.4001
 4906TIP3   OH236276   0.731   4.535   0.566 -0.2167  0.4261  0.6482
 4906TIP3    H136277   0.752   4.592   0.640 -0.7461  0.1447  1.0236
 4906TIP3    H236278   0.637   4.547   0.552 -0.6541 -1.3979  1.6689
 4907TIP3   OH236279   6.101   2.013   3.600 -0.1784  0.2986  0.0208
 4907TIP3    H136280   6.085   1.979   3.512 -0.3593 -0.5711  0.3841
 4907TIP3    H236281   6.190   1.986   3.620 -0.3539 -0.0438  0.3453
 4908TIP3   OH236282   2.997   6.147   2.530 -0.2963 -0.0069  0.1445
 4908TIP3    H136283   2.941   6.073   2.555  0.5599 -0.8149 -0.2904
 4908TIP3    H236284   3.029   6.125   2.443  1.2690  0.0883  0.6616
 4909TIP3   OH236285   4.155   2.717   0.756 -0.4828  0.1158 -0.5991
 4909TIP3    H136286   4.181   2.791   0.810 -0.4087 -0.4091  0.0959
 4909TIP3    H236287   4.131   2.756   0.672 -1.9342  1.1012  0.2353
 4910TIP3   OH236288   0.573   4.424   0.219  0.3129  0.0312  0.1672
 4910TIP3    H136289   0.576   4.359   0.289  0.9350 -0.0581  0.0563
 4910TIP3    H236290   0.488   4.410   0.177  0.9409 -1.5638 -0.6672
 4911TIP3   OH236291   2.333   5.339   8.507  0.3516 -0.8805 -0.2699
 4911TIP3    H136292   2.299   5.424   8.478  0.3020 -0.2799  1.4298
 4911TIP3    H236293   2.262   5.278   8.487 -0.0017 -0.3650 -0.6417
 4912TIP3   OH236294   2.931   0.049   2.059 -0.1978  0.3394 -0.0178
 4912TIP3    H136295   2.941   0.122   2.120  0.1892  0.8227 -0.6463
 4912TIP3    H236296   2.848   0.008   2.084 -0.3094  0.8618  0.4899
 4913TIP3   OH236297   4.159   6.345   2.304  0.1539 -0.0741  0.4042
 4913TIP3    H136298   4.211   6.278   2.349 -0.1935  0.2144  1.2541
 4913TIP3    H236299   4.148   6.414   2.368 -0.1029  0.4899 -0.2317
 4914TIP3   OH236300   6.539   1.965   1.061 -0.2632 -0.3897 -0.2542
 4914TIP3    H136301   6.476   1.999   1.125 -0.3453 -1.6513  0.3570
 4914TIP3    H236302   6.489   1.904   1.007 -0.0892  0.3414 -1.2688
 4915TIP3   OH236303   3.969   6.678   8.110 -0.3724 -0.6609 -0.5887
 4915TIP3    H136304   3.921   6.597   8.130 -1.2946  0.1743  0.7437
 4915TIP3    H236305   3.958   6.690   8.016 -0.6486 -1.8156 -0.7173
 4916TIP3   OH236306   3.437   0.632   2.576 -0.3268 -0.0994  0.6978
 4916TIP3    H136307   3.515   0.615   2.629  0.9256 -0.2970 -1.1308
 4916TIP3    H236308   3.387   0.550   2.579  0.7087 -0.7676  0.0005
 4917TIP3   OH236309   1.754   1.828   1.170 -0.1246 -0.4666 -0.3579
 4917TIP3    H136310   1.728   1.825   1.262 -0.3062  2.7733 -0.1808
 4917TIP3    H236311   1.849   1.842   1.172 -0.0777 -0.7340 -0.6680
 4918TIP3   OH236312   0.431   4.422   2.598 -0.6416 -0.3486  1.2538
 4918TIP3    H136313   0.468   4.507   2.623 -1.0523 -0.2907  1.6766
 4918TIP3    H236314   0.344   4.421   2.637 -0.9248 -0.6664  0.6247
 4919TIP3   OH236315   5.616   2.785   8.582 -0.4035  0.5605 -0.0587
 4919TIP3    H136316   5.591   2.840   8.656  1.8781  0.0052  1.2431
 4919TIP3    H236317   5.614   2.696   8.617  1.9362  0.3899 -0.2189
 4920TIP3   OH236318   2.809   3.558   0.142  0.1242  0.3022 -0.4466
 4920TIP3    H136319   2.903   3.547   0.150  0.0681 -0.7084 -0.9932
 4920TIP3    H236320   2.774   3.530   0.226  0.1364 -1.9798 -1.1528
 4921TIP3   OH236321   5.009   0.685   7.716 -0.0266 -0.2270  0.5223
 4921TIP3    H136322   5.024   0.698   7.622  2.0075 -1.3182  0.6623
 4921TIP3    H236323   4.924   0.639   7.720  0.5042 -1.4175 -0.8922
 4922TIP3   OH236324   6.624   3.004   2.516  0.3045  0.1772  0.4827
 4922TIP3    H136325   6.575   2.965   2.589 -0.7534  1.7919  0.6745
 4922TIP3    H236326   6.712   3.017   2.551  0.1766 -0.3398  1.0092
 4923TIP3   OH236327   0.585   0.819   2.834  0.8064 -0.3430 -0.0353
 4923TIP3    H136328   0.638   0.898   2.823 -0.8761  0.8055 -0.3633
 4923TIP3    H236329   0.556   0.797   2.745 -1.1340  0.4462  0.3622
 4924TIP3   OH236330   0.365   2.034   1.811  0.2506 -0.1551 -0.4642
 4924TIP3    H136331   0.376   2.128   1.796 -2.2303  0.4769  1.1250
 4924TIP3    H236332   0.303   2.028   1.883  0.9781 -3.0502  0.0454
 4925TIP3   OH236333   5.541   2.933   0.086 -0.2721 -0.1144  0.3714
 4925TIP3    H136334   5.551   2.921   0.180 -0.8791 -2.1019  0.2403
 4925TIP3    H236335   5.452   2.967   0.075 -0.4835 -0.6178  0.4876
 4926TIP3   OH236336   4.303   1.797   1.755  0.8302 -0.7990  0.3724
 4926TIP3    H136337   4.388   1.761   1.731  0.6695 -1.6396  1.0338
 4926TIP3    H236338   4.312   1.822   1.847  0.6831  0.1060  0.1536
 4927TIP3   OH236339   4.872   0.432   0.375 -0.7415  0.4248  0.1416
 4927TIP3    H136340   4.807   0.388   0.430 -0.1357 -1.1821 -0.3582
 4927TIP3    H236341   4.954   0.421   0.422 -0.7145  1.9880  0.5110
 4928TIP3   OH236342   6.554   3.978   0.832 -0.4817  0.0421 -0.1925
 4928TIP3    H136343   6.526   4.052   0.777  0.0035  0.3716 -0.0004
 4928TIP3    H236344   6.476   3.955   0.883 -0.5378  0.6522  0.0022
 4929TIP3   OH236345   5.832   4.413   7.580 -0.6234  0.0006  0.4048
 4929TIP3    H136346   5.868   4.404   7.492  3.1103  0.7206  1.6870
 4929TIP3    H236347   5.853   4.331   7.624  0.1274  0.7065  1.4169
 4930TIP3   OH236348   6.834   1.115   0.528 -0.2676  0.2748  0.3567
 4930TIP3    H136349   6.916   1.071   0.547  0.1482  0.4445 -0.9529
 4930TIP3    H236350   6.767   1.046   0.533 -0.0574  0.1313  1.3859
 4931TIP3   OH236351   0.776   3.905   1.935 -0.4048  0.4303 -0.0195
 4931TIP3    H136352   0.803   3.989   1.973  2.1841 -0.5428  0.5141
 4931TIP3    H236353   0.797   3.913   1.842  1.4247 -0.1316  0.3030
 4932TIP3   OH236354   5.013   2.097   8.547 -0.1583 -0.0484 -0.1848
 4932TIP3    H136355   5.032   2.162   8.479  0.0649 -1.2328 -1.2736
 4932TIP3    H236356   4.917   2.093   8.549 -0.2115  1.0682  0.6455
 4933TIP3   OH236357   0.391   3.805   7.803 -0.3102  0.2676 -0.4632
 4933TIP3    H136358   0.420   3.849   7.723 -1.6906  0.2800 -0.9690
 4933TIP3    H236359   0.398   3.872   7.871 -0.2080  0.5915 -0.7892
 4934TIP3   OH236360   2.164   3.472   0.679 -0.0687  0.1652 -0.6127
 4934TIP3    H136361   2.081   3.467   0.727 -0.9090  2.0457 -1.7501
 4934TIP3    H236362   2.170   3.389   0.633 -0.0140 -1.0515  1.4524
 4935TIP3   OH236363   5.139   1.058   7.480 -0.5242 -0.0687  0.1343
 4935TIP3    H136364   5.210   1.067   7.416  0.8775  0.8091  1.7355
 4935TIP3    H236365   5.090   1.140   7.474 -0.8978 -0.3192 -0.3530
 4936TIP3   OH236366   0.189   3.544   8.222  0.9529 -0.6248  0.3096
 4936TIP3    H136367   0.167   3.481   8.153 -0.7643  1.8612 -1.6110
 4936TIP3    H236368   0.243   3.609   8.178  1.1051  0.2537  1.7340
 4937TIP3   OH236369   5.493   2.296   2.787 -0.2651  0.2640  1.0796
 4937TIP3    H136370   5.447   2.260   2.863  0.6800 -0.8365  1.1667
 4937TIP3    H236371   5.579   2.322   2.820  0.3640 -0.7406  0.3098
 4938TIP3   OH236372   1.390   3.754   0.033 -0.7243  0.5044  0.0419
 4938TIP3    H136373   1.364   3.773   0.123  0.6822  0.8200  0.4110
 4938TIP3    H236374   1.486   3.750   0.036 -0.7061 -1.6950 -1.0050
 4939TIP3   OH236375   5.871   5.661   0.728  0.1946  0.3416  0.1007
 4939TIP3    H136376   5.942   5.623   0.677  0.5380  0.1533  0.7175
 4939TIP3    H236377   5.860   5.603   0.803 -1.3712 -0.2745 -0.5492
 4940TIP3   OH236378   2.708   3.765   0.874 -0.3878  0.6696 -0.0707
 4940TIP3    H136379   2.648   3.691   0.880 -0.2809  0.5616 -0.3214
 4940TIP3    H236380   2.763   3.745   0.798 -0.5875  1.1756 -0.3539
 4941TIP3   OH236381   2.344   3.034   1.020  0.5328  0.0517  0.1149
 4941TIP3    H136382   2.371   3.112   0.973  2.7648 -1.1578 -0.7569
 4941TIP3    H236383   2.337   2.966   0.953 -1.7772 -0.4626  0.7745
 4942TIP3   OH236384   5.478   5.261   8.251  0.3402 -0.3066 -0.1871
 4942TIP3    H136385   5.457   5.250   8.344  0.5401 -0.4848 -0.1635
 4942TIP3    H236386   5.499   5.172   8.221 -0.2741 -0.3392 -0.5354
 4943TIP3   OH236387   4.720   0.298   7.633 -0.3456  0.4102 -0.3166
 4943TIP3    H136388   4.740   0.211   7.669  1.8849  0.9035 -0.2033
 4943TIP3    H236389   4.631   0.290   7.598 -2.0457 -0.5877  3.7124
 4944TIP3   OH236390   5.549   6.157   2.017 -0.1139  0.1299 -0.5601
 4944TIP3    H136391   5.456   6.179   2.012 -0.3857 -1.1751 -2.6505
 4944TIP3    H236392   5.551   6.063   2.032  0.8369  0.0562 -1.0564
 4945TIP3   OH236393   2.733   1.021   0.425  0.0418  0.6384  0.1809
 4945TIP3    H136394   2.805   0.960   0.408 -0.3558  0.4951 -1.1088
 4945TIP3    H236395   2.669   1.003   0.356 -1.0426  1.0638  1.0391
 4946TIP3   OH236396   3.364   4.187   8.581  0.2732  0.0414  0.4314
 4946TIP3    H136397   3.418   4.220   8.653  1.7240 -2.1469  0.4462
 4946TIP3    H236398   3.277   4.178   8.619  0.0091  2.8282  0.6589
 4947TIP3   OH236399   0.968   5.652   1.713  0.2575 -0.4498  0.2829
 4947TIP3    H136400   0.989   5.694   1.796  1.6218  1.7292 -1.0522
 4947TIP3    H236401   1.044   5.596   1.695  0.3241 -0.3168  0.1485
 4948TIP3   OH236402   2.229   4.925   0.469 -0.1656 -0.3043  0.7165
 4948TIP3    H136403   2.234   5.002   0.412  1.4339 -1.7905 -1.2567
 4948TIP3    H236404   2.313   4.923   0.515 -1.0700  0.3284  2.5173
 4949TIP3   OH236405   5.915   5.568   8.037 -0.1418 -0.0565 -0.2026
 4949TIP3    H136406   5.973   5.524   7.975 -0.2222  0.2260 -0.4807
 4949TIP3    H236407   5.828   5.565   7.996 -0.5386 -1.3971  0.6810
 4950TIP3   OH236408   3.201   3.191   0.437 -0.2065  0.1918  0.3525
 4950TIP3    H136409   3.237   3.280   0.440 -0.8252  0.4934 -0.7277
 4950TIP3    H236410   3.259   3.143   0.378  0.1409 -0.1396  0.9524
 4951TIP3   OH236411   3.878   1.876   1.546 -0.2621  0.1417 -0.2097
 4951TIP3    H136412   3.863   1.948   1.607 -2.5264 -0.4123 -0.0340
 4951TIP3    H236413   3.835   1.801   1.587 -1.1532 -0.4257 -2.0849
 4952TIP3   OH236414   0.780   6.443   8.014  0.5223 -0.4745  0.3907
 4952TIP3    H136415   0.721   6.517   8.032  3.3711  1.6914  1.6088
 4952TIP3    H236416   0.810   6.458   7.924  1.4076  0.1202  0.7759
 4953TIP3   OH236417   1.864   5.865   7.552 -0.0353 -0.4010  0.1689
 4953TIP3    H136418   1.959   5.880   7.558  0.1502 -1.4093 -0.0565
 4953TIP3    H236419   1.826   5.933   7.608  0.8248 -0.0935  0.4083
 4954TIP3   OH236420   1.199   5.685   2.493 -0.3489  0.3807  0.4682
 4954TIP3    H136421   1.291   5.706   2.483  0.0676 -0.5346  2.0034
 4954TIP3    H236422   1.153   5.746   2.435  1.3399 -0.9727 -2.4850
 4955TIP3   OH236423   4.995   2.789   8.287  0.5226  0.4471 -0.1848
 4955TIP3    H136424   4.923   2.786   8.224  0.4971  0.3363 -0.1504
 4955TIP3    H236425   5.052   2.716   8.262  0.0160 -0.2188  0.5081
 4956TIP3   OH236426   3.749   0.604   8.198 -0.3479  0.5040 -0.0172
 4956TIP3    H136427   3.767   0.697   8.206 -0.5439  0.6154 -0.7862
 4956TIP3    H236428   3.799   0.576   8.121  1.8356 -0.6107  1.6982
 4957TIP3   OH236429   4.916   1.314   0.345  0.4727  0.1318  0.1008
 4957TIP3    H136430   4.968   1.242   0.309 -1.5297 -1.1920 -0.3163
 4957TIP3    H236431   4.825   1.288   0.329 -0.3705  1.7730  1.8436
 4958TIP3   OH236432   2.060   6.524   1.414 -0.0262  0.3341 -0.2528
 4958TIP3    H136433   2.038   6.610   1.448  1.6750  1.1587 -1.1517
 4958TIP3    H236434   2.145   6.503   1.451 -1.3397 -2.0423  1.7849
 4959TIP3   OH236435   1.562   6.024   1.245  0.0058 -0.3730  0.0098
 4959TIP3    H136436   1.544   6.109   1.206  0.9666 -0.3589 -0.4266
 4959TIP3    H236437   1.564   5.963   1.171  2.9232 -0.1778 -0.1782
 4960TIP3   OH236438   1.390   4.615   0.273  0.4398  0.2223  0.2444
 4960TIP3    H136439   1.472   4.665   0.268 -0.3127  1.4352 -0.6370
 4960TIP3    H236440   1.416   4.530   0.309  1.9104  0.9421  1.0102
 4961TIP3   OH236441   2.951   4.288   1.299  0.2786  0.4278  0.1672
 4961TIP3    H136442   2.917   4.212   1.251  1.8044 -0.5838  0.5771
 4961TIP3    H236443   2.888   4.303   1.369 -0.1127 -0.4200  0.0109
 4962TIP3   OH236444   0.992   0.978   7.632 -0.3352 -0.0121  0.3227
 4962TIP3    H136445   1.030   0.894   7.606  0.4594  0.5018 -0.2199
 4962TIP3    H236446   1.059   1.043   7.609 -1.6925  0.9611 -1.0399
 4963TIP3   OH236447   0.750   0.667   0.905 -0.6075 -0.4812  0.6637
 4963TIP3    H136448   0.739   0.603   0.975 -2.2219  0.3869  1.2805
 4963TIP3    H236449   0.843   0.686   0.903 -0.5018 -0.6253  2.5251
 4964TIP3   OH236450   5.220   3.267   0.170 -0.0753 -0.0383  0.3836
 4964TIP3    H136451   5.208   3.347   0.119 -0.5918 -0.5038 -0.2516
 4964TIP3    H236452   5.132   3.233   0.183  0.0388  0.1331  1.7130
 4965TIP3   OH236453   3.809   6.747   1.152  0.3155  0.5315 -0.0183
 4965TIP3    H136454   3.888   6.785   1.193  0.8814  1.6306 -1.9936
 4965TIP3    H236455   3.834   6.734   1.060 -1.1215 -1.2023 -0.2056
 4966TIP3   OH236456   6.695   2.275   7.588  0.0187 -0.1117 -0.5255
 4966TIP3    H136457   6.742   2.233   7.660  0.5899 -1.1687 -1.4695
 4966TIP3    H236458   6.728   2.365   7.587  2.0783 -0.8108 -1.1541
 4967TIP3   OH236459   3.200   1.418   1.186  0.0269 -0.0663  0.1339
 4967TIP3    H136460   3.278   1.464   1.156  0.8296 -1.3782  0.1348
 4967TIP3    H236461   3.164   1.378   1.107 -0.5625  0.3798  0.1639
 4968TIP3   OH236462   4.159   1.636   2.775 -0.1202  0.0587 -0.7282
 4968TIP3    H136463   4.167   1.726   2.742  2.4297 -0.2396 -1.1027
 4968TIP3    H236464   4.177   1.644   2.868  1.0143 -0.1566 -0.9194
 4969TIP3   OH236465   0.982   3.495   1.584 -0.2701 -0.1878 -0.1298
 4969TIP3    H136466   0.980   3.588   1.605  0.2257 -0.4562  1.2048
 4969TIP3    H236467   1.071   3.479   1.554 -0.5428 -0.1095 -0.9932
 4970TIP3   OH236468   3.432   5.247   8.332  0.1917 -0.0933  0.8984
 4970TIP3    H136469   3.395   5.229   8.245  4.4784 -1.2285 -0.9725
 4970TIP3    H236470   3.428   5.162   8.377  1.7711 -0.6408  0.0792
 4971TIP3   OH236471   6.630   6.051   0.263 -0.3891 -0.1614  0.2806
 4971TIP3    H136472   6.683   6.131   0.261  0.2893 -0.5963  0.5995
 4971TIP3    H236473   6.540   6.081   0.246 -0.2180  0.7279  0.9049
 4972TIP3   OH236474   0.204   2.920   8.618 -0.2940 -0.5726 -0.1502
 4972TIP3    H136475   0.290   2.922   8.661 -0.7893 -1.0530  0.8865
 4972TIP3    H236476   0.172   2.831   8.632 -1.6097  0.0212  0.8070
 4973TIP3   OH236477   3.884   3.251   1.856  0.5293  0.3322  0.1853
 4973TIP3    H136478   3.910   3.198   1.932  0.0565 -0.4485 -0.1840
 4973TIP3    H236479   3.966   3.288   1.824  1.1211 -1.4500 -0.4827
 4974TIP3   OH236480   3.302   3.071   1.852 -0.5851 -0.7862  0.0586
 4974TIP3    H136481   3.223   3.036   1.812  0.7039 -2.3563 -1.2611
 4974TIP3    H236482   3.359   2.995   1.864  1.3742  0.4875 -0.6010
 4975TIP3   OH236483   5.791   1.752   8.437 -0.3058  0.4117 -0.9086
 4975TIP3    H136484   5.832   1.799   8.364  2.5758 -0.3702  0.0500
 4975TIP3    H236485   5.732   1.816   8.476 -0.1557  1.6057 -2.5279
 4976TIP3   OH236486   6.077   1.995   1.820 -0.3970 -0.3511  0.1695
 4976TIP3    H136487   6.070   2.080   1.777  2.1579  0.2283  0.7161
 4976TIP3    H236488   6.075   1.931   1.748  2.4082  0.5244 -0.8371
 4977TIP3   OH236489   5.622   2.762   1.922  0.2070 -0.1695 -0.1530
 4977TIP3    H136490   5.582   2.814   1.992  0.6034  0.8761 -0.6872
 4977TIP3    H236491   5.630   2.675   1.960 -0.7026  0.0812  0.6759
 4978TIP3   OH236492   3.923   2.167   8.395 -0.2052 -0.4845  0.3931
 4978TIP3    H136493   3.850   2.151   8.454  0.2419 -0.7392  0.8786
 4978TIP3    H236494   4.001   2.143   8.445  0.4163  1.8777  0.6881
 4979TIP3   OH236495   3.940   2.167   1.081 -0.0669 -0.0145 -0.0114
 4979TIP3    H136496   4.027   2.190   1.049 -0.6165  0.4109 -1.2495
 4979TIP3    H236497   3.921   2.232   1.148  0.8479 -0.5345  0.7782
 4980TIP3   OH236498   3.535   1.142   1.919 -0.3496  0.1516 -0.3920
 4980TIP3    H136499   3.477   1.157   1.995  0.0055 -0.8222  0.0875
 4980TIP3    H236500   3.513   1.053   1.890  0.8598 -0.2165 -0.2329
 4981TIP3   OH236501   5.155   2.070   3.106 -0.0546 -0.0499  0.1772
 4981TIP3    H136502   5.137   1.998   3.044  0.8825 -0.8625  0.8254
 4981TIP3    H236503   5.193   2.027   3.182 -0.2566  1.0606  0.9235
 4982TIP3   OH236504   4.656   3.086   2.288 -0.1951  0.5347  0.2321
 4982TIP3    H136505   4.586   3.076   2.224  0.6705  1.3756 -0.9017
 4982TIP3    H236506   4.672   3.180   2.293  0.5577  0.3935  0.7935
 4983TIP3   OH236507   0.762   0.014   2.939 -0.2543 -0.1393 -0.2225
 4983TIP3    H136508   0.816  -0.059   2.970  0.0383  0.9593  2.0827
 4983TIP3    H236509   0.681  -0.028   2.910  0.8523 -1.5875 -1.4041
 4984TIP3   OH236510   4.278   2.521   1.539 -0.1374 -0.9445 -0.3080
 4984TIP3    H136511   4.366   2.555   1.556 -0.7519  0.3915  0.3659
 4984TIP3    H236512   4.225   2.599   1.524 -1.8289 -1.4710  2.3311
 4985TIP3   OH236513   3.594   5.767   2.302  0.3196  0.0098  0.1467
 4985TIP3    H136514   3.512   5.723   2.280  0.6923  0.0893 -1.4978
 4985TIP3    H236515   3.592   5.774   2.398  0.0062 -3.0901  0.4631
 4986TIP3   OH236516   5.432   1.560   2.700 -0.3115 -0.3696  0.4413
 4986TIP3    H136517   5.463   1.515   2.621 -0.0934  1.6879 -0.7254
 4986TIP3    H236518   5.480   1.518   2.771  0.6435 -1.2765 -0.6876
 4987TIP3   OH236519   2.753   2.377   1.603 -0.7902 -0.3796 -0.2728
 4987TIP3    H136520   2.730   2.383   1.695  0.3968 -1.1693  0.1008
 4987TIP3    H236521   2.848   2.361   1.602 -0.5762  0.7336 -1.6666
 4988TIP3   OH236522   4.465   3.946   2.350 -0.1941 -0.7084  0.1015
 4988TIP3    H136523   4.424   4.012   2.294 -1.1032 -1.5533 -0.2484
 4988TIP3    H236524   4.397   3.880   2.364  0.2311 -0.8380  1.6775
 4989TIP3   OH236525   5.555   4.616   8.630 -0.0377 -0.3003  0.0971
 4989TIP3    H136526   5.631   4.571   8.669  1.9276  0.8521 -2.1220
 4989TIP3    H236527   5.592   4.665   8.557 -2.7002  1.8160  0.0345
 4990TIP3   OH236528   1.985   1.860   1.467  0.3694 -0.8257 -0.0638
 4990TIP3    H136529   1.936   1.816   1.537 -0.0720  0.2318  0.3161
 4990TIP3    H236530   1.918   1.899   1.412  0.7332 -1.2745 -0.8419
 4991TIP3   OH236531   1.442   1.518   7.417  0.2266 -0.1704  0.3690
 4991TIP3    H136532   1.512   1.506   7.353 -0.3280  0.5881 -0.3961
 4991TIP3    H236533   1.471   1.469   7.494  1.7972  0.4881  0.2189
 4992TIP3   OH236534   4.566   1.549   2.395  0.2003 -0.9803  0.0080
 4992TIP3    H136535   4.584   1.500   2.474  0.6945 -0.6263  0.1221
 4992TIP3    H236536   4.499   1.499   2.349  0.5258 -1.6293  0.2352
 4993TIP3   OH236537   3.389   0.760   1.259 -0.0357  0.2642  0.0201
 4993TIP3    H136538   3.476   0.734   1.231  0.4250 -0.3596  1.8389
 4993TIP3    H236539   3.403   0.812   1.338 -1.2376  1.6983 -0.6680
 4994TIP3   OH236540   6.175   3.870   1.431 -0.3995  0.4444  0.5599
 4994TIP3    H136541   6.085   3.843   1.412 -0.3403 -1.3548  2.4773
 4994TIP3    H236542   6.228   3.818   1.370 -0.6311  1.8811 -0.9264
 4995TIP3   OH236543   6.101   3.736   0.256 -0.3053 -0.1284 -0.6502
 4995TIP3    H136544   6.061   3.666   0.204  2.5791 -1.2762 -1.5399
 4995TIP3    H236545   6.136   3.797   0.191 -1.2459  1.2690  0.1034
 4996TIP3   OH236546   1.256   1.544   1.691  0.3652 -0.3916 -0.7381
 4996TIP3    H136547   1.245   1.499   1.607  1.6360  0.5749 -1.4702
 4996TIP3    H236548   1.186   1.509   1.746 -0.7711 -0.7531 -2.3211
 4997TIP3   OH236549   1.656   3.503   8.542 -0.2384 -0.4122  0.5563
 4997TIP3    H136550   1.698   3.448   8.476 -1.7057 -0.4064 -0.4225
 4997TIP3    H236551   1.612   3.572   8.492 -1.6880 -0.6109  1.4819
 4998TIP3   OH236552   2.618   2.503   0.781 -0.3514 -0.1258 -0.4913
 4998TIP3    H136553   2.708   2.482   0.758 -0.0612  0.3662  0.1887
 4998TIP3    H236554   2.587   2.557   0.708 -0.2231 -0.5955 -0.9012
 4999TIP3   OH236555   3.548   3.937   0.036  0.0736  0.3540 -0.1022
 4999TIP3    H136556   3.468   3.964  -0.009 -0.4453 -1.3741 -0.2915
 4999TIP3    H236557   3.529   3.850   0.070  0.5904  1.3364  3.1225
 5000TIP3   OH236558   6.572   3.490   0.884  0.4290 -0.1046  0.0252
 5000TIP3    H136559   6.646   3.432   0.867  0.7184  0.4090 -0.5046
 5000TIP3    H236560   6.497   3.446   0.844  0.7423  0.1331 -0.8444
 5001TIP3   OH236561   4.999   3.055   3.637  0.1677  0.5278 -0.5304
 5001TIP3    H136562   4.955   3.139   3.648 -0.7659  0.0654 -0.5707
 5001TIP3    H236563   4.928   2.994   3.616  0.4397 -0.7840  1.9943
 5002TIP3   OH236564   3.603   6.608   0.643  0.0631  0.0498 -0.2974
 5002TIP3    H136565   3.618   6.578   0.553  0.0784 -1.0969  0.0796
 5002TIP3    H236566   3.629   6.700   0.642  2.0934 -0.4764 -0.9562
 5003TIP3   OH236567   0.575   5.614   3.124 -0.2594 -0.0783  0.1028
 5003TIP3    H136568   0.611   5.668   3.053  0.8170 -1.5001 -0.4785
 5003TIP3    H236569   0.645   5.552   3.145 -1.3983 -1.1512  0.8686
 5004TIP3   OH236570   1.989   5.932   8.040  0.0168 -0.0002 -0.5414
 5004TIP3    H136571   2.070   5.890   8.069 -1.4059 -1.6088  1.3466
 5004TIP3    H236572   2.008   5.961   7.951  2.1769 -1.6873 -0.7187
 5005TIP3   OH236573   6.754   0.223   1.674 -0.2171 -0.1211 -0.0884
 5005TIP3    H136574   6.823   0.279   1.639  0.7794 -1.3850 -0.2201
 5005TIP3    H236575   6.786   0.134   1.661 -1.2249 -0.7132  1.1922
 5006TIP3   OH236576   4.228   5.675   2.691  0.2053 -0.1149 -0.0547
 5006TIP3    H136577   4.186   5.753   2.725  1.4509  0.2365  0.7405
 5006TIP3    H236578   4.208   5.607   2.755 -1.6825 -0.7402 -1.2195
 5007TIP3   OH236579   1.389   3.423   0.871  0.3359 -0.2823  0.3089
 5007TIP3    H136580   1.470   3.383   0.903 -0.0933 -0.5819  1.0533
 5007TIP3    H236581   1.329   3.419   0.946 -0.6498 -0.8390 -0.4820
 5008TIP3   OH236582   1.504   2.889   1.953  0.0623  0.2043 -0.0512
 5008TIP3    H136583   1.541   2.801   1.951  4.8318  1.8839  0.4235
 5008TIP3    H236584   1.535   2.930   1.873 -2.7102  1.3445 -0.6520
 5009TIP3   OH236585   3.393   1.698   0.244  0.1498  0.1694  0.0312
 5009TIP3    H136586   3.379   1.617   0.292  0.7654 -0.2388 -0.4585
 5009TIP3    H236587   3.456   1.748   0.296  0.5591 -0.1257 -0.1733
 5010TIP3   OH236588   4.041   2.409   1.970  0.2727  0.2653 -0.0198
 5010TIP3    H136589   4.005   2.495   1.991  0.6915  0.7577 -1.2056
 5010TIP3    H236590   4.118   2.427   1.917  1.6703 -0.8064  1.5352
 5011TIP3   OH236591   4.439   6.706   1.070  0.4725 -0.4317 -0.3147
 5011TIP3    H136592   4.428   6.799   1.090 -0.1892 -0.4621 -0.4873
 5011TIP3    H236593   4.363   6.664   1.111  1.0611 -0.9706  0.2321
 5012TIP3   OH236594   3.252   4.975   1.086  0.3135  0.1958  0.1026
 5012TIP3    H136595   3.260   4.906   1.152  1.7076  0.7805  0.5695
 5012TIP3    H236596   3.299   4.941   1.010 -0.8014 -0.2348 -0.4151
 5013TIP3   OH236597   3.244   5.379   8.546 -0.6636  0.7907  0.3582
 5013TIP3    H136598   3.285   5.415   8.468 -0.9134  1.3023  0.4535
 5013TIP3    H236599   3.192   5.306   8.515  1.4185 -0.7975  0.4174
 5014TIP3   OH236600   5.478   2.584   1.691  0.8190 -0.2314 -0.1031
 5014TIP3    H136601   5.464   2.677   1.669 -1.0280 -0.5346 -0.3780
 5014TIP3    H236602   5.573   2.575   1.697  1.0247  2.0667  1.6398
 5015TIP3   OH236603   2.007   1.377   2.672 -0.1007  0.4250 -0.1863
 5015TIP3    H136604   2.050   1.321   2.736 -1.1230  1.5616  1.5740
 5015TIP3    H236605   2.072   1.387   2.602  1.1807 -0.5890  0.7919
 5016TIP3   OH236606   4.360   5.905   8.166 -0.1394 -0.2575  0.0511
 5016TIP3    H136607   4.316   5.820   8.177 -1.7565  0.4292 -0.8107
 5016TIP3    H236608   4.360   5.943   8.254 -0.3870 -0.6944  0.2441
 5017TIP3   OH236609   0.453   5.487   1.916 -0.0251 -0.3120  0.0533
 5017TIP3    H136610   0.505   5.494   1.996  0.8623 -3.7604 -0.0626
 5017TIP3    H236611   0.515   5.504   1.845 -0.2888  0.5307  0.0134
 5018TIP3   OH236612   0.038   6.531   0.142  0.0370 -0.0163  0.4504
 5018TIP3    H136613   0.098   6.503   0.073  0.8515  3.7296 -0.5695
 5018TIP3    H236614   0.001   6.613   0.111 -1.6710  0.4763  3.3598
 5019TIP3   OH236615   0.838   3.170   0.593  0.4384  0.8788 -0.0912
 5019TIP3    H136616   0.854   3.226   0.517  0.9195 -0.2138 -0.8236
 5019TIP3    H236617   0.830   3.230   0.667  0.2922  1.9393 -0.9552
 5020TIP3   OH236618   1.004   4.281   7.249  0.7009 -0.3277 -0.3285
 5020TIP3    H136619   0.999   4.243   7.161  2.5847 -1.4459 -0.0113
 5020TIP3    H236620   0.943   4.229   7.301  2.5422 -2.4639 -0.1227
 5021TIP3   OH236621   1.868   6.019   1.447  0.0323  0.4588 -0.3735
 5021TIP3    H136622   1.900   6.027   1.537  0.7678  0.6719 -0.6468
 5021TIP3    H236623   1.819   5.937   1.446  0.0828  0.4200  0.2054
 5022TIP3   OH236624   6.809   1.921   1.126  0.2193 -0.2239 -0.0246
 5022TIP3    H136625   6.718   1.911   1.098  0.3348 -0.3868 -0.3484
 5022TIP3    H236626   6.855   1.847   1.085  0.1747 -1.2055  1.5917
 5023TIP3   OH236627   0.607   4.705   1.592  0.1208 -0.0147 -0.2724
 5023TIP3    H136628   0.558   4.625   1.574 -0.6662 -0.0122  1.7094
 5023TIP3    H236629   0.542   4.775   1.590  0.0634  0.0534  1.8543
 5024TIP3   OH236630   2.612   4.759   8.694  0.2095  0.0888 -0.1452
 5024TIP3    H136631   2.526   4.727   8.722  0.2842 -0.8252 -0.9072
 5024TIP3    H236632   2.629   4.835   8.750 -0.5305 -0.4727  0.8692
 5025TIP3   OH236633   1.205   3.062   0.194 -0.0652 -0.3036 -0.2794
 5025TIP3    H136634   1.124   3.098   0.157 -0.2800 -0.4667  0.0296
 5025TIP3    H236635   1.220   2.981   0.145 -0.3339 -0.5040 -0.0383
 5026TIP3   OH236636   3.894   5.521   2.210 -0.4152 -0.2149 -0.2688
 5026TIP3    H136637   3.852   5.558   2.288 -0.5027  0.1993 -0.5061
 5026TIP3    H236638   3.940   5.443   2.241  0.3791  0.4986  0.3963
 5027TIP3   OH236639   3.796   0.568   8.524  0.2512  0.2700  0.4159
 5027TIP3    H136640   3.729   0.573   8.592 -1.3990  0.6187 -1.1631
 5027TIP3    H236641   3.748   0.543   8.445  2.1495 -0.4455 -0.5722
 5028TIP3   OH236642   0.275   5.289   0.886 -0.1658  0.3232  0.0528
 5028TIP3    H136643   0.328   5.273   0.964 -1.2276 -0.9321  0.5557
 5028TIP3    H236644   0.263   5.384   0.884 -1.4032  0.2820  2.3221
 5029TIP3   OH236645   0.568   4.405   8.143 -0.7391  0.2872 -0.4491
 5029TIP3    H136646   0.567   4.375   8.052 -2.0286  1.1907 -0.7635
 5029TIP3    H236647   0.577   4.325   8.194 -0.1239 -0.2485 -1.3650
 5030TIP3   OH236648   2.748   2.639   8.284 -0.2576 -0.0119  0.1950
 5030TIP3    H136649   2.770   2.731   8.298 -3.1172  0.5993  1.1815
 5030TIP3    H236650   2.814   2.591   8.334  2.4624  1.2943 -1.8563
 5031TIP3   OH236651   6.801   5.230   3.002 -0.5470  0.4596 -0.2958
 5031TIP3    H136652   6.784   5.324   3.001  0.0149  0.5755  0.2202
 5031TIP3    H236653   6.742   5.195   3.069  0.7711  0.7868  1.1222
 5032TIP3   OH236654   6.650   1.782   2.142  0.3636 -0.4858 -0.0123
 5032TIP3    H136655   6.725   1.833   2.114 -0.0402  0.5575  0.7496
 5032TIP3    H236656   6.681   1.732   2.218 -0.0961  1.1694  1.3316
 5033TIP3   OH236657   2.475   4.876   3.007 -0.1314  0.4591 -0.6996
 5033TIP3    H136658   2.547   4.828   3.048  1.1971  2.2023 -0.8801
 5033TIP3    H236659   2.433   4.921   3.079 -1.2010 -0.7023 -0.5693
 5034TIP3   OH236660   1.386   1.046   1.213  0.4077 -0.0092 -0.1238
 5034TIP3    H136661   1.475   1.047   1.250  0.3945 -0.0478 -0.0912
 5034TIP3    H236662   1.384   0.967   1.158 -0.0236 -0.7305  0.8997
 5035TIP3   OH236663   2.128   5.151   1.199 -1.0243 -0.1024  0.0774
 5035TIP3    H136664   2.205   5.138   1.144 -0.3391 -1.5974  1.3423
 5035TIP3    H236665   2.065   5.085   1.170 -1.9129  1.1448 -0.9889
 5036TIP3   OH236666   1.782   0.653   8.531 -0.3988 -0.6664  0.3193
 5036TIP3    H136667   1.796   0.745   8.513 -0.1327 -0.9033 -0.7654
 5036TIP3    H236668   1.804   0.642   8.624  2.7882 -0.2652 -0.3099
 5037TIP3   OH236669   1.349   3.616   1.146  0.1711 -0.1448  0.2366
 5037TIP3    H136670   1.345   3.527   1.182  0.5373  0.6228  2.3250
 5037TIP3    H236671   1.284   3.664   1.197 -0.1976  0.7604 -1.0452
 5038TIP3   OH236672   1.447   1.144   2.383  0.1833  0.2096 -0.1305
 5038TIP3    H136673   1.414   1.070   2.331 -0.6177 -0.9428  1.9043
 5038TIP3    H236674   1.530   1.167   2.341 -0.5725 -0.4079 -2.1039
 5039TIP3   OH236675   1.835   1.639   0.935 -0.1108 -0.0127  0.1748
 5039TIP3    H136676   1.794   1.710   0.885 -1.5091  0.1467  1.4928
 5039TIP3    H236677   1.775   1.622   1.007  0.6029 -2.0034  0.3622
 5040TIP3   OH236678   3.767   3.231   2.192  0.0777  0.1122 -0.2863
 5040TIP3    H136679   3.823   3.176   2.247  1.3802  0.1081 -1.5839
 5040TIP3    H236680   3.703   3.170   2.155  1.8111 -0.7141 -2.1132
 5041TIP3   OH236681   1.414   1.801   2.817 -0.3269  0.1831 -0.9004
 5041TIP3    H136682   1.393   1.831   2.729  2.0732  0.0232 -1.5963
 5041TIP3    H236683   1.463   1.873   2.856 -0.3505 -0.2138 -0.1146
 5042TIP3   OH236684   5.668   4.739   2.808 -0.8436  0.4473 -0.4273
 5042TIP3    H136685   5.741   4.726   2.747 -1.1352 -0.8517 -0.5145
 5042TIP3    H236686   5.604   4.672   2.785 -0.9293 -0.1474  1.3562
 5043TIP3   OH236687   6.585   2.379   0.721  0.4110 -0.0926 -0.1442
 5043TIP3    H136688   6.612   2.396   0.631 -0.6479 -0.3588 -0.5257
 5043TIP3    H236689   6.536   2.458   0.746 -0.1417 -0.4248 -0.1541
 5044TIP3   OH236690   6.035   2.149   2.664 -0.4728  0.2053 -0.6557
 5044TIP3    H136691   6.128   2.157   2.642 -0.6073  0.5971 -1.1217
 5044TIP3    H236692   5.995   2.115   2.584 -0.5769 -1.0119 -0.1052
 5045TIP3   OH236693   6.158   3.073   0.431  0.2292  0.5135 -0.0136
 5045TIP3    H136694   6.239   3.030   0.402  1.7629  1.5245  2.4600
 5045TIP3    H236695   6.174   3.166   0.415 -0.9379  0.6533 -0.4887
 5046TIP3   OH236696   6.244   3.408   3.380  0.3607 -0.1366  0.5609
 5046TIP3    H136697   6.195   3.488   3.403 -0.6197 -0.0409 -1.5941
 5046TIP3    H236698   6.193   3.337   3.419 -1.3679 -0.0011 -1.2619
 5047TIP3   OH236699   3.869   6.149   1.203  0.0733  0.6302 -0.2360
 5047TIP3    H136700   3.803   6.217   1.190 -0.9908 -0.3227 -0.0321
 5047TIP3    H236701   3.867   6.132   1.297 -1.5062 -1.3975 -0.5661
 5048TIP3   OH236702   4.799   4.908   8.383  0.3652  0.3358 -0.0309
 5048TIP3    H136703   4.819   4.923   8.475  0.7045  0.1263 -0.0671
 5048TIP3    H236704   4.705   4.920   8.376  0.4052  0.8188  0.2526
 5049TIP3   OH236705   4.758   2.760   8.150 -0.5130  0.2460 -0.3266
 5049TIP3    H136706   4.693   2.792   8.212 -1.3751 -0.4386 -0.8582
 5049TIP3    H236707   4.745   2.815   8.072  0.1407  0.6856 -0.1317
 5050TIP3   OH236708   4.582   3.049   1.381  0.0146 -0.3921  0.4681
 5050TIP3    H136709   4.555   3.041   1.473 -0.3903 -0.2205  0.3675
 5050TIP3    H236710   4.666   3.094   1.385  0.1008 -0.5748  0.7667
 5051TIP3   OH236711   2.957   3.230   2.065  0.3902  0.3890 -0.6065
 5051TIP3    H136712   2.896   3.180   2.012  0.6882  0.2539 -0.8272
 5051TIP3    H236713   2.996   3.293   2.005  0.1092  0.8084 -0.3581
 5052TIP3   OH236714   5.221   1.500   0.505 -0.1265  0.1485 -0.1571
 5052TIP3    H136715   5.209   1.427   0.444  0.4075 -0.3056  0.2781
 5052TIP3    H236716   5.240   1.459   0.589 -1.8923  0.7261  0.5896
 5053TIP3   OH236717   0.189   4.177   7.560  0.1626  0.3180  0.0115
 5053TIP3    H136718   0.270   4.159   7.609  1.0269  1.6671 -0.8459
 5053TIP3    H236719   0.207   4.143   7.472  0.9688  3.0906 -0.9940
 5054TIP3   OH236720   6.667   5.082   8.094 -0.3035  0.7453 -0.0631
 5054TIP3    H136721   6.571   5.080   8.098 -0.2757 -1.4538  1.0809
 5054TIP3    H236722   6.695   5.087   8.185  0.5991 -1.5933 -0.1210
 5055TIP3   OH236723   3.331   2.265   0.466 -0.6484  0.3245  0.5110
 5055TIP3    H136724   3.334   2.305   0.379 -2.9539 -1.4133 -0.4886
 5055TIP3    H236725   3.413   2.217   0.474 -0.1284  1.0347 -0.4361
 5056TIP3   OH236726   3.122   2.717   1.137  0.3578  0.3557 -0.3804
 5056TIP3    H136727   3.153   2.804   1.161 -3.2916  1.6411  0.3579
 5056TIP3    H236728   3.088   2.680   1.218  0.4569 -1.1669 -0.9867
 5057TIP3   OH236729   2.387   0.460   0.156 -0.1319 -0.0848 -0.3152
 5057TIP3    H136730   2.326   0.438   0.226  1.3394  1.5746  1.5913
 5057TIP3    H236731   2.446   0.385   0.152  1.3140  0.8146  2.0777
 5058TIP3   OH236732   4.790   4.259   8.637 -0.0834 -0.0483  0.8749
 5058TIP3    H136733   4.751   4.345   8.655 -0.5565  0.4731 -2.0607
 5058TIP3    H236734   4.730   4.219   8.575  0.2445 -2.4898  2.0408
 5059TIP3   OH236735   2.086   0.870   3.161 -0.7409  0.0338  0.3724
 5059TIP3    H136736   2.151   0.809   3.196 -1.2535 -0.1488  1.0045
 5059TIP3    H236737   2.006   0.850   3.208 -1.2971  0.1775 -0.4906
 5060TIP3   OH236738   0.255   4.671   0.430 -0.6457  0.3746  0.2510
 5060TIP3    H136739   0.277   4.705   0.343 -1.9063 -0.4410 -0.4076
 5060TIP3    H236740   0.212   4.745   0.474 -2.1929  0.0910 -0.7076
 5061TIP3   OH236741   6.494   6.627   8.307 -0.5324 -0.4519  0.0607
 5061TIP3    H136742   6.560   6.631   8.377 -0.8260  0.0258  0.3149
 5061TIP3    H236743   6.541   6.656   8.229 -0.1915 -1.0246  0.0492
 5062TIP3   OH236744   4.028   3.468   8.583  0.4859 -0.2148 -0.3063
 5062TIP3    H136745   4.092   3.512   8.638  0.0947 -2.1921  1.8958
 5062TIP3    H236746   4.078   3.435   8.509  1.8028 -0.6120  0.7232
 5063TIP3   OH236747   6.520   2.006   3.215 -0.3352 -0.0437  0.0915
 5063TIP3    H136748   6.583   2.009   3.287 -0.1251 -1.4979  0.0071
 5063TIP3    H236749   6.561   1.949   3.150 -0.6696  0.9857 -1.0454
 5064TIP3   OH236750   1.552   2.483   0.047  0.1742 -0.1913 -0.2545
 5064TIP3    H136751   1.565   2.501   0.140  1.0423  0.9380 -0.5783
 5064TIP3    H236752   1.526   2.391   0.044 -1.8943  0.2728  1.2623
 5065TIP3   OH236753   1.855   6.519   2.222 -0.0216 -0.1411  0.1657
 5065TIP3    H136754   1.823   6.435   2.255  0.8853 -0.0290  1.3836
 5065TIP3    H236755   1.825   6.584   2.286  1.1302  0.1790  0.4064
 5066TIP3   OH236756   6.826   2.178   0.895  0.6697  0.3870  0.0788
 5066TIP3    H136757   6.792   2.089   0.887 -0.7294  1.0152 -1.4981
 5066TIP3    H236758   6.814   2.217   0.808  0.5632  2.3511  0.9113
 5067TIP3   OH236759   1.712   5.632   2.717  0.7946  0.7800 -0.3120
 5067TIP3    H136760   1.662   5.654   2.796 -0.2216  1.8349 -1.2231
 5067TIP3    H236761   1.718   5.537   2.719 -0.4569  0.6925  0.3083
 5068TIP3   OH236762   5.409   3.178   2.153 -0.4181 -0.3144 -0.0931
 5068TIP3    H136763   5.388   3.226   2.073  0.7838 -0.8168 -0.7388
 5068TIP3    H236764   5.404   3.243   2.223  1.5967  0.8946 -1.0012
 5069TIP3   OH236765   6.070   0.323   0.700  0.6826  0.2815  0.0009
 5069TIP3    H136766   5.985   0.366   0.707  0.6845  0.2797  0.0366
 5069TIP3    H236767   6.073   0.264   0.775  0.4751 -0.1451 -0.3225
 5070TIP3   OH236768   3.950   6.311   8.479 -0.7542 -0.1189 -0.1084
 5070TIP3    H136769   4.042   6.326   8.504 -0.6614  1.1659 -1.1053
 5070TIP3    H236770   3.907   6.287   8.561  0.2458  0.3699  0.5909
 5071TIP3   OH236771   2.030   1.663   1.855 -0.9814  0.3692 -0.0760
 5071TIP3    H136772   1.947   1.684   1.813 -0.4030  2.2813 -0.3500
 5071TIP3    H236773   2.081   1.619   1.787 -1.0873  0.9238 -0.5239
 5072TIP3   OH236774   0.480   6.353   0.794  0.1698  0.1474  0.3314
 5072TIP3    H136775   0.488   6.331   0.701 -2.0651 -0.7938  0.3059
 5072TIP3    H236776   0.535   6.288   0.838 -1.7409 -1.9251 -0.1462
 5073TIP3   OH236777   2.947   0.530   8.634 -0.2673  0.3449 -0.2757
 5073TIP3    H136778   2.887   0.578   8.577 -0.5042  0.7790  0.3292
 5073TIP3    H236779   2.979   0.595   8.696  1.9026  0.4284 -1.4122
 5074TIP3   OH236780   3.301   2.453   2.114 -0.1703  0.4659 -0.5572
 5074TIP3    H136781   3.379   2.492   2.075  0.5266 -0.9389 -0.6294
 5074TIP3    H236782   3.232   2.466   2.049  0.6614 -0.6655 -1.7183
 5075TIP3   OH236783   2.501   3.251   0.445  0.4955  0.6118 -0.2534
 5075TIP3    H136784   2.579   3.198   0.434  1.2948  1.9662 -1.5109
 5075TIP3    H236785   2.484   3.287   0.358 -1.7734  0.0530 -0.1057
 5076TIP3   OH236786   1.105   0.416   3.071  0.1300 -0.2482  0.3340
 5076TIP3    H136787   1.198   0.436   3.080  0.0557  0.2997 -0.0525
 5076TIP3    H236788   1.097   0.377   2.984 -0.3582  2.0637 -0.7355
 5077TIP3   OH236789   5.639   2.528   2.054  0.3947 -0.4282 -0.6898
 5077TIP3    H136790   5.656   2.563   2.141 -0.4561 -0.1741 -0.6247
 5077TIP3    H236791   5.660   2.434   2.062 -1.5706 -0.8388  0.3580
 5078TIP3   OH236792   4.453   5.161   1.744  0.1528 -0.7775 -0.2608
 5078TIP3    H136793   4.486   5.071   1.747  0.8252 -0.5274  0.2388
 5078TIP3    H236794   4.466   5.188   1.653  0.3664 -1.0423 -0.3100
 5079TIP3   OH236795   6.125   5.946   1.175 -0.3343 -0.1200  0.0955
 5079TIP3    H136796   6.116   5.881   1.105 -1.7836 -1.0268  1.0592
 5079TIP3    H236797   6.216   5.936   1.204 -0.5258 -1.7870  0.2411
 5080TIP3   OH236798   0.781   1.501   8.386 -0.6203 -0.6169 -0.2303
 5080TIP3    H136799   0.794   1.437   8.317  0.1265 -1.1035  0.3480
 5080TIP3    H236800   0.690   1.529   8.377 -1.2567 -2.4683  0.1064
 5081TIP3   OH236801   1.090   0.401   2.556 -0.5411 -0.7502  0.0271
 5081TIP3    H136802   1.009   0.352   2.570  0.6320 -2.9462 -0.4667
 5081TIP3    H236803   1.131   0.358   2.481  0.7507  0.7857 -0.2012
 5082TIP3   OH236804   3.382   6.496   1.795  0.8203  0.8818 -0.1868
 5082TIP3    H136805   3.441   6.516   1.723  0.9705 -1.7090 -0.8871
 5082TIP3    H236806   3.320   6.432   1.759  0.3134  0.2199  1.7200
 5083TIP3   OH236807   1.491   3.339   7.313 -0.3637 -0.5926  0.2022
 5083TIP3    H136808   1.582   3.322   7.339 -1.1841 -0.3336  3.8750
 5083TIP3    H236809   1.450   3.253   7.310 -0.4608 -0.5663  0.6974
 5084TIP3   OH236810   3.633   3.355   1.184 -0.1331  0.5234 -0.4889
 5084TIP3    H136811   3.588   3.402   1.253 -0.1592  2.1394 -1.5528
 5084TIP3    H236812   3.608   3.263   1.196 -2.0222  1.0971  0.1933
 5085TIP3   OH236813   2.244   2.590   7.822 -0.0417  0.2307  0.2835
 5085TIP3    H136814   2.292   2.508   7.816  0.6522  0.5702  1.0374
 5085TIP3    H236815   2.271   2.639   7.745  0.1207  0.0504  0.2257
 5086TIP3   OH236816   5.452   2.608   2.388 -0.4561  0.8114 -0.0064
 5086TIP3    H136817   5.358   2.618   2.396 -0.4312 -0.4031  2.8592
 5086TIP3    H236818   5.465   2.520   2.355 -0.3288  0.7617  0.1703
 5087TIP3   OH236819   5.799   3.929   1.906  0.7111  0.1158  0.1101
 5087TIP3    H136820   5.772   4.017   1.882 -0.0652  0.4535  2.0148
 5087TIP3    H236821   5.844   3.895   1.829 -1.0793  1.2846 -1.5451
 5088TIP3   OH236822   0.358   5.023   2.079  0.9019  0.0699  0.0494
 5088TIP3    H136823   0.292   5.085   2.109  0.1171 -1.1549  0.9673
 5088TIP3    H236824   0.423   5.077   2.035 -1.0363  1.2527 -1.5366
 5089TIP3   OH236825   2.399   0.129   2.980 -0.2937  0.4313 -0.5364
 5089TIP3    H136826   2.461   0.179   3.034 -1.3723  0.8991  0.2947
 5089TIP3    H236827   2.333   0.098   3.041 -0.9184 -0.0219 -1.4192
 5090TIP3   OH236828   4.272   1.591   3.070  0.4511  0.4716 -0.2374
 5090TIP3    H136829   4.247   1.498   3.075 -1.5093  0.8466 -1.7564
 5090TIP3    H236830   4.195   1.638   3.102  1.6296  1.6149  1.0501
 5091TIP3   OH236831   2.529   0.229   0.160 -0.4358  0.3659  0.4306
 5091TIP3    H136832   2.596   0.180   0.113 -0.1493 -1.3949  2.5239
 5091TIP3    H236833   2.556   0.225   0.252 -2.1628  1.6879  1.0579
 5092TIP3   OH236834   0.154   4.030   0.769 -0.3619  0.3446 -0.5339
 5092TIP3    H136835   0.157   4.122   0.740  1.5637  0.7198  0.7306
 5092TIP3    H236836   0.196   4.030   0.855 -1.0992 -1.6113 -0.1226
 5093TIP3   OH236837   3.080   1.756   8.406  0.3168 -0.3021 -0.9618
 5093TIP3    H136838   3.021   1.709   8.347 -0.1009 -0.3884 -0.4830
 5093TIP3    H236839   3.023   1.790   8.475  0.6930  0.4328 -1.0026
 5094TIP3   OH236840   4.893   4.305   0.199  0.2044 -0.1770 -0.4202
 5094TIP3    H136841   4.852   4.279   0.116 -0.0420  0.6597 -0.5642
 5094TIP3    H236842   4.843   4.257   0.266 -0.4894  0.2028 -0.6554
 5095TIP3   OH236843   4.862   5.549   8.324  0.1445  0.0317 -0.2048
 5095TIP3    H136844   4.864   5.513   8.235  3.2231  0.7203 -0.5213
 5095TIP3    H236845   4.885   5.474   8.380  0.1136  0.0406 -0.1807
 5096TIP3   OH236846   3.738   4.720   2.560  0.2758 -0.1707  0.6145
 5096TIP3    H136847   3.693   4.778   2.621  0.8048 -1.9501  2.7984
 5096TIP3    H236848   3.735   4.634   2.602  1.0237 -1.4057 -1.7018
 5097TIP3   OH236849   5.643   4.061   1.542  0.1048  0.4560 -0.0962
 5097TIP3    H136850   5.587   3.988   1.568  0.1636  0.7258  0.8302
 5097TIP3    H236851   5.587   4.117   1.489 -1.5148  2.2843  3.2565
 5098TIP3   OH236852   2.314   4.803   7.763 -0.0020  0.0221 -0.0018
 5098TIP3    H136853   2.312   4.712   7.790  0.4588  0.3205  1.0756
 5098TIP3    H236854   2.343   4.800   7.671 -1.2171 -0.9747 -0.3827
 5099TIP3   OH236855   2.843   5.373   2.697  0.2435  0.0556  0.0050
 5099TIP3    H136856   2.851   5.402   2.607 -0.0363 -1.6641 -0.6188
 5099TIP3    H236857   2.826   5.279   2.690  1.9294 -0.4646  1.8680
 5100TIP3   OH236858   1.144   3.670   0.478  0.2135 -0.1232 -0.1434
 5100TIP3    H136859   1.193   3.617   0.541  3.0350  0.5536 -1.6100
 5100TIP3    H236860   1.174   3.760   0.494 -1.8642  0.6058 -0.0324
 5101TIP3   OH236861   2.898   4.400   1.899  0.2879  0.2649 -0.3812
 5101TIP3    H136862   2.952   4.346   1.841  0.8288 -0.6952  0.9503
 5101TIP3    H236863   2.961   4.455   1.945 -0.3184  2.7563 -2.3288
 5102TIP3   OH236864   6.050   0.993   8.126  0.5451 -0.5213 -0.5432
 5102TIP3    H136865   6.117   1.060   8.139  0.1026  0.1983 -1.8122
 5102TIP3    H236866   5.999   1.024   8.052 -1.3501 -0.9329  0.5339
 5103TIP3   OH236867   0.839   6.432   2.338 -0.1899  0.0808  0.0711
 5103TIP3    H136868   0.914   6.433   2.398 -0.3279  0.5193  0.2411
 5103TIP3    H236869   0.790   6.511   2.360  0.7487  1.2627 -1.8820
 5104TIP3   OH236870   5.081   5.920   2.450 -0.1671  0.2680 -0.1097
 5104TIP3    H136871   5.026   5.935   2.373  1.3042 -0.8141 -1.4358
 5104TIP3    H236872   5.069   5.999   2.504 -0.8767  1.2718 -1.6651
 5105TIP3   OH236873   6.007   2.652   0.200  0.0855 -0.3405 -0.1008
 5105TIP3    H136874   5.983   2.715   0.132 -1.1517 -1.4323 -0.7137
 5105TIP3    H236875   5.924   2.611   0.224  0.9445 -2.1487 -0.1288
 5106TIP3   OH236876   3.849   1.322   2.341  0.2127  0.1397 -0.1623
 5106TIP3    H136877   3.830   1.240   2.296  0.2571 -0.3409  0.6716
 5106TIP3    H236878   3.945   1.324   2.348  0.1570 -0.3522  0.9098
 5107TIP3   OH236879   3.700   3.836   2.929 -0.3095  0.4106 -0.2157
 5107TIP3    H136880   3.772   3.794   2.975 -0.5319  0.9604  0.6596
 5107TIP3    H236881   3.621   3.802   2.971 -0.6235 -0.8179 -1.7011
 5108TIP3   OH236882   0.332   0.568   2.104  0.0397  0.1587 -0.0421
 5108TIP3    H136883   0.263   0.539   2.045  1.3826 -0.8139 -1.2007
 5108TIP3    H236884   0.344   0.661   2.082 -1.9068  0.7928  1.2717
 5109TIP3   OH236885   6.347   0.992   2.018 -0.2275  0.4131 -0.3266
 5109TIP3    H136886   6.373   0.911   2.063  1.2804  0.3370 -1.2723
 5109TIP3    H236887   6.251   0.992   2.023 -0.2237 -1.0106  0.4108
 5110TIP3   OH236888   6.238   1.627   0.007 -0.2087  0.0057  0.0120
 5110TIP3    H136889   6.232   1.540  -0.033 -2.7470  0.6917 -1.2899
 5110TIP3    H236890   6.184   1.622   0.085 -0.9667  0.5855 -0.4613
 5111TIP3   OH236891   0.864   2.063   2.204 -0.1685 -0.0182 -0.6918
 5111TIP3    H136892   0.885   2.069   2.297  1.0570 -0.3719 -0.9371
 5111TIP3    H236893   0.948   2.066   2.159 -0.7083 -0.3610 -1.7705
 5112TIP3   OH236894   4.415   2.120   7.616  0.6068 -0.0994  0.3887
 5112TIP3    H136895   4.406   2.204   7.570 -1.4822  0.4502  1.6417
 5112TIP3    H236896   4.460   2.063   7.554  1.4577  1.7446 -0.7652
 5113TIP3   OH236897   4.682   3.692   7.817  0.3135  0.2681 -0.3417
 5113TIP3    H136898   4.752   3.664   7.875 -0.7357  2.3037  2.1054
 5113TIP3    H236899   4.727   3.722   7.738  2.1940  1.1714  0.9942
 5114TIP3   OH236900   4.217   2.508   0.980 -0.2897 -0.0921  0.0512
 5114TIP3    H136901   4.200   2.593   0.939  1.1274  0.3059  0.2110
 5114TIP3    H236902   4.312   2.506   0.992 -0.2123 -1.9904 -0.5395
 5115TIP3   OH236903   1.876   0.055   0.995 -0.6168  0.3725 -0.5150
 5115TIP3    H136904   1.958   0.058   0.945  1.0243  1.6528  2.0346
 5115TIP3    H236905   1.831   0.136   0.970  0.3400  1.1660  0.2132
 5116TIP3   OH236906   6.782   0.167   0.043 -0.1573 -0.0693 -0.3502
 5116TIP3    H136907   6.687   0.163   0.051 -0.2370 -0.4674 -1.4017
 5116TIP3    H236908   6.798   0.196  -0.046  0.6772 -3.8776 -1.6273
 5117TIP3   OH236909   0.509   4.415   1.451 -0.5712  0.4772  0.5477
 5117TIP3    H136910   0.491   4.322   1.462 -0.8726  0.3904 -0.5649
 5117TIP3    H236911   0.604   4.421   1.444 -0.4565  0.4084  1.8769
 5118TIP3   OH236912   1.697   5.960   7.053 -0.2933  0.2316  0.2939
 5118TIP3    H136913   1.715   5.982   7.144 -0.6410  0.6697  0.2620
 5118TIP3    H236914   1.673   5.867   7.055  3.4691 -0.8851  0.1188
 5119TIP3   OH236915   0.079   3.854   8.035 -0.2789  0.5430 -0.0192
 5119TIP3    H136916   0.012   3.881   7.971 -1.1511  0.9365  1.0282
 5119TIP3    H236917   0.122   3.779   7.994  0.0213  1.5336 -1.5979
 5120TIP3   OH236918   0.096   1.448   1.961  0.1869 -0.5321 -0.5868
 5120TIP3    H136919   0.157   1.516   1.932  0.1866  0.5137  1.6391
 5120TIP3    H236920   0.016   1.496   1.982  0.3539 -1.0884  1.5201
 5121TIP3   OH236921   0.183   0.574   7.859 -0.3309  0.2524  0.0517
 5121TIP3    H136922   0.178   0.576   7.954  0.1881 -0.3212  0.1022
 5121TIP3    H236923   0.095   0.548   7.831  0.7194 -5.3792  0.6847
 5122TIP3   OH236924   3.608   2.521   1.755  0.3780 -0.9664 -0.3949
 5122TIP3    H136925   3.589   2.536   1.662 -0.7548  0.5459  0.0461
 5122TIP3    H236926   3.567   2.437   1.774  2.4836 -2.4039 -1.7304
 5123TIP3   OH236927   5.267   6.367   0.844  0.7640 -0.0876  0.4426
 5123TIP3    H136928   5.206   6.294   0.848  2.3117 -1.4265  0.7846
 5123TIP3    H236929   5.250   6.418   0.923  1.8418 -1.9586  1.9730
 5124TIP3   OH236930   3.430   2.704   1.352 -0.0146 -0.0949  0.4971
 5124TIP3    H136931   3.345   2.664   1.368 -0.2638  0.1778 -0.0833
 5124TIP3    H236932   3.426   2.731   1.260  0.7452 -0.1944  0.4287
 5125TIP3   OH236933   3.908   0.917   3.350  0.2276 -0.3488  0.5996
 5125TIP3    H136934   3.904   0.927   3.255  0.2534  1.2929  0.7444
 5125TIP3    H236935   3.890   0.825   3.365 -0.3356 -0.5242 -0.9686
 5126TIP3   OH236936   6.802   5.061   8.347 -0.1450  0.0604  0.1923
 5126TIP3    H136937   6.766   5.034   8.431 -0.3927  1.3167  0.5188
 5126TIP3    H236938   6.829   4.980   8.304  0.2311 -0.5760  1.5923
 5127TIP3   OH236939   1.679   2.348   1.976 -0.5765  0.0940 -0.6104
 5127TIP3    H136940   1.628   2.268   1.987  0.1628 -0.2143  0.8987
 5127TIP3    H236941   1.755   2.321   1.925  1.5657 -1.1517  2.8766
 5128TIP3   OH236942   4.435   4.770   0.873 -0.3293 -0.4368 -0.2119
 5128TIP3    H136943   4.523   4.771   0.835  0.1002  1.3620  0.7041
 5128TIP3    H236944   4.434   4.692   0.928  0.8903 -0.2120  0.1634
 5129TIP3   OH236945   2.093   6.043   0.685 -0.0280  0.6427 -0.0581
 5129TIP3    H136946   2.146   5.978   0.731 -0.3350  0.9443  0.7332
 5129TIP3    H236947   2.023   6.066   0.747  0.8668  2.7808  0.2714
 5130TIP3   OH236948   3.953   2.404   0.887  0.5641  0.0343  0.8422
 5130TIP3    H136949   3.975   2.461   0.962  1.0114 -1.7524  2.1363
 5130TIP3    H236950   4.037   2.371   0.856  0.2782 -0.3232  0.4382
 5131TIP3   OH236951   0.898   0.180   0.520  0.2833 -0.1867  0.3653
 5131TIP3    H136952   0.955   0.136   0.583  2.3715  0.7755 -0.7741
 5131TIP3    H236953   0.821   0.204   0.572  0.5574 -2.1126  1.7933
 5132TIP3   OH236954   4.670   3.027   3.230  0.2425  0.0440 -0.5764
 5132TIP3    H136955   4.586   3.020   3.185 -0.3550  1.1058  0.3241
 5132TIP3    H236956   4.673   3.117   3.263  1.4155 -0.1852  0.0259
 5133TIP3   OH236957   5.737   0.447   7.390  0.2493 -0.4983 -0.1511
 5133TIP3    H136958   5.748   0.376   7.326  0.9734 -0.3169 -0.2353
 5133TIP3    H236959   5.800   0.427   7.459 -0.3226 -0.5332  0.3733
 5134TIP3   OH236960   2.535   2.721   0.997  0.4980  0.2924  0.4135
 5134TIP3    H136961   2.490   2.708   0.913 -1.5910 -1.6123  1.7097
 5134TIP3    H236962   2.466   2.717   1.062  2.2769 -0.1723  2.3833
 5135TIP3   OH236963   5.063   0.821   0.048  1.1410 -0.4273 -0.5911
 5135TIP3    H136964   5.151   0.788   0.066  0.4021 -1.5531  1.1627
 5135TIP3    H236965   5.013   0.804   0.128 -0.3429  1.4109 -1.0437
 5136TIP3   OH236966   0.041   3.642   0.052  0.6364  0.0534 -0.0898
 5136TIP3    H136967   0.036   3.555   0.014  3.1801 -0.1275 -0.1480
 5136TIP3    H236968   0.011   3.700  -0.018  0.7196 -0.6291 -0.6990
 5137TIP3   OH236969   5.722   2.051   2.001  0.2531 -0.3287  0.6351
 5137TIP3    H136970   5.815   2.044   2.020  0.3812  0.1083  0.2115
 5137TIP3    H236971   5.692   1.961   1.991  0.8845 -0.4503 -0.3537
 5138TIP3   OH236972   1.966   1.369   7.573  0.8942 -0.2782  0.1399
 5138TIP3    H136973   1.930   1.358   7.485 -0.4261 -0.2301  0.6623
 5138TIP3    H236974   2.029   1.441   7.564  0.7394 -0.2434 -0.7522
 5139TIP3   OH236975   0.720   4.157   0.043 -0.1815 -0.0336 -0.0503
 5139TIP3    H136976   0.721   4.067   0.009  0.4494  0.5992 -1.8159
 5139TIP3    H236977   0.663   4.153   0.119  1.3653 -2.3431  1.1077
 5140TIP3   OH236978   0.249   1.163   0.044  0.6424 -0.1661  0.0674
 5140TIP3    H136979   0.328   1.164   0.097  1.0194  0.4070 -0.4946
 5140TIP3    H236980   0.272   1.107  -0.031  0.6496  0.3220 -0.2949
 5141TIP3   OH236981   3.414   1.954   0.832 -0.0311 -0.0095  0.3598
 5141TIP3    H136982   3.330   1.927   0.796 -0.5120  1.2888  0.4495
 5141TIP3    H236983   3.472   1.880   0.816 -1.0091 -0.6521 -0.3249
 5142TIP3   OH236984   0.624   6.618   2.739  0.3316 -0.2733  0.0834
 5142TIP3    H136985   0.567   6.576   2.804  0.9160  0.4514  1.1078
 5142TIP3    H236986   0.614   6.712   2.757  1.6967 -0.1295  0.1733
 5143TIP3   OH236987   5.781   1.353   1.166  0.1947  0.6340 -0.2154
 5143TIP3    H136988   5.808   1.370   1.075  1.3110  1.6328  0.2692
 5143TIP3    H236989   5.860   1.317   1.207  0.3055  2.0090  0.8247
 5144TIP3   OH236990   5.590   3.733   2.268 -0.4352  0.1451 -0.6427
 5144TIP3    H136991   5.655   3.717   2.336 -1.2738 -3.0663 -0.4486
 5144TIP3    H236992   5.630   3.800   2.212  0.7686  2.0487  2.2548
 5145TIP3   OH236993   2.578   0.728   2.356  0.4399  0.3244  0.0253
 5145TIP3    H136994   2.517   0.656   2.340  0.2025  0.4636  0.2906
 5145TIP3    H236995   2.531   0.806   2.326 -0.1735  0.6472  1.7102
 5146TIP3   OH236996   4.198   5.091   8.043 -0.3653 -0.4357  0.0503
 5146TIP3    H136997   4.228   5.133   8.123  1.5619 -0.5691 -0.5453
 5146TIP3    H236998   4.117   5.137   8.020  1.1092  2.3237 -0.0348
 5147TIP3   OH236999   2.636   2.162   8.046  0.1523 -0.1497  0.3279
 5147TIP3    H137000   2.697   2.089   8.031  0.1486  0.1960 -1.5506
 5147TIP3    H237001   2.665   2.200   8.129  2.6949  0.1561 -0.6049
 5148TIP3   OH237002   5.550   0.141   2.462  0.0738  0.5908  0.2554
 5148TIP3    H137003   5.508   0.060   2.488  1.1116  0.2638  0.9738
 5148TIP3    H237004   5.536   0.147   2.368 -2.7307  1.1985  0.6247
 5149TIP3   OH237005   3.521   3.645   2.515 -0.3096 -1.0539 -0.4883
 5149TIP3    H137006   3.524   3.727   2.565 -1.6674 -1.5662  0.5019
 5149TIP3    H237007   3.481   3.582   2.575 -1.7628 -1.7645 -2.1024
 5150TIP3   OH237008   5.593   4.068   2.300 -0.2150 -0.6422  0.4426
 5150TIP3    H137009   5.658   4.130   2.333 -0.5014  0.4131 -0.9010
 5150TIP3    H237010   5.553   4.031   2.379 -0.1516  1.0191  1.2856
 5151TIP3   OH237011   0.045   1.875   1.792  0.2749 -0.2268  0.9914
 5151TIP3    H137012  -0.044   1.841   1.787 -0.5238  1.9041 -1.0789
 5151TIP3    H237013   0.045   1.933   1.868  0.0418 -0.5410  1.2326
 5152TIP3   OH237014   5.323   6.748   1.070 -0.1070  0.1115  0.1524
 5152TIP3    H137015   5.237   6.733   1.032 -0.1397 -0.4991  0.4471
 5152TIP3    H237016   5.383   6.743   0.995  0.0816 -3.3456  0.3565
 5153TIP3   OH237017   4.406   5.699   2.279  0.1571 -0.0247 -0.4170
 5153TIP3    H137018   4.371   5.786   2.298  2.6546  0.8517  0.5321
 5153TIP3    H237019   4.472   5.714   2.212  0.1697 -1.3112 -0.7155
 5154TIP3   OH237020   4.302   1.426   2.633  0.4153 -0.4078  0.1812
 5154TIP3    H137021   4.390   1.456   2.612  0.5882 -0.6197  0.5914
 5154TIP3    H237022   4.263   1.498   2.682  0.8234 -0.8285  1.1496
 5155TIP3   OH237023   0.815   2.107   0.873  0.2334 -0.0725  0.4409
 5155TIP3    H137024   0.882   2.088   0.806 -0.4178 -0.5733 -0.0784
 5155TIP3    H237025   0.782   2.021   0.899  1.3264  0.0202  2.3229
 5156TIP3   OH237026   2.178   5.793   8.176  0.0167  0.4667 -0.0062
 5156TIP3    H137027   2.150   5.702   8.181 -0.2867  0.4983 -1.0179
 5156TIP3    H237028   2.271   5.791   8.200 -0.5845  0.2829  2.6957
 5157TIP3   OH237029   1.952   4.346   2.142  0.8117 -0.1601 -0.1717
 5157TIP3    H137030   1.915   4.317   2.226  1.8778  1.1162  0.7955
 5157TIP3    H237031   1.988   4.267   2.103  1.0048 -0.6668  0.9721
 5158TIP3   OH237032   1.555   5.279   1.498  0.1446 -0.0474  0.5471
 5158TIP3    H137033   1.472   5.256   1.540  0.1921  0.0814  0.7108
 5158TIP3    H237034   1.587   5.196   1.461 -0.7845  0.1642 -0.8075
 5159TIP3   OH237035   4.423   1.930   2.400  0.0625 -0.0435  0.2299
 5159TIP3    H137036   4.351   1.883   2.442 -0.0967 -0.5098 -0.5416
 5159TIP3    H237037   4.461   1.867   2.338 -0.0423  0.7662 -0.6949
 5160TIP3   OH237038   0.057   2.949   1.855  0.1844 -0.1973  0.1844
 5160TIP3    H137039  -0.017   2.992   1.811 -1.1226 -1.5717  0.9360
 5160TIP3    H237040   0.099   3.019   1.904 -2.0197  0.2554  1.5771
 5161TIP3   OH237041   3.152   1.928   0.715  0.7051 -0.2918 -0.0203
 5161TIP3    H137042   3.086   1.859   0.719  1.0401 -0.5601  1.1336
 5161TIP3    H237043   3.133   1.975   0.634  0.3650 -1.6331 -0.7431
 5162TIP3   OH237044   4.471   2.619   1.104  0.0187 -0.4759 -0.0480
 5162TIP3    H137045   4.562   2.648   1.110 -0.0749  0.1396 -1.2064
 5162TIP3    H237046   4.421   2.688   1.148 -0.1701  1.0556 -2.4904
 5163TIP3   OH237047   0.742   3.267   1.194  0.0316  0.2004 -0.4517
 5163TIP3    H137048   0.785   3.181   1.184  1.0962  0.5096  1.0442
 5163TIP3    H237049   0.654   3.246   1.225  0.0040 -0.3813 -0.9124
 5164TIP3   OH237050   0.331   6.348   7.279 -0.2131 -0.1621  0.4249
 5164TIP3    H137051   0.322   6.428   7.332  0.6344 -0.2353  0.7049
 5164TIP3    H237052   0.243   6.312   7.274 -0.7142  1.0559 -0.1344
 5165TIP3   OH237053   4.584   4.962   2.225  0.2309  0.4156  0.2096
 5165TIP3    H137054   4.581   5.054   2.252 -0.3427  0.2175  0.8602
 5165TIP3    H237055   4.492   4.935   2.226 -0.0642  0.8396 -3.6168
 5166TIP3   OH237056   5.586   3.675   2.955 -0.5210 -0.2811 -0.2211
 5166TIP3    H137057   5.551   3.725   2.881  1.9248  3.1207  0.6669
 5166TIP3    H237058   5.528   3.697   3.028  1.2736  2.6447  0.4813
 5167TIP3   OH237059   2.855   2.460   8.064  0.1571  0.3790  0.2504
 5167TIP3    H137060   2.787   2.484   8.127 -0.4729 -1.2461  0.2463
 5167TIP3    H237061   2.930   2.434   8.118 -0.4835 -1.3082  0.4106
 5168TIP3   OH237062   0.266   3.278   3.213  0.1912  0.1652  0.7344
 5168TIP3    H137063   0.312   3.224   3.148 -0.1630  0.4109  0.2769
 5168TIP3    H237064   0.322   3.354   3.225 -0.3625  0.7446 -0.2543
 5169TIP3   OH237065   1.723   2.311   1.592 -0.0065 -0.5875 -0.4311
 5169TIP3    H137066   1.800   2.333   1.539  1.7707 -0.7759  1.9088
 5169TIP3    H237067   1.708   2.389   1.645 -1.3775 -0.6130 -0.7571
 5170TIP3   OH237068   6.615   3.125   8.408  0.1169 -0.3214 -0.1333
 5170TIP3    H137069   6.543   3.069   8.437  0.1529 -0.0334  0.5474
 5170TIP3    H237070   6.694   3.078   8.435  0.1342  0.7299  1.8385
 5171TIP3   OH237071   1.913   3.144   7.664  0.2570 -0.6645 -0.1793
 5171TIP3    H137072   1.900   3.060   7.708 -0.1388 -0.5783 -0.1302
 5171TIP3    H237073   1.872   3.208   7.721  0.2189 -0.4831 -0.4065
 5172TIP3   OH237074   6.670   0.653   8.533 -0.2038  0.4377 -0.2153
 5172TIP3    H137075   6.588   0.643   8.580 -0.1336  0.4225 -0.0956
 5172TIP3    H237076   6.738   0.647   8.601  0.0260 -1.7011 -0.5540
 5173TIP3   OH237077   1.991   3.391   8.221 -0.0700  0.2305 -0.4456
 5173TIP3    H137078   1.991   3.452   8.295  2.9155  0.8990 -0.8531
 5173TIP3    H237079   2.030   3.311   8.256  1.6080  0.6371 -1.2789
 5174TIP3   OH237080   6.532   2.925   0.706  0.1810  0.7422 -0.5330
 5174TIP3    H137081   6.572   2.881   0.780  0.2388  0.2800 -0.8318
 5174TIP3    H237082   6.546   2.865   0.632 -2.1744 -0.0773 -0.4140
 5175TIP3   OH237083   3.296   2.378   2.738 -0.2033 -0.4659  0.0312
 5175TIP3    H137084   3.284   2.284   2.753 -2.4971 -0.1263  0.6740
 5175TIP3    H237085   3.370   2.402   2.793 -0.5148 -1.6371  1.0083
 5176TIP3   OH237086   3.185   1.971   1.817  0.6617  0.4121  0.4945
 5176TIP3    H137087   3.129   1.972   1.740 -0.1523  0.0437  1.0750
 5176TIP3    H237088   3.268   2.009   1.786  0.4509  0.0061 -0.6250
 5177TIP3   OH237089   1.069   0.201   7.300 -0.3286 -0.1427  0.0533
 5177TIP3    H137090   1.038   0.291   7.307  0.9588  0.2213  2.2227
 5177TIP3    H237091   1.013   0.152   7.360  0.4717 -0.2932  0.6962
 5178TIP3   OH237092   2.829   6.639   2.755  0.5432  0.8247  0.0729
 5178TIP3    H137093   2.912   6.596   2.775 -0.1902 -0.1887  1.0697
 5178TIP3    H237094   2.795   6.667   2.840 -0.9231 -0.3198 -0.0925
 5179TIP3   OH237095   4.330   5.083   0.566  0.2486  0.0315 -0.0869
 5179TIP3    H137096   4.381   5.156   0.530 -1.6977  0.1497 -2.9801
 5179TIP3    H237097   4.394   5.012   0.575  1.8426  1.5289  1.1922
 5180TIP3   OH237098   0.788   5.200   7.052 -0.2194  0.1237 -0.0827
 5180TIP3    H137099   0.835   5.251   6.986 -2.6488  1.0296 -1.2539
 5180TIP3    H237100   0.805   5.245   7.134  1.8261 -0.2779 -0.2219
 5181TIP3   OH237101   3.151   5.475   2.967 -0.0164  0.1989  0.0381
 5181TIP3    H137102   3.098   5.554   2.973 -0.2697 -0.0310  1.1859
 5181TIP3    H237103   3.237   5.501   3.001 -0.1727 -0.0599  0.6575
 5182TIP3   OH237104   0.347   2.942   8.279  0.3066  0.1433 -0.0357
 5182TIP3    H137105   0.405   2.945   8.355  1.3617  1.4712 -0.8431
 5182TIP3    H237106   0.262   2.914   8.314  1.1959 -0.9485  1.3221
 5183TIP3   OH237107   2.995   6.532   8.343 -0.3640 -0.2856  0.1173
 5183TIP3    H137108   3.036   6.543   8.257 -0.6865 -0.2785 -0.0361
 5183TIP3    H237109   3.056   6.574   8.404  0.5100 -1.4375  0.0580
 5184TIP3   OH237110   5.620   4.583   7.536  0.5712 -0.1503 -0.5521
 5184TIP3    H137111   5.631   4.655   7.599  1.7967 -0.6593 -0.1429
 5184TIP3    H237112   5.699   4.529   7.548 -0.1424 -1.3533 -1.1266
 5185TIP3   OH237113   3.846   4.609   2.795  0.1873  0.3506 -0.6877
 5185TIP3    H137114   3.886   4.581   2.878 -0.5994 -2.0755 -1.0594
 5185TIP3    H237115   3.770   4.661   2.822  1.4433  1.9415  0.0247
 5186TIP3   OH237116   3.344   3.538   0.731  0.5397  0.1295 -0.3049
 5186TIP3    H137117   3.358   3.629   0.703  0.1048  1.0888  2.2710
 5186TIP3    H237118   3.402   3.527   0.807 -2.3401 -0.2753  2.0484
 5187TIP3   OH237119   0.691   4.976   1.954 -0.1320 -0.1259  0.2094
 5187TIP3    H137120   0.724   5.038   2.019 -0.5380 -0.4320  0.7028
 5187TIP3    H237121   0.626   4.924   2.000 -0.0956 -0.6470 -0.3167
 5188TIP3   OH237122   0.676   5.400   1.390 -0.1541 -0.2109 -0.6216
 5188TIP3    H137123   0.715   5.431   1.471  1.5138 -0.9410 -1.0901
 5188TIP3    H237124   0.669   5.305   1.401 -0.2436 -0.2782 -1.2024
 5189TIP3   OH237125   6.769   4.170   7.930  0.3346 -0.6328 -0.0386
 5189TIP3    H137126   6.676   4.186   7.916  0.1018 -2.6079 -1.2405
 5189TIP3    H237127   6.804   4.154   7.842  1.7765 -0.1490  0.4139
 5190TIP3   OH237128   0.023   3.599   2.287 -0.8111  0.0876 -0.2196
 5190TIP3    H137129   0.105   3.623   2.331 -1.8418  0.2191  1.7461
 5190TIP3    H237130   0.038   3.511   2.255  0.6601  0.7230 -1.3846
 5191TIP3   OH237131   0.646   1.887   1.476  0.2549 -0.2343  1.1547
 5191TIP3    H137132   0.700   1.920   1.404 -1.9317 -1.5470 -1.2717
 5191TIP3    H237133   0.602   1.965   1.510 -2.2131  0.0711 -2.1724
 5192TIP3   OH237134   0.922   5.869   8.684  0.2950  0.9435  0.4438
 5192TIP3    H137135   0.892   5.849   8.595  1.8694 -0.6170  0.2102
 5192TIP3    H237136   0.884   5.800   8.738  0.5472  1.0489  0.7564
 5193TIP3   OH237137   4.152   4.090   0.210 -0.0120 -0.4489 -0.5938
 5193TIP3    H137138   4.142   3.995   0.215 -1.3523 -0.3712 -1.3659
 5193TIP3    H237139   4.113   4.123   0.290 -0.9755 -0.4695 -1.0475
 5194TIP3   OH237140   5.720   2.082   0.612  0.0846 -0.3979 -0.2262
 5194TIP3    H137141   5.807   2.110   0.582  0.7129 -0.6013  1.3563
 5194TIP3    H237142   5.706   1.997   0.570  1.1356 -0.8853  0.3870
 5195TIP3   OH237143   5.136   6.065   7.444 -0.1936  0.1090 -0.0916
 5195TIP3    H137144   5.161   5.974   7.462  1.1952  0.0999 -1.7730
 5195TIP3    H237145   5.219   6.109   7.425 -0.8000  1.8572  1.1042
 5196TIP3   OH237146   1.077   2.662   0.148 -0.6160 -0.1636 -0.0162
 5196TIP3    H137147   0.986   2.663   0.175 -0.7624 -1.5545 -0.3996
 5196TIP3    H237148   1.126   2.689   0.226 -1.2866 -0.4056  0.4922
 5197TIP3   OH237149   2.192   4.537   1.536 -0.3080  0.3446 -0.3314
 5197TIP3    H137150   2.239   4.618   1.516  2.3808 -0.7840  0.8858
 5197TIP3    H237151   2.213   4.520   1.628 -0.8650 -1.6792 -0.5396
 5198TIP3   OH237152   1.843   6.108   8.382 -0.5366  0.0243  0.2758
 5198TIP3    H137153   1.894   6.148   8.452  2.2343 -2.5699 -0.0728
 5198TIP3    H237154   1.865   6.160   8.304  2.9617 -1.8241 -0.1641
 5199TIP3   OH237155   4.291   4.160   1.540 -0.2526  0.3858  0.5940
 5199TIP3    H137156   4.343   4.170   1.619  0.0106 -0.0013  0.4754
 5199TIP3    H237157   4.281   4.065   1.530  0.8209  0.3608 -0.5359
 5200TIP3   OH237158   3.342   5.877   7.763  0.2726  0.0615 -0.3334
 5200TIP3    H137159   3.376   5.844   7.846  0.4252 -0.9134 -0.7706
 5200TIP3    H237160   3.288   5.806   7.729 -1.1636  1.0819 -0.2876
 5201TIP3   OH237161   3.466   3.690   3.004  0.3035  0.3824 -0.0026
 5201TIP3    H137162   3.392   3.631   2.990  1.2696 -0.9678  0.3382
 5201TIP3    H237163   3.443   3.739   3.083 -0.1669 -0.1094  0.1711
 5202TIP3   OH237164   2.032   2.559   0.258 -0.3568 -0.3487  1.2475
 5202TIP3    H137165   2.013   2.479   0.307 -1.8576 -0.1953  0.9456
 5202TIP3    H237166   2.045   2.529   0.168 -2.1387 -0.1524  0.8953
 5203TIP3   OH237167   0.515   2.031   0.082  0.2931 -0.2572  0.5375
 5203TIP3    H137168   0.554   1.954   0.124 -0.0862 -1.8218 -1.7534
 5203TIP3    H237169   0.430   1.999   0.050  0.4878  0.8475 -1.1937
 5204TIP3   OH237170   1.121   5.434   2.567  0.5710  0.2779 -0.6772
 5204TIP3    H137171   1.118   5.528   2.547  0.2729  0.2136 -0.9429
 5204TIP3    H237172   1.211   5.408   2.544  0.3889  0.3131 -1.4874
 5205TIP3   OH237173   4.480   3.252   7.406 -0.3301  0.8206  0.4230
 5205TIP3    H137174   4.420   3.177   7.418  1.3665 -0.5873  0.4921
 5205TIP3    H237175   4.428   3.315   7.357 -1.1129 -1.3970 -1.8337
 5206TIP3   OH237176   2.376   0.322   2.132 -0.2557 -0.6351  0.1434
 5206TIP3    H137177   2.339   0.235   2.119  1.6312 -1.5604  0.4932
 5206TIP3    H237178   2.471   0.308   2.129  0.1084  1.5934 -0.8473
 5207TIP3   OH237179   5.188   5.365   8.198 -0.1589  0.1631 -0.1508
 5207TIP3    H137180   5.140   5.416   8.134 -0.3964 -0.7455 -0.7204
 5207TIP3    H237181   5.279   5.393   8.188 -0.7603  4.6424  3.4450
 5208TIP3   OH237182   4.821   2.605   2.365 -0.2970 -0.4923 -0.3131
 5208TIP3    H137183   4.902   2.589   2.318  0.2369  0.4097  0.2753
 5208TIP3    H237184   4.820   2.537   2.434 -1.0101 -1.7176 -1.4811
 5209TIP3   OH237185   3.647   4.906   2.222 -0.4031  0.0691  0.5753
 5209TIP3    H137186   3.685   4.990   2.196 -0.0636 -0.1720  0.2784
 5209TIP3    H237187   3.621   4.918   2.313  0.3097  0.2710  0.7589
 5210TIP3   OH237188   0.645   6.138   0.098  0.7408 -0.2170  0.0068
 5210TIP3    H137189   0.716   6.114   0.039  0.6550 -0.2019 -0.1032
 5210TIP3    H237190   0.640   6.234   0.092 -0.0989 -0.3009 -0.9344
 5211TIP3   OH237191   2.713   3.101   0.380  0.2426 -0.0857 -0.2723
 5211TIP3    H137192   2.704   3.021   0.329  0.7027 -0.9854  0.9857
 5211TIP3    H237193   2.806   3.123   0.375  0.2600 -0.0833  0.0084
 5212TIP3   OH237194   4.037   0.097   2.320 -0.1912 -0.1863  0.4213
 5212TIP3    H137195   4.039   0.001   2.312  0.1454 -0.1626  0.2071
 5212TIP3    H237196   3.998   0.127   2.238 -0.8723 -0.1711  0.7499
 5213TIP3   OH237197   6.026   2.838   1.469 -0.0998 -0.0621 -0.0008
 5213TIP3    H137198   5.999   2.817   1.380  1.5494 -1.8357 -0.1467
 5213TIP3    H237199   5.984   2.772   1.523 -0.2554  0.3721  0.4189
 5214TIP3   OH237200   2.439   3.455   0.794 -0.3576  0.4554  0.4583
 5214TIP3    H137201   2.483   3.375   0.764  0.7444  0.6272  1.5077
 5214TIP3    H237202   2.469   3.523   0.734 -0.8785  0.1951 -0.1116
 5215TIP3   OH237203   5.142   5.050   1.257  0.1788 -0.6254  0.3807
 5215TIP3    H137204   5.100   5.061   1.172  0.0719 -0.5272  0.4468
 5215TIP3    H237205   5.076   5.078   1.320  0.9221  1.1315  0.4189
 5216TIP3   OH237206   4.059   1.991   2.193 -0.3841 -0.4211  0.0927
 5216TIP3    H137207   4.013   2.071   2.218 -0.4210  0.2526 -1.9910
 5216TIP3    H237208   4.087   2.006   2.103  1.5311 -1.9097  0.3747
 5217TIP3   OH237209   1.772   5.579   1.114 -0.1635 -0.3723  0.3018
 5217TIP3    H137210   1.704   5.580   1.047 -0.7368  0.6472  0.8663
 5217TIP3    H237211   1.764   5.494   1.157 -1.8003  0.1044  1.0417
 5218TIP3   OH237212   1.517   5.999   8.159 -0.3495 -0.7841 -0.1213
 5218TIP3    H137213   1.463   6.045   8.223 -0.0380 -2.0186  1.0836
 5218TIP3    H237214   1.509   6.051   8.078  1.2281  2.2239  1.5010
 5219TIP3   OH237215   5.805   2.240   1.620  0.2113  0.5618  0.1910
 5219TIP3    H137216   5.746   2.231   1.695 -1.5318  1.5604 -0.9779
 5219TIP3    H237217   5.826   2.151   1.595 -1.8461  0.1048 -0.0891
 5220TIP3   OH237218   2.625   1.633   0.309 -0.7523 -0.9730 -0.3177
 5220TIP3    H137219   2.544   1.645   0.358  1.1316  2.9633  2.3544
 5220TIP3    H237220   2.686   1.593   0.371  0.0291 -1.7103 -1.5115
 5221TIP3   OH237221   5.103   4.122   1.843  0.5480  0.0939 -0.2644
 5221TIP3    H137222   5.140   4.051   1.791 -0.5727 -1.1911  0.6031
 5221TIP3    H237223   5.008   4.108   1.839  0.4022  0.1706  1.7522
 5222TIP3   OH237224   6.690   2.449   1.946  0.2120 -0.2513 -0.3272
 5222TIP3    H137225   6.642   2.464   2.027  1.4005 -1.0184  0.5555
 5222TIP3    H237226   6.676   2.356   1.927  0.8712 -0.3589 -0.3421
 5223TIP3   OH237227   2.905   5.117   7.892  0.5379 -0.7914  0.4272
 5223TIP3    H137228   2.872   5.157   7.811  0.1747 -0.7868  0.5785
 5223TIP3    H237229   2.955   5.041   7.862 -0.8765 -1.6967  0.2682
 5224TIP3   OH237230   5.818   6.636   2.899  0.0587  0.0163  0.1752
 5224TIP3    H137231   5.740   6.598   2.940  0.8385 -0.9414  0.8055
 5224TIP3    H237232   5.871   6.667   2.972  0.1424  0.9440 -0.2670
 5225TIP3   OH237233   6.105   5.317   8.586 -0.4270 -0.4983  0.2597
 5225TIP3    H137234   6.136   5.383   8.648  0.7559  0.3279 -1.1355
 5225TIP3    H237235   6.074   5.245   8.640 -0.4610  0.6369  1.8130
 5226TIP3   OH237236   6.472   1.230   7.360 -0.1158  0.1916  0.8789
 5226TIP3    H137237   6.383   1.254   7.384 -0.0703  0.2201  1.0197
 5226TIP3    H237238   6.461   1.171   7.284 -0.3682 -1.3458  2.0489
 5227TIP3   OH237239   4.574   4.660   2.398  0.2760 -0.1193  0.4640
 5227TIP3    H137240   4.483   4.630   2.395  0.2034  0.0349  0.9721
 5227TIP3    H237241   4.572   4.736   2.457  0.4395  0.9658 -0.8840
 5228TIP3   OH237242   2.051   6.604   7.878  0.1114  0.1617 -0.0786
 5228TIP3    H137243   2.105   6.561   7.813  0.7939  0.7009  0.1275
 5228TIP3    H237244   1.965   6.563   7.868  0.0366  0.6448 -1.7087
 5229TIP3   OH237245   3.382   3.416   0.452  0.4361  0.2715  0.0739
 5229TIP3    H137246   3.476   3.415   0.435  0.8272 -2.0626  1.9015
 5229TIP3    H237247   3.375   3.431   0.547 -1.1574  2.0876 -0.2512
 5230TIP3   OH237248   0.413   3.850   1.556  0.1531 -0.4697 -0.5740
 5230TIP3    H137249   0.333   3.873   1.603  0.7230 -0.7749  0.5900
 5230TIP3    H237250   0.391   3.769   1.509 -0.1186 -0.7581  0.0385
 5231TIP3   OH237251   5.686   0.363   2.582 -0.8597 -0.0971 -0.1879
 5231TIP3    H137252   5.715   0.404   2.501 -2.4274  2.7940  0.5658
 5231TIP3    H237253   5.643   0.282   2.554  0.5338 -0.2759 -1.9894
 5232TIP3   OH237254   5.452   3.337   2.418  0.1970 -0.0176 -0.1478
 5232TIP3    H137255   5.428   3.275   2.487  1.1892  0.7835  0.9764
 5232TIP3    H237256   5.547   3.334   2.415  0.1663 -0.4545 -1.9368
 5233TIP3   OH237257   0.552   4.294   0.740  0.5248 -0.0786 -0.1016
 5233TIP3    H137258   0.516   4.274   0.653 -0.2207  1.5872 -0.2126
 5233TIP3    H237259   0.486   4.349   0.781  0.2775 -1.8327  2.0603
 5234TIP3   OH237260   4.276   5.527   2.446  0.0433  0.4842  0.1974
 5234TIP3    H137261   4.235   5.549   2.530 -1.1581 -1.6736  0.2611
 5234TIP3    H237262   4.292   5.612   2.404  0.4826  1.6257  2.4695
 5235TIP3   OH237263   0.153   4.110   3.133  0.0326  0.0558 -0.4387
 5235TIP3    H137264   0.064   4.136   3.109 -0.2488 -0.1179  0.3893
 5235TIP3    H237265   0.201   4.111   3.050 -0.5597  0.8411 -0.7904
 5236TIP3   OH237266   0.151   2.635   1.091  0.3372  0.4758 -0.4090
 5236TIP3    H137267   0.089   2.562   1.085  1.3489 -0.3092 -2.0143
 5236TIP3    H237268   0.096   2.713   1.095 -0.8029 -0.1784 -2.1207
 5237TIP3   OH237269   5.121   6.473   1.053  0.2215  0.1813 -0.2901
 5237TIP3    H137270   5.074   6.505   1.130  0.0594 -0.6420 -0.0464
 5237TIP3    H237271   5.068   6.502   0.979 -0.3954 -0.2936 -0.0344
 5238TIP3   OH237272   6.721   4.880   0.854  0.0774 -0.5454 -0.7508
 5238TIP3    H137273   6.736   4.968   0.889 -0.3854 -0.6959 -0.1436
 5238TIP3    H237274   6.725   4.890   0.759 -0.0232  0.1409 -0.6855
 5239TIP3   OH237275   3.983   0.094   1.190 -0.2899  0.2415  0.0081
 5239TIP3    H137276   4.017   0.110   1.102  0.6584 -1.6791 -0.0388
 5239TIP3    H237277   3.906   0.150   1.197 -1.6352 -1.0582 -2.8351
 5240TIP3   OH237278   2.097   4.296   1.919  0.2809  0.3238 -0.1211
 5240TIP3    H137279   2.095   4.391   1.928  0.5794  0.3436 -0.2405
 5240TIP3    H237280   2.051   4.279   1.837 -2.0377  0.1713  1.1552
 5241TIP3   OH237281   3.342   6.358   2.737  0.2890 -0.3807 -0.1468
 5241TIP3    H137282   3.434   6.331   2.735  0.4654  0.1235  0.7786
 5241TIP3    H237283   3.322   6.370   2.829 -0.7016 -0.4380 -0.3404
 5242TIP3   OH237284   2.862   2.945   1.498 -0.1662  0.4130  0.3020
 5242TIP3    H137285   2.879   2.989   1.414  0.4876 -1.3643 -0.5516
 5242TIP3    H237286   2.935   2.973   1.554  1.3430 -1.0224 -0.8494
 5243TIP3   OH237287   2.210   3.773   0.998 -0.1574 -0.4278 -0.0023
 5243TIP3    H137288   2.246   3.709   1.060  0.0071 -0.6800 -0.3495
 5243TIP3    H237289   2.236   3.858   1.033  0.7830 -0.6063 -0.2443
 5244TIP3   OH237290   1.218   6.567   0.310  0.3828 -0.0904 -0.4436
 5244TIP3    H137291   1.142   6.560   0.367  1.3518 -1.8095  0.6864
 5244TIP3    H237292   1.181   6.576   0.222 -1.1027  0.1190  0.1795
 5245TIP3   OH237293   0.848   4.402   0.813 -0.3001 -0.8906 -0.5037
 5245TIP3    H137294   0.770   4.416   0.758 -1.7402 -0.4751  1.5380
 5245TIP3    H237295   0.822   4.331   0.873  1.5177 -1.8950 -0.8321
 5246TIP3   OH237296   6.401   2.044   8.408 -0.4935  0.0811 -0.6116
 5246TIP3    H137297   6.346   2.081   8.339  0.4703  1.4516 -0.6674
 5246TIP3    H237298   6.480   2.015   8.363  0.2555  1.2291 -0.0784
 5247TIP3   OH237299   3.124   6.269   6.939  0.3344  0.0278  0.9137
 5247TIP3    H137300   3.196   6.306   6.991 -0.3246  0.0023  1.8619
 5247TIP3    H237301   3.045   6.295   6.986 -0.5367  2.6798 -1.6696
 5248TIP3   OH237302   5.649   3.547   1.342  0.4124 -0.2220 -0.7624
 5248TIP3    H137303   5.610   3.480   1.398 -0.9714  1.5916  0.5674
 5248TIP3    H237304   5.575   3.589   1.298  1.1709  0.8245 -1.1015
 5249TIP3   OH237305   4.330   2.780   0.122 -0.9750 -0.6316  0.4312
 5249TIP3    H137306   4.383   2.800   0.045 -1.6877 -1.9903 -0.4385
 5249TIP3    H237307   4.389   2.795   0.196 -0.2350  0.5571 -0.3628
 5250TIP3   OH237308   6.501   5.736   0.987 -0.8929  0.6299 -0.4226
 5250TIP3    H137309   6.595   5.757   0.985 -0.6097 -0.5529 -0.8078
 5250TIP3    H237310   6.469   5.759   0.900 -0.5436 -0.6207 -0.9068
 5251TIP3   OH237311   2.396   6.277   2.514 -0.1305 -0.0295 -0.2449
 5251TIP3    H137312   2.461   6.212   2.490 -0.0394  0.2811 -0.8465
 5251TIP3    H237313   2.428   6.358   2.475 -0.7596  0.1741 -0.3371
 5252TIP3   OH237314   2.753   3.151   1.789 -0.1347 -0.8952 -0.2871
 5252TIP3    H137315   2.841   3.140   1.752 -0.1681 -0.0795 -0.6444
 5252TIP3    H237316   2.735   3.245   1.779 -0.6754 -0.8907  0.6345
 5253TIP3   OH237317   5.305   2.404   0.528 -0.7331  0.4041 -0.4215
 5253TIP3    H137318   5.270   2.434   0.444 -1.3311  0.3774 -0.1904
 5253TIP3    H237319   5.290   2.478   0.588  2.2450  1.5711 -0.9402
 5254TIP3   OH237320   0.696   2.572   7.870  0.1423  0.1188  0.1705
 5254TIP3    H137321   0.620   2.565   7.812  0.4781 -0.6809 -0.1945
 5254TIP3    H237322   0.758   2.627   7.822 -0.8065  2.2127  1.1742
 5255TIP3   OH237323   5.576   1.460   0.768  0.1446 -0.1949  0.4089
 5255TIP3    H137324   5.655   1.478   0.820  0.5130 -0.6415  0.0169
 5255TIP3    H237325   5.560   1.540   0.719  0.9183 -0.4167 -0.2285
 5256TIP3   OH237326   3.540   0.417   2.743 -0.1409 -0.3064 -0.6379
 5256TIP3    H137327   3.622   0.398   2.789  0.9196  2.6992 -1.0711
 5256TIP3    H237328   3.552   0.381   2.656  0.9715  0.4876 -0.8368
 5257TIP3   OH237329   4.407   5.732   8.400 -0.2242  0.0567  0.0277
 5257TIP3    H137330   4.486   5.769   8.360 -0.5809  2.1523  1.1136
 5257TIP3    H237331   4.426   5.639   8.410  1.7724  0.3618 -0.5022
 5258TIP3   OH237332   2.841   0.008   2.352 -0.0443  0.2234  0.6089
 5258TIP3    H137333   2.791  -0.070   2.375  0.4771 -0.3366 -0.1038
 5258TIP3    H237334   2.930  -0.024   2.338  0.0799  0.8625 -0.1499
 5259TIP3   OH237335   1.034   1.910   1.333 -0.2580 -0.2279 -0.7587
 5259TIP3    H137336   1.058   1.843   1.269  0.6550 -0.8413  0.1900
 5259TIP3    H237337   0.951   1.945   1.301  0.8469  0.5320 -3.0853
 5260TIP3   OH237338   0.079   2.485   3.467 -0.1781 -0.4178  0.5768
 5260TIP3    H137339   0.146   2.430   3.507 -0.6238 -1.3764  0.0213
 5260TIP3    H237340   0.028   2.426   3.412 -2.3928 -0.0210  2.0479
 5261TIP3   OH237341   2.049   3.053   0.779  0.1931  0.3333  0.7917
 5261TIP3    H137342   2.131   3.098   0.756  0.2539 -0.5648 -0.9175
 5261TIP3    H237343   1.992   3.067   0.704 -0.2776 -1.2487  0.8118
 5262TIP3   OH237344   3.362   2.419   0.860  0.2303 -0.0195  0.6126
 5262TIP3    H137345   3.451   2.452   0.872 -0.2966  1.1369  1.5633
 5262TIP3    H237346   3.346   2.427   0.766  1.7444 -1.9786  0.1163
 5263TIP3   OH237347   4.554   3.265   8.380  0.4731 -0.4775  0.0653
 5263TIP3    H137348   4.502   3.226   8.310 -0.7289  1.1074  0.0154
 5263TIP3    H237349   4.490   3.307   8.438  1.5999  0.2570  0.8349
 5264TIP3   OH237350   5.381   0.312   0.907  0.3192 -0.2010  0.2964
 5264TIP3    H137351   5.397   0.355   0.823 -1.7142 -0.7328 -0.4170
 5264TIP3    H237352   5.443   0.353   0.967  1.4896  0.5334 -1.3424
 5265TIP3   OH237353   6.460   3.470   0.356 -0.4274 -0.3367 -0.2372
 5265TIP3    H137354   6.430   3.477   0.265  1.0316 -0.2238 -0.7388
 5265TIP3    H237355   6.524   3.399   0.354 -0.7089 -0.6338  0.8064
 5266TIP3   OH237356   2.651   0.385   0.884  0.1748  0.4572 -0.0701
 5266TIP3    H137357   2.742   0.406   0.866 -0.1236  0.8290 -1.2007
 5266TIP3    H237358   2.637   0.300   0.842  0.4261 -0.4115  1.5146
 5267TIP3   OH237359   6.069   6.425   7.196  0.1672  0.0902 -0.1381
 5267TIP3    H137360   6.135   6.412   7.265 -0.5295 -1.6474  0.2609
 5267TIP3    H237361   5.994   6.372   7.225  0.1304 -1.3148 -2.6023
 5268TIP3   OH237362   1.834   4.795   1.693  0.2319  0.1816  0.5272
 5268TIP3    H137363   1.815   4.701   1.688 -3.6126  0.8719 -1.0138
 5268TIP3    H237364   1.780   4.828   1.764  0.6503  1.4045  0.3102
 5269TIP3   OH237365   3.582   4.651   8.138 -0.6328  0.3779  0.2796
 5269TIP3    H137366   3.493   4.684   8.128 -0.2094  1.3031 -0.6985
 5269TIP3    H237367   3.613   4.638   8.048  0.3621  0.4964  0.5937
 5270TIP3   OH237368   3.194   3.961   2.182  0.1493 -0.0024  0.2037
 5270TIP3    H137369   3.202   3.876   2.138 -0.3452  0.9135 -1.8183
 5270TIP3    H237370   3.264   3.961   2.247  0.7364 -1.5977 -0.3635
 5271TIP3   OH237371   6.759   0.606   0.839  0.3060 -0.0773 -0.4491
 5271TIP3    H137372   6.743   0.689   0.796 -0.4408  1.1276  1.9671
 5271TIP3    H237373   6.672   0.567   0.850  0.4886 -0.4155 -0.1478
 5272TIP3   OH237374   4.093   0.123   8.536 -0.1597  0.2898  0.5478
 5272TIP3    H137375   4.028   0.168   8.481 -1.7891 -1.6636  0.7554
 5272TIP3    H237376   4.047   0.046   8.569  2.2727 -1.1631  0.7895
 5273TIP3   OH237377   0.430   3.498   8.333  0.0958 -0.5607  0.2065
 5273TIP3    H137378   0.336   3.481   8.339 -0.4141  2.3872  2.2893
 5273TIP3    H237379   0.437   3.569   8.269  1.1071 -1.6553 -0.9487
 5274TIP3   OH237380   5.446   3.444   8.540  0.0460 -0.5387 -0.4662
 5274TIP3    H137381   5.485   3.440   8.453  1.6694 -0.5999  0.2278
 5274TIP3    H237382   5.451   3.354   8.573  0.5288 -0.2994  0.1298
 5275TIP3   OH237383   5.020   2.287   1.794 -0.1974  0.2748 -0.5502
 5275TIP3    H137384   5.089   2.222   1.807  0.0608  0.3908 -1.3220
 5275TIP3    H237385   4.975   2.291   1.878  0.8969  0.3952  0.0397
 5276TIP3   OH237386   5.386   3.428   1.663 -0.2634  0.7003  0.1468
 5276TIP3    H137387   5.479   3.415   1.643 -0.7627 -2.2230 -0.6138
 5276TIP3    H237388   5.374   3.523   1.655  2.5307  1.1229 -0.1948
 5277TIP3   OH237389   3.043   4.890   8.613  0.5171 -1.0724 -0.0397
 5277TIP3    H137390   3.018   4.804   8.646 -1.0846 -0.4152  0.5545
 5277TIP3    H237391   2.989   4.902   8.534  0.2275 -0.3573  0.2542
 5278TIP3   OH237392   1.946   5.640   8.610  0.2443 -0.3198 -0.6948
 5278TIP3    H137393   1.941   5.679   8.522 -1.6514 -0.9970 -0.9551
 5278TIP3    H237394   1.868   5.672   8.654  0.7714 -0.6231  0.4839
 5279TIP3   OH237395   1.168   6.707   2.869 -0.0673 -0.7046  0.7534
 5279TIP3    H137396   1.248   6.666   2.900  0.2432 -0.5383  0.1853
 5279TIP3    H237397   1.194   6.794   2.842 -0.5444 -0.4629  1.0526
 5280TIP3   OH237398   2.423   3.899   7.770 -0.2484  0.3370  0.4967
 5280TIP3    H137399   2.345   3.907   7.716 -0.2741  0.3432  0.5350
 5280TIP3    H237400   2.482   3.967   7.736 -0.9735  1.6263  1.6927
 5281TIP3   OH237401   6.261   2.678   2.080  0.3096  0.2063  0.2649
 5281TIP3    H137402   6.258   2.704   2.172  0.7399  1.3514 -0.0286
 5281TIP3    H237403   6.171   2.654   2.059  0.0091  0.9007  0.7160
 5282TIP3   OH237404   1.347   6.415   3.138  0.2471 -0.7977 -0.3129
 5282TIP3    H137405   1.373   6.466   3.062 -0.8755 -0.5321 -0.5409
 5282TIP3    H237406   1.367   6.471   3.213 -0.2620 -0.3362 -0.5200
 5283TIP3   OH237407   3.972   5.085   2.979 -0.3267  0.7062 -0.4387
 5283TIP3    H137408   3.983   5.173   2.942  2.3219  0.1805 -1.1159
 5283TIP3    H237409   3.933   5.034   2.909 -0.3852  0.9790 -0.6074
 5284TIP3   OH237410   3.449   4.786   1.220 -0.5377 -0.0193 -0.3226
 5284TIP3    H137411   3.438   4.738   1.303 -0.1826  1.3645  0.5647
 5284TIP3    H237412   3.459   4.718   1.154 -0.3719 -1.1654  0.8372
 5285TIP3   OH237413   6.839   4.904   7.934 -0.4817 -0.7628 -0.0828
 5285TIP3    H137414   6.775   4.936   7.997  0.6953  0.2724  0.6482
 5285TIP3    H237415   6.790   4.846   7.876 -2.3353  0.9052 -0.2773
 5286TIP3   OH237416   6.107   2.143   0.833  0.1378 -0.5888  0.3105
 5286TIP3    H137417   6.133   2.114   0.746  2.3619 -0.0874  0.7682
 5286TIP3    H237418   6.188   2.172   0.874 -0.9537 -0.2919  2.3602
 5287TIP3   OH237419   4.560   6.599   8.402 -0.1137 -0.1031 -0.1468
 5287TIP3    H137420   4.518   6.533   8.458  0.6779 -0.8441 -0.4038
 5287TIP3    H237421   4.635   6.554   8.363  0.2743  0.8669 -0.5704
 5288TIP3   OH237422   6.567   2.433   8.256  0.1758 -0.8633  0.3255
 5288TIP3    H137423   6.566   2.338   8.260  2.5435 -1.1179 -2.4005
 5288TIP3    H237424   6.566   2.454   8.163  0.6176  1.7609  0.8227
 5289TIP3   OH237425   2.846   4.613   1.084 -0.3083 -0.3976  0.2308
 5289TIP3    H137426   2.808   4.700   1.073 -0.0541 -0.3931 -0.7138
 5289TIP3    H237427   2.860   4.604   1.178 -0.3794  0.5616  0.3396
 5290TIP3   OH237428   3.930   5.832   1.220 -0.1804 -0.1406 -0.3188
 5290TIP3    H137429   3.932   5.923   1.191 -1.3712  0.0128  0.0067
 5290TIP3    H237430   4.010   5.794   1.186 -1.4100  0.0516 -3.7945
 5291TIP3   OH237431   1.028   6.395   0.487  0.3218 -0.1694  0.2937
 5291TIP3    H137432   0.982   6.338   0.549  2.6571 -2.4063  0.1307
 5291TIP3    H237433   0.986   6.480   0.498 -2.5027 -1.5669  1.5015
 5292TIP3   OH237434   3.431   0.893   3.115 -0.3846 -0.5782  0.0338
 5292TIP3    H137435   3.444   0.875   3.208  2.3956 -0.3175 -0.2260
 5292TIP3    H237436   3.366   0.963   3.113 -2.3639 -2.2476  1.5919
 5293TIP3   OH237437   1.161   4.853   7.379 -0.0137 -0.1444  0.9410
 5293TIP3    H137438   1.114   4.770   7.378  0.8951 -0.6904  1.4544
 5293TIP3    H237439   1.240   4.835   7.432  0.6185  0.8021  0.3496
 5294TIP3   OH237440   1.115   2.992   1.562 -0.0630  0.3099 -0.2285
 5294TIP3    H137441   1.053   3.057   1.529  0.8444  1.5736  0.4561
 5294TIP3    H237442   1.197   3.040   1.572  0.2807 -0.5545  1.6604
 5295TIP3   OH237443   3.768   5.596   7.081  0.5535  0.6031  0.4664
 5295TIP3    H137444   3.734   5.597   6.992  0.6513  1.9024  0.4184
 5295TIP3    H237445   3.698   5.636   7.133  0.8126  0.5597  0.8504
 5296TIP3   OH237446   2.063   2.552   3.181  0.3155  0.4919 -0.0223
 5296TIP3    H137447   2.102   2.526   3.265 -1.5987  1.5907  1.2863
 5296TIP3    H237448   2.097   2.488   3.118  1.3869 -0.7072  1.6782
 5297TIP3   OH237449   4.640   1.201   2.911  0.7298 -0.0533 -0.0251
 5297TIP3    H137450   4.658   1.140   2.982  0.6610  1.3429  1.2596
 5297TIP3    H237451   4.676   1.160   2.833 -0.7108 -2.4300  0.4640
 5298TIP3   OH237452   0.928   3.867   7.648 -0.4913 -0.4808  0.3793
 5298TIP3    H137453   0.983   3.945   7.654 -1.3072  0.1473  0.0399
 5298TIP3    H237454   0.838   3.902   7.647 -0.8426 -1.3772 -0.5550
 5299TIP3   OH237455   4.053   3.920   0.652 -0.1607  0.4035  0.1914
 5299TIP3    H137456   4.012   3.898   0.568 -1.3758 -1.7297  1.2605
 5299TIP3    H237457   4.093   4.006   0.637 -0.4045  0.1307 -2.5260
 5300TIP3   OH237458   3.403   3.035   2.379 -0.4659 -0.1984 -0.3300
 5300TIP3    H137459   3.338   2.996   2.438 -1.0679  1.0249 -0.1253
 5300TIP3    H237460   3.358   3.113   2.344  0.8557  0.6233 -0.2610
 5301TIP3   OH237461   4.384   5.413   0.339  0.5094 -0.4741 -0.4448
 5301TIP3    H137462   4.472   5.421   0.302  1.5861 -3.0057  1.3130
 5301TIP3    H237463   4.341   5.346   0.285  0.5778 -1.0891  0.2531
 5302TIP3   OH237464   3.816   4.573   0.551  0.2692  0.0261  0.0009
 5302TIP3    H137465   3.889   4.522   0.518 -1.4608 -1.9773 -0.9997
 5302TIP3    H237466   3.744   4.554   0.490 -0.9543  2.3479  0.5867
 5303TIP3   OH237467   6.500   4.395   7.095 -0.2330  0.0785 -0.7671
 5303TIP3    H137468   6.560   4.329   7.059 -0.3379 -0.3819 -0.1190
 5303TIP3    H237469   6.426   4.344   7.128 -2.2204  0.7619 -3.7401
 5304TIP3   OH237470   6.127   0.540   8.600 -0.0973  0.0528  0.3160
 5304TIP3    H137471   6.141   0.445   8.599  1.2673  0.2298  0.5873
 5304TIP3    H237472   6.159   0.568   8.686 -0.7822  0.7301  0.3640
 5305TIP3   OH237473   2.697   0.721   7.617  0.0408  0.3186  0.4115
 5305TIP3    H137474   2.727   0.799   7.570 -0.9068  0.8023  0.5885
 5305TIP3    H237475   2.611   0.702   7.581 -0.0699 -0.1813  0.9241
 5306TIP3   OH237476   2.847   0.294   8.558 -0.1308  0.2429  0.1719
 5306TIP3    H137477   2.877   0.375   8.600  0.6843 -0.4256  0.9276
 5306TIP3    H237478   2.782   0.323   8.494  0.0251  1.4780  0.5377
 5307TIP3   OH237479   1.817   4.510   1.668 -0.7101  0.1061  0.4991
 5307TIP3    H137480   1.816   4.535   1.575 -1.0854  1.0183  0.7338
 5307TIP3    H237481   1.853   4.422   1.669 -0.2162  0.2822 -0.4735
 5308TIP3   OH237482   3.882   3.223   8.282 -0.3818 -0.0861  0.5351
 5308TIP3    H137483   3.954   3.265   8.235 -0.3186  0.1744  0.8641
 5308TIP3    H237484   3.814   3.210   8.216  0.2000 -0.9037  0.0773
 5309TIP3   OH237485   3.599   1.212   3.269  0.1426 -0.4008 -0.3564
 5309TIP3    H137486   3.549   1.293   3.260  2.7741  1.2335 -1.7035
 5309TIP3    H237487   3.554   1.162   3.337 -2.9276  1.1086 -1.1175
 5310TIP3   OH237488   2.926   0.904   2.978  0.3991  0.0718  0.0497
 5310TIP3    H137489   2.953   0.834   2.918  0.5745 -0.2972  0.5559
 5310TIP3    H237490   2.997   0.910   3.042 -1.3461 -2.0051  2.3664
 5311TIP3   OH237491   1.411   1.768   7.501  1.0487 -0.1924 -0.1892
 5311TIP3    H137492   1.442   1.685   7.464 -2.9957 -3.1521  2.2769
 5311TIP3    H237493   1.321   1.775   7.471 -0.1728  0.8232  3.3510
 5312TIP3   OH237494   5.826   3.706   1.472 -0.0139 -0.2075 -0.3069
 5312TIP3    H137495   5.760   3.651   1.429 -0.3948 -0.0598  0.0743
 5312TIP3    H237496   5.873   3.749   1.401 -0.8957  0.3390 -0.5713
 5313TIP3   OH237497   5.045   3.997   0.442 -0.5925  0.4558 -0.7064
 5313TIP3    H137498   4.974   3.976   0.502 -1.6264  2.4665 -1.1568
 5313TIP3    H237499   5.062   4.090   0.455  0.2010  0.6029 -2.4384
 5314TIP3   OH237500   6.085   0.029   0.533  0.3407 -0.1162  0.0440
 5314TIP3    H137501   6.010  -0.022   0.503  0.4181  1.1745 -2.5774
 5314TIP3    H237502   6.048   0.113   0.559  0.9200  0.9499 -2.3721
 5315TIP3   OH237503   4.440   5.985   2.697 -0.0138  0.6463 -0.4598
 5315TIP3    H137504   4.349   5.957   2.708 -0.2463  1.3293 -0.6161
 5315TIP3    H237505   4.460   6.033   2.777  0.3948  0.0145 -0.1772
 5316TIP3   OH237506   5.520   1.770   0.243 -0.4334 -0.7762 -0.1532
 5316TIP3    H137507   5.431   1.747   0.269 -1.3634 -1.5309 -3.5391
 5316TIP3    H237508   5.546   1.701   0.182  1.1719  1.1164 -1.7567
 5317TIP3   OH237509   2.823   3.326   7.940  0.7882 -0.2462  0.1791
 5317TIP3    H137510   2.779   3.276   8.009 -0.1961 -0.0390 -0.2819
 5317TIP3    H237511   2.765   3.318   7.864  0.0128  2.4520  0.3779
 5318TIP3   OH237512   5.333   2.163   1.393 -0.0723 -0.1246  0.3194
 5318TIP3    H137513   5.245   2.141   1.362  0.1832 -0.3161 -0.2780
 5318TIP3    H237514   5.320   2.241   1.448 -0.6779 -0.4451  0.6464
 5319TIP3   OH237515   4.399   3.708   1.320 -1.0348  0.2178 -0.5453
 5319TIP3    H137516   4.358   3.691   1.235  1.5030  0.1127 -1.8251
 5319TIP3    H237517   4.491   3.687   1.307 -0.3076  1.5569  1.8493
 5320TIP3   OH237518   3.329   6.278   7.143  0.4188  0.5551  0.6215
 5320TIP3    H137519   3.400   6.238   7.193 -0.5480  0.1549  1.7313
 5320TIP3    H237520   3.250   6.255   7.191 -0.7381 -0.9905 -1.8179
 5321TIP3   OH237521   0.146   4.433   2.945  0.1934 -0.2224  0.2356
 5321TIP3    H137522   0.223   4.484   2.921  0.5370 -0.9168 -0.1487
 5321TIP3    H237523   0.141   4.364   2.879 -1.2938  0.3486 -0.2962
 5322TIP3   OH237524   2.680   5.881   7.991 -0.2526  0.4771  0.1617
 5322TIP3    H137525   2.758   5.903   8.041 -1.7129  1.1786  2.2827
 5322TIP3    H237526   2.683   5.786   7.982  0.4792  0.4321  0.8158
 5323TIP3   OH237527   1.519   5.765   7.482  0.1378 -0.1955  0.1757
 5323TIP3    H137528   1.440   5.737   7.436  0.9665  0.5186 -1.7804
 5323TIP3    H237529   1.492   5.841   7.534 -0.4972 -0.0977 -0.3012
 5324TIP3   OH237530   3.507   5.845   0.435 -0.1980 -0.2315  0.1024
 5324TIP3    H137531   3.436   5.839   0.371 -0.8598 -1.2260  0.8978
 5324TIP3    H237532   3.472   5.900   0.505  0.2385  0.2160 -0.0249
 5325TIP3   OH237533   5.560   6.527   2.665  0.2099 -0.1208 -0.1048
 5325TIP3    H137534   5.609   6.537   2.747  1.2774 -2.8579 -0.2854
 5325TIP3    H237535   5.625   6.496   2.602 -1.1014 -0.6030 -1.2572
 5326TIP3   OH237536   2.981   2.560   1.731  0.1272  0.2286  0.1826
 5326TIP3    H137537   2.899   2.578   1.685  0.3969  0.8435 -0.0672
 5326TIP3    H237538   3.022   2.490   1.680  0.1539  0.5081 -0.1863
 5327TIP3   OH237539   4.519   5.272   0.541 -0.1875  0.3438  0.1369
 5327TIP3    H137540   4.574   5.236   0.472  1.7221  0.9003  1.2980
 5327TIP3    H237541   4.496   5.360   0.510  0.9075  0.7052  0.3095
 5328TIP3   OH237542   2.097   0.817   1.143 -0.0920  0.1215  0.4509
 5328TIP3    H137543   2.021   0.762   1.161  0.2703 -0.1359  1.2588
 5328TIP3    H237544   2.172   0.758   1.151  0.2323  0.5079  0.3043
 5329TIP3   OH237545   2.911   5.759   7.236 -0.0994 -0.4073 -0.5705
 5329TIP3    H137546   2.948   5.690   7.290 -1.2940 -0.4015  0.2949
 5329TIP3    H237547   2.981   5.782   7.175  1.4368 -0.1140  1.2325
 5330TIP3   OH237548   5.380   5.944   8.357 -0.7018  0.6908  0.1328
 5330TIP3    H137549   5.451   5.883   8.377 -0.2043  1.2644  0.1557
 5330TIP3    H237550   5.319   5.894   8.302 -0.4829  0.0742  0.4435
 5331TIP3   OH237551   5.866   4.020   0.056 -0.7486  0.2069  0.1144
 5331TIP3    H137552   5.843   3.969  -0.022 -0.0358 -1.8053  1.1697
 5331TIP3    H237553   5.959   4.005   0.068 -0.4528  1.9869  0.3631
 5332TIP3   OH237554   4.815   4.542   8.094  0.6452  0.0783  0.6042
 5332TIP3    H137555   4.822   4.515   8.002  1.8255  0.1289  0.6695
 5332TIP3    H237556   4.900   4.521   8.132  0.0863 -0.1510  1.7550
 5333TIP3   OH237557   2.298   1.939   8.235 -0.6342  0.7932  0.6260
 5333TIP3    H137558   2.216   1.890   8.231 -0.4777  0.3797  2.1120
 5333TIP3    H237559   2.323   1.951   8.143 -1.0396 -1.2846  0.2072
 5334TIP3   OH237560   6.092   6.291   1.732  0.6355  0.1819 -0.0385
 5334TIP3    H137561   6.079   6.228   1.803  2.0637  1.0064  0.9916
 5334TIP3    H237562   6.115   6.237   1.656  3.0298 -0.5459  1.1176
 5335TIP3   OH237563   1.415   2.988   1.365 -0.0681  0.3989 -0.0174
 5335TIP3    H137564   1.478   3.002   1.294  0.9852  0.2771  0.8804
 5335TIP3    H237565   1.446   2.911   1.411 -0.0778  1.1440  1.2867
 5336TIP3   OH237566   5.513   1.192   0.729 -0.1205  0.0312 -0.4756
 5336TIP3    H137567   5.531   1.283   0.754 -0.2706 -0.5509  1.9438
 5336TIP3    H237568   5.585   1.142   0.767 -1.5254 -1.1691  0.6976
 5337TIP3   OH237569   1.361   1.191   0.166  0.2246  0.3152 -0.2072
 5337TIP3    H137570   1.300   1.231   0.229 -1.3911  0.2033 -1.6105
 5337TIP3    H237571   1.317   1.111   0.137  0.3826  0.8816 -2.2228
 5338TIP3   OH237572   2.943   0.710   1.864 -0.2080 -0.3492 -0.2350
 5338TIP3    H137573   3.022   0.722   1.917  0.9768 -1.1209 -1.7267
 5338TIP3    H237574   2.942   0.785   1.804  0.3873 -1.1942 -1.3556
 5339TIP3   OH237575   4.264   0.751   1.849 -0.0029 -0.2120 -0.0717
 5339TIP3    H137576   4.283   0.828   1.902  0.1104 -0.9806  1.0387
 5339TIP3    H237577   4.335   0.690   1.868 -0.3400 -0.7803 -0.5649
 5340TIP3   OH237578   4.587   0.606   1.693 -0.6968 -0.0645 -0.3333
 5340TIP3    H137579   4.511   0.554   1.669 -2.2798  1.6797  0.6369
 5340TIP3    H237580   4.560   0.697   1.678  0.8699  0.6598  0.8743
 5341TIP3   OH237581   0.839   4.159   2.542 -0.3286 -0.0988  0.3044
 5341TIP3    H137582   0.856   4.200   2.457  3.0985 -0.4378  0.7107
 5341TIP3    H237583   0.839   4.065   2.524 -1.6079 -0.1351  0.4069
 5342TIP3   OH237584   5.864   4.580   0.803  0.2898  0.4532 -0.1441
 5342TIP3    H137585   5.839   4.637   0.876  0.4032  0.6278 -0.2400
 5342TIP3    H237586   5.917   4.511   0.843  0.1655  0.4254 -0.0289
 5343TIP3   OH237587   5.278   2.919   1.212  0.1918  0.1616 -0.0813
 5343TIP3    H137588   5.266   2.954   1.300 -0.3866 -0.9892  0.3180
 5343TIP3    H237589   5.189   2.900   1.182  0.0210  3.4282 -2.2017
 5344TIP3   OH237590   2.182   6.166   8.679 -0.3610 -0.4078  0.2785
 5344TIP3    H137591   2.164   6.079   8.716 -0.4697 -0.4040  0.2343
 5344TIP3    H237592   2.227   6.148   8.597 -1.3402 -0.4497 -0.2609
 5345TIP3   OH237593   2.795   6.399   7.585  0.4070  0.2160  0.0582
 5345TIP3    H137594   2.780   6.489   7.614  0.2686  0.4674 -0.7797
 5345TIP3    H237595   2.826   6.407   7.495  0.3818 -0.5757 -0.0286
 5346TIP3   OH237596   1.781   3.447   2.815 -0.4611 -0.0949 -0.2150
 5346TIP3    H137597   1.869   3.454   2.779  1.0564 -0.1182  3.1524
 5346TIP3    H237598   1.764   3.353   2.820  0.1071 -0.1591  0.7554
 5347TIP3   OH237599   6.418   0.695   1.241 -0.2229  0.0413  0.2578
 5347TIP3    H137600   6.432   0.730   1.154 -4.5177  0.7655 -0.3531
 5347TIP3    H237601   6.394   0.603   1.227 -1.3437  0.2693  0.5855
 5348TIP3   OH237602   6.858   3.037   8.483  0.5868 -0.1066  0.3867
 5348TIP3    H137603   6.931   2.989   8.523  1.4989  0.7475 -0.1975
 5348TIP3    H237604   6.880   3.039   8.389 -0.3348 -0.0790  0.1592
 5349TIP3   OH237605   0.340   1.388   8.614 -0.0995 -0.1480  0.4727
 5349TIP3    H137606   0.319   1.300   8.581 -2.6598  0.4534  0.2907
 5349TIP3    H237607   0.339   1.378   8.709  0.0833 -0.4169  0.4470
 5350TIP3   OH237608   2.968   1.765   2.350 -0.4819  0.4404 -0.0200
 5350TIP3    H137609   3.006   1.723   2.273 -1.8593 -1.2233  0.1519
 5350TIP3    H237610   2.970   1.697   2.418 -2.0055  0.8995  0.5316
 5351TIP3   OH237611   2.529   3.948   0.461 -0.5234 -0.2885  0.8319
 5351TIP3    H137612   2.446   3.990   0.441 -0.4092 -0.7611 -0.8279
 5351TIP3    H237613   2.579   4.014   0.509 -0.5096  1.3521 -1.3109
 5352TIP3   OH237614   6.646   1.554   1.071 -0.0948  0.0460 -0.2945
 5352TIP3    H137615   6.722   1.611   1.058 -0.8340  1.1023 -0.1474
 5352TIP3    H237616   6.616   1.534   0.982  0.1312 -0.0641 -0.3465
 5353TIP3   OH237617   4.478   2.293   2.596  0.0007  0.3535 -0.0830
 5353TIP3    H137618   4.536   2.221   2.570 -1.4966 -0.0335 -2.7281
 5353TIP3    H237619   4.523   2.372   2.565 -0.4398  0.1224 -1.3753
 5354TIP3   OH237620   2.820   2.825   0.513  0.0557  0.2626 -0.7915
 5354TIP3    H137621   2.751   2.865   0.566  0.9041  1.8146 -0.8145
 5354TIP3    H237622   2.895   2.882   0.523  2.3328 -2.7969  1.4846
 5355TIP3   OH237623   6.434   1.231   0.437 -0.2959  0.2189  0.4090
 5355TIP3    H137624   6.373   1.251   0.508 -1.1780  0.0406 -0.2715
 5355TIP3    H237625   6.412   1.142   0.410 -2.2906  1.3706 -2.2571
 5356TIP3   OH237626   1.654   1.131   1.129 -0.4656  0.1740  0.2866
 5356TIP3    H137627   1.694   1.047   1.151  1.9169  1.2484  0.3261
 5356TIP3    H237628   1.609   1.114   1.046  0.2195 -1.0701  0.1428
 5357TIP3   OH237629   5.547   3.890   0.667 -0.4030 -0.3650  0.0957
 5357TIP3    H137630   5.546   3.921   0.757 -1.7136  0.6257 -0.2113
 5357TIP3    H237631   5.565   3.968   0.615 -1.5572 -0.5176 -0.5816
 5358TIP3   OH237632   1.817   1.791   1.717 -0.2704  0.5775 -0.3548
 5358TIP3    H137633   1.866   1.861   1.760  0.9718 -0.7875  0.5130
 5358TIP3    H237634   1.743   1.774   1.776 -1.6178  2.2905 -1.4219
 5359TIP3   OH237635   3.697   0.430   2.200 -0.3177 -0.0701  0.2508
 5359TIP3    H137636   3.644   0.390   2.131 -1.6722  1.7844  0.1527
 5359TIP3    H237637   3.657   0.400   2.282 -0.9877  0.5967  0.1798
 5360TIP3   OH237638   5.410   0.422   2.433 -0.5739  0.2873 -0.2026
 5360TIP3    H137639   5.453   0.453   2.513  1.6346  0.6972 -1.4539
 5360TIP3    H237640   5.389   0.331   2.452  1.6004 -0.1739  0.2619
 5361TIP3   OH237641   2.015   6.018   2.636  0.5063 -0.0812  0.2352
 5361TIP3    H137642   1.990   6.012   2.544  1.7645  1.0445 -0.2044
 5361TIP3    H237643   1.995   5.931   2.672 -1.0863 -0.1828 -0.7931
 5362TIP3   OH237644   5.503   4.752   2.472  0.1009 -0.1562 -0.3014
 5362TIP3    H137645   5.444   4.796   2.411  0.8981  0.3926 -0.7061
 5362TIP3    H237646   5.486   4.793   2.556  1.5683  1.7585 -0.8608
 5363TIP3   OH237647   6.614   2.160   8.218 -0.1815  0.6131 -0.1535
 5363TIP3    H137648   6.694   2.113   8.197 -0.7841 -0.6264  0.2049
 5363TIP3    H237649   6.549   2.126   8.156 -1.2388 -0.8735  1.6628
 5364TIP3   OH237650   3.749   3.447   1.991  0.8889 -0.2305  0.0206
 5364TIP3    H137651   3.662   3.411   2.008  1.2388 -0.5062  1.2868
 5364TIP3    H237652   3.798   3.375   1.953  0.4401  0.0629 -1.1618
 5365TIP3   OH237653   2.363   2.778   7.628 -0.0155  0.7504 -0.0307
 5365TIP3    H137654   2.281   2.812   7.594  0.2215  1.6094  0.2382
 5365TIP3    H237655   2.421   2.773   7.551 -0.5763 -0.7087 -0.3898
 5366TIP3   OH237656   0.728   2.234   1.815  0.8965  0.5289  0.1822
 5366TIP3    H137657   0.702   2.303   1.877 -1.4620  0.8432 -1.0409
 5366TIP3    H237658   0.716   2.273   1.729  0.7432 -1.0042 -0.5235
 5367TIP3   OH237659   4.231   1.417   7.653  0.8224  0.6038 -0.1000
 5367TIP3    H137660   4.137   1.400   7.666  0.8594  0.4428 -0.0450
 5367TIP3    H237661   4.234   1.506   7.617  0.4677 -0.2293 -2.4172
 5368TIP3   OH237662   5.156   1.254   0.718 -0.1267  1.1218  0.0186
 5368TIP3    H137663   5.187   1.221   0.633 -0.8047  1.3950 -0.3411
 5368TIP3    H237664   5.232   1.247   0.775  0.4827  1.3702 -0.7365
 5369TIP3   OH237665   1.762   1.351   0.190  0.1077 -0.2602 -0.0852
 5369TIP3    H137666   1.832   1.373   0.251 -0.4941  0.9089  0.2051
 5369TIP3    H237667   1.729   1.267   0.220 -0.3338  0.4058  1.3617
 5370TIP3   OH237668   0.123   4.105   1.932  0.2467  0.2790  0.1522
 5370TIP3    H137669   0.148   4.026   1.981  0.0840  0.3119  0.2859
 5370TIP3    H237670   0.028   4.109   1.939  0.0508 -0.5997 -1.4960
 5371TIP3   OH237671   1.160   1.728   0.663 -0.4134 -0.4870  0.2032
 5371TIP3    H137672   1.176   1.774   0.580 -3.7738  0.0293 -0.3079
 5371TIP3    H237673   1.117   1.647   0.637 -0.5594 -0.8102  1.4192
 5372TIP3   OH237674   2.352   4.656   2.476 -0.3427 -0.3578 -0.0532
 5372TIP3    H137675   2.362   4.751   2.489 -0.3338 -0.4925  0.9844
 5372TIP3    H237676   2.423   4.617   2.526 -1.7433 -1.0108  1.5104
 5373TIP3   OH237677   2.511   3.032   7.539  0.3200 -0.1970  0.6831
 5373TIP3    H137678   2.437   3.024   7.479  0.6544 -0.0678  0.2516
 5373TIP3    H237679   2.528   3.126   7.546 -0.8605 -0.0632  2.4004
 5374TIP3   OH237680   5.028   1.938   8.120  0.3927  0.1650 -0.5587
 5374TIP3    H137681   4.948   1.930   8.171  0.6385 -0.1519 -0.2149
 5374TIP3    H237682   5.013   1.881   8.044 -0.3884  1.4590 -1.3942
 5375TIP3   OH237683   4.572   5.634   8.183  0.0612  0.3352  0.2077
 5375TIP3    H137684   4.639   5.577   8.145  1.0699  2.0191 -0.6794
 5375TIP3    H237685   4.490   5.600   8.149  0.3934 -1.8121  1.3636
 5376TIP3   OH237686   4.189   5.515   1.905  0.2616 -0.0495 -0.0006
 5376TIP3    H137687   4.264   5.560   1.866  1.5114 -1.1472  1.0231
 5376TIP3    H237688   4.215   5.501   1.996 -0.1315 -2.6653 -0.2279
 5377TIP3   OH237689   4.848   5.103   1.590 -0.4960 -0.0510  0.1923
 5377TIP3    H137690   4.810   5.088   1.677 -1.8930  0.4074 -0.3190
 5377TIP3    H237691   4.804   5.182   1.558  0.5867  0.2470 -0.6154
 5378TIP3   OH237692   2.809   3.093   2.628 -0.2998 -0.1357  0.5921
 5378TIP3    H137693   2.864   3.074   2.704  0.3963  2.3553  0.7734
 5378TIP3    H237694   2.867   3.080   2.552 -0.3492 -0.4157  0.5994
 5379TIP3   OH237695   2.118   1.907   0.880 -0.2873  1.0760 -0.1804
 5379TIP3    H137696   2.048   1.972   0.884 -0.0037  1.3912 -0.3317
 5379TIP3    H237697   2.106   1.854   0.959 -0.1554  1.6841  0.2541
 5380TIP3   OH237698   5.899   5.916   1.585 -0.0051 -0.1358  0.5843
 5380TIP3    H137699   5.990   5.886   1.578  0.8600  1.9796  1.8757
 5380TIP3    H237700   5.874   5.937   1.495  0.4466 -1.5734  0.0958
 5381TIP3   OH237701   1.906   5.817   1.873 -0.7313 -0.2133  0.3072
 5381TIP3    H137702   1.885   5.905   1.844 -1.9449 -0.8941 -1.0426
 5381TIP3    H237703   1.968   5.784   1.807  0.1416 -0.2146  1.0950
 5382TIP3   OH237704   4.941   2.731   0.331  0.4833  0.2818 -0.6010
 5382TIP3    H137705   4.959   2.791   0.403 -2.6729  0.3265  0.2833
 5382TIP3    H237706   4.941   2.786   0.253 -1.6269  1.3581  0.1003
 5383TIP3   OH237707   4.721   0.631   2.260  0.5629 -0.5323 -0.1799
 5383TIP3    H137708   4.662   0.687   2.310  1.1087  0.7122 -0.8781
 5383TIP3    H237709   4.774   0.586   2.326 -0.1817 -0.5758  0.3998
 5384TIP3   OH237710   1.762   5.617   7.284 -0.0183 -0.0557 -0.4380
 5384TIP3    H137711   1.856   5.634   7.286 -0.3269  1.7305  0.1416
 5384TIP3    H237712   1.755   5.529   7.247  1.9478 -0.8574  0.9229
 5385TIP3   OH237713   4.108   6.202   2.711  0.1351  0.3843 -0.3238
 5385TIP3    H137714   4.034   6.210   2.651 -1.2042 -0.9322  1.0551
 5385TIP3    H237715   4.101   6.279   2.768  0.3425  0.6866 -0.6951
 5386TIP3   OH237716   3.826   0.891   8.162 -0.1786  0.5035  0.0757
 5386TIP3    H137717   3.886   0.940   8.106 -1.6925  0.8445 -1.3313
 5386TIP3    H237718   3.779   0.958   8.211 -0.1933  0.2981  0.3454
 5387TIP3   OH237719   2.200   5.318   2.844 -0.1621 -0.0370  0.1133
 5387TIP3    H137720   2.269   5.319   2.778 -0.2196 -0.0950  0.0527
 5387TIP3    H237721   2.226   5.249   2.905  0.4401  0.7241  0.7328
 5388TIP3   OH237722   5.261   2.203   0.728 -0.6823  0.0012  0.3199
 5388TIP3    H137723   5.331   2.138   0.727  2.0068  2.6754 -0.3270
 5388TIP3    H237724   5.282   2.261   0.655 -1.1040  3.3123  2.6305
 5389TIP3   OH237725   5.994   6.112   8.076  0.0396  0.5886  0.5215
 5389TIP3    H137726   5.931   6.150   8.014 -0.0105  0.2537  0.3643
 5389TIP3    H237727   6.068   6.173   8.075  0.2843  0.2998 -0.3055
 5390TIP3   OH237728   1.374   2.876   0.542 -0.0845  0.1804  0.2408
 5390TIP3    H137729   1.390   2.892   0.635  0.6088  1.1691 -0.0377
 5390TIP3    H237730   1.336   2.958   0.509 -2.4504 -0.8925  0.0984
 5391TIP3   OH237731   2.450   3.097   8.568 -0.1706  0.3536 -0.2656
 5391TIP3    H137732   2.461   3.002   8.571  1.0414  0.5001  0.6623
 5391TIP3    H237733   2.370   3.113   8.618  0.2869 -0.1058  0.6553
 5392TIP3   OH237734   6.620   5.015   1.390  0.3198  0.6922 -0.0329
 5392TIP3    H137735   6.707   4.980   1.409  0.0030  0.1697  0.4825
 5392TIP3    H237736   6.585   4.956   1.323  0.5486  1.1967 -0.6083
 5393TIP3   OH237737   1.040   3.372   0.475  0.5304 -0.3468  0.4760
 5393TIP3    H137738   0.985   3.340   0.403  0.0779 -2.4480  1.6771
 5393TIP3    H237739   1.122   3.399   0.433 -0.6238  0.8702 -1.0950
 5394TIP3   OH237740   6.858   5.929   2.369  0.3738 -0.2877  0.1807
 5394TIP3    H137741   6.869   5.837   2.393 -0.3094 -0.6339 -0.7906
 5394TIP3    H237742   6.777   5.932   2.319  0.1851  0.9128  0.5222
 5395TIP3   OH237743   1.517   6.331   1.752  0.0918 -0.4949  0.1922
 5395TIP3    H137744   1.565   6.291   1.824 -1.4951 -0.3350  1.3802
 5395TIP3    H237745   1.471   6.405   1.792  1.1673  1.1805 -1.5017
 5396TIP3   OH237746   3.446   0.409   1.507  0.4932 -0.0202  0.3091
 5396TIP3    H137747   3.403   0.426   1.423  1.9798  1.6428 -0.1526
 5396TIP3    H237748   3.481   0.320   1.498  0.9184  0.2591 -0.9607
 5397TIP3   OH237749   2.265   3.409   8.397 -0.0212 -0.1149 -0.1225
 5397TIP3    H137750   2.282   3.504   8.393  0.4942 -0.2238 -0.7173
 5397TIP3    H237751   2.345   3.372   8.432 -0.6692 -0.2280  1.2865
 5398TIP3   OH237752   1.095   1.858   2.558  0.1641  0.4868 -0.9336
 5398TIP3    H137753   1.079   1.953   2.554  2.8579  1.0494 -0.5835
 5398TIP3    H237754   1.168   1.844   2.497  0.1656 -1.2811 -0.5697
 5399TIP3   OH237755   0.584   5.228   0.305 -0.3206 -0.3290 -0.5963
 5399TIP3    H137756   0.517   5.162   0.288 -0.9460  0.1930 -0.2079
 5399TIP3    H237757   0.590   5.279   0.224  1.5893 -2.0602 -1.6286
 5400TIP3   OH237758   2.701   3.211   0.096  0.0341  0.1236 -0.2490
 5400TIP3    H137759   2.617   3.257   0.089 -1.1784 -1.7129  1.0265
 5400TIP3    H237760   2.680   3.133   0.148  2.7967  0.1992  1.1318
 5401TIP3   OH237761   0.790   6.208   8.146 -0.2005  0.3364  0.3153
 5401TIP3    H137762   0.797   6.284   8.088  0.8486 -0.1580 -0.2484
 5401TIP3    H237763   0.736   6.146   8.097 -0.4540  0.4388  0.4633
 5402TIP3   OH237764   5.447   5.906   0.296 -0.1621 -0.2094  0.2427
 5402TIP3    H137765   5.457   5.985   0.242 -1.8142 -0.9738 -1.2617
 5402TIP3    H237766   5.491   5.837   0.246 -1.3430 -0.8458  0.0567
 5403TIP3   OH237767   6.081   2.701   2.679 -0.1159 -0.0416  0.4433
 5403TIP3    H137768   6.018   2.706   2.750  0.3914 -1.6758  1.0553
 5403TIP3    H237769   6.038   2.645   2.613  0.4021 -0.5923  0.5652
 5404TIP3   OH237770   4.372   3.061   0.472 -0.0206 -0.5170 -0.1031
 5404TIP3    H137771   4.308   3.028   0.408  1.7265  1.6971 -3.2593
 5404TIP3    H237772   4.328   3.134   0.514 -0.1637 -0.0080 -1.1018
 5405TIP3   OH237773   5.776   6.465   0.276  0.3343  0.9942  0.3077
 5405TIP3    H137774   5.739   6.457   0.364 -1.0876 -1.0418 -0.3890
 5405TIP3    H237775   5.703   6.494   0.222  0.9813  1.4457 -0.3334
 5406TIP3   OH237776   2.116   1.765   2.474  0.4164 -0.2990 -0.1971
 5406TIP3    H137777   2.029   1.726   2.476  0.0082  0.6099 -0.0414
 5406TIP3    H237778   2.161   1.718   2.404 -1.0142  0.8985 -2.0067
 5407TIP3   OH237779   0.305   4.475   7.833  0.2827  0.6537 -0.6329
 5407TIP3    H137780   0.278   4.439   7.918  2.3794 -0.7178 -0.4753
 5407TIP3    H237781   0.226   4.470   7.780 -0.0128 -2.8390 -0.1156
 5408TIP3   OH237782   2.894   1.184   8.228 -0.0661  0.2211 -0.7254
 5408TIP3    H137783   2.867   1.215   8.142 -2.1182  0.3104 -0.0958
 5408TIP3    H237784   2.832   1.224   8.289  0.1878 -1.2932  0.6017
 5409TIP3   OH237785   5.771   2.924   1.200  0.5457  0.0274 -0.1801
 5409TIP3    H137786   5.853   2.961   1.166  0.3960 -1.0543 -1.8401
 5409TIP3    H237787   5.703   2.984   1.170  0.7310  1.4521  1.9998
 5410TIP3   OH237788   0.796   5.417   1.661  0.0185  0.2072  0.3961
 5410TIP3    H137789   0.863   5.479   1.690 -2.4581  1.5526  4.0626
 5410TIP3    H237790   0.778   5.364   1.739 -1.1735 -2.0741 -1.3142
 5411TIP3   OH237791   0.341   4.430   0.858  0.3394  0.5629 -0.0024
 5411TIP3    H137792   0.287   4.458   0.784  0.5827 -2.3124 -1.4008
 5411TIP3    H237793   0.278   4.406   0.926 -0.0051  0.5531 -0.3217
 5412TIP3   OH237794   0.472   6.363   7.720  0.0155 -0.2416  0.6821
 5412TIP3    H137795   0.532   6.430   7.687  0.3442  0.2555  2.2060
 5412TIP3    H237796   0.501   6.282   7.680  1.9001 -0.0628  1.5950
 5413TIP3   OH237797   4.480   4.700   1.306  0.1745  0.4480  0.0916
 5413TIP3    H137798   4.386   4.684   1.304  0.1744 -0.3989  2.6839
 5413TIP3    H237799   4.515   4.626   1.355  1.9078  1.8706  1.1033
 5414TIP3   OH237800   2.114   2.540   8.156  0.1358  0.6127  0.0156
 5414TIP3    H137801   2.148   2.475   8.218  0.2702  1.5962  1.0036
 5414TIP3    H237802   2.185   2.550   8.092  0.0772 -0.2683 -0.2043
 5415TIP3   OH237803   2.773   4.766   0.371 -0.2838 -0.6543 -0.8210
 5415TIP3    H137804   2.825   4.751   0.450  0.2196  0.8374 -0.8364
 5415TIP3    H237805   2.837   4.795   0.306 -1.2441  3.0779 -0.3169
 5416TIP3   OH237806   6.678   3.583   2.024 -0.0159 -0.0040 -0.5287
 5416TIP3    H137807   6.722   3.648   2.080 -0.4535  0.8323 -1.1365
 5416TIP3    H237808   6.727   3.586   1.942  0.7603 -1.3842 -0.1565
 5417TIP3   OH237809   6.442   4.129   0.084  0.1336  0.1426  0.6677
 5417TIP3    H137810   6.461   4.046   0.129  2.4721  0.2774  0.0836
 5417TIP3    H237811   6.498   4.127   0.007 -2.3239  0.8010 -1.2443
 5418TIP3   OH237812   6.845   1.118   7.839 -0.2979 -0.2376 -0.8380
 5418TIP3    H137813   6.881   1.186   7.896  1.1792 -1.1742 -0.5968
 5418TIP3    H237814   6.915   1.053   7.832 -0.5526 -0.3538 -3.4236
 5419TIP3   OH237815   1.524   1.645   1.365  0.3649  0.1951  0.4807
 5419TIP3    H137816   1.434   1.657   1.393  0.4950  1.2515  0.4982
 5419TIP3    H237817   1.519   1.580   1.294  0.0200 -2.3565  2.6994
 5420TIP3   OH237818   6.712   4.500   2.451  0.4333  0.2001 -0.7581
 5420TIP3    H137819   6.732   4.407   2.459 -0.3691  0.0696 -0.0749
 5420TIP3    H237820   6.617   4.504   2.448  0.3397  1.1129  1.3868
 5421TIP3   OH237821   6.635   5.789   0.156 -1.0300 -0.0894 -0.2102
 5421TIP3    H137822   6.635   5.880   0.186  0.6941  0.4233 -1.5533
 5421TIP3    H237823   6.724   5.775   0.122 -1.5910 -1.9248 -1.0841
 5422TIP3   OH237824   3.242   0.817   2.491 -0.1204 -0.7363  0.2210
 5422TIP3    H137825   3.222   0.861   2.574  0.1396 -1.9649  0.9651
 5422TIP3    H237826   3.313   0.756   2.513  1.1634  0.1535 -1.3156
 5423TIP3   OH237827   4.226   4.148   2.008 -0.0531  0.1533 -0.3945
 5423TIP3    H137828   4.183   4.186   2.085  1.8023  1.9774 -0.1647
 5423TIP3    H237829   4.263   4.066   2.039  1.1537  1.1237  0.8884
 5424TIP3   OH237830   4.259   6.800   2.127  0.1766  0.6274  0.5132
 5424TIP3    H137831   4.166   6.778   2.120  0.2588  0.1016  1.0218
 5424TIP3    H237832   4.292   6.795   2.037 -0.7940  3.1974 -0.0673
 5425TIP3   OH237833   6.157   4.968   1.890  0.0853  0.2113 -0.0928
 5425TIP3    H137834   6.062   4.956   1.884 -0.1675  0.9017  1.7577
 5425TIP3    H237835   6.179   5.027   1.818 -1.1437  1.2443  0.3559
 5426TIP3   OH237836   5.643   1.929   0.946 -0.3816 -0.2867 -0.1147
 5426TIP3    H137837   5.657   1.835   0.958 -0.3720 -0.2634  0.0699
 5426TIP3    H237838   5.680   1.969   1.025 -1.8775 -0.2562  0.6243
 5427TIP3   OH237839   1.576   2.781   1.545  0.0702 -0.3711  0.7693
 5427TIP3    H137840   1.635   2.774   1.470 -1.4797  0.5835 -0.5874
 5427TIP3    H237841   1.527   2.699   1.545 -0.5313 -0.0094  0.2186
 5428TIP3   OH237842   0.240   0.485   0.048 -0.1764  0.4474  0.4278
 5428TIP3    H137843   0.282   0.436  -0.024 -1.8525 -1.1294  0.4382
 5428TIP3    H237844   0.146   0.470   0.034 -0.7124  2.9295  1.0326
 5429TIP3   OH237845   0.567   4.144   3.099  0.3176  0.1330 -0.1627
 5429TIP3    H137846   0.661   4.160   3.098  0.2704  0.4168 -0.5815
 5429TIP3    H237847   0.532   4.203   3.032 -0.3112  0.9968  0.8977
 5430TIP3   OH237848   3.940   0.539   2.269  0.4296  0.0946  0.0517
 5430TIP3    H137849   3.940   0.619   2.217 -1.1186 -0.3515 -0.6862
 5430TIP3    H237850   3.871   0.485   2.231 -0.4390 -0.4599  2.2383
 5431TIP3   OH237851   5.044   5.293   6.997 -0.9341  0.0058  0.0513
 5431TIP3    H137852   5.101   5.262   7.068  0.4173  1.4514 -0.3456
 5431TIP3    H237853   5.089   5.370   6.962 -1.1178 -1.0926 -2.9190
 5432TIP3   OH237854   6.168   6.177   1.455  0.5431 -0.0150  0.4586
 5432TIP3    H137855   6.258   6.145   1.446  0.5971  0.1757  0.3262
 5432TIP3    H237856   6.135   6.184   1.365 -0.0123 -1.2434  0.5438
 5433TIP3   OH237857   2.970   4.171   8.510  0.4294 -0.7245  0.3342
 5433TIP3    H137858   2.884   4.161   8.470  0.0580  0.1380  0.8808
 5433TIP3    H237859   3.012   4.086   8.500 -0.6634 -1.2881  0.4729
 5434TIP3   OH237860   5.185   4.770   0.115 -0.2123 -0.1273  0.0366
 5434TIP3    H137861   5.108   4.810   0.155 -0.8852 -1.0559 -0.3076
 5434TIP3    H237862   5.243   4.751   0.188 -1.2012 -1.3167  0.5296
 5435TIP3   OH237863   0.325   4.194   1.451 -0.3796  0.7628 -0.1897
 5435TIP3    H137864   0.357   4.146   1.528  1.0153  1.1049 -0.5407
 5435TIP3    H237865   0.341   4.135   1.377 -0.0017  1.1692 -0.4401
 5436TIP3   OH237866   4.284   0.382   1.050 -0.0553 -0.3779  0.3691
 5436TIP3    H137867   4.364   0.354   1.095 -0.8311 -0.8962  1.4483
 5436TIP3    H237868   4.284   0.478   1.059  0.7470 -0.3106 -0.1872
 5437TIP3   OH237869   0.581   5.959   8.524 -0.2790  0.3836  0.1352
 5437TIP3    H137870   0.518   5.904   8.570  0.0477  0.1923  0.3557
 5437TIP3    H237871   0.574   5.931   8.432  0.5016 -0.6471  0.3687
 5438TIP3   OH237872   5.532   0.814   7.880 -0.1564  0.4185  0.6343
 5438TIP3    H137873   5.468   0.829   7.949 -0.5852 -0.2015  0.3903
 5438TIP3    H237874   5.586   0.892   7.879 -0.5340  0.6940  1.2555
 5439TIP3   OH237875   1.406   5.598   8.292 -0.1333 -0.2393  0.5113
 5439TIP3    H137876   1.465   5.596   8.217  2.6680 -3.5264  2.5343
 5439TIP3    H237877   1.366   5.511   8.293 -0.6432 -0.0245  2.4112
 5440TIP3   OH237878   0.341   1.436   7.591  0.3583 -0.7542 -0.4403
 5440TIP3    H137879   0.317   1.497   7.520 -1.6977 -0.6919  0.2513
 5440TIP3    H237880   0.435   1.424   7.580  0.6504  1.6322 -1.3344
 5441TIP3   OH237881   0.848   5.600   0.786  0.2601  0.1859 -0.7784
 5441TIP3    H137882   0.887   5.524   0.742  0.6516 -0.4705  0.6661
 5441TIP3    H237883   0.757   5.574   0.801  0.3186  0.1224 -0.5402
 5442TIP3   OH237884   0.235   2.451   0.536  0.0296  0.4570  0.1383
 5442TIP3    H137885   0.227   2.536   0.491  2.1134  1.4204  1.4308
 5442TIP3    H237886   0.277   2.472   0.619 -0.8852 -1.6740  1.2045
 5443TIP3   OH237887   1.675   4.542   1.991  0.6373  0.1692 -0.1854
 5443TIP3    H137888   1.665   4.450   1.964 -2.1790 -0.2341  1.8435
 5443TIP3    H237889   1.640   4.593   1.918 -0.4466 -0.5271 -0.1643
 5444TIP3   OH237890   0.744   4.601   1.870  0.1747 -0.7107 -0.6855
 5444TIP3    H137891   0.688   4.646   1.807  0.3081 -1.8912 -1.6650
 5444TIP3    H237892   0.782   4.528   1.822  0.9511 -1.1446  0.5306
 5445TIP3   OH237893   3.731   6.099   8.555  0.3411 -0.4337  0.2102
 5445TIP3    H137894   3.793   6.088   8.483 -0.6403 -2.5116 -0.4003
 5445TIP3    H237895   3.722   6.012   8.593 -1.7922 -0.1069  0.6054
 5446TIP3   OH237896   5.306   3.675   0.878  0.3944 -0.6182  0.4328
 5446TIP3    H137897   5.367   3.626   0.823  1.1565  2.6088 -1.8760
 5446TIP3    H237898   5.233   3.697   0.821  0.2466  1.1528  1.2261
 5447TIP3   OH237899   1.924   0.231   7.473  0.3193 -0.0068  0.7674
 5447TIP3    H137900   1.963   0.231   7.561  0.0308  0.5639  0.8984
 5447TIP3    H237901   1.831   0.248   7.488  0.0911 -0.8551  0.4184
 5448TIP3   OH237902   1.930   0.842   7.399 -0.0639 -0.3219 -0.4222
 5448TIP3    H137903   1.968   0.754   7.389 -1.5591 -0.8777 -1.5496
 5448TIP3    H237904   2.005   0.898   7.421  0.8214 -1.9768  1.0286
 5449TIP3   OH237905   3.495   6.566   2.583  0.2514 -0.3541 -0.4218
 5449TIP3    H137906   3.514   6.658   2.601  2.6100 -0.4932 -1.7869
 5449TIP3    H237907   3.473   6.529   2.668 -1.9868  1.6871 -0.0224
 5450TIP3   OH237908   6.234   6.785   2.393  0.4312 -0.0374 -0.1669
 5450TIP3    H137909   6.166   6.759   2.455  0.5265  0.3759  0.1143
 5450TIP3    H237910   6.229   6.880   2.390  1.5165  0.0547  0.4567
 5451TIP3   OH237911   6.792   5.536   1.066 -0.5711  0.6606  0.1516
 5451TIP3    H137912   6.817   5.594   0.994 -0.3049  0.1046 -0.2072
 5451TIP3    H237913   6.697   5.528   1.058 -0.5518  0.6653 -0.0871
 5452TIP3   OH237914   6.561   6.673   1.190  0.3523  0.2463  0.0708
 5452TIP3    H137915   6.610   6.642   1.115  0.6665  0.6443  0.1063
 5452TIP3    H237916   6.627   6.705   1.251  0.2970 -2.4545  1.6785
 5453TIP3   OH237917   1.364   4.538   8.380  0.0856 -0.0521 -0.5322
 5453TIP3    H137918   1.324   4.494   8.305 -0.7291  1.0733 -0.7726
 5453TIP3    H237919   1.293   4.550   8.443 -0.1367  2.3388 -1.1360
 5454TIP3   OH237920   0.304   4.391   1.211  0.0368  0.4708  0.7492
 5454TIP3    H137921   0.285   4.338   1.289  0.9177 -1.3971 -0.2288
 5454TIP3    H237922   0.399   4.391   1.205  0.0001  1.2940  0.1221
 5455TIP3   OH237923   0.540   6.406   1.975  0.2555  0.0692  0.1505
 5455TIP3    H137924   0.452   6.416   1.939 -1.9453  0.1803  4.8548
 5455TIP3    H237925   0.572   6.495   1.988  0.1457  0.0695  0.4167
 5456TIP3   OH237926   0.119   0.733   8.135  0.0314 -0.0701 -0.4251
 5456TIP3    H137927   0.051   0.723   8.201 -0.4505  1.9733 -0.5307
 5456TIP3    H237928   0.073   0.760   8.056  0.8750  0.7579 -0.6641
 5457TIP3   OH237929   5.607   5.939   1.586 -0.0603  0.8110 -0.1765
 5457TIP3    H137930   5.592   5.919   1.494  0.0169 -1.8306  0.2933
 5457TIP3    H237931   5.698   5.912   1.602 -0.4564  0.0261  0.9087
 5458TIP3   OH237932   1.931   0.593   0.082  0.0011 -0.2659  0.0683
 5458TIP3    H137933   2.017   0.566   0.050 -0.6964 -0.1481 -2.0261
 5458TIP3    H237934   1.878   0.513   0.080 -0.4928  0.0698 -0.6324
 5459TIP3   OH237935   3.974   5.462   0.106 -0.6548 -0.0290 -0.3065
 5459TIP3    H137936   3.965   5.395   0.174 -0.2001 -1.5439 -1.6796
 5459TIP3    H237937   4.045   5.518   0.137 -0.0902 -1.0139  0.2428
 5460TIP3   OH237938   0.632   6.348   1.629 -0.0235 -0.2235 -0.1150
 5460TIP3    H137939   0.672   6.386   1.552 -0.5008 -1.7066 -1.1338
 5460TIP3    H237940   0.541   6.331   1.603  0.0947 -1.7375  0.3983
 5461TIP3   OH237941   1.958   3.656   0.926  0.3456  0.7953  0.4504
 5461TIP3    H137942   2.044   3.696   0.941  0.8667 -0.7858  2.1376
 5461TIP3    H237943   1.896   3.715   0.970  1.0192  0.1753  2.3423
 5462TIP3   OH237944   5.940   6.553   2.507 -0.3621  0.0137 -0.7500
 5462TIP3    H137945   5.869   6.539   2.444  0.6309 -0.5159 -1.7703
 5462TIP3    H237946   5.936   6.646   2.527 -1.0819  0.0676 -1.1072
 5463TIP3   OH237947   0.258   5.960   8.392 -0.0258 -0.1178 -0.1324
 5463TIP3    H137948   0.205   5.893   8.435  1.2229 -1.5820 -0.7913
 5463TIP3    H237949   0.202   5.991   8.320 -1.0031  0.3207  0.7742
 5464TIP3   OH237950   1.827   6.132   2.815 -0.1041  1.0702  0.1533
 5464TIP3    H137951   1.820   6.226   2.828  0.7724  1.1293  0.2300
 5464TIP3    H237952   1.889   6.121   2.743 -2.5914  0.6415 -2.0956
 5465TIP3   OH237953   3.479   3.096   8.403 -0.5683 -0.3572  0.0829
 5465TIP3    H137954   3.435   3.047   8.334  1.7781 -0.7672 -1.2527
 5465TIP3    H237955   3.517   3.171   8.359  0.2532 -0.1482  1.0968
 5466TIP3   OH237956   3.834   0.394   0.970  0.6541  0.8610 -0.1025
 5466TIP3    H137957   3.848   0.353   1.055  0.4513  1.1136  0.0559
 5466TIP3    H237958   3.837   0.488   0.989 -0.8425  0.9342 -0.1227
 5467TIP3   OH237959   4.026   1.743   3.079 -0.0625  0.2471 -0.3718
 5467TIP3    H137960   3.970   1.761   3.155  1.6781 -1.7011  1.4933
 5467TIP3    H237961   4.053   1.829   3.049 -1.0809  1.0955  1.0093
 5468TIP3   OH237962   3.021   2.612   0.562  0.0014 -0.6300 -0.3830
 5468TIP3    H137963   2.945   2.664   0.534 -0.7148 -1.0075  0.7940
 5468TIP3    H237964   2.987   2.556   0.632  1.2830 -1.0907 -0.1119
 5469TIP3   OH237965   1.549   0.184   1.352 -0.1266 -0.0531  0.4393
 5469TIP3    H137966   1.612   0.252   1.376 -0.6151  0.7116 -0.3846
 5469TIP3    H237967   1.567   0.112   1.412 -0.4269  1.2833  2.2125
 5470TIP3   OH237968   2.465   5.568   2.041  0.3563 -0.3212 -0.2138
 5470TIP3    H137969   2.451   5.663   2.041  1.2607 -0.1564 -1.6041
 5470TIP3    H237970   2.392   5.532   1.990 -0.1064 -0.4023  0.4984
 5471TIP3   OH237971   2.843   1.825   0.361 -0.2043  0.2837 -0.1117
 5471TIP3    H137972   2.770   1.769   0.333 -0.0639  0.1678 -0.2454
 5471TIP3    H237973   2.803   1.910   0.375 -0.2173  0.4368 -1.0183
 5472TIP3   OH237974   3.203   1.591   2.994 -0.1872 -0.2517 -0.0529
 5472TIP3    H137975   3.252   1.641   3.060  2.2353 -0.5499 -1.5295
 5472TIP3    H237976   3.130   1.553   3.043  2.3451 -1.7749  2.9058
 5473TIP3   OH237977   4.164   3.922   8.233 -0.2505  0.1430  0.2372
 5473TIP3    H137978   4.151   3.981   8.158 -0.0013  0.8130  0.7050
 5473TIP3    H237979   4.110   3.846   8.214 -1.2092  0.8672 -0.0259
 5474TIP3   OH237980   1.794   4.285   0.896 -0.2592 -0.6833  0.3017
 5474TIP3    H137981   1.718   4.230   0.919 -0.1908 -0.6355  0.6447
 5474TIP3    H237982   1.764   4.374   0.911  0.0524 -0.6920  1.0084
 5475TIP3   OH237983   1.180   3.085   1.251 -1.4625 -0.4018 -0.3944
 5475TIP3    H137984   1.238   3.085   1.175 -1.6916 -1.3635 -0.5852
 5475TIP3    H237985   1.237   3.061   1.325 -0.8619  2.2184  0.0875
 5476TIP3   OH237986   6.132   4.241   7.065 -0.0259  0.0256 -0.1553
 5476TIP3    H137987   6.137   4.336   7.067  0.0365  0.0066  1.6435
 5476TIP3    H237988   6.223   4.212   7.079  0.3316 -0.3479 -2.7057
 5477TIP3   OH237989   0.113   4.385   1.507  0.1618 -0.1145  0.5590
 5477TIP3    H137990   0.167   4.309   1.485 -0.7618 -0.5297 -0.3611
 5477TIP3    H237991   0.027   4.348   1.526 -0.6615  0.7908 -1.2382
 5478TIP3   OH237992   0.878   2.329   2.360  0.3275 -0.0878 -1.1059
 5478TIP3    H137993   0.788   2.334   2.326 -0.8523 -3.2700  1.0193
 5478TIP3    H237994   0.872   2.370   2.446  1.4261  1.2499 -1.6353
 5479TIP3   OH237995   5.756   3.803   0.187 -0.3197  0.0555 -0.1468
 5479TIP3    H137996   5.665   3.823   0.168 -0.7003  1.4104  2.5792
 5479TIP3    H237997   5.801   3.887   0.180  0.6460 -0.5041 -0.9241
 5480TIP3   OH237998   0.500   1.975   0.439 -0.4610 -0.1198  0.5154
 5480TIP3    H137999   0.410   1.998   0.416  0.4905  4.4405  0.3284
 5480TIP3    H238000   0.499   1.963   0.534 -1.0892  1.5152  0.7527
 5481TIP3   OH238001   4.480   2.010   0.327 -0.0261 -0.0239 -0.5053
 5481TIP3    H138002   4.392   1.981   0.306  0.4976 -1.5044 -0.7720
 5481TIP3    H238003   4.506   2.064   0.251 -0.0408 -1.1005 -1.3016
 5482TIP3   OH238004   3.573   0.501   3.175 -0.2667 -0.4263 -0.3578
 5482TIP3    H138005   3.519   0.561   3.227 -1.7356 -0.8278 -1.3770
 5482TIP3    H238006   3.634   0.559   3.129 -0.0968  0.0705  0.4535
 5483TIP3   OH238007   0.137   4.446   0.061  0.3497  0.4764 -0.0983
 5483TIP3    H138008   0.125   4.438  -0.034  0.6649 -1.2700 -0.0192
 5483TIP3    H238009   0.115   4.537   0.080  0.0729  0.8047 -1.8150
 5484TIP3   OH238010   3.267   5.537   8.269 -0.4689  0.5615 -0.0436
 5484TIP3    H138011   3.287   5.477   8.197 -1.7670  0.2133 -0.1348
 5484TIP3    H238012   3.179   5.568   8.250 -1.1781 -0.1966  1.8529
 5485TIP3   OH238013   4.812   4.157   3.300 -0.1040 -0.1649 -0.0681
 5485TIP3    H138014   4.756   4.088   3.334 -0.5995  0.2524 -0.0146
 5485TIP3    H238015   4.900   4.134   3.329 -0.5014  0.1296  1.4245
 5486TIP3   OH238016   0.089   4.929   8.594 -0.6220 -0.2756  0.3720
 5486TIP3    H138017   0.149   5.003   8.602  1.0918 -1.5243 -0.2822
 5486TIP3    H238018   0.146   4.852   8.593 -2.0359 -1.4242 -2.4288
 5487TIP3   OH238019   6.335   1.107   0.166  0.2527 -0.1801  0.6164
 5487TIP3    H138020   6.401   1.132   0.101 -0.0122  1.4539  0.9435
 5487TIP3    H238021   6.346   1.170   0.237  0.8910 -2.2430  2.4540
 5488TIP3   OH238022   5.788   5.382   0.368 -0.0756  0.2390  1.0100
 5488TIP3    H138023   5.760   5.470   0.342 -1.7929 -0.6556 -0.3674
 5488TIP3    H238024   5.715   5.347   0.418  0.2800 -0.6738  0.9116
 5489TIP3   OH238025   1.951   1.741   3.394  1.0477  0.1654 -0.5715
 5489TIP3    H138026   1.877   1.702   3.441  1.6536  0.7887  0.9511
 5489TIP3    H238027   2.028   1.698   3.431  1.4641 -0.9946 -2.6381
 5490TIP3   OH238028   4.516   4.919   7.545 -0.5770 -0.0726  0.3342
 5490TIP3    H138029   4.493   4.846   7.488 -0.9034 -0.5515  1.0709
 5490TIP3    H238030   4.448   4.984   7.528 -0.0631  0.2387 -0.6158
 5491TIP3   OH238031   0.415   6.570   7.915  0.4934 -0.5813  0.7884
 5491TIP3    H138032   0.370   6.642   7.871 -0.1360 -0.5146  1.5187
 5491TIP3    H238033   0.432   6.506   7.845  0.6256  0.0650  0.2266
 5492TIP3   OH238034   4.602   3.106   2.917  0.3602 -0.0222 -0.4036
 5492TIP3    H138035   4.697   3.108   2.929  0.5727 -2.7403 -0.8316
 5492TIP3    H238036   4.567   3.079   3.002  0.3248 -2.1102 -1.0146
 5493TIP3   OH238037   3.981   5.297   2.336  0.2316  0.2017  0.3475
 5493TIP3    H138038   4.039   5.222   2.330  0.2952  0.2615  0.2030
 5493TIP3    H238039   3.937   5.287   2.421  0.0439 -0.1379  0.2130
 5494TIP3   OH238040   4.507   0.952   1.137 -0.3849  0.3861  0.4787
 5494TIP3    H138041   4.548   1.019   1.192  3.0599  1.3636 -2.8681
 5494TIP3    H238042   4.579   0.893   1.114 -2.5990 -2.4986  0.4002
 5495TIP3   OH238043   5.390   3.574   1.158 -0.0291  0.2889 -0.4353
 5495TIP3    H138044   5.404   3.480   1.142 -1.3356  0.0549 -0.3834
 5495TIP3    H238045   5.349   3.606   1.078 -0.7138  0.5258 -0.0084
 5496TIP3   OH238046   1.502   2.810   1.032  0.7341 -0.0365  0.1264
 5496TIP3    H138047   1.575   2.750   1.017  1.1008  0.5372 -0.4093
 5496TIP3    H238048   1.530   2.864   1.106  0.6292 -0.1649  0.2609
 5497TIP3   OH238049   3.822   2.215   2.519  0.0438 -0.8534 -0.1104
 5497TIP3    H138050   3.917   2.207   2.512  0.2435  1.0555  0.0605
 5497TIP3    H238051   3.801   2.296   2.473 -1.3918 -0.7603  0.6674
 5498TIP3   OH238052   5.283   1.851   1.402 -0.0092 -0.8178  0.1010
 5498TIP3    H138053   5.241   1.871   1.318  0.8345 -4.7330 -1.4539
 5498TIP3    H238054   5.377   1.847   1.382  0.1618 -2.3545  1.0643
 5499TIP3   OH238055   0.740   5.334   1.896 -0.8520  0.3622 -0.0915
 5499TIP3    H138056   0.785   5.259   1.934 -0.9031  0.3002 -0.1549
 5499TIP3    H238057   0.743   5.401   1.964 -2.1824 -0.2156  0.5495
 5500TIP3   OH238058   4.512   3.753   7.329  0.0491  0.1023 -0.1895
 5500TIP3    H138059   4.579   3.760   7.262 -0.4840 -0.0520 -0.7467
 5500TIP3    H238060   4.481   3.842   7.342 -0.9502 -0.0606 -1.3030
 5501TIP3   OH238061   0.849   5.188   0.463 -0.1740  0.0684  0.5602
 5501TIP3    H138062   0.787   5.154   0.398  0.1393 -0.2416  0.4227
 5501TIP3    H238063   0.922   5.126   0.461  0.7311  1.1249 -0.2113
 5502TIP3   OH238064   4.004   4.139   8.525 -0.0448 -0.0494  0.2102
 5502TIP3    H138065   3.937   4.092   8.574  1.0605 -0.6244  1.2163
 5502TIP3    H238066   3.960   4.167   8.445 -1.3387 -0.8387  0.6167
 5503TIP3   OH238067   3.583   1.290   0.619 -0.2856  0.1004  0.7282
 5503TIP3    H138068   3.669   1.315   0.585  0.1921 -0.4410  1.4898
 5503TIP3    H238069   3.532   1.267   0.541 -0.3019  2.0215  0.1195
 5504TIP3   OH238070   2.679   0.708   8.568 -0.4917  0.1224  0.2815
 5504TIP3    H138071   2.610   0.774   8.567 -0.8144 -0.2098  0.4832
 5504TIP3    H238072   2.721   0.716   8.482  0.7906  1.9611  1.0138
 5505TIP3   OH238073   5.056   4.090   3.404 -0.4162  0.3633 -0.2244
 5505TIP3    H138074   5.120   4.142   3.453 -2.9242  2.3490  1.2303
 5505TIP3    H238075   5.057   4.004   3.446 -1.6129  1.6465  2.7339
 5506TIP3   OH238076   0.058   6.537   7.854  0.7126 -0.2450 -0.2218
 5506TIP3    H138077   0.129   6.573   7.802 -1.1625  0.1393 -2.7416
 5506TIP3    H238078  -0.009   6.606   7.853 -0.2253 -1.1051  0.8412
 5507TIP3   OH238079   3.863   5.943   3.027 -0.1782  0.1740 -0.0132
 5507TIP3    H138080   3.958   5.940   3.035 -0.1598  1.2155  0.3080
 5507TIP3    H238081   3.841   5.872   2.967  0.6445 -1.1193  1.1705
 5508TIP3   OH238082   3.912   4.862   0.239  0.2696  0.8474  0.8002
 5508TIP3    H138083   3.894   4.773   0.208  1.2427  1.3846 -1.5648
 5508TIP3    H238084   3.997   4.855   0.282  0.7940  0.7467 -0.2055
 5509TIP3   OH238085   4.329   0.823   8.472  0.6922  0.2321 -0.4088
 5509TIP3    H138086   4.245   0.799   8.512  0.6660  0.4648 -0.3188
 5509TIP3    H238087   4.351   0.749   8.416  0.8076 -0.1687  0.1593
 5510TIP3   OH238088   5.901   1.352   8.087 -0.0362 -0.6360  0.4768
 5510TIP3    H138089   5.964   1.380   8.153  0.2600 -1.0176  0.3601
 5510TIP3    H238090   5.817   1.349   8.133  0.3652 -2.0972  1.1678
 5511TIP3   OH238091   3.808   1.542   2.512 -0.0308 -0.5695 -0.1899
 5511TIP3    H138092   3.732   1.580   2.468 -0.1383 -0.8907 -0.2822
 5511TIP3    H238093   3.859   1.502   2.442  0.3308 -0.1720 -0.1540
 5512TIP3   OH238094   0.948   4.562   2.624 -0.3108  0.1386 -0.3055
 5512TIP3    H138095   0.881   4.612   2.578 -0.5247  0.1304 -0.0074
 5512TIP3    H238096   1.023   4.561   2.565 -0.8840 -0.6308 -1.0422
 5513TIP3   OH238097   3.923   5.556   1.857  0.0440 -0.2120 -0.2346
 5513TIP3    H138098   3.998   5.520   1.903 -0.3051 -0.5194  0.1003
 5513TIP3    H238099   3.913   5.500   1.780  0.6912  0.3653 -0.7607
 5514TIP3   OH238100   5.479   3.077   2.546 -0.0295 -0.2479  0.5417
 5514TIP3    H138101   5.446   3.077   2.456  0.3000  0.3498  0.4200
 5514TIP3    H238102   5.427   3.009   2.590  0.2014 -0.9579 -0.2403
 5515TIP3   OH238103   2.568   2.823   3.226 -0.3914  0.1498  0.3652
 5515TIP3    H138104   2.491   2.847   3.175 -0.1805 -0.6495 -0.3479
 5515TIP3    H238105   2.534   2.763   3.293 -0.4656  0.2131  0.3855
 5516TIP3   OH238106   0.645   2.717   1.068  0.6721  0.4599 -0.3687
 5516TIP3    H138107   0.702   2.678   1.002 -1.6707 -2.0256 -1.0844
 5516TIP3    H238108   0.638   2.650   1.136 -1.0281  0.8404 -0.1236
 5517TIP3   OH238109   1.496   5.968   0.164  0.2385  0.1997  0.1771
 5517TIP3    H138110   1.587   5.979   0.135 -0.1998 -0.7984 -1.7691
 5517TIP3    H238111   1.447   6.032   0.113 -0.3820 -0.6013 -0.2556
 5518TIP3   OH238112   6.300   3.239   2.709 -0.2941 -0.0613 -0.2783
 5518TIP3    H138113   6.274   3.265   2.620  1.2104 -0.7561 -0.9433
 5518TIP3    H238114   6.368   3.302   2.733  0.0428 -0.5130 -0.0427
 5519TIP3   OH238115   6.852   1.341   8.013 -0.5540  0.2365 -0.3159
 5519TIP3    H138116   6.872   1.428   7.977  0.4739  0.7500  1.3464
 5519TIP3    H238117   6.890   1.343   8.101 -0.8066 -1.7965 -0.1159
 5520TIP3   OH238118   5.097   5.776   1.714  0.2334  0.0507 -0.0894
 5520TIP3    H138119   5.112   5.800   1.622  2.2102 -0.6089 -0.0033
 5520TIP3    H238120   5.042   5.845   1.749 -0.4508  0.3896 -1.7358
 5521TIP3   OH238121   5.230   2.604   2.914  0.1593  0.1729 -0.2751
 5521TIP3    H138122   5.265   2.619   2.826  0.0457 -1.9292 -0.7342
 5521TIP3    H238123   5.137   2.587   2.900  0.3638 -1.3504  0.0825
 5522TIP3   OH238124   1.865   0.303   8.467 -0.1736  0.0875  0.7045
 5522TIP3    H138125   1.843   0.363   8.539 -0.4624 -0.3968  1.0252
 5522TIP3    H238126   1.905   0.228   8.510  0.1667  0.0367  0.3043
 5523TIP3   OH238127   1.948   3.806   6.795 -0.0089 -0.1425  0.3037
 5523TIP3    H138128   2.032   3.784   6.835  0.6225  1.8916  0.2289
 5523TIP3    H238129   1.885   3.800   6.867 -0.0757 -2.7887  0.1221
 5524TIP3   OH238130   5.716   3.874   3.176  0.4805  0.3541 -0.8424
 5524TIP3    H138131   5.690   3.784   3.160 -1.3523  0.3918  1.4006
 5524TIP3    H238132   5.798   3.867   3.225  1.8772  0.0698 -3.0727
 5525TIP3   OH238133   2.609   3.122   3.023 -0.4185  0.1856 -0.0276
 5525TIP3    H138134   2.526   3.095   3.062 -0.4354 -0.4803 -0.5139
 5525TIP3    H238135   2.626   3.209   3.060 -0.5903 -0.2880  1.2078
 5526TIP3   OH238136   5.773   1.105   8.209 -0.2986 -0.3580 -0.3200
 5526TIP3    H138137   5.703   1.164   8.184  0.0214  0.0699 -0.2200
 5526TIP3    H238138   5.842   1.121   8.145  0.6085  0.8965  0.8959
 5527TIP3   OH238139   5.628   4.517   2.087 -0.0081  0.4726 -0.2620
 5527TIP3    H138140   5.652   4.563   2.167  1.9517 -0.7615 -0.0541
 5527TIP3    H238141   5.628   4.584   2.019 -2.3543  1.6618  0.8165
 5528TIP3   OH238142   0.098   2.367   0.293  0.2663  0.1932  0.0794
 5528TIP3    H138143   0.141   2.371   0.378  0.2478  0.1647  0.0901
 5528TIP3    H238144   0.122   2.449   0.250  0.0825  0.3117  0.2034
 5529TIP3   OH238145   1.018   5.845   0.625 -0.1204  0.2218  0.2860
 5529TIP3    H138146   1.105   5.807   0.641 -0.3818 -0.4951  0.0178
 5529TIP3    H238147   0.984   5.864   0.713  0.3458  0.6138  0.3902
 5530TIP3   OH238148   1.484   2.520   1.450 -0.0146 -0.3555  0.0862
 5530TIP3    H138149   1.421   2.501   1.381 -1.0261  4.1161 -0.5450
 5530TIP3    H238150   1.567   2.485   1.418 -1.0166 -0.8898 -2.0551
 5531TIP3   OH238151   3.637   0.537   1.199 -0.6091  0.3492 -0.2093
 5531TIP3    H138152   3.656   0.598   1.270  1.2495  0.6982 -0.9382
 5531TIP3    H238153   3.660   0.585   1.119 -1.0430 -0.6082 -0.9283
 5532TIP3   OH238154   0.928   3.927   2.872  0.4828 -0.2471  0.3389
 5532TIP3    H138155   0.964   3.924   2.783  0.3747 -1.4586  0.3214
 5532TIP3    H238156   1.003   3.907   2.928  0.5120  0.3433  0.5110
 5533TIP3   OH238157   1.684   6.663   7.852  0.1440 -0.6070  0.5089
 5533TIP3    H138158   1.700   6.710   7.771  0.2882 -1.5078  0.0047
 5533TIP3    H238159   1.636   6.725   7.907  1.3759  0.5514  0.3295
 5534TIP3   OH238160   6.148   3.743   1.777 -0.2115  0.1595  0.5154
 5534TIP3    H138161   6.214   3.769   1.841 -0.4049 -0.0917  0.8150
 5534TIP3    H238162   6.086   3.816   1.775  0.6854  0.9289 -0.6164
 5535TIP3   OH238163   5.144   3.824   3.506 -0.0353 -0.2833  0.3885
 5535TIP3    H138164   5.140   3.769   3.585 -0.7281 -0.7338  0.0503
 5535TIP3    H238165   5.221   3.792   3.459 -1.0222 -1.7314 -0.3283
 5536TIP3   OH238166   3.077   2.556   2.901 -0.8056 -0.1103 -0.2119
 5536TIP3    H138167   3.137   2.506   2.957 -1.8334 -0.3836  0.7010
 5536TIP3    H238168   3.133   2.616   2.852  0.1873 -0.2658  0.6969
 5537TIP3   OH238169   5.357   0.304   8.353  0.1018 -0.1432 -0.0659
 5537TIP3    H138170   5.382   0.386   8.309  0.6147  0.0441  0.5506
 5537TIP3    H238171   5.357   0.327   8.447  1.5840 -1.1746  0.2233
 5538TIP3   OH238172   0.983   1.905   1.061 -0.1864  0.8327  0.0234
 5538TIP3    H138173   1.038   1.976   1.029 -0.5220  0.2042 -2.0977
 5538TIP3    H238174   0.894   1.930   1.034 -0.4170  0.0205  0.0086
 5539TIP3   OH238175   6.195   3.227   2.302 -0.2243  0.5345 -0.2929
 5539TIP3    H138176   6.179   3.304   2.247  0.1678  1.2641  0.5999
 5539TIP3    H238177   6.147   3.156   2.258 -0.9457  1.3726 -0.8924
 5540TIP3   OH238178   0.433   6.442   0.255  0.0384 -0.0783 -0.5805
 5540TIP3    H138179   0.403   6.532   0.240 -0.5313  0.0471  1.1702
 5540TIP3    H238180   0.386   6.391   0.189 -0.9939  0.6670 -0.4529
 5541TIP3   OH238181   3.523   2.680   8.212  0.3010  0.4167 -0.7214
 5541TIP3    H138182   3.567   2.764   8.201  0.1812  0.4779 -0.7315
 5541TIP3    H238183   3.513   2.670   8.307 -1.1323  1.1645 -0.7702
 5542TIP3   OH238184   6.047   1.394   2.082  0.5019  0.1555 -0.0620
 5542TIP3    H138185   6.130   1.347   2.076  0.4727  0.0244  0.5040
 5542TIP3    H238186   6.017   1.402   1.991  0.1856 -1.4961 -0.1222
 5543TIP3   OH238187   4.501   1.717   7.603 -0.5172 -0.5003 -0.1495
 5543TIP3    H138188   4.538   1.786   7.548  0.4087 -0.4527  0.5040
 5543TIP3    H238189   4.409   1.713   7.579 -0.1936 -0.2790 -1.4813
 5544TIP3   OH238190   2.358   2.925   1.655  0.1926  0.1389  0.1002
 5544TIP3    H138191   2.431   2.976   1.621 -1.4730  1.3152 -1.9146
 5544TIP3    H238192   2.305   2.904   1.578 -0.6568 -2.2899  1.2471
 5545TIP3   OH238193   2.167   3.986   1.697 -0.2663  0.1746  0.2903
 5545TIP3    H138194   2.180   3.910   1.753  0.6978 -0.0790 -0.2337
 5545TIP3    H238195   2.086   3.969   1.650  1.2659 -1.8975 -1.8342
 5546TIP3   OH238196   2.721   5.801   8.289  0.6602  0.5746  0.1488
 5546TIP3    H138197   2.773   5.829   8.213  2.4388 -1.6038  0.4675
 5546TIP3    H238198   2.763   5.845   8.363  1.8279 -0.8040  0.3473
 5547TIP3   OH238199   1.062   1.559   1.112  0.0773 -0.4566 -0.3716
 5547TIP3    H138200   1.031   1.473   1.085 -3.7425  0.7800 -0.5074
 5547TIP3    H238201   1.039   1.617   1.039  0.0714  1.0749  0.7839
 5548TIP3   OH238202   6.301   6.416   7.762  0.0224 -0.1336  0.0611
 5548TIP3    H138203   6.230   6.353   7.748  0.0332 -0.1832  0.2293
 5548TIP3    H238204   6.373   6.364   7.796  0.9526 -0.5016 -2.2963
 5549TIP3   OH238205   3.361   6.850   0.223  0.1066  0.0583  0.3191
 5549TIP3    H138206   3.289   6.894   0.179 -0.0192  3.0498  3.1603
 5549TIP3    H238207   3.322   6.814   0.303  1.8655  3.3342  2.8654
 5550TIP3   OH238208   5.332   2.335   8.361 -0.1069  0.3362  0.1348
 5550TIP3    H138209   5.355   2.270   8.427 -0.8166  0.4137  0.4711
 5550TIP3    H238210   5.414   2.380   8.342  0.6759 -1.4735 -1.0407
 5551TIP3   OH238211   5.238   3.436   7.363 -0.2152  0.2268 -0.2412
 5551TIP3    H138212   5.188   3.402   7.289 -0.6972 -1.0546  0.6363
 5551TIP3    H238213   5.179   3.499   7.405 -0.6874 -0.4285  0.1148
 5552TIP3   OH238214   0.546   2.633   1.450 -0.1141  0.0158  0.0009
 5552TIP3    H138215   0.520   2.607   1.362  0.0981 -0.6268  0.1204
 5552TIP3    H238216   0.592   2.716   1.439  0.1017 -0.1713 -0.5230
 5553TIP3   OH238217   1.409   6.725   2.208 -0.2187  0.0133 -0.1137
 5553TIP3    H138218   1.472   6.679   2.152 -0.1974 -1.3806  1.0094
 5553TIP3    H238219   1.332   6.669   2.207 -0.3265  0.1319  0.9954
 5554TIP3   OH238220   0.421   4.233   8.551  0.0223 -0.2248 -0.4263
 5554TIP3    H138221   0.416   4.327   8.538 -0.4985 -0.1923 -0.0086
 5554TIP3    H238222   0.403   4.220   8.644  2.0411 -0.5908 -0.0329
 5555TIP3   OH238223   3.936   2.632   2.572 -0.0223  0.0740 -0.1642
 5555TIP3    H138224   3.877   2.576   2.522  0.3581 -0.0107 -0.5286
 5555TIP3    H238225   3.910   2.621   2.663  0.9435 -1.8015 -0.0628
 5556TIP3   OH238226   4.535   1.787   0.655 -0.1026  0.0971  0.8305
 5556TIP3    H138227   4.598   1.730   0.611 -0.9706 -1.0147  0.9821
 5556TIP3    H238228   4.563   1.876   0.632  0.8369 -0.4019 -0.0295
 5557TIP3   OH238229   3.804   0.957   0.404  0.1991 -0.2102  0.7442
 5557TIP3    H138230   3.830   1.007   0.482  0.5135 -1.1406  1.2546
 5557TIP3    H238231   3.883   0.908   0.380 -0.3200 -1.0383  0.7106
 5558TIP3   OH238232   6.382   3.353   2.458 -0.2160  0.3865 -0.7867
 5558TIP3    H138233   6.321   3.294   2.415 -0.2259  0.5964 -1.0641
 5558TIP3    H238234   6.380   3.433   2.405  0.2529  0.4146 -0.7657
 5559TIP3   OH238235   4.869   3.147   1.952 -0.3041  0.4365  0.1645
 5559TIP3    H138236   4.784   3.185   1.932 -0.3769  0.1122 -0.1686
 5559TIP3    H238237   4.923   3.167   1.875 -1.2907 -2.9632 -1.6532
 5560TIP3   OH238238   5.682   1.797   1.971  0.3274 -0.2189  0.6486
 5560TIP3    H138239   5.673   1.738   2.046  1.5022 -3.2813 -1.4276
 5560TIP3    H238240   5.763   1.768   1.928  0.3564  2.2452 -1.1545
 5561TIP3   OH238241   0.311   5.626   3.048 -0.2042 -0.1489 -0.3983
 5561TIP3    H138242   0.290   5.536   3.025 -0.4348 -0.5063  1.0754
 5561TIP3    H238243   0.399   5.622   3.085  0.3943  0.4909 -1.7083
 5562TIP3   OH238244   0.365   1.237   2.240  0.4336  0.0131  0.1000
 5562TIP3    H138245   0.460   1.241   2.249  0.3875  0.1284  0.5791
 5562TIP3    H238246   0.349   1.239   2.145  0.8756  0.8660  0.0325
 5563TIP3   OH238247   6.241   4.981   8.530 -0.8423 -0.4929 -0.2789
 5563TIP3    H138248   6.260   4.893   8.561  0.5065 -0.5537 -1.1873
 5563TIP3    H238249   6.240   4.974   8.435  1.9446  0.8901 -0.5324
 5564TIP3   OH238250   4.142   2.827   8.451 -0.0682 -0.2011  0.2226
 5564TIP3    H138251   4.094   2.789   8.378  1.5208 -0.5648 -0.6857
 5564TIP3    H238252   4.121   2.771   8.525 -1.2240 -0.1900 -0.0773
 5565TIP3   OH238253   3.462   2.421   7.335 -0.8023  0.0552 -0.2616
 5565TIP3    H138254   3.460   2.512   7.366 -0.7052 -0.5923  1.7915
 5565TIP3    H238255   3.536   2.418   7.275 -0.4876  1.2383  0.0378
 5566TIP3   OH238256   3.290   5.362   2.732  0.1650 -0.2481  0.1401
 5566TIP3    H138257   3.238   5.397   2.804  0.9390  0.1963  0.4938
 5566TIP3    H238258   3.265   5.415   2.657 -0.0168 -0.1546  0.2647
 5567TIP3   OH238259   4.186   6.522   2.090  0.1798  0.0090 -0.1969
 5567TIP3    H138260   4.164   6.461   2.160  1.0446  0.0591  0.1267
 5567TIP3    H238261   4.193   6.607   2.133 -1.4473  0.4552 -0.7125
 5568TIP3   OH238262   1.198   2.715   0.848 -0.3199  0.3113 -0.7112
 5568TIP3    H138263   1.123   2.768   0.819  0.3006  1.6396  0.0152
 5568TIP3    H238264   1.274   2.760   0.811  0.2210 -0.1578 -0.1756
 5569TIP3   OH238265   0.958   5.177   8.500  0.8913 -0.1810  0.2185
 5569TIP3    H138266   1.015   5.101   8.495  1.0964  0.0795 -2.3561
 5569TIP3    H238267   0.992   5.238   8.435  0.0527  1.6643  1.4241
 5570TIP3   OH238268   1.204   0.112   2.796  0.1579 -0.3858 -0.2603
 5570TIP3    H138269   1.233   0.103   2.706  0.5064 -1.1592 -0.0726
 5570TIP3    H238270   1.178   0.204   2.803  1.2121 -0.0214 -0.8326
 5571TIP3   OH238271   4.095   1.287   0.268  0.0334  0.4681 -0.1399
 5571TIP3    H138272   4.076   1.381   0.267 -0.3854  0.4123  1.2885
 5571TIP3    H238273   4.013   1.246   0.294  0.7311 -0.1350  1.2039
 5572TIP3   OH238274   2.177   3.181   8.290 -0.0538 -0.1909 -0.0713
 5572TIP3    H138275   2.227   3.190   8.209 -1.1342  1.5797 -0.5800
 5572TIP3    H238276   2.225   3.233   8.355  0.0370 -0.4548  0.0795
 5573TIP3   OH238277   2.603   5.821   0.479  0.2445 -0.2944  0.5833
 5573TIP3    H138278   2.693   5.806   0.452  1.6386  0.5066  4.1911
 5573TIP3    H238279   2.599   5.914   0.502 -1.7571 -0.1349 -0.1698
 5574TIP3   OH238280   2.084   3.206   2.133 -0.5260 -0.0106 -0.2446
 5574TIP3    H138281   2.025   3.225   2.205 -0.0458 -0.1963  0.2064
 5574TIP3    H238282   2.169   3.242   2.162 -0.5170  0.6672 -1.0732
 5575TIP3   OH238283   3.720   4.625   7.907  0.5550  0.1951  0.5069
 5575TIP3    H138284   3.722   4.530   7.918 -2.1492  0.1007  0.8712
 5575TIP3    H238285   3.671   4.639   7.826  0.0263  1.2771  0.9926
 5576TIP3   OH238286   3.256   3.027   0.795  0.3306 -0.2865 -0.2435
 5576TIP3    H138287   3.292   2.944   0.763  1.4515 -0.6335  1.8010
 5576TIP3    H238288   3.332   3.081   0.814 -0.3843  1.5798 -2.2498
 5577TIP3   OH238289   2.672   0.325   1.173 -0.0470 -0.1365 -0.2321
 5577TIP3    H138290   2.667   0.256   1.240 -1.3763  1.1077  1.0109
 5577TIP3    H238291   2.658   0.279   1.090 -1.0207 -1.3535  0.5713
 5578TIP3   OH238292   5.633   3.428   1.908 -0.2301  0.1472  0.4228
 5578TIP3    H138293   5.629   3.522   1.925  0.7317  0.3069 -0.1823
 5578TIP3    H238294   5.601   3.388   1.989  0.4143  0.9706  1.1038
 5579TIP3   OH238295   3.643   2.611   2.873 -0.1261  0.0458 -0.1773
 5579TIP3    H138296   3.616   2.521   2.853  0.2982 -0.1195 -0.0134
 5579TIP3    H238297   3.587   2.636   2.946  0.1450 -0.2871  0.1479
 5580TIP3   OH238298   5.092   0.395   0.504 -0.6580  0.2305 -0.0692
 5580TIP3    H138299   5.105   0.304   0.528  2.5172  0.0974 -1.6992
 5580TIP3    H238300   5.097   0.444   0.586 -0.6999 -0.9436  0.6419
 5581TIP3   OH238301   0.253   2.887   7.870 -0.6255 -0.1213 -0.4479
 5581TIP3    H138302   0.246   2.948   7.944  0.9398 -2.0062  1.3957
 5581TIP3    H238303   0.264   2.943   7.793  0.7132  1.9558  1.1452
 5582TIP3   OH238304   5.808   3.894   6.986  0.4019 -0.4070  0.0908
 5582TIP3    H138305   5.766   3.826   7.038  2.7674 -2.2097 -0.2296
 5582TIP3    H238306   5.735   3.937   6.941 -1.4240 -0.7020  2.5557
 5583TIP3   OH238307   6.149   4.638   2.237  0.0525 -0.6426 -0.1253
 5583TIP3    H138308   6.089   4.570   2.267 -0.8534  0.5437  0.8287
 5583TIP3    H238309   6.134   4.644   2.143 -0.2636 -1.3670 -0.1219
 5584TIP3   OH238310   3.409   3.583   1.610 -0.0538  0.0489 -0.2084
 5584TIP3    H138311   3.375   3.654   1.556  0.3710 -0.2309 -0.8556
 5584TIP3    H238312   3.467   3.627   1.673 -0.3865  0.3536 -0.1106
 5585TIP3   OH238313   4.667   1.603   0.492 -0.1527 -0.0965  0.7148
 5585TIP3    H138314   4.704   1.521   0.526  0.3247 -0.7916 -1.3495
 5585TIP3    H238315   4.602   1.575   0.427 -0.4301  1.1741  0.4164
 5586TIP3   OH238316   5.194   5.560   7.516  0.3430  0.5910 -0.4629
 5586TIP3    H138317   5.175   5.633   7.458  0.2592  0.9960  0.0655
 5586TIP3    H238318   5.172   5.482   7.465 -0.0480  0.9516 -0.8478
 5587TIP3   OH238319   0.588   2.931   2.680  0.2353  0.2452 -0.4314
 5587TIP3    H138320   0.493   2.942   2.679  0.3763  1.9602  0.5713
 5587TIP3    H238321   0.603   2.863   2.746 -0.3257 -0.5764 -1.1391
 5588TIP3   OH238322   0.762   0.765   8.574 -0.1830 -0.4696 -0.5964
 5588TIP3    H138323   0.779   0.673   8.554 -1.3293 -0.9045  0.2650
 5588TIP3    H238324   0.757   0.767   8.670 -2.2153  0.0566 -0.6689
 5589TIP3   OH238325   2.037   2.907   1.928 -0.1111  0.0914  0.1646
 5589TIP3    H138326   2.000   2.844   1.991 -1.1690  0.8024  0.2917
 5589TIP3    H238327   2.116   2.865   1.895 -0.1982 -0.8240  1.0697
 5590TIP3   OH238328   1.351   5.913   2.656 -0.0875  0.4390 -0.3573
 5590TIP3    H138329   1.285   5.888   2.720  0.5758  0.6943  0.4468
 5590TIP3    H238330   1.336   6.006   2.640 -0.1866  0.3997 -0.4925
 5591TIP3   OH238331   1.454   4.430   2.301  0.6247 -0.2164  0.1431
 5591TIP3    H138332   1.545   4.455   2.321  0.9809  0.3235 -1.9405
 5591TIP3    H238333   1.413   4.511   2.272 -0.6150 -0.4240  1.2430
 5592TIP3   OH238334   6.008   6.587   0.414  0.0963  0.0690 -0.4726
 5592TIP3    H138335   5.976   6.520   0.354  0.4576  1.5356 -2.3822
 5592TIP3    H238336   6.098   6.559   0.434 -0.3926 -1.0176  0.3515
 5593TIP3   OH238337   0.882   3.769   7.103 -0.2811  0.1593 -0.0038
 5593TIP3    H138338   0.916   3.755   7.192  0.4830  1.2218 -0.1057
 5593TIP3    H238339   0.953   3.742   7.045  1.6528  4.7429 -0.2091
 5594TIP3   OH238340   5.331   5.188   1.741  0.0449 -0.0188  0.4179
 5594TIP3    H138341   5.326   5.131   1.818  0.9786  0.0667  0.5492
 5594TIP3    H238342   5.395   5.146   1.684  0.0254  0.3941  0.0876
 5595TIP3   OH238343   2.944   1.779   0.789  0.4876 -0.8657  0.0970
 5595TIP3    H138344   2.898   1.759   0.870  0.0071 -1.0482 -0.2171
 5595TIP3    H238345   2.885   1.838   0.741 -0.2436 -2.4895 -1.0936
 5596TIP3   OH238346   5.524   5.359   2.593  0.5254 -0.3607 -0.0388
 5596TIP3    H138347   5.566   5.332   2.511  0.7807  1.8720 -0.7045
 5596TIP3    H238348   5.439   5.394   2.566 -0.0073 -0.9226  0.8426
 5597TIP3   OH238349   6.552   5.975   0.556 -0.1835 -0.0956 -0.8876
 5597TIP3    H138350   6.633   6.001   0.512 -0.4143 -0.5295 -1.5857
 5597TIP3    H238351   6.482   6.010   0.501 -0.4878  0.8415  0.0513
 5598TIP3   OH238352   2.177   1.559   0.323 -0.2734 -0.4502 -0.3227
 5598TIP3    H138353   2.221   1.476   0.341 -0.3297 -0.2511  0.7759
 5598TIP3    H238354   2.084   1.541   0.341 -0.2251 -0.0304  0.3936
 5599TIP3   OH238355   0.908   3.660   8.463  0.3204 -0.2690  0.1832
 5599TIP3    H138356   0.942   3.689   8.547  1.6012  1.9262 -0.9947
 5599TIP3    H238357   0.857   3.734   8.430  2.1795  0.1139 -2.1503
 5600TIP3   OH238358   0.573   6.143   1.398 -0.6739 -0.1830 -0.7236
 5600TIP3    H138359   0.667   6.127   1.394 -0.5292  0.4267  0.1366
 5600TIP3    H238360   0.539   6.071   1.451 -0.6650 -0.2754 -0.8422
 5601TIP3   OH238361   6.361   0.158   1.249  0.1707  0.4688 -0.4654
 5601TIP3    H138362   6.439   0.177   1.301 -0.3314  2.2974 -0.3365
 5601TIP3    H238363   6.391   0.094   1.184  1.1066 -0.9281  1.2241
 5602TIP3   OH238364   2.406   1.991   2.636  0.6023 -0.1039  0.4705
 5602TIP3    H138365   2.315   1.970   2.615  1.0922 -1.1952 -0.6846
 5602TIP3    H238366   2.401   2.039   2.719 -1.0257 -0.0140  0.3503
 5603TIP3   OH238367   1.357   0.871   2.091  0.0657  0.6593 -0.1578
 5603TIP3    H138368   1.432   0.931   2.091  0.0063  0.7552 -1.0318
 5603TIP3    H238369   1.308   0.895   2.012  0.7005 -1.3095 -1.2242
 5604TIP3   OH238370   3.289   3.238   1.205  0.2543  0.3336  0.3283
 5604TIP3    H138371   3.330   3.303   1.147  0.9600 -0.4578 -0.0739
 5604TIP3    H238372   3.219   3.287   1.249  0.9053  1.4336  0.2006
 5605TIP3   OH238373   6.845   3.278   0.142 -0.3235  0.4823  0.0349
 5605TIP3    H138374   6.815   3.308   0.228 -0.7229  0.6608 -0.1647
 5605TIP3    H238375   6.767   3.240   0.102 -0.2687  0.8927 -0.4660
 5606TIP3   OH238376   1.159   0.188   0.121  0.2263  0.3093  0.4664
 5606TIP3    H138377   1.138   0.117   0.182 -2.3085  0.6698  0.1465
 5606TIP3    H238378   1.123   0.160   0.037 -1.3363  2.1258  0.4427
 5607TIP3   OH238379   0.300   4.110   2.897  0.4549  0.3201  0.3186
 5607TIP3    H138380   0.365   4.049   2.862 -2.0141 -0.6357 -3.0684
 5607TIP3    H238381   0.341   4.196   2.887  1.2394 -0.2337 -1.7532
 5608TIP3   OH238382   1.113   6.326   8.491  0.4538  0.4153 -0.2021
 5608TIP3    H138383   1.200   6.349   8.458  1.2895 -2.6878 -0.4702
 5608TIP3    H238384   1.052   6.363   8.427  1.7491 -0.0960 -1.7876
 5609TIP3   OH238385   2.234   5.007   2.628 -0.1779  0.1124  0.4174
 5609TIP3    H138386   2.284   5.060   2.689 -0.8070 -1.1903  2.1488
 5609TIP3    H238387   2.143   5.027   2.648 -0.3971  0.2612 -0.6716
 5610TIP3   OH238388   1.963   1.044   2.062 -0.3507 -0.1225  0.2800
 5610TIP3    H138389   1.904   1.007   2.128  0.3263  1.6925  2.0156
 5610TIP3    H238390   1.979   0.973   2.000 -0.3626 -2.1979  2.5424
 5611TIP3   OH238391   1.447   0.883   7.207 -0.3246  0.5130  0.1364
 5611TIP3    H138392   1.532   0.842   7.223 -0.9844 -1.0938 -0.3024
 5611TIP3    H238393   1.467   0.977   7.201  1.3472  0.2155  0.4272
 5612TIP3   OH238394   1.830   5.972   0.497  0.3134  0.0873 -0.0314
 5612TIP3    H138395   1.831   5.999   0.405  0.7387 -0.5396 -0.2185
 5612TIP3    H238396   1.773   6.035   0.540 -0.8602 -0.3208 -0.9435
 5613TIP3   OH238397   0.142   2.561   0.125 -0.0912 -0.5559  0.2753
 5613TIP3    H138398   0.077   2.606   0.071 -0.0320  0.7813  1.2778
 5613TIP3    H238399   0.218   2.619   0.125  0.2930 -1.0399  0.9380
 5614TIP3   OH238400   2.287   2.596   1.543 -0.2291  0.4872 -0.1958
 5614TIP3    H138401   2.353   2.610   1.610  1.5649 -1.2744 -1.4757
 5614TIP3    H238402   2.226   2.669   1.553  1.2754  1.5493  1.7846
 5615TIP3   OH238403   2.477   6.138   1.654  0.6337 -0.0559  0.3215
 5615TIP3    H138404   2.501   6.190   1.732  0.8261  2.4180 -1.2609
 5615TIP3    H238405   2.560   6.120   1.611  0.5065 -1.2081  0.5335
 5616TIP3   OH238406   0.242   1.162   7.982 -0.2094 -0.2183  0.5377
 5616TIP3    H138407   0.322   1.162   8.034  0.6218  0.5885 -0.7133
 5616TIP3    H238408   0.230   1.252   7.954  0.5257 -0.8897 -2.3405
 5617TIP3   OH238409   6.170   5.129   0.450 -0.2048 -0.4160  0.3379
 5617TIP3    H138410   6.080   5.106   0.474 -1.3834  1.9682 -1.3543
 5617TIP3    H238411   6.170   5.225   0.448  1.6479 -0.3710 -2.1176
 5618TIP3   OH238412   5.055   2.808   1.114  0.1421 -0.3637  0.1683
 5618TIP3    H138413   5.017   2.728   1.150 -2.1180  0.2637 -0.6932
 5618TIP3    H238414   4.980   2.860   1.085  1.5969  1.6944 -0.1062
 5619TIP3   OH238415   5.280   1.124   8.283  0.1818 -0.2004  0.3541
 5619TIP3    H138416   5.272   1.082   8.369 -0.5947 -0.7013  0.0501
 5619TIP3    H238417   5.193   1.117   8.245  1.0309 -2.2511 -1.4993
 5620TIP3   OH238418   3.517   3.504   8.532  0.0798  0.3755  0.4709
 5620TIP3    H138419   3.534   3.598   8.528 -0.2127  0.4184  0.2225
 5620TIP3    H238420   3.575   3.473   8.602 -1.2163  1.0626  1.9338
 5621TIP3   OH238421   5.003   0.179   1.864  0.0959  0.2560  0.1983
 5621TIP3    H138422   4.998   0.275   1.865 -0.6772  0.2394  1.9989
 5621TIP3    H238423   4.922   0.151   1.821 -0.2792  0.4079  0.7956
 5622TIP3   OH238424   0.465   1.234   8.301 -0.5234  0.0959  0.4616
 5622TIP3    H138425   0.504   1.248   8.388  0.9070 -1.7783  0.1787
 5622TIP3    H238426   0.521   1.283   8.241 -0.3809 -0.1437  0.3967
 5623TIP3   OH238427   4.552   0.540   0.462 -0.3093 -0.4490 -0.3090
 5623TIP3    H138428   4.570   0.509   0.373  1.6162  1.5340 -0.6924
 5623TIP3    H238429   4.614   0.490   0.517 -0.5303 -0.6758 -0.2638
 5624TIP3   OH238430   1.352   5.734   1.456  0.4643 -0.4364  0.0711
 5624TIP3    H138431   1.390   5.685   1.382  1.7085 -1.9052  1.5904
 5624TIP3    H238432   1.424   5.786   1.489 -0.0237  0.0317  0.3970
 5625TIP3   OH238433   1.574   4.671   8.205 -0.3408 -0.4180 -0.2142
 5625TIP3    H138434   1.503   4.625   8.160 -1.4404  0.7604  0.2831
 5625TIP3    H238435   1.563   4.647   8.297 -1.0632  0.9934  0.0825
 5626TIP3   OH238436   1.408   6.276   1.500 -0.1813  0.4781  0.3020
 5626TIP3    H138437   1.456   6.271   1.583  1.0580 -1.3574 -0.4793
 5626TIP3    H238438   1.412   6.368   1.476 -0.5037  1.0500  2.2088
 5627TIP3   OH238439   5.522   1.298   2.933  0.1992 -0.1533 -0.4199
 5627TIP3    H138440   5.463   1.247   2.988 -0.3674  0.1194 -0.7758
 5627TIP3    H238441   5.507   1.265   2.845  0.6162 -0.1152 -0.5070
 5628TIP3   OH238442   1.303   0.444   8.514 -0.0635  0.2685  0.2420
 5628TIP3    H138443   1.260   0.430   8.598  1.2652 -1.5694  0.6720
 5628TIP3    H238444   1.355   0.523   8.527  0.5148 -0.2655  1.3469
 5629TIP3   OH238445   6.814   4.074   7.632 -0.2372 -0.1135  0.1813
 5629TIP3    H138446   6.900   4.115   7.627 -0.0091 -0.6293 -0.3220
 5629TIP3    H238447   6.756   4.132   7.583 -0.3122  0.5422  1.0189
 5630TIP3   OH238448   3.321   6.105   8.103 -0.2455  0.1439  0.0354
 5630TIP3    H138449   3.286   6.115   8.192 -0.2601 -0.3713  0.0921
 5630TIP3    H238450   3.413   6.084   8.116 -0.7546 -2.3678  0.0379
 5631TIP3   OH238451   2.576   1.176   8.561 -0.2022  0.2306 -0.0969
 5631TIP3    H138452   2.653   1.228   8.583  0.0835  0.4381 -1.5086
 5631TIP3    H238453   2.504   1.238   8.559 -0.3292  0.1261  0.6818
 5632TIP3   OH238454   1.047   3.904   8.104  0.7984  0.2930  0.6576
 5632TIP3    H138455   1.121   3.901   8.165 -0.3638 -1.1191  2.0572
 5632TIP3    H238456   1.021   3.813   8.092  0.2229  0.6435 -1.0192
 5633TIP3   OH238457   2.764   6.634   2.496 -0.4995  0.3801  0.1270
 5633TIP3    H138458   2.784   6.644   2.588 -0.0177  1.5952 -0.0892
 5633TIP3    H238459   2.777   6.541   2.478  1.1947  0.4461  0.8653
 5634TIP3   OH238460   4.490   1.199   8.503  0.0362  0.2586  0.0636
 5634TIP3    H138461   4.433   1.172   8.575  1.0554  1.5210  1.4066
 5634TIP3    H238462   4.554   1.128   8.494 -0.2609 -0.0290  0.2281
 5635TIP3   OH238463   0.140   0.141   0.768  0.0462 -0.0786  0.4594
 5635TIP3    H138464   0.201   0.192   0.713  1.3441 -3.0783 -1.1428
 5635TIP3    H238465   0.056   0.185   0.757  0.7629  0.8779 -2.0449
 5636TIP3   OH238466   5.178   6.302   1.288  0.5917  0.2742  0.0822
 5636TIP3    H138467   5.119   6.338   1.354  2.5069  1.5718  1.1788
 5636TIP3    H238468   5.161   6.354   1.210 -0.9763 -0.5973 -0.1942
 5637TIP3   OH238469   0.264   3.912   8.610 -0.4969 -0.0881 -0.0519
 5637TIP3    H138470   0.207   3.984   8.585 -1.1874 -0.7333 -0.3590
 5637TIP3    H238471   0.299   3.938   8.696 -1.3366  0.2589  0.1919
 5638TIP3   OH238472   6.522   2.687   0.268 -0.3592  0.9549  0.2930
 5638TIP3    H138473   6.556   2.645   0.189  2.8557  2.0601  0.9553
 5638TIP3    H238474   6.521   2.618   0.334 -3.9963 -0.2411 -0.7356
 5639TIP3   OH238475   5.060   2.493   3.512  0.0677  0.4549  0.1853
 5639TIP3    H138476   5.063   2.573   3.564  2.2278  1.8064 -1.8739
 5639TIP3    H238477   5.129   2.438   3.550  2.2316  1.7822 -1.6237
 5640TIP3   OH238478   2.729   2.732   1.578  0.1787 -0.6975 -0.0143
 5640TIP3    H138479   2.787   2.808   1.588  2.2752 -2.1402 -0.6546
 5640TIP3    H238480   2.669   2.756   1.508 -2.3206  2.1102  2.7421
 5641TIP3   OH238481   1.548   4.018   2.179  0.4315 -0.0107  0.1333
 5641TIP3    H138482   1.515   4.097   2.221  0.7012  0.7847 -1.0767
 5641TIP3    H238483   1.564   3.957   2.250  0.5801  1.1627  1.1374
 5642TIP3   OH238484   3.457   5.386   8.695  0.0060  0.1590  0.3631
 5642TIP3    H138485   3.476   5.292   8.698 -1.2234 -0.0707  2.3218
 5642TIP3    H238486   3.381   5.393   8.638  0.5430  0.0769 -0.3825
 5643TIP3   OH238487   3.337   5.885   0.216 -0.2042  0.4463  0.4589
 5643TIP3    H138488   3.379   5.903   0.132  0.4201 -0.5407  0.5503
 5643TIP3    H238489   3.243   5.884   0.196 -0.0486 -0.0984 -0.2973
 5644TIP3   OH238490   3.194   4.145   7.873  0.6988 -0.3129 -0.2305
 5644TIP3    H138491   3.154   4.084   7.811  2.3440 -0.6998 -0.9879
 5644TIP3    H238492   3.272   4.177   7.827  0.2605  1.8427  0.4229
 5645TIP3   OH238493   1.207   2.872   8.431  0.1486 -0.2202  0.2904
 5645TIP3    H138494   1.176   2.787   8.463 -2.5134  0.4346 -0.3143
 5645TIP3    H238495   1.169   2.936   8.491 -2.1731  0.7945 -2.0565
 5646TIP3   OH238496   4.478   4.883   1.781 -0.2041 -0.1488 -0.3317
 5646TIP3    H138497   4.534   4.871   1.704 -0.7042  0.3973 -0.7823
 5646TIP3    H238498   4.536   4.866   1.855  0.4359 -0.0704 -0.8081
 5647TIP3   OH238499   4.938   3.104   2.732  1.3488  0.0759  0.0249
 5647TIP3    H138500   5.013   3.092   2.791 -0.0687 -1.9765  1.5937
 5647TIP3    H238501   4.877   3.160   2.781  1.1110  0.2484 -0.4604
 5648TIP3   OH238502   4.479   1.708   2.838  0.2463  0.3231 -0.5504
 5648TIP3    H138503   4.448   1.644   2.902 -1.2506  0.6871 -0.8771
 5648TIP3    H238504   4.403   1.763   2.819  0.5833  0.1245 -2.7778
 5649TIP3   OH238505   6.181   3.345   0.384  0.0666  0.2011 -0.5334
 5649TIP3    H138506   6.271   3.377   0.388  0.4103 -0.5821 -1.5363
 5649TIP3    H238507   6.156   3.353   0.292 -1.7990  2.7079  0.0788
 5650TIP3   OH238508   1.028   4.323   0.183 -0.2280 -0.1910 -0.2546
 5650TIP3    H138509   0.939   4.312   0.216 -0.0880 -2.8996 -0.5771
 5650TIP3    H238510   1.084   4.311   0.260 -0.0844 -0.4064 -0.3917
 5651TIP3   OH238511   1.369   5.364   2.505 -0.0921 -0.6410 -0.4261
 5651TIP3    H138512   1.450   5.333   2.546 -0.6649 -1.0422  0.4204
 5651TIP3    H238513   1.397   5.435   2.447  0.6236  0.5646  1.3371
 5652TIP3   OH238514   1.190   6.118   1.449  0.3000  0.0103  0.0934
 5652TIP3    H138515   1.268   6.170   1.466 -0.5211  0.6870  2.1795
 5652TIP3    H238516   1.203   6.038   1.501  0.0714 -0.3788 -0.4320
 5653TIP3   OH238517   1.943   5.501   0.705 -0.2500  0.3082 -0.6123
 5653TIP3    H138518   1.961   5.460   0.790  1.3243 -0.1295 -1.1168
 5653TIP3    H238519   1.924   5.592   0.725  1.1838  0.4711  0.1560
 5654TIP3   OH238520   2.772   6.538   1.637 -0.2190 -0.1733  0.2062
 5654TIP3    H138521   2.846   6.593   1.666 -0.1560 -1.1991  2.1509
 5654TIP3    H238522   2.785   6.455   1.683 -1.5597 -1.0404 -0.9270
 5655TIP3   OH238523   0.385   1.709   0.793  0.1113 -0.8561 -0.0961
 5655TIP3    H138524   0.412   1.651   0.865  0.5299 -1.5294 -0.7784
 5655TIP3    H238525   0.444   1.784   0.800  0.0266 -0.8316  0.3747
 5656TIP3   OH238526   0.688   6.125   0.874  0.5779  0.0300 -0.3195
 5656TIP3    H138527   0.689   6.037   0.837 -1.2936  0.0806 -0.5772
 5656TIP3    H238528   0.708   6.113   0.966  0.6279 -0.6346 -0.4147
 5657TIP3   OH238529   0.798   1.128   1.174 -0.5004 -0.2066  0.2410
 5657TIP3    H138530   0.871   1.180   1.209  0.1030 -1.0494  0.2742
 5657TIP3    H238531   0.720   1.172   1.207 -0.0704  1.4124 -0.7672
 5658TIP3   OH238532   2.288   1.464   8.317 -0.1104 -0.2606 -0.4969
 5658TIP3    H138533   2.253   1.521   8.248 -2.5804 -0.3138  0.6113
 5658TIP3    H238534   2.289   1.519   8.395 -1.5030 -1.3754  0.3510
 5659TIP3   OH238535   2.642   4.045   2.099 -0.3770 -0.1600 -0.1907
 5659TIP3    H138536   2.718   4.007   2.145 -1.4368 -1.4295  0.5728
 5659TIP3    H238537   2.666   4.040   2.006 -0.6375 -3.2753 -0.1955
 5660TIP3   OH238538   1.852   6.153   0.280 -0.5266 -0.1795 -0.0981
 5660TIP3    H138539   1.840   6.240   0.242  1.5144  0.5769  0.8570
 5660TIP3    H238540   1.945   6.149   0.302 -0.5753 -2.6054 -0.0781
 5661TIP3   OH238541   2.690   4.117   1.816 -0.3217 -0.0632 -0.3426
 5661TIP3    H138542   2.597   4.140   1.808 -0.8814 -0.9701  2.4666
 5661TIP3    H238543   2.734   4.201   1.829 -1.3631  0.1470  2.4321
 5662TIP3   OH238544   1.185   5.327   8.337  0.3465 -0.1689 -0.0945
 5662TIP3    H138545   1.180   5.414   8.376 -0.6636 -0.5355  0.6371
 5662TIP3    H238546   1.113   5.324   8.274  0.4775 -0.4187 -0.2366
 5663TIP3   OH238547   0.232   0.910   7.768  0.0412 -0.3213  0.3167
 5663TIP3    H138548   0.293   0.954   7.709  0.1544  1.6086  1.8003
 5663TIP3    H238549   0.271   0.917   7.854 -2.2376  1.0065  1.3346
 5664TIP3   OH238550   4.546   2.151   0.119  0.1489 -0.4716 -0.0205
 5664TIP3    H138551   4.612   2.109   0.062 -0.5835 -0.6352 -0.7673
 5664TIP3    H238552   4.493   2.203   0.059  0.2112  0.4750  0.7190
 5665TIP3   OH238553   6.753   4.024   1.645 -0.0576 -0.5393 -0.1716
 5665TIP3    H138554   6.673   4.070   1.618  0.8992  1.2230 -0.1879
 5665TIP3    H238555   6.743   4.013   1.740 -0.4676 -0.6136 -0.2233
 5666TIP3   OH238556   3.831   1.937   0.521  0.0197  0.0044  0.1198
 5666TIP3    H138557   3.807   1.958   0.611 -0.4529  0.9017 -0.2070
 5666TIP3    H238558   3.919   1.900   0.527  1.1181  2.5115  0.6884
 5667TIP3   OH238559   0.340   3.370   1.261 -0.1436 -0.0737 -0.2180
 5667TIP3    H138560   0.263   3.390   1.209  0.9051  2.6319 -0.9294
 5667TIP3    H238561   0.310   3.373   1.352 -1.0254  0.1377 -0.5085
 5668TIP3   OH238562   0.102   0.987   0.950  0.1991  0.4015  0.1163
 5668TIP3    H138563   0.018   1.016   0.916 -0.3415 -0.7326  0.4428
 5668TIP3    H238564   0.103   0.893   0.936  1.8079  0.5054 -0.6995
 5669TIP3   OH238565   4.956   4.291   2.486  0.6454  0.2787 -0.4678
 5669TIP3    H138566   4.924   4.202   2.500 -0.3029  0.5205 -1.0295
 5669TIP3    H238567   4.877   4.344   2.477  1.1851  1.3341  0.7166
 5670TIP3   OH238568   5.475   6.026   7.233 -0.2190  0.1245 -0.3796
 5670TIP3    H138569   5.526   6.103   7.210  0.4360  0.5070  2.0292
 5670TIP3    H238570   5.436   6.048   7.318 -0.7239 -1.8668 -0.0476
 5671TIP3   OH238571   3.189   0.626   0.642 -0.0791  0.3387 -0.0202
 5671TIP3    H138572   3.265   0.568   0.645 -1.1744 -1.0913  0.9714
 5671TIP3    H238573   3.205   0.689   0.713 -0.0596 -0.2953  0.5518
 5672TIP3   OH238574   6.126   1.323   0.343  0.2144 -0.2685  0.6966
 5672TIP3    H138575   6.136   1.414   0.319 -0.2091  0.3282  2.5778
 5672TIP3    H238576   6.041   1.297   0.309  1.7042 -1.0634 -2.8264
 5673TIP3   OH238577   2.359   5.683   0.014  0.0982 -0.2617  0.2877
 5673TIP3    H138578   2.363   5.738   0.092 -1.7301 -0.8836  0.8527
 5673TIP3    H238579   2.270   5.693  -0.019 -0.4716 -3.1461  0.6605
 5674TIP3   OH238580   0.374   3.910   3.179 -0.2470  0.2962 -0.0186
 5674TIP3    H138581   0.435   3.984   3.180 -0.6041  0.6316 -1.2513
 5674TIP3    H238582   0.287   3.951   3.184 -0.5094  0.0762 -2.0832
 5675TIP3   OH238583   3.150   1.153   0.406 -0.1106  0.4619 -0.0503
 5675TIP3    H138584   3.195   1.169   0.323 -0.3046  1.3434 -0.0020
 5675TIP3    H238585   3.058   1.172   0.387 -0.4338 -1.0148 -0.0673
 5676TIP3   OH238586   2.439   4.039   8.042  0.2749  0.2543  0.3965
 5676TIP3    H138587   2.446   4.022   7.948  1.9033 -3.8083  1.0272
 5676TIP3    H238588   2.519   4.087   8.065 -1.1344  3.2218 -0.4726
 5677TIP3   OH238589   3.273   4.960   0.440 -0.0782  0.2015  0.2304
 5677TIP3    H138590   3.284   4.958   0.535  1.3047 -0.7514  0.0832
 5677TIP3    H238591   3.358   4.991   0.408 -0.8246  1.3807 -0.6728
 5678TIP3   OH238592   5.740   4.340   1.249  0.2616  0.5090  0.4029
 5678TIP3    H138593   5.693   4.298   1.320  0.1024  1.2910  0.7768
 5678TIP3    H238594   5.832   4.332   1.272  0.2602 -0.1189  0.1907
 5679TIP3   OH238595   1.653   6.226   2.580  0.1614 -0.6176  0.1114
 5679TIP3    H138596   1.724   6.243   2.519 -0.7153  1.1464 -0.4972
 5679TIP3    H238597   1.576   6.215   2.524 -1.0321  2.8899  0.7837
 5680TIP3   OH238598   1.353   3.162   8.020  0.2835 -0.2447  0.0786
 5680TIP3    H138599   1.396   3.116   7.947  0.4840 -1.4330  0.9271
 5680TIP3    H238600   1.401   3.134   8.098 -0.4840  0.3259  0.7726
 5681TIP3   OH238601   6.391   6.789   2.102 -0.3033 -0.0245 -0.6466
 5681TIP3    H138602   6.339   6.865   2.076  0.0262  0.0486 -1.1118
 5681TIP3    H238603   6.344   6.752   2.176 -0.2714  0.8470 -0.1779
 5682TIP3   OH238604   1.230   3.166   2.149  0.2436  0.1540  0.1379
 5682TIP3    H138605   1.161   3.134   2.091  0.9676 -0.3237 -0.4928
 5682TIP3    H238606   1.185   3.220   2.214 -0.7864 -0.6447  0.1079
 5683TIP3   OH238607   6.496   2.312   3.104  0.3147 -0.1159  0.6412
 5683TIP3    H138608   6.590   2.321   3.113  0.4607 -0.6406 -0.2141
 5683TIP3    H238609   6.466   2.398   3.074  0.5302  0.0231  0.8240
 5684TIP3   OH238610   2.494   4.360   1.973 -0.4738  0.3883  0.1041
 5684TIP3    H138611   2.548   4.376   1.897  0.7725 -0.4167  0.7901
 5684TIP3    H238612   2.437   4.437   1.979  0.0351  0.8769 -1.0857
 5685TIP3   OH238613   6.310   2.384   2.736  0.2085  0.0135  0.2313
 5685TIP3    H138614   6.352   2.350   2.656 -1.6000  1.5051 -1.4664
 5685TIP3    H238615   6.336   2.476   2.739  0.1630  0.0007  1.3318
 5686TIP3   OH238616   5.386   6.162   7.489 -0.8153 -0.3545  0.4889
 5686TIP3    H138617   5.362   6.192   7.576 -1.9986 -0.0098  0.0598
 5686TIP3    H238618   5.390   6.242   7.436 -0.4743 -0.5978  0.1329
 5687TIP3   OH238619   5.906   3.939   2.384  0.1757 -0.2557 -0.3922
 5687TIP3    H138620   5.887   4.030   2.358  1.3964  0.4303  1.0054
 5687TIP3    H238621   5.914   3.942   2.479 -2.6354 -2.4161  0.0429
 5688TIP3   OH238622   4.150   1.791   2.438 -0.4044 -0.0236  0.3420
 5688TIP3    H138623   4.087   1.833   2.380 -0.9326 -0.9204  0.2613
 5688TIP3    H238624   4.194   1.726   2.383  0.1137  0.1170  0.5792
 5689TIP3   OH238625   2.193   2.129   3.720 -0.4585  0.0260  0.3473
 5689TIP3    H138626   2.208   2.085   3.636  1.2781  0.7632  0.2339
 5689TIP3    H238627   2.107   2.171   3.709 -0.7400 -0.7439 -0.6543
 5690TIP3   OH238628   5.656   3.410   1.627 -0.5885  0.0097 -0.1858
 5690TIP3    H138629   5.749   3.429   1.618 -0.2309 -1.2687  0.4977
 5690TIP3    H238630   5.641   3.406   1.721 -0.4970 -3.2651 -0.1957
 5691TIP3   OH238631   3.506   4.820   0.284  0.1617 -0.0373  0.1942
 5691TIP3    H138632   3.538   4.835   0.373 -1.0006 -0.9612  0.8027
 5691TIP3    H238633   3.432   4.760   0.295 -1.2073  1.2740 -1.2118
 5692TIP3   OH238634   5.768   1.308   2.092 -0.0216  0.2044 -0.1347
 5692TIP3    H138635   5.830   1.334   2.025  1.7624 -0.1622  1.2850
 5692TIP3    H238636   5.822   1.294   2.170 -1.9348  0.1243  1.2434
 5693TIP3   OH238637   0.610   4.718   0.779  0.3379  0.1017 -0.1014
 5693TIP3    H138638   0.529   4.767   0.791  1.2726  1.6731 -0.0362
 5693TIP3    H238639   0.679   4.784   0.779  1.5788 -1.1452 -0.7613
 5694TIP3   OH238640   5.645   5.385   1.895 -0.6864 -0.2573 -0.6127
 5694TIP3    H138641   5.726   5.428   1.868  0.5531 -0.8067  1.9438
 5694TIP3    H238642   5.585   5.457   1.912  0.3146  0.3473  0.5080
 5695TIP3   OH238643   0.328   1.949   2.579 -0.0508 -0.0562  0.1972
 5695TIP3    H138644   0.234   1.946   2.593 -0.0369  0.1787  0.3590
 5695TIP3    H238645   0.365   1.919   2.662  0.0218  0.3393  0.3099
 5696TIP3   OH238646   1.182   3.619   8.370 -0.2545 -0.1090  0.1143
 5696TIP3    H138647   1.106   3.622   8.428 -1.7876  0.2753 -1.8261
 5696TIP3    H238648   1.165   3.544   8.313  1.0810 -0.2983 -0.0714
 5697TIP3   OH238649   6.081   0.552   0.211  0.4802  0.2791  0.3273
 5697TIP3    H138650   6.051   0.500   0.285 -2.2132 -0.1684 -0.9405
 5697TIP3    H238651   6.034   0.636   0.220 -0.0546  0.1373 -0.9387
 5698TIP3   OH238652   1.111   2.268   8.054  0.3795 -0.7352  0.4884
 5698TIP3    H138653   1.156   2.238   7.975  1.0164 -0.4296  0.7246
 5698TIP3    H238654   1.020   2.240   8.042  0.7589 -1.9810  0.3041
 5699TIP3   OH238655   1.208   4.996   1.051  0.2511  0.0362 -0.1488
 5699TIP3    H138656   1.138   4.949   1.006 -0.8144  1.6292 -0.2162
 5699TIP3    H238657   1.167   5.075   1.085  1.3921 -0.2776  2.2019
 5700TIP3   OH238658   5.119   5.584   0.855 -0.2931  1.0302 -0.8381
 5700TIP3    H138659   5.032   5.609   0.887 -0.4244 -0.9458  0.4976
 5700TIP3    H238660   5.165   5.667   0.843 -1.0485  2.0160  2.2626
 5701TIP3   OH238661   4.358   4.914   8.545 -0.1362 -0.0203  0.2060
 5701TIP3    H138662   4.416   4.860   8.599 -1.5545 -0.4100  1.4268
 5701TIP3    H238663   4.280   4.859   8.532 -1.9500  1.8792  2.1045
 5702TIP3   OH238664   3.387   0.094   2.134 -0.0340 -0.1179 -0.0558
 5702TIP3    H138665   3.376  -0.001   2.143 -1.3733  0.0098 -0.0797
 5702TIP3    H238666   3.312   0.122   2.082 -0.7700  1.2052  1.6048
 5703TIP3   OH238667   3.665   6.152   0.389 -0.4146  0.3918 -0.4015
 5703TIP3    H138668   3.578   6.130   0.356 -0.1777  0.0578 -0.8231
 5703TIP3    H238669   3.689   6.078   0.445 -0.8884  1.0377  0.6928
 5704TIP3   OH238670   4.802   3.288   0.387 -0.4795  0.0759  0.0642
 5704TIP3    H138671   4.724   3.238   0.412 -0.1215  0.3571  1.8019
 5704TIP3    H238672   4.781   3.379   0.409 -0.0978  0.3248 -0.5625
 5705TIP3   OH238673   6.033   3.740   6.861  0.1153 -0.7097  0.1913
 5705TIP3    H138674   5.977   3.668   6.832 -1.9799  0.3300  1.4340
 5705TIP3    H238675   5.972   3.807   6.893  2.0826  0.4298  1.7923
 5706TIP3   OH238676   4.967   0.891   7.904 -0.1431  0.0562 -0.1773
 5706TIP3    H138677   4.956   0.947   7.827  2.5497  1.6389  0.4465
 5706TIP3    H238678   5.023   0.819   7.873 -2.3868 -1.6019 -0.6075
 5707TIP3   OH238679   0.011   2.473   2.148 -0.4876 -0.5060  0.5402
 5707TIP3    H138680  -0.020   2.494   2.060  0.2842  0.0288  0.3848
 5707TIP3    H238681  -0.058   2.419   2.186 -1.5925  0.6386  0.2058
 5708TIP3   OH238682   3.885   2.841   0.185 -0.0117 -0.1565 -0.2004
 5708TIP3    H138683   3.967   2.798   0.209  0.1869  0.6438  0.6097
 5708TIP3    H238684   3.843   2.861   0.269 -0.2852  0.8506 -0.5610
 5709TIP3   OH238685   4.291   2.109   0.543 -0.2907 -0.1681 -0.8615
 5709TIP3    H138686   4.313   2.071   0.628 -1.6839  0.4838 -0.1677
 5709TIP3    H238687   4.364   2.167   0.522  0.7074 -1.3505 -0.7846
 5710TIP3   OH238688   4.106   4.858   2.509 -0.0046  0.8789  0.6159
 5710TIP3    H138689   4.036   4.922   2.495  1.4249  2.0977 -1.6200
 5710TIP3    H238690   4.061   4.775   2.519 -1.7953  1.6557 -0.5441
 5711TIP3   OH238691   2.225   0.567   0.860  0.3107  0.0519 -0.1728
 5711TIP3    H138692   2.314   0.590   0.832 -0.0006 -0.4905 -1.6646
 5711TIP3    H238693   2.236   0.488   0.912  0.7849  0.4756  0.3862
 5712TIP3   OH238694   3.312   6.641   2.398 -0.1268  0.0304 -0.0016
 5712TIP3    H138695   3.296   6.547   2.395  1.7300 -0.3473 -4.0698
 5712TIP3    H238696   3.402   6.650   2.431 -0.6380  0.5326  1.3456
 5713TIP3   OH238697   2.905   5.757   2.234 -0.0596 -0.5301  0.1579
 5713TIP3    H138698   2.894   5.812   2.157 -1.4355  0.6121  1.1274
 5713TIP3    H238699   2.818   5.718   2.249  0.4868 -1.6844  0.4332
 5714TIP3   OH238700   6.113   1.571   0.263 -0.1194  0.0839 -0.1673
 5714TIP3    H138701   6.153   1.650   0.299 -1.2115  1.4519 -1.7799
 5714TIP3    H238702   6.019   1.587   0.269 -0.3602 -1.0519 -0.6186
 5715TIP3   OH238703   4.347   3.599   1.833  0.4646  0.2501  0.0865
 5715TIP3    H138704   4.358   3.505   1.819 -0.5554  0.0705  0.3840
 5715TIP3    H238705   4.303   3.605   1.918 -1.9268  0.8468 -1.1288
 5716TIP3   OH238706   2.353   5.148   0.342  0.8690  0.0178  0.3232
 5716TIP3    H138707   2.447   5.165   0.350  1.6098 -3.4503  0.5152
 5716TIP3    H238708   2.323   5.213   0.279  2.8355  2.7982  2.0276
 5717TIP3   OH238709   0.661   2.983   8.208  0.1184  0.0192 -0.4078
 5717TIP3    H138710   0.591   3.043   8.233  0.3268  0.4513 -0.8462
 5717TIP3    H238711   0.668   2.922   8.282 -0.1854  0.4531 -0.0151
 5718TIP3   OH238712   4.494   6.654   0.208 -0.3106  0.5037 -0.2528
 5718TIP3    H138713   4.517   6.719   0.274  2.7809  0.8183 -1.4642
 5718TIP3    H238714   4.522   6.570   0.245 -1.5861  0.2275  0.1181
 5719TIP3   OH238715   1.697   1.857   1.455 -0.7551 -0.5803  0.3380
 5719TIP3    H138716   1.635   1.788   1.429 -1.4230 -0.6915  2.0236
 5719TIP3    H238717   1.641   1.928   1.486 -0.0880 -0.8388  2.2765
 5720TIP3   OH238718   2.713   1.305   2.937  0.3934  0.3296  0.6403
 5720TIP3    H138719   2.669   1.250   3.001 -3.4246 -0.5915 -2.3140
 5720TIP3    H238720   2.740   1.245   2.867  2.0861  1.5273  0.1905
 5721TIP3   OH238721   4.650   2.665   0.213 -0.0127  0.3049  0.0070
 5721TIP3    H138722   4.632   2.751   0.252  0.2376  0.9709 -1.3067
 5721TIP3    H238723   4.636   2.677   0.119  0.1738 -1.0579 -0.2195
 5722TIP3   OH238724   4.716   5.872   2.828  0.7564 -0.5880  0.1626
 5722TIP3    H138725   4.664   5.809   2.778  0.2947 -1.2484  1.4065
 5722TIP3    H238726   4.652   5.936   2.859  1.3590  1.1366 -1.9247
 5723TIP3   OH238727   6.138   1.735   8.434 -0.1977 -0.2721  0.1003
 5723TIP3    H138728   6.158   1.750   8.526 -0.0244 -0.2887  0.0673
 5723TIP3    H238729   6.119   1.823   8.400  2.3814  0.1835 -0.4537
 5724TIP3   OH238730   1.084   5.555   8.465 -0.6980  0.4602  0.6985
 5724TIP3    H138731   1.002   5.533   8.510  0.0159 -1.4721  1.1564
 5724TIP3    H238732   1.113   5.636   8.506 -0.5865 -0.6896  3.0715
 5725TIP3   OH238733   3.959   2.560   7.265 -0.8111  0.1431  0.1801
 5725TIP3    H138734   3.953   2.638   7.320 -0.7717  0.3459 -0.1017
 5725TIP3    H238735   4.053   2.544   7.255 -0.7970  0.5556 -0.4513
 5726TIP3   OH238736   2.088   1.199   8.285  0.6639 -0.1396  0.4567
 5726TIP3    H138737   2.103   1.118   8.237 -1.3621 -0.3425  0.0597
 5726TIP3    H238738   2.074   1.266   8.217 -0.6319 -0.1044  0.7221
 5727TIP3   OH238739   0.261   0.021   8.126 -0.1311 -0.0161 -0.1506
 5727TIP3    H138740   0.224   0.034   8.038  1.9193 -0.1848 -1.1033
 5727TIP3    H238741   0.275   0.109   8.159  4.0214  0.4060 -2.3051
 5728TIP3   OH238742   5.737   4.168   0.248 -0.0079 -0.1263 -0.1452
 5728TIP3    H138743   5.816   4.209   0.283 -0.2145 -1.1103  1.6350
 5728TIP3    H238744   5.765   4.127   0.167  1.2806 -0.2471  0.3344
 5729TIP3   OH238745   3.385   4.432   7.860 -0.7519 -0.1066  0.2550
 5729TIP3    H138746   3.409   4.359   7.803 -0.1518 -1.2555  1.8791
 5729TIP3    H238747   3.399   4.510   7.808 -0.6212 -1.1113 -1.2813
 5730TIP3   OH238748   0.103   0.603   7.355  0.2535 -0.1581  0.0627
 5730TIP3    H138749   0.132   0.673   7.414 -0.3563  0.4514 -0.3313
 5730TIP3    H238750   0.010   0.621   7.342  0.3440 -0.3623 -0.9634
 5731TIP3   OH238751   4.709   4.193   0.394  0.1051  0.4862  0.8635
 5731TIP3    H138752   4.622   4.221   0.367 -0.1332 -0.0313  1.0756
 5731TIP3    H238753   4.700   4.174   0.488  0.6835  1.3524  1.1115
 5732TIP3   OH238754   4.428   3.008   8.608 -0.1199 -0.2649 -0.1768
 5732TIP3    H138755   4.335   2.999   8.631 -0.2065  0.0521 -0.3936
 5732TIP3    H238756   4.466   3.060   8.679  0.0008 -0.8125  0.1657
 5733TIP3   OH238757   2.784   4.046   7.733 -0.3879 -1.0515  0.0054
 5733TIP3    H138758   2.745   3.961   7.712 -0.7494 -0.8667 -0.0948
 5733TIP3    H238759   2.711   4.108   7.724 -0.1603 -0.7514  0.2132
 5734TIP3   OH238760   4.680   4.608   0.668  0.0408  0.0934 -0.6896
 5734TIP3    H138761   4.730   4.632   0.746  0.1830  1.6914 -1.2243
 5734TIP3    H238762   4.618   4.542   0.698  0.1483  0.6116  0.7502
 5735TIP3   OH238763   5.740   2.508   0.374 -0.3232  0.5877 -0.0678
 5735TIP3    H138764   5.784   2.585   0.410 -1.0912  1.3180 -0.6511
 5735TIP3    H238765   5.666   2.543   0.325  0.8967 -0.3103 -2.7452
 5736TIP3   OH238766   5.939   0.862   8.321  0.1465 -0.2468 -0.4108
 5736TIP3    H138767   5.967   0.880   8.231  1.2837 -1.8037 -0.3934
 5736TIP3    H238768   6.018   0.873   8.373 -0.5368  0.7672  0.4485
 5737TIP3   OH238769   2.103   5.923   0.086 -0.8105  0.1732 -0.5670
 5737TIP3    H138770   2.103   5.848   0.146 -0.4826  0.5076 -0.1462
 5737TIP3    H238771   2.022   5.913   0.036 -1.0631 -0.1376 -0.1096
 5738TIP3   OH238772   2.971   3.159   0.316  0.2888  0.3575 -0.1348
 5738TIP3    H138773   3.051   3.162   0.369  0.0763 -1.2389  0.3089
 5738TIP3    H238774   2.998   3.113   0.236  0.1406  1.0464 -0.5863
 5739TIP3   OH238775   2.282   1.730   7.905 -0.2185  0.3341  0.2312
 5739TIP3    H138776   2.362   1.771   7.937 -0.2923 -0.2006  1.1727
 5739TIP3    H238777   2.250   1.680   7.981  0.9520 -3.1309 -1.3214
 5740TIP3   OH238778   0.770   2.237   8.472  0.1608 -1.0002  0.2581
 5740TIP3    H138779   0.778   2.152   8.517 -0.7332 -1.0221  0.3919
 5740TIP3    H238780   0.680   2.266   8.491  0.2114 -0.3789 -0.4126
 5741TIP3   OH238781   0.844   3.721   1.177  0.0052  0.1104  0.0922
 5741TIP3    H138782   0.908   3.789   1.154 -1.8389  1.2907 -1.9963
 5741TIP3    H238783   0.870   3.645   1.126  1.8354 -0.7384  2.1205
 5742TIP3   OH238784   4.069   6.541   0.328 -0.4569  0.4297 -0.0697
 5742TIP3    H138785   4.139   6.606   0.338  0.6284 -0.9519  1.9291
 5742TIP3    H238786   3.989   6.593   0.316  0.7951  2.0489 -1.9853
 5743TIP3   OH238787   6.160   0.058   2.068 -0.3439 -0.2589  0.0961
 5743TIP3    H138788   6.116  -0.023   2.043 -0.2420 -0.2171 -0.2257
 5743TIP3    H238789   6.131   0.122   2.002 -0.2107 -0.1024  0.1891
 5744TIP3   OH238790   5.513   1.247   0.458 -0.3310  0.5459  0.0932
 5744TIP3    H138791   5.437   1.192   0.478 -0.7796  0.9326 -0.4957
 5744TIP3    H238792   5.540   1.283   0.542  1.2606 -2.1692  0.8731
 5745TIP3   OH238793   6.278   1.733   7.980  0.0076 -0.2611 -0.4699
 5745TIP3    H138794   6.334   1.723   8.058  1.2869 -0.3940 -1.3716
 5745TIP3    H238795   6.339   1.731   7.907 -1.2072 -0.4169 -1.5056
 5746TIP3   OH238796   1.201   2.239   1.050  0.0409  0.2640  0.3574
 5746TIP3    H138797   1.220   2.293   0.974  0.5037 -0.0475  0.2469
 5746TIP3    H238798   1.237   2.153   1.028 -1.7484 -0.4353  0.0315
 5747TIP3   OH238799   1.166   4.125   1.722  0.3642  0.3592 -0.2415
 5747TIP3    H138800   1.245   4.085   1.686  0.5570  0.6319 -0.1274
 5747TIP3    H238801   1.198   4.176   1.796  0.3475  1.9345 -1.2666
 5748TIP3   OH238802   0.376   5.645   2.783  0.4205 -0.5172 -0.5310
 5748TIP3    H138803   0.386   5.562   2.829  0.5825  1.0773  2.5821
 5748TIP3    H238804   0.295   5.682   2.818  1.4722  1.5736 -0.1737
 5749TIP3   OH238805   4.998   0.157   2.724  0.8188  0.1378  0.6020
 5749TIP3    H138806   4.991   0.194   2.636  1.9974  0.0879  0.4592
 5749TIP3    H238807   4.917   0.108   2.736  1.2433 -1.0861 -1.0472
 5750TIP3   OH238808   5.817   6.078   7.450  0.6152 -0.0158 -0.4211
 5750TIP3    H138809   5.835   5.992   7.412  3.3418  0.5430 -0.6404
 5750TIP3    H238810   5.816   6.138   7.375  1.7619  0.5097 -0.0456
 5751TIP3   OH238811   0.904   4.975   1.014 -0.1252 -0.2411 -0.4342
 5751TIP3    H138812   0.911   5.062   1.053 -2.2560 -0.2501  0.1285
 5751TIP3    H238813   0.941   4.984   0.927  2.0567  0.5405  0.5097
 5752TIP3   OH238814   2.615   6.476   0.192  0.2010  0.4734  0.3131
 5752TIP3    H138815   2.570   6.487   0.108  1.1402  0.9409 -0.1447
 5752TIP3    H238816   2.708   6.486   0.171  0.5928 -1.1318  1.1207
 5753TIP3   OH238817   0.865   5.747   7.966  0.8507 -0.2497  0.0772
 5753TIP3    H138818   0.959   5.749   7.979  0.9256  2.3940 -0.2948
 5753TIP3    H238819   0.829   5.799   8.038 -0.0897  0.7362 -1.0512
 5754TIP3   OH238820   5.321   3.009   2.325  0.3148  0.2339 -0.6820
 5754TIP3    H138821   5.287   2.926   2.293 -1.7578  0.8895 -0.3183
 5754TIP3    H238822   5.342   3.059   2.246  0.4848 -0.2151 -0.9202
 5755TIP3   OH238823   4.879   5.181   2.293  0.3770  0.4550  0.1412
 5755TIP3    H138824   4.858   5.254   2.234  0.3671  1.4627  1.3313
 5755TIP3    H238825   4.967   5.154   2.267  0.2069  0.5840 -0.6080
 5756TIP3   OH238826   3.249   0.310   2.247 -0.4160 -0.4466  0.3217
 5756TIP3    H138827   3.283   0.358   2.322  1.8223  0.7704 -1.3565
 5756TIP3    H238828   3.326   0.284   2.197 -1.7476 -2.5767 -0.8036
 5757TIP3   OH238829   6.274   3.636   1.024 -0.1382 -0.4100  0.3541
 5757TIP3    H138830   6.311   3.702   0.966  3.6766 -1.9987  0.7144
 5757TIP3    H238831   6.269   3.557   0.971  0.7799 -1.1930  1.3803
 5758TIP3   OH238832   4.511   6.042   7.968  0.0387 -0.3365 -0.1008
 5758TIP3    H138833   4.452   6.018   7.896  1.9945 -1.9100 -1.2752
 5758TIP3    H238834   4.474   5.997   8.044 -1.2013  0.0926 -0.4158
 5759TIP3   OH238835   5.143   4.403   1.750  0.8463  0.4662 -0.2611
 5759TIP3    H138836   5.182   4.473   1.801  0.4291  0.6373 -0.1712
 5759TIP3    H238837   5.091   4.353   1.814 -1.1186  1.7119 -0.7949
 5760TIP3   OH238838   6.819   3.787   1.146 -0.3289  0.9043 -0.2108
 5760TIP3    H138839   6.741   3.733   1.134 -0.0393  0.3273  0.4397
 5760TIP3    H238840   6.843   3.814   1.057 -0.0568 -0.6397 -0.6232
 5761TIP3   OH238841   3.491   3.628   2.006 -1.0673 -0.3049 -0.0588
 5761TIP3    H138842   3.428   3.556   2.007 -0.9113 -0.4453  1.0720
 5761TIP3    H238843   3.547   3.610   1.930 -1.9174 -0.5714 -0.6444
 5762TIP3   OH238844   4.067   5.735   2.224  0.0020 -0.1015 -0.4720
 5762TIP3    H138845   4.025   5.658   2.186 -1.8125  0.9413 -0.7067
 5762TIP3    H238846   3.995   5.786   2.261  1.1152  1.5752 -0.4871
 5763TIP3   OH238847   6.765   6.698   8.451 -0.2347 -0.0032  0.7202
 5763TIP3    H138848   6.788   6.715   8.360 -0.4005 -3.7680 -0.2097
 5763TIP3    H238849   6.848   6.683   8.495 -0.2335  0.0951  0.7517
 5764TIP3   OH238850   0.423   3.692   0.612 -0.1560 -0.2899 -0.0056
 5764TIP3    H138851   0.339   3.648   0.626  0.0963 -0.9621 -0.5121
 5764TIP3    H238852   0.487   3.621   0.618  0.1795 -0.1674 -1.8243
 5765TIP3   OH238853   6.485   4.809   8.038 -0.0368 -0.0639  0.2737
 5765TIP3    H138854   6.539   4.813   7.960 -2.0019  1.0449 -1.1136
 5765TIP3    H238855   6.463   4.717   8.047  0.6180 -0.2723 -0.1752
 5766TIP3   OH238856   4.602   4.922   0.597  0.1789  0.0225  0.2168
 5766TIP3    H138857   4.641   4.945   0.512 -0.3565 -0.9941 -0.3217
 5766TIP3    H238858   4.674   4.885   0.648  0.5140  0.6821  0.2284
 5767TIP3   OH238859   0.752   2.458   1.178  0.7522 -0.2284 -0.0602
 5767TIP3    H138860   0.800   2.455   1.261  2.1201 -0.0548 -0.8221
 5767TIP3    H238861   0.820   2.462   1.111 -0.3338 -0.2765 -1.1977
 5768TIP3   OH238862   3.581   3.054   2.875 -0.0715  0.0495 -0.2154
 5768TIP3    H138863   3.516   3.112   2.915  0.9828  1.7744 -0.9207
 5768TIP3    H238864   3.612   3.102   2.798  0.4056 -1.7248 -1.1808
 5769TIP3   OH238865   4.699   1.276   1.586  0.2576 -0.4489  0.8908
 5769TIP3    H138866   4.758   1.336   1.542  1.2777 -0.7316  1.8395
 5769TIP3    H238867   4.617   1.325   1.595  0.6310  0.2810  0.3849
 5770TIP3   OH238868   4.780   6.351   0.100 -0.5491  0.0263  0.3546
 5770TIP3    H138869   4.834   6.297   0.159  0.5105  1.0536  0.3553
 5770TIP3    H238870   4.695   6.356   0.145 -1.1505 -2.7050 -0.2712
 5771TIP3   OH238871   1.135   4.090   2.282 -0.5065 -0.5141  0.2405
 5771TIP3    H138872   1.080   4.168   2.292 -0.5986 -0.6265  0.6141
 5771TIP3    H238873   1.205   4.101   2.346 -0.7940 -0.9744  0.6393
 5772TIP3   OH238874   6.052   2.434   1.378 -0.6120 -0.0252 -0.0346
 5772TIP3    H138875   5.996   2.494   1.328 -0.5982 -1.4132 -1.8433
 5772TIP3    H238876   6.111   2.491   1.427 -2.8416  1.4846  1.0884
 5773TIP3   OH238877   4.537   2.350   1.475 -0.0970  0.0225  0.8448
 5773TIP3    H138878   4.512   2.273   1.527 -0.5045 -0.8995 -0.6488
 5773TIP3    H238879   4.563   2.415   1.540 -0.8971 -0.9610  2.2174
 5774TIP3   OH238880   4.957   3.620   2.599 -0.2170 -0.0917 -0.2013
 5774TIP3    H138881   5.045   3.654   2.584 -0.6421  0.6776 -1.0659
 5774TIP3    H238882   4.948   3.549   2.535  0.1463 -0.9031  0.6203
 5775TIP3   OH238883   6.731   6.375   0.624  0.5985  0.2525 -0.0241
 5775TIP3    H138884   6.771   6.374   0.537 -0.4470 -2.9042 -0.5783
 5775TIP3    H238885   6.806   6.374   0.684  1.3267  0.6114 -0.9003
 5776TIP3   OH238886   1.572   2.412   2.830 -0.7380  0.0684  0.5923
 5776TIP3    H138887   1.610   2.440   2.746 -3.0019 -0.5715 -0.7275
 5776TIP3    H238888   1.616   2.466   2.895 -0.0370  1.7479 -1.1618
 5777TIP3   OH238889   5.314   2.788   8.400  0.3830  0.1954 -0.3082
 5777TIP3    H138890   5.281   2.779   8.310 -0.2260 -0.8625 -0.0023
 5777TIP3    H238891   5.372   2.712   8.411 -2.4931 -1.9724  1.3844
 5778TIP3   OH238892   5.767   5.902   0.872 -0.2090 -0.2795  0.3189
 5778TIP3    H138893   5.797   5.823   0.827 -0.4158 -0.0334 -0.2590
 5778TIP3    H238894   5.840   5.964   0.861 -1.1864  0.6016 -1.7982
 5779TIP3   OH238895   3.998   6.175   0.022 -0.4397 -0.0593  0.5286
 5779TIP3    H138896   3.949   6.236   0.077 -0.7462  0.5646 -0.4021
 5779TIP3    H238897   4.088   6.208   0.023 -0.9343  1.6005 -1.4665
 5780TIP3   OH238898   4.765   6.261   8.532 -0.3050  0.2378  0.0616
 5780TIP3    H138899   4.808   6.325   8.475  1.0345 -1.1626 -0.5765
 5780TIP3    H238900   4.781   6.293   8.620 -1.2842  1.7548 -0.2824
 5781TIP3   OH238901   1.991   6.772   3.169  0.1282  0.4823  0.9542
 5781TIP3    H138902   1.935   6.707   3.126  2.4130 -1.5729  0.8895
 5781TIP3    H238903   1.936   6.808   3.239 -1.9890  0.2328 -0.4806
 5782TIP3   OH238904   0.771   5.583   7.765  0.5707 -0.1576 -0.5457
 5782TIP3    H138905   0.842   5.623   7.714 -1.1125  2.0355 -1.3366
 5782TIP3    H238906   0.772   5.630   7.848  1.5929 -1.8718  0.4556
 5783TIP3   OH238907   0.502   5.579   2.385 -0.1527  0.0914 -0.2113
 5783TIP3    H138908   0.595   5.601   2.385 -0.2575  0.5586  0.1563
 5783TIP3    H238909   0.499   5.487   2.360  0.2943  0.4839 -1.8195
 5784TIP3   OH238910   3.874   5.556   2.577  0.3596  0.0304 -0.1691
 5784TIP3    H138911   3.806   5.607   2.620  0.0159 -0.1040 -0.5484
 5784TIP3    H238912   3.939   5.621   2.550  1.7295 -0.0700  2.5287
 5785TIP3   OH238913   3.733   2.258   0.894  0.0161  0.0497 -0.2372
 5785TIP3    H138914   3.817   2.303   0.885 -0.5746  1.6735  1.6298
 5785TIP3    H238915   3.728   2.234   0.986 -1.9311  0.8293 -0.0929
 5786TIP3   OH238916   5.028   5.562   3.007 -0.2132 -0.3597 -0.2056
 5786TIP3    H138917   4.967   5.618   3.056 -0.0240  0.0996 -0.4812
 5786TIP3    H238918   5.113   5.578   3.048 -0.1147 -0.2464 -0.4511
 5787TIP3   OH238919   0.796   5.377   7.261 -0.3553  0.2278 -0.2927
 5787TIP3    H138920   0.878   5.424   7.275 -1.0621  1.3758  0.1205
 5787TIP3    H238921   0.758   5.367   7.348 -0.2903 -1.0151 -0.3849
 5788TIP3   OH238922   0.937   4.689   8.302 -0.0927  0.7796  0.2045
 5788TIP3    H138923   0.953   4.612   8.356  0.9625 -0.2988 -1.5362
 5788TIP3    H238924   0.870   4.738   8.349 -0.1458 -0.7403  1.8131
 5789TIP3   OH238925   5.767   3.477   1.086  0.0243 -0.0477  0.4781
 5789TIP3    H138926   5.861   3.495   1.083 -0.4126  2.7302  0.7539
 5789TIP3    H238927   5.736   3.527   1.161 -1.9897  0.9903 -0.9593
 5790TIP3   OH238928   2.098   4.344   0.236 -0.1720  0.0284 -0.1457
 5790TIP3    H138929   2.107   4.433   0.271  1.2004  0.8068 -2.2478
 5790TIP3    H238930   2.166   4.338   0.169 -1.4319 -1.9777 -1.3566
 5791TIP3   OH238931   6.306   3.583   8.185 -0.3056  0.7590  0.0699
 5791TIP3    H138932   6.307   3.595   8.091 -0.4936  1.1439  0.1157
 5791TIP3    H238933   6.321   3.489   8.198 -2.7511  0.2435 -0.4282
 5792TIP3   OH238934   4.480   6.401   8.625 -0.0514 -0.0708  0.3885
 5792TIP3    H138935   4.510   6.310   8.625 -0.7820 -0.3160  0.7741
 5792TIP3    H238936   4.518   6.440   8.704 -0.5516 -0.3213  0.7584
 5793TIP3   OH238937   4.939   1.251   3.160  0.3575 -0.0791 -0.2731
 5793TIP3    H138938   4.949   1.162   3.192  0.5288 -1.1629 -3.1060
 5793TIP3    H238939   5.007   1.261   3.093  1.7441  2.9535  1.3875
 5794TIP3   OH238940   1.592   5.065   2.421  0.0626  0.5048 -0.1777
 5794TIP3    H138941   1.608   5.153   2.454  1.1708  0.2556  0.0016
 5794TIP3    H238942   1.661   5.012   2.460 -0.2086 -0.3207 -0.7881
 5795TIP3   OH238943   6.791   6.459   1.040 -0.3102 -0.3598 -0.1868
 5795TIP3    H138944   6.876   6.499   1.058 -0.3030 -0.0869 -0.7791
 5795TIP3    H238945   6.759   6.430   1.125 -0.0448  0.3708  0.1731
 5796TIP3   OH238946   4.015   0.611   1.965 -0.0315  0.3308 -0.2881
 5796TIP3    H138947   4.098   0.563   1.972  0.6425  1.5049 -0.0919
 5796TIP3    H238948   4.023   0.684   2.026 -0.7424  1.1435 -1.1334
 5797TIP3   OH238949   6.642   6.298   0.875  0.1381  0.3596  0.1244
 5797TIP3    H138950   6.662   6.339   0.791  2.1151 -0.0184  0.3519
 5797TIP3    H238951   6.704   6.338   0.936  0.0209 -0.7428  0.9978
 5798TIP3   OH238952   3.637   4.853   0.930 -0.0837 -0.2564 -0.3624
 5798TIP3    H138953   3.674   4.838   1.017 -1.6103 -0.2800  0.3210
 5798TIP3    H238954   3.602   4.942   0.933  0.4247 -0.0212 -1.1781
 5799TIP3   OH238955   4.521   3.184   0.771  0.1555 -0.0540  0.0185
 5799TIP3    H138956   4.519   3.278   0.753  0.6108 -0.3887 -1.9436
 5799TIP3    H238957   4.435   3.167   0.811 -0.4453  0.9816 -0.7597
 5800TIP3   OH238958   3.771   5.606   0.972  0.5840  0.7601  0.0391
 5800TIP3    H138959   3.710   5.549   0.926 -0.1377  2.4488 -1.2222
 5800TIP3    H238960   3.791   5.560   1.053 -1.4484 -0.3996 -0.0500
 5801TIP3   OH238961   0.837   0.180   1.437  0.1531  0.6411  0.5091
 5801TIP3    H138962   0.881   0.171   1.353 -0.7652 -2.4990  0.2243
 5801TIP3    H238963   0.746   0.200   1.415  0.4145  2.4691  0.9190
 5802TIP3   OH238964   4.185   5.787   1.124  0.1562 -0.2864  0.4801
 5802TIP3    H138965   4.208   5.737   1.202  0.5109 -1.3669 -0.2908
 5802TIP3    H238966   4.221   5.736   1.052 -1.3575 -0.0149 -0.4941
 5803TIP3   OH238967   3.152   6.754   1.181  0.6634  0.2647 -0.2230
 5803TIP3    H138968   3.147   6.714   1.095 -2.0893  1.8350 -0.9160
 5803TIP3    H238969   3.074   6.724   1.226 -0.1880  2.7417  0.1183
 5804TIP3   OH238970   5.282   1.661   3.721 -0.1884  0.3452  0.3225
 5804TIP3    H138971   5.318   1.587   3.673 -0.4896 -1.2795  2.4502
 5804TIP3    H238972   5.348   1.730   3.713  0.2810 -0.2621 -1.3592
 5805TIP3   OH238973   1.374   2.151   2.390 -0.1364 -0.0280  0.0734
 5805TIP3    H138974   1.397   2.210   2.461  0.6509 -1.3196  0.9290
 5805TIP3    H238975   1.285   2.177   2.365 -0.7708 -0.0696  2.1032
 5806TIP3   OH238976   2.176   5.870   7.202 -0.2341  0.4434 -0.4796
 5806TIP3    H138977   2.226   5.894   7.124 -2.0139  0.1984 -1.7493
 5806TIP3    H238978   2.126   5.793   7.175 -0.8788  0.3527  0.9156
 5807TIP3   OH238979   1.927   2.131   8.368 -0.0933 -0.4057 -0.6867
 5807TIP3    H138980   1.884   2.064   8.315  0.0142 -1.9707  1.1338
 5807TIP3    H238981   1.888   2.123   8.455  1.7151  0.1670  0.2368
 5808TIP3   OH238982   5.338   0.743   2.590  0.0940  0.5825  0.0275
 5808TIP3    H138983   5.386   0.824   2.605  0.3101  0.5533 -0.4993
 5808TIP3    H238984   5.395   0.674   2.625  1.5906  0.2865 -2.7477
 5809TIP3   OH238985   3.859   2.611   1.842  0.1426 -0.6775 -0.2076
 5809TIP3    H138986   3.774   2.577   1.813  0.0917 -0.6562 -0.0841
 5809TIP3    H238987   3.883   2.674   1.774 -0.0659 -0.4873 -0.1055
 5810TIP3   OH238988   4.138   4.815   7.196  0.1377 -0.0236 -0.0094
 5810TIP3    H138989   4.206   4.879   7.174  0.8147 -0.2417  1.3762
 5810TIP3    H238990   4.122   4.828   7.290 -0.6209 -1.0486  0.0180
 5811TIP3   OH238991   3.981   3.150   7.605 -0.3883  0.5547 -0.1985
 5811TIP3    H138992   4.056   3.092   7.602 -0.5242  0.1552  2.0712
 5811TIP3    H238993   3.906   3.093   7.623 -1.5037  0.8042 -3.4630
 5812TIP3   OH238994   2.803   1.528   0.490  0.6228  0.3753 -0.1507
 5812TIP3    H138995   2.742   1.492   0.554  0.8106  0.5062  0.1054
 5812TIP3    H238996   2.880   1.551   0.541  0.7930  0.4366 -0.4336
 5813TIP3   OH238997   4.868   5.566   7.441 -0.2888 -0.1001  0.0225
 5813TIP3    H138998   4.906   5.653   7.433 -0.6309 -0.1069 -2.9062
 5813TIP3    H238999   4.774   5.581   7.446 -0.2469 -0.2692  2.0994
 5814TIP3   OH239000   2.943   1.346   2.308 -0.0324 -0.5682  0.3285
 5814TIP3    H139001   2.917   1.437   2.323 -0.9717 -0.9681  1.2304
 5814TIP3    H239002   3.023   1.353   2.256 -0.7418  0.7567 -0.6843
 5815TIP3   OH239003   4.341   0.213   1.425 -0.9852  0.0371  0.6999
 5815TIP3    H139004   4.249   0.228   1.442 -0.6538  1.1547  1.6274
 5815TIP3    H239005   4.352   0.118   1.435 -1.6885  0.1134  2.4476
 5816TIP3   OH239006   4.177   2.137   8.534  0.5475 -0.6102  0.0009
 5816TIP3    H139007   4.129   2.199   8.589 -0.2239 -0.9606 -0.2643
 5816TIP3    H239008   4.220   2.192   8.468 -1.7383 -0.4300 -1.4701
 5817TIP3   OH239009   3.185   4.094   0.087  0.6839  0.1375  0.5266
 5817TIP3    H139010   3.235   4.040   0.149  0.0830 -1.3604 -0.2470
 5817TIP3    H239011   3.111   4.039   0.062  0.5605  0.9726 -1.0280
 5818TIP3   OH239012   3.826   1.740   0.163 -0.1344  0.4724  0.8349
 5818TIP3    H139013   3.890   1.810   0.174  1.5555 -0.6773 -1.0090
 5818TIP3    H239014   3.789   1.754   0.076  0.0337 -0.7225  0.5481
 5819TIP3   OH239015   3.934   1.750   8.426  0.3114  0.2268 -0.0481
 5819TIP3    H139016   3.975   1.729   8.509 -1.1082  0.8289  0.8318
 5819TIP3    H239017   3.841   1.759   8.446 -0.0632  0.3820 -1.7007
 5820TIP3   OH239018   5.294   0.965   0.231  0.1914  0.1184 -0.1853
 5820TIP3    H139019   5.358   0.902   0.200 -0.2907  0.2872 -1.5809
 5820TIP3    H239020   5.250   0.921   0.303 -0.2609 -1.2300 -1.2420
 5821TIP3   OH239021   6.339   2.403   2.082  0.2029  0.0868 -0.2393
 5821TIP3    H139022   6.357   2.348   2.157  2.6933  0.6852 -0.3062
 5821TIP3    H239023   6.357   2.492   2.112  2.2358  0.2681 -1.6949
 5822TIP3   OH239024   1.805   3.768   8.252  0.4831  0.2589  0.6013
 5822TIP3    H139025   1.785   3.674   8.248  2.2903 -0.1918  1.2249
 5822TIP3    H239026   1.794   3.791   8.344  0.9043  0.4548  0.6018
 5823TIP3   OH239027   1.994   6.587   2.002 -0.0184  0.0982  0.1570
 5823TIP3    H139028   1.932   6.621   1.938  0.7703  0.2091 -0.5621
 5823TIP3    H239029   1.939   6.549   2.071 -0.8844 -0.3736 -0.7681
 5824TIP3   OH239030   3.348   6.551   0.717 -0.3264  0.4449 -0.0761
 5824TIP3    H139031   3.297   6.631   0.705 -0.6122  0.0644 -1.4801
 5824TIP3    H239032   3.439   6.578   0.700 -0.1983  0.8115  1.0723
 5825TIP3   OH239033   1.474   2.524   8.487 -0.4197 -0.5860 -0.5376
 5825TIP3    H139034   1.486   2.516   8.582 -0.4131  1.2806 -0.3408
 5825TIP3    H239035   1.484   2.435   8.454 -0.5908 -1.3012  1.2287
 5826TIP3   OH239036   1.666   6.609   1.155  0.2048 -0.4248  0.2502
 5826TIP3    H139037   1.728   6.665   1.202  1.4916 -2.7665  1.4966
 5826TIP3    H239038   1.688   6.622   1.062  0.5837  0.9389  0.5048
 5827TIP3   OH239039   6.408   6.024   1.733  1.1112 -0.1391  0.4457
 5827TIP3    H139040   6.316   6.008   1.710  1.4753  0.3515 -1.5238
 5827TIP3    H239041   6.404   6.078   1.811 -0.2448 -1.0620  1.0597
 5828TIP3   OH239042   3.821   2.857   1.624 -0.2762 -0.0292  0.2137
 5828TIP3    H139043   3.786   2.946   1.611  0.3304  0.1621 -0.1252
 5828TIP3    H239044   3.898   2.869   1.679  0.8065 -0.1435 -1.2288
 5829TIP3   OH239045   4.015   4.614   2.593  0.0947  0.0884  0.2327
 5829TIP3    H139046   3.999   4.521   2.577 -0.4742  0.4497 -1.5502
 5829TIP3    H239047   3.943   4.641   2.650 -1.0368 -0.1176 -1.0379
 5830TIP3   OH239048   2.882   1.516   2.025 -0.0394 -0.4240  0.7582
 5830TIP3    H139049   2.896   1.426   1.997  0.9201  0.3007 -1.2911
 5830TIP3    H239050   2.964   1.541   2.068  1.2256  0.5387 -1.9566
 5831TIP3   OH239051   3.025   0.060   8.052 -0.0983 -0.1131  0.0042
 5831TIP3    H139052   2.933   0.032   8.049  0.0862 -0.6937 -0.3841
 5831TIP3    H239053   3.061   0.035   7.967  1.1004 -2.3100  1.0562
 5832TIP3   OH239054   3.263   0.119   7.416  0.1895 -0.1308  0.3421
 5832TIP3    H139055   3.200   0.191   7.422 -0.6370 -0.8142  0.1271
 5832TIP3    H239056   3.345   0.156   7.447  0.1465  1.3231 -1.1565
 5833TIP3   OH239057   5.060   5.415   1.389 -0.1152  0.5202  0.2250
 5833TIP3    H139058   5.024   5.477   1.452  1.8223  1.4971  0.4551
 5833TIP3    H239059   5.005   5.424   1.311 -0.8125  1.3708  0.8003
 5834TIP3   OH239060   1.024   6.793   7.818  0.4744  0.4215 -0.2435
 5834TIP3    H139061   1.070   6.866   7.778 -0.1289  0.5197 -0.7710
 5834TIP3    H239062   0.991   6.742   7.744  2.3097 -1.3292  0.0609
 5835TIP3   OH239063   3.106   4.454   2.988 -0.3279 -0.6755  0.1454
 5835TIP3    H139064   3.016   4.450   3.019  0.1001  1.0201  1.8046
 5835TIP3    H239065   3.101   4.430   2.895 -2.4234 -0.8718  0.2612
 5836TIP3   OH239066   4.519   6.843   8.506 -0.1885 -0.0280  0.3904
 5836TIP3    H139067   4.596   6.887   8.471 -1.4337  0.9108 -1.3811
 5836TIP3    H239068   4.521   6.756   8.468  0.2512 -0.1836  0.7626
 5837TIP3   OH239069   1.936   3.928   1.531  0.2104 -0.0474 -0.0032
 5837TIP3    H139070   1.985   3.886   1.461  0.9624  0.0489  0.4595
 5837TIP3    H239071   1.897   4.006   1.492  1.5522  0.6197 -0.0379
 5838TIP3   OH239072   6.081   4.435   2.771 -0.4303 -0.0523 -0.0973
 5838TIP3    H139073   6.111   4.452   2.861 -0.3563 -0.9241  0.0499
 5838TIP3    H239074   6.019   4.363   2.781 -1.3902  0.6896 -0.5951
 5839TIP3   OH239075   1.707   1.158   7.764  0.0395 -0.2027  0.4593
 5839TIP3    H139076   1.694   1.113   7.680 -0.6472  0.3122  0.2777
 5839TIP3    H239077   1.802   1.162   7.774  0.1522  0.3580 -0.6521
 5840TIP3   OH239078   1.729   6.026   7.740  0.6599 -0.5092  0.1695
 5840TIP3    H139079   1.646   6.019   7.693  0.1342  0.0392  0.9797
 5840TIP3    H239080   1.704   6.053   7.828  1.7843  1.1160  0.0400
 5841TIP3   OH239081   4.989   2.068   7.767  0.3844 -0.2766 -0.3446
 5841TIP3    H139082   5.045   2.057   7.690  0.7724 -1.4759  0.0842
 5841TIP3    H239083   5.032   2.018   7.836 -0.9023 -0.7535  0.1473
 5842TIP3   OH239084   0.999   2.727   2.636  0.2161  0.1888 -0.0223
 5842TIP3    H139085   1.087   2.742   2.671 -0.1672 -0.9431  1.5351
 5842TIP3    H239086   0.949   2.804   2.663  0.5065  0.4135 -0.1167
 5843TIP3   OH239087   2.260   3.718   0.725 -0.3545 -0.2053 -0.0601
 5843TIP3    H139088   2.253   3.731   0.820  0.3085 -0.5614  0.0410
 5843TIP3    H239089   2.237   3.625   0.712 -3.1484  0.4616 -0.5611
 5844TIP3   OH239090   1.551   2.741   7.309 -0.2851  0.8292 -0.2057
 5844TIP3    H139091   1.469   2.767   7.266 -0.8589  0.2749  0.5126
 5844TIP3    H239092   1.608   2.818   7.300 -1.1965  1.5609  0.0418
 5845TIP3   OH239093   1.729   2.704   8.665 -0.0119 -0.4954 -0.1205
 5845TIP3    H139094   1.671   2.628   8.666 -1.6881  0.7023  0.4492
 5845TIP3    H239095   1.765   2.706   8.577 -1.6771 -0.7375 -0.8542
 5846TIP3   OH239096   6.345   4.337   7.634 -0.2359  0.5556 -0.9585
 5846TIP3    H139097   6.366   4.290   7.554 -1.6319 -0.9182 -0.5111
 5846TIP3    H239098   6.251   4.355   7.628  0.0911  2.6089 -0.7328
 5847TIP3   OH239099   2.151   1.661   8.124  0.5850  0.8123  0.0223
 5847TIP3    H139100   2.083   1.715   8.165  0.3248  1.2394 -0.9503
 5847TIP3    H239101   2.109   1.576   8.111  0.8601  0.4802  1.1678
 5848TIP3   OH239102   0.185   5.042   8.199 -0.4722  0.3091  0.1688
 5848TIP3    H139103   0.208   5.133   8.216  0.2119  0.2049 -0.1616
 5848TIP3    H239104   0.235   4.992   8.264 -0.3984  0.1312 -0.0250
 5849TIP3   OH239105   5.936   2.642   1.232  0.8659 -0.0981 -0.1858
 5849TIP3    H139106   5.934   2.607   1.143 -0.1757 -0.8462  0.1089
 5849TIP3    H239107   5.856   2.694   1.239  1.4290  0.7549  0.0110
 5850TIP3   OH239108   0.936   3.244   8.038 -0.5757 -0.1699  0.4237
 5850TIP3    H139109   0.966   3.254   8.128  0.8371  0.5066 -0.0919
 5850TIP3    H239110   0.840   3.246   8.044 -0.5006  0.1094  1.8719
 5851TIP3   OH239111   4.104   1.188   7.863  0.3631  0.0725  0.5005
 5851TIP3    H139112   4.052   1.268   7.850  1.0497  0.5795  0.8017
 5851TIP3    H239113   4.113   1.151   7.776 -0.2113  0.1689  0.3974
 5852TIP3   OH239114   2.981   3.863   0.386 -0.3242 -0.1482 -0.0976
 5852TIP3    H139115   2.976   3.953   0.416 -2.0999 -0.8677  2.0139
 5852TIP3    H239116   3.002   3.812   0.464 -1.4633 -1.7491 -0.7719
 5853TIP3   OH239117   3.780   5.096   7.089 -0.0963  0.0895 -0.1610
 5853TIP3    H139118   3.716   5.146   7.038 -0.4889 -0.4196 -0.1678
 5853TIP3    H239119   3.776   5.135   7.176  0.2946  0.7025 -0.4061
 5854TIP3   OH239120   3.987   5.840   2.511 -0.1245 -0.4504 -0.2154
 5854TIP3    H139121   4.038   5.917   2.536 -1.8616 -0.1829  3.0682
 5854TIP3    H239122   3.929   5.871   2.441  0.4906  0.6997 -0.2304
 5855TIP3   OH239123   2.834   5.606   1.209 -0.1474  0.1127 -0.6757
 5855TIP3    H139124   2.856   5.693   1.244  0.3992 -0.7545  1.2124
 5855TIP3    H239125   2.744   5.590   1.238  0.2324 -0.5217  0.1644
 5856TIP3   OH239126   2.215   6.569   2.136 -0.2107 -0.2490 -0.0405
 5856TIP3    H139127   2.196   6.591   2.227 -0.2967 -1.6606  0.3050
 5856TIP3    H239128   2.144   6.609   2.086 -0.1279  0.5931  0.4930
 5857TIP3   OH239129   3.372   3.153   8.640  0.3572  0.2165  0.5447
 5857TIP3    H139130   3.277   3.152   8.642  0.3553  0.0952  2.9200
 5857TIP3    H239131   3.394   3.148   8.547 -1.9414  1.8790 -0.1775
 5858TIP3   OH239132   4.089   5.689   0.522 -0.6257  0.4425  0.4508
 5858TIP3    H139133   4.123   5.778   0.528 -1.2745  0.6529  1.2098
 5858TIP3    H239134   4.059   5.669   0.611  0.2043 -0.8221  0.4839
 5859TIP3   OH239135   3.802   5.873   0.882 -0.5983 -0.0373  0.4617
 5859TIP3    H139136   3.823   5.780   0.897  0.7894 -0.0539 -1.2476
 5859TIP3    H239137   3.751   5.873   0.801  1.1813  0.7927 -0.7358
 5860TIP3   OH239138   6.543   3.373   2.151  0.4627 -0.4886  0.3361
 5860TIP3    H139139   6.611   3.441   2.149 -0.0884  0.0509 -1.3952
 5860TIP3    H239140   6.510   3.376   2.241  1.8934  0.0571  0.8785
 5861TIP3   OH239141   3.279   2.048   0.099  0.1920  0.0998 -0.3722
 5861TIP3    H139142   3.227   1.998   0.162 -0.8300  1.3011 -0.2116
 5861TIP3    H239143   3.226   2.126   0.080  3.0335  2.9166  1.9424
 5862TIP3   OH239144   2.614   5.196   8.038 -0.4824 -0.5053 -0.6889
 5862TIP3    H139145   2.568   5.225   8.117 -0.1318  0.4728 -0.8204
 5862TIP3    H239146   2.682   5.262   8.025  2.2934 -2.8960  0.6000
 5863TIP3   OH239147   4.926   4.470   1.946  0.1958  0.3523 -0.1857
 5863TIP3    H139148   4.877   4.469   1.863 -2.4841  0.0935  1.2873
 5863TIP3    H239149   4.902   4.553   1.987  1.1360  0.2821  0.5283
 5864TIP3   OH239150   2.046   3.829   8.532 -0.5784 -0.2574  0.0227
 5864TIP3    H139151   1.974   3.880   8.495  0.1924  0.9471  0.1492
 5864TIP3    H239152   2.051   3.856   8.623  0.2780 -0.0431 -0.0817
 5865TIP3   OH239153   3.868   2.889   2.481 -0.3156  0.1773 -0.4454
 5865TIP3    H139154   3.796   2.892   2.418  0.9133  0.0107 -1.9411
 5865TIP3    H239155   3.877   2.796   2.503  2.5247 -0.7067 -4.2008
 5866TIP3   OH239156   0.967   6.428   8.279 -0.4759 -0.2160 -0.3947
 5866TIP3    H139157   0.887   6.386   8.248 -0.4529  0.0701 -0.8481
 5866TIP3    H239158   0.977   6.506   8.224  0.7633 -0.8900 -1.1980
 5867TIP3   OH239159   1.992   4.071   2.139  0.2350 -0.2519 -0.1792
 5867TIP3    H139160   1.905   4.055   2.104  0.2626  1.2928 -1.0220
 5867TIP3    H239161   1.993   4.026   2.223 -1.6946  0.4771  0.2689
 5868TIP3   OH239162   1.995   1.242   1.873  0.5075  0.2503  0.4177
 5868TIP3    H139163   1.921   1.303   1.870 -0.3134 -0.7131  0.5305
 5868TIP3    H239164   1.994   1.207   1.962  0.3684 -0.6264  0.0890
 5869TIP3   OH239165   5.930   4.217   2.822 -0.0098  0.3131  0.1801
 5869TIP3    H139166   5.971   4.191   2.904 -2.1893 -0.0531  1.2347
 5869TIP3    H239167   5.922   4.135   2.772 -0.9143  0.0854  0.6824
 5870TIP3   OH239168   6.564   5.745   2.286  0.3417  0.7053 -0.2846
 5870TIP3    H139169   6.626   5.703   2.346  2.2550  3.5550 -0.0618
 5870TIP3    H239170   6.513   5.804   2.342 -0.6621  0.4089 -0.8796
 5871TIP3   OH239171   4.845   1.057   1.975 -0.2810  0.1926  0.0626
 5871TIP3    H139172   4.841   1.000   2.053  0.7784 -0.8194 -0.5892
 5871TIP3    H239173   4.937   1.057   1.950 -0.9025 -1.5466 -2.6263
 5872TIP3   OH239174   3.161   6.059   1.296 -0.2560 -0.0773 -0.1523
 5872TIP3    H139175   3.209   6.087   1.219 -0.2079  0.0882 -0.0636
 5872TIP3    H239176   3.137   5.968   1.279 -2.2134  0.6011 -1.3482
 5873TIP3   OH239177   3.129   6.187   7.331  0.1108  0.3140  0.2836
 5873TIP3    H139178   3.071   6.222   7.399 -0.1771 -0.4410  0.4414
 5873TIP3    H239179   3.179   6.118   7.376  0.3771  0.2501 -0.1113
 5874TIP3   OH239180   3.563   5.277   2.638 -0.9588 -0.5572 -0.0288
 5874TIP3    H139181   3.573   5.334   2.562  0.6212 -2.2248 -1.1456
 5874TIP3    H239182   3.549   5.337   2.711  2.2522  1.4625 -0.8541
 5875TIP3   OH239183   0.623   0.247   8.277 -0.2924  0.0286 -0.3475
 5875TIP3    H139184   0.595   0.316   8.217 -3.4745 -1.3150 -0.6016
 5875TIP3    H239185   0.618   0.166   8.225  1.9056 -0.6394  0.3605
 5876TIP3   OH239186   1.138   6.623   3.201  0.3344  0.8440 -0.0654
 5876TIP3    H139187   1.229   6.650   3.212  1.4398 -2.4358  0.1047
 5876TIP3    H239188   1.134   6.535   3.239 -2.2504 -0.2046 -2.3535
 5877TIP3   OH239189   3.608   0.489   7.288 -0.2732  0.2330 -0.5584
 5877TIP3    H139190   3.602   0.408   7.237  0.1830 -0.2157  0.0965
 5877TIP3    H239191   3.683   0.477   7.345 -1.5590  0.1772  1.1891
 5878TIP3   OH239192   5.068   5.472   7.952  0.1971  0.7116  0.6035
 5878TIP3    H139193   5.021   5.390   7.967  1.3804 -0.0195  0.4272
 5878TIP3    H239194   5.042   5.499   7.864 -0.1205  0.4724  0.6220
 5879TIP3   OH239195   1.407   4.435   3.164 -0.6374 -0.8382  0.4430
 5879TIP3    H139196   1.411   4.349   3.207 -0.9519 -1.0782 -0.0101
 5879TIP3    H239197   1.331   4.478   3.204 -1.1436 -1.1984 -0.1233
 5880TIP3   OH239198   4.131   0.117   0.537  0.4051  0.7429  0.4213
 5880TIP3    H139199   4.163   0.076   0.456 -0.3843 -1.6997  1.2456
 5880TIP3    H239200   4.211   0.148   0.581  1.3296 -1.5879  0.5502
 5881TIP3   OH239201   3.106   5.384   2.279 -0.3002 -0.2649 -0.2331
 5881TIP3    H139202   3.154   5.322   2.335 -0.4440 -0.9385 -0.8489
 5881TIP3    H239203   3.172   5.420   2.220  0.3565  2.1995  1.7990
 5882TIP3   OH239204   1.753   1.574   0.601 -0.0981 -0.0391 -0.1317
 5882TIP3    H139205   1.785   1.643   0.659 -0.7652  1.0089 -0.9480
 5882TIP3    H239206   1.717   1.622   0.526 -2.7123 -1.1309  0.3042
 5883TIP3   OH239207   3.051   1.445   8.507 -0.1801 -0.5032  0.1315
 5883TIP3    H139208   3.073   1.444   8.414 -0.5053 -0.4583  0.0544
 5883TIP3    H239209   3.110   1.510   8.545 -0.4964 -0.0493 -0.1547
 5884TIP3   OH239210   2.458   1.693   2.027  0.5892 -0.5164 -0.1705
 5884TIP3    H139211   2.504   1.683   2.111 -0.2666  0.1828  0.3920
 5884TIP3    H239212   2.523   1.666   1.962  0.7237 -2.7001  0.7967
 5885TIP3   OH239213   6.350   1.483   2.647  0.0880  0.3590  0.7472
 5885TIP3    H139214   6.411   1.557   2.650  0.9550 -0.3002  0.0685
 5885TIP3    H239215   6.391   1.416   2.701  0.3463 -0.3529 -0.3083
 5886TIP3   OH239216   4.468   4.344   0.376  0.5077  0.1462 -0.2338
 5886TIP3    H139217   4.376   4.367   0.386  0.8565  1.6111 -0.2634
 5886TIP3    H239218   4.506   4.415   0.325  1.8213 -0.0515  0.4247
 5887TIP3   OH239219   5.282   3.443   2.650  0.0984 -0.3524 -0.2047
 5887TIP3    H139220   5.302   3.494   2.571 -0.8277  0.7708  0.2487
 5887TIP3    H239221   5.244   3.362   2.618  1.3895 -0.6902 -0.9435
 5888TIP3   OH239222   2.102   6.308   7.973 -0.6637 -0.5592 -0.2411
 5888TIP3    H139223   2.192   6.342   7.976 -0.3315 -1.4811  1.1992
 5888TIP3    H239224   2.103   6.243   7.903 -0.0010 -1.0829  0.2419
 5889TIP3   OH239225   3.776   6.613   2.421  0.8393  0.5894  0.3132
 5889TIP3    H139226   3.777   6.653   2.508  1.2077  1.1518  0.0585
 5889TIP3    H239227   3.692   6.640   2.383  1.9623  2.9613 -0.6684
 5890TIP3   OH239228   4.907   2.891   0.057  0.0563  0.1759  0.2418
 5890TIP3    H139229   4.934   2.821  -0.004  0.3824 -0.1187  0.7171
 5890TIP3    H239230   4.886   2.965   0.000  1.9211  0.4370 -0.1746
 5891TIP3   OH239231   5.576   3.790   1.618 -0.1077 -0.0109  0.2228
 5891TIP3    H139232   5.669   3.780   1.599 -0.1462  0.4164 -0.2030
 5891TIP3    H239233   5.532   3.762   1.537 -0.3054  0.9492 -0.0173
 5892TIP3   OH239234   5.590   2.838   1.670 -0.5856 -0.5920 -0.1591
 5892TIP3    H139235   5.665   2.897   1.659  1.0548 -2.8425 -2.2619
 5892TIP3    H239236   5.600   2.803   1.759 -0.3313  0.5895  0.3023
 5893TIP3   OH239237   3.051   0.182   1.151 -0.0766  0.3156  0.6057
 5893TIP3    H139238   3.096   0.101   1.124 -0.9979  0.1440 -0.4598
 5893TIP3    H239239   2.959   0.165   1.133 -0.3503  1.3921  0.9623
 5894TIP3   OH239240   5.114   3.884   7.977 -0.3796  0.2971 -0.3809
 5894TIP3    H139241   5.140   3.865   7.887 -0.0676  0.4350 -0.3232
 5894TIP3    H239242   5.147   3.972   7.993  1.2053 -0.3976  0.4678
 5895TIP3   OH239243   1.231   2.768   1.662 -0.1095 -0.1354  0.5382
 5895TIP3    H139244   1.191   2.850   1.632 -0.5934  0.2624  2.1572
 5895TIP3    H239245   1.216   2.706   1.591  0.1293  1.1247 -0.6657
 5896TIP3   OH239246   3.047   0.890   2.301  0.1325  0.1139  0.0569
 5896TIP3    H139247   3.029   0.975   2.343 -0.2533 -0.0865  0.2997
 5896TIP3    H239248   3.118   0.852   2.353 -0.2410 -0.0665  0.4378
 5897TIP3   OH239249   1.833   0.140   7.902 -0.1894 -0.9010  0.1967
 5897TIP3    H139250   1.875   0.185   7.829 -0.1974  1.2252  1.4189
 5897TIP3    H239251   1.745   0.119   7.870 -0.5375  0.8988 -0.0941
 5898TIP3   OH239252   1.305   0.438   1.600  0.8118 -0.1568 -0.3284
 5898TIP3    H139253   1.271   0.453   1.688  1.5948  3.3550 -0.4880
 5898TIP3    H239254   1.400   0.446   1.608  0.9364 -0.3302 -1.4027
 5899TIP3   OH239255   1.960   0.639   0.842 -0.4497 -0.0610  0.0009
 5899TIP3    H139256   2.053   0.613   0.843 -0.7164 -1.0907  1.1342
 5899TIP3    H239257   1.924   0.599   0.921 -0.8813  4.1324  2.1908
 5900TIP3   OH239258   6.050   2.308   3.544 -0.5389 -0.5178  0.3755
 5900TIP3    H139259   6.073   2.267   3.628  1.1075 -0.5660 -0.0552
 5900TIP3    H239260   6.089   2.395   3.548 -0.6646 -0.4282 -0.2313
 5901TIP3   OH239261   2.775   1.302   2.644 -0.1494 -0.0045 -0.4665
 5901TIP3    H139262   2.721   1.228   2.674  0.9020 -0.8023 -0.4784
 5901TIP3    H239263   2.854   1.261   2.609 -0.1195  1.0757 -1.7110
 5902TIP3   OH239264   2.657   0.215   2.348 -0.2369  0.2601  0.2057
 5902TIP3    H139265   2.576   0.165   2.359 -0.2659  0.0520 -0.8690
 5902TIP3    H239266   2.727   0.150   2.361 -0.2070  0.5654  1.7602
 5903TIP3   OH239267   5.289   2.278   3.567 -0.0355  0.2890 -0.4677
 5903TIP3    H139268   5.375   2.285   3.610  0.1338 -1.3133 -0.4965
 5903TIP3    H239269   5.250   2.198   3.603 -0.8689  0.1657 -1.5869
 5904TIP3   OH239270   4.866   0.049   2.269 -0.0075 -0.2315  0.0265
 5904TIP3    H139271   4.835  -0.032   2.308 -0.8158  0.5670  1.1013
 5904TIP3    H239272   4.796   0.113   2.286  0.9656  0.8947 -0.0426
 5905TIP3   OH239273   6.736   1.321   1.229 -0.4674 -0.1557  0.1641
 5905TIP3    H139274   6.802   1.279   1.175 -0.7893 -0.4970  0.0283
 5905TIP3    H239275   6.712   1.400   1.179 -1.3752 -0.9021 -0.6391
 5906TIP3   OH239276   6.256   2.138   8.182  0.1953  0.6670  0.0556
 5906TIP3    H139277   6.277   2.106   8.094  0.8551 -0.1971  0.5009
 5906TIP3    H239278   6.245   2.232   8.172 -3.6638  0.2231 -1.6815
 5907TIP3   OH239279   4.741   3.195   0.949 -0.0010 -0.2803  0.2178
 5907TIP3    H139280   4.685   3.192   0.871  1.1509 -3.0526 -0.6384
 5907TIP3    H239281   4.711   3.272   0.997 -3.5634 -0.8037 -0.8671
 5908TIP3   OH239282   3.870   6.083   2.031  0.3211 -0.1321 -0.2977
 5908TIP3    H139283   3.827   5.998   2.026  0.0254 -0.0470  0.5994
 5908TIP3    H239284   3.801   6.146   2.011  0.6091 -0.0990 -1.2676
 5909TIP3   OH239285   2.245   3.104   3.391 -0.2687 -0.3817 -0.6974
 5909TIP3    H139286   2.285   3.052   3.461 -1.4924  0.5793  0.7664
 5909TIP3    H239287   2.153   3.110   3.415 -1.2016 -1.7295 -3.4886
 5910TIP3   OH239288   0.740   4.645   2.837 -0.4861 -0.0449 -0.3772
 5910TIP3    H139289   0.761   4.552   2.834 -0.0070  0.0017  0.8478
 5910TIP3    H239290   0.823   4.688   2.855 -0.8893  0.5147  0.2244
 5911TIP3   OH239291   4.592   2.708   3.291  0.2702  0.3272  0.8526
 5911TIP3    H139292   4.665   2.746   3.340  0.2617 -0.4204  1.4729
 5911TIP3    H239293   4.531   2.679   3.359 -0.6165  0.9458  0.3460
 5912TIP3   OH239294   6.057   4.273   8.692 -0.6546 -0.5773 -0.5291
 5912TIP3    H139295   6.050   4.364   8.722 -0.4839 -0.8015  0.2001
 5912TIP3    H239296   6.126   4.276   8.626 -1.1880 -0.0408 -1.0866
 5913TIP3   OH239297   5.872   2.756   8.669 -0.3869 -0.7682 -0.5098
 5913TIP3    H139298   5.901   2.684   8.614 -1.9585 -2.6978  1.0182
 5913TIP3    H239299   5.791   2.786   8.628  1.0139  1.2977 -2.0068
 5914TIP3   OH239300   1.355   5.493   0.404  0.3156  0.0241 -0.0861
 5914TIP3    H139301   1.350   5.577   0.358  0.9743 -0.1024 -0.4078
 5914TIP3    H239302   1.363   5.428   0.334  2.6407 -0.0689  0.1685
 5915TIP3   OH239303   2.040   2.847   3.168  0.1054 -0.4182  0.3030
 5915TIP3    H139304   2.026   2.756   3.194 -3.3700 -0.4381 -1.1470
 5915TIP3    H239305   1.952   2.884   3.164  1.1580  2.1221 -2.2414
 5916TIP3   OH239306   0.669   6.234   2.436 -0.1548  0.3889  0.4524
 5916TIP3    H139307   0.687   6.243   2.529 -0.9385  1.6967  0.5105
 5916TIP3    H239308   0.687   6.321   2.399 -0.2932  0.0202 -0.5293
 5917TIP3   OH239309   2.133   5.838   7.581 -0.6384 -0.3422  0.3818
 5917TIP3    H139310   2.190   5.774   7.538 -1.2046  0.7596 -2.2165
 5917TIP3    H239311   2.188   5.917   7.590 -0.8131 -0.2720  0.8816
 5918TIP3   OH239312   2.174   4.869   2.019 -0.6804 -0.0582 -0.1477
 5918TIP3    H139313   2.095   4.847   2.069 -1.8311  0.5409 -1.6173
 5918TIP3    H239314   2.152   4.848   1.929  1.6990 -2.0568 -0.3724
 5919TIP3   OH239315   5.117   5.203   0.832 -0.5308 -0.2365 -0.5153
 5919TIP3    H139316   5.042   5.234   0.883 -0.4703  0.0457 -0.5962
 5919TIP3    H239317   5.113   5.252   0.750  0.2865  0.4840 -0.1416
 5920TIP3   OH239318   3.268   4.646   2.168 -0.4395 -0.4716  0.5556
 5920TIP3    H139319   3.253   4.718   2.230 -2.4965  0.3056 -0.7495
 5920TIP3    H239320   3.346   4.673   2.120 -1.7575  1.5211 -0.6366
 5921TIP3   OH239321   4.148   6.177   1.129  0.0326 -0.0497  0.0429
 5921TIP3    H139322   4.060   6.194   1.161  0.1222 -0.1475  0.3460
 5921TIP3    H239323   4.191   6.129   1.200  0.1661 -0.4707 -0.3108
 5922TIP3   OH239324   0.465   4.891   0.535 -0.0430 -0.0892  0.8185
 5922TIP3    H139325   0.372   4.868   0.530 -0.3768  1.3507 -0.0041
 5922TIP3    H239326   0.467   4.969   0.591  0.7058 -0.2043  0.9651
 5923TIP3   OH239327   3.645   4.803   1.557 -0.5457  0.1499  0.3180
 5923TIP3    H139328   3.726   4.846   1.583 -1.1611  1.5977 -0.0458
 5923TIP3    H239329   3.583   4.875   1.545 -1.2591 -0.7242 -1.6465
 5924TIP3   OH239330   4.455   5.212   7.831  0.4376 -0.3241  0.1595
 5924TIP3    H139331   4.385   5.151   7.808  0.7198 -0.6264  0.0981
 5924TIP3    H239332   4.522   5.198   7.764 -0.4473  1.7108 -1.2637
 5925TIP3   OH239333   1.056   5.207   7.848 -0.5377  0.1170  0.1817
 5925TIP3    H139334   1.106   5.173   7.774 -0.3006 -0.9080  0.7766
 5925TIP3    H239335   0.974   5.239   7.810  0.6781  2.1881 -0.8696
 5926TIP3   OH239336   3.264   6.196   8.353  0.3278 -0.2063  0.4249
 5926TIP3    H139337   3.335   6.243   8.396 -1.3733  2.1894  0.8384
 5926TIP3    H239338   3.240   6.127   8.415 -0.1114  1.3042  2.0036
 5927TIP3   OH239339   4.348   4.460   0.989  0.2231 -0.3368 -0.3454
 5927TIP3    H139340   4.443   4.452   1.002  0.2857 -0.5295 -0.9109
 5927TIP3    H239341   4.328   4.397   0.920 -0.2228  0.1295 -0.6499
 5928TIP3   OH239342   1.351   3.401   8.588 -0.7738  0.1170  0.3232
 5928TIP3    H139343   1.344   3.306   8.578 -0.1634  0.1435 -0.4338
 5928TIP3    H239344   1.406   3.429   8.515 -1.4563  1.1383  0.1837
 5929TIP3   OH239345   6.843   5.844   0.381  0.0496  0.3282  0.0274
 5929TIP3    H139346   6.754   5.817   0.358  0.1129 -0.3570  0.5225
 5929TIP3    H239347   6.833   5.931   0.418 -0.3918  0.3367 -0.1003
 5930TIP3   OH239348   3.445   4.651   1.479  0.2260 -0.8135 -0.5235
 5930TIP3    H139349   3.434   4.572   1.531  0.6428 -0.4474  0.1497
 5930TIP3    H239350   3.509   4.703   1.528  0.4715 -0.3575 -1.2989
 5931TIP3   OH239351   0.095   3.630   0.819 -0.5684  0.1602 -0.5124
 5931TIP3    H139352   0.093   3.723   0.843  0.9210  0.0084  0.3109
 5931TIP3    H239353   0.051   3.626   0.734 -1.3603  1.4940 -0.2005
 5932TIP3   OH239354   0.461   6.284   8.301 -0.1097 -0.1678 -0.3672
 5932TIP3    H139355   0.535   6.341   8.281  0.1969 -0.4260  0.0113
 5932TIP3    H239356   0.411   6.281   8.220 -0.2095  0.7447 -0.3533
 5933TIP3   OH239357   1.983   0.279   1.984 -0.1533 -0.4446 -0.1561
 5933TIP3    H139358   2.023   0.199   2.019 -0.0262 -0.2397  0.1650
 5933TIP3    H239359   2.017   0.349   2.039 -0.0401 -0.1333 -0.6169
 5934TIP3   OH239360   2.889   2.651   7.487 -0.2033  0.3539 -0.0284
 5934TIP3    H139361   2.979   2.681   7.474  0.0282 -0.0692  0.5273
 5934TIP3    H239362   2.841   2.730   7.514  0.0712  0.5199 -0.0226
 5935TIP3   OH239363   6.221   6.420   1.947  0.0055 -0.2618  0.2320
 5935TIP3    H139364   6.183   6.385   1.867 -0.3880 -0.2407  0.4087
 5935TIP3    H239365   6.147   6.458   1.995  0.0827 -1.0730  1.0269
 5936TIP3   OH239366   1.789   6.354   1.022  0.0000  0.4453 -0.2622
 5936TIP3    H139367   1.872   6.391   1.055  0.8311  0.2359 -2.0191
 5936TIP3    H239368   1.765   6.289   1.087  1.3783  0.3084  0.1530
 5937TIP3   OH239369   3.749   0.567   0.668 -0.5046  0.4900 -0.0401
 5937TIP3    H139370   3.755   0.482   0.625 -1.5857  0.4572 -0.1584
 5937TIP3    H239371   3.705   0.623   0.604  0.9952  1.3963 -0.3184
 5938TIP3   OH239372   5.816   4.605   1.062  0.6183 -0.0485 -0.5896
 5938TIP3    H139373   5.885   4.625   1.125 -0.6787  1.3002  0.4962
 5938TIP3    H239374   5.766   4.533   1.102 -0.2250  0.8296 -0.0089
 5939TIP3   OH239375   1.247   6.086   2.200 -0.1462  0.6505  0.2306
 5939TIP3    H139376   1.196   6.159   2.164  0.7523 -0.4934 -3.7710
 5939TIP3    H239377   1.323   6.078   2.142  0.2919 -2.8476  1.0745
 5940TIP3   OH239378   3.860   1.285   3.387 -0.1055 -0.0380 -0.0732
 5940TIP3    H139379   3.772   1.291   3.351  0.1126  3.7293 -0.3983
 5940TIP3    H239380   3.916   1.272   3.311 -0.1560  1.2159 -0.3449
 5941TIP3   OH239381   3.570   6.124   7.562  0.6635  0.4289  0.2644
 5941TIP3    H139382   3.570   6.152   7.471 -0.1152 -1.4374 -0.3485
 5941TIP3    H239383   3.633   6.052   7.566 -0.6663 -0.7679  0.7384
 5942TIP3   OH239384   6.562   3.491   8.303 -0.5472 -0.2091  0.3765
 5942TIP3    H139385   6.577   3.401   8.274 -0.4001  0.0616 -0.4134
 5942TIP3    H239386   6.588   3.545   8.228 -0.0224  0.5228  1.0809
 5943TIP3   OH239387   5.638   2.915   2.899  0.2135  0.0839  0.5234
 5943TIP3    H139388   5.604   2.833   2.934  0.6348 -1.1978 -1.8127
 5943TIP3    H239389   5.706   2.942   2.960  0.0207 -1.2828  1.3669
 5944TIP3   OH239390   1.869   1.287   1.532  0.2065 -0.2286 -0.1516
 5944TIP3    H139391   1.826   1.326   1.456  2.1983 -0.2134 -1.3436
 5944TIP3    H239392   1.867   1.355   1.599  0.2527  0.5236 -0.9067
 5945TIP3   OH239393   4.385   4.681   7.688 -0.3683  0.0951 -0.2891
 5945TIP3    H139394   4.414   4.771   7.669 -0.0490 -0.1751 -1.1160
 5945TIP3    H239395   4.295   4.678   7.654  0.1502 -0.3430 -1.7127
 5946TIP3   OH239396   4.856   5.108   1.882  0.2751  0.0453  0.5313
 5946TIP3    H139397   4.804   5.184   1.858  2.2033  0.5930 -2.3931
 5946TIP3    H239398   4.931   5.144   1.929  0.3985 -0.2466  0.5628
 5947TIP3   OH239399   5.311   4.899   1.404 -0.5009 -0.1049 -0.1607
 5947TIP3    H139400   5.235   4.937   1.361 -1.6821 -2.1956 -0.0258
 5947TIP3    H239401   5.334   4.823   1.351  0.4668 -0.4545  0.7233
 5948TIP3   OH239402   3.475   6.399   0.889 -0.4169  0.1157 -0.1153
 5948TIP3    H139403   3.417   6.460   0.842 -0.7662 -0.1454 -0.0247
 5948TIP3    H239404   3.551   6.453   0.912 -0.5516  0.4237 -0.3680
 5949TIP3   OH239405   2.640   0.247   2.062  0.2909  0.1771  0.5715
 5949TIP3    H139406   2.633   0.154   2.043 -0.0630  0.3429 -0.1233
 5949TIP3    H239407   2.670   0.251   2.153  1.9634 -0.6301  0.1017
 5950TIP3   OH239408   1.384   1.669   8.208 -0.1116 -0.2316  0.2361
 5950TIP3    H139409   1.427   1.583   8.202  0.7302  0.2254 -0.3354
 5950TIP3    H239410   1.443   1.721   8.263 -0.3198  0.1625  0.0874
 5951TIP3   OH239411   3.417   5.061   2.135 -0.7132  0.0682  0.2365
 5951TIP3    H139412   3.345   5.073   2.073 -0.8411  0.5665  0.4737
 5951TIP3    H239413   3.491   5.033   2.081 -1.6652 -2.8353  0.2558
 5952TIP3   OH239414   0.290   5.381   2.518  0.2769 -0.4582  0.5225
 5952TIP3    H139415   0.343   5.381   2.439 -0.3603 -1.0745  0.0839
 5952TIP3    H239416   0.230   5.307   2.507  0.6367 -1.0027  1.8842
 5953TIP3   OH239417   3.807   1.926   0.961  0.4149  0.9019 -0.8187
 5953TIP3    H139418   3.796   1.976   0.881  2.4661  2.2727 -0.3445
 5953TIP3    H239419   3.751   1.969   1.025  0.2666  1.0199 -1.0273
 5954TIP3   OH239420   3.110   6.386   1.666  0.5865  0.3439 -0.2984
 5954TIP3    H139421   3.085   6.478   1.672 -0.1811  0.0933  0.4963
 5954TIP3    H239422   3.085   6.349   1.751  0.6640 -0.6524 -0.6992
 5955TIP3   OH239423   5.713   3.673   0.598  0.1190 -0.2179 -0.3986
 5955TIP3    H139424   5.653   3.747   0.609  1.9984  1.2800  0.3019
 5955TIP3    H239425   5.706   3.623   0.680 -0.0745  0.0231 -0.2682
 5956TIP3   OH239426   2.737   3.721   1.491 -0.6165 -0.3166  0.0474
 5956TIP3    H139427   2.731   3.645   1.549 -1.7175  0.2145  0.6480
 5956TIP3    H239428   2.771   3.791   1.547  0.4998 -0.3671 -0.5298
 5957TIP3   OH239429   2.573   5.188   3.071  0.5720  0.5276  0.6183
 5957TIP3    H139430   2.562   5.212   3.163  0.9454 -1.4113  1.2064
 5957TIP3    H239431   2.635   5.115   3.072  1.9454  1.5439 -1.3249
 5958TIP3   OH239432   5.926   0.197   2.333  0.1913  0.3391  0.3389
 5958TIP3    H139433   6.021   0.196   2.330  0.3150  4.0037 -0.6610
 5958TIP3    H239434   5.902   0.104   2.341  3.7642 -0.7344  0.4009
 5959TIP3   OH239435   3.367   2.792   0.030 -0.8668 -0.0640  0.2156
 5959TIP3    H139436   3.298   2.830  -0.025 -1.2700  0.3215  0.9521
 5959TIP3    H239437   3.436   2.858   0.031 -1.8413  1.0392  2.0276
 5960TIP3   OH239438   2.597   4.528   8.254  1.1706  0.1713 -0.2590
 5960TIP3    H139439   2.608   4.621   8.233  1.2343  0.0883 -0.6019
 5960TIP3    H239440   2.544   4.528   8.333  0.2118  0.4806 -0.8800
 5961TIP3   OH239441   2.817   1.125   1.926  0.0211 -0.8519  0.0385
 5961TIP3    H139442   2.756   1.187   1.966  0.8636 -0.0383  0.1043
 5961TIP3    H239443   2.830   1.058   1.992  0.5335 -0.1127  0.7005
 5962TIP3   OH239444   5.233   5.907   8.031  0.0947  0.2833 -0.5493
 5962TIP3    H139445   5.315   5.874   7.995  0.2262  1.4879 -1.3966
 5962TIP3    H239446   5.169   5.839   8.009  0.9644 -1.0370  0.7899
 5963TIP3   OH239447   4.155   3.039   8.654 -0.3175 -0.1609  0.3576
 5963TIP3    H139448   4.118   2.976   8.593 -0.2930  0.0656  0.1089
 5963TIP3    H239449   4.087   3.105   8.665  0.0079  0.2535 -0.0964
 5964TIP3   OH239450   1.614   2.058   2.223  0.4662 -0.7097 -0.0648
 5964TIP3    H139451   1.557   2.062   2.300  2.6550  2.1941  1.6029
 5964TIP3    H239452   1.568   2.109   2.157 -0.2815 -1.0365  0.1946
 5965TIP3   OH239453   5.873   0.779   0.518  0.2910 -0.5165 -0.4053
 5965TIP3    H139454   5.908   0.846   0.576 -1.3131  1.0882 -1.1972
 5965TIP3    H239455   5.860   0.703   0.576  2.3552 -0.2741  0.4568
 5966TIP3   OH239456   1.740   5.163   2.154 -0.2839 -0.0461 -1.0376
 5966TIP3    H139457   1.680   5.112   2.208 -2.1074  0.7345 -2.2136
 5966TIP3    H239458   1.797   5.207   2.217 -3.3645  2.1534  0.5373
 5967TIP3   OH239459   2.486   4.182   1.014  0.4122  0.1291  0.8270
 5967TIP3    H139460   2.503   4.276   1.010  0.4439  0.0961  0.0641
 5967TIP3    H239461   2.570   4.143   1.037  0.2303  0.3326  1.9175
 5968TIP3   OH239462   3.011   3.870   0.085 -0.4882 -0.2478  0.2777
 5968TIP3    H139463   3.012   3.844   0.177  3.2862 -0.9584  0.1742
 5968TIP3    H239464   3.062   3.802   0.040 -2.7357 -0.2660 -2.5134
 5969TIP3   OH239465   5.589   2.823   1.373 -0.1848 -0.1584  0.1551
 5969TIP3    H139466   5.586   2.830   1.468 -0.2438  1.3080  0.0789
 5969TIP3    H239467   5.671   2.865   1.348 -0.9927  1.0927 -0.5191
 5970TIP3   OH239468   2.935   6.267   1.343 -0.2025 -0.0626 -0.3329
 5970TIP3    H139469   2.941   6.207   1.269 -0.5684  0.8192 -1.1014
 5970TIP3    H239470   3.002   6.236   1.405 -0.4225 -1.2737 -0.6820
 5971TIP3   OH239471   5.040   6.524   8.399  0.2408  0.2454 -0.4198
 5971TIP3    H139472   5.023   6.550   8.490 -0.3769  0.5755 -0.6250
 5971TIP3    H239473   4.954   6.495   8.367  0.6410 -0.7859 -0.6062
 5972TIP3   OH239474   1.611   3.981   1.604  0.4027 -0.0124  0.4076
 5972TIP3    H139475   1.680   4.025   1.553  2.8074 -0.6094  2.9238
 5972TIP3    H239476   1.642   3.891   1.613 -2.2104 -1.1357 -0.7815
 5973TIP3   OH239477   5.320   0.039   7.301 -0.3722  0.1771 -0.1746
 5973TIP3    H139478   5.301  -0.005   7.218 -2.7992 -0.7298  0.7541
 5973TIP3    H239479   5.240   0.087   7.321 -0.5660 -1.0708  2.4722
 5974TIP3   OH239480   6.190   2.003   0.222  0.1912  0.1819  0.1686
 5974TIP3    H139481   6.170   2.096   0.226 -0.2726  0.1336 -0.7387
 5974TIP3    H239482   6.272   1.997   0.173 -1.3259 -0.0115 -2.6183
 5975TIP3   OH239483   0.845   2.186   1.504  0.5601 -0.1820  0.1626
 5975TIP3    H139484   0.753   2.174   1.480  0.9755 -1.6375 -0.8774
 5975TIP3    H239485   0.853   2.279   1.526 -0.1631  1.2043 -4.3907
 5976TIP3   OH239486   0.691   1.865   0.954 -0.2252 -0.2134  0.1570
 5976TIP3    H139487   0.700   1.783   0.906  0.6721  0.1211 -0.2618
 5976TIP3    H239488   0.604   1.860   0.993 -0.1761 -1.3824  0.1732
 5977TIP3   OH239489   1.726   0.102   0.741 -0.0963  0.2963  0.0584
 5977TIP3    H139490   1.814   0.118   0.707 -1.0068  1.3374 -1.9126
 5977TIP3    H239491   1.696   0.025   0.693 -0.3504  0.0515  0.5994
 5978TIP3   OH239492   1.031   2.129   2.502  0.0632  0.2670  0.0064
 5978TIP3    H139493   1.032   2.140   2.597 -2.8064  1.3970  0.0186
 5978TIP3    H239494   1.001   2.214   2.469 -0.0523 -0.4514 -1.8168
 5979TIP3   OH239495   4.230   1.698   7.593  0.2446  0.7023 -0.4002
 5979TIP3    H139496   4.202   1.743   7.513  0.1469 -0.3563 -0.9835
 5979TIP3    H239497   4.174   1.733   7.662 -1.3857 -0.1353 -1.2411
 5980TIP3   OH239498   6.030   1.801   0.546  0.1775 -0.0886  0.3989
 5980TIP3    H139499   6.114   1.817   0.503 -0.0033 -1.0465 -0.3498
 5980TIP3    H239500   5.966   1.805   0.474 -0.4335  0.6851  0.9652
 5981TIP3   OH239501   2.413   5.245   2.662  0.3705 -0.3021  0.1878
 5981TIP3    H139502   2.498   5.280   2.687  0.6055 -0.9300  0.2807
 5981TIP3    H239503   2.429   5.152   2.646  0.0473 -0.0952 -1.4730
 5982TIP3   OH239504   0.895   0.635   3.228 -0.1180 -0.1830 -0.2806
 5982TIP3    H139505   0.831   0.672   3.166 -0.5789  0.0765  0.3396
 5982TIP3    H239506   0.975   0.685   3.213 -0.3278  0.1125 -0.4243
 5983TIP3   OH239507   4.442   2.811   8.036  0.4266 -0.0776  0.0367
 5983TIP3    H139508   4.395   2.826   8.118 -2.8692 -0.5112 -1.5851
 5983TIP3    H239509   4.504   2.884   8.030 -0.6237  1.0663  1.9813
 5984TIP3   OH239510   2.972   0.857   7.690 -0.6508 -0.3290 -0.1014
 5984TIP3    H139511   2.995   0.888   7.602  1.0147  0.1087  0.4504
 5984TIP3    H239512   2.914   0.782   7.675 -2.4425  1.2140 -1.5268
 5985TIP3   OH239513   6.217   2.985   2.094 -0.5327  0.1460 -0.5342
 5985TIP3    H139514   6.139   3.034   2.120 -0.2488  0.2949  0.0689
 5985TIP3    H239515   6.245   2.940   2.174  0.2867  0.4987 -0.6079
 5986TIP3   OH239516   2.787   3.663   0.633  0.3836  0.3086 -0.6154
 5986TIP3    H139517   2.705   3.631   0.595  0.1718  0.6183 -0.4251
 5986TIP3    H239518   2.854   3.640   0.569  0.1033  0.3347 -0.9221
 5987TIP3   OH239519   1.123   0.026   1.612 -0.7464  0.1371 -0.6300
 5987TIP3    H139520   1.129   0.101   1.671  2.6121 -0.2987 -0.2472
 5987TIP3    H239521   1.204   0.028   1.561 -1.1340 -2.4841 -1.5246
 5988TIP3   OH239522   1.366   0.476   2.392  0.2153  0.0843  0.7822
 5988TIP3    H139523   1.275   0.460   2.416 -0.4013  0.1880 -1.2745
 5988TIP3    H239524   1.393   0.398   2.344  0.0980  1.3550 -1.4859
 5989TIP3   OH239525   2.764   6.075   1.186  0.1807 -0.0490  0.4958
 5989TIP3    H139526   2.790   6.156   1.144 -2.3117 -0.3151 -1.8683
 5989TIP3    H239527   2.682   6.096   1.231  0.1536 -0.9661  0.9121
 5990TIP3   OH239528   6.238   5.928   2.131  0.2220 -0.0402 -0.2935
 5990TIP3    H139529   6.196   5.978   2.202 -0.3497 -1.3194  0.2995
 5990TIP3    H239530   6.282   5.856   2.176 -0.5453 -1.1424 -1.2681
 5991TIP3   OH239531   2.155   6.488   2.423 -0.3212  0.1018 -0.2188
 5991TIP3    H139532   2.139   6.399   2.391  0.6284 -0.4922  0.9059
 5991TIP3    H239533   2.194   6.476   2.509  0.5659  1.6050 -0.3850
 5992TIP3   OH239534   0.483   6.124   2.003  0.2464  0.5795  0.3185
 5992TIP3    H139535   0.439   6.144   2.085 -1.0532 -0.6055 -0.0413
 5992TIP3    H239536   0.512   6.209   1.970 -0.8544  1.2990  1.1004
 5993TIP3   OH239537   3.079   0.529   2.493 -0.5232 -0.0109  0.0609
 5993TIP3    H139538   3.142   0.586   2.450 -1.0362  1.0903  0.7354
 5993TIP3    H239539   3.115   0.517   2.581 -0.5087 -0.6078 -0.0200
 5994TIP3   OH239540   1.665   3.677   0.053  0.0834 -0.0869  0.0650
 5994TIP3    H139541   1.706   3.732  -0.014  1.5181 -1.6004 -0.3649
 5994TIP3    H239542   1.638   3.598   0.006  2.0234 -1.6363  1.3424
 5995TIP3   OH239543   2.584   6.572   0.474  0.1388  0.1851  0.1228
 5995TIP3    H139544   2.548   6.510   0.538  0.1225  0.7124  0.6322
 5995TIP3    H239545   2.658   6.526   0.435  0.1539 -0.1395  0.5273
 5996TIP3   OH239546   2.037   6.280   7.652  0.3692 -0.1156  0.8193
 5996TIP3    H139547   2.111   6.340   7.661  0.0025  0.7896 -1.4471
 5996TIP3    H239548   1.981   6.321   7.587 -0.3549 -2.4986 -0.1662
 5997TIP3   OH239549   6.509   1.801   2.479 -0.1830  0.0865 -0.0147
 5997TIP3    H139550   6.545   1.735   2.419  1.1785 -0.6343  1.5207
 5997TIP3    H239551   6.516   1.761   2.565 -0.2887  1.8422  0.8402
 5998TIP3   OH239552   6.129   2.134   1.391 -0.2013  0.3060  0.4962
 5998TIP3    H139553   6.118   2.227   1.373  0.8740  0.1671 -1.1335
 5998TIP3    H239554   6.047   2.094   1.365  0.0320  0.5830 -0.7104
 5999TIP3   OH239555   4.671   5.645   0.750 -0.3114  0.7824 -0.3364
 5999TIP3    H139556   4.588   5.646   0.703 -0.0046  1.4399 -0.8838
 5999TIP3    H239557   4.684   5.553   0.774 -1.1409  0.6588 -0.3315
 6000TIP3   OH239558   2.563   4.550   1.304  0.1144 -0.0020 -0.8100
 6000TIP3    H139559   2.542   4.459   1.324 -0.3832 -0.1665 -1.9976
 6000TIP3    H239560   2.656   4.559   1.327  0.3465 -1.0014 -1.3009
 6001TIP3   OH239561   6.398   6.132   2.641  0.0307  0.1835  0.2989
 6001TIP3    H139562   6.398   6.160   2.732  1.7389  0.1977  0.3154
 6001TIP3    H239563   6.481   6.163   2.605 -1.3133  1.6622 -1.7638
 6002TIP3   OH239564   2.898   6.170   0.499 -0.0041  0.6332 -0.0313
 6002TIP3    H139565   2.810   6.148   0.468 -0.6646  1.2494  1.3265
 6002TIP3    H239566   2.929   6.237   0.438 -0.5308  0.5269 -0.4243
 6003TIP3   OH239567   3.045   5.558   7.358  0.8117 -0.1469 -0.2197
 6003TIP3    H139568   3.003   5.534   7.441 -0.2641 -1.3512 -1.0791
 6003TIP3    H239569   3.086   5.477   7.327 -0.2603 -0.1763 -1.6807
 6004TIP3   OH239570   4.508   6.109   8.644 -0.4945  0.6249 -0.2964
 6004TIP3    H139571   4.423   6.064   8.644 -1.3477  2.1317 -1.0994
 6004TIP3    H239572   4.568   6.049   8.687 -1.6954 -1.0160 -0.8322
 6005TIP3   OH239573   1.071   0.268   1.778 -0.1168  0.2035  0.8717
 6005TIP3    H139574   1.013   0.318   1.720  0.7493 -0.2213 -0.3973
 6005TIP3    H239575   1.020   0.257   1.859 -1.4397  0.6197  0.1297
 6006TIP3   OH239576   5.480   0.970   1.445 -0.0414  0.3286  0.3466
 6006TIP3    H139577   5.555   0.931   1.401 -0.1673 -0.2376  0.6311
 6006TIP3    H239578   5.404   0.941   1.394 -0.0466  1.2198 -0.1734
 6007TIP3   OH239579   2.315   5.128   3.007 -0.7501 -0.5631  0.1177
 6007TIP3    H139580   2.297   5.089   3.093 -1.2812 -2.0554 -0.6381
 6007TIP3    H239581   2.409   5.146   3.009 -0.7977 -0.3571  1.1015
 6008TIP3   OH239582   4.419   0.153   1.824 -0.0387  0.6323 -0.3000
 6008TIP3    H139583   4.444   0.211   1.752 -0.3141 -0.8111 -1.6035
 6008TIP3    H239584   4.345   0.198   1.866 -0.1362  1.3112 -1.1724
 6009TIP3   OH239585   4.907   1.646   2.558 -0.0062 -0.1529 -0.8068
 6009TIP3    H139586   4.888   1.577   2.622 -0.3662  1.2004  0.5962
 6009TIP3    H239587   4.976   1.698   2.599  0.9697 -0.2247 -2.2839
 6010TIP3   OH239588   0.887   2.529   1.813  0.0017 -0.5226  0.1960
 6010TIP3    H139589   0.973   2.491   1.794 -0.6500 -2.6275  1.1859
 6010TIP3    H239590   0.860   2.487   1.894 -0.2655  3.0659  2.1660
 6011TIP3   OH239591   5.285   1.478   1.133  0.9537 -0.4023 -0.1568
 6011TIP3    H139592   5.278   1.555   1.189  1.2069 -1.9960  2.2143
 6011TIP3    H239593   5.335   1.415   1.185 -0.3921 -2.6606 -1.4422
 6012TIP3   OH239594   4.329   2.761   1.854 -0.1438 -0.0464 -0.4166
 6012TIP3    H139595   4.257   2.808   1.895  0.0679  0.6174 -0.7963
 6012TIP3    H239596   4.320   2.781   1.760 -0.3053 -1.1049 -0.6409
 6013TIP3   OH239597   4.744   1.010   0.223 -0.3742  0.6396  0.1235
 6013TIP3    H139598   4.706   1.087   0.265 -1.1949  0.5053 -0.3520
 6013TIP3    H239599   4.669   0.954   0.202  0.2973 -0.9727  1.7472
 6014TIP3   OH239600   0.736   3.339   1.556 -0.8888  0.4462  0.6031
 6014TIP3    H139601   0.687   3.409   1.513 -0.1376  1.2916  1.0883
 6014TIP3    H239602   0.824   3.376   1.569 -0.1034 -1.0063 -0.2191
 6015TIP3   OH239603   3.185   3.099   2.104 -0.7344 -0.1591 -0.3051
 6015TIP3    H139604   3.096   3.132   2.095 -0.9285 -0.3563  0.6973
 6015TIP3    H239605   3.236   3.145   2.037 -1.1508  1.5966  0.5190
 6016TIP3   OH239606   2.888   4.213   2.901  0.4321  0.0139 -0.3524
 6016TIP3    H139607   2.953   4.146   2.881 -0.9254 -1.3895 -0.2098
 6016TIP3    H239608   2.850   4.235   2.815 -0.4709 -0.8369 -0.1815
 6017TIP3   OH239609   3.194   1.532   0.420 -0.6382 -0.4913  0.0202
 6017TIP3    H139610   3.135   1.507   0.491 -3.2997 -0.3682 -1.9642
 6017TIP3    H239611   3.142   1.592   0.366  1.0587 -0.9360 -2.2803
 6018TIP3   OH239612   0.528   2.061   1.238 -0.2925  0.1555 -0.3356
 6018TIP3    H139613   0.443   2.064   1.282 -0.7530  1.5607 -1.2527
 6018TIP3    H239614   0.511   2.019   1.154 -0.4972  2.0122 -1.2767
 6019TIP3   OH239615   6.000   4.494   0.228 -0.4151  0.8096  0.1125
 6019TIP3    H139616   6.026   4.570   0.280  0.3943  0.8374 -0.3093
 6019TIP3    H239617   6.056   4.423   0.259 -0.7933  0.5176  0.1349
 6020TIP3   OH239618   3.581   0.056   8.268  0.5317 -0.0877  0.0573
 6020TIP3    H139619   3.645   0.101   8.214  0.8306 -1.6392 -0.9643
 6020TIP3    H239620   3.507   0.116   8.274  1.0384  0.6671 -0.9769
 6021TIP3   OH239621   2.425   5.324   1.567  0.1128  0.3933  0.2025
 6021TIP3    H139622   2.361   5.323   1.496 -1.3135  1.6793  1.3818
 6021TIP3    H239623   2.507   5.298   1.526 -0.7041  0.8441 -1.8443
 6022TIP3   OH239624   2.169   0.541   8.685  0.2557  0.4683 -0.5592
 6022TIP3    H139625   2.202   0.489   8.612  0.7005 -0.2913  0.1672
 6022TIP3    H239626   2.211   0.503   8.763 -2.3800 -0.6748  0.4433
 6023TIP3   OH239627   1.911   5.958   2.110  0.1345 -0.5049  0.0906
 6023TIP3    H139628   1.933   5.877   2.063 -0.7208 -0.5996 -0.1668
 6023TIP3    H239629   1.980   6.020   2.084 -0.3750 -0.5256 -1.3864
 6024TIP3   OH239630   1.018   3.505   3.100  0.6586  0.0837 -0.4115
 6024TIP3    H139631   1.007   3.561   3.024 -0.9715  1.5663  0.8494
 6024TIP3    H239632   0.993   3.418   3.069 -4.0534  1.2756 -0.7527
 6025TIP3   OH239633   4.683   0.197   0.338 -0.2801  0.7120  0.1116
 6025TIP3    H139634   4.662   0.288   0.318 -1.5192  0.4002 -0.0744
 6025TIP3    H239635   4.639   0.147   0.269 -0.8566 -0.1180  1.0540
 6026TIP3   OH239636   3.672   3.222   8.104 -0.1595 -0.0374  0.2367
 6026TIP3    H139637   3.634   3.239   8.018 -0.3816  0.7160  0.4747
 6026TIP3    H239638   3.611   3.263   8.166  0.6682  0.5783  0.6647
 6027TIP3   OH239639   2.014   3.974   7.989  0.2565 -0.1923  0.6276
 6027TIP3    H139640   1.976   3.888   7.970 -1.3676  0.4339  0.8947
 6027TIP3    H239641   2.016   4.019   7.904  2.6311 -1.0036  0.1611
 6028TIP3   OH239642   3.563   6.027   7.864 -0.7394 -0.4982  0.0730
 6028TIP3    H139643   3.500   5.982   7.807 -0.0969 -0.9361 -0.3079
 6028TIP3    H239644   3.542   6.120   7.854  0.5547 -0.3910 -2.4137
 6029TIP3   OH239645   0.820   5.317   7.766 -0.0496  0.0509 -0.2961
 6029TIP3    H139646   0.764   5.274   7.701  0.5594  3.2362 -3.1971
 6029TIP3    H239647   0.787   5.407   7.772  2.1009  0.8327  1.2001
 6030TIP3   OH239648   2.930   1.574   1.701 -0.9712  0.2695  0.1937
 6030TIP3    H139649   2.953   1.612   1.786  1.7275  0.0266 -0.3635
 6030TIP3    H239650   2.933   1.479   1.715  1.3472  0.1826 -0.5499
 6031TIP3   OH239651   1.895   3.954   7.382  0.3001  0.0654 -0.3661
 6031TIP3    H139652   1.980   3.953   7.337  0.0963 -1.3722 -0.7836
 6031TIP3    H239653   1.832   3.970   7.313  0.0046 -1.9212 -0.6167
 6032TIP3   OH239654   1.642   2.169   3.231  0.0028  0.0164  0.8065
 6032TIP3    H139655   1.691   2.155   3.150  0.0038  2.6738  0.2712
 6032TIP3    H239656   1.683   2.109   3.294  1.9687 -0.0008 -0.4074
 6033TIP3   OH239657   5.524   3.306   0.755 -0.4206  0.0106  0.5269
 6033TIP3    H139658   5.590   3.280   0.819  0.0506  1.9250  0.8952
 6033TIP3    H239659   5.557   3.275   0.671  0.1729 -0.4145  0.9165
 6034TIP3   OH239660   2.835   3.230   0.767  0.1534  0.1021 -0.4812
 6034TIP3    H139661   2.856   3.136   0.761  1.6750  0.4776 -1.5572
 6034TIP3    H239662   2.914   3.274   0.736  0.0899  1.8091  1.5818
 6035TIP3   OH239663   2.956   2.111   8.695  0.4957 -0.2796  0.8661
 6035TIP3    H139664   2.984   2.115   8.787 -0.5017 -1.1695  1.2298
 6035TIP3    H239665   2.956   2.018   8.675 -1.1044 -0.2215  0.5452
 6036TIP3   OH239666   4.622   5.989   1.262 -0.4421 -0.3647  0.5059
 6036TIP3    H139667   4.604   6.077   1.229  1.2640 -1.4606 -4.0909
 6036TIP3    H239668   4.536   5.955   1.289 -1.5268  1.8202 -0.0194
 6037TIP3   OH239669   4.921   5.879   1.995 -0.1051 -0.0094  0.5306
 6037TIP3    H139670   4.915   5.889   2.090 -0.3242  3.0511  0.2914
 6037TIP3    H239671   4.854   5.938   1.960  1.9390  1.2364 -1.5546
 6038TIP3   OH239672   0.856   3.218   2.738 -0.0159  0.6888  0.0491
 6038TIP3    H139673   0.872   3.131   2.702  0.2142 -0.1500  2.0423
 6038TIP3    H239674   0.792   3.257   2.679 -0.6118 -1.0653 -0.5297
 6039TIP3   OH239675   6.086   1.177   8.391  0.2156 -0.1734  0.2232
 6039TIP3    H139676   6.133   1.110   8.440 -2.8279 -0.6651  2.8157
 6039TIP3    H239677   6.032   1.128   8.328 -0.4192 -0.0121  0.6349
 6040TIP3   OH239678   0.200   3.835   1.973 -0.1057  0.1031  0.7003
 6040TIP3    H139679   0.194   3.764   1.909 -2.0094  0.5094  0.3875
 6040TIP3    H239680   0.294   3.848   1.985  0.3145 -2.3301  0.6195
 6041TIP3   OH239681   6.028   5.076   8.678  0.1194  0.3378  0.0183
 6041TIP3    H139682   6.094   5.039   8.620 -0.4300 -0.8053  0.1022
 6041TIP3    H239683   6.066   5.068   8.766 -0.7003 -1.7066  0.2372
 6042TIP3   OH239684   5.146   2.190   0.310  0.4494 -0.5099  0.8072
 6042TIP3    H139685   5.185   2.108   0.341  1.1294 -0.0164  1.2820
 6042TIP3    H239686   5.115   2.169   0.221 -0.5291 -1.6263  1.3845
 6043TIP3   OH239687   4.886   0.736   1.384 -0.2832  0.3939  0.1107
 6043TIP3    H139688   4.902   0.676   1.311 -0.6060 -0.6724  0.8856
 6043TIP3    H239689   4.936   0.815   1.363  1.4725 -0.7516 -0.1695
 6044TIP3   OH239690   5.631   4.998   0.576 -0.0642 -0.2068  0.2968
 6044TIP3    H139691   5.590   5.004   0.490 -1.2109 -0.3333  0.8097
 6044TIP3    H239692   5.579   5.058   0.631  0.6231 -0.1529  0.9054
 6045TIP3   OH239693   6.456   1.999   2.911 -0.2048 -0.5941 -0.5650
 6045TIP3    H139694   6.523   2.049   2.864  1.2690 -0.6944  1.3257
 6045TIP3    H239695   6.388   1.984   2.845 -0.2749  2.9623 -1.5045
 6046TIP3   OH239696   5.683   3.015   8.397 -0.0262  0.4121 -0.2864
 6046TIP3    H139697   5.646   2.930   8.420  0.9529 -0.2532 -1.0655
 6046TIP3    H239698   5.703   3.008   8.303  2.0774  0.7002  0.0886
 6047TIP3   OH239699   4.732   0.430   1.925  0.4425  0.2381 -0.5446
 6047TIP3    H139700   4.739   0.421   1.830  2.1381 -3.5275 -0.2174
 6047TIP3    H239701   4.637   0.433   1.942 -0.0605 -2.5345 -2.2374
 6048TIP3   OH239702   1.911   1.029   2.638 -0.0059 -0.0384  0.9698
 6048TIP3    H139703   1.907   1.090   2.712  0.7305 -1.0757  1.9063
 6048TIP3    H239704   1.987   1.058   2.587 -1.3214  1.5358 -0.2246
 6049TIP3   OH239705   6.097   6.097   7.434 -0.5783  0.1502  0.0607
 6049TIP3    H139706   6.008   6.064   7.442 -0.9049 -0.1214 -3.4043
 6049TIP3    H239707   6.090   6.176   7.381  1.2533 -0.1413 -0.7073
 6050TIP3   OH239708   3.651   6.333   0.014  0.2675 -0.7905  0.3698
 6050TIP3    H139709   3.714   6.315   0.084 -0.1286 -0.3829  0.8363
 6050TIP3    H239710   3.665   6.263  -0.050 -0.1688 -1.8525  1.4028
 6051TIP3   OH239711   0.674   1.318   3.072  0.3167  0.1451 -0.3755
 6051TIP3    H139712   0.734   1.392   3.065  0.1264  0.3965  0.5032
 6051TIP3    H239713   0.673   1.279   2.984  0.4365  1.1641 -0.8424
 6052TIP3   OH239714   2.913   4.865   2.926  0.5687  0.5089  0.2064
 6052TIP3    H139715   2.866   4.868   2.842  1.0385 -0.7703 -0.1160
 6052TIP3    H239716   2.853   4.907   2.988 -0.5399 -0.1035 -0.4175
 6053TIP3   OH239717   4.556   1.961   3.535  0.1307  0.2444  0.1141
 6053TIP3    H139718   4.647   1.949   3.510  0.3013  0.2208  0.7197
 6053TIP3    H239719   4.558   2.029   3.602 -0.3081  0.3201  0.0560
 6054TIP3   OH239720   2.000   4.771   2.217 -0.2575 -0.2608 -0.0284
 6054TIP3    H139721   1.927   4.710   2.229  0.1849 -0.8510 -0.3079
 6054TIP3    H239722   1.964   4.856   2.242 -1.3882 -0.3547 -1.2291
 6055TIP3   OH239723   5.271   6.185   8.057  0.0900  0.0690 -0.5206
 6055TIP3    H139724   5.179   6.187   8.082 -0.5346  0.5785 -2.6233
 6055TIP3    H239725   5.294   6.092   8.055 -0.2552 -0.0401  0.3818
 6056TIP3   OH239726   4.166   0.687   2.792  0.4303 -0.0694 -0.2880
 6056TIP3    H139727   4.107   0.681   2.868 -1.3514  0.6692 -1.5458
 6056TIP3    H239728   4.227   0.615   2.803  0.1387 -0.0606  1.7791
 6057TIP3   OH239729   0.756   0.015   1.704 -0.4789 -0.5207  0.8328
 6057TIP3    H139730   0.759   0.078   1.776  1.1193 -1.9828  2.1490
 6057TIP3    H239731   0.663  -0.001   1.689 -0.8799  1.3252  1.1777
 6058TIP3   OH239732   4.046   2.347   8.670 -0.3017 -0.1274  0.1982
 6058TIP3    H139733   4.108   2.364   8.741  0.5766 -1.9511 -0.0892
 6058TIP3    H239734   3.961   2.347   8.713 -0.1695  2.3722  0.6067
 6059TIP3   OH239735   2.989   6.579   7.992  0.2029  0.2326  0.4696
 6059TIP3    H139736   2.968   6.487   8.010 -0.4144  0.2331 -0.2147
 6059TIP3    H239737   2.904   6.622   7.982  0.4970  0.7142  0.0014
 6060TIP3   OH239738   1.494   4.413   1.635  0.0992 -0.2989 -0.2777
 6060TIP3    H139739   1.561   4.477   1.660  2.5160 -2.9671  0.5769
 6060TIP3    H239740   1.426   4.425   1.701  0.7312  0.9822  0.1963
 6061TIP3   OH239741   2.872   3.318   1.383 -0.6087  0.0273  0.8334
 6061TIP3    H139742   2.815   3.241   1.376  0.1896 -0.7152  1.9742
 6061TIP3    H239743   2.842   3.363   1.462 -0.2913  0.2080  0.8538
 6062TIP3   OH239744   3.498   5.258   7.849 -0.2762  0.8361  0.2571
 6062TIP3    H139745   3.577   5.282   7.799 -0.0648  0.4792  0.4232
 6062TIP3    H239746   3.522   5.179   7.896 -0.1522  1.6995  1.7097
 6063TIP3   OH239747   4.861   6.192   1.095 -0.3501  0.1247 -0.1813
 6063TIP3    H139748   4.821   6.254   1.155 -1.0901  0.8037 -1.3370
 6063TIP3    H239749   4.791   6.169   1.033 -0.8866 -3.8415  1.6177
 6064TIP3   OH239750   3.781   0.320   3.155  0.2119 -0.1355 -0.4580
 6064TIP3    H139751   3.694   0.352   3.178 -0.2434 -1.9404  0.4729
 6064TIP3    H239752   3.825   0.307   3.239 -0.1201 -3.1604 -0.6395
 6065TIP3   OH239753   1.807   3.117   0.019 -0.0451  0.3638 -0.7493
 6065TIP3    H139754   1.881   3.176   0.003 -0.3685  1.5149  1.4953
 6065TIP3    H239755   1.730   3.167  -0.009 -0.5097  1.9694  2.8194
 6066TIP3   OH239756   0.643   6.740   0.428 -0.2420  0.2536  0.0528
 6066TIP3    H139757   0.652   6.658   0.477  1.9564 -0.2965 -1.1461
 6066TIP3    H239758   0.730   6.780   0.431 -1.6350  3.5529  2.1487
 6067TIP3   OH239759   1.427   2.203   8.483 -0.0111 -0.2625  0.4407
 6067TIP3    H139760   1.432   2.212   8.578 -0.8775  0.2768  0.4494
 6067TIP3    H239761   1.354   2.142   8.469 -0.2329  0.0696  0.1176
 6068TIP3   OH239762   5.822   0.141   0.826 -0.1655 -0.1476 -0.6088
 6068TIP3    H139763   5.830   0.094   0.909 -0.7644 -1.6424 -1.3574
 6068TIP3    H239764   5.826   0.234   0.850 -0.6057 -0.5464  1.1161
 6069TIP3   OH239765   1.599   4.851   0.823  0.5600 -0.0069  0.2162
 6069TIP3    H139766   1.668   4.909   0.790  0.3983  1.3754  2.1480
 6069TIP3    H239767   1.522   4.908   0.831 -0.0913 -0.9112  0.5733
 6070TIP3   OH239768   0.936   5.559   8.207  0.1979  0.1206  0.1122
 6070TIP3    H139769   0.986   5.586   8.284  0.2054 -0.3208  0.2590
 6070TIP3    H239770   0.983   5.598   8.133 -0.9675  2.3563  0.4419
 6071TIP3   OH239771   4.736   3.442   1.070 -0.3044 -0.3037  0.2612
 6071TIP3    H139772   4.826   3.409   1.063 -0.5831 -1.3040  1.0918
 6071TIP3    H239773   4.718   3.482   0.985  1.7200  2.0143  0.8252
 6072TIP3   OH239774   6.571   0.586   0.508  0.1167  0.4286  0.0439
 6072TIP3    H139775   6.492   0.579   0.455 -0.4615  1.9526  0.6345
 6072TIP3    H239776   6.553   0.532   0.585  0.3032 -0.4875 -0.5432
 6073TIP3   OH239777   6.673   6.483   7.971 -0.3899 -0.1124 -0.1967
 6073TIP3    H139778   6.658   6.577   7.979  1.0843  0.0944  0.4223
 6073TIP3    H239779   6.762   6.470   8.002 -0.3909 -1.6576 -0.7502
 6074TIP3   OH239780   3.377   0.628   2.075  0.6196 -0.4002  0.2424
 6074TIP3    H139781   3.457   0.652   2.122  0.5310  1.1310 -0.3441
 6074TIP3    H239782   3.407   0.566   2.008  1.3714  0.3158 -0.1121
 6075TIP3   OH239783   6.274   3.005   7.307  0.2559 -0.4547 -0.3435
 6075TIP3    H139784   6.355   3.052   7.324  0.0459 -0.6832  1.4509
 6075TIP3    H239785   6.215   3.072   7.273  0.6912  0.0769 -0.0779
 6076TIP3   OH239786   0.380   2.392   3.108  0.2114  0.2462 -0.4212
 6076TIP3    H139787   0.284   2.389   3.112  0.2573 -0.6093  0.7203
 6076TIP3    H239788   0.407   2.376   3.199  1.4331  0.7365 -0.6903
 6077TIP3   OH239789   4.404   6.284   8.245  0.5879  0.3320  0.6493
 6077TIP3    H139790   4.450   6.340   8.182 -0.6649  0.1601 -0.4473
 6077TIP3    H239791   4.467   6.214   8.265  1.3018  0.8441  0.2315
 6078TIP3   OH239792   2.608   4.780   2.144 -0.3739  0.5384  0.2197
 6078TIP3    H139793   2.565   4.860   2.113 -1.1949  0.0561  0.1047
 6078TIP3    H239794   2.696   4.784   2.106 -0.6296  1.0598 -0.3319
 6079TIP3   OH239795   6.561   5.024   2.078  0.3125 -0.0943  0.7655
 6079TIP3    H139796   6.593   4.935   2.091 -1.3567 -1.1331 -1.5130
 6079TIP3    H239797   6.466   5.016   2.087  0.0505  1.2239 -0.5705
 6080TIP3   OH239798   4.666   0.715   2.750 -0.1697  0.5312  0.4270
 6080TIP3    H139799   4.666   0.679   2.839 -0.3920  0.3469  0.3532
 6080TIP3    H239800   4.588   0.677   2.709  0.2579  0.1591 -0.0382
 6081TIP3   OH239801   4.474   3.156   7.693  0.2090  0.1226  0.1607
 6081TIP3    H139802   4.418   3.079   7.694  0.4703 -0.0679  0.2977
 6081TIP3    H239803   4.558   3.124   7.658 -0.0108  0.5773 -0.8209
 6082TIP3   OH239804   3.527   6.196   0.738  0.5077  0.0889  0.2578
 6082TIP3    H139805   3.604   6.175   0.790 -0.2532  1.4773  2.0230
 6082TIP3    H239806   3.510   6.289   0.756 -1.8922 -0.3122  0.3764
 6083TIP3   OH239807   0.141   0.997   1.740 -0.0580  0.0704  0.1885
 6083TIP3    H139808   0.127   1.022   1.649 -0.0047  3.4701  1.0003
 6083TIP3    H239809   0.069   0.937   1.760 -0.7633  0.2177 -1.7261
 6084TIP3   OH239810   6.322   1.414   8.144 -0.5131 -0.2326  0.5347
 6084TIP3    H139811   6.349   1.424   8.053 -0.5805 -1.4852  0.3661
 6084TIP3    H239812   6.290   1.501   8.169  0.8911  0.5261 -0.1706
 6085TIP3   OH239813   5.336   3.758   0.545 -0.1854  0.0488  0.8048
 6085TIP3    H139814   5.410   3.797   0.591  1.5203  1.1758 -2.5310
 6085TIP3    H239815   5.340   3.665   0.567  0.0795  0.6031  3.3189
 6086TIP3   OH239816   3.900   6.725   2.659  0.3899  0.3540 -0.1129
 6086TIP3    H139817   3.915   6.815   2.688  0.9585  0.6661 -1.3261
 6086TIP3    H239818   3.987   6.687   2.650  0.2350  0.1837 -1.0803
 6087TIP3   OH239819   2.355   4.909   2.408 -0.2145  1.0216  0.1987
 6087TIP3    H139820   2.366   4.981   2.345 -0.6686  0.9424  0.0278
 6087TIP3    H239821   2.315   4.950   2.485  0.9221  1.2448  0.6970
 6088TIP3   OH239822   1.715   0.314   2.706  0.3483  0.4421  0.6188
 6088TIP3    H139823   1.624   0.334   2.685  0.4826 -0.3659 -0.8574
 6088TIP3    H239824   1.756   0.296   2.622  1.1037 -2.2714  1.4674
 6089TIP3   OH239825   5.870   4.856   0.003 -0.3571  0.1179  0.0462
 6089TIP3    H139826   5.934   4.925  -0.014 -0.6847  0.1184 -1.3609
 6089TIP3    H239827   5.788   4.903   0.017 -0.6493  0.0478 -1.2429
 6090TIP3   OH239828   0.663   6.002   2.861 -0.0781  0.4851 -0.6456
 6090TIP3    H139829   0.652   6.096   2.873 -0.4144  0.5887 -1.6312
 6090TIP3    H239830   0.754   5.991   2.834  0.5101  0.3102  1.2643
 6091TIP3   OH239831   6.700   5.330   1.733 -0.0644  0.3222  0.1482
 6091TIP3    H139832   6.733   5.242   1.754 -0.2732  0.0717 -0.5202
 6091TIP3    H239833   6.771   5.371   1.683 -0.3271  0.1791 -0.3556
 6092TIP3   OH239834   1.552   6.161   7.958  0.1289 -0.7838  0.4388
 6092TIP3    H139835   1.604   6.242   7.960 -0.8416 -0.0998 -0.6114
 6092TIP3    H239836   1.475   6.184   7.907 -1.4666 -1.6269  2.3275
 6093TIP3   OH239837   1.916   4.917   2.485 -0.4392 -0.0112 -0.2685
 6093TIP3    H139838   1.941   4.942   2.574 -0.3657  0.4095 -0.4019
 6093TIP3    H239839   1.968   4.975   2.429  1.9326 -2.3774 -0.7010
 6094TIP3   OH239840   2.250   2.795   3.329 -0.1393  0.8830 -0.1256
 6094TIP3    H139841   2.189   2.844   3.274 -0.6285  1.7797  1.1672
 6094TIP3    H239842   2.198   2.723   3.365 -1.1559  2.7998  2.6228
 6095TIP3   OH239843   0.321   1.541   1.022 -0.2352  0.5343  0.6662
 6095TIP3    H139844   0.326   1.449   0.995 -0.0002 -0.2129  3.0439
 6095TIP3    H239845   0.298   1.538   1.115  2.9519  2.7707  1.6803
 6096TIP3   OH239846   1.834   1.792   2.818  0.2757  0.3993  0.4839
 6096TIP3    H139847   1.844   1.764   2.727  1.1296  1.6188  0.1695
 6096TIP3    H239848   1.826   1.711   2.868  0.9307 -0.3213 -0.5525
 6097TIP3   OH239849   5.783   0.519   1.623  0.0735  0.0241 -0.0726
 6097TIP3    H139850   5.717   0.506   1.692  0.0044  0.1558 -0.1138
 6097TIP3    H239851   5.756   0.600   1.580  0.0633 -0.1089 -0.3166
 6098TIP3   OH239852   2.254   5.805   1.503 -0.2597  0.1237 -0.4954
 6098TIP3    H139853   2.349   5.806   1.487 -0.3217 -0.1697 -0.8952
 6098TIP3    H239854   2.219   5.869   1.441 -0.3721 -0.1142 -0.6784
 6099TIP3   OH239855   2.396   4.377   0.517  0.7298  0.7244  0.1512
 6099TIP3    H139856   2.451   4.417   0.585  0.5071 -0.8452  1.3020
 6099TIP3    H239857   2.422   4.285   0.517  0.8809  0.7189 -2.0942
 6100TIP3   OH239858   5.477   3.974   0.920 -0.4604 -0.0935  0.1929
 6100TIP3    H139859   5.543   3.920   0.963 -0.7137 -0.5713 -0.0082
 6100TIP3    H239860   5.406   3.980   0.984  0.1328  1.1684  0.7688
 6101TIP3   OH239861   4.593   1.447   8.479 -0.1327  0.0181  0.0513
 6101TIP3    H139862   4.558   1.359   8.493  0.7386 -0.3424  0.0697
 6101TIP3    H239863   4.609   1.480   8.567 -3.2984  1.4323  0.2000
 6102TIP3   OH239864   5.959   0.366   0.413  0.0249 -0.1030 -0.1306
 6102TIP3    H139865   5.931   0.398   0.498 -0.0762  0.5614 -0.4097
 6102TIP3    H239866   5.887   0.309   0.385 -0.7247  0.9834 -0.4951
 6103TIP3   OH239867   1.111   6.180   8.196  0.3564  0.0778 -0.2318
 6103TIP3    H139868   1.037   6.237   8.216  0.7888  0.7903 -0.6351
 6103TIP3    H239869   1.182   6.239   8.175  0.6392 -0.6208 -1.3041
 6104TIP3   OH239870   0.681   2.228   0.497  0.5405 -0.4932  0.4743
 6104TIP3    H139871   0.683   2.138   0.531  0.7753 -1.5512 -2.1115
 6104TIP3    H239872   0.620   2.225   0.424 -0.5600  1.8562  1.1858
 6105TIP3   OH239873   5.583   2.651   7.331 -0.6144  0.8784 -0.1788
 6105TIP3    H139874   5.603   2.636   7.239  2.4141  1.9516  0.2085
 6105TIP3    H239875   5.635   2.585   7.378 -0.4262  1.7155  0.8213
 6106TIP3   OH239876   3.553   0.633   7.988  0.0420  0.0183 -0.1567
 6106TIP3    H139877   3.533   0.539   7.990 -0.8288  0.2060  0.9209
 6106TIP3    H239878   3.580   0.653   8.078  0.6930  0.7143 -0.4997
 6107TIP3   OH239879   0.246   1.955   7.790 -0.3447  0.2020  0.2540
 6107TIP3    H139880   0.296   2.021   7.838 -1.6255  0.5958  1.0714
 6107TIP3    H239881   0.237   1.882   7.852  0.2310 -0.3707 -0.3122
 6108TIP3   OH239882   0.575   2.260   1.476 -0.8688 -0.9184 -0.3027
 6108TIP3    H139883   0.522   2.305   1.410  0.6021 -0.0169 -0.9162
 6108TIP3    H239884   0.568   2.314   1.554  0.1797 -0.0667 -0.7763
 6109TIP3   OH239885   1.406   2.067   8.148  0.5394  0.5206  0.4720
 6109TIP3    H139886   1.484   2.071   8.203 -0.2218  0.8146  1.5655
 6109TIP3    H239887   1.438   2.039   8.063  2.4833  4.1721 -0.2422
 6110TIP3   OH239888   4.754   3.002   0.259 -0.1075 -0.2816  0.5554
 6110TIP3    H139889   4.797   3.003   0.345  0.2620  2.2707  0.4328
 6110TIP3    H239890   4.818   2.962   0.201  0.3734 -0.3883  1.1474
 6111TIP3   OH239891   0.965   4.378   1.204 -0.0311  0.2284 -0.5336
 6111TIP3    H139892   0.979   4.433   1.127  1.6478  0.2555 -0.2553
 6111TIP3    H239893   1.051   4.375   1.246 -0.4935 -1.2600  0.3534
 6112TIP3   OH239894   3.731   5.960   0.594 -0.0372 -0.2150 -0.3416
 6112TIP3    H139895   3.825   5.944   0.580  0.0384 -1.2814  1.1497
 6112TIP3    H239896   3.688   5.904   0.529  0.3320  1.0266 -1.7115
 6113TIP3   OH239897   2.232   3.814   1.956 -0.7677  0.2766 -0.5483
 6113TIP3    H139898   2.176   3.736   1.957 -1.8004  0.9653  1.2026
 6113TIP3    H239899   2.217   3.854   2.042  1.6785  1.0498 -0.4131
 6114TIP3   OH239900   2.738   4.273   1.495  0.4383 -0.4631  0.4138
 6114TIP3    H139901   2.648   4.261   1.523  0.0821 -0.3772 -0.6582
 6114TIP3    H239902   2.763   4.359   1.531  0.2284 -0.6486  1.0166
 6115TIP3   OH239903   6.005   1.018   3.371 -0.0087 -0.2147 -0.3187
 6115TIP3    H139904   5.968   1.097   3.333  0.7755  0.6334  0.6463
 6115TIP3    H239905   6.067   0.986   3.305 -1.1311 -0.6640 -1.1824
 6116TIP3   OH239906   5.735   0.672   8.427  0.0012  0.0375  0.1560
 6116TIP3    H139907   5.774   0.690   8.512  0.3387  0.8549 -0.1690
 6116TIP3    H239908   5.780   0.730   8.366 -0.3258 -0.4456 -0.5652
 6117TIP3   OH239909   1.161   0.459   8.102  0.0123 -0.0270  0.1055
 6117TIP3    H139910   1.115   0.414   8.031  1.3634 -0.8010 -0.3227
 6117TIP3    H239911   1.123   0.424   8.182 -0.0053 -0.7978 -0.2343
 6118TIP3   OH239912   5.891   2.825   1.923  0.5294 -0.0097 -0.0183
 6118TIP3    H139913   5.799   2.801   1.937  0.4733  0.6169  0.7619
 6118TIP3    H239914   5.911   2.791   1.836 -0.9659  1.3540 -0.9502
 6119TIP3   OH239915   6.182   4.134   0.809 -0.5307 -0.0952 -0.8870
 6119TIP3    H139916   6.134   4.051   0.802  0.2264 -0.7347  0.9339
 6119TIP3    H239917   6.240   4.133   0.733  1.5716 -2.7166  0.5701
 6120TIP3   OH239918   6.584   2.534   0.050  0.1703  0.1069  0.7694
 6120TIP3    H139919   6.506   2.512   0.000  0.6189  0.5724 -0.1706
 6120TIP3    H239920   6.613   2.451   0.088 -0.3604 -0.2002  0.5060
 6121TIP3   OH239921   5.934   0.174   2.625  0.1483  0.0602  0.5082
 6121TIP3    H139922   6.009   0.223   2.659  0.2899 -0.0245  0.3236
 6121TIP3    H239923   5.908   0.222   2.546  0.3434 -0.2093  0.2785
 6122TIP3   OH239924   6.569   0.129   0.430  0.4651  0.2367 -0.3118
 6122TIP3    H139925   6.538   0.056   0.377  1.0360  0.3821 -0.8565
 6122TIP3    H239926   6.588   0.091   0.516 -1.6827  0.2377  0.2158
 6123TIP3   OH239927   0.835   0.986   2.272 -0.1166 -0.3115 -0.3539
 6123TIP3    H139928   0.820   0.989   2.366  0.3285 -1.6624 -0.2062
 6123TIP3    H239929   0.930   0.990   2.263 -0.1897  0.7044 -0.8150
 6124TIP3   OH239930   0.982   0.786   8.237 -0.2683 -0.0626 -0.7256
 6124TIP3    H139931   0.982   0.736   8.155 -0.2410 -0.6534 -0.3673
 6124TIP3    H239932   0.962   0.722   8.305 -0.8422  0.5270 -0.3212
 6125TIP3   OH239933   4.267   4.336   7.712 -0.2643  0.1347 -0.2619
 6125TIP3    H139934   4.299   4.259   7.665  0.9647  0.6522 -0.3005
 6125TIP3    H239935   4.171   4.329   7.707 -0.1608 -0.6933 -1.4056
 6126TIP3   OH239936   3.088   2.002   2.782 -0.2737  0.1263  0.4350
 6126TIP3    H139937   3.070   2.016   2.689 -3.0311  0.2173  0.9139
 6126TIP3    H239938   3.104   1.908   2.789  1.8045  0.3656 -0.3411
 6127TIP3   OH239939   1.896   4.676   0.195 -0.2610 -0.4390  0.1787
 6127TIP3    H139940   1.937   4.615   0.257  1.4812 -1.0904 -1.5236
 6127TIP3    H239941   1.949   4.755   0.201  1.7768 -1.4734 -2.4389
 6128TIP3   OH239942   3.967   6.728   8.576  0.0462 -0.2662  0.8794
 6128TIP3    H139943   3.899   6.706   8.512 -0.1283  1.3760  0.4472
 6128TIP3    H239944   4.049   6.705   8.532 -0.1054  0.3152  0.2688
 6129TIP3   OH239945   2.856   6.648   1.278  0.1591 -0.1417 -0.6427
 6129TIP3    H139946   2.793   6.682   1.214  1.4218  1.9140 -0.9128
 6129TIP3    H239947   2.821   6.563   1.304 -1.5392 -0.0631 -2.4218
 6130TIP3   OH239948   5.109   0.127   0.613 -0.2422 -0.3189 -0.4132
 6130TIP3    H139949   5.192   0.114   0.659 -0.3106  0.5971 -0.0005
 6130TIP3    H239950   5.086   0.040   0.579 -0.9071 -1.3504  2.4632
 6131TIP3   OH239951   6.148   5.864   2.586  0.3400 -0.0012 -0.5500
 6131TIP3    H139952   6.058   5.869   2.619 -0.2325 -2.5098 -1.5004
 6131TIP3    H239953   6.202   5.862   2.665 -0.5862 -0.2480  0.1007
 6132TIP3   OH239954   0.976   3.507   1.056 -0.0788 -0.4167 -0.5812
 6132TIP3    H139955   1.016   3.428   1.018  0.2326  0.2157 -1.6050
 6132TIP3    H239956   1.036   3.533   1.126  1.3112  0.4719 -2.0401
 6133TIP3   OH239957   2.183   1.679   3.527 -1.0315  0.7335 -0.6118
 6133TIP3    H139958   2.221   1.697   3.613 -4.3585  0.9907  0.9876
 6133TIP3    H239959   2.237   1.609   3.491  0.0570  0.0547  2.0646
 6134TIP3   OH239960   4.181   6.779   0.352 -0.1516  0.5485 -0.3174
 6134TIP3    H139961   4.274   6.763   0.368 -0.1953  0.0384 -0.5576
 6134TIP3    H239962   4.179   6.820   0.266 -0.1985 -0.1231 -0.6461
 6135TIP3   OH239963   0.623   2.455   8.141 -0.7006  0.0548  0.0890
 6135TIP3    H139964   0.554   2.390   8.151  0.1074 -0.7469  0.5353
 6135TIP3    H239965   0.591   2.514   8.072 -1.9861 -0.0772  0.5519
 6136TIP3   OH239966   3.857   5.783   2.803 -0.4176 -0.4762 -0.0018
 6136TIP3    H139967   3.907   5.796   2.723 -1.0418  0.3613 -0.2782
 6136TIP3    H239968   3.901   5.711   2.849  0.5430 -0.2806 -0.6047
 6137TIP3   OH239969   5.512   0.537   0.736  0.2656  0.0323  0.2094
 6137TIP3    H139970   5.605   0.523   0.717 -0.0498  0.1933 -1.6520
 6137TIP3    H239971   5.477   0.576   0.657 -1.5342 -0.6215  0.6279
 6138TIP3   OH239972   4.006   6.472   1.859  0.1480 -0.6650  0.0172
 6138TIP3    H139973   3.924   6.491   1.903 -0.0738 -0.6206 -0.4127
 6138TIP3    H239974   4.073   6.483   1.927 -0.2901 -1.7967  0.6544
 6139TIP3   OH239975   5.284   1.338   7.157  0.0556 -0.5326 -0.0362
 6139TIP3    H139976   5.201   1.385   7.167  0.0492 -0.8024  1.3751
 6139TIP3    H239977   5.266   1.250   7.188  0.5391 -0.9744 -0.9701
 6140TIP3   OH239978   6.736   6.390   1.310  1.0271  0.5481  0.0432
 6140TIP3    H139979   6.740   6.459   1.376 -0.1606 -0.4816  1.2714
 6140TIP3    H239980   6.655   6.343   1.330  0.6948  0.0981 -2.0840
 6141TIP3   OH239981   3.615   1.810   2.519  0.2853  0.3637  0.0597
 6141TIP3    H139982   3.680   1.864   2.474  0.1152 -0.0203 -0.6722
 6141TIP3    H239983   3.544   1.870   2.539 -0.4303  0.2158 -1.8251
 6142TIP3   OH239984   4.268   2.509   2.292  0.3825  0.1561 -0.2497
 6142TIP3    H139985   4.352   2.549   2.312  0.4312 -0.0141 -0.1148
 6142TIP3    H239986   4.289   2.418   2.272  0.5970  0.6954 -2.8719
 6143TIP3   OH239987   6.205   0.243   0.373  0.1111 -0.6229  0.1689
 6143TIP3    H139988   6.130   0.281   0.419 -0.0367 -0.8427  0.1126
 6143TIP3    H239989   6.248   0.189   0.438 -0.1119 -0.9526  0.0449
 6144TIP3   OH239990   6.467   0.366   0.362  0.4578 -0.1948 -0.0588
 6144TIP3    H139991   6.379   0.350   0.396  0.3824 -1.1185 -0.6418
 6144TIP3    H239992   6.515   0.285   0.379  0.6308 -0.4094 -1.4319
 6145TIP3   OH239993   6.624   1.217   0.817  0.5170 -0.1341  0.9324
 6145TIP3    H139994   6.548   1.221   0.874  0.3908 -0.2003  0.7680
 6145TIP3    H239995   6.594   1.169   0.739  0.4050  0.8096  0.3807
 6146TIP3   OH239996   3.311   5.227   1.341 -0.0129 -0.0827 -0.0933
 6146TIP3    H139997   3.396   5.190   1.316  0.3787  0.2327  0.7150
 6146TIP3    H239998   3.249   5.185   1.282  0.5820 -1.0777 -0.0537
 6147TIP3   OH239999   2.739   1.056   3.368 -0.5253  0.0710  0.9836
 6147TIP3    H140000   2.694   1.115   3.429 -0.4130 -0.0571  1.1918
 6147TIP3    H240001   2.801   1.007   3.423 -0.7930 -0.4190  0.8548
 6148TIP3   OH240002   3.992   1.081   1.897  0.0901 -0.1593  0.1860
 6148TIP3    H140003   4.074   1.034   1.911 -0.3636 -0.6741  1.2025
 6148TIP3    H240004   4.015   1.150   1.834  1.5820  0.4242  1.3000
 6149TIP3   OH240005   1.831   6.181   0.804 -0.3215 -0.3516  0.2288
 6149TIP3    H140006   1.804   6.252   0.863  1.3214  1.6542 -1.2810
 6149TIP3    H240007   1.777   6.193   0.726  1.7353  1.0170 -1.0935
 6150TIP3   OH240008   3.715   2.029   8.062  0.2472 -0.0522  0.4163
 6150TIP3    H140009   3.761   1.951   8.031 -0.0872 -0.7573  1.6538
 6150TIP3    H240010   3.783   2.083   8.102  0.6717  0.8340 -1.3779
 6151TIP3   OH240011   6.050   5.515   0.545  0.0674 -0.3837 -0.1017
 6151TIP3    H140012   5.995   5.470   0.481 -0.4340  0.9334 -0.6191
 6151TIP3    H240013   6.137   5.516   0.504 -0.0287 -0.4301 -0.3085
 6152TIP3   OH240014   4.461   2.432   0.289 -0.4147  0.2248  0.3603
 6152TIP3    H140015   4.521   2.506   0.294 -1.2613  0.9730 -0.2128
 6152TIP3    H240016   4.511   2.358   0.323  0.9346  0.7511 -0.4170
 6153TIP3   OH240017   1.911   5.793   8.348 -0.7950 -0.2443 -0.0672
 6153TIP3    H140018   1.836   5.846   8.377 -1.0267 -0.2147 -0.7012
 6153TIP3    H240019   1.973   5.857   8.312 -0.2097 -0.2101  0.9748
 6154TIP3   OH240020   6.718   4.774   2.056 -0.2889  0.0812 -0.3805
 6154TIP3    H140021   6.699   4.755   1.964 -0.2690  2.7937 -1.0527
 6154TIP3    H240022   6.795   4.831   2.053 -0.0160 -0.1443  1.3546
 6155TIP3   OH240023   3.886   1.783   3.361  0.3120  0.4833 -0.1391
 6155TIP3    H140024   3.961   1.820   3.408 -0.0449 -0.2991  1.0796
 6155TIP3    H240025   3.842   1.728   3.425  0.1043 -1.0442 -1.5422
 6156TIP3   OH240026   5.510   4.192   8.394 -0.2825  0.6201  0.0598
 6156TIP3    H140027   5.526   4.187   8.489 -0.8990  0.4557  0.1599
 6156TIP3    H240028   5.522   4.285   8.373  0.7579  0.5084  0.1300
 6157TIP3   OH240029   2.422   0.938   2.264 -0.3791  0.0767 -0.4752
 6157TIP3    H140030   2.329   0.963   2.262 -0.4540 -0.2089 -0.6816
 6157TIP3    H240031   2.468   1.017   2.234 -0.5117  0.4000  0.1700
 6158TIP3   OH240032   0.429   5.080   8.377  0.0852 -0.4695 -0.6114
 6158TIP3    H140033   0.486   5.056   8.304  1.6815  0.2611  0.3497
 6158TIP3    H240034   0.409   5.172   8.364  1.4327  0.0124  0.5159
 6159TIP3   OH240035   6.002   2.401   7.240 -0.4570  0.5080  0.0447
 6159TIP3    H140036   5.932   2.424   7.301  1.0632  0.3005  1.9274
 6159TIP3    H240037   5.970   2.434   7.155 -2.3908  1.2702  0.9911
 6160TIP3   OH240038   3.547   6.371   8.085  0.1503 -0.0075 -0.3393
 6160TIP3    H140039   3.638   6.345   8.072  0.0821 -0.2588 -0.3136
 6160TIP3    H240040   3.532   6.439   8.020  1.3214  2.3620  1.6846
 6161TIP3   OH240041   2.868   4.652   2.326  0.2784  0.0243 -0.3489
 6161TIP3    H140042   2.956   4.664   2.291 -0.2999  0.6624 -1.6407
 6161TIP3    H240043   2.846   4.736   2.367  0.9664 -0.7258  1.6835
 6162TIP3   OH240044   1.433   4.296   2.645  0.0772 -0.6709  0.6481
 6162TIP3    H140045   1.398   4.244   2.573 -1.1382  1.0109 -0.0162
 6162TIP3    H240046   1.366   4.291   2.713  0.8053 -1.4867  1.3318
 6163TIP3   OH240047   5.045   1.722   7.930  0.1995  0.1556 -0.6171
 6163TIP3    H140048   4.957   1.731   7.895  0.2191  2.4859 -0.2015
 6163TIP3    H240049   5.102   1.727   7.852  0.0491  0.8180 -0.6877
 6164TIP3   OH240050   0.946   5.921   8.177 -0.2242  0.0418  0.2663
 6164TIP3    H140051   1.025   5.886   8.219  0.4441 -0.3475 -1.2434
 6164TIP3    H240052   0.945   6.014   8.202  0.5584 -0.0126  0.5214
 6165TIP3   OH240053   5.064   3.859   8.544  0.1105  0.0826 -0.6677
 6165TIP3    H140054   5.112   3.776   8.533 -0.7091 -0.4825 -0.0891
 6165TIP3    H240055   5.013   3.847   8.624 -1.3886  0.4540 -1.5159
 6166TIP3   OH240056   3.608   0.522   3.526  0.2481  0.7072 -0.1509
 6166TIP3    H140057   3.522   0.526   3.483 -0.0450 -2.2593 -0.0748
 6166TIP3    H240058   3.670   0.539   3.455 -0.3555 -0.2056 -0.9335
 6167TIP3   OH240059   4.697   2.904   7.931 -0.2058  0.1378 -0.2209
 6167TIP3    H140060   4.670   2.825   7.884  1.2314 -0.1141 -0.6520
 6167TIP3    H240061   4.772   2.937   7.882  0.8660  0.3069  1.4665
 6168TIP3   OH240062   4.500   2.174   7.338 -0.1924 -0.2804 -0.1270
 6168TIP3    H140063   4.541   2.226   7.269  0.0193 -0.2062  0.0534
 6168TIP3    H240064   4.439   2.234   7.381 -0.4222 -0.3650 -0.3367
 6169TIP3   OH240065   2.105   5.317   0.287  0.3045 -0.3007 -0.2731
 6169TIP3    H140066   2.116   5.254   0.216 -1.5750 -0.6521 -0.3184
 6169TIP3    H240067   2.072   5.264   0.360 -2.0589  0.6722 -0.5440
 6170TIP3   OH240068   0.090   6.205   2.344  0.0962  0.2050 -0.8390
 6170TIP3    H140069   0.071   6.112   2.357 -0.8389  0.2458 -1.7884
 6170TIP3    H240070   0.127   6.234   2.428 -1.6657 -0.5200  0.2570
 6171TIP3   OH240071   2.083   3.145   7.935 -1.0998 -0.3443 -0.1076
 6171TIP3    H140072   2.030   3.206   7.884  0.0850 -0.5908 -1.7188
 6171TIP3    H240073   2.048   3.059   7.913 -1.3873 -0.3864  0.4924
 6172TIP3   OH240074   0.336   1.075   7.575 -0.3274 -0.0359  0.6490
 6172TIP3    H140075   0.247   1.056   7.544 -0.1182 -1.2435  0.7293
 6172TIP3    H240076   0.342   1.170   7.574 -1.5350  0.0548  0.3893
 6173TIP3   OH240077   0.771   1.764   7.887  0.7235  0.4706  0.2354
 6173TIP3    H140078   0.789   1.728   7.974  2.2887  0.1163 -0.1933
 6173TIP3    H240079   0.773   1.859   7.898 -1.1515  0.4660  0.9454
 6174TIP3   OH240080   6.519   4.182   1.406 -0.4235 -0.6453  0.0696
 6174TIP3    H140081   6.528   4.165   1.312 -1.3325  1.4097 -0.4331
 6174TIP3    H240082   6.426   4.168   1.424 -0.6991  1.1571  0.1627
 6175TIP3   OH240083   0.618   3.002   0.983  0.1007 -0.0653 -0.0986
 6175TIP3    H140084   0.533   2.991   0.940  0.5075 -0.3410 -0.8380
 6175TIP3    H240085   0.629   2.923   1.036  0.6011 -0.7820 -1.2375
 6176TIP3   OH240086   4.524   2.795   2.579  0.0829  0.1956 -0.3588
 6176TIP3    H140087   4.475   2.876   2.586 -1.3992 -0.7083  0.1547
 6176TIP3    H240088   4.616   2.821   2.586 -0.4071  1.7081  0.7659
 6177TIP3   OH240089   4.710   4.071   2.501  0.0085  0.0384 -0.2095
 6177TIP3    H140090   4.695   4.017   2.424 -0.4681 -0.9614  0.5663
 6177TIP3    H240091   4.763   4.017   2.559 -3.3797 -1.1503  2.1299
 6178TIP3   OH240092   6.823   0.161   8.237 -0.1207 -0.1324 -0.1103
 6178TIP3    H140093   6.824   0.210   8.155 -0.0939  0.2291  0.1038
 6178TIP3    H240094   6.806   0.071   8.210 -2.1954  0.2671 -0.3907
 6179TIP3   OH240095   5.263   5.653   3.099  0.5390  0.0214  0.5744
 6179TIP3    H140096   5.353   5.686   3.102  0.2364  0.7957  2.1692
 6179TIP3    H240097   5.216   5.718   3.046  0.6806  0.2540  0.7299
 6180TIP3   OH240098   3.998   5.160   1.748 -0.8281 -0.7675  0.8323
 6180TIP3    H140099   4.083   5.145   1.788 -0.2101 -1.2480 -0.5821
 6180TIP3    H240100   3.935   5.119   1.807  0.2236 -3.1569  0.3774
 6181TIP3   OH240101   3.521   1.778   1.327 -0.0767 -0.2118 -0.5467
 6181TIP3    H140102   3.574   1.854   1.351 -0.8790  0.6555 -1.3684
 6181TIP3    H240103   3.576   1.702   1.346  0.0088  0.4299  2.2850
 6182TIP3   OH240104   5.013   5.557   1.174  0.2986  0.2112 -0.0863
 6182TIP3    H140105   5.098   5.600   1.185  1.0732 -1.1682 -0.3980
 6182TIP3    H240106   4.980   5.591   1.091  1.6865 -1.0036 -1.1926
 6183TIP3   OH240107   0.387   2.604   1.213  0.0061 -0.1862  0.0359
 6183TIP3    H140108   0.419   2.517   1.190 -0.5604 -1.0813  2.3207
 6183TIP3    H240109   0.307   2.615   1.162  1.5775  0.3099 -2.5045
 6184TIP3   OH240110   1.994   4.284   0.608 -0.0181 -0.6135 -0.3911
 6184TIP3    H140111   2.037   4.241   0.534  0.3741 -1.5079  0.3390
 6184TIP3    H240112   1.901   4.266   0.594  0.0709 -0.9680 -0.5477
 6185TIP3   OH240113   0.739   0.876   3.379  0.0489 -0.5671  0.1560
 6185TIP3    H140114   0.731   0.962   3.336  0.0303 -0.0646  1.1384
 6185TIP3    H240115   0.724   0.813   3.309  0.4431  0.2273 -0.6704
 6186TIP3   OH240116   3.803   4.704   8.522 -0.3284 -0.2430 -0.1110
 6186TIP3    H140117   3.853   4.714   8.603 -2.6123 -1.2193  1.5295
 6186TIP3    H240118   3.861   4.737   8.453  1.2274  1.7810  2.0374
 6187TIP3   OH240119   3.409   6.650   2.072  0.0154 -0.8580  0.4646
 6187TIP3    H140120   3.317   6.657   2.047  0.0232 -0.7000  0.4823
 6187TIP3    H240121   3.455   6.639   1.989  0.0201 -0.5429  0.4266
 6188TIP3   OH240122   5.173   4.437   1.250 -0.2463  0.5995  0.0899
 6188TIP3    H140123   5.113   4.390   1.307  1.9431 -0.8371  1.3643
 6188TIP3    H240124   5.223   4.369   1.205  2.9975  1.5309  1.9626
 6189TIP3   OH240125   6.817   6.010   7.909  0.6649  0.4064 -0.0176
 6189TIP3    H140126   6.764   5.962   7.845 -0.7976 -0.9759  2.1064
 6189TIP3    H240127   6.808   6.101   7.883 -2.4751  0.2004 -0.0432
 6190TIP3   OH240128   3.153   6.781   7.830  0.3146  0.3201 -0.1964
 6190TIP3    H140129   3.193   6.865   7.807 -0.3797  0.5301 -0.6545
 6190TIP3    H240130   3.060   6.794   7.815  0.1219 -0.3162  0.4166
 6191TIP3   OH240131   6.365   3.624   0.578  0.4297  0.0753  0.0293
 6191TIP3    H140132   6.443   3.648   0.628  0.6658 -0.8631  0.1431
 6191TIP3    H240133   6.394   3.625   0.487  0.2378  0.9240 -0.0271
 6192TIP3   OH240134   3.973   4.587   1.602  0.8669 -0.6423  0.3297
 6192TIP3    H140135   3.995   4.551   1.516 -1.7868 -1.8542  0.0495
 6192TIP3    H240136   4.023   4.534   1.664  2.5353  0.0093 -0.4014
 6193TIP3   OH240137   0.004   3.198   1.323 -0.3081  0.1128 -0.4885
 6193TIP3    H140138   0.055   3.218   1.244  0.0683 -0.9792 -0.5408
 6193TIP3    H240139   0.014   3.103   1.335  1.9749  0.5767  2.4297
 6194TIP3   OH240140   0.228   6.406   1.540 -0.0392 -0.2134  0.4228
 6194TIP3    H140141   0.190   6.342   1.602 -1.5467  0.5980  0.3806
 6194TIP3    H240142   0.226   6.489   1.588  0.0117  0.1743 -0.2420
 6195TIP3   OH240143   0.992   2.102   1.817  0.8508  0.0254 -0.7797
 6195TIP3    H140144   0.921   2.165   1.823 -0.0382 -0.9665 -0.4616
 6195TIP3    H240145   0.956   2.030   1.764  0.9438 -1.3228  0.8972
 6196TIP3   OH240146   3.251   5.972   1.615  0.5336 -0.6809 -0.0728
 6196TIP3    H140147   3.340   5.993   1.645  0.3801  1.1823 -0.7860
 6196TIP3    H240148   3.263   5.948   1.523  0.2496  0.1753 -0.3421
 6197TIP3   OH240149   3.307   4.909   8.690 -0.3631  0.4333 -1.0299
 6197TIP3    H140150   3.217   4.934   8.667 -0.5223 -0.2879 -1.2182
 6197TIP3    H240151   3.296   4.837   8.753  0.0554  2.1682  1.1744
 6198TIP3   OH240152   2.872   2.317   1.055  0.3631  0.1560 -0.1147
 6198TIP3    H140153   2.858   2.329   1.149  2.1441 -0.1349  0.2146
 6198TIP3    H240154   2.960   2.352   1.039 -0.7392  2.3331 -2.1044
 6199TIP3   OH240155   6.676   4.398   1.778  0.2790 -0.0978  0.2417
 6199TIP3    H140156   6.609   4.453   1.738  0.0384 -0.4775  0.1077
 6199TIP3    H240157   6.721   4.358   1.703  2.0054  1.6792  0.2479
 6200TIP3   OH240158   6.673   6.121   2.109 -0.1193  1.1079  0.3329
 6200TIP3    H140159   6.706   6.193   2.163  1.2222  1.5717 -1.0097
 6200TIP3    H240160   6.723   6.128   2.028 -0.1461 -1.1951  0.0549
 6201TIP3   OH240161   6.007   6.677   7.212  0.0888 -0.2742  0.0612
 6201TIP3    H140162   5.917   6.646   7.225 -0.2207 -1.0603 -3.0730
 6201TIP3    H240163   6.058   6.598   7.197  0.3258  0.2957 -2.7204
 6202TIP3   OH240164   0.034   2.493   1.767 -0.1228 -0.0539 -0.2343
 6202TIP3    H140165  -0.043   2.439   1.782 -0.3666 -0.2524 -2.0113
 6202TIP3    H240166   0.097   2.435   1.723  0.2213  0.6552 -0.7089
 6203TIP3   OH240167   4.582   6.132   8.376 -0.2217 -0.0048 -0.2768
 6203TIP3    H140168   4.669   6.168   8.394  0.9077 -2.6586 -0.0264
 6203TIP3    H240169   4.540   6.127   8.462  0.8020 -1.9751  0.1860
 6204TIP3   OH240170   1.502   1.387   7.648 -0.5500 -0.4261  0.1345
 6204TIP3    H140171   1.522   1.424   7.734  2.1003 -1.0637 -0.1184
 6204TIP3    H240172   1.510   1.292   7.660  0.3858 -0.5002 -0.9004
 6205TIP3   OH240173   5.108   1.330   0.072 -0.5720  0.4339 -0.0292
 6205TIP3    H140174   5.069   1.346  -0.014 -1.5527 -0.8956  0.1199
 6205TIP3    H240175   5.081   1.240   0.094  0.3160  0.4617  1.3176
 6206TIP3   OH240176   5.914   5.750   8.512 -0.5400 -0.2777 -0.5420
 6206TIP3    H140177   6.007   5.740   8.532 -1.0920 -1.2505  1.9776
 6206TIP3    H240178   5.880   5.661   8.509 -1.6371  0.0992  0.1074
 6207TIP3   OH240179   0.750   4.024   0.581 -0.2182 -0.5454 -0.1257
 6207TIP3    H140180   0.657   4.024   0.603 -0.2614  0.7935 -0.2523
 6207TIP3    H240181   0.767   3.935   0.551 -1.2806 -1.0171  0.6078
 6208TIP3   OH240182   1.253   5.085   1.827  0.2603  0.3379 -0.0640
 6208TIP3    H140183   1.281   5.069   1.737  0.7046  0.8475 -0.0189
 6208TIP3    H240184   1.330   5.121   1.871 -0.2196  1.0020  0.2661
 6209TIP3   OH240185   1.375   3.104   8.602  0.5971  1.3971  0.0859
 6209TIP3    H140186   1.430   3.034   8.567 -0.2796  0.9789 -0.4988
 6209TIP3    H240187   1.293   3.060   8.625  0.5133  2.0035  0.9612
 6210TIP3   OH240188   6.090   6.095   1.939  0.2956 -0.6129 -0.3510
 6210TIP3    H140189   6.002   6.060   1.931  0.2522 -0.6636  0.2729
 6210TIP3    H240190   6.136   6.030   1.993  0.6957 -0.5630 -0.6316
 6211TIP3   OH240191   0.345   0.837   2.029  0.3872 -0.3451  0.0970
 6211TIP3    H140192   0.288   0.906   2.063  1.2460 -0.1082  1.1219
 6211TIP3    H240193   0.334   0.840   1.934 -1.5442 -0.5367  0.2807
 6212TIP3   OH240194   2.088   0.691   1.469  0.3940 -0.4334 -0.6072
 6212TIP3    H140195   2.139   0.751   1.524  0.6986 -1.6070  0.4518
 6212TIP3    H240196   2.012   0.742   1.441 -0.0924  0.0541  1.4177
 6213TIP3   OH240197   5.457   3.241   0.334  0.4470  0.3565 -0.0751
 6213TIP3    H140198   5.511   3.308   0.291 -1.1708  2.0818  0.4525
 6213TIP3    H240199   5.384   3.227   0.275  0.8604 -1.1578 -0.2664
 6214TIP3   OH240200   6.116   5.915   0.245  0.0453  0.5081  0.5036
 6214TIP3    H140201   6.022   5.932   0.243 -0.1425 -0.2730  1.7483
 6214TIP3    H240202   6.130   5.852   0.175 -0.0493  1.9094 -0.8340
 6215TIP3   OH240203   1.715   4.584   7.762  0.2734  0.5942  0.2853
 6215TIP3    H140204   1.763   4.554   7.839  0.1950  0.4312  0.2715
 6215TIP3    H240205   1.711   4.679   7.771 -1.7159  0.4427  1.6619
 6216TIP3   OH240206   2.596   1.402   7.435 -0.1586 -0.3548 -0.4144
 6216TIP3    H140207   2.509   1.441   7.424 -0.0759  0.2308  0.8794
 6216TIP3    H240208   2.652   1.450   7.375 -0.5518 -0.1438 -0.6175
 6217TIP3   OH240209   2.400   5.858   2.028 -0.0738  0.3554  0.0505
 6217TIP3    H140210   2.394   5.893   1.940 -1.2146 -0.7022 -0.3174
 6217TIP3    H240211   2.313   5.822   2.046  0.5095 -0.6076  1.1019
 6218TIP3   OH240212   3.298   1.029   2.059 -0.1566 -0.6243 -0.4071
 6218TIP3    H140213   3.352   1.024   2.138  0.8336  1.1734 -0.9294
 6218TIP3    H240214   3.227   0.966   2.075  0.4086 -0.8223  1.5906
 6219TIP3   OH240215   3.085   0.877   0.432  0.3311  0.0578 -0.3717
 6219TIP3    H140216   3.108   0.969   0.421  0.5004  0.0031 -0.4590
 6219TIP3    H240217   3.120   0.833   0.355 -0.3667  0.0337 -0.6842
 6220TIP3   OH240218   0.276   1.655   1.851 -0.3030  0.4117  0.0484
 6220TIP3    H140219   0.361   1.696   1.869 -0.4513  0.9739 -0.4897
 6220TIP3    H240220   0.217   1.729   1.836 -0.9022  0.0256  0.4680
 6221TIP3   OH240221   3.030   3.151   1.689  0.0624 -0.5387  0.0419
 6221TIP3    H140222   3.054   3.240   1.716  0.8418 -1.2503  1.8027
 6221TIP3    H240223   3.101   3.124   1.630 -0.6078  0.2713 -1.1991
 6222TIP3   OH240224   5.812   1.416   0.341  0.1837  0.1192  0.0469
 6222TIP3    H140225   5.798   1.501   0.300 -0.8550  0.2940  0.7234
 6222TIP3    H240226   5.849   1.436   0.426 -0.0423 -0.1045  0.1994
 6223TIP3   OH240227   5.954   2.790   0.906 -0.4188  0.5456  0.1796
 6223TIP3    H140228   5.899   2.868   0.908 -0.8826  0.2518  3.4530
 6223TIP3    H240229   5.893   2.717   0.914  0.2038  0.0278  0.3067
 6224TIP3   OH240230   2.080   2.858   8.313  0.4416  0.4962  0.3445
 6224TIP3    H140231   2.160   2.903   8.286  0.5556  0.4715  0.6361
 6224TIP3    H240232   2.104   2.811   8.393  1.0009 -2.0630 -1.1909
 6225TIP3   OH240233   2.309   3.696   7.889 -0.1391  0.4729  0.3138
 6225TIP3    H140234   2.363   3.767   7.854  0.3353 -1.1422 -2.5292
 6225TIP3    H240235   2.372   3.629   7.916 -0.6315  0.2940  1.0468
 6226TIP3   OH240236   6.246   1.789   0.358  0.2951  0.5449 -0.3518
 6226TIP3    H140237   6.331   1.810   0.396  0.5055  0.1073 -0.5755
 6226TIP3    H240238   6.224   1.866   0.305 -0.3364  1.4688  1.1907
 6227TIP3   OH240239   5.765   0.244   7.199  0.6492  0.0216 -0.0181
 6227TIP3    H140240   5.828   0.187   7.156  1.6164 -0.4505  1.9162
 6227TIP3    H240241   5.680   0.206   7.180  1.1779 -1.1566 -0.0705
 6228TIP3   OH240242   5.620   6.733   8.244  0.1825 -0.5320 -0.1423
 6228TIP3    H140243   5.594   6.778   8.164  0.6311  0.1342  0.0750
 6228TIP3    H240244   5.607   6.798   8.313  2.2982 -0.1759 -0.0071
 6229TIP3   OH240245   5.541   3.289   3.341  0.5995  0.1759  0.0438
 6229TIP3    H140246   5.598   3.263   3.269  0.3687 -0.5907  0.1297
 6229TIP3    H240247   5.472   3.340   3.299 -0.0330 -1.0285 -0.4244
 6230TIP3   OH240248   4.662   5.509   0.477  0.5462 -0.2821  0.5808
 6230TIP3    H140249   4.740   5.488   0.427  0.0540 -0.6958 -0.0369
 6230TIP3    H240250   4.643   5.600   0.455  0.3075 -0.4731 -0.0387
 6231TIP3   OH240251   1.006   3.265   2.374  0.0573  0.1885 -0.7491
 6231TIP3    H140252   0.939   3.315   2.328 -0.6686  2.2085  2.2217
 6231TIP3    H240253   0.961   3.184   2.399 -0.5886  0.5702 -0.6533
 6232TIP3   OH240254   3.807   2.258   0.124 -0.6760  0.6343  0.0846
 6232TIP3    H140255   3.835   2.281   0.213 -1.3617  1.3917  0.1107
 6232TIP3    H240256   3.718   2.227   0.134 -0.7560  0.7225 -0.3413
 6233TIP3   OH240257   0.743   6.388   2.656  0.1747 -0.1607  0.0840
 6233TIP3    H140258   0.837   6.397   2.644  0.2645  0.2449  1.0115
 6233TIP3    H240259   0.712   6.478   2.667 -0.5921 -0.1159 -1.9589
 6234TIP3   OH240260   4.207   6.834   7.450  0.1433 -0.3867 -0.0431
 6234TIP3    H140261   4.295   6.814   7.417  0.4294 -2.4998  1.7674
 6234TIP3    H240262   4.148   6.792   7.388  0.5119 -0.7034 -0.1873
 6235TIP3   OH240263   5.117   0.593   1.226 -0.4629 -0.0188 -0.0258
 6235TIP3    H140264   5.199   0.554   1.257  0.3131  1.0173 -0.6790
 6235TIP3    H240265   5.116   0.574   1.132 -0.1831  1.2838 -0.3077
 6236TIP3   OH240266   1.046   3.007   0.510  0.3524  0.1813 -0.3045
 6236TIP3    H140267   1.134   3.030   0.482  1.7151 -2.1769  1.6316
 6236TIP3    H240268   1.025   3.070   0.579  1.2453 -0.2738  0.3897
 6237TIP3   OH240269   1.429   1.460   7.935 -0.5734 -0.0569 -0.1499
 6237TIP3    H140270   1.354   1.500   7.979  0.7722  0.9228  1.3460
 6237TIP3    H240271   1.433   1.371   7.972 -1.1244 -0.1981 -0.4158
 6238TIP3   OH240272   3.921   4.907   2.772  0.2256 -0.1112 -0.2831
 6238TIP3    H140273   3.864   4.833   2.794  0.5424 -0.6217 -1.1449
 6238TIP3    H240274   3.907   4.922   2.679  2.7028 -1.3609 -0.9657
 6239TIP3   OH240275   2.800   1.177   7.521 -0.3582 -0.0130 -0.0615
 6239TIP3    H140276   2.892   1.194   7.500 -0.4878 -0.7271 -1.3186
 6239TIP3    H240277   2.751   1.237   7.464 -0.6834  0.8579  1.0958
 6240TIP3   OH240278   5.293   4.515   0.595 -0.7185  0.0226 -0.3962
 6240TIP3    H140279   5.338   4.445   0.643 -2.6211 -1.2520 -0.3518
 6240TIP3    H240280   5.349   4.534   0.521  1.7938  1.2888  1.6510
 6241TIP3   OH240281   1.794   0.576   7.661  0.1574  0.0239  0.5802
 6241TIP3    H140282   1.761   0.652   7.613  0.0255  0.3311  1.1540
 6241TIP3    H240283   1.776   0.502   7.603  0.3927  0.4398 -0.0328
 6242TIP3   OH240284   1.617   3.708   1.440  0.3854 -0.3426  0.2665
 6242TIP3    H140285   1.710   3.695   1.424  0.4807 -0.3271  0.7694
 6242TIP3    H240286   1.591   3.778   1.380  0.8198  0.0162  0.4914
 6243TIP3   OH240287   4.954   2.161   0.529  0.9022 -0.6098  0.7460
 6243TIP3    H140288   4.964   2.146   0.623  0.2007 -2.1390  0.6063
 6243TIP3    H240289   5.018   2.101   0.489  0.9171 -0.2536  0.2378
 6244TIP3   OH240290   5.246   5.981   8.622  0.0723 -0.0409 -0.0500
 6244TIP3    H140291   5.285   6.006   8.538 -2.3980  1.5895 -0.8444
 6244TIP3    H240292   5.251   5.885   8.623  1.7412 -0.0068 -1.2172
 6245TIP3   OH240293   5.163   5.123   2.536 -0.0794 -0.2095 -0.3122
 6245TIP3    H140294   5.157   5.218   2.525 -1.7402 -0.2453 -0.1051
 6245TIP3    H240295   5.129   5.087   2.454  0.5191 -0.6227 -0.3801
 6246TIP3   OH240296   6.767   2.977   2.273  0.3624  0.2389 -0.7277
 6246TIP3    H140297   6.726   2.948   2.355  0.7774  1.8111  0.0896
 6246TIP3    H240298   6.697   3.020   2.225  0.2971  0.0172 -0.8293
 6247TIP3   OH240299   3.689   6.451   1.821 -0.7268 -0.4133  0.3056
 6247TIP3    H140300   3.639   6.485   1.746  0.0562  1.7152  0.6677
 6247TIP3    H240301   3.695   6.526   1.880  1.3357 -1.1430  1.0904
 6248TIP3   OH240302   4.641   2.154   1.783  0.1804  0.2746 -0.0285
 6248TIP3    H140303   4.553   2.161   1.745 -0.2239 -1.2560  0.5551
 6248TIP3    H240304   4.698   2.142   1.708 -0.4308 -1.2206 -0.2827
 6249TIP3   OH240305   5.875   5.943   7.839  0.0810  0.2684 -0.9549
 6249TIP3    H140306   5.928   5.929   7.762  2.0160 -0.1693  0.3954
 6249TIP3    H240307   5.938   5.956   7.910 -1.5852 -0.7870  0.8211
 6250TIP3   OH240308   6.064   5.558   7.665 -0.2450  0.8745  0.0842
 6250TIP3    H140309   5.995   5.522   7.721 -0.8058 -1.0957 -1.7501
 6250TIP3    H240310   6.115   5.482   7.638  2.4733  2.2404  1.0428
 6251TIP3   OH240311   4.880   5.905   2.269 -0.0748 -0.8642 -0.1546
 6251TIP3    H140312   4.828   5.850   2.328 -0.2969 -2.4085 -1.7163
 6251TIP3    H240313   4.819   5.971   2.236  0.0705  0.0699  1.3371
 6252TIP3   OH240314   0.897   3.026   2.399  0.0142 -0.0810  0.0114
 6252TIP3    H140315   0.916   2.933   2.382 -2.1438 -0.6631  0.5091
 6252TIP3    H240316   0.814   3.042   2.355  0.2172  1.5664  0.1703
 6253TIP3   OH240317   1.680   4.177   8.425  0.3688  0.2713 -0.1764
 6253TIP3    H140318   1.708   4.266   8.441 -0.8154  0.8869 -1.3072
 6253TIP3    H240319   1.587   4.185   8.402  0.9006 -0.8848 -3.1397
 6254TIP3   OH240320   3.084   1.595   8.068 -0.5048  0.3565 -0.1915
 6254TIP3    H140321   3.085   1.542   7.988  0.0529 -0.8202  0.5596
 6254TIP3    H240322   3.169   1.640   8.068  0.0793 -0.7078  0.3957
 6255TIP3   OH240323   6.012   0.343   1.436  0.5928 -0.4350 -0.2963
 6255TIP3    H140324   6.004   0.311   1.346 -0.1057 -1.2784  0.0518
 6255TIP3    H240325   5.983   0.434   1.431 -0.7350 -0.8487 -0.7177
 6256TIP3   OH240326   5.332   6.074   1.064  0.5033 -0.0026  0.4930
 6256TIP3    H140327   5.242   6.089   1.037 -0.0858 -1.6140  1.4819
 6256TIP3    H240328   5.368   6.162   1.076 -1.1036  0.6603  0.6704
 6257TIP3   OH240329   3.285   1.069   2.789  0.1118  0.6295 -0.4447
 6257TIP3    H140330   3.207   1.013   2.783 -1.1595  2.3877 -1.0789
 6257TIP3    H240331   3.267   1.128   2.862  1.4431  0.2461  0.2225
 6258TIP3   OH240332   4.016   4.392   8.278 -0.0712  0.6995 -0.4888
 6258TIP3    H140333   4.016   4.406   8.183 -0.9167  0.9582 -0.4618
 6258TIP3    H240334   3.928   4.419   8.306 -1.0784 -2.5850 -0.1168
 6259TIP3   OH240335   6.588   5.538   7.171 -0.2744 -0.5977 -0.1046
 6259TIP3    H140336   6.514   5.484   7.142  0.8732 -3.0240  1.1661
 6259TIP3    H240337   6.621   5.493   7.248  0.9534  1.8843  0.9132
 6260TIP3   OH240338   6.778   3.869   7.824  0.4840  0.6490  0.2503
 6260TIP3    H140339   6.740   3.803   7.765  0.8662  0.6638 -0.0137
 6260TIP3    H240340   6.820   3.931   7.765  2.5867 -0.3732  0.5926
 6261TIP3   OH240341   0.632   6.555   7.649  0.4577 -0.1827  0.2289
 6261TIP3    H140342   0.696   6.534   7.582  0.2511  0.6667 -0.2474
 6261TIP3    H240343   0.658   6.641   7.682 -1.3251  0.9726 -1.1269
 6262TIP3   OH240344   1.156   4.585   2.862 -0.0907 -0.5448  0.2621
 6262TIP3    H140345   1.116   4.669   2.840 -0.1059 -0.4665  0.5848
 6262TIP3    H240346   1.092   4.541   2.919 -0.0682 -0.7586  0.1239
 6263TIP3   OH240347   2.259   3.170   0.623 -0.2861 -0.0522  0.3003
 6263TIP3    H140348   2.250   3.153   0.529 -1.4134 -0.3077  0.4395
 6263TIP3    H240349   2.353   3.169   0.639 -0.1254 -1.1325 -0.6202
 6264TIP3   OH240350   4.520   2.891   0.778 -0.1064  0.5646 -0.3233
 6264TIP3    H140351   4.552   2.852   0.860 -0.5584 -0.0851 -0.4463
 6264TIP3    H240352   4.519   2.985   0.795  3.3648  0.8155 -0.8208
 6265TIP3   OH240353   0.990   4.067   1.952  0.0411 -0.3123 -0.1058
 6265TIP3    H140354   0.999   4.062   1.856  0.4996 -1.3926 -0.0189
 6265TIP3    H240355   1.074   4.037   1.986 -0.5518 -1.1760  0.6408
 6266TIP3   OH240356   2.772   4.273   0.865  0.4506 -0.4312  0.1570
 6266TIP3    H140357   2.750   4.199   0.922 -0.3810 -0.5343 -0.2739
 6266TIP3    H240358   2.789   4.233   0.780 -1.3340 -0.0529 -0.4275
 6267TIP3   OH240359   1.252   3.806   0.889 -0.4307  0.0417  0.0874
 6267TIP3    H140360   1.233   3.759   0.970  1.4244  0.0861  0.5976
 6267TIP3    H240361   1.273   3.738   0.826  1.0512  0.0857  0.4929
 6268TIP3   OH240362   2.636   1.803   2.825 -0.2121  0.0896  0.4292
 6268TIP3    H140363   2.632   1.737   2.894 -0.0531 -0.2666  0.1022
 6268TIP3    H240364   2.639   1.887   2.871  0.3871 -0.1688  0.8590
 6269TIP3   OH240365   2.043   0.535   8.337 -0.3336  0.1898  0.2770
 6269TIP3    H140366   1.982   0.486   8.282 -0.6853  0.8047  0.1134
 6269TIP3    H240367   2.113   0.473   8.356 -1.4092 -0.7916  1.1603
 6270TIP3   OH240368   5.633   4.779   8.441  0.3179  0.0253 -0.1975
 6270TIP3    H140369   5.576   4.855   8.446  0.3019 -0.0656  1.2607
 6270TIP3    H240370   5.702   4.805   8.379  0.6921  1.4935  0.7868
 6271TIP3   OH240371   5.641   0.377   8.097 -0.3633 -0.1281  0.3266
 6271TIP3    H140372   5.569   0.322   8.067 -0.7150  1.0478 -1.1261
 6271TIP3    H240373   5.719   0.323   8.085 -1.0181 -1.8674  3.0416
 6272TIP3   OH240374   2.021   6.211   0.497 -0.2257 -0.0566 -1.1614
 6272TIP3    H140375   2.030   6.177   0.586  1.8298  1.7540 -0.5918
 6272TIP3    H240376   2.073   6.152   0.443 -1.4665 -1.1509 -1.2316
 6273TIP3   OH240377   2.368   1.886   2.337 -0.1430  0.5337  0.1485
 6273TIP3    H140378   2.446   1.939   2.354  0.3395 -0.1885  0.2159
 6273TIP3    H240379   2.297   1.934   2.381  0.0146  1.8471 -0.9362
 6274TIP3   OH240380   0.938   6.153   8.638 -0.2707  0.2253 -0.2918
 6274TIP3    H140381   0.875   6.178   8.570 -0.9952  0.5590  0.4828
 6274TIP3    H240382   0.953   6.060   8.625 -1.9735 -0.1582  0.3433
 6275TIP3   OH240383   3.191   3.715   1.002 -0.3037 -0.2493 -0.2091
 6275TIP3    H140384   3.154   3.631   0.974  0.6555  0.0688 -2.6529
 6275TIP3    H240385   3.122   3.778   0.985 -0.6090 -0.3736  0.5352
 6276TIP3   OH240386   3.463   3.108   1.573  0.3533 -0.8982  0.4184
 6276TIP3    H140387   3.498   3.093   1.485  1.0856  1.0084  0.3456
 6276TIP3    H240388   3.475   3.024   1.617  1.5258 -1.4148 -0.7865
 6277TIP3   OH240389   3.754   1.756   3.128  0.0560  0.1278 -0.1889
 6277TIP3    H140390   3.785   1.737   3.216  0.1594 -0.5059 -0.3513
 6277TIP3    H240391   3.660   1.769   3.138 -0.4060 -2.5617 -0.3257
 6278TIP3   OH240392   2.686   0.419   8.357  0.5727  0.0036 -0.0701
 6278TIP3    H140393   2.632   0.360   8.305  1.6134 -0.5372 -0.5763
 6278TIP3    H240394   2.624   0.469   8.409 -0.4972  0.2453 -1.5074
 6279TIP3   OH240395   2.819   4.836   2.636 -0.3269 -0.7027  0.2137
 6279TIP3    H140396   2.753   4.836   2.567 -0.5499  1.8597  0.3373
 6279TIP3    H240397   2.899   4.870   2.594  1.7637 -5.6103 -0.4906
 6280TIP3   OH240398   0.341   2.632   7.905  0.2253 -0.1556 -0.2407
 6280TIP3    H140399   0.349   2.623   8.000 -1.1206  0.1004 -0.0883
 6280TIP3    H240400   0.309   2.721   7.891 -1.2105 -0.7208 -0.8046
 6281TIP3   OH240401   5.503   0.763   7.576 -0.4049 -0.0972  0.1710
 6281TIP3    H140402   5.459   0.827   7.632 -0.0248 -0.3448  0.7673
 6281TIP3    H240403   5.433   0.724   7.524 -0.6108  0.9609 -0.3619
 6282TIP3   OH240404   0.164   3.983   1.212  0.1019  0.1482  0.2587
 6282TIP3    H140405   0.118   3.900   1.202  1.2682 -0.7549  1.9506
 6282TIP3    H240406   0.108   4.035   1.269 -0.6630  0.5763 -0.8589
 6283TIP3   OH240407   5.279   6.385   2.045  0.3430 -0.6070  0.0277
 6283TIP3    H140408   5.252   6.326   2.115  1.0069 -1.2034 -0.2115
 6283TIP3    H240409   5.211   6.453   2.043  0.4188 -0.4658  1.3822
 6284TIP3   OH240410   4.542   2.138   8.247  0.1349 -0.2942 -0.6989
 6284TIP3    H140411   4.448   2.122   8.236  0.0083 -0.0808  0.0139
 6284TIP3    H240412   4.575   2.060   8.290  0.4576 -0.7380 -1.7134
 6285TIP3   OH240413   0.753   3.028   1.811 -0.7142 -0.2952  0.6115
 6285TIP3    H140414   0.716   3.054   1.726  1.5607  1.2964  0.0011
 6285TIP3    H240415   0.768   2.934   1.802  2.0083  0.2193 -1.9351
 6286TIP3   OH240416   0.959   2.744   2.347  0.3896 -0.4056  0.3815
 6286TIP3    H140417   1.036   2.758   2.291  2.1711 -0.7333  2.5912
 6286TIP3    H240418   0.995   2.708   2.428 -2.0128  0.2718  1.8480
 6287TIP3   OH240419   4.749   5.356   1.772 -0.3725  0.2251 -0.2921
 6287TIP3    H140420   4.792   5.438   1.747 -0.9977  1.0150  1.0970
 6287TIP3    H240421   4.692   5.336   1.698  0.2191  0.7357 -0.8972
 6288TIP3   OH240422   4.830   0.909   8.654  0.3182  1.1403 -0.2198
 6288TIP3    H140423   4.909   0.866   8.687 -0.8782 -0.5872  0.5729
 6288TIP3    H240424   4.777   0.924   8.732 -0.9756  0.4239 -0.9328
 6289TIP3   OH240425   2.344   5.095   7.809  0.0895 -0.2555 -0.1679
 6289TIP3    H140426   2.439   5.094   7.799  0.0215  0.3441 -1.0255
 6289TIP3    H240427   2.319   5.003   7.808  0.8691 -0.5976  2.6995
 6290TIP3   OH240428   5.557   2.443   8.299  0.4389 -0.7120 -0.7408
 6290TIP3    H140429   5.534   2.486   8.217 -1.1555  1.5910  0.8012
 6290TIP3    H240430   5.653   2.445   8.302  0.4703  0.7311 -1.7723
 6291TIP3   OH240431   2.385   5.801   8.434 -0.8610 -0.4588 -0.0896
 6291TIP3    H140432   2.452   5.763   8.490 -1.6788 -1.9975 -0.1129
 6291TIP3    H240433   2.431   5.820   8.352  0.9745  3.9965  1.5957
 6292TIP3   OH240434   6.642   5.572   7.842  0.0016  0.6591  0.7543
 6292TIP3    H140435   6.679   5.572   7.754 -0.8358  2.3380  0.3496
 6292TIP3    H240436   6.648   5.663   7.871 -2.0074  0.6538  1.4038
 6293TIP3   OH240437   5.601   6.380   7.712 -0.0847 -0.0482  0.2934
 6293TIP3    H140438   5.605   6.424   7.626  0.5655  0.0945  0.3895
 6293TIP3    H240439   5.637   6.293   7.696  0.0501 -0.0167  0.4238
 6294TIP3   OH240440   1.793   6.847   1.994  0.2907  0.2760 -0.0815
 6294TIP3    H140441   1.736   6.923   1.989  1.1325  0.8480 -1.5077
 6294TIP3    H240442   1.803   6.818   1.903  0.4727 -1.1773  0.3712
 6295TIP3   OH240443   4.073   5.709   1.636 -0.1451 -0.2849  0.4349
 6295TIP3    H140444   4.082   5.652   1.713  0.1171  0.3525  0.8858
 6295TIP3    H240445   4.084   5.798   1.671  1.4546 -0.0613 -0.5620
 6296TIP3   OH240446   4.997   1.302   7.523 -0.0308  0.1218 -0.4458
 6296TIP3    H140447   4.906   1.318   7.498  0.4536  0.9427 -1.8334
 6296TIP3    H240448   5.022   1.379   7.574 -0.7082 -1.0807  1.8171
 6297TIP3   OH240449   4.453   4.675   7.390  0.2341 -0.1897  0.6231
 6297TIP3    H140450   4.459   4.681   7.295 -0.1565  0.2702  0.6233
 6297TIP3    H240451   4.430   4.584   7.407  2.0102 -0.7244  0.3829
 6298TIP3   OH240452   3.234   5.155   0.118  0.3388 -0.1504  0.1765
 6298TIP3    H140453   3.286   5.083   0.083 -1.0970 -0.5251 -1.3004
 6298TIP3    H240454   3.229   5.218   0.046 -0.5435  0.2466  0.5711
 6299TIP3   OH240455   5.458   5.787   7.915  0.1995 -0.6305 -0.1856
 6299TIP3    H140456   5.495   5.813   7.830 -0.2018 -1.7691 -0.7302
 6299TIP3    H240457   5.532   5.792   7.975  0.8320 -1.1429 -0.8947
 6300TIP3   OH240458   5.680   3.729   7.158 -0.0261 -0.2997  0.2927
 6300TIP3    H140459   5.717   3.776   7.233 -2.5160  2.0288  0.2048
 6300TIP3    H240460   5.596   3.695   7.190 -0.7454  0.0238 -1.1790
 6301TIP3   OH240461   0.262   3.361   7.729 -0.2118  0.1334 -0.3303
 6301TIP3    H140462   0.244   3.442   7.682  1.1312  1.8944  1.9792
 6301TIP3    H240463   0.176   3.333   7.762 -0.8983 -0.2192 -2.2419
 6302TIP3   OH240464   0.560   4.290   1.117 -0.0437 -0.1801  0.2541
 6302TIP3    H140465   0.572   4.365   1.059  3.5834 -0.4664  0.4096
 6302TIP3    H240466   0.593   4.216   1.067  0.2724 -0.9541  1.5737
 6303TIP3   OH240467   2.667   1.989   8.483  0.3836  0.0176  0.4404
 6303TIP3    H140468   2.636   1.934   8.412 -1.4866  0.7220  0.6441
 6303TIP3    H240469   2.752   2.021   8.454 -0.4382  0.4993 -1.6141
 6304TIP3   OH240470   2.820   3.798   8.130 -0.2574 -0.3808 -0.1385
 6304TIP3    H140471   2.771   3.718   8.109 -2.3714  0.4151  1.4305
 6304TIP3    H240472   2.827   3.797   8.225  0.2545  0.9795 -0.1523
 6305TIP3   OH240473   2.076   2.797   1.197 -0.4699  0.0841  0.0116
 6305TIP3    H140474   1.988   2.782   1.232 -0.1252  0.0194  0.8798
 6305TIP3    H240475   2.074   2.888   1.166 -0.6107  0.3451  0.7566
 6306TIP3   OH240476   5.906   6.444   7.864  0.0489 -0.1597 -0.5642
 6306TIP3    H140477   5.862   6.367   7.901 -1.6757  1.6016  1.3228
 6306TIP3    H240478   5.979   6.460   7.923  0.5856 -0.4853 -1.1258
 6307TIP3   OH240479   1.479   4.171   2.945  0.3766  0.0716  0.1730
 6307TIP3    H140480   1.447   4.081   2.951 -0.6264  0.5134  2.0840
 6307TIP3    H240481   1.403   4.223   2.919  0.9846  0.3886 -1.0797
 6308TIP3   OH240482   5.477   0.301   0.536  0.1568 -0.0081  0.2006
 6308TIP3    H140483   5.485   0.277   0.628 -0.2053  0.2936  0.3109
 6308TIP3    H240484   5.545   0.367   0.522  1.4453 -1.3572 -0.2077
 6309TIP3   OH240485   6.632   6.218   2.575  0.4457  0.1123 -0.0070
 6309TIP3    H140486   6.721   6.197   2.601  0.4318 -0.3436 -0.3175
 6309TIP3    H240487   6.642   6.286   2.508  0.6113 -0.5695 -0.6900
 6310TIP3   OH240488   0.248   6.655   7.243 -0.6861 -0.3585  0.3015
 6310TIP3    H140489   0.221   6.728   7.188 -1.3048  0.7554  2.0001
 6310TIP3    H240490   0.211   6.674   7.330  2.9344 -0.2945  2.0237
 6311TIP3   OH240491   3.571   0.081   7.692 -0.3497 -0.5073 -0.3314
 6311TIP3    H140492   3.650   0.029   7.674  0.9751  1.4308 -0.3549
 6311TIP3    H240493   3.560   0.136   7.615 -0.4969  0.7338  0.5458
 6312TIP3   OH240494   3.182   6.380   1.160  0.2675  0.7339  0.2772
 6312TIP3    H140495   3.255   6.441   1.169 -1.0109  2.5080 -0.7795
 6312TIP3    H240496   3.212   6.315   1.097  1.5953  0.3489  1.2813
 6313TIP3   OH240497   2.045   3.327   1.334  0.2219  0.0165 -0.3249
 6313TIP3    H140498   2.112   3.294   1.273  1.9856 -1.3539  2.1748
 6313TIP3    H240499   1.992   3.250   1.354  1.2797 -0.2117  1.7835
 6314TIP3   OH240500   0.465   0.042   1.774  0.3892  0.0733 -1.0321
 6314TIP3    H140501   0.441   0.023   1.865  0.3010  3.4060 -0.2147
 6314TIP3    H240502   0.383   0.065   1.732  0.7577  1.4884 -1.0499
 6315TIP3   OH240503   3.816   0.450   2.904 -0.5369 -0.0510 -0.1690
 6315TIP3    H140504   3.893   0.426   2.852  0.7928  1.4175  1.0346
 6315TIP3    H240505   3.836   0.420   2.992 -1.1530  0.7401  0.2525
 6316TIP3   OH240506   0.405   0.944   1.059  0.0947 -0.8330  0.2515
 6316TIP3    H140507   0.497   0.918   1.063 -0.1608 -2.0848 -0.9714
 6316TIP3    H240508   0.357   0.866   1.088 -0.5677  0.3868  2.6453
 6317TIP3   OH240509   0.931   2.017   3.124 -0.5972  0.1774 -0.4299
 6317TIP3    H140510   0.890   2.097   3.093 -1.2278 -0.0197 -0.1233
 6317TIP3    H240511   1.017   2.044   3.156 -2.3792  1.6184  3.8966
 6318TIP3   OH240512   2.746   2.218   2.412 -0.0710 -0.0348  0.6811
 6318TIP3    H140513   2.741   2.126   2.384 -0.2328  0.1080  0.2365
 6318TIP3    H240514   2.786   2.214   2.499 -0.4234 -0.5566  0.8251
 6319TIP3   OH240515   2.149   0.726   8.151 -0.3166  0.1154 -0.2937
 6319TIP3    H140516   2.111   0.649   8.194 -0.1085  0.1247 -0.0878
 6319TIP3    H240517   2.113   0.725   8.063 -1.2461  0.4518  0.0713
 6320TIP3   OH240518   1.808   6.368   7.772 -0.9993 -0.1373  0.1427
 6320TIP3    H140519   1.894   6.325   7.769  0.9844  3.2785  1.8497
 6320TIP3    H240520   1.795   6.401   7.683  0.6003  1.1582  0.3337
 6321TIP3   OH240521   1.253   6.085   8.416  0.0207 -0.1005 -0.0074
 6321TIP3    H140522   1.194   6.109   8.345 -1.4449  0.6226  1.3961
 6321TIP3    H240523   1.265   6.165   8.466  0.1544 -0.8246  1.1670
 6322TIP3   OH240524   3.513   3.919   2.126 -0.4507 -0.4819  0.5632
 6322TIP3    H140525   3.517   3.843   2.067 -1.0201 -1.2327  1.4700
 6322TIP3    H240526   3.598   3.961   2.115 -0.1147 -1.2576  0.0472
 6323TIP3   OH240527   1.221   0.460   0.063 -0.1249  0.5625 -0.1801
 6323TIP3    H140528   1.193   0.376   0.098 -0.2766  0.5218 -0.3981
 6323TIP3    H240529   1.236   0.515   0.140 -2.3229  1.0931 -0.0831
 6324TIP3   OH240530   5.003   4.655   1.513  0.3486  0.7932 -0.1722
 6324TIP3    H140531   4.989   4.708   1.434  2.2146  0.5680 -0.7061
 6324TIP3    H240532   5.002   4.718   1.585  0.4975  1.2724 -0.5817
 6325TIP3   OH240533   4.143   4.788   2.980 -0.2138 -0.1371  0.5562
 6325TIP3    H140534   4.224   4.792   2.929 -0.5749 -2.1658 -0.3078
 6325TIP3    H240535   4.073   4.801   2.915 -0.6286 -0.5917  0.9029
 6326TIP3   OH240536   2.025   5.621   7.335 -0.5799  0.0609  0.0655
 6326TIP3    H140537   2.091   5.551   7.342 -0.1501  0.4196 -0.2738
 6326TIP3    H240538   2.063   5.694   7.384 -0.4341  0.4734 -0.6336
 6327TIP3   OH240539   5.686   0.397   8.376  0.4968 -0.1246 -0.1599
 6327TIP3    H140540   5.717   0.485   8.399 -1.6779  0.8363 -0.6641
 6327TIP3    H240541   5.626   0.411   8.302 -2.4163 -1.5799  1.7376
 6328TIP3   OH240542   3.619   3.000   0.141 -0.3032 -0.1183  0.0638
 6328TIP3    H140543   3.661   2.919   0.110  0.9176 -0.0917  1.5687
 6328TIP3    H240544   3.637   3.064   0.072 -1.6501 -1.1988 -1.3538
 6329TIP3   OH240545   4.022   6.138   8.278  0.1538  0.3744 -0.0991
 6329TIP3    H140546   3.944   6.085   8.292  0.4343  0.0457  0.2352
 6329TIP3    H240547   4.000   6.224   8.316 -1.1498  1.2664 -2.6519
 6330TIP3   OH240548   4.230   5.925   0.603  0.2662  0.0054 -0.3211
 6330TIP3    H140549   4.163   5.979   0.561 -1.1777 -1.7755 -0.4772
 6330TIP3    H240550   4.232   5.955   0.694  0.9349  1.5987 -0.8350
 6331TIP3   OH240551   0.228   4.768   1.042  0.0083  0.3867  0.2991
 6331TIP3    H140552   0.248   4.788   0.950 -1.7136  1.5018  0.1103
 6331TIP3    H240553   0.313   4.765   1.085  0.7518  2.1266 -0.9153
 6332TIP3   OH240554   5.427   2.544   3.112 -0.1869 -0.4550  0.0945
 6332TIP3    H140555   5.509   2.587   3.089 -1.2559  0.8389 -1.5428
 6332TIP3    H240556   5.367   2.566   3.041 -2.6525  0.6150  2.3181
 6333TIP3   OH240557   3.907   0.246   8.365 -0.7357  0.2140 -0.4816
 6333TIP3    H140558   3.957   0.322   8.335 -0.2424 -0.1438 -0.5652
 6333TIP3    H240559   3.901   0.190   8.288 -1.2584  0.2435 -0.4702
 6334TIP3   OH240560   3.902   0.789   2.902  0.4955 -0.0170  0.1885
 6334TIP3    H140561   3.853   0.746   2.972  1.9841 -2.2783 -0.0402
 6334TIP3    H240562   3.984   0.817   2.943  0.5323  0.4596 -0.2018
 6335TIP3   OH240563   4.080   0.656   3.182  0.3953 -0.4889  0.3227
 6335TIP3    H140564   4.119   0.741   3.161 -1.1156  0.0507 -0.4344
 6335TIP3    H240565   4.140   0.619   3.247  2.2797  0.1740 -0.9234
 6336TIP3   OH240566   5.495   3.852   8.610 -0.5733 -0.5291  0.1052
 6336TIP3    H140567   5.428   3.917   8.589 -0.7399 -0.8333 -0.3413
 6336TIP3    H240568   5.474   3.823   8.698 -0.0046  0.6094  0.6406
 6337TIP3   OH240569   6.277   3.100   1.844 -0.3610 -0.7441 -1.0878
 6337TIP3    H140570   6.370   3.120   1.829 -0.9007  3.2630 -0.2888
 6337TIP3    H240571   6.277   3.050   1.926  1.0984  1.9751  0.7504
 6338TIP3   OH240572   0.645   3.948   2.882  0.2564 -0.1328 -0.1868
 6338TIP3    H140573   0.611   3.978   2.966  0.3492 -0.7807  0.0901
 6338TIP3    H240574   0.740   3.938   2.897  0.3543  0.2841 -0.5283
 6339TIP3   OH240575   3.772   3.780   1.962  0.3528 -0.3116  0.8585
 6339TIP3    H140576   3.801   3.775   2.053  0.9524  0.5110  0.7209
 6339TIP3    H240577   3.845   3.820   1.915  1.2229 -3.2580 -0.5554
 6340TIP3   OH240578   5.678   2.584   2.705 -0.0305  0.4999  0.0271
 6340TIP3    H140579   5.772   2.585   2.684 -0.4718 -0.4130 -2.2593
 6340TIP3    H240580   5.665   2.500   2.749  0.3648  1.0544  1.2427
 6341TIP3   OH240581   3.064   5.047   1.506  0.0686 -0.6983  0.0149
 6341TIP3    H140582   3.106   5.096   1.577 -0.1792  0.8904 -0.8997
 6341TIP3    H240583   3.122   4.972   1.492  1.0222 -0.1370  0.7636
 6342TIP3   OH240584   6.737   1.395   2.729  0.0343  0.5070  0.1549
 6342TIP3    H140585   6.776   1.456   2.791  0.9343 -2.8129  3.2103
 6342TIP3    H240586   6.654   1.369   2.769 -0.0457 -0.6890 -0.7184
 6343TIP3   OH240587   3.296   1.931   8.361 -0.4488 -0.0724 -0.2753
 6343TIP3    H140588   3.254   1.983   8.292 -0.4223 -0.0808 -0.2977
 6343TIP3    H240589   3.231   1.865   8.383 -1.5940  1.5580  1.6238
 6344TIP3   OH240590   1.025   5.162   2.706  0.1532 -0.4926 -0.2114
 6344TIP3    H140591   1.001   5.221   2.777 -1.3345 -0.7546 -0.4665
 6344TIP3    H240592   1.038   5.219   2.630  2.3306 -0.1442  0.3428
 6345TIP3   OH240593   1.338   4.293   7.391 -0.2808  0.1701 -0.2496
 6345TIP3    H140594   1.431   4.300   7.367 -0.3306 -0.5266 -0.6759
 6345TIP3    H240595   1.336   4.228   7.461 -0.7900 -2.5578 -2.6148
 6346TIP3   OH240596   1.640   6.617   2.064  0.0905  0.3035  0.2689
 6346TIP3    H140597   1.690   6.694   2.036  0.7957 -0.3609 -0.3221
 6346TIP3    H240598   1.705   6.555   2.094 -0.0830 -1.4899 -2.6552
 6347TIP3   OH240599   5.898   4.121   1.587  0.0878  0.4132  0.1369
 6347TIP3    H140600   5.898   4.192   1.651 -3.8975  0.5625  0.2137
 6347TIP3    H240601   5.805   4.101   1.573  0.9558 -4.1701 -0.6311
 6348TIP3   OH240602   1.116   6.256   0.268  0.0531  0.2592 -0.1689
 6348TIP3    H140603   1.154   6.178   0.308 -1.1036 -0.0373  0.3952
 6348TIP3    H240604   1.091   6.311   0.342 -1.2513  0.1216 -0.4908
 6349TIP3   OH240605   0.009   2.040   8.188  0.3553  0.3307 -0.1433
 6349TIP3    H140606   0.082   2.097   8.164 -0.4054  1.5197  0.2854
 6349TIP3    H240607   0.050   1.968   8.236  1.3327  0.5059 -0.6848
 6350TIP3   OH240608   2.628   4.601   3.522 -0.3009  0.1388 -0.2288
 6350TIP3    H140609   2.564   4.565   3.462 -0.5363 -1.0389  0.7071
 6350TIP3    H240610   2.636   4.693   3.496 -1.5726  0.0408 -1.0209
 6351TIP3   OH240611   1.067   1.344   0.254 -0.0721  0.1736 -0.5303
 6351TIP3    H140612   1.114   1.386   0.181 -1.5238  3.3609  0.1886
 6351TIP3    H240613   1.080   1.404   0.327 -3.1128 -0.0839  0.3512
 6352TIP3   OH240614   3.907   1.491   8.123  0.4305  0.0342  0.6992
 6352TIP3    H140615   3.973   1.511   8.190  0.0747  0.2122  1.0017
 6352TIP3    H240616   3.895   1.396   8.129  1.5882 -0.2024 -0.2366
 6353TIP3   OH240617   5.374   3.486   2.896 -0.5506 -0.1981 -0.8837
 6353TIP3    H140618   5.408   3.576   2.895  0.8744 -0.6579  0.7565
 6353TIP3    H240619   5.331   3.476   2.811 -0.8038  2.0376 -1.0909
 6354TIP3   OH240620   6.237   0.207   8.556  0.0988  0.0839  0.0871
 6354TIP3    H140621   6.307   0.271   8.571 -1.5567  2.0198 -0.0157
 6354TIP3    H240622   6.212   0.179   8.644  0.7160 -0.3042  0.1432
 6355TIP3   OH240623   2.718   3.514   2.639  0.5485 -0.4313 -0.1785
 6355TIP3    H140624   2.740   3.496   2.548  3.7853 -0.1500  0.4410
 6355TIP3    H240625   2.662   3.593   2.635 -0.6422 -1.3037 -1.9249
 6356TIP3   OH240626   3.287   4.667   3.350  0.2201 -0.1376  0.8083
 6356TIP3    H140627   3.312   4.595   3.408 -0.0927  1.2713  2.7919
 6356TIP3    H240628   3.316   4.746   3.395 -0.1594  1.0598 -0.9158
 6357TIP3   OH240629   5.399   5.453   7.700  0.2815  0.0495  0.4194
 6357TIP3    H140630   5.351   5.462   7.618  0.4442  0.6348  0.3873
 6357TIP3    H240631   5.337   5.479   7.768  0.3256  0.1090  0.4367
 6358TIP3   OH240632   6.348   4.472   0.548 -0.1177  0.0717  0.2333
 6358TIP3    H140633   6.377   4.382   0.566  1.0018  0.0218 -1.5831
 6358TIP3    H240634   6.253   4.465   0.539 -0.4780 -0.3268  3.1773
 6359TIP3   OH240635   5.397   6.710   1.338 -0.2018 -0.5212 -0.0885
 6359TIP3    H140636   5.390   6.728   1.245  0.5350 -1.4753 -0.3521
 6359TIP3    H240637   5.420   6.617   1.343 -1.5472 -0.8359  1.0901
 6360TIP3   OH240638   6.127   2.416   7.809 -0.1097 -0.3086  0.2959
 6360TIP3    H140639   6.086   2.391   7.727  0.2645 -0.4283  0.1452
 6360TIP3    H240640   6.146   2.509   7.800 -0.7942 -0.1374  0.5574
 6361TIP3   OH240641   2.162   3.497   1.896  0.0076 -0.1565 -0.1954
 6361TIP3    H140642   2.087   3.438   1.900  0.3728 -0.5853  0.6947
 6361TIP3    H240643   2.219   3.459   1.830 -1.3057  1.1141 -2.1547
 6362TIP3   OH240644   3.739   1.534   0.479 -0.4122  0.5897 -0.2719
 6362TIP3    H140645   3.721   1.457   0.426  1.8592  1.0702 -1.8502
 6362TIP3    H240646   3.662   1.590   0.467 -1.2829 -0.6150 -0.5259
 6363TIP3   OH240647   3.357   2.951   8.217  0.0059 -0.5166  0.8698
 6363TIP3    H140648   3.315   2.871   8.247 -2.0363 -0.6936 -1.9963
 6363TIP3    H240649   3.412   2.923   8.144 -0.8343  0.6424 -0.2536
 6364TIP3   OH240650   1.555   4.793   8.558 -0.3341  0.2057 -0.1756
 6364TIP3    H140651   1.571   4.700   8.571  1.1290  0.6292  1.4104
 6364TIP3    H240652   1.518   4.823   8.641 -2.1616  0.8039 -1.1449
 6365TIP3   OH240653   5.136   1.837   2.970 -0.6549  0.1515 -0.2289
 6365TIP3    H140654   5.202   1.804   2.909 -1.1677  1.1956 -1.4097
 6365TIP3    H240655   5.120   1.765   3.030 -0.3394 -1.0394 -1.5250
 6366TIP3   OH240656   6.172   6.237   0.665 -0.2103  0.3549 -0.1201
 6366TIP3    H140657   6.159   6.175   0.594 -1.7283 -0.9984  1.2510
 6366TIP3    H240658   6.247   6.202   0.714 -0.2480  0.3342 -0.0774
 6367TIP3   OH240659   4.607   0.143   0.970 -0.2259  0.3133  0.0720
 6367TIP3    H140660   4.525   0.144   1.021 -0.1480  0.1910  0.2023
 6367TIP3    H240661   4.617   0.232   0.937  0.0164  0.5382  0.7442
 6368TIP3   OH240662   2.301   6.775   2.833 -0.3184 -0.3080 -0.0682
 6368TIP3    H140663   2.330   6.842   2.894  1.4532 -0.0978 -1.0638
 6368TIP3    H240664   2.207   6.765   2.850  0.1466 -0.4778  2.8441
 6369TIP3   OH240665   5.908   1.576   3.288 -0.2338 -0.2011 -0.0941
 6369TIP3    H140666   5.866   1.662   3.285  0.6929  0.2533 -0.4162
 6369TIP3    H240667   5.835   1.514   3.294 -0.8855  0.6453  1.0905
 6370TIP3   OH240668   5.202   6.773   7.087  0.2106 -0.2231  0.1285
 6370TIP3    H140669   5.118   6.764   7.132  0.1584 -0.6394 -0.0500
 6370TIP3    H240670   5.179   6.775   6.994  0.3080  0.7632  0.1217
 6371TIP3   OH240671   0.440   1.881   1.040  0.6491  0.3240 -0.4796
 6371TIP3    H140672   0.392   1.845   1.114  3.2852  2.0516  2.2951
 6371TIP3    H240673   0.373   1.924   0.987 -1.1056  1.9428  2.7322
 6372TIP3   OH240674   0.412   4.919   0.838 -0.4503  0.1190  0.1639
 6372TIP3    H140675   0.459   4.951   0.915  0.0434  0.8300 -0.4223
 6372TIP3    H240676   0.400   4.997   0.783  0.0047 -0.5278 -0.8876
 6373TIP3   OH240677   3.853   6.198   2.373 -0.0769  0.5293 -0.0046
 6373TIP3    H140678   3.890   6.255   2.441 -0.7970  0.8710  0.1171
 6373TIP3    H240679   3.768   6.238   2.353 -0.4337 -0.3082 -0.1748
 6374TIP3   OH240680   3.488   3.797   0.873 -0.3101 -0.6611  0.1168
 6374TIP3    H140681   3.456   3.807   0.783 -0.9491 -0.2947  0.3801
 6374TIP3    H240682   3.410   3.777   0.924  0.0833 -1.0604  0.5632
 6375TIP3   OH240683   1.489   3.870   1.283  0.1464 -0.0587  0.3239
 6375TIP3    H140684   1.487   3.878   1.188 -1.0509  2.4745  0.4810
 6375TIP3    H240685   1.401   3.841   1.306 -0.5602  2.2184  0.7616
 6376TIP3   OH240686   2.318   1.746   1.141  0.5966 -0.3136 -0.4814
 6376TIP3    H140687   2.294   1.666   1.095 -1.7949 -0.7709  1.3832
 6376TIP3    H240688   2.349   1.806   1.072  0.8494 -2.2346 -2.1147
 6377TIP3   OH240689   5.101   5.339   8.681  0.3501 -0.4525 -0.1366
 6377TIP3    H140690   5.128   5.253   8.715 -1.8300 -1.7293 -1.3996
 6377TIP3    H240691   5.068   5.385   8.758 -1.9839 -2.2607  0.0663
 6378TIP3   OH240692   0.935   4.753   1.984  0.5196  1.0057  0.3242
 6378TIP3    H140693   0.856   4.709   1.952  0.4399  2.0518 -1.0641
 6378TIP3    H240694   0.922   4.845   1.959  2.4450  1.0966 -0.5650
 6379TIP3   OH240695   2.903   4.719   1.597 -0.4089  0.4448  0.1830
 6379TIP3    H140696   2.868   4.765   1.673  0.1791  2.5701 -0.7619
 6379TIP3    H240697   2.998   4.722   1.608 -0.3300  0.4720 -0.4479
 6380TIP3   OH240698   0.235   6.048   1.021  0.0718 -0.0131  0.1515
 6380TIP3    H140699   0.173   6.036   1.093 -0.1237 -0.4157 -0.0826
 6380TIP3    H240700   0.285   6.126   1.046  0.0757 -0.2037  0.7735
 6381TIP3   OH240701   0.669   2.715   0.633 -0.1467 -0.2596 -0.1338
 6381TIP3    H140702   0.620   2.774   0.576  0.5461  1.4817  0.9968
 6381TIP3    H240703   0.609   2.698   0.706 -0.8230 -2.0400 -1.0490
 6382TIP3   OH240704   5.013   0.791   7.403  0.3037 -0.6941  0.1607
 6382TIP3    H140705   5.032   0.878   7.439  0.2195  0.5354 -2.5386
 6382TIP3    H240706   4.918   0.784   7.408  0.2827 -0.4744  0.1097
 6383TIP3   OH240707   1.629   5.759   2.976  0.6725 -0.1142 -0.1793
 6383TIP3    H140708   1.548   5.773   3.026  1.5694  2.1735  0.7879
 6383TIP3    H240709   1.682   5.703   3.032 -0.1282 -1.5239 -0.7633
 6384TIP3   OH240710   5.094   1.544   2.000  0.7081 -0.2734 -0.1904
 6384TIP3    H140711   5.115   1.495   1.920 -1.1242  0.0394 -0.9031
 6384TIP3    H240712   5.108   1.635   1.976  0.4963 -0.2012 -0.0380
 6385TIP3   OH240713   3.726   5.036   7.882 -0.1134 -0.3713 -0.2841
 6385TIP3    H140714   3.675   4.955   7.888 -0.5803  0.0106  3.7482
 6385TIP3    H240715   3.732   5.067   7.972  3.6272  1.9139 -1.1043
 6386TIP3   OH240716   2.675   0.759   8.280 -0.0428 -0.2880 -0.0218
 6386TIP3    H140717   2.738   0.806   8.225 -0.1153 -0.2774 -0.0965
 6386TIP3    H240718   2.645   0.825   8.343  0.9076 -0.5981  0.7792
 6387TIP3   OH240719   5.353   3.985   0.364  0.1281 -0.1396 -0.1275
 6387TIP3    H140720   5.362   3.933   0.444 -0.2776  0.0051  0.0124
 6387TIP3    H240721   5.268   4.027   0.372  0.3688  0.4033 -0.3247
 6388TIP3   OH240722   0.373   5.538   0.981 -0.2475  0.1154  0.1712
 6388TIP3    H140723   0.387   5.631   0.963  2.5693  0.1563  1.9720
 6388TIP3    H240724   0.392   5.528   1.074 -0.7029 -2.2387  0.0812
 6389TIP3   OH240725   2.730   1.860   1.013 -0.1547 -0.4467  0.1978
 6389TIP3    H140726   2.668   1.816   0.955 -0.4156 -0.6344  0.6136
 6389TIP3    H240727   2.756   1.793   1.076 -0.0389 -0.1858  0.4315
 6390TIP3   OH240728   2.370   2.916   8.254 -0.1559  0.8036 -0.8361
 6390TIP3    H140729   2.362   3.006   8.224  2.8049  0.9443 -1.4751
 6390TIP3    H240730   2.353   2.863   8.176 -1.4273  0.7712 -0.5659
 6391TIP3   OH240731   2.817   3.902   1.676  0.3311  0.8201  0.0234
 6391TIP3    H140732   2.890   3.850   1.708  0.2053  0.5988 -0.0497
 6391TIP3    H240733   2.801   3.967   1.745 -0.3723 -0.0743  0.7244
 6392TIP3   OH240734   2.623   5.745   0.827  0.2030  0.1099  0.2319
 6392TIP3    H140735   2.672   5.717   0.750 -0.5354  2.1045 -1.0388
 6392TIP3    H240736   2.536   5.706   0.816  0.0095  0.6372 -0.0830
 6393TIP3   OH240737   3.455   1.913   8.152 -0.2470 -0.6104  0.0210
 6393TIP3    H140738   3.546   1.936   8.132 -0.5791  0.1588 -0.6555
 6393TIP3    H240739   3.441   1.947   8.240 -0.2495  0.3824 -0.3537
 6394TIP3   OH240740   4.576   0.566   8.537 -0.6905 -0.1534 -0.3084
 6394TIP3    H140741   4.574   0.471   8.546 -0.1767 -0.3952 -2.2534
 6394TIP3    H240742   4.515   0.584   8.465 -2.0904  1.1900  1.1148
 6395TIP3   OH240743   0.922   2.821   0.714 -0.2530  0.9307 -0.2378
 6395TIP3    H140744   0.832   2.802   0.686 -0.8956  3.2820  0.0422
 6395TIP3    H240745   0.966   2.850   0.635  0.6341 -1.2300 -0.6026
 6396TIP3   OH240746   1.690   1.681   1.935 -0.3360 -0.0604  0.4748
 6396TIP3    H140747   1.728   1.744   1.997 -0.9034  0.8702 -0.0982
 6396TIP3    H240748   1.597   1.680   1.956 -0.1603 -1.7072  1.3197
 6397TIP3   OH240749   3.933   3.221   0.024  0.4028  0.1083  0.1672
 6397TIP3    H140750   3.950   3.312  -0.002  0.8630  0.6141  2.0702
 6397TIP3    H240751   3.845   3.203  -0.009 -0.5137  1.9342  1.4380
 6398TIP3   OH240752   3.927   1.658   2.200 -0.0702  0.1090 -0.1305
 6398TIP3    H140753   4.015   1.625   2.219  0.7209  0.9743 -2.1062
 6398TIP3    H240754   3.941   1.737   2.149 -2.0110  0.7469  0.2253
 6399TIP3   OH240755   1.033   0.382   3.361  0.2827  0.0963  0.0813
 6399TIP3    H140756   1.076   0.395   3.446  1.6771 -4.0904  0.2668
 6399TIP3    H240757   1.105   0.375   3.299 -0.6832  1.9034 -1.3299
 6400TIP3   OH240758   0.790   0.471   2.976  0.1791 -0.3237 -0.1237
 6400TIP3    H140759   0.758   0.433   2.894  0.6238 -1.3052  0.1470
 6400TIP3    H240760   0.813   0.561   2.953 -1.1765 -0.0957 -0.7132
 6401TIP3   OH240761   0.637   3.422   0.356 -0.5964 -0.2114  0.0611
 6401TIP3    H140762   0.710   3.366   0.331 -1.5169 -0.8602 -1.2960
 6401TIP3    H240763   0.603   3.456   0.273 -1.1609  0.9591  0.7373
 6402TIP3   OH240764   2.987   6.692   3.098  0.5010  0.0725 -0.1913
 6402TIP3    H140765   3.001   6.603   3.132  2.2271 -0.2190 -1.5398
 6402TIP3    H240766   3.051   6.701   3.027 -1.5082  1.3861 -1.9750
 6403TIP3   OH240767   5.366   5.594   1.729 -0.1708  0.1181  0.0883
 6403TIP3    H140768   5.375   5.689   1.733  2.1147 -0.0169 -0.4998
 6403TIP3    H240769   5.392   5.571   1.640 -0.6356 -1.0785  0.2383
 6404TIP3   OH240770   1.108   1.172   7.853 -0.2967 -0.5981  0.0812
 6404TIP3    H140771   1.143   1.204   7.770 -0.1448  1.3099  0.8285
 6404TIP3    H240772   1.157   1.091   7.870  0.0111 -0.7538 -1.4339
 6405TIP3   OH240773   2.961   0.651   8.355  0.4943 -0.1250  0.3643
 6405TIP3    H140774   2.877   0.675   8.315  0.1928 -0.0406  1.0402
 6405TIP3    H240775   2.980   0.564   8.321 -0.3465 -0.5509  0.9617
 6406TIP3   OH240776   6.147   4.644   1.651 -0.1977  0.1936  0.0274
 6406TIP3    H140777   6.202   4.594   1.591 -0.3520 -0.2673  0.2562
 6406TIP3    H240778   6.061   4.646   1.609 -0.1529  0.3963 -0.0529
 6407TIP3   OH240779   1.327   6.365   8.349  0.5562  0.2907  0.3144
 6407TIP3    H140780   1.413   6.330   8.327 -0.2429 -0.0239 -2.6191
 6407TIP3    H240781   1.332   6.458   8.325 -0.1811  0.0663 -0.7359
 6408TIP3   OH240782   0.040   1.674   1.028  0.9550 -0.3736 -0.1618
 6408TIP3    H140783   0.098   1.647   1.099  1.8681 -3.2662 -1.8305
 6408TIP3    H240784   0.078   1.634   0.949 -0.1887  2.3489 -2.2940
 6409TIP3   OH240785   2.537   0.542   2.998 -0.7520 -0.5237  0.1026
 6409TIP3    H140786   2.548   0.504   3.085 -0.3633 -0.5108  0.0608
 6409TIP3    H240787   2.538   0.637   3.014 -1.3064 -0.5236  0.1573
 6410TIP3   OH240788   6.331   4.364   1.710 -0.2643  0.1433 -0.5388
 6410TIP3    H140789   6.308   4.272   1.699  0.2792  0.0160 -0.6628
 6410TIP3    H240790   6.350   4.395   1.621  1.3325 -0.1234 -0.3268
 6411TIP3   OH240791   3.844   5.262   2.579  0.3124 -0.2892  0.5055
 6411TIP3    H140792   3.755   5.270   2.612  0.2744  0.5459  0.2322
 6411TIP3    H240793   3.889   5.340   2.614  0.6079 -0.0686 -0.3429
 6412TIP3   OH240794   6.737   1.493   8.411 -0.1286  0.1004  0.1534
 6412TIP3    H140795   6.665   1.448   8.365 -1.9070  0.9984  1.8871
 6412TIP3    H240796   6.764   1.431   8.479 -2.8579  1.5738  2.8095
 6413TIP3   OH240797   3.651   0.100   2.161  0.0905 -0.0230 -0.6051
 6413TIP3    H140798   3.559   0.111   2.137  0.5812  2.8185 -1.5287
 6413TIP3    H240799   3.656   0.128   2.252 -0.0082 -0.6251 -0.4086
 6414TIP3   OH240800   5.221   0.847   8.075 -0.0625 -0.2207  0.2072
 6414TIP3    H140801   5.144   0.901   8.057  0.0800  0.3644  1.2201
 6414TIP3    H240802   5.222   0.782   8.005 -1.8280 -0.6253  0.4975
 6415TIP3   OH240803   1.114   1.097   1.003  0.2507  0.5075  0.9478
 6415TIP3    H140804   1.133   1.012   0.965 -0.9049  0.5659  0.2000
 6415TIP3    H240805   1.187   1.153   0.976  0.6534 -0.0565  0.8556
 6416TIP3   OH240806   6.472   2.354   2.533  0.1029  0.7195 -0.7756
 6416TIP3    H140807   6.554   2.311   2.554 -0.6216 -0.0703  0.6006
 6416TIP3    H240808   6.437   2.305   2.458  1.3310  1.7161 -2.0652
 6417TIP3   OH240809   6.858   1.163   2.416 -0.5751 -0.1313 -0.1280
 6417TIP3    H140810   6.877   1.227   2.348 -1.2329 -0.7518 -0.9237
 6417TIP3    H240811   6.932   1.102   2.415  0.0546  0.5966  0.6353
 6418TIP3   OH240812   2.629   2.761   2.651  0.2151  0.4364  0.4468
 6418TIP3    H140813   2.640   2.695   2.583  0.7105  1.5732 -0.6174
 6418TIP3    H240814   2.605   2.841   2.603 -1.4691  0.7811  1.7816
 6419TIP3   OH240815   1.968   6.651   0.516  0.5709  0.2354 -0.8594
 6419TIP3    H140816   1.889   6.622   0.470 -0.3701 -0.1927  0.9144
 6419TIP3    H240817   1.965   6.604   0.600  1.0352  2.5289  0.5411
 6420TIP3   OH240818   2.909   0.650   1.024  0.2774 -0.2048 -0.1946
 6420TIP3    H140819   2.850   0.633   1.098  0.8368 -2.0779 -0.1482
 6420TIP3    H240820   2.985   0.692   1.064 -0.4462  1.0683 -0.0840
 6421TIP3   OH240821   6.393   1.261   1.617 -0.0226 -0.9598 -0.3965
 6421TIP3    H140822   6.480   1.299   1.611  0.5732 -2.3387 -0.8897
 6421TIP3    H240823   6.334   1.330   1.585  1.0959 -0.7109 -2.0598
 6422TIP3   OH240824   0.652   1.081   3.229 -0.5285  0.2053  0.5797
 6422TIP3    H140825   0.641   1.146   3.160 -0.8911 -2.1191 -1.6985
 6422TIP3    H240826   0.570   1.032   3.229  0.8887 -2.3483 -0.1693
 6423TIP3   OH240827   1.065   1.179   0.675  0.4154  0.1826 -0.7085
 6423TIP3    H140828   1.071   1.269   0.708 -0.4946 -0.0146  0.0462
 6423TIP3    H240829   1.017   1.132   0.743 -1.1491 -0.3464 -2.1111
 6424TIP3   OH240830   6.680   0.957   2.395 -0.1741  0.1292 -0.2386
 6424TIP3    H140831   6.708   1.046   2.415 -2.3574  0.8080  0.1447
 6424TIP3    H240832   6.703   0.944   2.303  1.3695  0.5588  0.0590
 6425TIP3   OH240833   3.439   2.867   1.085  0.2534  0.1514  0.5969
 6425TIP3    H140834   3.500   2.806   1.045  0.2662  0.3423  0.3191
 6425TIP3    H240835   3.353   2.840   1.053  0.2965  0.5103  0.1634
 6426TIP3   OH240836   4.894   0.152   1.489  0.2006 -0.1786 -0.5233
 6426TIP3    H140837   4.937   0.099   1.422  0.2152 -0.1605 -0.5281
 6426TIP3    H240838   4.801   0.138   1.474  0.1062  1.7274 -2.0915
 6427TIP3   OH240839   5.009   3.530   8.470 -0.0031 -0.2034  0.1870
 6427TIP3    H140840   4.920   3.534   8.435  0.0610 -0.9617 -0.0988
 6427TIP3    H240841   5.031   3.436   8.468  1.2045  0.0729 -0.7784
 6428TIP3   OH240842   2.489   5.294   3.292 -0.4515 -0.0447 -0.4356
 6428TIP3    H140843   2.545   5.303   3.369 -0.4452 -0.1078 -0.4321
 6428TIP3    H240844   2.423   5.362   3.302 -2.1724 -1.8128  1.1247
 6429TIP3   OH240845   1.484   4.504   8.628 -0.2737  0.3734  0.2817
 6429TIP3    H140846   1.464   4.494   8.535  0.4901 -1.3326  0.2794
 6429TIP3    H240847   1.435   4.434   8.671  0.8377 -0.0151  0.9522
 6430TIP3   OH240848   4.085   4.945   0.032  0.0032  0.2951 -0.2441
 6430TIP3    H140849   4.063   5.012  -0.032 -0.7545  0.7239  0.4396
 6430TIP3    H240850   4.002   4.922   0.073  0.3731 -0.4515  0.1252
 6431TIP3   OH240851   2.876   3.319   8.377  0.2854  0.2849  0.4211
 6431TIP3    H140852   2.839   3.363   8.302 -0.6295  0.6914  1.0958
 6431TIP3    H240853   2.824   3.349   8.452  0.2529 -1.1820  1.0277
 6432TIP3   OH240854   0.621   4.531   3.437  0.1840  0.4779 -0.9658
 6432TIP3    H140855   0.574   4.562   3.515 -0.3334 -0.3379 -0.9317
 6432TIP3    H240856   0.584   4.581   3.365 -0.0297  0.5564 -0.8039
 6433TIP3   OH240857   3.916   6.098   0.949 -1.1301  0.9459  0.3274
 6433TIP3    H140858   3.896   6.008   0.923  2.4470  0.3161 -0.8047
 6433TIP3    H240859   3.924   6.094   1.045  1.1418 -0.5985  0.1633
 6434TIP3   OH240860   6.237   2.382   3.744 -0.0946 -0.3337 -0.3360
 6434TIP3    H140861   6.278   2.324   3.680  1.0507 -0.9158  0.9098
 6434TIP3    H240862   6.283   2.466   3.734  1.2945 -0.9163  0.8906
 6435TIP3   OH240863   2.812   3.693   2.020  0.5128 -0.1855  0.6123
 6435TIP3    H140864   2.786   3.735   2.102 -0.9877 -0.8089  0.4954
 6435TIP3    H240865   2.790   3.600   2.033 -1.1615 -0.0787 -0.9846
 6436TIP3   OH240866   1.540   1.960   7.943 -0.2004 -0.1205  0.0620
 6436TIP3    H140867   1.503   1.896   7.883 -0.6001 -0.3893  0.5808
 6436TIP3    H240868   1.628   1.976   7.910  0.4239 -1.9519  0.6498
 6437TIP3   OH240869   3.196   6.117   7.872 -0.4351 -0.3011  0.3593
 6437TIP3    H140870   3.251   6.116   7.950  3.3148  1.0324 -2.0130
 6437TIP3    H240871   3.202   6.029   7.836 -0.9676 -0.5076  0.7578
 6438TIP3   OH240872   4.125   5.983   3.036 -0.3445  0.1396 -0.7000
 6438TIP3    H140873   4.175   6.064   3.021 -2.2783  1.6938  0.7340
 6438TIP3    H240874   4.180   5.932   3.097  0.2543  1.0310 -0.4707
 6439TIP3   OH240875   4.167   0.419   1.703 -0.3960 -0.2946  0.3836
 6439TIP3    H140876   4.122   0.357   1.645 -0.2722 -1.7832  1.8118
 6439TIP3    H240877   4.196   0.489   1.645  0.4966 -2.1335 -1.5142
 6440TIP3   OH240878   2.437   4.185   0.747  0.1626  0.7073 -0.3349
 6440TIP3    H140879   2.364   4.245   0.736  1.2865  2.1869  0.0033
 6440TIP3    H240880   2.441   4.168   0.841 -0.3498 -0.1828 -0.4617
 6441TIP3   OH240881   1.394   6.537   1.856 -0.3563 -0.4307  0.1935
 6441TIP3    H140882   1.320   6.550   1.797  1.1324  0.6968 -1.5450
 6441TIP3    H240883   1.416   6.624   1.887  1.6303 -0.3639 -1.1758
 6442TIP3   OH240884   2.318   5.648   7.459  0.3982  0.1812 -0.8443
 6442TIP3    H140885   2.277   5.566   7.432  2.0890 -1.4419  1.1818
 6442TIP3    H240886   2.395   5.656   7.403  2.7579 -2.1262  1.7058
 6443TIP3   OH240887   4.880   4.340   1.035  0.2035 -0.5092  0.2811
 6443TIP3    H140888   4.912   4.328   0.946  0.5497 -0.7511  0.4363
 6443TIP3    H240889   4.913   4.264   1.083 -1.5150 -1.3452  0.2068
 6444TIP3   OH240890   6.157   1.094   7.310 -0.0994 -0.0465  0.1324
 6444TIP3    H140891   6.074   1.079   7.354 -0.1823  0.8372  0.2818
 6444TIP3    H240892   6.188   1.177   7.344  0.5879 -0.1105 -0.3228
 6445TIP3   OH240893   4.553   6.794   2.141  0.0657 -0.4215 -0.4761
 6445TIP3    H140894   4.575   6.887   2.146 -0.5431 -0.2513 -0.8233
 6445TIP3    H240895   4.465   6.793   2.103 -0.6488 -1.0603  1.1166
 6446TIP3   OH240896   4.645   2.409   1.240  0.0587  0.5885  0.0045
 6446TIP3    H140897   4.569   2.463   1.221  0.1733  0.8694  0.3343
 6446TIP3    H240898   4.622   2.361   1.320  0.2709  0.7670  0.1751
 6447TIP3   OH240899   5.683   1.620   1.372 -0.5825  0.5520  0.6385
 6447TIP3    H140900   5.723   1.605   1.286 -0.4600  0.5476  0.6955
 6447TIP3    H240901   5.617   1.687   1.356  0.5459  1.7524  0.8394
 6448TIP3   OH240902   0.619   0.439   2.132 -0.2712 -0.5621  0.1007
 6448TIP3    H140903   0.665   0.513   2.173  1.0435 -1.1187 -0.3257
 6448TIP3    H240904   0.552   0.480   2.078 -0.5333  0.2629  1.0221
 6449TIP3   OH240905   2.243   1.137   1.746  0.4383 -0.4965 -0.1524
 6449TIP3    H140906   2.171   1.199   1.742  0.3242 -0.7015 -1.7948
 6449TIP3    H240907   2.223   1.081   1.822 -0.5965  0.0744  0.0039
 6450TIP3   OH240908   2.852   5.409   1.623  0.0592 -0.3618 -0.1141
 6450TIP3    H140909   2.878   5.479   1.564 -1.3103  2.1568  2.0492
 6450TIP3    H240910   2.790   5.356   1.573  1.4843 -0.3805 -1.9495
 6451TIP3   OH240911   1.545   5.754   7.161 -0.1158 -0.0341 -0.3623
 6451TIP3    H140912   1.615   5.721   7.218 -0.1468  0.2843 -0.1374
 6451TIP3    H240913   1.467   5.755   7.216 -0.1989  0.0421 -0.4809
 6452TIP3   OH240914   5.157   0.166   2.400  0.3638 -0.2156 -0.4633
 6452TIP3    H140915   5.077   0.117   2.379 -0.9228  1.1959  0.9314
 6452TIP3    H240916   5.212   0.103   2.447 -0.5508 -0.8018 -0.1576
 6453TIP3   OH240917   3.959   5.923   1.781  0.6648 -0.2147 -0.0780
 6453TIP3    H140918   3.899   5.900   1.852  1.8485  1.1973  1.4619
 6453TIP3    H240919   3.902   5.939   1.706 -0.5871 -2.3352  0.3253
 6454TIP3   OH240920   5.184   3.009   1.451  0.6429 -0.3261 -0.3861
 6454TIP3    H140921   5.142   2.926   1.474 -0.7520  0.8368  1.4798
 6454TIP3    H240922   5.226   3.039   1.532  1.6703  0.5218 -1.1859
 6455TIP3   OH240923   0.032   0.760   0.026 -0.2092 -0.0195 -0.8661
 6455TIP3    H140924   0.026   0.668   0.054  0.4997 -0.1373 -1.0658
 6455TIP3    H240925   0.083   0.756  -0.055 -2.5477  0.2524 -2.4494
 6456TIP3   OH240926   1.228   0.209   8.335 -0.8375  0.2427  0.4807
 6456TIP3    H140927   1.274   0.125   8.340 -1.8883 -0.3245  0.9742
 6456TIP3    H240928   1.297   0.275   8.346  0.0090 -0.5473  0.0147
 6457TIP3   OH240929   1.422   0.256   0.357 -0.2920 -0.2205 -0.1478
 6457TIP3    H140930   1.387   0.206   0.283 -1.8058  0.8731 -0.2265
 6457TIP3    H240931   1.376   0.221   0.433  1.3136 -1.3897  0.3352
 6458TIP3   OH240932   5.623   4.917   2.189 -0.0411 -0.6513  0.0391
 6458TIP3    H140933   5.548   4.925   2.247  0.5534 -1.1671  0.9083
 6458TIP3    H240934   5.634   5.003   2.150 -1.3075 -0.6734 -0.3951
 6459TIP3   OH240935   5.449   1.954   0.037  0.0868  0.2204 -0.9927
 6459TIP3    H140936   5.406   2.038   0.055 -0.0986  1.1274 -4.6905
 6459TIP3    H240937   5.473   1.919   0.123 -3.9700  1.8090  1.0497
 6460TIP3   OH240938   1.127   4.411   0.566  0.7047  0.4077 -0.0829
 6460TIP3    H140939   1.164   4.372   0.487 -0.4909 -1.3967  0.2006
 6460TIP3    H240940   1.034   4.393   0.561  0.4520  1.1916  1.2430
 6461TIP3   OH240941   3.564   3.096   2.064 -0.4546  0.0006  0.1832
 6461TIP3    H140942   3.504   3.023   2.079  0.2615 -0.6559 -0.0722
 6461TIP3    H240943   3.584   3.092   1.970  0.7039 -0.3714  0.4247
 6462TIP3   OH240944   3.169   5.440   1.448  0.2882 -0.5976 -0.3367
 6462TIP3    H140945   3.232   5.378   1.411  0.5267 -1.2109  1.0252
 6462TIP3    H240946   3.187   5.439   1.542  0.4486  1.7339 -0.2939
 6463TIP3   OH240947   2.493   3.520   1.457  0.4824  0.1519  0.0751
 6463TIP3    H140948   2.497   3.428   1.483 -0.4901 -0.1040 -0.6635
 6463TIP3    H240949   2.550   3.526   1.380  0.5839  0.1850  0.1519
 6464TIP3   OH240950   0.077   4.068   1.458  0.2182 -0.2106  0.0568
 6464TIP3    H140951  -0.001   4.063   1.514  0.1612 -2.3453 -0.1527
 6464TIP3    H240952   0.149   4.038   1.514  0.3283 -1.3734 -0.6768
 6465TIP3   OH240953   5.389   0.471   0.209 -0.4444  0.8928  0.0097
 6465TIP3    H140954   5.382   0.560   0.175 -0.4426  0.2099 -1.9205
 6465TIP3    H240955   5.458   0.475   0.276  2.8183  1.5507 -3.1082
 6466TIP3   OH240956   3.979   3.895   2.450 -0.5273  0.2336  0.2855
 6466TIP3    H140957   3.912   3.836   2.415  0.5505  0.4402 -2.3729
 6466TIP3    H240958   3.933   3.977   2.467 -0.8033  0.8897 -2.9867
 6467TIP3   OH240959   3.478   0.697   7.521 -0.0140 -0.0618  0.0232
 6467TIP3    H140960   3.437   0.663   7.442 -0.4658  1.3118 -0.3574
 6467TIP3    H240961   3.517   0.620   7.563  0.5695 -0.7616 -1.7181
 6468TIP3   OH240962   5.321   2.664   0.072  0.0663 -0.0642 -0.2649
 6468TIP3    H140963   5.274   2.726   0.017 -1.1141 -0.7316 -0.0257
 6468TIP3    H240964   5.307   2.579   0.030 -1.3120 -0.6732  1.3214
 6469TIP3   OH240965   1.209   6.337   2.075 -0.3971 -0.0831  0.4389
 6469TIP3    H140966   1.207   6.330   1.979  4.2989  0.1171  0.1052
 6469TIP3    H240967   1.189   6.429   2.093  0.5165  0.3346 -0.5718
 6470TIP3   OH240968   0.028   2.448   2.526  0.1488 -0.3815  0.2265
 6470TIP3    H140969  -0.014   2.367   2.553  0.9826 -1.0200 -0.3530
 6470TIP3    H240970   0.097   2.462   2.590 -1.7915  1.4873  2.1127
 6471TIP3   OH240971   6.748   3.903   3.169  0.5638 -0.2141  0.0797
 6471TIP3    H140972   6.736   3.835   3.235  0.0440  0.1020  0.3213
 6471TIP3    H240973   6.843   3.916   3.163  0.6612 -0.9331  0.0512
 6472TIP3   OH240974   1.223   4.906   0.021 -0.2133 -0.2716 -0.1041
 6472TIP3    H140975   1.312   4.905   0.056 -0.1319 -1.1934 -0.3178
 6472TIP3    H240976   1.168   4.890   0.098 -0.0885 -1.3764 -0.2321
 6473TIP3   OH240977   5.592   6.045   8.113 -0.6176 -0.1823  0.4839
 6473TIP3    H140978   5.554   6.038   8.025 -1.0954 -1.0634  0.7470
 6473TIP3    H240979   5.625   5.957   8.132  1.4285  0.5153  0.3448
 6474TIP3   OH240980   3.954   5.219   7.687  0.4167  0.0999  0.7545
 6474TIP3    H140981   4.042   5.181   7.694 -0.1482 -1.4932 -0.1014
 6474TIP3    H240982   3.955   5.266   7.603 -0.0460 -1.4669 -0.1748
 6475TIP3   OH240983   2.568   5.529   1.741 -0.0029 -0.4238  0.2758
 6475TIP3    H140984   2.607   5.462   1.797  1.4885  0.0384 -0.1582
 6475TIP3    H240985   2.509   5.480   1.683 -0.1754 -1.1346  1.0277
 6476TIP3   OH240986   1.492   1.779   1.074 -0.7223  0.0635  0.5487
 6476TIP3    H140987   1.573   1.810   1.115 -1.1484 -1.5703  2.8316
 6476TIP3    H240988   1.423   1.817   1.127 -1.3630 -0.6268  0.2233
 6477TIP3   OH240989   1.920   0.336   8.096  0.5000 -0.3773  0.1433
 6477TIP3    H140990   1.961   0.386   8.025  0.2147  0.7722  0.7799
 6477TIP3    H240991   1.904   0.249   8.057  0.9255  0.0374 -0.9985
 6478TIP3   OH240992   5.368   3.558   2.205  0.0438  0.0087 -0.1686
 6478TIP3    H140993   5.370   3.497   2.278  2.5876 -2.4282 -2.0384
 6478TIP3    H240994   5.436   3.622   2.226  1.1640 -1.0115 -0.5763
 6479TIP3   OH240995   0.576   6.814   3.186 -0.0132  0.0779  0.0449
 6479TIP3    H140996   0.635   6.844   3.256  0.6100  0.5186 -0.6590
 6479TIP3    H240997   0.489   6.836   3.219  0.3114  0.9484  0.3805
 6480TIP3   OH240998   4.754   0.067   8.396  0.1661  0.4764 -0.3599
 6480TIP3    H140999   4.798   0.145   8.360 -0.3142  0.8997 -0.0412
 6480TIP3    H241000   4.793   0.056   8.483  0.3854  0.2360 -0.4896
 6481TIP3   OH241001   5.093   5.685   2.611 -0.4389 -0.7978  0.0315
 6481TIP3    H141002   5.112   5.740   2.535 -0.8356  0.8302  1.0544
 6481TIP3    H241003   5.176   5.678   2.658 -0.3598 -1.1715 -0.1675
 6482TIP3   OH241004   6.448   4.574   7.752  0.5460 -0.0256  0.1144
 6482TIP3    H141005   6.409   4.566   7.838  2.9859 -1.4880  1.1756
 6482TIP3    H241006   6.421   4.495   7.705 -0.9124  0.8421 -0.6101
 6483TIP3   OH241007   0.645   4.409   8.650 -0.1844 -0.1319  0.1419
 6483TIP3    H141008   0.627   4.315   8.647 -2.0745  0.1342  1.3680
 6483TIP3    H241009   0.657   4.428   8.743  0.2529  0.8284 -0.1007
 6484TIP3   OH241010   4.614   5.923   7.317 -0.3512 -0.0886  0.8477
 6484TIP3    H141011   4.622   5.945   7.224  1.0688  0.2833  1.0333
 6484TIP3    H241012   4.567   5.839   7.319 -0.1726 -0.2165 -0.2089
 6485TIP3   OH241013   4.623   1.647   1.276  0.7357 -0.1918  0.1662
 6485TIP3    H141014   4.588   1.731   1.248  0.9086  0.1674  1.0056
 6485TIP3    H241015   4.675   1.617   1.201 -1.0986 -0.6115 -1.0049
 6486TIP3   OH241016   3.445   4.701   2.443  0.6053 -0.1690  0.1290
 6486TIP3    H141017   3.374   4.671   2.500 -1.4575 -0.8098 -2.5657
 6486TIP3    H241018   3.519   4.644   2.464 -1.0962 -2.5976 -0.0531
 6487TIP3   OH241019   6.051   0.064   1.076  0.5540 -0.1063  0.8656
 6487TIP3    H141020   6.051  -0.031   1.091  0.2136 -0.2897 -0.2058
 6487TIP3    H241021   5.978   0.097   1.128 -0.8473 -0.7700 -0.6000
 6488TIP3   OH241022   2.926   2.187   3.527 -0.0485 -0.2623 -0.2340
 6488TIP3    H141023   2.897   2.101   3.495 -3.1591  1.0923 -1.4605
 6488TIP3    H241024   2.866   2.207   3.599  0.3478  1.0712 -0.2491
 6489TIP3   OH241025   1.161   3.777   1.349 -0.2465  1.0021  0.0396
 6489TIP3    H141026   1.080   3.808   1.389 -1.2245 -1.2558 -0.0217
 6489TIP3    H241027   1.215   3.748   1.423  0.2998  1.9649  0.0384
 6490TIP3   OH241028   4.665   2.821   0.997  0.3088  0.0500 -0.0228
 6490TIP3    H141029   4.717   2.742   1.008 -0.8824 -0.9626 -1.3894
 6490TIP3    H241030   4.721   2.891   1.032  1.6874 -1.2649  0.5238
 6491TIP3   OH241031   5.917   0.539   2.039 -0.2634 -1.3451  0.4684
 6491TIP3    H141032   5.932   0.484   1.963  0.0825 -0.7784  0.1189
 6491TIP3    H241033   5.829   0.574   2.026  0.6434  0.6181 -0.9050
 6492TIP3   OH241034   2.314   0.052   0.151 -0.1518 -0.5902  0.0278
 6492TIP3    H141035   2.390   0.107   0.133  0.0270 -0.8653 -0.0620
 6492TIP3    H241036   2.349  -0.025   0.195 -0.3723 -0.7489 -0.0712
 6493TIP3   OH241037   1.666   6.261   8.573  0.2438 -0.0374 -0.3770
 6493TIP3    H141038   1.641   6.255   8.665 -0.7092 -0.2635 -0.6322
 6493TIP3    H241039   1.762   6.262   8.574  0.2387  1.0421  0.6644
 6494TIP3   OH241040   3.472   1.460   3.233  0.1361  0.7586 -0.1031
 6494TIP3    H141041   3.463   1.498   3.320  0.6544  2.6050 -0.8055
 6494TIP3    H241042   3.439   1.528   3.174  1.0556  0.0915 -1.4250
 6495TIP3   OH241043   1.888   3.980   1.120 -0.0273  0.4166 -0.2125
 6495TIP3    H141044   1.926   4.024   1.045  3.7474 -1.0638  0.6242
 6495TIP3    H241045   1.877   4.049   1.186 -1.5610  1.3574 -1.3814
 6496TIP3   OH241046   4.277   1.620   1.489 -0.0373 -0.0028 -0.0112
 6496TIP3    H141047   4.201   1.660   1.532 -0.5663 -1.4491  0.4538
 6496TIP3    H241048   4.284   1.666   1.406  0.1443  1.8901  1.0069
 6497TIP3   OH241049   3.813   6.634   0.434  0.1161 -0.2411  0.1361
 6497TIP3    H141050   3.744   6.629   0.367  0.5444 -0.4395 -0.2951
 6497TIP3    H241051   3.824   6.543   0.463  1.3728 -0.4985 -1.0194
 6498TIP3   OH241052   5.054   0.465   7.481  0.4801  0.5623  0.3618
 6498TIP3    H141053   5.030   0.372   7.470  1.5615  0.2640  0.4307
 6498TIP3    H241054   4.971   0.508   7.504 -0.1208 -0.3129 -0.0802
 6499TIP3   OH241055   2.263   6.853   8.167  0.2136 -0.3974  0.5586
 6499TIP3    H141056   2.202   6.819   8.102 -0.8046 -1.5393  2.0345
 6499TIP3    H241057   2.211   6.917   8.216  1.3206  1.3688 -0.4546
 6500TIP3   OH241058   4.614   1.037   3.130 -0.4625  0.1614 -0.5228
 6500TIP3    H141059   4.522   1.018   3.113 -0.4667  1.3388 -2.0153
 6500TIP3    H241060   4.654   0.951   3.144 -1.8996 -0.3184  0.8698
 6501TIP3   OH241061   2.657   5.832   7.318  0.1485  0.2143  0.4834
 6501TIP3    H141062   2.739   5.819   7.270 -0.5602  1.4656 -1.2134
 6501TIP3    H241063   2.612   5.748   7.314  0.5239  0.0422 -0.2986
 6502TIP3   OH241064   1.386   1.903   1.297  0.6840 -0.1995 -0.0758
 6502TIP3    H141065   1.334   1.871   1.370  0.0190  0.1521 -0.3904
 6502TIP3    H241066   1.409   1.993   1.322  0.2347  0.0107 -0.4114
 6503TIP3   OH241067   2.957   0.003   0.877 -0.3630  0.7778  0.5493
 6503TIP3    H141068   2.989  -0.057   0.810  1.1411  0.5012  1.4596
 6503TIP3    H241069   2.911   0.071   0.829  0.2722  0.3303 -0.7190
 6504TIP3   OH241070   1.776   1.041   0.809  0.0608  0.2984 -0.1938
 6504TIP3    H141071   1.863   1.004   0.793 -0.1313  1.0791 -3.8432
 6504TIP3    H241072   1.794   1.122   0.858  0.9874 -1.1588  2.0842
 6505TIP3   OH241073   5.003   5.814   7.389  0.8166 -0.5068  0.1455
 6505TIP3    H141074   5.053   5.832   7.309 -1.9671  0.6855 -1.4727
 6505TIP3    H241075   4.979   5.900   7.423 -0.9073 -0.9848  0.2732
 6506TIP3   OH241076   3.462   5.654   2.838  0.2814  0.6353  0.2167
 6506TIP3    H141077   3.438   5.562   2.837 -1.1411  0.9569 -1.5431
 6506TIP3    H241078   3.457   5.680   2.930  1.4982 -1.1966  0.8416
 6507TIP3   OH241079   3.174   6.223   0.020  0.1627 -0.5445 -0.1000
 6507TIP3    H141080   3.080   6.213   0.008  0.2999 -0.7599 -1.0429
 6507TIP3    H241081   3.213   6.167  -0.046  0.9593  0.3322 -0.3940
 6508TIP3   OH241082   6.329   3.404   0.119 -0.0728  0.1368 -0.3890
 6508TIP3    H141083   6.352   3.432   0.030  1.2802 -0.1881 -0.1549
 6508TIP3    H241084   6.234   3.397   0.118 -0.1094  0.6244 -1.6703
 6509TIP3   OH241085   2.566   3.182   2.739  0.0111 -0.4334  0.5175
 6509TIP3    H141086   2.647   3.196   2.690  0.0521 -0.1741  0.6578
 6509TIP3    H241087   2.595   3.157   2.827 -0.0480 -2.1652  0.0879
 6510TIP3   OH241088   3.780   4.726   1.114  0.1638  0.1303  0.6099
 6510TIP3    H141089   3.833   4.674   1.054 -0.4936 -0.3719  0.4695
 6510TIP3    H241090   3.837   4.739   1.190  0.2442 -1.0087  0.7577
 6511TIP3   OH241091   6.256   0.110   7.098 -0.1344  0.0730  0.0558
 6511TIP3    H141092   6.295   0.187   7.058  2.6763 -1.7213 -0.9821
 6511TIP3    H241093   6.163   0.115   7.075  0.2771  2.2538 -1.4282
 6512TIP3   OH241094   4.050   6.712   0.593 -0.3671 -0.1698 -0.1214
 6512TIP3    H141095   4.096   6.790   0.563 -0.4232  0.2832  0.9105
 6512TIP3    H241096   3.983   6.696   0.527 -0.8348  1.0917  0.0271
 6513TIP3   OH241097   1.890   1.336   8.119 -0.1166  0.2980 -0.2759
 6513TIP3    H141098   1.841   1.254   8.127  0.0329  0.3627  1.9910
 6513TIP3    H241099   1.838   1.399   8.169  0.5893  1.2086 -0.6666
 6514TIP3   OH241100   0.496   2.725   1.719  0.6379  0.1322  0.0834
 6514TIP3    H141101   0.441   2.653   1.751  0.1231  0.7251  0.5603
 6514TIP3    H241102   0.521   2.698   1.631  1.5176 -1.2319  0.7019
 6515TIP3   OH241103   3.611   2.416   1.146 -0.4193 -0.1871  0.0037
 6515TIP3    H141104   3.518   2.397   1.160 -0.2177 -1.2889 -0.0310
 6515TIP3    H241105   3.613   2.502   1.106 -1.4928 -0.5634 -0.9019
 6516TIP3   OH241106   4.251   5.920   2.100  0.1740  0.2275  0.3697
 6516TIP3    H141107   4.170   5.869   2.105 -0.6653  1.5878  1.0658
 6516TIP3    H241108   4.222   6.009   2.082  1.5635  0.6470  0.1159
 6517TIP3   OH241109   1.564   4.811   2.798 -0.2910 -0.1480 -0.0703
 6517TIP3    H141110   1.650   4.846   2.823 -0.8150  1.9993 -1.1139
 6517TIP3    H241111   1.524   4.785   2.881  1.6627 -2.0290  0.3665
 6518TIP3   OH241112   6.736   4.521   2.930  0.6121  0.5025 -0.2257
 6518TIP3    H141113   6.831   4.511   2.937  0.5689  0.0976 -0.1711
 6518TIP3    H241114   6.713   4.478   2.847  0.6322  1.7542 -0.8949
 6519TIP3   OH241115   6.618   3.920   8.038 -0.2344  0.0606  0.1679
 6519TIP3    H141116   6.665   3.919   7.955 -0.5220  0.1177  0.0007
 6519TIP3    H241117   6.645   4.001   8.080 -0.3822  0.2215 -0.0442
 6520TIP3   OH241118   3.234   5.199   1.662  0.1147 -0.1771  0.2534
 6520TIP3    H141119   3.242   5.291   1.686  1.6823 -0.7998  2.4276
 6520TIP3    H241120   3.304   5.184   1.599  1.9624 -0.5328  2.2993
 6521TIP3   OH241121   0.961   4.706   0.456  0.3000  0.6437  0.1695
 6521TIP3    H141122   0.955   4.647   0.531 -1.4017  0.9761  0.3349
 6521TIP3    H241123   0.874   4.745   0.449  0.6346  1.1737 -1.5407
 6522TIP3   OH241124   0.014   2.814   2.800 -0.1684 -0.1784  0.2473
 6522TIP3    H141125   0.068   2.742   2.832  0.0783 -0.5066 -0.8606
 6522TIP3    H241126  -0.067   2.807   2.850  1.4711  1.6143  3.5217
 6523TIP3   OH241127   0.242   5.801   0.500 -0.7326  0.2660 -0.1476
 6523TIP3    H141128   0.312   5.867   0.504 -1.6243  1.4080 -1.9029
 6523TIP3    H241129   0.170   5.846   0.454 -3.0737 -0.5115  2.5245
 6524TIP3   OH241130   3.773   3.879   7.365 -0.1851  0.4198 -0.4843
 6524TIP3    H141131   3.763   3.790   7.398  1.3365  1.0439  1.9501
 6524TIP3    H241132   3.687   3.902   7.331 -0.8463 -1.6475 -0.3555
 6525TIP3   OH241133   0.281   4.304   1.802  0.4275  0.0176 -0.0592
 6525TIP3    H141134   0.233   4.228   1.834  1.4080 -0.3298  0.6471
 6525TIP3    H241135   0.322   4.274   1.721 -0.8562  0.4506 -0.9126
 6526TIP3   OH241136   4.728   0.427   0.634  0.1617 -1.0605  0.2991
 6526TIP3    H141137   4.785   0.359   0.671 -0.0192 -0.8388  0.9935
 6526TIP3    H241138   4.776   0.509   0.648 -0.7009 -0.7622  1.6991
 6527TIP3   OH241139   5.419   3.701   1.429  0.5713 -0.2143 -0.0836
 6527TIP3    H141140   5.417   3.682   1.335  1.2701 -3.1028  0.3939
 6527TIP3    H241141   5.329   3.687   1.458  1.0540 -3.2139  0.2417
 6528TIP3   OH241142   1.464   1.118   7.606  0.6427  0.0832 -0.6695
 6528TIP3    H141143   1.452   1.083   7.518  0.1842  0.1646 -0.6406
 6528TIP3    H241144   1.494   1.044   7.658  2.0959  0.3011 -1.1541
 6529TIP3   OH241145   5.144   1.510   8.489 -0.2442 -0.3661 -0.0301
 6529TIP3    H141146   5.139   1.575   8.419  1.1078  0.6155  0.7411
 6529TIP3    H241147   5.175   1.559   8.565 -3.9821 -0.8436  2.0157
 6530TIP3   OH241148   5.790   6.845   8.600  0.1313  0.4238 -0.3923
 6530TIP3    H141149   5.750   6.920   8.555 -0.8980 -0.1250 -0.4278
 6530TIP3    H241150   5.860   6.884   8.652 -0.2791  1.3977 -0.5307
 6531TIP3   OH241151   5.215   6.334   2.827  0.0258  0.1677 -0.2191
 6531TIP3    H141152   5.140   6.383   2.861  0.1457 -0.0546  0.3726
 6531TIP3    H241153   5.289   6.361   2.882  0.1107 -0.6035  0.0596
 6532TIP3   OH241154   6.689   3.394   1.255  0.4789  0.3543 -0.2369
 6532TIP3    H141155   6.721   3.308   1.280  0.0370  0.1715 -0.2757
 6532TIP3    H241156   6.764   3.452   1.265  0.6531  0.0518  0.2468
 6533TIP3   OH241157   4.118   5.376   8.254  0.2202 -0.2794 -0.8514
 6533TIP3    H141158   4.087   5.287   8.267  0.1033 -0.4394 -2.0643
 6533TIP3    H241159   4.168   5.396   8.333 -2.1685 -0.3307  0.7794
 6534TIP3   OH241160   5.381   6.820   8.100  0.0310  0.1355 -0.2264
 6534TIP3    H141161   5.371   6.725   8.106 -2.5338  0.3554  0.0916
 6534TIP3    H241162   5.360   6.853   8.187 -1.0241  1.0786 -0.7973
 6535TIP3   OH241163   2.546   6.287   1.887  0.1731  0.3612  0.6547
 6535TIP3    H141164   2.511   6.372   1.861  1.1372  1.0930  1.6760
 6535TIP3    H241165   2.505   6.269   1.972  1.7988  0.9862  1.6139
 6536TIP3   OH241166   2.325   4.337   0.099 -0.2350  0.2117  0.1658
 6536TIP3    H141167   2.409   4.382   0.093 -0.3614  0.3866 -0.4537
 6536TIP3    H241168   2.334   4.261   0.041 -0.1818 -0.3040  0.8469
 6537TIP3   OH241169   5.187   4.824   2.483 -0.4743 -0.7999 -0.1964
 6537TIP3    H141170   5.233   4.868   2.412  0.0762 -0.1156  0.5532
 6537TIP3    H241171   5.124   4.766   2.440 -0.8315  0.3133 -1.2267
 6538TIP3   OH241172   2.118   2.438   0.036 -0.0467  0.5622 -0.3337
 6538TIP3    H141173   2.213   2.438   0.053  0.0961 -0.7233 -0.9865
 6538TIP3    H241174   2.097   2.346   0.020 -1.2825  0.9258 -0.9136
 6539TIP3   OH241175   4.177   0.673   2.445  0.2992 -0.3825  0.4098
 6539TIP3    H141176   4.215   0.591   2.477 -0.6445 -0.7587  0.6026
 6539TIP3    H241177   4.084   0.654   2.436  0.2847  0.2413 -0.9401
 6540TIP3   OH241178   6.676   2.571   2.393  0.0228  0.7135 -0.1600
 6540TIP3    H141179   6.625   2.512   2.448  2.3395 -1.7071 -0.4186
 6540TIP3    H241180   6.617   2.594   2.321 -1.9135  1.1897  1.4815
 6541TIP3   OH241181   6.101   4.301   2.111 -0.5975 -0.0820 -0.3938
 6541TIP3    H141182   6.034   4.332   2.051  1.1228  0.8059 -1.9839
 6541TIP3    H241183   6.181   4.347   2.083  1.3465 -3.1994 -0.4898
 6542TIP3   OH241184   5.102   4.983   8.132 -0.0490  0.6131 -0.7442
 6542TIP3    H141185   5.049   5.057   8.163  0.7469  0.9654 -0.1886
 6542TIP3    H241186   5.039   4.926   8.088 -1.1127  0.4102  0.9344
 6543TIP3   OH241187   0.577   4.052   2.603 -0.4031 -0.1154 -0.1871
 6543TIP3    H141188   0.583   4.138   2.562 -0.1526 -0.8413 -1.7221
 6543TIP3    H241189   0.599   4.068   2.695  1.2440  1.2177 -0.7589
 6544TIP3   OH241190   5.446   3.963   3.387 -0.5768 -0.2782 -0.2836
 6544TIP3    H141191   5.526   3.927   3.423 -0.7502 -0.6529 -0.2648
 6544TIP3    H241192   5.414   3.895   3.327 -2.0671 -1.1548  1.3846
 6545TIP3   OH241193   2.178   0.725   0.558 -0.4735  0.3588  0.2360
 6545TIP3    H141194   2.238   0.751   0.628  0.1328 -0.8965  0.2308
 6545TIP3    H241195   2.192   0.789   0.489 -0.2018  0.9233  0.8113
 6546TIP3   OH241196   4.641   1.139   1.273 -0.1286 -0.1348 -0.3274
 6546TIP3    H141197   4.709   1.108   1.334 -2.3072 -0.6690  2.0428
 6546TIP3    H241198   4.673   1.224   1.242  1.8240 -0.5889  0.2910
 6547TIP3   OH241199   5.745   6.266   2.202 -0.2471  0.1301  0.0399
 6547TIP3    H141200   5.690   6.294   2.274 -0.2567  1.5422 -0.4776
 6547TIP3    H241201   5.686   6.262   2.126  0.0570  0.1381 -0.2018
 6548TIP3   OH241202   1.080   4.189   3.178  0.3372  0.0051  0.0498
 6548TIP3    H141203   0.990   4.175   3.207  0.0083  1.2352 -0.2987
 6548TIP3    H241204   1.080   4.161   3.087 -0.4358  2.3883 -0.7865
 6549TIP3   OH241205   2.728   2.640   1.184 -0.4864 -0.1876  0.0690
 6549TIP3    H141206   2.680   2.652   1.102 -0.8794  0.3787  0.3762
 6549TIP3    H241207   2.752   2.547   1.183  1.5270  0.2668 -1.7617
 6550TIP3   OH241208   3.528   5.109   0.431 -0.1123 -0.1177  0.0089
 6550TIP3    H141209   3.602   5.069   0.478 -2.1474 -1.9749  1.9351
 6550TIP3    H241210   3.512   5.191   0.477  0.8828  0.4195 -0.5854
 6551TIP3   OH241211   0.421   1.717   1.393  0.9510  0.5597 -0.6198
 6551TIP3    H141212   0.440   1.653   1.325  0.2995  0.5723 -0.8192
 6551TIP3    H241213   0.507   1.752   1.418  1.1790  0.6967 -1.5695
 6552TIP3   OH241214   0.995   5.042   8.055  0.1077  0.1649 -0.1794
 6552TIP3    H141215   0.910   5.072   8.087 -0.4457 -0.8016 -0.6706
 6552TIP3    H241216   1.019   5.105   7.987  1.2642  2.1948  1.9435
 6553TIP3   OH241217   2.725   6.706   3.007  0.0119  0.2409 -0.0146
 6553TIP3    H141218   2.656   6.705   3.073 -0.7722  0.9493 -0.7917
 6553TIP3    H241219   2.806   6.714   3.057 -0.3654 -1.6475  0.9655
 6554TIP3   OH241220   2.892   1.617   8.262  0.7338 -0.9160 -0.1117
 6554TIP3    H141221   2.950   1.597   8.189  2.4290  0.3680  0.8054
 6554TIP3    H241222   2.843   1.536   8.277  1.8115 -1.8314 -1.3448
 6555TIP3   OH241223   5.667   4.398   0.673  0.2252 -0.1635 -0.1866
 6555TIP3    H141224   5.725   4.464   0.712  0.3744 -0.3278 -0.1311
 6555TIP3    H241225   5.596   4.449   0.634  0.1430  0.0055  0.1867
 6556TIP3   OH241226   6.760   0.216   2.075  0.1457 -0.3897 -0.0014
 6556TIP3    H141227   6.720   0.283   2.130  1.8619  0.4944  0.2221
 6556TIP3    H241228   6.774   0.141   2.133 -0.9535 -0.6389 -0.0362
 6557TIP3   OH241229   3.559   6.017   2.196 -0.5185  0.7017  0.6392
 6557TIP3    H141230   3.559   5.934   2.243 -1.5157  0.5612  0.4261
 6557TIP3    H241231   3.487   6.009   2.132 -1.1502  1.9993  1.1345
 6558TIP3   OH241232   2.389   5.590   0.776 -0.5767 -0.1605  0.5114
 6558TIP3    H141233   2.347   5.560   0.857 -3.2586 -0.1738 -0.7773
 6558TIP3    H241234   2.347   5.540   0.707  1.4031  0.1001 -0.9771
 6559TIP3   OH241235   6.723   5.915   7.345  0.1219  0.2137 -0.0194
 6559TIP3    H141236   6.771   5.954   7.418  0.0715  0.8105 -0.3064
 6559TIP3    H241237   6.791   5.879   7.288  0.1221 -1.4091  0.9536
 6560TIP3   OH241238   0.550   4.191   8.309  0.2006 -0.3900  0.0421
 6560TIP3    H141239   0.503   4.192   8.393  1.9295 -1.0823  1.0723
 6560TIP3    H241240   0.542   4.100   8.279 -1.9200  0.2186 -1.5168
 6561TIP3   OH241241   1.018   2.173   2.769  0.3791 -0.6188  0.1801
 6561TIP3    H141242   0.948   2.133   2.820  0.2001 -0.4916  0.0360
 6561TIP3    H241243   1.005   2.268   2.780 -1.0582 -0.4866 -1.9091
 6562TIP3   OH241244   4.857   5.699   0.360 -0.2933  0.3311  0.5825
 6562TIP3    H141245   4.948   5.689   0.389 -0.4493 -0.3820  0.8353
 6562TIP3    H241246   4.854   5.788   0.323  0.5021  0.3632  0.5694
 6563TIP3   OH241247   2.594   4.001   7.517 -0.2034  0.2090 -0.2975
 6563TIP3    H141248   2.661   4.038   7.459  0.2540 -0.0615  0.0499
 6563TIP3    H241249   2.570   4.073   7.575 -0.1784  0.2890 -0.3848
 6564TIP3   OH241250   5.273   4.420   8.631 -0.6286 -0.0327 -0.0222
 6564TIP3    H141251   5.249   4.502   8.674 -0.0735  0.6972 -1.0634
 6564TIP3    H241252   5.215   4.354   8.670 -1.3848  0.9318  0.5189
 6565TIP3   OH241253   0.502   4.437   7.643  0.0551 -0.2134 -0.5271
 6565TIP3    H141254   0.487   4.466   7.553  0.9450  1.5447 -0.1387
 6565TIP3    H241255   0.422   4.460   7.689  0.0652 -0.0153 -0.6069
 6566TIP3   OH241256   4.068   6.783   1.411 -0.8222 -0.4694  0.5992
 6566TIP3    H141257   4.056   6.843   1.337  2.1620 -0.2055  0.2105
 6566TIP3    H241258   4.066   6.696   1.372 -1.8147 -0.4888  0.6554
 6567TIP3   OH241259   6.319   5.636   2.185  0.2569  0.3190 -0.4620
 6567TIP3    H141260   6.296   5.554   2.228 -0.1953  1.2366  1.1371
 6567TIP3    H241261   6.409   5.652   2.211  1.0649 -0.6706 -2.4768
 6568TIP3   OH241262   3.436   5.940   8.676 -0.1721 -0.5018 -0.4505
 6568TIP3    H141263   3.519   5.978   8.646 -0.3740  1.2594  1.0463
 6568TIP3    H241264   3.449   5.846   8.668  2.5422 -0.3650  1.0653
 6569TIP3   OH241265   3.275   3.477   0.008  0.3708  0.1760 -0.3396
 6569TIP3    H141266   3.201   3.423  -0.017 -0.0259  0.0200  1.0602
 6569TIP3    H241267   3.351   3.431  -0.025 -0.1916  1.8659 -4.5783
 6570TIP3   OH241268   4.864   5.108   8.213  0.4015 -0.6540 -0.0161
 6570TIP3    H141269   4.849   5.033   8.271 -1.0609 -0.3906 -0.0267
 6570TIP3    H241270   4.843   5.185   8.267  1.5763 -0.2491 -0.1011
 6571TIP3   OH241271   5.669   2.514   7.797 -0.3071 -0.8092 -0.2743
 6571TIP3    H141272   5.607   2.551   7.734  0.8907 -1.5740 -1.9920
 6571TIP3    H241273   5.711   2.590   7.837 -1.9000 -0.2861  0.5172
 6572TIP3   OH241274   0.955   5.153   1.335 -0.3912  0.2923 -0.0278
 6572TIP3    H141275   0.994   5.071   1.367 -1.4337 -0.6862 -1.1595
 6572TIP3    H241276   0.874   5.161   1.385 -1.1200 -0.2774 -1.0852
 6573TIP3   OH241277   2.245   6.534   3.056 -0.0518 -0.1468  0.4079
 6573TIP3    H141278   2.163   6.499   3.022 -0.9762  1.8034  0.4583
 6573TIP3    H241279   2.313   6.497   3.000 -1.0861 -0.7662 -0.4797
 6574TIP3   OH241280   3.145   0.852   8.269 -0.3642  0.1837 -0.5559
 6574TIP3    H141281   3.192   0.811   8.196  0.6684  1.0011 -0.3710
 6574TIP3    H241282   3.068   0.797   8.281  0.6212 -1.3083 -0.7519
 6575TIP3   OH241283   3.983   3.337   8.027  0.1500  0.2510  0.2392
 6575TIP3    H141284   4.057   3.390   7.998 -1.2046  1.6155 -0.8679
 6575TIP3    H241285   3.907   3.377   7.985 -1.1437 -1.5326  0.7826
 6576TIP3   OH241286   6.133   5.806   1.611 -0.6036  1.1030  0.5208
 6576TIP3    H141287   6.192   5.792   1.536  1.4019  0.8693  2.0608
 6576TIP3    H241288   6.117   5.718   1.645 -1.4177  1.2174  0.4514
 6577TIP3   OH241289   2.264   0.877   0.338 -0.2544  0.3102 -0.0834
 6577TIP3    H141290   2.353   0.910   0.324 -0.4297  0.4338 -0.9341
 6577TIP3    H241291   2.216   0.901   0.258 -1.1843  0.6954  0.5619
 6578TIP3   OH241292   1.337   0.690   8.321 -0.0546 -0.6009  0.0463
 6578TIP3    H141293   1.402   0.674   8.389 -0.2328 -0.8721  0.1575
 6578TIP3    H241294   1.260   0.641   8.350 -0.6528  0.5431  0.4365
 6579TIP3   OH241295   5.265   1.354   0.282  0.4878 -0.1843 -0.2260
 6579TIP3    H141296   5.334   1.313   0.229  0.7871  0.2929 -0.2150
 6579TIP3    H241297   5.193   1.369   0.220  0.3240 -0.8333 -0.2030
 6580TIP3   OH241298   6.137   5.270   7.923  0.2257  0.3862  0.1219
 6580TIP3    H141299   6.062   5.313   7.881  0.7361 -1.7456 -3.3977
 6580TIP3    H241300   6.129   5.178   7.896  3.0950 -0.2800  1.2323
 6581TIP3   OH241301   5.629   5.506   1.575  0.7246  0.5039  0.1463
 6581TIP3    H141302   5.668   5.557   1.647  0.0307  0.8847  0.2549
 6581TIP3    H241303   5.651   5.415   1.597  1.8225  0.7207  0.0404
 6582TIP3   OH241304   0.924   6.005   0.392 -0.3371  0.2754 -0.0864
 6582TIP3    H141305   0.940   5.964   0.478 -1.1724  1.4658  0.6554
 6582TIP3    H241306   0.990   5.965   0.335 -1.6402 -2.8055  0.3430
 6583TIP3   OH241307   1.971   2.779   0.850 -0.1631 -0.0031  0.1097
 6583TIP3    H141308   2.048   2.741   0.892 -1.3721  0.0781  2.5501
 6583TIP3    H241309   2.001   2.865   0.819  0.6890  0.1534  1.2703
 6584TIP3   OH241310   0.776   1.986   1.257 -0.5430 -0.3812 -0.3953
 6584TIP3    H141311   0.694   2.035   1.249 -1.1579 -1.3131  0.1003
 6584TIP3    H241312   0.843   2.047   1.226 -1.3169  0.6907 -0.0183
 6585TIP3   OH241313   2.292   4.259   8.141 -0.9519 -0.2767  0.0609
 6585TIP3    H141314   2.383   4.229   8.139 -0.7224  0.4352 -0.8333
 6585TIP3    H241315   2.260   4.233   8.227 -0.2496 -1.5251 -0.0235
 6586TIP3   OH241316   1.544   5.511   0.649  0.4164 -0.4085  0.5713
 6586TIP3    H141317   1.479   5.443   0.634  1.9162 -1.8684  0.3371
 6586TIP3    H241318   1.550   5.556   0.565 -0.1099 -0.4270  0.5213
 6587TIP3   OH241319   1.336   5.852   7.989 -0.2084  0.3135 -0.2069
 6587TIP3    H141320   1.375   5.871   8.074  1.7505 -1.4580 -0.5937
 6587TIP3    H241321   1.393   5.784   7.952 -2.3322 -0.6525 -1.9472
 6588TIP3   OH241322   6.425   0.064   7.690 -0.2454 -0.0101  0.2800
 6588TIP3    H141323   6.435   0.029   7.602  0.3457 -1.3675  0.8600
 6588TIP3    H241324   6.343   0.026   7.722 -0.4720  0.4969  0.3058
 6589TIP3   OH241325   5.917   5.742   0.127 -0.0803 -0.2763 -0.8040
 6589TIP3    H141326   5.991   5.769   0.072 -0.5532  1.0648 -0.8290
 6589TIP3    H241327   5.942   5.656   0.159  1.8373  0.4231 -0.2366
 6590TIP3   OH241328   2.642   5.504   0.994  0.1347  0.1125 -0.2612
 6590TIP3    H141329   2.596   5.432   1.036  0.1412  0.5190  0.4476
 6590TIP3    H241330   2.613   5.583   1.041  1.0718  0.4393 -0.2123
 6591TIP3   OH241331   4.767   5.094   2.811  0.0607 -0.3410 -0.1567
 6591TIP3    H141332   4.859   5.071   2.804  0.2766  0.9304 -2.6995
 6591TIP3    H241333   4.724   5.012   2.834  1.5840 -1.5453 -1.3706
 6592TIP3   OH241334   0.939   0.747   0.218  0.2262  0.3225  0.0716
 6592TIP3    H141335   0.901   0.804   0.285 -0.2267 -0.0434  0.1339
 6592TIP3    H241336   0.965   0.806   0.148 -2.0869  0.4599 -0.7704
 6593TIP3   OH241337   4.298   4.180   8.506  0.3641 -0.0411  0.3522
 6593TIP3    H141338   4.220   4.125   8.505 -0.3766  0.9891 -0.3122
 6593TIP3    H241339   4.341   4.159   8.589 -1.8407  1.0586  1.8600
 6594TIP3   OH241340   1.459   2.237   7.870  0.5922 -0.1696  0.4109
 6594TIP3    H141341   1.369   2.223   7.842  0.8318 -0.4486 -0.2308
 6594TIP3    H241342   1.493   2.149   7.886  1.7245 -0.3266 -2.4280
 6595TIP3   OH241343   0.208   5.731   0.172  0.0502  0.3234  0.1923
 6595TIP3    H141344   0.168   5.705   0.255 -1.5590  0.5806 -0.4535
 6595TIP3    H241345   0.144   5.790   0.132  0.3313 -0.5320 -1.6465
 6596TIP3   OH241346   0.937   6.748   2.137  0.1014 -0.2532 -0.5387
 6596TIP3    H141347   0.965   6.747   2.228  2.4086 -1.2228 -1.1952
 6596TIP3    H241348   0.857   6.800   2.137  0.3811  0.2837  1.9263
 6597TIP3   OH241349   2.751   1.035   0.777 -0.0252  0.2428 -0.3907
 6597TIP3    H141350   2.779   1.094   0.707  2.4633  0.1448  0.4222
 6597TIP3    H241351   2.824   0.974   0.787 -1.2154 -1.0415  0.8899
 6598TIP3   OH241352   0.595   1.796   2.169 -0.1950 -0.0692 -0.4916
 6598TIP3    H141353   0.511   1.825   2.205  0.3558  0.7901  0.1392
 6598TIP3    H241354   0.623   1.867   2.111  0.3222 -0.1260 -0.3179
 6599TIP3   OH241355   4.810   5.011   8.641 -0.0350  0.4301  0.0162
 6599TIP3    H141356   4.877   5.016   8.710 -0.9500  0.9192  0.8991
 6599TIP3    H241357   4.730   5.039   8.684 -0.8024 -0.0694 -1.0515
 6600TIP3   OH241358   1.068   1.318   3.449  0.2563 -0.7244 -0.0188
 6600TIP3    H141359   0.982   1.309   3.409 -0.2350 -0.2304  0.9043
 6600TIP3    H241360   1.104   1.230   3.449 -0.7278 -1.1398  0.6435
 6601TIP3   OH241361   4.502   3.737   0.800 -0.3513  0.3710  0.1460
 6601TIP3    H141362   4.417   3.730   0.756 -1.0149 -2.2198  1.6168
 6601TIP3    H241363   4.514   3.831   0.814 -1.4668  1.0561 -2.8103
 6602TIP3   OH241364   6.706   0.152   0.900  0.2291 -0.0292  0.3068
 6602TIP3    H141365   6.786   0.204   0.911  0.6108 -0.5122 -0.1380
 6602TIP3    H241366   6.636   0.209   0.933  0.8428  0.0807  1.4873
 6603TIP3   OH241367   2.293   3.653   1.306  0.3221  0.1761 -0.2649
 6603TIP3    H141368   2.314   3.618   1.219  2.5084  1.9113 -0.5179
 6603TIP3    H241369   2.343   3.597   1.367  0.1649  0.0230 -0.2769
 6604TIP3   OH241370   2.219   0.995   8.146 -0.9372 -0.1777 -0.3677
 6604TIP3    H141371   2.236   1.015   8.054  0.7498 -1.2562 -0.3427
 6604TIP3    H241372   2.201   0.901   8.147  0.2848 -0.4325  0.5138
 6605TIP3   OH241373   3.167   2.452   2.524  0.0089  0.0673 -0.2431
 6605TIP3    H141374   3.197   2.534   2.485 -0.6975  0.3754 -0.1517
 6605TIP3    H241375   3.204   2.453   2.612 -3.4702  2.4367  1.4397
 6606TIP3   OH241376   3.188   3.613   8.266  0.7544  0.0469  0.0776
 6606TIP3    H141377   3.194   3.673   8.191 -1.8139 -0.3836 -0.5515
 6606TIP3    H241378   3.159   3.530   8.228 -2.0879  0.2081  1.6497
 6607TIP3   OH241379   5.556   2.716   7.595  0.1405 -0.3972 -0.1319
 6607TIP3    H141380   5.526   2.716   7.504  1.2350  2.4614 -0.5897
 6607TIP3    H241381   5.630   2.777   7.595  2.5334 -3.0424  1.9828
 6608TIP3   OH241382   0.883   3.488   0.685 -0.1023  0.1033  0.0842
 6608TIP3    H141383   0.946   3.464   0.752  0.7674  1.2199 -0.2817
 6608TIP3    H241384   0.933   3.485   0.603 -0.0093  2.5539 -0.0445
 6609TIP3   OH241385   1.711   2.742   2.299  0.0143 -0.1711 -0.1313
 6609TIP3    H141386   1.694   2.723   2.391  0.8298 -0.0772  0.0384
 6609TIP3    H241387   1.805   2.734   2.289 -0.0483 -0.0091 -0.9225
 6610TIP3   OH241388   5.977   2.377   2.971 -0.3137  0.5071  0.5224
 6610TIP3    H141389   6.054   2.323   2.950 -0.3110  0.0132  1.7015
 6610TIP3    H241390   5.984   2.392   3.065 -1.7904  0.2582  0.6872
 6611TIP3   OH241391   6.258   2.185   3.275 -0.2080 -0.7991 -0.3411
 6611TIP3    H141392   6.259   2.178   3.370 -0.5606  0.2983 -0.2442
 6611TIP3    H241393   6.232   2.276   3.258 -0.7385 -1.1509 -1.4886
 6612TIP3   OH241394   1.268   0.785   7.602  0.0590 -0.0068  0.6800
 6612TIP3    H141395   1.211   0.725   7.649 -0.7907  2.5299  3.1636
 6612TIP3    H241396   1.223   0.803   7.519 -1.0061 -0.7077  1.0950
 6613TIP3   OH241397   4.712   2.324   0.271 -0.4253  0.3552  0.4300
 6613TIP3    H141398   4.752   2.248   0.313  1.1201  0.3124 -0.9865
 6613TIP3    H241399   4.654   2.286   0.205  0.0420  0.3936 -0.0079
 6614TIP3   OH241400   0.721   4.867   1.374 -0.1587 -0.1194 -0.0584
 6614TIP3    H141401   0.762   4.826   1.298 -1.6802  1.1246 -1.6525
 6614TIP3    H241402   0.706   4.795   1.435  1.0613 -1.1794 -0.9504
 6615TIP3   OH241403   5.552   2.376   3.377  1.0781  0.2429  0.3744
 6615TIP3    H141404   5.526   2.374   3.469  0.0794  0.8023  0.1195
 6615TIP3    H241405   5.592   2.462   3.365  0.0781  0.6721  0.0081
 6616TIP3   OH241406   5.851   1.990   1.447 -0.2231 -0.1581 -0.2924
 6616TIP3    H141407   5.810   1.923   1.393  0.6750  0.2626 -1.5271
 6616TIP3    H241408   5.835   2.072   1.401  1.4448  0.0847 -0.4971
 6617TIP3   OH241409   2.446   1.077   0.503  0.2684  0.3624  0.0366
 6617TIP3    H141410   2.442   1.000   0.559  0.1785 -0.0528 -0.5337
 6617TIP3    H241411   2.539   1.102   0.502  0.4210 -0.2014 -0.3887
 6618TIP3   OH241412   2.548   6.527   2.235 -0.3029 -0.2894 -0.6709
 6618TIP3    H141413   2.506   6.610   2.258 -0.7447 -0.4522 -0.8799
 6618TIP3    H241414   2.630   6.528   2.283  0.8920  1.3914 -2.5772
 6619TIP3   OH241415   4.501   6.268   2.140  0.1943 -0.2209 -0.2067
 6619TIP3    H141416   4.459   6.323   2.074 -0.2274  0.6508  0.7714
 6619TIP3    H241417   4.477   6.179   2.115 -1.2737  0.1819 -0.3434
 6620TIP3   OH241418   6.859   3.112   0.703 -0.1223  0.5097 -0.4545
 6620TIP3    H141419   6.893   3.023   0.693 -1.5826 -0.2117  0.7800
 6620TIP3    H241420   6.920   3.166   0.652  0.4317 -1.2511 -1.7516
 6621TIP3   OH241421   4.616   2.744   3.686  0.1931  0.2540 -0.0025
 6621TIP3    H141422   4.536   2.744   3.633  0.2872  0.4331 -0.1463
 6621TIP3    H241423   4.668   2.816   3.651  0.0330  0.7116  0.6822
 6622TIP3   OH241424   3.150   3.003   1.152 -0.1718 -0.0207 -0.5753
 6622TIP3    H141425   3.192   3.090   1.151 -0.5297  0.1546 -1.6491
 6622TIP3    H241426   3.133   2.984   1.060  0.9455 -1.7584 -0.4629
 6623TIP3   OH241427   3.974   1.256   0.841  0.0742 -0.2409  0.0283
 6623TIP3    H141428   3.905   1.267   0.907  0.8218  0.5225  0.7052
 6623TIP3    H241429   3.981   1.341   0.799  1.0127 -0.1196  0.3912
 6624TIP3   OH241430   2.104   0.473   0.608  0.5122  0.2744  0.0870
 6624TIP3    H141431   2.116   0.456   0.701  0.7486  1.6388  0.3288
 6624TIP3    H241432   2.123   0.566   0.598 -0.1459  0.2953 -1.2200
 6625TIP3   OH241433   3.767   4.276   7.807  0.6386  0.3106 -0.1481
 6625TIP3    H141434   3.699   4.224   7.764  1.4535 -1.0374  0.1479
 6625TIP3    H241435   3.799   4.335   7.739 -0.3388  0.4785 -0.4772
 6626TIP3   OH241436   0.427   1.059   8.570 -0.5622 -0.7252 -0.0778
 6626TIP3    H141437   0.482   1.087   8.643 -0.6157 -0.6098 -0.0809
 6626TIP3    H241438   0.487   1.013   8.511 -0.0759  0.9712 -0.9630
 6627TIP3   OH241439   0.513   6.735   0.169 -0.2217  0.3936  0.2170
 6627TIP3    H141440   0.420   6.721   0.187 -0.5099  1.5375 -0.3228
 6627TIP3    H241441   0.552   6.748   0.256 -0.7335  0.8685  0.3820
 6628TIP3   OH241442   4.449   2.037   1.977  0.4804  0.2647  0.1224
 6628TIP3    H141443   4.433   2.121   1.932  1.9245 -0.1714 -1.2877
 6628TIP3    H241444   4.498   2.061   2.055  0.8138  0.7482 -0.2307
 6629TIP3   OH241445   4.354   3.707   2.868  0.5981 -0.0459 -0.0785
 6629TIP3    H141446   4.263   3.696   2.841  0.6747 -0.5457 -0.1467
 6629TIP3    H241447   4.383   3.618   2.892  1.0275  0.1284  0.0632
 6630TIP3   OH241448   2.117   2.668   8.543  0.7753  0.3816  0.1074
 6630TIP3    H141449   2.110   2.726   8.618 -2.6200  1.8255 -1.1308
 6630TIP3    H241450   2.078   2.586   8.572 -1.3128  1.1980 -0.1754
 6631TIP3   OH241451   4.378   4.253   1.799 -0.2111 -0.1787  0.2113
 6631TIP3    H141452   4.429   4.331   1.821 -1.1583  0.6927 -0.6125
 6631TIP3    H241453   4.332   4.230   1.880  1.2021 -0.7913  0.8773
 6632TIP3   OH241454   5.073   5.427   0.651 -0.1341 -0.2910  0.7442
 6632TIP3    H141455   5.018   5.463   0.581  1.6728 -0.6390 -0.9254
 6632TIP3    H241456   5.067   5.492   0.721 -1.0955  0.6397 -0.1502
 6633TIP3   OH241457   4.216   5.151   2.354 -0.9859  0.1115 -0.3035
 6633TIP3    H141458   4.211   5.066   2.399  3.4930  0.0719  0.5877
 6633TIP3    H241459   4.205   5.129   2.262  0.5383 -1.6079 -0.1426
 6634TIP3   OH241460   5.251   6.560   8.663  0.1370  0.1474  0.3754
 6634TIP3    H141461   5.165   6.532   8.694  0.0457  0.3107  0.2669
 6634TIP3    H241462   5.241   6.652   8.642  0.2758  0.1096  0.1365
 6635TIP3   OH241463   0.524   5.385   8.042 -0.1321 -0.0908 -1.1110
 6635TIP3    H141464   0.591   5.323   8.012 -0.4044 -1.3046  0.6754
 6635TIP3    H241465   0.469   5.400   7.966  1.4567  0.0032 -2.2927
 6636TIP3   OH241466   1.782   1.901   2.058  0.1819 -0.6916 -0.3891
 6636TIP3    H141467   1.725   1.927   2.130 -1.3314 -1.1502 -1.3788
 6636TIP3    H241468   1.864   1.948   2.075 -0.3323 -0.3033  1.2760
 6637TIP3   OH241469   6.546   6.140   7.317 -0.2341 -0.7899  0.8704
 6637TIP3    H141470   6.574   6.050   7.298  1.3047  0.0048 -0.9160
 6637TIP3    H241471   6.622   6.181   7.359 -0.4801  0.0218  0.5395
 6638TIP3   OH241472   0.784   1.540   1.877 -0.6413 -0.5773 -0.3704
 6638TIP3    H141473   0.849   1.599   1.915 -1.5580 -0.5024  1.1742
 6638TIP3    H241474   0.756   1.585   1.796 -0.9537  0.8862  0.5090
 6639TIP3   OH241475   2.244   6.571   0.677  0.0044  0.2180 -0.3149
 6639TIP3    H141476   2.289   6.516   0.741 -1.6545 -0.1430  0.5827
 6639TIP3    H241477   2.236   6.516   0.599 -1.0493 -0.6130  0.3536
 6640TIP3   OH241478   6.539   3.087   2.112  0.2125  0.3864  1.1808
 6640TIP3    H141479   6.476   3.054   2.176 -0.7389 -0.0757  0.0516
 6640TIP3    H241480   6.533   3.182   2.118 -2.2114  0.4239 -0.3362
 6641TIP3   OH241481   4.552   1.805   0.932  0.4621  0.2498 -0.0276
 6641TIP3    H141482   4.462   1.776   0.941  0.6029  0.0237  0.7114
 6641TIP3    H241483   4.568   1.806   0.837 -0.7988  1.8585 -0.2512
 6642TIP3   OH241484   5.130   5.660   0.423 -0.3827  0.7008 -0.2972
 6642TIP3    H141485   5.140   5.721   0.350 -2.0453  0.0499 -1.1214
 6642TIP3    H241486   5.178   5.700   0.495  1.2676  1.3989 -1.7164
 6643TIP3   OH241487   3.282   2.672   2.374 -0.4064 -0.3668  0.5437
 6643TIP3    H141488   3.365   2.709   2.344 -0.1393 -0.2594  1.3700
 6643TIP3    H241489   3.217   2.706   2.313 -0.0878  1.0610  0.9581
 6644TIP3   OH241490   5.721   2.239   0.862  0.8478  0.3550 -0.4751
 6644TIP3    H141491   5.726   2.163   0.804  2.7766  0.3067 -0.2908
 6644TIP3    H241492   5.718   2.314   0.802 -0.0858  0.2079 -0.6390
 6645TIP3   OH241493   3.610   0.438   2.466  0.2349  0.4225  0.3589
 6645TIP3    H141494   3.561   0.518   2.444 -0.4188  0.6106  2.3145
 6645TIP3    H241495   3.699   0.469   2.481  0.5637  0.3745 -1.3105
 6646TIP3   OH241496   2.645   1.568   2.984 -0.5701  0.4016  0.1685
 6646TIP3    H141497   2.647   1.535   3.074 -1.8266 -0.9278 -0.2489
 6646TIP3    H241498   2.688   1.500   2.932 -1.0424  0.5168 -0.3951
 6647TIP3   OH241499   6.667   4.108   2.249 -0.1266 -0.1216  0.6692
 6647TIP3    H141500   6.712   4.106   2.164  1.3264  0.7657  1.3656
 6647TIP3    H241501   6.614   4.188   2.247 -1.8272 -1.2198 -0.1911
 6648TIP3   OH241502   3.071   4.426   2.702  0.4398 -0.2082  0.0378
 6648TIP3    H141503   2.982   4.431   2.668  0.3298  0.9989  0.4606
 6648TIP3    H241504   3.122   4.484   2.646  0.8308 -0.4073  0.1838
 6649TIP3   OH241505   2.876   6.447   7.331 -0.0914  0.5348  0.4913
 6649TIP3    H141506   2.800   6.503   7.324 -0.4753 -0.0608 -0.3823
 6649TIP3    H241507   2.895   6.420   7.240  0.0250 -0.7915  0.8799
 6650TIP3   OH241508   3.930   6.112   1.459  0.4915  0.2643 -0.2491
 6650TIP3    H141509   3.899   6.029   1.494  1.5381 -0.6608 -1.4376
 6650TIP3    H241510   3.979   6.152   1.532  0.5350 -0.4600  0.1267
 6651TIP3   OH241511   5.522   1.462   1.921  0.7912  0.2657 -0.9406
 6651TIP3    H141512   5.491   1.552   1.937 -0.1685 -0.1931 -0.1429
 6651TIP3    H241513   5.572   1.440   2.000 -1.7359 -1.0531  0.4128
 6652TIP3   OH241514   6.044   0.818   0.283 -0.4511 -0.1403  0.0802
 6652TIP3    H141515   5.976   0.792   0.345 -0.6457  0.2709  0.0445
 6652TIP3    H241516   6.070   0.905   0.311 -0.6280  0.0983 -0.4856
 6653TIP3   OH241517   5.866   0.875   1.769  0.4219  0.3709  0.3140
 6653TIP3    H141518   5.919   0.823   1.710 -0.2692  2.1395 -2.0119
 6653TIP3    H241519   5.926   0.903   1.838  1.2003 -1.9117  0.6504
 6654TIP3   OH241520   6.678   1.553   1.973 -0.1263  0.4400  0.5544
 6654TIP3    H141521   6.653   1.590   1.888  1.9158  1.0560  0.1605
 6654TIP3    H241522   6.671   1.627   2.034  1.4018  0.8336  0.2846
 6655TIP3   OH241523   1.426   1.932   1.729 -0.2760 -0.0244 -0.0634
 6655TIP3    H141524   1.352   1.989   1.752  0.4777  0.2786  1.7753
 6655TIP3    H241525   1.503   1.988   1.736  0.2404 -0.6248 -0.8122
 6656TIP3   OH241526   2.535   6.550   2.659  0.3064 -0.3394 -0.0703
 6656TIP3    H141527   2.592   6.506   2.595 -1.0165  0.1070 -1.6032
 6656TIP3    H241528   2.573   6.637   2.668  0.3883 -0.3413 -0.3898
 6657TIP3   OH241529   2.067   0.283   2.489  0.1015  0.7250 -0.0849
 6657TIP3    H141530   2.013   0.342   2.436 -2.2590  0.3908  1.7552
 6657TIP3    H241531   2.152   0.283   2.446 -0.9616  2.3517 -2.4127
 6658TIP3   OH241532   0.334   0.285   8.117 -0.2206 -0.0765 -0.3207
 6658TIP3    H141533   0.336   0.374   8.150 -2.8240  0.8359 -2.2821
 6658TIP3    H241534   0.365   0.292   8.027 -2.6592 -0.6683 -1.2658
 6659TIP3   OH241535   1.555   5.484   0.136 -0.0291  0.1723 -0.0088
 6659TIP3    H141536   1.473   5.436   0.148  0.1290 -0.2822 -0.6537
 6659TIP3    H241537   1.615   5.419   0.100  0.7739  0.3689  0.9455
 6660TIP3   OH241538   1.556   6.268   0.167  0.1496 -0.3031  0.2091
 6660TIP3    H141539   1.494   6.326   0.212 -1.7318  0.0717 -2.6359
 6660TIP3    H241540   1.642   6.305   0.189 -0.7914  1.3312  1.4274
 6661TIP3   OH241541   0.146   5.539   1.272  0.5886  0.1093  0.4120
 6661TIP3    H141542   0.101   5.535   1.188  0.4073 -1.8006  0.5560
 6661TIP3    H241543   0.094   5.600   1.324 -1.8985 -1.9962  0.5582
 6662TIP3   OH241544   4.025   5.792   0.001  0.2738 -0.0136 -0.8906
 6662TIP3    H141545   3.945   5.741  -0.017  1.0376 -1.2954 -0.7577
 6662TIP3    H241546   4.022   5.863  -0.062 -2.3932  1.6445  0.8904
 6663TIP3   OH241547   5.891   3.573   2.085  0.7872  0.1819  0.1570
 6663TIP3    H141548   5.823   3.639   2.082  1.8935  1.4251  1.1503
 6663TIP3    H241549   5.941   3.593   2.164  2.1259 -0.8464 -0.3755
 6664TIP3   OH241550   0.007   6.130   0.048 -0.2233  0.0224  0.4547
 6664TIP3    H141551  -0.062   6.172   0.100  1.2333 -0.2327  2.6842
 6664TIP3    H241552   0.065   6.202   0.024 -0.2157 -0.0530  0.2434
 6665TIP3   OH241553   4.997   2.464   0.701  0.0963 -0.2533  0.4313
 6665TIP3    H141554   5.007   2.448   0.607 -0.7340 -1.4728  0.5299
 6665TIP3    H241555   5.077   2.509   0.726  0.1634  0.4345 -0.9327
 6666TIP3   OH241556   2.283   3.695   8.429 -0.0039 -0.2825  0.0177
 6666TIP3    H141557   2.304   3.742   8.348  0.4481  0.8960  0.7761
 6666TIP3    H241558   2.222   3.753   8.475  2.0634  0.6026  1.8809
 6667TIP3   OH241559   4.404   6.756   2.376 -0.1403 -0.5326 -0.0705
 6667TIP3    H141560   4.474   6.786   2.318  0.1930  0.3591  0.7523
 6667TIP3    H241561   4.326   6.754   2.320  0.1979  0.1529 -0.5865
 6668TIP3   OH241562   3.020   5.661   8.626 -0.1488 -0.0706  0.1745
 6668TIP3    H141563   2.956   5.683   8.694  1.4273 -0.4243  1.8468
 6668TIP3    H241564   3.100   5.639   8.674  0.6431 -1.7003 -1.7459
 6669TIP3   OH241565   6.128   5.569   1.192 -0.0146 -0.0074  0.2183
 6669TIP3    H141566   6.175   5.635   1.242  0.6933 -0.7273  0.5320
 6669TIP3    H241567   6.153   5.585   1.101 -1.3534  1.3443  0.0526
 6670TIP3   OH241568   5.927   0.931   2.434 -0.2981  0.1255  0.0587
 6670TIP3    H141569   5.863   0.906   2.501 -0.7463  0.4414 -0.2462
 6670TIP3    H241570   5.878   0.985   2.372  0.0978 -0.2278 -0.5732
 6671TIP3   OH241571   3.101   2.813   2.221  0.2446 -0.6012  0.1174
 6671TIP3    H141572   3.088   2.886   2.160 -0.9116 -1.0482 -0.1936
 6671TIP3    H241573   3.069   2.736   2.173 -0.7230 -0.9554  1.2967
 6672TIP3   OH241574   4.095   4.630   2.150 -0.2294  0.4016  0.0801
 6672TIP3    H141575   4.181   4.664   2.177 -0.3688  1.3244 -0.5710
 6672TIP3    H241576   4.036   4.654   2.221  0.3082 -1.5956  1.2645
 6673TIP3   OH241577   1.587   3.448   3.144  0.0871  0.0453  0.3025
 6673TIP3    H141578   1.495   3.453   3.170 -0.1105 -0.6845 -0.2050
 6673TIP3    H241579   1.588   3.382   3.074  1.1122 -0.5001  0.8185
 6674TIP3   OH241580   1.495   0.217   2.271  0.1086 -0.2255  0.1249
 6674TIP3    H141581   1.530   0.140   2.317  0.5712 -0.4177 -0.5371
 6674TIP3    H241582   1.464   0.182   2.187  0.6123  0.3533 -0.3104
 6675TIP3   OH241583   3.603   5.294   2.244  0.0155  0.5088  0.0966
 6675TIP3    H141584   3.586   5.357   2.175 -1.7560  1.2922  1.1728
 6675TIP3    H241585   3.576   5.339   2.324  0.9078 -0.7900  1.1734
 6676TIP3   OH241586   3.865   2.684   0.699  0.2762 -0.4159 -0.6510
 6676TIP3    H141587   3.913   2.667   0.618  0.7942 -2.8645  0.0864
 6676TIP3    H241588   3.850   2.598   0.736 -1.5530  0.5413  0.9804
 6677TIP3   OH241589   0.140   0.762   1.221 -0.1705  0.1445  0.2269
 6677TIP3    H141590   0.054   0.787   1.188  0.3585  0.7772 -0.7252
 6677TIP3    H241591   0.189   0.737   1.143  0.7341  0.4918  0.6654
 6678TIP3   OH241592   6.790   4.245   2.483 -0.2598 -0.3699 -0.6322
 6678TIP3    H141593   6.863   4.190   2.510  1.0127  1.2662 -0.5978
 6678TIP3    H241594   6.712   4.190   2.497  0.7957 -1.5284  1.0600
 6679TIP3   OH241595   5.723   0.027   2.763 -0.2441  0.5166  0.2752
 6679TIP3    H141596   5.784  -0.046   2.769  0.5417  1.2578  1.9549
 6679TIP3    H241597   5.740   0.067   2.678  2.1248  1.1129  0.9741
 6680TIP3   OH241598   1.572   3.653   1.730 -0.6495  0.1017 -0.4152
 6680TIP3    H141599   1.483   3.686   1.739 -1.0046 -0.8391 -0.4007
 6680TIP3    H241600   1.586   3.648   1.636 -0.3140  0.9930 -0.4281
 6681TIP3   OH241601   4.200   1.453   0.698 -0.2214 -0.0628  0.5497
 6681TIP3    H141602   4.168   1.493   0.779  0.2516 -0.1201  0.7710
 6681TIP3    H241603   4.122   1.424   0.653 -0.4932 -0.0188  0.9839
 6682TIP3   OH241604   5.337   6.116   2.472 -0.6667 -0.0921 -0.0673
 6682TIP3    H141605   5.374   6.042   2.520 -0.6373  0.4219  0.7347
 6682TIP3    H241606   5.254   6.134   2.516 -0.2524  0.9112  0.3378
 6683TIP3   OH241607   1.247   5.812   2.085  0.2808 -0.0778 -0.0324
 6683TIP3    H141608   1.239   5.867   2.162 -1.1113 -1.0992  0.5960
 6683TIP3    H241609   1.340   5.792   2.079  0.1918 -1.8482  2.7804
 6684TIP3   OH241610   3.614   5.582   0.448  0.2015 -0.5212  0.2911
 6684TIP3    H141611   3.582   5.671   0.433  0.7165  0.2581  3.2739
 6684TIP3    H241612   3.703   5.582   0.412  0.6202  0.5664  1.2601
 6685TIP3   OH241613   3.957   1.782   2.618 -0.2065  0.2269  0.0739
 6685TIP3    H141614   4.040   1.784   2.570 -0.7760 -0.9015 -1.0212
 6685TIP3    H241615   3.905   1.852   2.578 -0.8290 -0.9731 -1.3163
 6686TIP3   OH241616   4.292   4.771   0.095 -0.1075  0.0506 -0.2368
 6686TIP3    H141617   4.252   4.854   0.067 -1.6267 -1.2788 -2.3015
 6686TIP3    H241618   4.218   4.715   0.116  0.8984 -0.9048  0.9164
 6687TIP3   OH241619   0.089   0.765   7.585 -0.3776  0.0062 -0.4025
 6687TIP3    H141620   0.027   0.710   7.633  0.0448 -0.6545 -0.6028
 6687TIP3    H241621   0.145   0.803   7.652 -0.0544 -0.5844 -0.3345
 6688TIP3   OH241622   2.588   5.163   0.021 -0.0469  0.0493 -0.0613
 6688TIP3    H141623   2.496   5.189   0.020 -0.1674 -0.3668 -0.0430
 6688TIP3    H241624   2.612   5.166   0.113 -0.0707  0.0625 -0.0553
 6689TIP3   OH241625   6.716   1.538   3.016  0.2406  0.3583 -0.0692
 6689TIP3    H141626   6.695   1.448   3.039 -0.2580  0.5207  0.1226
 6689TIP3    H241627   6.633   1.576   2.989  0.4610  0.7414 -0.2177
 6690TIP3   OH241628   4.862   6.407   8.007  0.1167 -0.2510 -0.3863
 6690TIP3    H141629   4.813   6.332   8.039  0.2607  0.2597  1.1160
 6690TIP3    H241630   4.799   6.456   7.954 -0.3254 -0.7928 -0.3709
 6691TIP3   OH241631   1.917   5.533   0.415 -0.0191 -0.3038 -0.0550
 6691TIP3    H141632   1.891   5.520   0.506  0.5241 -1.3601 -0.0307
 6691TIP3    H241633   1.984   5.466   0.399  0.7160  0.6010 -0.9022
 6692TIP3   OH241634   6.356   6.242   8.554  0.4646  0.0094  0.2012
 6692TIP3    H141635   6.301   6.319   8.571 -1.0839 -0.8414 -0.7192
 6692TIP3    H241636   6.445   6.273   8.568 -0.0438  2.2101 -0.9022
 6693TIP3   OH241637   0.275   6.436   8.101 -0.2946 -0.0781 -0.2094
 6693TIP3    H141638   0.311   6.503   8.042 -0.4947  0.3971  0.1985
 6693TIP3    H241639   0.250   6.485   8.180 -1.3019 -0.4959 -0.2647
 6694TIP3   OH241640   5.497   5.781   0.551 -0.1072  0.4093  0.2081
 6694TIP3    H141641   5.523   5.703   0.599  0.4586  0.5623  0.1595
 6694TIP3    H241642   5.574   5.805   0.500 -1.1194 -0.5266 -1.8623
 6695TIP3   OH241643   5.487   1.229   1.516  0.4045 -0.1454 -0.7773
 6695TIP3    H141644   5.482   1.138   1.487 -0.5602 -0.1040 -0.7692
 6695TIP3    H241645   5.474   1.280   1.436 -0.2422 -0.0225 -0.5973
 6696TIP3   OH241646   3.581   3.721   0.461  0.1769  0.2821  0.0785
 6696TIP3    H141647   3.604   3.629   0.470  0.0919  0.3383  0.9402
 6696TIP3    H241648   3.627   3.749   0.381  0.9271 -0.2746  0.3009
 6697TIP3   OH241649   2.978   2.668   8.533 -0.3442  0.1315  0.2245
 6697TIP3    H141650   2.889   2.666   8.568  0.0856  1.3916  1.4817
 6697TIP3    H241651   3.023   2.597   8.579 -0.5610 -0.1824 -0.0422
 6698TIP3   OH241652   2.737   3.765   2.270  0.2292 -0.1050  0.2025
 6698TIP3    H141653   2.801   3.819   2.316  0.1263 -0.1791  0.4316
 6698TIP3    H241654   2.746   3.678   2.309  1.0228 -0.4836 -0.7784
 6699TIP3   OH241655   6.086   6.021   2.388 -0.1497  0.4237  0.1331
 6699TIP3    H141656   6.011   6.055   2.436 -2.4403 -0.4984 -2.4828
 6699TIP3    H241657   6.117   5.948   2.441 -1.1364  0.7855  1.2689
 6700TIP3   OH241658   4.750   3.819   1.115  0.9590 -0.3076  0.1239
 6700TIP3    H141659   4.774   3.728   1.132  1.7790  0.1206  1.4111
 6700TIP3    H241660   4.764   3.864   1.198 -1.2547  0.6499  0.0584
 6701TIP3   OH241661   1.412   4.124   8.313  0.4191  0.1752  0.4344
 6701TIP3    H141662   1.324   4.126   8.276  0.2113  1.5591  0.9563
 6701TIP3    H241663   1.413   4.046   8.369  0.0557 -0.7273 -0.7701
 6702TIP3   OH241664   6.785   4.147   8.616  0.2241 -0.0280  0.0569
 6702TIP3    H141665   6.720   4.097   8.567  0.9591 -0.6372 -0.3025
 6702TIP3    H241666   6.868   4.125   8.576  0.5599  1.6711 -0.2854
 6703TIP3   OH241667   5.249   6.804   2.779 -0.6251 -0.7094  0.3348
 6703TIP3    H141668   5.338   6.816   2.813 -0.3385 -1.2342 -0.2150
 6703TIP3    H241669   5.206   6.888   2.795 -0.5537 -0.9676  2.1254
 6704TIP3   OH241670   4.852   2.529   8.440  0.3156 -0.5483  0.9631
 6704TIP3    H141671   4.893   2.448   8.409 -1.5067 -1.6330  1.2337
 6704TIP3    H241672   4.824   2.574   8.360 -2.3524 -2.2512  0.8038
 6705TIP3   OH241673   1.574   0.493   1.669  0.5420 -0.4392  0.2035
 6705TIP3    H141674   1.657   0.490   1.621  3.0765 -0.9191  4.1503
 6705TIP3    H241675   1.567   0.584   1.699 -2.8810  0.8548 -3.6118
 6706TIP3   OH241676   2.343   5.555   1.379 -0.1316  0.3040 -0.0310
 6706TIP3    H141677   2.265   5.544   1.324  0.3058  1.5600 -0.9284
 6706TIP3    H241678   2.321   5.627   1.437  0.5727  1.0780 -0.7040
 6707TIP3   OH241679   6.413   5.465   1.062 -0.1759  0.2201  0.6315
 6707TIP3    H141680   6.452   5.548   1.036 -1.0332  0.5785  0.4486
 6707TIP3    H241681   6.458   5.441   1.143  0.4793  0.5659  0.3747
 6708TIP3   OH241682   2.219   0.191   8.467  0.8908  0.0493  0.2333
 6708TIP3    H141683   2.184   0.194   8.556  1.4913  1.1972  0.4601
 6708TIP3    H241684   2.215   0.282   8.438 -2.3561 -0.6845 -2.1719
 6709TIP3   OH241685   1.282   1.328   0.958  0.1113 -0.5009  0.6869
 6709TIP3    H141686   1.247   1.418   0.960 -2.5623 -1.3522 -1.1924
 6709TIP3    H241687   1.330   1.324   0.876 -0.9552 -1.1118  0.0682
 6710TIP3   OH241688   5.677   1.674   1.079 -0.3772  0.6023  0.6836
 6710TIP3    H141689   5.583   1.689   1.068 -0.0503  1.1004 -2.5345
 6710TIP3    H241690   5.693   1.593   1.030  1.1209  1.6235 -0.6209
 6711TIP3   OH241691   3.598   6.002   2.909 -0.0794 -0.4231 -0.3902
 6711TIP3    H141692   3.689   6.029   2.906 -0.5654  1.3963  0.1552
 6711TIP3    H241693   3.599   5.917   2.953  1.1579  0.5478  1.5358
 6712TIP3   OH241694   1.838   6.809   1.263 -0.1932  0.3755  0.3528
 6712TIP3    H141695   1.860   6.858   1.184  0.4820  0.4600  0.5864
 6712TIP3    H241696   1.923   6.788   1.303 -0.4228 -1.4300 -0.0097
 6713TIP3   OH241697   2.838   4.773   1.978 -1.0264  0.3515 -0.6012
 6713TIP3    H141698   2.901   4.712   1.941  0.7297  1.8771 -0.2722
 6713TIP3    H241699   2.790   4.807   1.903 -0.6555  0.0309 -0.9874
 6714TIP3   OH241700   6.593   4.555   0.649  0.0652  0.1864  0.6534
 6714TIP3    H141701   6.652   4.481   0.636  1.2643  1.1687  0.3833
 6714TIP3    H241702   6.505   4.516   0.645  0.6697 -1.2805  0.9781
 6715TIP3   OH241703   4.885   6.254   2.763  0.2465 -0.5992  0.4746
 6715TIP3    H141704   4.800   6.247   2.809  0.8385 -0.9716  1.5559
 6715TIP3    H241705   4.863   6.246   2.671 -1.0030  0.1782  0.6817
 6716TIP3   OH241706   3.970   4.200   0.911  0.1380 -0.5880  0.3574
 6716TIP3    H141707   3.944   4.292   0.910  1.1296 -0.2476  2.0759
 6716TIP3    H241708   4.061   4.202   0.880  0.4977 -0.8401  1.3622
 6717TIP3   OH241709   3.028   4.245   1.691  0.2921  0.1987  0.2776
 6717TIP3    H141710   2.996   4.172   1.637 -1.0232  1.1389 -0.2543
 6717TIP3    H241711   3.124   4.241   1.681  0.1235  0.2959 -2.1131
 6718TIP3   OH241712   1.585   5.493   1.912 -0.6538  0.4985 -0.1701
 6718TIP3    H141713   1.494   5.524   1.907 -0.7502  0.0918 -1.7162
 6718TIP3    H241714   1.635   5.557   1.861 -0.0841  0.6658  0.5955
 6719TIP3   OH241715   1.797   4.166   1.440  0.3146  0.3001  0.0062
 6719TIP3    H141716   1.833   4.219   1.369 -0.0811  1.4955  0.6676
 6719TIP3    H241717   1.704   4.187   1.441  0.1484 -0.4015  0.2983
 6720TIP3   OH241718   4.834   4.778   2.714 -0.0010  0.3507 -0.4597
 6720TIP3    H141719   4.748   4.817   2.732 -0.1543  1.3895 -3.0513
 6720TIP3    H241720   4.864   4.822   2.634  3.5808  1.0213  1.0444
 6721TIP3   OH241721   1.698   2.019   8.598 -0.4439 -0.5625 -0.4195
 6721TIP3    H141722   1.637   2.048   8.530 -3.0680 -0.2150  1.9011
 6721TIP3    H241723   1.655   1.944   8.639  2.1256 -2.2197 -0.5199
 6722TIP3   OH241724   1.035   3.107   1.950 -0.3856 -0.2205  0.0937
 6722TIP3    H141725   1.087   3.033   1.919 -0.4136  0.5773 -2.0331
 6722TIP3    H241726   1.004   3.149   1.870 -0.9246  1.6987  1.2575
 6723TIP3   OH241727   6.636   3.922   8.591  0.3570 -0.7998  0.0457
 6723TIP3    H141728   6.705   3.859   8.571  1.7202  0.1852  1.3924
 6723TIP3    H241729   6.584   3.880   8.659 -0.5035 -1.6003 -1.0651
 6724TIP3   OH241730   6.030   4.924   2.291 -0.1772 -0.1254 -0.0322
 6724TIP3    H141731   6.016   4.850   2.233  1.1986  0.9999 -1.9014
 6724TIP3    H241732   6.122   4.918   2.316 -0.1608  0.6859  0.1544
 6725TIP3   OH241733   3.231   2.468   3.115 -0.3283 -0.3480 -0.6308
 6725TIP3    H141734   3.300   2.406   3.138  1.3010  1.1721 -1.2238
 6725TIP3    H241735   3.206   2.509   3.198  1.4197  0.9867 -0.7090
 6726TIP3   OH241736   1.232   1.595   1.317 -0.2784 -0.4114 -0.0406
 6726TIP3    H141737   1.224   1.687   1.344 -0.0185 -0.2597 -0.4750
 6726TIP3    H241738   1.173   1.586   1.243 -2.7985 -1.4163  1.9302
 6727TIP3   OH241739   4.069   6.381   2.909  0.2680 -0.3010  0.1887
 6727TIP3    H141740   4.090   6.457   2.854 -0.3701  0.4139  0.9025
 6727TIP3    H241741   3.975   6.389   2.925  0.2932 -0.9540  0.6964
 6728TIP3   OH241742   4.929   6.369   2.510  0.1320  0.5041 -0.0189
 6728TIP3    H141743   4.977   6.345   2.431  2.0422 -1.2178  1.5405
 6728TIP3    H241744   4.975   6.447   2.543 -0.2515  0.8294 -0.2438
 6729TIP3   OH241745   5.054   3.078   0.888 -0.3019  0.1763  0.3626
 6729TIP3    H141746   4.988   3.010   0.874 -0.6301  0.3059  1.2089
 6729TIP3    H241747   5.012   3.159   0.858  0.1312  0.0025 -0.7526
 6730TIP3   OH241748   4.641   3.958   3.350 -0.5033 -0.4778 -0.3144
 6730TIP3    H141749   4.695   3.886   3.383  0.8250  0.3953 -0.5191
 6730TIP3    H241750   4.558   3.948   3.396 -0.2105 -1.9073 -0.0492
 6731TIP3   OH241751   2.760   6.713   8.606  0.0998 -0.1590  0.0396
 6731TIP3    H141752   2.822   6.645   8.633 -1.6291 -1.9583 -0.3075
 6731TIP3    H241753   2.745   6.696   8.513 -0.7118  0.4107  0.0582
 6732TIP3   OH241754   5.071   3.352   0.592  0.9855 -0.0829  0.1968
 6732TIP3    H141755   5.037   3.359   0.503 -2.5149 -0.3336  1.3707
 6732TIP3    H241756   5.088   3.258   0.603  1.2163 -0.0813 -0.1047
 6733TIP3   OH241757   4.993   2.175   0.102 -0.1399 -0.4613 -0.4607
 6733TIP3    H141758   5.031   2.135   0.024 -0.8592 -1.2246 -0.4372
 6733TIP3    H241759   4.933   2.109   0.136  0.9108 -0.5230  1.3338
 6734TIP3   OH241760   5.951   1.319   1.849 -0.0359  0.0543  0.3300
 6734TIP3    H141761   5.878   1.269   1.813  0.4539 -0.6640  0.2995
 6734TIP3    H241762   6.022   1.306   1.785 -0.5990  2.8478 -1.0017
 6735TIP3   OH241763   3.842   3.627   0.052  0.4544 -0.3530  0.3675
 6735TIP3    H141764   3.890   3.622  -0.031  2.2928 -0.7372  1.4026
 6735TIP3    H241765   3.889   3.568   0.111 -2.8156 -2.7898  0.7999
 6736TIP3   OH241766   2.207   4.184   7.887 -0.4454 -0.6501  0.0799
 6736TIP3    H141767   2.261   4.247   7.839 -1.4357  0.3727  0.2755
 6736TIP3    H241768   2.226   4.202   7.979 -0.8594 -0.5223  0.1401
 6737TIP3   OH241769   5.254   0.240   0.295 -0.1025 -0.2438  0.1721
 6737TIP3    H141770   5.267   0.335   0.288 -2.4706  0.2917  1.7588
 6737TIP3    H241771   5.327   0.209   0.348  0.9736  0.5680 -0.7782
 6738TIP3   OH241772   1.920   2.667   1.571  0.4550 -0.1936  0.1927
 6738TIP3    H141773   1.867   2.680   1.492  2.3926  1.5222 -0.9445
 6738TIP3    H241774   1.860   2.685   1.643 -1.0241 -0.3793 -0.9387
 6739TIP3   OH241775   2.002   4.259   7.503  0.2573  0.2316 -0.2013
 6739TIP3    H141776   2.037   4.198   7.438 -0.2536 -1.1113  0.7495
 6739TIP3    H241777   1.908   4.263   7.483  0.1324 -0.0381  0.3293
 6740TIP3   OH241778   4.437   3.607   0.314 -0.4741 -0.4464 -0.4696
 6740TIP3    H141779   4.489   3.626   0.236 -1.2421 -0.9275 -1.1118
 6740TIP3    H241780   4.422   3.693   0.354  1.8861 -0.3967  0.4631
 6741TIP3   OH241781   6.818   0.322   0.246 -0.1219 -0.1757 -0.4706
 6741TIP3    H141782   6.796   0.267   0.171 -4.7720 -2.5145  2.1064
 6741TIP3    H241783   6.741   0.378   0.258  0.8567  0.8109  1.9356
 6742TIP3   OH241784   0.686   4.993   1.677  0.4156 -0.4228  0.1083
 6742TIP3    H141785   0.725   4.981   1.763 -0.1438 -1.2627  0.2562
 6742TIP3    H241786   0.642   4.910   1.658 -2.7115  0.9401  0.6835
 6743TIP3   OH241787   3.742   3.764   8.396 -0.0388  0.2749 -0.2225
 6743TIP3    H141788   3.804   3.695   8.374 -0.4067 -0.6639  1.5712
 6743TIP3    H241789   3.656   3.728   8.375 -0.1763  0.5386 -0.1217
 6744TIP3   OH241790   0.797   0.949   0.380  0.2087 -0.2765  0.2686
 6744TIP3    H141791   0.799   1.044   0.371  1.9230 -0.1215  1.7872
 6744TIP3    H241792   0.745   0.919   0.304 -0.8443  1.8613  0.0634
 6745TIP3   OH241793   3.995   2.967   8.168  0.3540 -0.1065  0.4467
 6745TIP3    H141794   3.997   2.989   8.075 -0.1132 -0.2355  0.4011
 6745TIP3    H241795   4.033   3.042   8.212  0.5892 -0.0506  0.1490
 6746TIP3   OH241796   0.874   0.178   3.110  0.2672 -0.2978 -0.3557
 6746TIP3    H141797   0.817   0.124   3.056  1.9041 -0.6929 -1.7865
 6746TIP3    H241798   0.959   0.132   3.108  1.0419  1.0257  0.4651
 6747TIP3   OH241799   5.508   2.220   1.063 -0.4707  0.2816 -0.0230
 6747TIP3    H141800   5.562   2.205   0.986 -1.1144  2.2342 -0.9413
 6747TIP3    H241801   5.439   2.154   1.057  0.1615 -0.3515 -0.4596
 6748TIP3   OH241802   0.079   2.758   2.518 -0.0874  0.3267  0.3745
 6748TIP3    H141803   0.114   2.836   2.475  0.1561  0.0289  0.0224
 6748TIP3    H241804   0.083   2.778   2.612  1.5003  0.1130  0.3761
 6749TIP3   OH241805   0.054   2.943   0.148  0.0110  0.0239  0.9091
 6749TIP3    H141806  -0.037   2.943   0.120  0.0516 -0.8995  0.7307
 6749TIP3    H241807   0.104   2.955   0.067  0.1817 -4.0016  0.1989
 6750TIP3   OH241808   5.073   2.278   8.335  0.3647  0.5002  0.1243
 6750TIP3    H141809   5.166   2.285   8.314  0.3739  0.7070  0.2274
 6750TIP3    H241810   5.028   2.304   8.254  0.3830 -0.7889 -0.3282
 6751TIP3   OH241811   0.448   2.980   0.119 -0.4451 -0.4008  0.0451
 6751TIP3    H141812   0.519   3.043   0.106  1.1786 -2.2681 -0.6250
 6751TIP3    H241813   0.422   2.992   0.211 -0.6397  1.6237 -0.2177
 6752TIP3   OH241814   5.963   3.087   1.854  0.1198 -0.3393 -0.3786
 6752TIP3    H141815   6.058   3.090   1.843  0.1137 -0.8046 -0.5672
 6752TIP3    H241816   5.946   3.001   1.893 -0.4535 -1.3643 -2.7108
 6753TIP3   OH241817   1.539   4.294   1.389 -0.5227  0.0728  0.2816
 6753TIP3    H141818   1.524   4.315   1.481 -0.7379 -1.1201  0.5400
 6753TIP3    H241819   1.519   4.374   1.342 -1.4896  0.3778  1.1813
 6754TIP3   OH241820   3.434   0.901   1.535 -0.3803 -0.5475  0.3923
 6754TIP3    H141821   3.449   0.990   1.503  3.5879 -0.9725  0.5837
 6754TIP3    H241822   3.350   0.906   1.580 -0.7474  2.8487 -0.3586
 6755TIP3   OH241823   1.860   1.042   8.545 -0.0057 -0.6727 -0.3129
 6755TIP3    H141824   1.907   0.968   8.506  0.6680  0.0498 -0.9213
 6755TIP3    H241825   1.777   1.046   8.496  0.2899 -0.5570 -0.8157
 6756TIP3   OH241826   1.619   3.414   2.440  0.3029  0.9085 -0.2039
 6756TIP3    H141827   1.537   3.417   2.391  0.0596  1.1491  0.2184
 6756TIP3    H241828   1.621   3.495   2.491 -0.0293  0.1278  1.1132
 6757TIP3   OH241829   4.288   2.390   8.261 -0.1701 -0.6631  0.0593
 6757TIP3    H141830   4.351   2.459   8.242 -1.2017  0.3083  0.0818
 6757TIP3    H241831   4.280   2.340   8.180 -2.5856  1.8539 -1.3999
 6758TIP3   OH241832   0.034   6.012   1.206 -0.0435 -0.1351 -0.4848
 6758TIP3    H141833   0.040   6.102   1.238  3.1636  0.2521 -1.7356
 6758TIP3    H241834   0.043   5.958   1.285  2.2811  0.7539 -0.0417
 6759TIP3   OH241835   3.216   1.731   7.737  0.1101  0.1388 -0.2941
 6759TIP3    H141836   3.122   1.746   7.736 -0.1596 -1.4668 -1.2025
 6759TIP3    H241837   3.251   1.791   7.670 -0.6123 -1.1876 -1.9202
 6760TIP3   OH241838   2.843   3.868   8.424  0.5436 -0.2624 -0.2597
 6760TIP3    H141839   2.782   3.815   8.475 -0.1651  1.0180  0.2603
 6760TIP3    H241840   2.790   3.940   8.390  1.6233  0.5024 -0.3661
 6761TIP3   OH241841   1.064   0.001   3.086 -0.1354 -0.1734 -0.6620
 6761TIP3    H141842   1.091  -0.073   3.032 -2.7503 -1.2887 -0.5774
 6761TIP3    H241843   1.062  -0.035   3.175 -1.2159  0.0340 -0.5947
 6762TIP3   OH241844   6.433   5.687   8.447 -0.0221  0.5380 -0.4051
 6762TIP3    H141845   6.459   5.610   8.497  1.0031  1.2237  0.1603
 6762TIP3    H241846   6.459   5.761   8.501  0.3161  1.2995 -1.5572
 6763TIP3   OH241847   1.916   1.433   0.409 -0.4218  0.2965  0.5254
 6763TIP3    H141848   1.963   1.355   0.437 -1.5921 -0.4589  0.4621
 6763TIP3    H241849   1.901   1.482   0.489 -1.6260 -0.6604  0.9239
 6764TIP3   OH241850   4.028   0.679   8.582 -0.1988 -0.2700 -0.2016
 6764TIP3    H141851   3.944   0.634   8.569  0.4350 -1.6851  0.3470
 6764TIP3    H241852   4.041   0.727   8.500 -0.8780 -1.1683 -0.8702
 6765TIP3   OH241853   0.777   2.754   1.737  0.3535 -0.0984  0.7944
 6765TIP3    H141854   0.819   2.670   1.756  0.3796 -0.2231  0.1878
 6765TIP3    H241855   0.683   2.734   1.737  0.2967  0.1224  1.8614
 6766TIP3   OH241856   4.942   5.575   2.283 -0.1671  0.7733  0.1495
 6766TIP3    H141857   4.987   5.514   2.224  1.1539 -0.0240  1.8935
 6766TIP3    H241858   4.871   5.611   2.230 -0.9946 -2.2275 -0.9890
 6767TIP3   OH241859   2.321   6.622   7.958  0.0881  0.0472 -0.2091
 6767TIP3    H141860   2.338   6.555   7.892 -0.7581  0.2260 -0.6173
 6767TIP3    H241861   2.226   6.636   7.955  0.0558  0.1979  0.9073
 6768TIP3   OH241862   4.372   6.285   0.494  0.0568  0.3165 -0.2888
 6768TIP3    H141863   4.399   6.274   0.585  0.0855  0.1957 -0.3115
 6768TIP3    H241864   4.300   6.348   0.498 -0.1200  0.1085 -0.1511
 6769TIP3   OH241865   5.016   4.970   0.207  0.3594  0.6284  0.4040
 6769TIP3    H141866   4.994   5.006   0.293  1.5654  2.2187  0.0879
 6769TIP3    H241867   5.088   5.025   0.175 -0.2021  0.2110 -1.7266
 6770TIP3   OH241868   2.451   3.773   8.672 -0.2454 -0.0899 -0.2366
 6770TIP3    H141869   2.372   3.733   8.634 -1.4199  0.9470  0.9980
 6770TIP3    H241870   2.465   3.724   8.754 -1.1308  1.3036  0.8040
 6771TIP3   OH241871   0.497   3.645   8.111  0.7473  0.0320  0.3743
 6771TIP3    H141872   0.509   3.701   8.034 -0.1965 -1.5029 -0.9515
 6771TIP3    H241873   0.571   3.584   8.108  0.6730 -0.0695  0.6447
 6772TIP3   OH241874   0.757   2.056   7.883  0.2296  0.3032 -0.5035
 6772TIP3    H141875   0.818   2.073   7.812  0.7504 -0.1306 -0.1666
 6772TIP3    H241876   0.782   2.118   7.952  1.2929 -0.9010  0.2245
 6773TIP3   OH241877   3.497   4.973   1.838 -0.0159 -0.2820  0.5887
 6773TIP3    H141878   3.462   5.046   1.786  1.3450  0.9410  1.3295
 6773TIP3    H241879   3.590   4.993   1.847  0.6651 -2.7615 -0.2202
 6774TIP3   OH241880   6.185   4.141   1.186  0.5383 -0.4821 -0.8354
 6774TIP3    H141881   6.109   4.086   1.166 -0.1518  0.7032 -1.6454
 6774TIP3    H241882   6.200   4.130   1.279  1.8963 -3.8292 -1.2982
 6775TIP3   OH241883   5.734   4.681   3.072 -0.1985 -0.0360 -0.4645
 6775TIP3    H141884   5.696   4.685   2.984  1.0215  1.3590 -0.9816
 6775TIP3    H241885   5.660   4.692   3.131 -0.6428  3.2783 -1.4274
 6776TIP3   OH241886   0.151   5.494   2.160 -0.2397 -0.1143  0.0412
 6776TIP3    H141887   0.097   5.491   2.240  0.6512 -0.7914  0.6374
 6776TIP3    H241888   0.157   5.588   2.140 -1.6743 -0.0242 -0.0821
 6777TIP3   OH241889   5.859   0.214   0.072 -0.2999 -0.1223  0.1565
 6777TIP3    H141890   5.954   0.221   0.066 -0.2992 -1.5258 -2.2871
 6777TIP3    H241891   5.840   0.234   0.164  2.3273  0.1724  0.7103
 6778TIP3   OH241892   4.132   3.514   2.404 -0.0976 -0.2792  0.3997
 6778TIP3    H141893   4.049   3.515   2.451  0.4245  0.4104  1.3459
 6778TIP3    H241894   4.197   3.489   2.470  0.5612  0.0659 -0.1037
 6779TIP3   OH241895   4.240   3.425   3.015  0.1622 -0.0058 -0.3554
 6779TIP3    H141896   4.153   3.464   3.021 -0.1431 -0.8129  0.5969
 6779TIP3    H241897   4.240   3.355   3.080  1.3188 -0.4132 -0.7698
 6780TIP3   OH241898   5.028   4.122   1.466  0.2785  0.3848  0.2542
 6780TIP3    H141899   5.085   4.063   1.514  0.5751  0.6606  0.2426
 6780TIP3    H241900   5.030   4.204   1.515 -2.4393 -0.4167  1.9675
 6781TIP3   OH241901   5.464   6.650   1.864  0.0080  0.5081  0.0027
 6781TIP3    H141902   5.416   6.667   1.945  0.7011  0.2977  0.4623
 6781TIP3    H241903   5.424   6.571   1.829  1.6057 -1.1390  1.6682
 6782TIP3   OH241904   1.176   0.947   0.785 -0.4064  0.5354 -1.0724
 6782TIP3    H141905   1.168   1.015   0.717  0.6508 -0.6578 -2.4500
 6782TIP3    H241906   1.203   0.869   0.737  0.1060 -0.4299  0.7238
 6783TIP3   OH241907   2.839   3.466   2.869 -0.2559  0.3350 -0.2667
 6783TIP3    H141908   2.802   3.504   2.949  1.9765  3.4567 -0.5282
 6783TIP3    H241909   2.766   3.467   2.807 -1.1347  1.1473  0.7253
 6784TIP3   OH241910   5.319   2.357   2.244 -0.1103  0.0408 -0.1490
 6784TIP3    H141911   5.334   2.374   2.151 -1.5706 -3.7386 -1.2592
 6784TIP3    H241912   5.406   2.343   2.281  0.5673  2.4738 -0.6027
 6785TIP3   OH241913   6.121   0.287   0.118 -0.7668  0.3947 -0.2052
 6785TIP3    H141914   6.157   0.260   0.203  1.8572  0.6940 -1.1208
 6785TIP3    H241915   6.110   0.382   0.125 -1.1969  0.3306  0.0093
 6786TIP3   OH241916   4.278   3.139   0.850  0.1857  0.1870  0.3895
 6786TIP3    H141917   4.257   3.173   0.763  1.8828 -0.8047 -0.4634
 6786TIP3    H241918   4.253   3.210   0.910 -2.3323  0.3622 -0.7201
 6787TIP3   OH241919   3.366   5.994   1.946  0.0274  0.2627  0.2150
 6787TIP3    H141920   3.276   6.004   1.916 -0.4766  0.7356  1.7831
 6787TIP3    H241921   3.404   6.081   1.935  0.7867 -0.2757 -1.8349
 6788TIP3   OH241922   3.489   0.564   8.574  0.4030 -0.0103 -0.0446
 6788TIP3    H141923   3.519   0.474   8.588  0.0293  0.0650  1.3802
 6788TIP3    H241924   3.398   0.555   8.548  0.4145 -0.0588 -0.0689
 6789TIP3   OH241925   5.970   2.052   2.066  0.0831  0.6376 -0.1647
 6789TIP3    H141926   6.032   2.029   2.136 -1.3497 -0.7209  0.7190
 6789TIP3    H241927   6.006   2.010   1.988 -0.6394 -1.7761  0.7224
 6790TIP3   OH241928   5.129   1.094   1.919 -0.4690  0.2985 -0.4012
 6790TIP3    H141929   5.170   1.081   1.834 -0.4828  0.4452 -0.4308
 6790TIP3    H241930   5.155   1.017   1.970 -0.1951  0.3667 -0.4338
 6791TIP3   OH241931   3.797   5.544   1.232 -0.4139  0.0304  0.3107
 6791TIP3    H141932   3.831   5.462   1.269  0.2102  0.6474  1.1345
 6791TIP3    H241933   3.861   5.610   1.258  0.0348  0.5094 -1.8565
 6792TIP3   OH241934   0.643   6.465   8.477 -0.2636 -0.2486 -0.7413
 6792TIP3    H141935   0.673   6.489   8.564  1.0098 -1.0331 -0.9482
 6792TIP3    H241936   0.646   6.369   8.475 -1.7107 -0.3180 -1.1610
 6793TIP3   OH241937   3.480   6.609   7.928 -0.5632  0.2599  0.1446
 6793TIP3    H141938   3.518   6.694   7.952 -2.4140  0.9481  0.8772
 6793TIP3    H241939   3.521   6.587   7.845  1.8740  0.5906  1.1794
 6794TIP3   OH241940   3.120   5.511   7.059 -0.3471 -0.0399  0.2462
 6794TIP3    H141941   3.102   5.577   7.126  0.6671  0.9122 -0.3746
 6794TIP3    H241942   3.120   5.428   7.106  0.8984  0.6507  1.5535
 6795TIP3   OH241943   5.249   3.812   2.617  0.2674  0.5255  0.7143
 6795TIP3    H141944   5.183   3.872   2.582 -0.1704  0.7194  1.8513
 6795TIP3    H241945   5.245   3.736   2.558  0.6853  1.4902 -0.6162
 6796TIP3   OH241946   5.428   0.229   8.017 -0.1991  0.3250  0.0828
 6796TIP3    H141947   5.406   0.165   8.084  0.5003 -1.0604 -0.9544
 6796TIP3    H241948   5.350   0.233   7.961 -0.1385  0.1663 -0.0130
 6797TIP3   OH241949   2.345   5.334   0.132 -0.2020  0.0864  0.1099
 6797TIP3    H141950   2.347   5.428   0.151  0.6743 -0.0301  0.6058
 6797TIP3    H241951   2.285   5.327   0.057  2.0651  1.4189 -1.9807
 6798TIP3   OH241952   3.131   2.055   3.698 -0.6453 -0.3538  0.1940
 6798TIP3    H141953   3.132   1.960   3.700 -3.0250 -0.4245  1.1582
 6798TIP3    H241954   3.063   2.077   3.634  0.9703  0.7639 -1.2181
 6799TIP3   OH241955   6.717   4.768   2.324 -0.6653  0.4251 -0.4029
 6799TIP3    H141956   6.703   4.760   2.230 -0.8810  0.6564 -0.3901
 6799TIP3    H241957   6.720   4.677   2.355  0.7774  0.3006 -0.8229
 6800TIP3   OH241958   3.822   4.472   7.176  0.5481  0.1466  0.8948
 6800TIP3    H141959   3.891   4.513   7.123  0.1435 -0.6698 -0.3040
 6800TIP3    H241960   3.858   4.387   7.200  0.7061  0.4859  1.9273
 6801TIP3   OH241961   4.343   6.764   1.854  0.2279 -0.1004 -0.0683
 6801TIP3    H141962   4.289   6.739   1.779 -0.6234 -1.1279  0.8516
 6801TIP3    H241963   4.373   6.852   1.834 -3.3642  1.3687  0.1573
 6802TIP3   OH241964   0.641   5.274   1.122  0.2261  0.1261 -0.4501
 6802TIP3    H141965   0.582   5.333   1.169  0.6217  1.4476 -1.5543
 6802TIP3    H241966   0.720   5.327   1.107  0.1773 -0.3105 -2.4231
 6803TIP3   OH241967   3.708   5.610   1.593  0.5145  0.0620  0.1126
 6803TIP3    H141968   3.766   5.686   1.599  1.1695 -0.2334 -1.8017
 6803TIP3    H241969   3.761   5.538   1.627  1.3932 -0.2212 -1.6951
 6804TIP3   OH241970   1.709   2.572   1.723 -0.1990  0.4752  0.4042
 6804TIP3    H141971   1.629   2.579   1.670 -1.0885  0.6845  1.7129
 6804TIP3    H241972   1.680   2.596   1.811  1.0202 -0.8073  1.1756
 6805TIP3   OH241973   5.243   2.623   0.677 -0.0349 -0.7336 -0.3403
 6805TIP3    H141974   5.224   2.715   0.657 -1.2076 -0.7543  0.5363
 6805TIP3    H241975   5.312   2.627   0.743  0.9976 -0.5518 -1.3953
 6806TIP3   OH241976   5.601   4.819   7.667 -0.0791  0.1184  0.1912
 6806TIP3    H141977   5.609   4.874   7.589  0.2005 -0.7442 -0.4045
 6806TIP3    H241978   5.652   4.864   7.734  1.7655 -0.3689 -0.8238
 6807TIP3   OH241979   0.373   5.196   1.147  0.3932 -0.5190 -0.1628
 6807TIP3    H141980   0.463   5.230   1.138  0.0128  0.5279 -0.0982
 6807TIP3    H241981   0.380   5.128   1.214  0.6962  1.2622  1.6829
 6808TIP3   OH241982   4.076   5.116   8.331 -0.0601  0.0574 -0.3898
 6808TIP3    H141983   4.034   5.131   8.415 -3.7322 -0.5816 -1.9027
 6808TIP3    H241984   4.074   5.021   8.320 -0.3388  0.1768 -1.4887
 6809TIP3   OH241985   2.902   5.928   7.609  0.3607 -0.7342  0.5524
 6809TIP3    H141986   2.918   6.021   7.625 -0.2085 -0.4425 -0.4705
 6809TIP3    H241987   2.950   5.909   7.528  1.3955 -1.6188  1.3452
 6810TIP3   OH241988   2.416   1.951   0.990 -0.7889  0.0780  0.2231
 6810TIP3    H141989   2.458   2.001   1.059 -1.3542 -0.9057  1.3330
 6810TIP3    H241990   2.355   2.012   0.949 -0.4935  0.6555  0.6336
 6811TIP3   OH241991   0.937   0.010   0.267 -0.3464  0.5110  0.5315
 6811TIP3    H141992   0.873   0.075   0.236 -0.1632  0.8955  0.9525
 6811TIP3    H241993   0.978   0.051   0.343  3.0265  1.8911 -1.7718
 6812TIP3   OH241994   3.927   4.902   7.677 -0.0101 -0.4169  0.6934
 6812TIP3    H141995   3.973   4.916   7.759  0.7615 -0.1593  0.2322
 6812TIP3    H241996   3.849   4.958   7.682  0.6706  0.5477  0.7491
 6813TIP3   OH241997   4.713   4.455   2.511 -0.2760 -0.6844  0.1529
 6813TIP3    H141998   4.665   4.537   2.497  1.5320  0.1614 -1.5115
 6813TIP3    H241999   4.703   4.407   2.429  1.5526 -0.5398 -0.1914
 6814TIP3   OH242000   4.175   0.064   0.113 -0.1273 -0.0947  0.1016
 6814TIP3    H142001   4.080   0.076   0.112 -0.0272  0.9428  0.8471
 6814TIP3    H242002   4.205   0.097   0.028 -0.2311  1.8237  0.7549
 6815TIP3   OH242003   2.532   6.082   2.129 -0.3517 -0.1008 -0.2702
 6815TIP3    H142004   2.472   6.150   2.159 -0.3238  0.5391 -1.5898
 6815TIP3    H242005   2.476   6.015   2.090 -0.2384  0.5071 -1.5233
 6816TIP3   OH242006   6.474   4.486   2.749 -0.6017 -0.2696  0.3220
 6816TIP3    H142007   6.456   4.408   2.697 -2.4315  0.2901  0.0187
 6816TIP3    H242008   6.464   4.559   2.687 -1.1820  0.3179  1.0816
 6817TIP3   OH242009   5.608   0.304   8.644 -0.2496 -0.3135 -0.1473
 6817TIP3    H142010   5.685   0.267   8.688 -0.3519  0.7505  0.9676
 6817TIP3    H242011   5.642   0.339   8.562  0.6190  0.7777  0.6415
 6818TIP3   OH242012   1.733   3.627   1.119  0.0901 -0.4957 -0.6318
 6818TIP3    H142013   1.695   3.541   1.102 -1.0688 -0.4349  1.3511
 6818TIP3    H242014   1.754   3.626   1.213  0.6350  1.1575 -0.6997
 6819TIP3   OH242015   5.017   6.189   8.196  0.2560 -0.1637  0.0174
 6819TIP3    H142016   4.998   6.281   8.178 -0.7391 -0.3156  0.2387
 6819TIP3    H242017   5.057   6.190   8.283  0.0837  0.0428  0.0950
 6820TIP3   OH242018   4.885   3.578   7.285  0.8772  0.0490  0.1038
 6820TIP3    H142019   4.840   3.654   7.248 -1.2075  0.0724  2.3531
 6820TIP3    H242020   4.930   3.613   7.363  0.7275 -0.8275  0.5919
 6821TIP3   OH242021   1.101   5.903   2.348 -0.1724 -0.0731  0.5544
 6821TIP3    H142022   1.145   5.984   2.324 -2.3694  0.6106 -1.5108
 6821TIP3    H242023   1.018   5.932   2.387 -0.8351 -1.3224  0.1151
 6822TIP3   OH242024   5.065   1.103   0.215 -0.0384 -0.2514  0.0067
 6822TIP3    H142025   5.149   1.059   0.224  0.0557  0.0995  0.9552
 6822TIP3    H242026   5.000   1.032   0.212  0.2795 -0.5214 -0.7307
 6823TIP3   OH242027   6.105   5.002   0.905 -0.0917 -0.0470  0.3461
 6823TIP3    H142028   6.128   5.010   0.997  2.0152 -1.4332  0.0293
 6823TIP3    H242029   6.010   5.002   0.903 -0.1975 -1.1724  2.6514
 6824TIP3   OH242030   4.738   6.422   1.192  0.1505  0.2192  0.3529
 6824TIP3    H142031   4.652   6.426   1.151 -0.9409  0.2478  2.5333
 6824TIP3    H242032   4.779   6.506   1.171 -0.7231  0.5912  0.1057
 6825TIP3   OH242033   2.118   3.321   2.548  0.0720 -0.3055 -0.8643
 6825TIP3    H142034   2.118   3.346   2.640 -1.5020 -0.2970 -0.8350
 6825TIP3    H242035   2.159   3.395   2.503 -1.3495  0.8120 -0.4042
 6826TIP3   OH242036   2.070   2.820   0.558 -0.3761  0.2867  0.0008
 6826TIP3    H142037   2.051   2.913   0.575  0.9007  0.4442  0.7045
 6826TIP3    H242038   1.999   2.791   0.501 -1.1042  1.5537  0.2201
 6827TIP3   OH242039   5.990   1.771   8.011  0.1646 -0.3798  0.0994
 6827TIP3    H142040   6.074   1.812   7.988  0.1236  0.7351  1.7765
 6827TIP3    H242041   6.015   1.696   8.065  0.0976 -0.2201  0.3533
 6828TIP3   OH242042   5.512   0.157   2.193  0.2784 -0.2402  0.1334
 6828TIP3    H142043   5.601   0.126   2.180 -0.2997 -1.1587 -2.1900
 6828TIP3    H242044   5.509   0.242   2.149  0.1756  0.1536  0.8734
 6829TIP3   OH242045   5.107   0.304   1.546  0.5031  0.3094 -0.0838
 6829TIP3    H142046   5.176   0.244   1.520 -0.7373 -1.4017  0.4234
 6829TIP3    H242047   5.025   0.256   1.531 -0.5964  2.2036 -0.5360
 6830TIP3   OH242048   3.120   4.360   8.597  0.1520 -0.3296 -0.1505
 6830TIP3    H142049   3.179   4.360   8.521 -1.1612  1.5080 -1.2434
 6830TIP3    H242050   3.056   4.292   8.577  0.1759 -0.2830 -0.3932
 6831TIP3   OH242051   5.312   2.004   2.697  0.4352  0.0033 -0.3535
 6831TIP3    H142052   5.226   2.045   2.707  0.2938 -0.7981  3.1144
 6831TIP3    H242053   5.293   1.911   2.686  0.8604 -0.0791 -0.3958
 6832TIP3   OH242054   4.184   4.655   8.495 -0.2385  0.5917 -0.0573
 6832TIP3    H142055   4.095   4.666   8.460 -0.6734 -1.7082  0.1808
 6832TIP3    H242056   4.222   4.585   8.442  1.4899  1.5623 -0.1790
 6833TIP3   OH242057   5.043   1.933   2.405 -0.4195  0.2810  0.4396
 6833TIP3    H142058   4.977   1.946   2.337 -2.0238 -0.6517  1.7288
 6833TIP3    H242059   5.081   1.847   2.386  0.5277  0.8500 -0.3460
 6834TIP3   OH242060   0.945   5.656   2.172  0.2878  0.1752 -0.2953
 6834TIP3    H142061   1.029   5.615   2.193 -0.4554 -2.1743 -1.5421
 6834TIP3    H242062   0.963   5.707   2.093  0.4670 -0.7494 -0.8734
 6835TIP3   OH242063   3.068   0.877   2.733 -0.1766 -0.4672 -0.4479
 6835TIP3    H142064   3.056   0.786   2.760  0.5229 -0.6297 -0.6662
 6835TIP3    H242065   2.988   0.898   2.684 -0.3997 -0.9209 -0.2921
 6836TIP3   OH242066   1.996   2.291   3.637 -0.9425  0.3937 -0.3404
 6836TIP3    H142067   1.950   2.264   3.557 -1.7125 -0.8338  0.4695
 6836TIP3    H242068   1.940   2.359   3.674 -0.8801  0.5598 -0.5453
 6837TIP3   OH242069   0.302   4.089   0.981  0.4304  0.0481  0.0421
 6837TIP3    H142070   0.260   4.050   1.058 -1.1256 -0.0249 -0.7999
 6837TIP3    H242071   0.313   4.181   1.004  0.1318 -0.0090  0.4208
 6838TIP3   OH242072   0.520   1.745   0.203  0.0997 -0.1972  0.5690
 6838TIP3    H142073   0.459   1.779   0.269  0.1397  2.2458 -0.5127
 6838TIP3    H242074   0.577   1.685   0.250 -0.8007  0.3529  2.4304
 6839TIP3   OH242075   1.027   5.398   0.487 -0.3381  0.0761  0.1502
 6839TIP3    H142076   1.003   5.390   0.579  0.0835  0.4477  0.2995
 6839TIP3    H242077   1.074   5.317   0.467  0.3240  0.3650  0.5055
 6840TIP3   OH242078   5.970   0.792   2.149 -0.0070  0.4334  0.0337
 6840TIP3    H142079   5.930   0.725   2.093  1.1613 -0.5835  0.3840
 6840TIP3    H242080   5.938   0.773   2.237  0.6049  0.1181  0.1889
 6841TIP3   OH242081   2.536   3.184   7.895  0.0631 -0.0972 -0.6346
 6841TIP3    H142082   2.517   3.106   7.842  1.6771 -0.1603 -1.1832
 6841TIP3    H242083   2.582   3.243   7.834  0.7829  0.3815  0.3545
 6842TIP3   OH242084   1.799   6.407   0.202  0.7526 -0.1483  0.0644
 6842TIP3    H142085   1.804   6.471   0.131  0.7766  0.3419  0.5075
 6842TIP3    H242086   1.774   6.458   0.279 -2.4352 -1.1127 -0.2085
 6843TIP3   OH242087   3.774   6.726   8.371  0.3699  0.0837 -0.0472
 6843TIP3    H142088   3.694   6.779   8.378  0.0215 -0.4303 -0.0964
 6843TIP3    H242089   3.827   6.771   8.305 -1.2183 -1.2351 -2.3534
 6844TIP3   OH242090   2.099   1.642   0.951  0.3335 -0.6137  0.5325
 6844TIP3    H142091   2.006   1.663   0.937  0.6287 -0.5474 -1.5934
 6844TIP3    H242092   2.101   1.546   0.953  0.3387 -0.6483 -0.5556
 6845TIP3   OH242093   4.985   5.501   7.690  0.1776  0.3642 -0.4872
 6845TIP3    H142094   5.044   5.536   7.624 -0.4702 -0.1557 -1.3826
 6845TIP3    H242095   4.898   5.512   7.652 -0.2003 -0.0772  0.2199
 6846TIP3   OH242096   0.828   3.630   7.875  0.0556 -0.2085 -0.7619
 6846TIP3    H142097   0.915   3.621   7.913 -0.5296  0.9764  1.0113
 6846TIP3    H242098   0.831   3.711   7.824 -0.2960  0.4854  0.2825
 6847TIP3   OH242099   0.723   6.681   0.826  0.1933 -0.1640  0.0818
 6847TIP3    H142100   0.776   6.717   0.897 -1.4783 -2.3822  2.6450
 6847TIP3    H242101   0.784   6.629   0.774  1.3046  0.8640  0.3134
 6848TIP3   OH242102   0.240   6.496   0.705  0.0371  0.7628 -0.0637
 6848TIP3    H142103   0.162   6.442   0.715 -0.0132  0.4564 -1.7568
 6848TIP3    H242104   0.313   6.436   0.717 -0.0175  0.1883 -2.1684
 6849TIP3   OH242105   6.683   3.219   1.529  0.1545 -0.1718  0.1270
 6849TIP3    H142106   6.617   3.149   1.522 -0.3451  0.3714 -1.0097
 6849TIP3    H242107   6.734   3.210   1.449 -0.8847  1.6771 -0.8092
 6850TIP3   OH242108   6.696   1.825   7.984 -0.0680 -0.0332  0.4379
 6850TIP3    H142109   6.740   1.828   8.069  1.3409 -0.5042 -0.2449
 6850TIP3    H242110   6.636   1.900   7.986  0.7303  0.6215  1.4246
 6851TIP3   OH242111   3.093   5.174   2.924 -0.3180  0.2403  0.2019
 6851TIP3    H142112   3.093   5.264   2.890 -0.8260 -0.1380 -0.8518
 6851TIP3    H242113   3.054   5.181   3.011 -0.6330  1.0038  0.0086
 6852TIP3   OH242114   4.332   0.312   0.375 -0.3200  0.5931  0.0218
 6852TIP3    H142115   4.277   0.359   0.313  1.1041  2.0203 -0.2551
 6852TIP3    H242116   4.357   0.379   0.440  1.5598  0.2107 -0.2358
 6853TIP3   OH242117   5.977   1.659   2.918  0.4994  0.2515 -0.6019
 6853TIP3    H142118   5.923   1.712   2.977  0.2439  0.1057 -0.7035
 6853TIP3    H242119   6.067   1.684   2.940  0.5037 -1.0626  1.0622
 6854TIP3   OH242120   6.512   2.866   2.769  0.3396  0.1103 -0.8236
 6854TIP3    H142121   6.421   2.859   2.740  0.2647  0.2561 -0.6278
 6854TIP3    H242122   6.527   2.789   2.823  0.3187  0.1125 -0.8149
 6855TIP3   OH242123   5.190   1.402   1.469  0.4899 -0.2942 -0.2089
 6855TIP3    H142124   5.262   1.342   1.488  0.2927  0.0748  1.9263
 6855TIP3    H242125   5.229   1.467   1.410  1.8398 -0.2707  0.6673
 6856TIP3   OH242126   2.916   4.022   2.616 -0.0613 -0.6568 -0.4966
 6856TIP3    H142127   3.002   4.061   2.636 -0.1300 -0.5806 -0.3502
 6856TIP3    H242128   2.917   4.012   2.521  0.8360 -2.3405 -0.3557
 6857TIP3   OH242129   3.641   3.915   1.647  0.7380  0.7174 -0.2569
 6857TIP3    H142130   3.606   3.922   1.558  0.0599 -0.7281 -0.1297
 6857TIP3    H242131   3.735   3.904   1.634  0.5691 -0.1993 -0.8578
 6858TIP3   OH242132   5.461   0.432   7.364 -0.1256 -0.1605  0.7533
 6858TIP3    H142133   5.555   0.435   7.382  0.3256  0.6746 -1.3398
 6858TIP3    H242134   5.424   0.506   7.412  0.5583  0.3914  0.4504
 6859TIP3   OH242135   4.329   3.662   1.049 -0.2325  0.5561 -0.0729
 6859TIP3    H142136   4.271   3.734   1.025  2.0419  2.9992  1.2653
 6859TIP3    H242137   4.384   3.648   0.972 -0.3962  0.5073 -0.1826
 6860TIP3   OH242138   1.353   0.087   7.330  0.2125 -0.9653 -0.2297
 6860TIP3    H142139   1.371   0.170   7.375 -0.2666 -1.9071  1.8662
 6860TIP3    H242140   1.269   0.101   7.287 -0.1620 -0.5087  0.6051
 6861TIP3   OH242141   2.607   4.550   0.332 -0.5431 -0.1795 -0.5271
 6861TIP3    H142142   2.664   4.627   0.333 -1.3093  0.4084  1.0931
 6861TIP3    H242143   2.526   4.580   0.374 -1.7564 -1.2205 -2.0633
 6862TIP3   OH242144   2.760   1.454   0.111  0.1273  0.1460  0.2483
 6862TIP3    H142145   2.680   1.497   0.080 -0.3224 -0.5849  0.3590
 6862TIP3    H242146   2.755   1.461   0.206  1.0721  1.6231  0.2088
 6863TIP3   OH242147   3.325   3.665   0.312  0.2685  0.6571 -0.3975
 6863TIP3    H142148   3.326   3.579   0.354 -0.8572 -0.1157 -1.8778
 6863TIP3    H242149   3.410   3.670   0.267 -0.6495 -0.8862 -2.5077
 6864TIP3   OH242150   1.998   0.715   2.781 -0.4969 -0.4498 -0.0962
 6864TIP3    H142151   1.924   0.656   2.783 -1.4878  0.7690  0.8493
 6864TIP3    H242152   1.964   0.795   2.740  0.0697  0.3829  1.0005
 6865TIP3   OH242153   4.704   6.651   1.991  0.2921 -0.0098  0.0237
 6865TIP3    H142154   4.732   6.596   2.063 -1.8432  0.0640  0.9828
 6865TIP3    H242155   4.638   6.710   2.029 -1.0356 -0.0798 -1.9661
 6866TIP3   OH242156   3.301   4.689   0.940  0.3474  0.2530  0.2056
 6866TIP3    H142157   3.257   4.604   0.949 -0.7232  0.3675 -2.7947
 6866TIP3    H242158   3.394   4.670   0.952  0.0826 -1.2443  0.0213
 6867TIP3   OH242159   0.853   5.983   7.132 -0.0291 -0.4824 -0.9582
 6867TIP3    H142160   0.814   6.065   7.101 -0.8508 -1.3305 -2.3286
 6867TIP3    H242161   0.783   5.941   7.181  0.8872  0.2966  1.1007
 6868TIP3   OH242162   4.509   4.401   7.358  0.7837  0.2713 -0.2023
 6868TIP3    H142163   4.441   4.342   7.390  0.6819  0.6257  0.2449
 6868TIP3    H242164   4.584   4.344   7.342 -0.0530 -0.3602 -2.1295
 6869TIP3   OH242165   3.496   4.281   0.101 -0.2487 -0.6147 -0.6063
 6869TIP3    H142166   3.524   4.373   0.099 -2.4300  0.2285  1.9117
 6869TIP3    H242167   3.574   4.234   0.131  0.2420  0.8028  0.4901
 6870TIP3   OH242168   6.289   5.549   2.863  0.0662  0.2607  0.6615
 6870TIP3    H142169   6.279   5.467   2.816  2.7914 -0.6335  1.4622
 6870TIP3    H242170   6.376   5.544   2.902 -0.5580  2.5962  2.5944
 6871TIP3   OH242171   4.668   2.879   8.406  0.0443  0.7477  0.0595
 6871TIP3    H142172   4.751   2.924   8.391 -0.6802  1.8131 -0.9058
 6871TIP3    H242173   4.612   2.945   8.445 -0.6977  0.3799 -0.3635
 6872TIP3   OH242174   3.460   6.227   3.007  0.0079  0.0425 -0.5098
 6872TIP3    H142175   3.484   6.164   3.075 -0.6719  0.2119 -0.0938
 6872TIP3    H242176   3.525   6.215   2.938 -0.6574 -1.8049 -0.8772
 6873TIP3   OH242177   5.114   6.597   2.092  0.4751  0.3351  0.5009
 6873TIP3    H142178   5.020   6.581   2.093  0.6333 -0.6303  1.9700
 6873TIP3    H242179   5.122   6.692   2.090 -0.4871  0.4851 -2.7038
 6874TIP3   OH242180   1.290   6.336   7.313 -0.2457 -0.4020 -0.9461
 6874TIP3    H142181   1.369   6.380   7.282 -1.4788  2.0983 -0.7827
 6874TIP3    H242182   1.256   6.291   7.235  1.5571 -2.0207 -0.8908
 6875TIP3   OH242183   5.042   6.389   7.799  0.6984 -0.0937  0.0621
 6875TIP3    H142184   4.990   6.394   7.879  2.1955 -0.6064  1.1182
 6875TIP3    H242185   5.064   6.297   7.790  0.8273  0.0098 -0.7629
 6876TIP3   OH242186   2.424   2.383   0.240 -0.2291 -0.2126 -0.0028
 6876TIP3    H142187   2.386   2.464   0.273 -1.2954 -0.6287 -0.1864
 6876TIP3    H242188   2.408   2.385   0.146  0.2213 -0.3865 -0.0878
 6877TIP3   OH242189   2.071   6.320   2.718  0.5898 -0.1080 -0.0275
 6877TIP3    H142190   2.149   6.366   2.689 -0.2533  0.6619 -1.1503
 6877TIP3    H242191   2.055   6.353   2.806  2.0107 -0.9304  0.5622
 6878TIP3   OH242192   2.635   5.059   7.803  0.4897 -0.1628  0.0093
 6878TIP3    H142193   2.625   5.118   7.877 -0.4137 -0.4822  0.1467
 6878TIP3    H242194   2.687   5.108   7.740 -0.8740  1.0814 -0.1930
 6879TIP3   OH242195   3.034   2.372   2.242  0.0591 -0.1017  0.3338
 6879TIP3    H142196   3.125   2.368   2.213  0.2350  0.7544  0.7081
 6879TIP3    H242197   3.040   2.400   2.334 -0.5104 -1.9829  0.9849
 6880TIP3   OH242198   4.445   1.079   1.477 -0.2786  0.0623 -0.1475
 6880TIP3    H142199   4.381   1.110   1.412  0.7051  1.1592 -0.6315
 6880TIP3    H242200   4.530   1.106   1.442  0.4587 -1.2286  0.5604
 6881TIP3   OH242201   5.927   2.462   1.015 -0.2677 -0.6632  0.2847
 6881TIP3    H142202   6.011   2.489   0.978 -0.4951  0.1323  0.3424
 6881TIP3    H242203   5.917   2.371   0.985  0.8966 -0.9896  0.8001
 6882TIP3   OH242204   5.486   4.205   0.287 -0.0491  0.0806 -0.2476
 6882TIP3    H142205   5.434   4.128   0.312 -0.9768  0.5446 -0.7183
 6882TIP3    H242206   5.573   4.169   0.266  0.1765 -0.5788  1.6113
 6883TIP3   OH242207   1.490   6.719   0.764 -0.4831  0.1196  0.4767
 6883TIP3    H142208   1.486   6.633   0.721 -1.5230 -0.2386  1.2301
 6883TIP3    H242209   1.572   6.718   0.813  1.2546  0.9286 -2.2035
 6884TIP3   OH242210   1.355   2.356   0.693  0.1756  0.5149 -0.6861
 6884TIP3    H142211   1.435   2.407   0.684  0.8584 -0.4417 -0.2600
 6884TIP3    H242212   1.315   2.388   0.774  0.0897  1.0529 -0.9426
 6885TIP3   OH242213   5.096   0.001   2.090  0.3954  0.3744  0.0426
 6885TIP3    H142214   5.016   0.028   2.134  0.0847 -0.0566 -0.2528
 6885TIP3    H242215   5.095   0.048   2.006  1.2578  1.6250  0.6934
 6886TIP3   OH242216   0.169   0.754   8.495 -0.1416  0.0659  0.1066
 6886TIP3    H142217   0.147   0.820   8.430 -1.0312  0.9424  1.2643
 6886TIP3    H242218   0.264   0.758   8.502 -0.0112 -0.1692 -1.2409
 6887TIP3   OH242219   0.835   1.536   0.143 -0.6902 -0.0202 -0.4723
 6887TIP3    H142220   0.832   1.449   0.102 -2.1811  0.1903 -0.8682
 6887TIP3    H242221   0.783   1.526   0.222 -0.7365  0.4729 -0.4418
 6888TIP3   OH242222   3.534   1.715   0.811  0.5834 -0.7088 -0.3586
 6888TIP3    H142223   3.505   1.667   0.734 -1.1189 -0.1327 -0.1169
 6888TIP3    H242224   3.478   1.684   0.882  1.5659 -0.6315  0.4843
 6889TIP3   OH242225   4.677   6.787   0.780  0.1201 -0.6749 -0.6471
 6889TIP3    H142226   4.666   6.864   0.836  1.3874  0.7744 -2.2605
 6889TIP3    H242227   4.661   6.712   0.838 -2.1376  0.7738  0.7554
 6890TIP3   OH242228   2.137   6.655   8.349  0.4519  0.3874  0.4350
 6890TIP3    H142229   2.113   6.564   8.332  0.0379  0.6184 -0.2387
 6890TIP3    H242230   2.164   6.690   8.264  0.3653  0.9631  0.6355
 6891TIP3   OH242231   5.883   4.908   1.312 -0.0164 -0.1113  0.8149
 6891TIP3    H142232   5.865   4.979   1.250  3.2504  2.2507  2.2980
 6891TIP3    H242233   5.906   4.833   1.257 -0.7965  0.7714 -0.7876
 6892TIP3   OH242234   1.892   0.690   2.046 -0.1003  0.4270  0.5801
 6892TIP3    H142235   1.964   0.645   2.091 -0.2543 -0.2449  0.1675
 6892TIP3    H242236   1.930   0.723   1.965 -0.8722 -2.5590 -1.1649
 6893TIP3   OH242237   0.714   2.568   8.680 -0.1458 -0.3372  0.2256
 6893TIP3    H142238   0.698   2.557   8.586 -1.3739 -0.7882  0.4714
 6893TIP3    H242239   0.789   2.511   8.699  0.2723 -0.0427 -0.5248
 6894TIP3   OH242240   6.430   0.987   2.508  0.1410  0.2872  0.1629
 6894TIP3    H142241   6.515   0.970   2.468 -0.6219 -0.4593 -1.2256
 6894TIP3    H242242   6.412   1.079   2.489  0.0519  0.0933 -0.7368
 6895TIP3   OH242243   1.148   0.389   2.816 -0.5595  0.4627 -0.0688
 6895TIP3    H142244   1.207   0.462   2.835  1.3873 -0.8793 -0.7133
 6895TIP3    H242245   1.127   0.398   2.723 -0.7595  0.5030 -0.0206
 6896TIP3   OH242246   4.654   6.477   7.826  0.2827  0.2229 -0.3819
 6896TIP3    H142247   4.651   6.396   7.776  1.0260  1.0982 -1.9462
 6896TIP3    H242248   4.699   6.539   7.767  4.1329  0.5447  2.4843
 6897TIP3   OH242249   1.999   3.973   2.689  0.7341 -0.3984  0.1442
 6897TIP3    H142250   1.923   3.957   2.744 -1.4346  0.1504 -2.4859
 6897TIP3    H242251   2.041   4.050   2.728  0.6351 -1.3381  2.2365
 6898TIP3   OH242252   1.618   2.720   2.577 -0.1539 -0.0144  0.3239
 6898TIP3    H142253   1.656   2.785   2.635  2.0814 -0.3803 -0.6299
 6898TIP3    H242254   1.641   2.636   2.617  0.8347 -0.2555 -0.7156
 6899TIP3   OH242255   1.459   0.015   1.761  0.5192 -0.0960 -0.3069
 6899TIP3    H142256   1.468   0.108   1.780  0.5293  0.1847 -1.6124
 6899TIP3    H242257   1.509   0.001   1.681  0.6173 -1.2580 -0.0712
 6900TIP3   OH242258   1.562   0.575   1.346  0.0644  0.0378 -0.1979
 6900TIP3    H142259   1.624   0.502   1.350 -0.5447 -0.5643 -1.1453
 6900TIP3    H242260   1.540   0.594   1.437 -1.3148 -2.3419  0.0679
 6901TIP3   OH242261   3.854   0.766   3.634  0.1140 -0.2892  0.0654
 6901TIP3    H142262   3.766   0.805   3.635 -0.1753 -0.6947 -2.4495
 6901TIP3    H242263   3.844   0.688   3.580  2.3007  0.4264 -1.4809
 6902TIP3   OH242264   0.501   0.739   0.539 -0.1388 -0.1133 -0.0365
 6902TIP3    H142265   0.559   0.680   0.489 -2.2840 -2.2954 -0.1672
 6902TIP3    H242266   0.558   0.810   0.568  2.4477 -1.7941 -0.6421
 6903TIP3   OH242267   6.333   2.704   2.605 -0.2336  0.5810  0.3140
 6903TIP3    H142268   6.251   2.721   2.650 -0.4079 -0.3943  0.3803
 6903TIP3    H242269   6.316   2.627   2.552  0.7102  0.1963  0.5458
 6904TIP3   OH242270   0.848   0.498   0.253 -0.8319 -0.2334 -0.2216
 6904TIP3    H142271   0.870   0.585   0.219 -0.7602  0.2675  1.0484
 6904TIP3    H242272   0.930   0.465   0.290 -0.8297 -0.9062 -0.8059
 6905TIP3   OH242273   4.837   4.517   7.814 -0.1288 -0.9086  0.7446
 6905TIP3    H142274   4.754   4.527   7.768 -0.3428  0.2098  1.3539
 6905TIP3    H242275   4.903   4.542   7.749 -0.4522  1.0596  1.1326
 6906TIP3   OH242276   4.920   3.467   1.327 -0.5804  0.6025  0.4876
 6906TIP3    H142277   4.984   3.485   1.396  1.2082  2.0504 -1.4446
 6906TIP3    H242278   4.953   3.389   1.282 -2.1634 -0.8224  1.6543
 6907TIP3   OH242279   3.917   1.500   0.660 -0.4355  0.1630 -0.8157
 6907TIP3    H142280   3.896   1.536   0.746 -0.3611  0.1607 -0.7961
 6907TIP3    H242281   3.835   1.504   0.611 -0.8676 -1.2480 -0.2518
 6908TIP3   OH242282   5.555   0.226   0.235  0.2877 -0.0459  0.0391
 6908TIP3    H142283   5.584   0.307   0.278 -2.0132  1.2377 -0.6732
 6908TIP3    H242284   5.615   0.159   0.269  0.9063  1.5449  2.3596
 6909TIP3   OH242285   4.653   5.964   7.592 -0.2491 -0.4917 -0.4118
 6909TIP3    H142286   4.588   5.893   7.585 -0.8366  0.0752 -0.7700
 6909TIP3    H242287   4.655   6.003   7.505  1.1702 -0.9999 -0.6485
 6910TIP3   OH242288   5.686   4.914   8.209 -0.0630  0.0760  0.1236
 6910TIP3    H142289   5.696   4.992   8.155 -0.0436  0.3647  0.5390
 6910TIP3    H242290   5.630   4.856   8.158 -1.4175  1.0072  0.4917
 6911TIP3   OH242291   4.417   5.085   1.274 -0.1672  0.0749  0.0941
 6911TIP3    H142292   4.446   5.107   1.363  0.1515 -0.5166  0.1400
 6911TIP3    H242293   4.455   5.154   1.219 -1.3169  1.1058  0.5489
 6912TIP3   OH242294   3.990   4.805   1.282 -0.2967  0.9514  0.4890
 6912TIP3    H142295   4.048   4.872   1.247  1.7785 -0.4671  1.0049
 6912TIP3    H242296   4.046   4.755   1.342 -2.0664 -0.5218  0.9783
 6913TIP3   OH242297   6.524   4.168   2.620  0.1067  0.2547  0.1976
 6913TIP3    H142298   6.596   4.175   2.682 -0.2220 -1.0839  0.7494
 6913TIP3    H242299   6.451   4.134   2.671 -0.1397 -0.9762 -0.9124
 6914TIP3   OH242300   3.004   2.083   2.214 -0.3297 -0.2819  0.0943
 6914TIP3    H142301   3.004   2.178   2.211  1.9200 -0.1952  1.2583
 6914TIP3    H242302   2.994   2.062   2.307 -0.0951 -1.1712 -0.0721
 6915TIP3   OH242303   6.152   5.257   1.599  0.1671  0.0005  0.3827
 6915TIP3    H142304   6.106   5.235   1.680  1.8197  0.2654  1.4186
 6915TIP3    H242305   6.091   5.231   1.530 -2.0695  1.4709  1.6832
 6916TIP3   OH242306   4.481   5.243   2.234 -0.1932 -0.2348  0.4709
 6916TIP3    H142307   4.394   5.232   2.273 -0.9595 -0.3175 -1.1781
 6916TIP3    H242308   4.515   5.323   2.274 -0.6426 -0.6854  1.7980
 6917TIP3   OH242309   3.445   1.410   0.851  0.5213  0.9735 -0.2704
 6917TIP3    H142310   3.489   1.389   0.769 -0.3354  2.3662 -1.1310
 6917TIP3    H242311   3.361   1.364   0.846  0.5078  0.9804 -0.1263
 6918TIP3   OH242312   5.920   1.474   0.600 -0.4020 -0.4738 -0.2538
 6918TIP3    H142313   5.936   1.559   0.640  0.6163 -0.7038 -0.1353
 6918TIP3    H242314   5.943   1.411   0.669  3.5248 -0.9576 -1.7259
 6919TIP3   OH242315   5.072   2.699   8.598 -0.4035  0.1171 -0.0702
 6919TIP3    H142316   5.018   2.708   8.520 -2.4183  0.6663  1.3179
 6919TIP3    H242317   5.026   2.636   8.653  2.1538 -2.0531 -0.1916
 6920TIP3   OH242318   6.002   4.742   6.993  0.1954 -0.6221  0.3247
 6920TIP3    H142319   5.935   4.724   7.060  0.2275  0.0301  0.5376
 6920TIP3    H242320   5.972   4.695   6.916 -2.0258  1.8573 -0.4747
 6921TIP3   OH242321   1.574   6.145   7.345  0.0180  0.0558  0.0225
 6921TIP3    H142322   1.561   6.214   7.280 -0.1864 -0.7787 -0.8581
 6921TIP3    H242323   1.633   6.083   7.302  0.6770 -0.0176  1.0309
 6922TIP3   OH242324   3.359   3.643   7.545  0.0976 -0.0205  0.0994
 6922TIP3    H142325   3.440   3.655   7.497 -0.4833  0.1835 -0.8610
 6922TIP3    H242326   3.293   3.627   7.477 -0.4723 -1.2940  0.9117
 6923TIP3   OH242327   5.012   1.613   0.656 -0.8838  0.4879 -0.4006
 6923TIP3    H142328   5.077   1.606   0.587 -1.2828  1.9770 -0.9639
 6923TIP3    H242329   4.979   1.524   0.668  0.9061 -0.2077 -0.4206
 6924TIP3   OH242330   4.334   4.443   1.472 -0.6652 -0.0062 -0.2712
 6924TIP3    H142331   4.285   4.375   1.518  0.1769 -2.0573 -2.1865
 6924TIP3    H242332   4.425   4.416   1.479 -0.1674  1.6323 -0.0384
 6925TIP3   OH242333   0.002   2.740   1.679 -0.4924  0.4041 -0.0549
 6925TIP3    H142334  -0.003   2.818   1.734 -0.1341  0.1747  0.3125
 6925TIP3    H242335   0.002   2.667   1.741  1.5144  0.1754 -0.2328
 6926TIP3   OH242336   5.263   0.653   7.481 -0.2361  0.2542 -0.4174
 6926TIP3    H142337   5.215   0.694   7.410 -1.6947 -1.3723 -0.4439
 6926TIP3    H242338   5.203   0.587   7.515  1.5449 -1.0488  0.3513
 6927TIP3   OH242339   5.181   1.843   1.646  0.2531 -0.1708  0.9874
 6927TIP3    H142340   5.221   1.845   1.559  0.7788  1.7368  1.2423
 6927TIP3    H242341   5.255   1.839   1.707 -0.1186 -1.7528  1.3730
 6928TIP3   OH242342   2.885   6.256   1.814 -0.0787 -0.4953 -0.4602
 6928TIP3    H142343   2.881   6.287   1.904  0.1406 -0.3366 -0.5037
 6928TIP3    H242344   2.803   6.209   1.800 -2.0743  2.9466 -1.4832
 6929TIP3   OH242345   6.263   0.309   1.531  0.4353 -0.0038  0.5976
 6929TIP3    H142346   6.179   0.356   1.530  1.0413  1.1080  0.7546
 6929TIP3    H242347   6.241   0.223   1.565 -0.6958  0.1767  0.3821
 6930TIP3   OH242348   6.235   0.881   7.615  0.3955  0.1722  0.2134
 6930TIP3    H142349   6.314   0.933   7.604 -0.0063  0.7103 -0.2046
 6930TIP3    H242350   6.180   0.933   7.675 -0.4426  0.7632 -1.0224
 6931TIP3   OH242351   5.285   1.638   0.277  0.8009 -0.1918  0.0982
 6931TIP3    H142352   5.311   1.545   0.280  1.3524 -0.0165  1.3235
 6931TIP3    H242353   5.221   1.647   0.347 -0.4560  0.0365 -1.0371
 6932TIP3   OH242354   2.285   1.618   8.560 -0.1207  0.3290 -0.3490
 6932TIP3    H142355   2.349   1.582   8.621  1.1202  0.6876 -1.3877
 6932TIP3    H242356   2.337   1.671   8.499 -1.4645  1.0051 -0.9584
 6933TIP3   OH242357   4.688   2.660   7.787 -0.0050 -0.0749  0.0791
 6933TIP3    H142358   4.640   2.721   7.731 -1.0474 -0.7815  0.1639
 6933TIP3    H242359   4.654   2.574   7.763  1.0033 -0.5680  0.3865
 6934TIP3   OH242360   3.842   4.811   7.213  0.1500  0.3855 -0.1914
 6934TIP3    H142361   3.792   4.882   7.173  1.3114  2.0271  1.1052
 6934TIP3    H242362   3.928   4.816   7.171 -0.5196 -2.0856 -2.0498
 6935TIP3   OH242363   1.350   6.138   2.891 -0.1464  0.3621 -0.4992
 6935TIP3    H142364   1.367   6.156   2.799  2.1478 -0.8397 -0.3707
 6935TIP3    H242365   1.312   6.050   2.891  0.8861 -0.1002 -0.2595
 6936TIP3   OH242366   4.350   1.405   8.289 -0.3064  0.0803 -0.2933
 6936TIP3    H142367   4.443   1.396   8.311 -0.2710 -1.8676 -0.9744
 6936TIP3    H242368   4.308   1.426   8.372  0.8638  2.4313 -0.2224
 6937TIP3   OH242369   0.960   1.302   1.304 -0.0403 -0.0981 -0.2081
 6937TIP3    H142370   1.042   1.261   1.333 -0.1226  0.9310  1.6655
 6937TIP3    H242371   0.983   1.394   1.290 -0.5310 -0.1300 -1.3234
 6938TIP3   OH242372   4.307   2.206   8.055 -0.0685  0.1688 -0.8710
 6938TIP3    H142373   4.260   2.194   7.972 -1.4473 -2.2043  0.1304
 6938TIP3    H242374   4.396   2.229   8.030 -0.8703  1.2339 -2.9512
 6939TIP3   OH242375   4.503   5.068   0.856 -0.0314 -0.0855  0.0267
 6939TIP3    H142376   4.478   4.976   0.845 -1.2910  0.1515  0.6798
 6939TIP3    H242377   4.495   5.105   0.768  0.0506 -0.5026 -0.1585
 6940TIP3   OH242378   2.547   2.040   2.162  0.5517  0.5190 -0.1628
 6940TIP3    H142379   2.626   1.987   2.157  0.8473  1.0010 -0.8268
 6940TIP3    H242380   2.482   1.990   2.113  0.0876 -0.4536  1.3941
 6941TIP3   OH242381   2.650   6.575   7.438  0.2877 -0.3002 -0.0769
 6941TIP3    H142382   2.655   6.640   7.507  1.4533 -0.6211  0.1592
 6941TIP3    H242383   2.564   6.534   7.449  0.1516  0.1830  0.6903
 6942TIP3   OH242384   0.531   0.259   1.040  0.0224  0.3406  0.6110
 6942TIP3    H142385   0.531   0.225   1.130 -0.5934  0.4537  0.6579
 6942TIP3    H242386   0.495   0.189   0.987 -1.1259  0.8489  0.6896
 6943TIP3   OH242387   3.826   6.196   7.241 -0.2128  0.0297  0.0434
 6943TIP3    H142388   3.845   6.274   7.189 -1.1765  1.0715  1.1805
 6943TIP3    H242389   3.813   6.127   7.177 -1.0688  1.2079 -1.1061
 6944TIP3   OH242390   2.962   5.590   2.800  0.3577 -0.5428  0.3417
 6944TIP3    H142391   2.944   5.598   2.893  1.1886  0.1576  0.4543
 6944TIP3    H242392   2.914   5.512   2.773  0.7270 -1.1909  1.5097
 6945TIP3   OH242393   6.224   5.673   0.401 -0.3209 -0.0318  0.0352
 6945TIP3    H142394   6.217   5.752   0.347 -2.6213 -0.2702 -0.1041
 6945TIP3    H242395   6.238   5.705   0.490  2.0221  0.3964 -0.4229
 6946TIP3   OH242396   0.276   2.144   2.983 -0.2608  0.2509  0.1124
 6946TIP3    H142397   0.207   2.130   3.047 -0.6986  1.9601  0.0690
 6946TIP3    H242398   0.330   2.214   3.020 -0.3306  1.0419 -1.1936
 6947TIP3   OH242399   3.579   6.704   2.287 -0.1555 -0.1614 -0.1305
 6947TIP3    H142400   3.504   6.658   2.250 -0.8172  0.3768  0.5056
 6947TIP3    H242401   3.592   6.780   2.230  0.6536 -0.8832 -0.9199
 6948TIP3   OH242402   4.517   2.380   8.647  0.2032  0.1552  0.7112
 6948TIP3    H142403   4.521   2.473   8.670  1.0430 -0.0642  1.4953
 6948TIP3    H242404   4.577   2.372   8.573  0.0666  0.2467  0.5889
 6949TIP3   OH242405   2.991   3.411   3.167  0.5585 -0.5286 -0.2223
 6949TIP3    H142406   3.018   3.401   3.258 -0.0426 -2.8404 -0.2245
 6949TIP3    H242407   3.049   3.353   3.118  0.2193 -0.0899 -1.1769
 6950TIP3   OH242408   0.206   3.256   0.588  0.0853 -0.0656 -1.1483
 6950TIP3    H142409   0.299   3.256   0.569  0.8517 -0.0821  2.0548
 6950TIP3    H242410   0.171   3.331   0.540  2.4105  1.9761  0.1385
 6951TIP3   OH242411   1.356   5.281   0.616 -0.6162  0.0677 -0.1049
 6951TIP3    H142412   1.299   5.262   0.542 -0.2887  2.0703 -0.9415
 6951TIP3    H242413   1.439   5.240   0.594 -0.9377 -0.5754 -0.1471
 6952TIP3   OH242414   4.039   1.134   8.449  0.0439  0.8648 -0.2849
 6952TIP3    H142415   4.083   1.130   8.533 -0.5446  2.3645  0.1413
 6952TIP3    H242416   3.950   1.103   8.466 -0.0107  0.9551 -0.3967
 6953TIP3   OH242417   1.741   3.869   8.522 -0.1309  0.4893  0.1857
 6953TIP3    H142418   1.764   3.956   8.555 -0.5964 -0.1795  2.5006
 6953TIP3    H242419   1.650   3.877   8.496  0.8368  1.6269 -3.4292
 6954TIP3   OH242420   5.323   4.588   1.429  0.0528  0.1008  0.0487
 6954TIP3    H142421   5.280   4.603   1.513  0.2141 -0.0767  0.1636
 6954TIP3    H242422   5.265   4.525   1.385  0.1645 -0.0960  0.1811
 6955TIP3   OH242423   1.984   4.525   0.854 -0.6253 -0.3656 -0.2162
 6955TIP3    H142424   2.043   4.596   0.831  0.5716 -0.9929  0.8180
 6955TIP3    H242425   1.897   4.557   0.830  0.1416  0.4241 -2.1219
 6956TIP3   OH242426   6.256   1.153   8.060 -0.2322 -0.0743  0.2874
 6956TIP3    H142427   6.265   1.247   8.079 -0.3772 -0.3425  1.8350
 6956TIP3    H242428   6.325   1.111   8.112 -0.6640 -0.8768  0.2261
 6957TIP3   OH242429   0.267   3.610   1.059 -0.1231 -0.0812  0.1807
 6957TIP3    H142430   0.350   3.564   1.064  0.3973  0.9023  1.1165
 6957TIP3    H242431   0.257   3.633   0.967  0.6049 -0.2928  0.0473
 6958TIP3   OH242432   3.009   6.448   2.356  0.3068 -0.0064  0.2983
 6958TIP3    H142433   3.078   6.440   2.422  1.4220  1.6689 -0.5868
 6958TIP3    H242434   2.928   6.457   2.406  1.0918  0.9995  1.4322
 6959TIP3   OH242435   3.444   0.478   1.786  0.1202  0.0339 -0.1953
 6959TIP3    H142436   3.479   0.567   1.777  0.1520 -0.0127 -0.5503
 6959TIP3    H242437   3.422   0.452   1.696  0.7461 -0.5807 -0.1787
 6960TIP3   OH242438   1.184   3.580   0.024 -0.8192 -0.5488 -0.3113
 6960TIP3    H142439   1.252   3.647   0.015 -1.6279  0.1460 -1.4288
 6960TIP3    H242440   1.226   3.500  -0.007 -0.8975  0.1394 -2.3196
 6961TIP3   OH242441   2.061   6.589   0.249 -0.3329  0.5512  0.0747
 6961TIP3    H142442   2.097   6.501   0.242  0.2447  0.5576  2.2008
 6961TIP3    H242443   2.051   6.603   0.344 -2.3629  1.9881 -0.2841
 6962TIP3   OH242444   4.574   6.454   8.086  0.1512 -0.0855  0.2539
 6962TIP3    H142445   4.551   6.540   8.120 -0.2596 -0.0656 -0.0749
 6962TIP3    H242446   4.609   6.470   7.999 -3.6513 -0.5323 -1.5506
 6963TIP3   OH242447   5.119   4.054   2.553 -0.0899 -0.0234 -0.2769
 6963TIP3    H142448   5.080   4.054   2.466  1.6847  2.6025 -1.1845
 6963TIP3    H242449   5.117   4.146   2.580 -1.0497 -0.7860  2.7446
 6964TIP3   OH242450   6.426   4.250   2.218  0.1152  0.5709  0.6618
 6964TIP3    H142451   6.337   4.257   2.254 -0.0463  0.8043  0.2280
 6964TIP3    H242452   6.432   4.321   2.155 -0.2382 -0.8468 -1.0589
 6965TIP3   OH242453   4.271   3.901   2.113 -0.3172 -0.4334 -0.3177
 6965TIP3    H142454   4.220   3.862   2.042  0.0875 -0.5375 -0.5537
 6965TIP3    H242455   4.266   3.838   2.184  0.7129 -1.1421 -0.8517
 6966TIP3   OH242456   5.677   1.866   0.453  0.9624 -0.3470  0.0923
 6966TIP3    H142457   5.644   1.791   0.503  0.7905 -0.4815 -0.2178
 6966TIP3    H242458   5.624   1.866   0.373  0.5683  0.4472  0.3403
 6967TIP3   OH242459   4.229   1.447   8.561  0.1319  0.7014  0.0745
 6967TIP3    H142460   4.187   1.373   8.606 -3.0095  0.4598 -2.8694
 6967TIP3    H242461   4.263   1.502   8.632  0.0752 -2.1028  2.4741
 6968TIP3   OH242462   1.794   0.877   2.221  0.1086  0.2787 -0.3300
 6968TIP3    H142463   1.829   0.799   2.178 -1.7081  0.0366 -1.4691
 6968TIP3    H242464   1.783   0.851   2.313  2.1957  0.1741 -0.0561
 6969TIP3   OH242465   0.811   0.311   8.500  0.3699 -0.6084 -0.7109
 6969TIP3    H142466   0.755   0.378   8.540  0.0372 -1.2868 -0.0105
 6969TIP3    H242467   0.750   0.258   8.448  0.5015 -0.8209 -0.6477
 6970TIP3   OH242468   1.962   0.329   0.295  0.1360 -0.3544  0.5602
 6970TIP3    H142469   1.915   0.400   0.338  1.5680  1.9136 -1.3685
 6970TIP3    H242470   2.054   0.353   0.303  0.5211 -0.4955 -2.5155
 6971TIP3   OH242471   5.982   5.372   0.823 -0.1783  0.6471 -0.2876
 6971TIP3    H142472   6.051   5.387   0.887  0.3327  2.6478 -1.2036
 6971TIP3    H242473   6.019   5.308   0.762 -0.0258  0.0134  0.4517
 6972TIP3   OH242474   0.084   3.263   1.801 -0.5536  0.4513 -0.5106
 6972TIP3    H142475   0.005   3.210   1.804 -0.3878  0.2362  0.3141
 6972TIP3    H242476   0.115   3.265   1.892 -0.0474  1.1850 -0.6929
 6973TIP3   OH242477   0.377   5.728   1.282 -1.0060  0.0937 -0.0294
 6973TIP3    H142478   0.379   5.773   1.197 -1.5930 -0.9688 -0.6335
 6973TIP3    H242479   0.291   5.686   1.284 -0.8504 -0.2015  0.9421
 6974TIP3   OH242480   3.495   1.318   2.943  0.0954 -0.0175 -0.5659
 6974TIP3    H142481   3.528   1.339   2.856 -0.0898 -1.4117 -1.0030
 6974TIP3    H242482   3.573   1.307   2.997  0.2010  1.3906 -0.3967
 6975TIP3   OH242483   2.034   4.050   7.731 -0.3323 -0.2825 -0.0632
 6975TIP3    H142484   2.035   4.084   7.641 -1.0011  0.5752  0.2469
 6975TIP3    H242485   2.106   4.097   7.774 -1.5467  1.1268  0.4893
 6976TIP3   OH242486   6.171   2.267   0.175 -0.2653  0.0822  0.0425
 6976TIP3    H142487   6.228   2.289   0.101 -0.8280 -0.2130 -0.4937
 6976TIP3    H242488   6.151   2.351   0.216 -0.4043  0.3132 -0.4927
 6977TIP3   OH242489   3.238   5.825   8.178 -0.0035 -0.0898 -0.1201
 6977TIP3    H142490   3.190   5.900   8.144 -0.5816 -0.3814  0.0530
 6977TIP3    H242491   3.172   5.757   8.192  0.3444 -0.2485  0.8299
 6978TIP3   OH242492   0.997   6.377   1.608  0.1263  0.4679 -0.3664
 6978TIP3    H142493   1.043   6.325   1.675  0.1525  0.8500 -0.0872
 6978TIP3    H242494   0.954   6.311   1.553 -1.1326  0.1715  0.9075
 6979TIP3   OH242495   1.223   2.678   2.165  0.1098  0.0610  0.1614
 6979TIP3    H142496   1.318   2.672   2.173  0.2093  0.2256 -0.7386
 6979TIP3    H242497   1.209   2.739   2.093 -0.6315 -1.6615 -1.2509
 6980TIP3   OH242498   4.654   3.343   2.358 -0.1490 -0.0193 -0.4877
 6980TIP3    H142499   4.622   3.428   2.328  0.3778  0.1673 -0.5240
 6980TIP3    H242500   4.722   3.363   2.421 -0.7397 -0.4152  0.2992
 6981TIP3   OH242501   0.523   4.276   2.383  0.5759  0.2656 -0.1363
 6981TIP3    H142502   0.504   4.320   2.466  2.4977  1.5519 -0.2987
 6981TIP3    H242503   0.508   4.343   2.316 -0.3188 -0.5625 -0.8001
 6982TIP3   OH242504   6.222   3.026   1.561 -0.0374  0.1143 -0.2237
 6982TIP3    H142505   6.182   3.041   1.646 -1.1041  1.5569 -0.9368
 6982TIP3    H242506   6.163   2.965   1.517  0.6938 -0.8983  0.1802
 6983TIP3   OH242507   6.176   5.753   0.020 -0.3839  0.1990 -0.3038
 6983TIP3    H142508   6.206   5.666   0.046 -2.4108 -1.3233 -2.5013
 6983TIP3    H242509   6.246   5.787  -0.035 -0.6343 -1.3224 -1.6732
 6984TIP3   OH242510   5.610   1.017   2.059  0.0146  0.3560  0.0821
 6984TIP3    H142511   5.596   1.081   1.990  1.2366  0.0765 -0.4481
 6984TIP3    H242512   5.553   0.943   2.037 -0.6051  0.8139  0.1257
 6985TIP3   OH242513   3.069   4.885   1.844  0.2688 -0.0068  0.0389
 6985TIP3    H142514   3.010   4.959   1.860 -0.7789 -0.9670  0.7830
 6985TIP3    H242515   3.077   4.881   1.749  0.4410  1.1156 -0.0153
 6986TIP3   OH242516   2.540   6.851   8.430 -0.6217 -0.1411  0.8347
 6986TIP3    H142517   2.601   6.793   8.476  0.5088  0.4197  0.0869
 6986TIP3    H242518   2.457   6.839   8.476  0.3998  0.3022  2.9721
 6987TIP3   OH242519   3.007   3.785   1.846 -0.3095  0.2523  0.3270
 6987TIP3    H142520   2.939   3.784   1.914 -0.5799  1.1863  0.0834
 6987TIP3    H242521   3.082   3.744   1.888 -1.0061 -0.7701  0.6114
 6988TIP3   OH242522   2.319   2.812   0.840  0.1310 -0.3653  0.3001
 6988TIP3    H142523   2.276   2.815   0.754 -0.2898 -1.3851  0.4623
 6988TIP3    H242524   2.273   2.743   0.887 -0.2237  0.7768  1.6813
 6989TIP3   OH242525   0.813   5.177   3.350 -1.0147  0.2376 -0.1574
 6989TIP3    H142526   0.891   5.120   3.348  0.0412  1.6394 -0.5438
 6989TIP3    H242527   0.741   5.119   3.327 -0.1940 -1.2537  0.8486
 6990TIP3   OH242528   1.707   4.060   0.054 -0.3981 -0.1842 -1.0418
 6990TIP3    H142529   1.624   4.074   0.008 -0.3857 -2.3803 -1.8810
 6990TIP3    H242530   1.681   4.029   0.141 -0.4111  2.0393 -0.1932
 6991TIP3   OH242531   3.660   5.525   2.089 -0.1886 -0.0540 -0.2932
 6991TIP3    H142532   3.643   5.605   2.139 -1.5454 -2.1259  2.8830
 6991TIP3    H242533   3.754   5.509   2.103 -0.4253 -0.2895  1.2134
 6992TIP3   OH242534   1.629   5.705   0.822 -0.4840  0.0618 -0.1277
 6992TIP3    H142535   1.709   5.720   0.771  0.0687  1.3612  1.0795
 6992TIP3    H242536   1.594   5.622   0.788 -0.1311  0.8481 -2.5910
 6993TIP3   OH242537   5.776   5.802   0.434  0.5980 -0.2413 -0.3174
 6993TIP3    H142538   5.750   5.893   0.416  1.8576 -0.2308 -2.4224
 6993TIP3    H242539   5.856   5.810   0.486  0.9608 -0.1309 -0.8885
 6994TIP3   OH242540   6.058   6.789   2.633 -1.1067  0.4470  1.1077
 6994TIP3    H142541   6.112   6.793   2.711 -0.5181 -0.4380  0.7582
 6994TIP3    H242542   6.005   6.869   2.636  0.4806  1.5263  1.2569
 6995TIP3   OH242543   5.941   2.666   1.690  0.5240  0.3656 -0.4089
 6995TIP3    H142544   5.953   2.611   1.767 -0.1256  3.8296  2.4278
 6995TIP3    H242545   5.857   2.639   1.653  0.0361 -0.2653  1.1033
 6996TIP3   OH242546   0.481   3.895   1.878 -0.3396  0.0230  0.3848
 6996TIP3    H142547   0.574   3.881   1.898 -0.6619 -0.2130  1.8248
 6996TIP3    H242548   0.458   3.974   1.926 -0.2273  1.7684 -2.2428
 6997TIP3   OH242549   4.377   3.168   2.337  0.0738  0.0081  0.3685
 6997TIP3    H142550   4.354   3.076   2.330 -0.9377  0.2877 -0.1905
 6997TIP3    H242551   4.473   3.169   2.341  0.0572 -1.1229  1.5632
 6998TIP3   OH242552   1.235   4.758   1.933  0.7769 -0.0355  0.0496
 6998TIP3    H142553   1.301   4.777   2.000  0.5440  2.0617 -0.2260
 6998TIP3    H242554   1.201   4.844   1.909  0.1207 -0.8112 -2.0285
 6999TIP3   OH242555   6.675   1.600   2.352  0.1243 -0.0808 -0.0996
 6999TIP3    H142556   6.654   1.514   2.313  0.4676  0.0258 -0.5334
 6999TIP3    H242557   6.748   1.582   2.411  0.3933 -0.0386 -0.4167
 7000TIP3   OH242558   6.529   6.756   8.072  0.1444  0.3670 -0.5766
 7000TIP3    H142559   6.599   6.780   8.012 -0.2928 -2.7688 -2.5541
 7000TIP3    H242560   6.459   6.723   8.016 -0.8163 -1.4839  1.5265
 7001TIP3   OH242561   1.199   5.519   1.626  0.0093  0.1091  0.2585
 7001TIP3    H142562   1.241   5.569   1.556 -0.0520  1.0436  0.8769
 7001TIP3    H242563   1.184   5.433   1.588  1.9688 -0.0950 -0.1884
 7002TIP3   OH242564   5.139   4.255   7.818  0.1638 -0.0217 -0.1763
 7002TIP3    H142565   5.196   4.211   7.881  0.9157 -1.1457 -1.5745
 7002TIP3    H242566   5.177   4.343   7.809  0.5260 -0.1232  0.3345
 7003TIP3   OH242567   0.251   6.237   8.456 -0.2514  0.5086 -0.7959
 7003TIP3    H142568   0.329   6.277   8.418  1.4773 -0.4532  1.5253
 7003TIP3    H242569   0.252   6.147   8.423  1.4089 -0.4126  1.5279
 7004TIP3   OH242570   0.549   4.958   8.163 -0.1214 -0.2330 -0.0909
 7004TIP3    H142571   0.583   4.869   8.163  1.3839  0.2952 -1.1628
 7004TIP3    H242572   0.520   4.972   8.073 -0.2434  0.4019  0.0434
 7005TIP3   OH242573   2.104   4.344   1.333 -0.0552  0.1159 -0.3568
 7005TIP3    H142574   2.174   4.287   1.305  0.3762  0.5154 -0.1131
 7005TIP3    H242575   2.145   4.405   1.395 -0.7523 -0.0812  0.3256
 7006TIP3   OH242576   5.327   5.981   2.055 -0.7316  0.4979  0.0913
 7006TIP3    H142577   5.277   5.900   2.062 -0.5106  0.4662  1.7545
 7006TIP3    H242578   5.407   5.956   2.008 -0.4709 -0.3796  0.9461
 7007TIP3   OH242579   4.847   1.935   3.532 -0.3871 -0.3967 -0.4440
 7007TIP3    H142580   4.914   1.896   3.588  0.8516  3.3707  1.0546
 7007TIP3    H242581   4.857   1.891   3.448  4.8023  0.4935 -0.6458
 7008TIP3   OH242582   2.328   4.824   8.135 -0.0329 -0.5756  0.0480
 7008TIP3    H142583   2.254   4.844   8.078  0.3748  0.0100 -0.2881
 7008TIP3    H242584   2.405   4.843   8.082  0.3533 -0.5601  0.6057
 7009TIP3   OH242585   4.896   2.197   3.448 -0.1068 -0.1961 -0.2645
 7009TIP3    H142586   4.892   2.106   3.480 -0.1701 -0.0852  0.0473
 7009TIP3    H242587   4.931   2.246   3.522 -2.0189  0.3808  0.3220
 7010TIP3   OH242588   0.464   6.792   1.497  0.8129 -0.1890 -0.5036
 7010TIP3    H142589   0.433   6.720   1.551  2.2595 -0.3788  0.1286
 7010TIP3    H242590   0.416   6.869   1.528  2.0121 -0.1746  1.5078
 7011TIP3   OH242591   6.611   2.805   0.977 -0.2445 -0.5422 -0.5559
 7011TIP3    H142592   6.701   2.798   1.010 -0.5075  3.1023  1.4708
 7011TIP3    H242593   6.563   2.849   1.048 -3.4251 -1.4197 -1.9750
 7012TIP3   OH242594   3.153   0.465   0.972 -0.5824  0.0763  0.7167
 7012TIP3    H142595   3.201   0.409   0.911 -0.4367 -0.0490  0.9443
 7012TIP3    H242596   3.066   0.475   0.932 -0.1805  0.8179 -0.0128
 7013TIP3   OH242597   6.569   2.036   2.045 -0.4900 -0.1116  0.1188
 7013TIP3    H142598   6.474   2.042   2.058 -0.8847 -1.1132 -1.9187
 7013TIP3    H242599   6.589   1.943   2.057  0.2184  0.0554  0.3070
 7014TIP3   OH242600   2.288   6.116   1.449 -0.3125 -0.3784  0.0061
 7014TIP3    H142601   2.214   6.169   1.478 -1.4107 -2.1451  0.5383
 7014TIP3    H242602   2.349   6.118   1.523  0.5094  1.5785 -0.6607
 7015TIP3   OH242603   0.902   1.786   8.162 -0.3813  0.2014  0.1900
 7015TIP3    H142604   0.839   1.803   8.232  1.0564  0.2269  1.5251
 7015TIP3    H242605   0.949   1.708   8.191 -0.3934 -0.3775 -1.2387
 7016TIP3   OH242606   1.877   0.795   2.514 -0.2227 -0.5982  0.7323
 7016TIP3    H142607   1.921   0.878   2.535 -0.1134 -0.4058 -0.2119
 7016TIP3    H242608   1.784   0.813   2.528 -0.2419 -0.1671  0.0988
 7017TIP3   OH242609   2.897   0.483   0.817  0.1323  0.2410 -0.1241
 7017TIP3    H142610   2.900   0.537   0.738  1.5165  0.5640  0.1223
 7017TIP3    H242611   2.871   0.544   0.886 -2.6903 -0.3623 -0.5238
 7018TIP3   OH242612   2.449   5.297   8.229 -0.1596  0.4478  0.1854
 7018TIP3    H142613   2.430   5.250   8.310  0.5819 -0.2873 -0.0525
 7018TIP3    H242614   2.511   5.366   8.256 -1.6927  1.7009  0.6383
 7019TIP3   OH242615   2.363   4.034   8.455  0.1631 -0.0752 -0.0034
 7019TIP3    H142616   2.383   4.124   8.430 -0.3379  0.8870  2.6854
 7019TIP3    H242617   2.324   3.995   8.377 -0.7183  2.4065 -0.9018
 7020TIP3   OH242618   5.926   4.773   2.080  0.1213 -0.9946 -0.2383
 7020TIP3    H142619   5.875   4.692   2.083 -0.9097 -0.3454  1.5051
 7020TIP3    H242620   5.879   4.828   2.017 -0.5801 -0.9140  0.3323
 7021TIP3   OH242621   3.137   1.055   7.847  0.5461 -0.1954  0.2062
 7021TIP3    H142622   3.232   1.060   7.836  0.6958 -1.3858  0.7767
 7021TIP3    H242623   3.108   0.996   7.778  0.3404 -0.5762  0.6160
 7022TIP3   OH242624   1.125   2.651   8.547 -0.4270  0.2014  0.7110
 7022TIP3    H142625   1.105   2.628   8.638 -0.0068 -0.1193  0.7253
 7022TIP3    H242626   1.078   2.587   8.494  0.5197 -0.5382  0.7436
 7023TIP3   OH242627   2.966   2.765   0.917 -0.6499 -0.6184  0.1477
 7023TIP3    H142628   3.040   2.753   0.977  0.6460  1.7506 -0.8339
 7023TIP3    H242629   2.944   2.677   0.888  0.3795 -1.5840  2.0881
 7024TIP3   OH242630   0.734   0.838   1.657 -0.2400 -0.5227 -0.1164
 7024TIP3    H142631   0.715   0.861   1.748  0.2939  3.9390 -0.8740
 7024TIP3    H242632   0.652   0.852   1.610 -0.1161 -1.2070 -0.5601
 7025TIP3   OH242633   2.093   6.271   1.528  0.0803  0.4061  0.0747
 7025TIP3    H142634   2.073   6.360   1.556 -0.3300  0.0892  0.8337
 7025TIP3    H242635   2.015   6.220   1.552 -0.1624  0.0526 -1.4035
 7026TIP3   OH242636   3.343   1.077   2.326  0.0901  0.3597  0.0826
 7026TIP3    H142637   3.391   1.159   2.334  1.4804 -0.3202 -1.0314
 7026TIP3    H242638   3.363   1.029   2.407  0.7953  0.3296 -0.1106
 7027TIP3   OH242639   6.166   4.689   1.930 -0.2389  0.3518  0.5189
 7027TIP3    H142640   6.170   4.672   1.836 -0.1086  1.0684  0.3899
 7027TIP3    H242641   6.141   4.781   1.937 -0.7055  0.1813  1.1928
 7028TIP3   OH242642   2.605   4.201   8.549 -0.5017  0.1935  0.0401
 7028TIP3    H142643   2.649   4.276   8.589 -0.4898  0.5155 -0.5629
 7028TIP3    H242644   2.517   4.233   8.529 -0.7977 -0.2385  0.6135
 7029TIP3   OH242645   4.831   4.109   0.880  0.0846  0.9970  0.3916
 7029TIP3    H142646   4.901   4.125   0.817  0.2065  0.4725  0.3872
 7029TIP3    H242647   4.876   4.072   0.956 -0.4163 -2.0107 -0.6043
 7030TIP3   OH242648   2.080   0.118   2.225  0.3477  0.2180 -0.2265
 7030TIP3    H142649   2.031   0.188   2.268  2.0003  1.8974 -0.9279
 7030TIP3    H242650   2.062   0.040   2.278 -0.8134  1.3479  1.1364
 7031TIP3   OH242651   1.674   6.207   1.945  0.4075 -0.2823 -0.2731
 7031TIP3    H142652   1.741   6.167   1.889  0.3697  0.5060 -0.8952
 7031TIP3    H242653   1.721   6.231   2.025  0.7303 -0.3000 -0.4564
 7032TIP3   OH242654   6.047   3.016   1.116 -0.1845  0.5986  0.0694
 7032TIP3    H142655   6.108   3.018   1.190 -1.9342  1.7891  1.5751
 7032TIP3    H242656   6.018   3.107   1.107 -1.1400  0.2077 -1.1291
 7033TIP3   OH242657   3.440   4.370   8.387 -0.1887 -0.2032 -0.3409
 7033TIP3    H142658   3.431   4.277   8.411 -0.0487 -0.5400 -1.5128
 7033TIP3    H242659   3.460   4.414   8.469  2.4019 -1.5839 -0.1258
 7034TIP3   OH242660   1.901   5.870   3.050 -0.1822  0.0353 -0.4829
 7034TIP3    H142661   1.995   5.887   3.046  0.5090 -3.2186 -0.6455
 7034TIP3    H242662   1.893   5.789   3.101 -3.0263  0.8684  0.5832
 7035TIP3   OH242663   2.796   4.974   1.431 -0.3941  0.4406 -0.2602
 7035TIP3    H142664   2.777   4.933   1.515 -1.2030  1.2477 -0.0254
 7035TIP3    H242665   2.891   4.977   1.426 -0.2937  1.9511  1.4396
 7036TIP3   OH242666   3.654   2.251   2.144 -0.0208 -0.1931 -0.0247
 7036TIP3    H142667   3.575   2.262   2.197 -0.1086  0.5054 -0.2792
 7036TIP3    H242668   3.623   2.255   2.053  0.3892  1.0136 -0.1410
 7037TIP3   OH242669   3.694   4.269   7.394 -0.1344 -0.2986 -0.1833
 7037TIP3    H142670   3.716   4.235   7.307 -1.5237  1.6917 -1.3760
 7037TIP3    H242671   3.683   4.190   7.448 -2.6860 -1.8243 -2.6441
 7038TIP3   OH242672   4.171   2.239   0.864  0.3606  0.7867 -0.0783
 7038TIP3    H142673   4.185   2.153   0.825  0.3236 -0.1960  1.9663
 7038TIP3    H242674   4.219   2.236   0.947 -0.2626  2.4744  0.3811
 7039TIP3   OH242675   3.371   5.604   2.254  0.2364  0.7589 -0.0645
 7039TIP3    H142676   3.402   5.521   2.220 -0.6410 -0.0289  0.9601
 7039TIP3    H242677   3.306   5.634   2.190  1.3189  1.2057 -0.9742
 7040TIP3   OH242678   4.541   1.823   8.606  0.0564 -0.3485 -0.6586
 7040TIP3    H142679   4.447   1.829   8.591 -0.0392  2.1775  0.4259
 7040TIP3    H242680   4.549   1.775   8.689 -0.3745  0.3828 -0.1798
 7041TIP3   OH242681   5.691   3.546   0.841  0.7995  0.2043  0.1593
 7041TIP3    H142682   5.618   3.484   0.834  0.6451  0.2193  1.3759
 7041TIP3    H242683   5.732   3.525   0.925  1.3387  1.1184  0.1320
 7042TIP3   OH242684   5.030   3.285   1.137  0.3287 -0.0329 -0.2045
 7042TIP3    H142685   5.120   3.310   1.156  0.9391 -2.0083 -0.2762
 7042TIP3    H242686   5.030   3.263   1.043 -0.1352 -0.3646 -0.1349
 7043TIP3   OH242687   6.395   4.208   0.971  0.0049  0.1758 -0.6116
 7043TIP3    H142688   6.362   4.161   1.049 -0.8217  0.7349 -0.6100
 7043TIP3    H242689   6.326   4.196   0.906  0.0773  0.8526 -0.8158
 7044TIP3   OH242690   1.862   0.493   0.489  0.6838 -0.4164  0.4303
 7044TIP3    H142691   1.780   0.505   0.536 -0.1824  1.4231 -1.3662
 7044TIP3    H242692   1.917   0.442   0.548 -1.3968 -0.8747  2.0839
 7045TIP3   OH242693   6.756   4.282   3.068  0.4267  0.0664  0.4657
 7045TIP3    H142694   6.785   4.262   2.979  1.4142  0.3781  0.7007
 7045TIP3    H242695   6.693   4.213   3.089  1.0787 -0.7043 -0.0431
 7046TIP3   OH242696   3.105   0.813   3.597  0.0005 -0.1762  0.0126
 7046TIP3    H142697   3.135   0.765   3.520 -0.8850 -1.4740  0.4477
 7046TIP3    H242698   3.167   0.885   3.606  0.4798 -0.3561 -1.5463
 7047TIP3   OH242699   0.784   2.100   2.871  0.1207  0.1287  0.5891
 7047TIP3    H142700   0.765   2.186   2.908 -0.2704  0.9490 -1.3872
 7047TIP3    H242701   0.698   2.065   2.847  0.3584 -0.3150  0.3799
 7048TIP3   OH242702   5.158   2.712   3.254 -0.2750 -0.1686 -0.0657
 7048TIP3    H142703   5.245   2.728   3.292  0.7445  0.2826 -2.3902
 7048TIP3    H242704   5.150   2.617   3.251  0.8955 -0.2636 -1.2957
 7049TIP3   OH242705   6.440   2.534   1.624  0.5747 -0.2942 -0.2873
 7049TIP3    H142706   6.443   2.610   1.682 -1.3462 -0.1300 -0.3283
 7049TIP3    H242707   6.414   2.462   1.681 -0.9537 -0.2030 -0.8204
 7050TIP3   OH242708   1.567   2.053   1.096 -0.3019  0.3935  0.1053
 7050TIP3    H142709   1.620   1.976   1.075 -0.1841  0.6514 -0.5411
 7050TIP3    H242710   1.578   2.111   1.021 -0.5044  0.9824  0.5297
 7051TIP3   OH242711   1.926   1.298   8.483 -0.0497 -0.0972 -0.0492
 7051TIP3    H142712   1.914   1.223   8.542  3.6358 -0.0461  1.0122
 7051TIP3    H242713   1.983   1.264   8.414 -0.0421  1.2194 -0.7073
 7052TIP3   OH242714   2.599   1.686   2.282 -0.1199 -0.0980 -0.2383
 7052TIP3    H142715   2.562   1.760   2.330  1.1014  0.5695 -0.2899
 7052TIP3    H242716   2.648   1.637   2.348  0.9628  0.4217 -0.6301
 7053TIP3   OH242717   0.588   6.579   2.427 -0.4238 -0.1262  0.2251
 7053TIP3    H142718   0.599   6.674   2.432 -1.3592  0.0271 -0.2989
 7053TIP3    H242719   0.536   6.557   2.505 -1.7034  0.0634 -0.5351
 7054TIP3   OH242720   6.342   0.185   2.668 -0.1796 -0.5907 -0.4982
 7054TIP3    H142721   6.409   0.240   2.709 -0.0803 -0.9910 -0.1138
 7054TIP3    H242722   6.259   0.222   2.697 -0.1217 -0.3279 -0.6643
 7055TIP3   OH242723   6.382   4.937   0.452 -0.2004  0.1698 -0.8115
 7055TIP3    H142724   6.387   4.888   0.534  2.7257  1.3214 -0.1928
 7055TIP3    H242725   6.292   4.971   0.450 -1.0446 -1.7724  0.7285
 7056TIP3   OH242726   3.678   2.936   2.297 -0.3953 -0.0888 -0.3065
 7056TIP3    H142727   3.606   2.997   2.314 -0.9897 -0.5103 -1.2222
 7056TIP3    H242728   3.668   2.913   2.205  1.2927  0.3068 -0.6179
 7057LIG     O142729   4.925   3.686   2.171 -0.2989  0.0709  0.4418
 7057LIG     O242730   4.871   3.887   2.053  0.6610 -0.5712  0.4881
 7057LIG     O342731   4.673   3.787   1.970 -0.0066 -0.0109 -0.3376
 7057LIG     O442732   5.191   3.823   2.202 -0.1937 -0.2462  0.7794
 7057LIG     O542733   5.234   3.648   1.994  0.5182 -0.6834  0.3172
 7057LIG     O642734   4.683   4.100   2.163  0.1250  0.2710  0.2257
 7057LIG     O742735   4.793   4.137   1.905  0.1081 -0.5345  0.3459
 7057LIG     O842736   4.624   4.022   1.691 -0.1479  0.3137  0.2192
 7057LIG     O942737   4.998   4.027   2.294  0.2389 -0.1483  0.6899
 7057LIG    O1042738   4.844   3.562   1.906  0.2347 -0.2962 -0.3588
 7057LIG    O1142739   4.511   3.769   1.699 -0.5290 -0.3645  0.7863
 7057LIG     C142740   4.947   3.827   2.156 -0.1891  0.3408 -0.3842
 7057LIG     C242741   5.095   3.825   2.099  0.5993  0.0258  0.1313
 7057LIG     C342742   5.100   3.698   2.017  0.3157 -0.2523 -0.6436
 7057LIG     C442743   5.009   3.600   2.092 -0.9276  0.4895 -0.1059
 7057LIG     C542744   4.727   3.876   2.065 -0.5189  0.7751  0.4332
 7057LIG     C642745   4.652   4.009   2.064  0.2391 -0.5937  0.1862
 7057LIG     C742746   4.663   4.085   1.927 -0.0522  0.4454  0.5338
 7057LIG     C842747   4.623   3.973   1.829  0.3387  0.6770 -0.3648
 7057LIG     C942748   4.696   3.840   1.845 -0.7496  0.0842  0.5046
 7057LIG    C1042749   4.925   3.903   2.288 -0.1851  0.1045  0.3228
 7057LIG    C1142750   4.929   3.498   2.008  0.2272 -0.1532  0.1485
 7057LIG    C1242751   4.646   3.735   1.745  0.0145 -0.1658 -0.1313
 7057LIG     H142752   5.111   3.914   2.037 -2.4421  1.2922  0.9426
 7057LIG     H242753   5.053   3.716   1.920  0.0728 -2.3828 -0.9693
 7057LIG     H342754   5.076   3.545   2.160  0.2489 -0.5713 -2.0289
 7057LIG     H442755   4.707   3.833   2.166  1.2555  2.1033  1.3976
 7057LIG     H542756   4.542   3.993   2.074  0.1373 -1.7166 -2.0565
 7057LIG     H642757   4.586   4.165   1.930 -1.0349 -0.4982  1.2592
 7057LIG     H742758   4.514   3.954   1.844  0.2945 -2.9514 -3.5474
 7057LIG     H842759   4.804   3.846   1.821 -0.9442 -0.3442 -0.5607
 7057LIG     H942760   4.816   3.914   2.306 -0.4898 -0.1793 -1.2043
 7057LIG    H1042761   4.966   3.842   2.370 -1.1449  0.4100  1.0524
 7057LIG    H1142762   4.998   3.435   1.948 -1.4316 -1.5791 -0.3622
 7057LIG    H1242763   4.859   3.437   2.069 -2.1964  0.5682 -1.7326
 7057LIG    H1342764   4.706   3.735   1.652 -2.7268  0.6774 -2.0028
 7057LIG    H1442765   4.641   3.633   1.788 -0.2010 -0.5752 -1.1150
 7057LIG    H1542766   5.194   3.913   2.233 -1.2068 -0.3788  1.3125
 7057LIG    H1642767   5.285   3.628   2.073 -1.3321 -0.4882  1.6484
 7057LIG    H1742768   4.763   4.143   2.132 -1.4163  1.4616 -2.4151
 7057LIG    H1842769   4.779   4.184   1.823  0.1174 -2.6793 -0.9840
 7057LIG    H1942770   4.587   3.941   1.654  4.2986 -1.8529 -0.0949
 7057LIG    H2042771   4.959   4.084   2.228  2.5389 -0.3221 -0.9428
 7057LIG    H2142772   4.761   3.585   1.948  0.3786 -2.4476  1.2555
 7057LIG    H2242773   4.458   3.710   1.754 -0.8843  0.5400  1.4312
   6.85972   6.85972   8.69575
