Title
42773
    1SAPS     N    1   5.354   0.513   6.271  0.3373  0.6106  0.2193
    1SAPS   HN1    2   5.294   0.430   6.287  0.7654 -0.1290 -1.6531
    1SAPS   HN2    3   5.292   0.592   6.242 -0.5518  0.2247  1.0519
    1SAPS   HN3    4   5.419   0.498   6.191  0.9626 -0.6394  0.9362
    1SAPS   C12    5   5.440   0.562   6.382 -0.4000 -0.3109  0.0310
    1SAPS  H12A    6   5.377   0.544   6.468  2.2256 -0.5982  2.0213
    1SAPS   C13    7   5.577   0.490   6.394 -0.6618 -0.8315  0.1527
    1SAPS  O13A    8   5.610   0.395   6.321  1.1866  0.3560  0.8409
    1SAPS  O13B    9   5.650   0.527   6.490  0.0388  0.8826  0.4800
    1SAPS   C11   10   5.469   0.715   6.363  0.6475  0.0788 -0.3008
    1SAPS  H11A   11   5.517   0.723   6.264 -1.0630 -1.3242 -1.2936
    1SAPS  H11B   12   5.543   0.756   6.435  1.2937  2.1702 -2.0640
    1SAPS     P   13   5.297   0.847   6.504  0.1004 -0.2469  0.3704
    1SAPS   O13   14   5.301   0.740   6.606  0.4090 -0.2389 -0.1669
    1SAPS   O14   15   5.358   0.978   6.535 -0.4886 -0.1081 -0.9125
    1SAPS   O12   16   5.345   0.793   6.361  0.3577  0.1605  0.5188
    1SAPS   O11   17   5.143   0.863   6.483 -0.3092 -0.0300  0.2554
    1SAPS    C1   18   5.061   0.753   6.451 -0.4880  0.2611 -0.0690
    1SAPS    HA   19   5.116   0.664   6.415 -0.5083  0.6832 -1.1740
    1SAPS    HB   20   5.010   0.719   6.544  0.4119  0.4347  0.5062
    1SAPS    C2   21   4.966   0.779   6.338  0.0490 -0.6265  0.1219
    1SAPS    HS   22   4.935   0.680   6.298 -1.7834  0.3247 -0.9984
    1SAPS   O21   23   5.025   0.859   6.233 -0.4371  0.3591 -0.3147
    1SAPS   C21   24   5.128   0.802   6.164 -0.1397 -0.7288  0.0364
    1SAPS   O22   25   5.169   0.689   6.177  0.0616  0.7066  0.8592
    1SAPS   C22   26   5.177   0.901   6.065  0.1163  0.3099 -0.1164
    1SAPS   H2R   27   5.099   0.980   6.062 -1.4028 -1.1354 -2.3450
    1SAPS   H2S   28   5.276   0.939   6.096  1.1738 -0.7236 -2.0383
    1SAPS    C3   29   4.828   0.842   6.388 -0.0578  0.3819 -0.2120
    1SAPS    HX   30   4.846   0.948   6.417 -0.4945  0.0263  1.4652
    1SAPS    HY   31   4.804   0.782   6.478  2.0540  2.1269  1.6581
    1SAPS   O31   32   4.723   0.830   6.289  0.1982 -0.8149 -0.7586
    1SAPS   C31   33   4.621   0.911   6.287 -0.1977 -0.3482 -0.0051
    1SAPS   O32   34   4.615   1.011   6.358  0.1775  0.2261 -0.2705
    1SAPS   C32   35   4.515   0.853   6.193  0.5366  0.3712 -0.0600
    1SAPS   H2X   36   4.413   0.863   6.236 -0.2580 -1.1031 -1.4745
    1SAPS   H2Y   37   4.529   0.743   6.184 -0.2096  0.3756 -1.6518
    1SAPS   C23   38   5.185   0.835   5.922  0.1003 -0.0171 -0.4248
    1SAPS   H3R   39   5.096   0.774   5.893 -1.0015  1.6479 -0.6893
    1SAPS   H3S   40   5.266   0.760   5.930  0.7309  0.6753 -0.2372
    1SAPS   C24   41   5.221   0.932   5.809  0.2606 -0.6412  0.6840
    1SAPS   H4R   42   5.150   1.017   5.816  0.6502 -0.3637  1.3525
    1SAPS   H4S   43   5.213   0.888   5.707  1.1999 -2.1225  1.2090
    1SAPS   C25   44   5.357   1.000   5.837  0.3131  0.4390 -0.4166
    1SAPS   H5R   45   5.432   0.933   5.882 -0.0655  0.1547 -0.2065
    1SAPS   C26   46   5.393   1.128   5.841 -0.0562 -0.3701 -0.0098
    1SAPS   H6R   47   5.490   1.167   5.876 -1.5839  1.7407  2.2469
    1SAPS   C27   48   5.310   1.242   5.785  0.1831  0.1498 -0.3341
    1SAPS   H7R   49   5.326   1.337   5.840 -0.0473  1.3973 -2.3284
    1SAPS   H7S   50   5.203   1.216   5.797 -0.1583  0.9685 -1.4045
    1SAPS   C28   51   5.337   1.252   5.640  0.4643  0.1299 -0.1661
    1SAPS   H8R   52   5.365   1.159   5.588  1.9497 -0.0411  0.8649
    1SAPS   C29   53   5.318   1.361   5.568  0.2026 -0.7785  0.3422
    1SAPS   H9R   54   5.365   1.366   5.468  0.2356 -1.4668  0.3132
    1SAPS  C210   55   5.254   1.486   5.623 -0.0215  1.0305  0.1069
    1SAPS  H10R   56   5.266   1.570   5.551 -0.1886 -1.0350 -2.4704
    1SAPS  H10S   57   5.295   1.511   5.723 -3.6051 -0.6564  2.2216
    1SAPS  C211   58   5.103   1.475   5.654  0.2640  0.3208  0.1169
    1SAPS  H11R   59   5.079   1.427   5.750  2.0796 -2.1012 -0.5378
    1SAPS  C212   60   4.998   1.517   5.579  0.3920  0.7261 -0.0735
    1SAPS  H12R   61   4.906   1.501   5.636  1.0733 -0.5156  0.7282
    1SAPS  C213   62   4.995   1.595   5.448  0.4957  0.1681 -0.6542
    1SAPS  H13R   63   5.094   1.580   5.399  0.8962 -0.5797  0.3437
    1SAPS  H13S   64   4.999   1.706   5.455  0.0828  0.0590  2.7447
    1SAPS  C214   65   4.893   1.534   5.355 -0.0279 -0.2626 -0.8747
    1SAPS  H14R   66   4.884   1.424   5.348  0.6445 -0.5069  1.2096
    1SAPS  C215   67   4.791   1.592   5.294 -0.2364  0.1084  0.4223
    1SAPS  H15R   68   4.730   1.525   5.232  1.8138 -0.4257 -1.1322
    1SAPS  C216   69   4.761   1.742   5.285  0.2688  0.2014 -0.0167
    1SAPS  H16R   70   4.726   1.769   5.183 -1.0803 -1.3476  0.0030
    1SAPS  H16S   71   4.842   1.813   5.313  0.0652  0.1025  0.8631
    1SAPS  C217   72   4.636   1.778   5.381 -0.5238 -0.1888  0.2076
    1SAPS  H17R   73   4.646   1.731   5.481  2.4521 -0.5685 -0.1976
    1SAPS  H17S   74   4.548   1.730   5.332  0.1545 -3.1101  1.6103
    1SAPS  C218   75   4.596   1.919   5.413 -0.0417  0.0521  0.2548
    1SAPS  H18R   76   4.665   1.966   5.486  1.1814 -0.6164 -0.4410
    1SAPS  H18S   77   4.493   1.925   5.455 -0.1016  1.0178 -0.0000
    1SAPS  C219   78   4.591   2.008   5.291 -0.3549 -0.5657 -0.3842
    1SAPS  H19R   79   4.690   2.027   5.243  1.6411 -1.4158  3.0308
    1SAPS  H19S   80   4.570   2.109   5.330  2.3988  0.5904 -1.5754
    1SAPS  C220   81   4.486   1.973   5.180 -0.4361  0.1138 -0.3905
    1SAPS  H20R   82   4.383   1.981   5.222 -0.6532 -1.7023 -0.5111
    1SAPS  H20S   83   4.502   1.869   5.146  1.4364  0.6414 -1.2048
    1SAPS  H20T   84   4.498   2.045   5.096 -1.4794  1.4456  0.5611
    1SAPS   C33   85   4.505   0.930   6.052  0.0498  0.4444 -1.5163
    1SAPS   H3X   86   4.603   0.938   6.000 -0.0206  0.6361 -1.6204
    1SAPS   H3Y   87   4.469   1.034   6.067  2.7731  1.2829 -0.1035
    1SAPS   C34   88   4.424   0.856   5.941  0.0375 -0.0504 -0.5292
    1SAPS   H4X   89   4.322   0.830   5.977 -0.3838  0.3410 -1.3940
    1SAPS   H4Y   90   4.462   0.754   5.922  1.5398  0.7395 -1.9684
    1SAPS   C35   91   4.426   0.934   5.813  0.5134 -0.1420 -0.0907
    1SAPS   H5X   92   4.521   0.991   5.808 -0.5223  2.0355  2.4360
    1SAPS   H5Y   93   4.361   1.025   5.817 -0.2101 -0.5431 -1.9484
    1SAPS   C36   94   4.413   0.862   5.676  0.1191  0.3707 -0.3250
    1SAPS   H6X   95   4.311   0.819   5.670 -0.0280  0.4668  1.0997
    1SAPS   H6Y   96   4.482   0.775   5.664 -1.8264 -1.2283 -0.3514
    1SAPS   C37   97   4.422   0.956   5.557 -0.5628 -0.0451 -0.5055
    1SAPS   H7X   98   4.513   1.018   5.571  0.6934 -1.5908 -1.5015
    1SAPS   H7Y   99   4.335   1.024   5.546 -1.3869 -1.4690 -3.9308
    1SAPS   C38  100   4.417   0.891   5.418 -0.2088 -0.2173  0.8134
    1SAPS   H8X  101   4.323   0.831   5.411  0.8525 -1.9171  0.6028
    1SAPS   H8Y  102   4.492   0.809   5.414  0.4066  0.3623 -0.0273
    1SAPS   C39  103   4.438   0.982   5.289 -0.2355  0.2776  0.1801
    1SAPS   H9X  104   4.540   1.026   5.279  0.2726 -0.5739  1.3978
    1SAPS   H9Y  105   4.365   1.066   5.285 -1.0756 -0.4766 -0.8511
    1SAPS  C310  106   4.421   0.911   5.151  0.3213 -0.5781 -0.1563
    1SAPS  H10X  107   4.322   0.862   5.138  0.3038  0.0963 -3.0508
    1SAPS  H10Y  108   4.494   0.827   5.143 -0.8128 -1.4690 -1.4097
    1SAPS  C311  109   4.447   1.007   5.033  0.0596  0.1479 -0.8356
    1SAPS  H11X  110   4.541   1.063   5.056  0.9363 -1.4475 -0.3713
    1SAPS  H11Y  111   4.367   1.083   5.027  0.2783  0.3689 -0.9612
    1SAPS  C312  112   4.453   0.938   4.897  0.2228  1.0594  1.4069
    1SAPS  H12X  113   4.360   0.883   4.872  1.3513 -1.1792  1.8841
    1SAPS  H12Y  114   4.533   0.862   4.909 -0.2446 -0.1974 -2.3283
    1SAPS  C313  115   4.511   1.022   4.777  0.8218  0.5820 -0.3438
    1SAPS  H13X  116   4.562   0.955   4.705  3.5463  2.1555 -0.0093
    1SAPS  H13Y  117   4.598   1.079   4.816  1.1228 -1.5579  2.4911
    1SAPS  C314  118   4.408   1.098   4.692 -0.2447  0.3925  0.4088
    1SAPS  H14X  119   4.324   1.029   4.669 -0.9882  1.3811  0.0981
    1SAPS  H14Y  120   4.457   1.135   4.599 -3.5609 -0.8810 -2.0741
    1SAPS  C315  121   4.365   1.220   4.763 -0.1491 -0.7786 -0.1529
    1SAPS  H15X  122   4.441   1.301   4.769 -0.8469 -0.1436  0.3136
    1SAPS  H15Y  123   4.335   1.193   4.867  2.7557  0.5471  1.1581
    1SAPS  C316  124   4.250   1.296   4.694  0.9519 -0.4357  0.6574
    1SAPS  H16X  125   4.183   1.218   4.652  2.0187 -0.6642 -0.7187
    1SAPS  H16Y  126   4.277   1.356   4.604  1.2961 -1.2994  0.1738
    1SAPS  C317  127   4.163   1.375   4.799  0.0473 -0.0859 -0.1741
    1SAPS  H17X  128   4.227   1.442   4.860 -0.3012  0.0322  0.0647
    1SAPS  H17Y  129   4.117   1.303   4.870  1.4242  1.3503  2.2837
    1SAPS  C318  130   4.041   1.461   4.749  0.1689  0.7513 -0.3176
    1SAPS  H18X  131   3.979   1.492   4.836  0.1360  0.9503 -0.4104
    1SAPS  H18Y  132   3.975   1.407   4.678 -0.3271 -1.1879  1.5292
    1SAPS  H18Z  133   4.086   1.548   4.696  0.6304  0.2315 -0.7995
    2SAPS     N  134   1.024   3.882   6.885 -0.0702  0.0009 -0.3079
    2SAPS   HN1  135   1.057   3.815   6.813  0.0959 -0.0365 -0.1959
    2SAPS   HN2  136   1.108   3.889   6.945 -0.5511 -0.5786  0.4655
    2SAPS   HN3  137   0.945   3.830   6.931 -1.2351  0.1623 -2.0335
    2SAPS   C12  138   0.990   4.010   6.816  0.0109  0.6325  0.2906
    2SAPS  H12A  139   0.887   3.999   6.785  0.7716 -0.0011 -2.3414
    2SAPS   C13  140   1.004   4.139   6.903  0.0795 -0.9878 -0.2242
    2SAPS  O13A  141   1.046   4.125   7.023  0.2943 -0.5098 -0.4344
    2SAPS  O13B  142   0.931   4.236   6.870 -0.6078 -0.6015 -0.3675
    2SAPS   C11  143   1.088   4.025   6.699  0.1383 -0.8946  0.2128
    2SAPS  H11A  144   1.187   4.056   6.737 -0.0232 -0.6116  0.4013
    2SAPS  H11B  145   1.039   4.101   6.635  1.2926 -1.9094 -2.0267
    2SAPS     P  146   1.003   3.854   6.508  0.8632  0.0366 -0.2461
    2SAPS   O13  147   1.037   3.716   6.460  0.6571  0.5852 -0.4268
    2SAPS   O14  148   0.863   3.871   6.559 -0.0226  0.4940 -0.2942
    2SAPS   O12  149   1.102   3.896   6.626 -0.3810  0.1071  0.2185
    2SAPS   O11  150   1.015   3.958   6.394  0.0361 -0.3033  0.3557
    2SAPS    C1  151   1.129   4.042   6.368  0.6242  0.4374 -0.5223
    2SAPS    HA  152   1.098   4.145   6.395  1.9639  0.2917  1.9327
    2SAPS    HB  153   1.212   4.018   6.438  0.7240 -2.0739 -1.4105
    2SAPS    C2  154   1.176   4.034   6.218 -0.1390 -0.2987 -0.7141
    2SAPS    HS  155   1.265   4.097   6.198  0.0909  0.0651  1.2772
    2SAPS   O21  156   1.069   4.069   6.129  0.3050 -0.4491 -0.1852
    2SAPS   C21  157   1.024   4.192   6.129  0.2625 -0.0271 -0.4631
    2SAPS   O22  158   1.075   4.286   6.186 -0.7605 -0.6480  0.2636
    2SAPS   C22  159   0.895   4.195   6.048 -0.1396  0.7410 -0.0802
    2SAPS   H2R  160   0.854   4.092   6.058  0.0541  0.5922 -0.8063
    2SAPS   H2S  161   0.815   4.251   6.102 -0.9946  0.3446 -0.8988
    2SAPS    C3  162   1.220   3.890   6.180  0.2890  0.0829  0.2092
    2SAPS    HX  163   1.149   3.810   6.210  0.0214  0.7510  1.4392
    2SAPS    HY  164   1.307   3.867   6.245  0.0871 -1.9071 -0.1445
    2SAPS   O31  165   1.249   3.875   6.042 -0.4675 -0.0242  0.3500
    2SAPS   C31  166   1.166   3.813   5.963  1.1445 -0.0133  0.3641
    2SAPS   O32  167   1.049   3.800   5.990  0.0479  0.1353 -0.1229
    2SAPS   C32  168   1.243   3.774   5.830 -0.7829  0.0976  0.0962
    2SAPS   H2X  169   1.190   3.843   5.761  1.3574  2.5353  0.6850
    2SAPS   H2Y  170   1.228   3.665   5.815  2.2261 -0.6785  1.8380
    2SAPS   C23  171   0.905   4.231   5.896  0.4831 -0.3665  0.3648
    2SAPS   H3R  172   0.953   4.331   5.889  1.0568 -0.6295  0.5089
    2SAPS   H3S  173   0.805   4.238   5.847  0.5778  0.0752  0.2311
    2SAPS   C24  174   0.990   4.141   5.805 -0.2922 -0.4174 -0.0034
    2SAPS   H4R  175   1.082   4.130   5.867  1.0434  0.9030 -1.6364
    2SAPS   H4S  176   1.026   4.195   5.715 -0.3918 -1.7141 -0.8335
    2SAPS   C25  177   0.928   4.008   5.770  0.4650 -0.2392 -0.1950
    2SAPS   H5R  178   0.874   3.958   5.852 -1.2999  1.5867 -0.1653
    2SAPS   C26  179   0.925   3.957   5.638  0.2215 -0.0156  0.0217
    2SAPS   H6R  180   0.890   3.856   5.610  2.3049 -0.3995 -1.4024
    2SAPS   C27  181   0.995   4.011   5.516 -0.3291  0.1780  0.7101
    2SAPS   H7R  182   1.047   3.930   5.460  0.7989 -0.0034  1.9685
    2SAPS   H7S  183   1.075   4.084   5.539  0.2544 -0.6821  1.4695
    2SAPS   C28  184   0.901   4.092   5.430 -0.1918 -0.5807  0.0255
    2SAPS   H8R  185   0.857   4.177   5.483 -1.3790 -0.9762 -0.2944
    2SAPS   C29  186   0.864   4.067   5.301  0.0956 -0.2539  0.5692
    2SAPS   H9R  187   0.801   4.136   5.244  0.0638  0.2559  1.2063
    2SAPS  C210  188   0.907   3.949   5.214  0.3809 -0.4743 -0.0153
    2SAPS  H10R  189   0.843   3.865   5.251 -0.2269 -1.5492 -3.1892
    2SAPS  H10S  190   1.012   3.920   5.235 -0.1847 -3.3448 -0.7321
    2SAPS  C211  191   0.880   3.988   5.069 -0.2702 -0.6603  0.0016
    2SAPS  H11R  192   0.959   4.051   5.025 -0.5141 -0.0740  0.3872
    2SAPS  C212  193   0.768   3.958   5.004  0.1513 -1.7431  0.0671
    2SAPS  H12R  194   0.776   3.987   4.898  1.3127 -1.1385  0.3092
    2SAPS  C213  195   0.648   3.884   5.055  0.4411 -0.9056 -0.3268
    2SAPS  H13R  196   0.678   3.806   5.128 -1.3074 -0.5158  0.8653
    2SAPS  H13S  197   0.594   3.835   4.971 -0.1139 -2.0515  0.6757
    2SAPS  C214  198   0.548   3.966   5.129  0.2575 -0.8824 -0.1211
    2SAPS  H14R  199   0.585   3.992   5.229 -1.2709  0.5906  0.0996
    2SAPS  C215  200   0.418   3.990   5.104  0.4184 -0.0502 -0.5671
    2SAPS  H15R  201   0.357   4.046   5.176  1.8488 -0.2592  0.8582
    2SAPS  C216  202   0.335   3.945   4.986  0.1318 -0.0514  0.3601
    2SAPS  H16R  203   0.260   3.867   5.010  0.4189 -0.6759 -0.6919
    2SAPS  H16S  204   0.398   3.901   4.905  3.4192  2.4650  1.2862
    2SAPS  C217  205   0.265   4.075   4.935  0.2172 -0.1313 -0.3574
    2SAPS  H17R  206   0.337   4.159   4.923 -0.9956  0.8745 -0.8992
    2SAPS  H17S  207   0.185   4.094   5.011 -0.5587 -4.0345  0.0103
    2SAPS  C218  208   0.193   4.055   4.799 -0.0558 -0.4591 -0.2494
    2SAPS  H18R  209   0.114   3.978   4.816 -0.3884  0.0242  0.4647
    2SAPS  H18S  210   0.259   4.009   4.723  1.6357 -2.3842  2.2635
    2SAPS  C219  211   0.127   4.179   4.744  0.1989 -0.2324  0.5474
    2SAPS  H19R  212   0.112   4.160   4.636  1.7665  1.7673 -0.0924
    2SAPS  H19S  213   0.198   4.264   4.756  0.2346 -0.1209 -0.3870
    2SAPS  C220  214  -0.007   4.206   4.818 -0.2665  0.0181  0.4899
    2SAPS  H20R  215   0.012   4.214   4.927 -2.2426  3.4339  0.7117
    2SAPS  H20S  216  -0.071   4.118   4.793  1.5388 -2.2482  3.1784
    2SAPS  H20T  217  -0.046   4.307   4.795  0.6649 -0.1508 -2.2597
    2SAPS   C33  218   1.395   3.794   5.817  0.0471 -0.0460  0.2687
    2SAPS   H3X  219   1.431   3.748   5.722  1.1865  0.8107  0.2715
    2SAPS   H3Y  220   1.443   3.739   5.901 -1.8279  0.8786  2.0358
    2SAPS   C34  221   1.450   3.935   5.803 -0.4957  0.7749 -0.2497
    2SAPS   H4X  222   1.560   3.925   5.793 -0.4596  0.1547  0.6683
    2SAPS   H4Y  223   1.432   3.981   5.903 -2.1971 -1.2692  0.4458
    2SAPS   C35  224   1.397   4.006   5.679  0.1514  0.4927 -0.5815
    2SAPS   H5X  225   1.441   4.108   5.678  0.2687  0.4449 -0.3763
    2SAPS   H5Y  226   1.287   4.017   5.691  0.3373  1.0460  0.7056
    2SAPS   C36  227   1.416   3.944   5.545  0.8906 -0.3154  0.2561
    2SAPS   H6X  228   1.360   3.848   5.549 -0.5804  0.4782 -0.2687
    2SAPS   H6Y  229   1.524   3.921   5.536  0.8743 -0.8881  1.3265
    2SAPS   C37  230   1.373   4.031   5.427 -0.3846  0.5869  0.5034
    2SAPS   H7X  231   1.434   4.124   5.427  0.4128  0.3245 -4.6454
    2SAPS   H7Y  232   1.267   4.060   5.443 -0.7895 -0.0742 -0.8462
    2SAPS   C38  233   1.373   3.956   5.293 -0.6791  0.0052  0.0737
    2SAPS   H8X  234   1.329   3.856   5.311  2.6867 -1.8874 -1.2641
    2SAPS   H8Y  235   1.478   3.941   5.260 -1.4228 -0.3390 -2.3548
    2SAPS   C39  236   1.309   4.034   5.177 -0.1493 -0.3857  0.0447
    2SAPS   H9X  237   1.360   4.133   5.171  2.9920 -1.8848  0.1744
    2SAPS   H9Y  238   1.205   4.057   5.207  0.4444  2.3143  0.3457
    2SAPS  C310  239   1.313   3.978   5.035 -0.2363  0.2481  0.3382
    2SAPS  H10X  240   1.257   3.882   5.043 -0.4678  0.1354 -2.0206
    2SAPS  H10Y  241   1.419   3.960   5.007 -0.7225 -0.4257 -1.1731
    2SAPS  C311  242   1.250   4.062   4.922  0.6295 -0.3918 -0.1842
    2SAPS  H11X  243   1.315   4.150   4.903 -0.5347  0.2439 -1.4583
    2SAPS  H11Y  244   1.154   4.101   4.963  0.3555 -1.6042  0.3705
    2SAPS  C312  245   1.226   3.993   4.790  0.1550 -0.3288 -0.0461
    2SAPS  H12X  246   1.215   3.885   4.814  2.1712 -1.0880 -2.2723
    2SAPS  H12Y  247   1.317   4.004   4.728 -0.0737 -1.9926 -0.7161
    2SAPS  C313  248   1.100   4.048   4.714  0.3568  1.0570 -0.3830
    2SAPS  H13X  249   1.109   4.155   4.685 -1.5932  0.2499 -4.8225
    2SAPS  H13Y  250   1.016   4.039   4.786  0.8258  3.1410  0.5170
    2SAPS  C314  251   1.062   3.968   4.582 -0.1925 -0.0434 -0.3113
    2SAPS  H14X  252   1.039   3.862   4.606  1.2159 -0.1399  0.7178
    2SAPS  H14Y  253   1.153   3.976   4.518 -0.5794 -2.2591 -1.2393
    2SAPS  C315  254   0.957   4.053   4.499 -0.1809 -0.2407 -0.9115
    2SAPS  H15X  255   0.954   4.020   4.393  0.9980  1.1030 -1.3852
    2SAPS  H15Y  256   0.991   4.158   4.487 -0.7889 -0.0184 -0.7351
    2SAPS  C316  257   0.816   4.046   4.562  0.6660 -0.7939  0.3988
    2SAPS  H16X  258   0.796   4.130   4.633 -0.3984  0.4097 -1.2486
    2SAPS  H16Y  259   0.797   3.944   4.603 -0.3940 -1.0697 -0.7255
    2SAPS  C317  260   0.704   4.061   4.449  0.1750 -0.1163  0.3031
    2SAPS  H17X  261   0.744   4.010   4.359 -0.1088  0.4131 -0.1241
    2SAPS  H17Y  262   0.718   4.165   4.413  2.3542 -0.8204 -1.0777
    2SAPS  C318  263   0.561   4.017   4.488  0.1390  0.2277 -0.1317
    2SAPS  H18X  264   0.487   4.022   4.405 -0.3735 -0.1869  0.2986
    2SAPS  H18Y  265   0.515   4.078   4.569 -0.7642 -1.2462  0.4942
    2SAPS  H18Z  266   0.564   3.911   4.519  2.4668  0.5168  0.8069
    3SAPS     N  267   5.179   1.775   6.591  0.4676 -0.2769 -0.4773
    3SAPS   HN1  268   5.099   1.744   6.650  0.5647 -0.7093 -0.5705
    3SAPS   HN2  269   5.143   1.797   6.496  0.1397 -0.9691 -0.5227
    3SAPS   HN3  270   5.238   1.689   6.584 -1.3640 -1.7703  1.0719
    3SAPS   C12  271   5.249   1.893   6.650  0.0257 -0.0692  0.1776
    3SAPS  H12A  272   5.185   1.980   6.639 -1.3603 -1.1269 -0.5036
    3SAPS   C13  273   5.282   1.867   6.803  0.7927 -0.4581  0.2763
    3SAPS  O13A  274   5.244   1.765   6.862 -0.1632 -0.3091 -0.7078
    3SAPS  O13B  275   5.316   1.968   6.872  0.0678 -0.0597 -0.2498
    3SAPS   C11  276   5.383   1.921   6.586  0.1117 -0.5694  0.1964
    3SAPS  H11A  277   5.448   1.832   6.600  0.1618 -0.5861 -0.1509
    3SAPS  H11B  278   5.427   1.999   6.651 -1.6395  0.4595  0.2215
    3SAPS     P  279   5.483   2.048   6.386 -0.0569 -0.2546 -0.0494
    3SAPS   O13  280   5.468   2.182   6.438 -0.3657  0.0223 -0.4124
    3SAPS   O14  281   5.616   1.983   6.394 -0.6220 -0.9163 -0.1215
    3SAPS   O12  282   5.378   1.952   6.444 -0.0033 -0.2407 -0.2300
    3SAPS   O11  283   5.437   2.041   6.236  0.2079 -0.2414  0.0034
    3SAPS    C1  284   5.331   2.117   6.175 -0.5567  0.6168  0.0430
    3SAPS    HA  285   5.320   2.221   6.214 -1.6007  0.6280 -0.2713
    3SAPS    HB  286   5.346   2.116   6.065 -0.6793 -1.1668  0.0254
    3SAPS    C2  287   5.199   2.035   6.193 -0.8613  0.1066 -0.6461
    3SAPS    HS  288   5.192   2.038   6.304  0.9022  1.2637 -0.5140
    3SAPS   O21  289   5.219   1.907   6.137 -0.3832  0.1115 -0.1849
    3SAPS   C21  290   5.159   1.810   6.205  0.4639 -0.6782 -0.1292
    3SAPS   O22  291   5.093   1.826   6.308  0.5018 -0.0124  0.7408
    3SAPS   C22  292   5.172   1.686   6.123 -0.4447 -0.1610 -0.3023
    3SAPS   H2R  293   5.106   1.707   6.036 -0.1424  2.5504  0.0223
    3SAPS   H2S  294   5.273   1.691   6.076 -0.6433 -0.2891 -0.7443
    3SAPS    C3  295   5.077   2.103   6.141 -0.4332 -0.1932 -0.6762
    3SAPS    HX  296   5.075   2.200   6.195 -0.1391  0.4152 -1.7388
    3SAPS    HY  297   4.985   2.043   6.156 -0.4258 -0.3504 -1.2340
    3SAPS   O31  298   5.084   2.145   6.002 -0.2036  0.3726  0.8112
    3SAPS   C31  299   5.063   2.044   5.908 -0.0692 -0.7158 -0.0738
    3SAPS   O32  300   5.027   1.932   5.933  0.3871 -0.0769 -0.0593
    3SAPS   C32  301   5.116   2.089   5.769  0.2014 -0.0016  0.6722
    3SAPS   H2X  302   5.220   2.122   5.788  0.0958  0.7822 -0.0614
    3SAPS   H2Y  303   5.044   2.163   5.726 -1.6851 -1.7232  0.6760
    3SAPS   C23  304   5.151   1.551   6.197  0.6913  0.1255  0.1258
    3SAPS   H3R  305   5.066   1.559   6.267  0.5707 -0.5016  0.0572
    3SAPS   H3S  306   5.236   1.547   6.270  0.0980 -0.7040  0.7906
    3SAPS   C24  307   5.141   1.430   6.103  0.3807 -0.1330 -0.2758
    3SAPS   H4R  308   5.228   1.437   6.035 -0.8996  0.1963 -1.9476
    3SAPS   H4S  309   5.059   1.458   6.034 -0.1420  2.7649  1.3604
    3SAPS   C25  310   5.133   1.298   6.177 -0.6874 -0.1749 -0.1222
    3SAPS   H5R  311   5.229   1.271   6.225 -0.2094  1.8080  0.1281
    3SAPS   C26  312   5.034   1.211   6.188  0.8405  0.1826  0.0713
    3SAPS   H6R  313   5.044   1.119   6.247  0.0536  0.5868  0.8521
    3SAPS   C27  314   4.886   1.241   6.143 -0.3443 -0.0707 -0.2187
    3SAPS   H7R  315   4.865   1.337   6.092  0.8311 -0.1666 -0.9322
    3SAPS   H7S  316   4.829   1.240   6.238  3.3413 -0.4052  2.2051
    3SAPS   C28  317   4.849   1.117   6.057 -0.2084  0.2680 -0.0682
    3SAPS   H8R  318   4.870   1.018   6.101 -0.3797  0.3928  0.2990
    3SAPS   C29  319   4.784   1.125   5.933 -0.5562  0.3175 -0.0521
    3SAPS   H9R  320   4.769   1.029   5.880  2.4257 -0.3110  0.0415
    3SAPS  C210  321   4.748   1.250   5.858 -0.0019 -0.1736  0.1680
    3SAPS  H10R  322   4.797   1.340   5.900 -2.8514  1.4298  0.3193
    3SAPS  H10S  323   4.644   1.283   5.878  0.3818  1.4952 -0.3668
    3SAPS  C211  324   4.800   1.243   5.717  0.7957 -1.0466  0.0491
    3SAPS  H11R  325   4.909   1.239   5.700  0.9674 -0.6893  1.0276
    3SAPS  C212  326   4.721   1.275   5.610  0.5104 -0.6198  0.2603
    3SAPS  H12R  327   4.759   1.275   5.507 -0.9355  0.2321 -0.2989
    3SAPS  C213  328   4.567   1.298   5.608  0.6648 -0.0686  0.1988
    3SAPS  H13R  329   4.524   1.273   5.707  3.5957  0.4370  1.7397
    3SAPS  H13S  330   4.525   1.232   5.529  0.3443  0.1047  0.2245
    3SAPS  C214  331   4.532   1.438   5.566 -0.0649 -0.2403 -0.1101
    3SAPS  H14R  332   4.592   1.476   5.482  0.0454  0.5014  0.2965
    3SAPS  C215  333   4.442   1.516   5.633 -0.0604  0.1350  0.5794
    3SAPS  H15R  334   4.437   1.621   5.602  3.3611  0.2468 -0.0881
    3SAPS  C216  335   4.365   1.482   5.756 -0.8081 -0.2062  0.7820
    3SAPS  H16R  336   4.362   1.374   5.780 -1.0178 -0.7861 -1.6357
    3SAPS  H16S  337   4.260   1.513   5.736 -1.3266 -1.6151  1.2230
    3SAPS  C217  338   4.416   1.556   5.882  0.2715  0.6965  1.0007
    3SAPS  H17R  339   4.354   1.526   5.969  0.4025  0.3622  0.9833
    3SAPS  H17S  340   4.412   1.667   5.876  2.6804  0.8535  1.1379
    3SAPS  C218  341   4.563   1.534   5.932 -0.0202 -0.0993 -0.2243
    3SAPS  H18R  342   4.627   1.486   5.854 -2.9514 -2.8257 -1.1645
    3SAPS  H18S  343   4.563   1.464   6.019  0.7262  1.1512  0.8070
    3SAPS  C219  344   4.637   1.660   5.982 -0.4929  0.1674  0.3699
    3SAPS  H19R  345   4.653   1.717   5.888 -2.2724  1.3589  0.7348
    3SAPS  H19S  346   4.574   1.716   6.054 -1.1701  1.7957 -1.4293
    3SAPS  C220  347   4.771   1.631   6.046  0.4588 -0.4979 -0.3244
    3SAPS  H20R  348   4.842   1.576   5.979  0.5465  1.1810 -1.6795
    3SAPS  H20S  349   4.766   1.567   6.137 -0.1054 -1.2861 -0.8943
    3SAPS  H20T  350   4.825   1.726   6.064  0.4905 -0.7842  1.1708
    3SAPS   C33  351   5.113   1.971   5.660 -0.0838  0.7792  0.0953
    3SAPS   H3X  352   5.007   1.939   5.660 -0.2886  1.4271 -1.1316
    3SAPS   H3Y  353   5.172   1.885   5.698  0.7817  0.7590 -1.2447
    3SAPS   C34  354   5.155   2.021   5.520 -0.5322 -0.2492  0.7586
    3SAPS   H4X  355   5.157   1.944   5.439 -0.9923  1.2365 -0.7301
    3SAPS   H4Y  356   5.254   2.072   5.526 -0.9713  0.4422  3.0752
    3SAPS   C35  357   5.060   2.133   5.460 -0.4297  0.2116  0.0409
    3SAPS   H5X  358   4.954   2.112   5.489 -0.2867  2.0932  2.3257
    3SAPS   H5Y  359   5.072   2.236   5.500  1.1354 -0.5120  1.5546
    3SAPS   C36  360   5.078   2.143   5.303 -0.2790  0.9472  0.4737
    3SAPS   H6X  361   5.071   2.041   5.260  0.1617  0.0491  2.4453
    3SAPS   H6Y  362   5.176   2.181   5.269 -1.4671  1.7294 -2.3805
    3SAPS   C37  363   4.965   2.238   5.249 -0.1377 -0.2367 -0.4743
    3SAPS   H7X  364   4.970   2.334   5.305  1.1299 -1.7745  2.2166
    3SAPS   H7Y  365   4.866   2.190   5.264  0.9060 -1.6755  2.5993
    3SAPS   C38  366   4.993   2.277   5.103 -0.0462 -0.4835  0.8717
    3SAPS   H8X  367   4.990   2.180   5.047 -0.1272 -0.6707  1.2008
    3SAPS   H8Y  368   5.089   2.331   5.100 -0.5716  0.4408 -0.3018
    3SAPS   C39  369   4.884   2.373   5.051  0.5540 -0.2977  0.0390
    3SAPS   H9X  370   4.897   2.464   5.112  1.2727  0.3640 -1.0611
    3SAPS   H9Y  371   4.783   2.330   5.071  1.2715 -2.1480 -0.0665
    3SAPS  C310  372   4.901   2.390   4.899 -0.3721 -0.4229  0.1225
    3SAPS  H10X  373   5.001   2.425   4.866 -1.0021 -0.8219 -2.4379
    3SAPS  H10Y  374   4.829   2.468   4.866 -0.6754 -1.0186 -0.6332
    3SAPS  C311  375   4.845   2.271   4.820 -0.0495 -0.3854 -0.0512
    3SAPS  H11X  376   4.745   2.237   4.855 -1.7298  2.3131 -1.7943
    3SAPS  H11Y  377   4.910   2.183   4.836  0.0457 -0.2171  0.5102
    3SAPS  C312  378   4.859   2.278   4.665 -0.1929  0.3626  0.4161
    3SAPS  H12X  379   4.961   2.305   4.633 -0.1311 -1.0310 -0.6037
    3SAPS  H12Y  380   4.802   2.364   4.622 -1.9056 -1.4556 -1.1408
    3SAPS  C313  381   4.818   2.147   4.595  0.6754  0.4753  0.2379
    3SAPS  H13X  382   4.717   2.119   4.633 -0.0848  1.0733 -1.2600
    3SAPS  H13Y  383   4.900   2.075   4.613  2.0664  1.9338 -0.0158
    3SAPS  C314  384   4.799   2.169   4.446  0.4752 -0.1828  0.7308
    3SAPS  H14X  385   4.896   2.179   4.393  0.4394  0.5937  0.8065
    3SAPS  H14Y  386   4.732   2.257   4.435 -0.8269 -1.3615 -1.8666
    3SAPS  C315  387   4.736   2.042   4.378 -0.1888  0.3569  1.0968
    3SAPS  H15X  388   4.820   1.970   4.382 -0.3629  0.0184 -0.4899
    3SAPS  H15Y  389   4.713   2.073   4.273  0.8424  0.4230  0.8843
    3SAPS  C316  390   4.613   1.978   4.433  0.0853 -0.2420 -0.2042
    3SAPS  H16X  391   4.526   2.046   4.441 -0.3076 -0.7486 -0.1092
    3SAPS  H16Y  392   4.620   1.945   4.539 -1.1434  0.1423  0.0120
    3SAPS  C317  393   4.555   1.859   4.357  0.0041 -0.0579  0.3350
    3SAPS  H17X  394   4.623   1.771   4.357 -0.7701 -0.7096 -1.2637
    3SAPS  H17Y  395   4.544   1.895   4.252  0.7576  0.8453  0.5619
    3SAPS  C318  396   4.428   1.806   4.421  1.0077 -1.0876  0.7698
    3SAPS  H18X  397   4.374   1.718   4.380 -1.2004  0.9862 -1.0528
    3SAPS  H18Y  398   4.356   1.890   4.419  0.3613 -1.6293 -1.0583
    3SAPS  H18Z  399   4.459   1.781   4.525 -1.4870  2.5171  2.5673
    4SAPS     N  400   6.103   0.137   5.967  0.5466 -0.0881 -0.1661
    4SAPS   HN1  401   6.149   0.111   5.877 -3.2820 -2.6596 -1.6045
    4SAPS   HN2  402   6.079   0.238   5.975 -1.3241 -0.6681  2.8868
    4SAPS   HN3  403   6.168   0.105   6.042  0.3428 -1.3737 -0.5183
    4SAPS   C12  404   5.982   0.049   6.001 -0.6872 -0.0030 -0.0328
    4SAPS  H12A  405   5.991  -0.052   5.962 -1.4067  0.0435 -0.3379
    4SAPS   C13  406   5.957   0.043   6.151  0.1224  0.1738 -0.9971
    4SAPS  O13A  407   6.037   0.087   6.241  0.9934 -0.3375  0.3711
    4SAPS  O13B  408   5.871  -0.044   6.191  0.1917  0.1469  0.9645
    4SAPS   C11  409   5.857   0.112   5.924  0.3327 -0.3303  0.3839
    4SAPS  H11A  410   5.858   0.222   5.939 -0.6317 -0.0595 -1.2894
    4SAPS  H11B  411   5.762   0.068   5.963 -0.2123  1.4856  1.2476
    4SAPS     P  412   5.807  -0.037   5.710 -0.2628 -0.2965  0.1231
    4SAPS   O13  413   5.893  -0.058   5.592 -0.0464  0.0025 -0.2914
    4SAPS   O14  414   5.796  -0.155   5.796 -0.0939  0.1162 -0.2176
    4SAPS   O12  415   5.862   0.098   5.783  0.0725 -0.0081 -0.0283
    4SAPS   O11  416   5.666  -0.003   5.648 -0.3461 -0.5291  0.3220
    4SAPS    C1  417   5.642   0.143   5.604 -0.0213  1.0532 -0.9397
    4SAPS    HA  418   5.556   0.178   5.665  0.4437  0.5875 -0.0053
    4SAPS    HB  419   5.721   0.220   5.620 -0.4662  1.4166 -0.4552
    4SAPS    C2  420   5.609   0.164   5.453 -0.4669  0.1827  0.5961
    4SAPS    HS  421   5.570   0.266   5.431  0.0327  0.1319 -0.6361
    4SAPS   O21  422   5.518   0.072   5.394  0.4664  0.4534  0.2718
    4SAPS   C21  423   5.397   0.080   5.447 -0.0688  0.0182 -0.1507
    4SAPS   O22  424   5.355   0.163   5.527 -0.5046  0.5081  0.1900
    4SAPS   C22  425   5.321  -0.037   5.397 -0.0370  0.3992  0.4181
    4SAPS   H2R  426   5.376  -0.087   5.315  0.5009 -1.1178  1.6453
    4SAPS   H2S  427   5.300  -0.109   5.479  2.4964 -0.4367  0.4062
    4SAPS    C3  428   5.740   0.165   5.374  0.2014  0.3980 -0.2167
    4SAPS    HX  429   5.764   0.061   5.345 -1.1663  0.2660 -0.9422
    4SAPS    HY  430   5.833   0.201   5.424  0.8336  1.5400 -2.1006
    4SAPS   O31  431   5.720   0.244   5.254 -0.0319  0.1649 -0.0395
    4SAPS   C31  432   5.832   0.268   5.189 -0.2060  0.3371 -0.4793
    4SAPS   O32  433   5.941   0.211   5.201  0.4756  0.3531 -0.1769
    4SAPS   C32  434   5.807   0.374   5.083  0.1737  0.5019  0.0394
    4SAPS   H2X  435   5.746   0.452   5.133 -0.8306  0.1027 -0.5393
    4SAPS   H2Y  436   5.755   0.329   4.996  2.3997 -1.6298 -0.3142
    4SAPS   C23  437   5.191   0.010   5.330  0.1081  0.5475 -0.2932
    4SAPS   H3R  438   5.140   0.090   5.389 -0.4579 -0.2757  0.3596
    4SAPS   H3S  439   5.117  -0.073   5.327 -1.3000  1.7630 -1.6284
    4SAPS   C24  440   5.205   0.042   5.181  0.0963 -0.5048  0.7018
    4SAPS   H4R  441   5.268   0.134   5.184 -1.2319  0.4494  0.5197
    4SAPS   H4S  442   5.118   0.093   5.134  3.4070  2.2923 -3.1564
    4SAPS   C25  443   5.250  -0.065   5.082 -0.5145  0.0946 -0.8578
    4SAPS   H5R  444   5.167  -0.130   5.052  0.5906 -1.6413 -0.3258
    4SAPS   C26  445   5.365  -0.065   5.011 -1.0499  0.2339  0.2865
    4SAPS   H6R  446   5.386  -0.142   4.935  1.4638  1.4443 -0.3485
    4SAPS   C27  447   5.484   0.025   5.023  0.3490 -0.0350  0.3576
    4SAPS   H7R  448   5.578  -0.029   5.049  0.7201  0.1730 -0.5086
    4SAPS   H7S  449   5.483   0.082   5.119  0.9033 -2.1072  1.6706
    4SAPS   C28  450   5.519   0.102   4.900 -0.0241  0.5572  0.4438
    4SAPS   H8R  451   5.433   0.153   4.854 -2.0053 -1.8867  1.1963
    4SAPS   C29  452   5.638   0.102   4.837 -0.7932  0.2088  0.1170
    4SAPS   H9R  453   5.666   0.173   4.757 -0.5373  0.4727  0.4357
    4SAPS  C210  454   5.762   0.023   4.884  0.3678 -0.4149 -0.0678
    4SAPS  H10R  455   5.773   0.026   4.994 -1.2310  1.2705  0.1029
    4SAPS  H10S  456   5.851   0.072   4.839 -0.3282  0.6346 -0.3301
    4SAPS  C211  457   5.756  -0.122   4.845  0.1810 -0.0616  0.3886
    4SAPS  H11R  458   5.742  -0.190   4.930  0.4589 -2.0956 -1.1183
    4SAPS  C212  459   5.773  -0.162   4.714 -0.5865 -0.5701 -0.3466
    4SAPS  H12R  460   5.775  -0.270   4.696 -2.0799 -0.2953 -2.5988
    4SAPS  C213  461   5.800  -0.076   4.591 -0.3994 -0.1689  0.2790
    4SAPS  H13R  462   5.910  -0.064   4.580 -0.5138  0.2863 -0.4369
    4SAPS  H13S  463   5.763   0.027   4.611 -0.3197 -0.0141 -0.3607
    4SAPS  C214  464   5.742  -0.136   4.459 -0.0840 -0.1974  0.4396
    4SAPS  H14R  465   5.784  -0.230   4.420 -2.1595 -0.4324 -1.4203
    4SAPS  C215  466   5.660  -0.074   4.370  0.2292 -0.2465  0.5278
    4SAPS  H15R  467   5.615  -0.118   4.280 -0.9183  2.6273 -0.4338
    4SAPS  C216  468   5.603   0.065   4.386 -0.6767  0.7181  0.5924
    4SAPS  H16R  469   5.636   0.134   4.306  1.9922 -0.6590  0.3816
    4SAPS  H16S  470   5.651   0.103   4.479  1.3297 -0.9013  0.3006
    4SAPS  C217  471   5.448   0.073   4.394 -0.3493 -0.0748  0.6237
    4SAPS  H17R  472   5.422   0.049   4.499  2.5133 -1.6547  1.0672
    4SAPS  H17S  473   5.397  -0.001   4.327 -1.6917  1.2242  0.1545
    4SAPS  C218  474   5.405   0.211   4.337  0.5255 -0.6679 -0.0738
    4SAPS  H18R  475   5.438   0.223   4.232  0.4747  1.8892  0.1336
    4SAPS  H18S  476   5.469   0.285   4.390  0.6691  0.0528 -1.2209
    4SAPS  C219  477   5.255   0.231   4.348  0.4082 -1.1016 -0.0193
    4SAPS  H19R  478   5.235   0.338   4.324 -0.9299 -1.8645 -2.7069
    4SAPS  H19S  479   5.222   0.220   4.454  2.5604  0.3587  0.8573
    4SAPS  C220  480   5.165   0.150   4.254  0.1856 -0.0275  0.2163
    4SAPS  H20R  481   5.055   0.163   4.256  0.1373  0.7272 -2.8896
    4SAPS  H20S  482   5.178   0.040   4.262  0.3131  0.0417  1.2154
    4SAPS  H20T  483   5.213   0.174   4.157 -0.1712  0.3855  0.1402
    4SAPS   C33  484   5.928   0.440   5.027  0.1986 -0.7049 -0.1107
    4SAPS   H3X  485   5.996   0.465   5.111 -1.0690  1.8743  0.2428
    4SAPS   H3Y  486   5.903   0.534   4.973 -0.0711 -0.6191  0.1544
    4SAPS   C34  487   6.010   0.346   4.937 -0.5949 -0.4004 -0.5096
    4SAPS   H4X  488   6.009   0.237   4.963 -1.4563 -0.3712 -0.3941
    4SAPS   H4Y  489   6.118   0.370   4.938 -0.7312  0.2131 -0.2762
    4SAPS   C35  490   5.978   0.360   4.787 -0.0168 -0.0601  0.1503
    4SAPS   H5X  491   5.981   0.465   4.750 -0.2452 -0.4645 -1.0520
    4SAPS   H5Y  492   5.877   0.320   4.761  0.2903  0.2959 -1.7401
    4SAPS   C36  493   6.077   0.282   4.694  0.3294  0.5990 -0.5567
    4SAPS   H6X  494   6.064   0.177   4.729 -1.7378  1.6452  2.1281
    4SAPS   H6Y  495   6.183   0.297   4.721  0.1474 -0.0590  0.5766
    4SAPS   C37  496   6.045   0.295   4.543  0.2510 -0.2239 -1.2905
    4SAPS   H7X  497   5.937   0.287   4.516  0.3161 -1.1471 -1.3404
    4SAPS   H7Y  498   6.094   0.204   4.500 -2.5140 -1.4883 -1.9991
    4SAPS   C38  499   6.117   0.417   4.487 -0.2274 -0.5093  0.5963
    4SAPS   H8X  500   6.088   0.512   4.538 -1.6102 -0.4692 -0.2113
    4SAPS   H8Y  501   6.083   0.428   4.382 -1.9749 -0.4099  1.1385
    4SAPS   C39  502   6.270   0.404   4.484 -0.3066 -0.2449  0.2796
    4SAPS   H9X  503   6.296   0.455   4.579 -1.4666  1.8874 -0.4780
    4SAPS   H9Y  504   6.302   0.484   4.414 -1.6422 -1.0354 -1.2847
    4SAPS  C310  505   6.332   0.270   4.467 -0.1442 -0.3742 -0.3836
    4SAPS  H10X  506   6.275   0.214   4.390 -0.1890 -0.8205 -0.0301
    4SAPS  H10Y  507   6.307   0.216   4.561 -1.9015  1.3061  0.1755
    4SAPS  C311  508   6.481   0.270   4.450  0.2875  0.0091 -0.6457
    4SAPS  H11X  509   6.525   0.294   4.549 -0.7416  1.2239 -0.4577
    4SAPS  H11Y  510   6.511   0.353   4.382  2.3662 -0.0268  0.1580
    4SAPS  C312  511   6.538   0.140   4.401  0.3417  0.2007  0.0889
    4SAPS  H12X  512   6.484   0.057   4.452  0.3333 -0.2239 -0.6078
    4SAPS  H12Y  513   6.643   0.137   4.437  0.8019 -0.2677 -1.2489
    4SAPS  C313  514   6.532   0.133   4.243 -0.3417 -0.4852  0.2168
    4SAPS  H13X  515   6.594   0.217   4.205 -2.5655  0.8418 -0.6895
    4SAPS  H13Y  516   6.428   0.146   4.207 -1.1599 -0.5984  2.4168
    4SAPS  C314  517   6.597   0.001   4.188  0.5581 -0.1055 -0.5115
    4SAPS  H14X  518   6.543  -0.089   4.224  0.2895  0.2475 -0.0091
    4SAPS  H14Y  519   6.702  -0.013   4.223  0.2448 -2.9309 -0.4772
    4SAPS  C315  520   6.615   0.004   4.031  0.5072  0.6350  0.2918
    4SAPS  H15X  521   6.699  -0.064   4.007 -0.6336 -1.2442  1.3498
    4SAPS  H15Y  522   6.653   0.098   3.987  0.3255  0.5650 -0.0183
    4SAPS  C316  523   6.485  -0.045   3.956 -0.2368 -0.3391 -0.3912
    4SAPS  H16X  524   6.401   0.023   3.985 -0.8727 -1.9757  1.9240
    4SAPS  H16Y  525   6.465  -0.150   3.987  0.7590 -0.0771  1.2311
    4SAPS  C317  526   6.511  -0.042   3.805 -0.3509 -0.2405  0.5474
    4SAPS  H17X  527   6.618  -0.068   3.790  0.5976  3.7368 -0.7314
    4SAPS  H17Y  528   6.506   0.060   3.761 -0.7611 -0.7411 -0.6280
    4SAPS  C318  529   6.416  -0.127   3.717 -0.4343  0.4417  0.3246
    4SAPS  H18X  530   6.423  -0.237   3.731  0.6373  0.4241 -0.2959
    4SAPS  H18Y  531   6.428  -0.099   3.610  1.3377  2.3284  0.9533
    4SAPS  H18Z  532   6.311  -0.104   3.747  0.4713  1.6164  2.8972
    5SAPS     N  533   0.872   2.125   6.985  0.1843  0.1507  0.0051
    5SAPS   HN1  534   0.958   2.147   7.039 -0.9288  1.1162  1.4558
    5SAPS   HN2  535   0.865   2.190   6.903  1.3997  0.0840 -0.1793
    5SAPS   HN3  536   0.790   2.153   7.042 -0.8089  0.1856 -1.3785
    5SAPS   C12  537   0.850   1.985   6.937  0.3880 -0.0067 -0.4459
    5SAPS  H12A  538   0.938   1.949   6.886 -0.3115  0.1239 -1.7955
    5SAPS   C13  539   0.820   1.894   7.054 -0.1270 -0.3263 -0.8277
    5SAPS  O13A  540   0.772   1.938   7.159  0.7853 -0.0137  0.3248
    5SAPS  O13B  541   0.800   1.772   7.025 -0.1298  0.3179 -0.2808
    5SAPS   C11  542   0.727   1.971   6.833  0.0995 -0.1822  0.1345
    5SAPS  H11A  543   0.636   2.017   6.877 -1.3326 -1.5329 -1.2855
    5SAPS  H11B  544   0.700   1.865   6.815 -1.2234  0.2878 -0.8310
    5SAPS     P  545   0.838   1.947   6.600 -0.1483 -0.1309  0.1916
    5SAPS   O13  546   0.836   2.018   6.473 -0.7966  0.0750 -0.0263
    5SAPS   O14  547   0.971   1.914   6.650  0.1663 -0.4153  0.1978
    5SAPS   O12  548   0.764   2.038   6.710 -0.3904  0.3084  0.1790
    5SAPS   O11  549   0.759   1.807   6.586 -0.9719 -0.5347 -0.3369
    5SAPS    C1  550   0.643   1.807   6.498 -0.0181  0.0812  0.2448
    5SAPS    HA  551   0.574   1.750   6.564  1.3320  0.2509  1.8684
    5SAPS    HB  552   0.591   1.904   6.483  1.0036  0.3065 -2.3192
    5SAPS    C2  553   0.651   1.743   6.358 -0.4220  0.5279 -0.5384
    5SAPS    HS  554   0.550   1.710   6.326 -0.3937 -2.1161  1.7345
    5SAPS   O21  555   0.750   1.636   6.357 -0.0469  0.0528 -0.3439
    5SAPS   C21  556   0.761   1.538   6.454  0.2811  0.0039  0.0306
    5SAPS   O22  557   0.677   1.509   6.535 -0.2220 -0.0894 -0.0929
    5SAPS   C22  558   0.908   1.482   6.455  0.5989  0.6415 -0.1295
    5SAPS   H2R  559   0.954   1.501   6.356  1.2183  1.5431  0.3159
    5SAPS   H2S  560   0.953   1.544   6.535  0.7327  1.7489 -1.0433
    5SAPS    C3  561   0.699   1.841   6.249 -0.5710 -0.1022  0.2679
    5SAPS    HX  562   0.805   1.860   6.274 -0.2032 -2.1201  0.3962
    5SAPS    HY  563   0.645   1.936   6.272  1.3721  1.3843 -1.0801
    5SAPS   O31  564   0.682   1.801   6.114 -0.5505 -0.5706 -0.0448
    5SAPS   C31  565   0.719   1.893   6.027  0.7473  0.9762 -0.0178
    5SAPS   O32  566   0.785   1.994   6.054  0.4406 -0.0761  0.1030
    5SAPS   C32  567   0.681   1.857   5.883  0.1411 -0.0937 -0.2819
    5SAPS   H2X  568   0.578   1.894   5.866  0.4235  1.1665  0.5658
    5SAPS   H2Y  569   0.671   1.747   5.878 -1.6629  0.0204  0.0176
    5SAPS   C23  570   0.926   1.331   6.494 -0.3908  0.1128  0.2739
    5SAPS   H3R  571   0.859   1.278   6.564 -1.5288 -1.4704 -1.8858
    5SAPS   H3S  572   1.028   1.327   6.538  1.0855 -0.9627 -2.9301
    5SAPS   C24  573   0.919   1.248   6.365 -0.5730  0.8494 -0.3071
    5SAPS   H4R  574   0.957   1.149   6.397  0.5706  2.1391  2.7293
    5SAPS   H4S  575   0.992   1.290   6.292 -0.4769  0.0021 -0.7120
    5SAPS   C25  576   0.778   1.232   6.317 -0.1262 -0.2684  0.0445
    5SAPS   H5R  577   0.713   1.186   6.392  0.7633  3.7728  3.7403
    5SAPS   C26  578   0.727   1.266   6.200  0.1645  0.3798 -0.1067
    5SAPS   H6R  579   0.625   1.235   6.175  0.4264 -0.7534  0.1883
    5SAPS   C27  580   0.803   1.324   6.084  0.2477 -0.1491  0.6184
    5SAPS   H7R  581   0.849   1.243   6.023 -0.6015 -1.2938  1.4446
    5SAPS   H7S  582   0.876   1.398   6.122  0.9353  0.1018 -1.1031
    5SAPS   C28  583   0.715   1.412   5.997  0.4826 -0.5323 -0.0544
    5SAPS   H8R  584   0.694   1.517   6.025 -0.6216  0.3442 -3.6115
    5SAPS   C29  585   0.665   1.379   5.879  0.0664  0.2797  0.5404
    5SAPS   H9R  586   0.616   1.457   5.819 -1.4304 -1.3389 -0.4499
    5SAPS  C210  587   0.680   1.248   5.799 -0.3072 -0.6942 -0.1174
    5SAPS  H10R  588   0.770   1.195   5.838  1.0208  1.5754  0.0578
    5SAPS  H10S  589   0.709   1.283   5.698  0.7507 -1.0064  0.0681
    5SAPS  C211  590   0.548   1.182   5.800  0.3190  0.1066  0.3920
    5SAPS  H11R  591   0.499   1.170   5.898  0.9485 -0.5304  0.6347
    5SAPS  C212  592   0.503   1.112   5.696 -0.7147 -0.5006 -0.4596
    5SAPS  H12R  593   0.402   1.069   5.699 -0.0324 -2.1214  0.5031
    5SAPS  C213  594   0.555   1.083   5.559  0.2158 -0.3511 -0.2141
    5SAPS  H13R  595   0.648   1.140   5.535 -0.1615  0.4392  0.1902
    5SAPS  H13S  596   0.471   1.113   5.493  0.5299 -0.1130 -0.5132
    5SAPS  C214  597   0.591   0.938   5.530  0.1114  0.6619  0.3678
    5SAPS  H14R  598   0.651   0.890   5.609  1.0743  0.0906 -0.6819
    5SAPS  C215  599   0.546   0.850   5.432 -0.2980 -0.1876  0.4222
    5SAPS  H15R  600   0.581   0.745   5.432 -0.2007 -0.1586 -0.5697
    5SAPS  C216  601   0.464   0.886   5.318  0.6619 -0.5005 -0.3179
    5SAPS  H16R  602   0.450   0.996   5.307  0.9550 -0.6551 -2.6019
    5SAPS  H16S  603   0.361   0.845   5.327 -0.0684  1.2313 -0.2193
    5SAPS  C217  604   0.521   0.836   5.184  0.1476 -0.4518  0.3642
    5SAPS  H17R  605   0.506   0.726   5.182  1.6600 -0.6875  0.6716
    5SAPS  H17S  606   0.629   0.855   5.166 -0.6781  1.9934 -3.0416
    5SAPS  C218  607   0.451   0.884   5.054 -0.0231 -0.5561  1.0413
    5SAPS  H18R  608   0.353   0.833   5.042 -0.1861 -0.0631  0.2519
    5SAPS  H18S  609   0.518   0.850   4.972 -1.3114  0.8846 -0.6605
    5SAPS  C219  610   0.440   1.034   5.035  0.2459 -0.8465 -0.5904
    5SAPS  H19R  611   0.545   1.069   5.039 -0.7644  2.4181  1.2098
    5SAPS  H19S  612   0.376   1.075   5.116  0.9431  0.7475 -0.8222
    5SAPS  C220  613   0.368   1.075   4.908 -0.2675 -0.1615 -0.2964
    5SAPS  H20R  614   0.435   1.051   4.822 -0.2140 -0.1523 -0.2579
    5SAPS  H20S  615   0.357   1.186   4.904  0.1754 -0.1427 -1.2464
    5SAPS  H20T  616   0.267   1.030   4.896 -1.4818  2.1614  0.5584
    5SAPS   C33  617   0.784   1.908   5.769  0.0985 -0.6685  0.2673
    5SAPS   H3X  618   0.881   1.856   5.785  2.0115  2.2993 -0.8468
    5SAPS   H3Y  619   0.795   2.018   5.776 -1.7034 -0.4834  0.6792
    5SAPS   C34  620   0.736   1.871   5.630  0.0999 -1.1562 -0.6904
    5SAPS   H4X  621   0.637   1.922   5.624  0.8994  0.3332 -2.2159
    5SAPS   H4Y  622   0.732   1.760   5.634 -1.7141 -1.1142 -0.4411
    5SAPS   C35  623   0.835   1.912   5.520 -0.3013 -0.6711  0.4149
    5SAPS   H5X  624   0.929   1.853   5.518  0.4736  0.5102 -2.1746
    5SAPS   H5Y  625   0.875   2.015   5.530 -1.0348 -0.2480 -0.7568
    5SAPS   C36  626   0.770   1.905   5.377  0.3061 -0.4369  0.4714
    5SAPS   H6X  627   0.662   1.882   5.382  0.2537 -0.2562  0.2025
    5SAPS   H6Y  628   0.813   1.824   5.313 -1.3938 -1.4222  0.5346
    5SAPS   C37  629   0.793   2.035   5.301  0.6669 -0.3673  0.5947
    5SAPS   H7X  630   0.903   2.045   5.288  0.8541 -2.0539  0.6240
    5SAPS   H7Y  631   0.752   2.121   5.357  2.6185 -0.2537  1.9459
    5SAPS   C38  632   0.736   2.035   5.156  0.5399  0.4561  0.3290
    5SAPS   H8X  633   0.627   2.012   5.160  1.0677 -2.6537 -0.6888
    5SAPS   H8Y  634   0.772   1.943   5.106 -0.8837 -0.4108  0.8362
    5SAPS   C39  635   0.774   2.161   5.081 -0.5561 -0.3995  0.0688
    5SAPS   H9X  636   0.877   2.198   5.099 -0.8910  0.2363  0.7389
    5SAPS   H9Y  637   0.705   2.237   5.124 -2.4872 -1.5461 -0.8694
    5SAPS  C310  638   0.736   2.157   4.928 -0.4536 -0.6446 -0.4685
    5SAPS  H10X  639   0.639   2.106   4.908 -1.7028  2.6090 -4.1327
    5SAPS  H10Y  640   0.815   2.096   4.880  0.9999 -0.7585  1.9337
    5SAPS  C311  641   0.718   2.296   4.857 -0.1792  0.6487  0.5700
    5SAPS  H11X  642   0.674   2.374   4.924  2.3123  2.4469  0.2419
    5SAPS  H11Y  643   0.646   2.281   4.774  1.5844  0.4068 -0.9769
    5SAPS  C312  644   0.846   2.341   4.789 -0.0788  0.1357  0.4393
    5SAPS  H12X  645   0.874   2.255   4.724 -1.9009 -0.0437 -0.1681
    5SAPS  H12Y  646   0.928   2.345   4.864  1.8108  0.6111 -1.5437
    5SAPS  C313  647   0.829   2.462   4.707 -0.0848  0.0442  0.6190
    5SAPS  H13X  648   0.770   2.425   4.621  0.2366 -0.1916  0.4949
    5SAPS  H13Y  649   0.933   2.482   4.672 -0.0189 -0.6712  0.3867
    5SAPS  C314  650   0.768   2.587   4.778 -0.1635 -0.3882 -1.0505
    5SAPS  H14X  651   0.839   2.605   4.862 -0.9492 -0.0576 -0.4423
    5SAPS  H14Y  652   0.665   2.569   4.817  0.2299  0.7159  0.6164
    5SAPS  C315  653   0.782   2.716   4.704  0.4692  0.3804 -0.1929
    5SAPS  H15X  654   0.702   2.713   4.627  1.3239 -3.2381 -1.1588
    5SAPS  H15Y  655   0.872   2.711   4.639 -1.0901  0.6768 -2.4889
    5SAPS  C316  656   0.790   2.840   4.792  0.4517 -0.4953  0.2971
    5SAPS  H16X  657   0.879   2.834   4.857  0.9243  0.0835 -0.2932
    5SAPS  H16Y  658   0.701   2.835   4.859  0.8639  0.0278  0.8893
    5SAPS  C317  659   0.801   2.969   4.711  0.6343  0.1022 -0.1701
    5SAPS  H17X  660   0.727   2.969   4.629 -0.3742  2.3531  0.6702
    5SAPS  H17Y  661   0.900   2.976   4.661 -0.1483  2.6804 -1.5325
    5SAPS  C318  662   0.780   3.088   4.801  0.1821 -0.1549  0.0235
    5SAPS  H18X  663   0.844   3.072   4.891 -1.9118 -1.0774  1.4283
    5SAPS  H18Y  664   0.675   3.074   4.833  0.0714 -0.5980 -0.5107
    5SAPS  H18Z  665   0.786   3.185   4.747 -2.4711 -0.6330 -1.3059
    6SAPS     N  666   3.572   3.585   6.760 -0.0639  0.3217  0.4569
    6SAPS   HN1  667   3.517   3.573   6.673 -0.9031  0.2205  0.9957
    6SAPS   HN2  668   3.562   3.493   6.807  1.7241  0.8372  1.9879
    6SAPS   HN3  669   3.531   3.662   6.817 -0.7251  0.4879 -0.2267
    6SAPS   C12  670   3.721   3.613   6.734  0.2261  0.4014 -0.2800
    6SAPS  H12A  671   3.756   3.683   6.809 -0.0394  0.9513 -0.6621
    6SAPS   C13  672   3.802   3.487   6.739 -0.2354  0.2551  0.8717
    6SAPS  O13A  673   3.757   3.376   6.783  0.1432 -0.4855 -0.4237
    6SAPS  O13B  674   3.915   3.491   6.683 -0.2856  0.4238  0.1424
    6SAPS   C11  675   3.725   3.695   6.589  0.3193  0.3027 -0.1967
    6SAPS  H11A  676   3.691   3.628   6.508 -0.1670 -1.1812  1.1646
    6SAPS  H11B  677   3.835   3.709   6.580  0.4543 -1.3250 -1.6867
    6SAPS     P  678   3.701   3.960   6.590  0.0098 -0.3531  0.3730
    6SAPS   O13  679   3.585   4.048   6.554 -0.4288 -0.3010 -0.0020
    6SAPS   O14  680   3.773   3.995   6.717 -0.2276 -0.2690 -0.2709
    6SAPS   O12  681   3.644   3.813   6.592 -0.8075 -0.6744  0.3033
    6SAPS   O11  682   3.803   3.953   6.468 -0.0494 -0.1245 -0.6622
    6SAPS    C1  683   3.764   3.892   6.344  0.7492  0.1106  0.1956
    6SAPS    HA  684   3.802   3.788   6.335 -0.8556 -0.6744  1.7430
    6SAPS    HB  685   3.653   3.888   6.335  0.7770  0.1618 -0.1810
    6SAPS    C2  686   3.806   3.981   6.221 -0.2009  0.4846 -0.3525
    6SAPS    HS  687   3.768   3.923   6.135  0.6787  0.1788 -0.5514
    6SAPS   O21  688   3.953   3.999   6.215 -0.4115 -0.9147  0.3360
    6SAPS   C21  689   4.027   3.897   6.173  0.3278 -0.1504 -0.0797
    6SAPS   O22  690   3.991   3.785   6.133  1.0270 -1.0580  0.1933
    6SAPS   C22  691   4.169   3.935   6.212 -0.3827 -0.6585 -0.2462
    6SAPS   H2R  692   4.181   4.045   6.196  1.2433 -0.8285 -0.3892
    6SAPS   H2S  693   4.185   3.915   6.320  1.5858  0.9796 -0.1608
    6SAPS    C3  694   3.742   4.113   6.233  0.4383  0.1931 -0.1894
    6SAPS    HX  695   3.777   4.157   6.329  1.0571 -1.3539  0.3109
    6SAPS    HY  696   3.634   4.093   6.250  0.5663  0.8214  1.6001
    6SAPS   O31  697   3.764   4.191   6.114  0.2865 -0.2703 -0.0868
    6SAPS   C31  698   3.688   4.296   6.110  0.5623 -0.1281 -0.6926
    6SAPS   O32  699   3.595   4.327   6.186  0.1085  0.2279 -0.1768
    6SAPS   C32  700   3.754   4.385   5.994  0.5768 -0.1375  0.1036
    6SAPS   H2X  701   3.859   4.354   5.979  0.8442  0.4286  0.7286
    6SAPS   H2Y  702   3.751   4.485   6.041  1.9764 -0.2942  0.5523
    6SAPS   C23  703   4.267   3.845   6.139  0.7562 -0.3691  0.1037
    6SAPS   H3R  704   4.238   3.738   6.146 -1.3024  0.2131  1.4834
    6SAPS   H3S  705   4.364   3.844   6.193  1.0013 -2.7517 -0.2623
    6SAPS   C24  706   4.298   3.894   5.993  0.0452  0.2120 -0.1279
    6SAPS   H4R  707   4.344   3.995   5.996  1.5822 -0.4149 -1.2321
    6SAPS   H4S  708   4.207   3.909   5.931 -1.7801  1.2287  2.6220
    6SAPS   C25  709   4.400   3.796   5.944 -0.3582  0.1939 -0.4021
    6SAPS   H5R  710   4.500   3.803   5.990 -0.1349 -0.1517 -0.8284
    6SAPS   C26  711   4.391   3.711   5.838  0.1268 -0.5581 -0.3053
    6SAPS   H6R  712   4.485   3.659   5.815  1.4077  1.7374 -0.5293
    6SAPS   C27  713   4.256   3.673   5.761  0.0122  0.2989  0.2868
    6SAPS   H7R  714   4.282   3.618   5.668 -1.1157 -0.3055  0.3149
    6SAPS   H7S  715   4.197   3.762   5.733 -1.3908 -0.4488  0.8031
    6SAPS   C28  716   4.174   3.584   5.856 -0.4978  0.1273 -0.1460
    6SAPS   H8R  717   4.172   3.611   5.963 -1.2999  1.7490 -0.5429
    6SAPS   C29  718   4.086   3.494   5.812 -0.2649 -0.5305  0.6140
    6SAPS   H9R  719   4.022   3.440   5.882 -1.2811 -0.2289 -0.0593
    6SAPS  C210  720   4.051   3.470   5.665  0.7224  0.7311 -0.0204
    6SAPS  H10R  721   4.084   3.561   5.609 -0.2675  0.6180 -0.8206
    6SAPS  H10S  722   3.942   3.468   5.643  1.1079  0.7014 -2.2376
    6SAPS  C211  723   4.120   3.346   5.617  0.0259 -0.1164 -0.4502
    6SAPS  H11R  724   4.212   3.326   5.674 -2.8929 -1.2538  4.3888
    6SAPS  C212  725   4.086   3.262   5.524  0.1319  0.6133  0.5021
    6SAPS  H12R  726   4.146   3.171   5.507  1.4855  1.1970  1.9429
    6SAPS  C213  727   3.963   3.283   5.439 -0.4700 -0.4620  0.5006
    6SAPS  H13R  728   3.887   3.337   5.499  0.8550  1.1297  0.8284
    6SAPS  H13S  729   3.919   3.188   5.401  0.0009 -0.9817  1.2270
    6SAPS  C214  730   4.006   3.373   5.319  0.3578 -0.4601  1.1834
    6SAPS  H14R  731   4.113   3.394   5.304  0.4220 -1.5391 -0.1074
    6SAPS  C215  732   3.924   3.411   5.221  0.4545  0.6076 -0.1318
    6SAPS  H15R  733   3.969   3.469   5.140 -0.4829 -2.1805 -2.8599
    6SAPS  C216  734   3.774   3.391   5.208  0.0800  0.6105 -0.3917
    6SAPS  H16R  735   3.725   3.491   5.200 -1.9295 -0.3414 -0.7462
    6SAPS  H16S  736   3.723   3.336   5.289 -1.5154  0.1050 -1.6764
    6SAPS  C217  737   3.743   3.318   5.074 -0.2999  0.2479 -0.1398
    6SAPS  H17R  738   3.818   3.340   4.995 -1.7297  2.7346 -0.9262
    6SAPS  H17S  739   3.642   3.344   5.035 -0.9513 -1.2958  0.4023
    6SAPS  C218  740   3.729   3.163   5.101  0.3262 -0.4273  0.3951
    6SAPS  H18R  741   3.639   3.151   5.166 -1.0149 -0.0765 -1.3189
    6SAPS  H18S  742   3.821   3.125   5.151  0.6601 -1.8079 -1.2055
    6SAPS  C219  743   3.705   3.082   4.972 -0.1449 -0.1352  0.1944
    6SAPS  H19R  744   3.611   3.103   4.918 -0.6492 -1.0148  0.7046
    6SAPS  H19S  745   3.705   2.972   4.991  1.5827 -0.4234 -1.2444
    6SAPS  C220  746   3.825   3.099   4.877 -0.0023  0.5400 -1.2718
    6SAPS  H20R  747   3.919   3.069   4.926 -1.1249  1.4018  1.5963
    6SAPS  H20S  748   3.836   3.202   4.835  0.2141  0.5849 -1.1050
    6SAPS  H20T  749   3.817   3.031   4.789  0.8327 -0.3325 -0.6823
    6SAPS   C33  750   3.678   4.382   5.853  0.0179 -0.0612 -0.0862
    6SAPS   H3X  751   3.577   4.428   5.857 -0.3908 -0.8701 -0.7426
    6SAPS   H3Y  752   3.687   4.281   5.808  1.5302  0.4622 -1.0279
    6SAPS   C34  753   3.745   4.472   5.750 -0.3864  0.4362  0.4169
    6SAPS   H4X  754   3.844   4.425   5.736 -1.1550 -2.1231  2.6853
    6SAPS   H4Y  755   3.758   4.568   5.806  0.8935 -0.0366  0.9652
    6SAPS   C35  756   3.673   4.482   5.617  1.0440 -0.1055  0.5852
    6SAPS   H5X  757   3.567   4.515   5.615  1.9173  2.9977 -2.9155
    6SAPS   H5Y  758   3.679   4.375   5.586  1.6266  0.1331 -0.1322
    6SAPS   C36  759   3.744   4.585   5.527 -0.2479 -0.0515  0.2184
    6SAPS   H6X  760   3.850   4.587   5.563 -0.1017 -0.6683 -0.1547
    6SAPS   H6Y  761   3.709   4.687   5.552  0.9546 -0.0044  1.9083
    6SAPS   C37  762   3.714   4.562   5.379 -0.5869  0.4980  0.5396
    6SAPS   H7X  763   3.606   4.541   5.360 -0.7583  0.7680  1.2174
    6SAPS   H7Y  764   3.765   4.465   5.358 -0.6812  0.6314 -0.3454
    6SAPS   C38  765   3.767   4.668   5.284 -0.4109 -0.2425 -0.1302
    6SAPS   H8X  766   3.853   4.726   5.323  1.8123 -1.2741 -3.1088
    6SAPS   H8Y  767   3.686   4.741   5.265 -0.5665  0.1426  1.7927
    6SAPS   C39  768   3.821   4.608   5.157 -1.1297 -0.2734 -0.4421
    6SAPS   H9X  769   3.894   4.525   5.166  0.0038  0.8222  1.1009
    6SAPS   H9Y  770   3.874   4.696   5.115 -1.0617 -0.3840 -0.5844
    6SAPS  C310  771   3.709   4.573   5.052 -0.0588  0.0670  0.1541
    6SAPS  H10X  772   3.663   4.665   5.011 -0.2579 -0.1004 -0.0038
    6SAPS  H10Y  773   3.634   4.509   5.103 -0.1465  1.3049  1.6541
    6SAPS  C311  774   3.758   4.492   4.936 -0.2364 -1.0967  1.1966
    6SAPS  H11X  775   3.669   4.477   4.870 -0.0016  1.3211  0.2298
    6SAPS  H11Y  776   3.805   4.396   4.963  0.7280 -0.9034  0.2762
    6SAPS  C312  777   3.856   4.572   4.846  0.3992  0.0936  0.2365
    6SAPS  H12X  778   3.952   4.577   4.901  1.5736  0.2593 -1.7097
    6SAPS  H12Y  779   3.821   4.677   4.836 -0.4117 -0.1581  0.4333
    6SAPS  C313  780   3.883   4.514   4.712  0.1851  0.0130  0.7923
    6SAPS  H13X  781   3.789   4.514   4.654 -0.1685 -0.3040  1.3588
    6SAPS  H13Y  782   3.906   4.406   4.727 -0.7147 -0.3646 -0.3396
    6SAPS  C314  783   3.988   4.595   4.638 -0.3762  0.3694  0.6560
    6SAPS  H14X  784   4.084   4.599   4.694  0.0574  0.3634 -0.0677
    6SAPS  H14Y  785   3.961   4.702   4.631  0.5307  0.7022  1.8644
    6SAPS  C315  786   4.006   4.545   4.494 -0.4975  0.4374  0.6961
    6SAPS  H15X  787   4.079   4.609   4.440 -0.4346 -0.7764 -0.6964
    6SAPS  H15Y  788   3.905   4.549   4.449 -1.5275 -0.3961  2.8012
    6SAPS  C316  789   4.051   4.394   4.479  0.0165  0.0677 -0.5637
    6SAPS  H16X  790   3.975   4.325   4.522 -1.1124  0.8811 -1.1987
    6SAPS  H16Y  791   4.146   4.374   4.534 -1.2233  1.0127  2.1231
    6SAPS  C317  792   4.086   4.355   4.330  0.4708 -0.4423 -0.3866
    6SAPS  H17X  793   4.137   4.257   4.319  1.6771  0.4381 -3.8357
    6SAPS  H17Y  794   4.161   4.431   4.301  0.9047 -1.1250 -1.1015
    6SAPS  C318  795   3.961   4.356   4.243 -0.0362 -0.0747  0.3953
    6SAPS  H18X  796   3.907   4.454   4.242 -0.8982 -0.5432  0.2433
    6SAPS  H18Y  797   3.889   4.279   4.279  0.1888  0.3914  1.9110
    6SAPS  H18Z  798   4.004   4.335   4.143  0.3838 -0.5769  0.6806
    7SAPS     N  799   4.839   1.436   6.619  0.0703  0.2499 -0.0990
    7SAPS   HN1  800   4.769   1.370   6.580  0.6000  0.6593 -1.8402
    7SAPS   HN2  801   4.861   1.503   6.542 -1.2456 -1.4525 -2.0813
    7SAPS   HN3  802   4.926   1.387   6.648  0.3285  0.1237 -1.0576
    7SAPS   C12  803   4.781   1.507   6.736  0.5427  0.4239 -0.9017
    7SAPS  H12A  804   4.781   1.434   6.815 -0.8804 -0.4416 -1.6595
    7SAPS   C13  805   4.862   1.627   6.778 -0.1583 -0.6297  0.1929
    7SAPS  O13A  806   4.942   1.688   6.706  0.5488 -0.1398 -0.8397
    7SAPS  O13B  807   4.832   1.677   6.895  0.1836  0.4398 -0.1635
    7SAPS   C11  808   4.639   1.553   6.694  0.0072 -0.2622 -0.4731
    7SAPS  H11A  809   4.647   1.616   6.603 -1.1954 -0.1992 -0.5566
    7SAPS  H11B  810   4.594   1.627   6.765 -1.7120  0.1614 -1.9192
    7SAPS     P  811   4.398   1.434   6.654 -0.1471 -0.2900 -0.1391
    7SAPS   O13  812   4.358   1.295   6.628  0.3420  0.2390 -0.1164
    7SAPS   O14  813   4.344   1.495   6.779 -0.0976 -0.1390 -0.1707
    7SAPS   O12  814   4.550   1.439   6.659 -0.6002  0.2835 -0.1327
    7SAPS   O11  815   4.371   1.526   6.530 -0.4084  0.6115 -0.2059
    7SAPS    C1  816   4.448   1.495   6.411  0.0980  0.2107  0.7403
    7SAPS    HA  817   4.559   1.506   6.417  0.2452  0.0609 -1.2155
    7SAPS    HB  818   4.439   1.386   6.392 -0.4117  0.0633  1.7471
    7SAPS    C2  819   4.396   1.572   6.284  0.0564 -0.1322 -0.6350
    7SAPS    HS  820   4.464   1.560   6.197  1.1323  0.2224  0.1391
    7SAPS   O21  821   4.377   1.712   6.316  0.2126 -0.2640 -0.4908
    7SAPS   C21  822   4.486   1.783   6.349  0.0658  0.6921 -0.0443
    7SAPS   O22  823   4.604   1.748   6.360 -0.5114  0.2536  0.4979
    7SAPS   C22  824   4.443   1.929   6.351  0.4136 -0.1677 -0.4745
    7SAPS   H2R  825   4.353   1.945   6.288  0.3297 -0.8861 -0.5548
    7SAPS   H2S  826   4.420   1.942   6.459  0.4474 -2.6374 -0.1027
    7SAPS    C3  827   4.254   1.526   6.242 -0.5417  0.0276 -0.0590
    7SAPS    HX  828   4.227   1.586   6.152 -0.2805  0.4388  0.1378
    7SAPS    HY  829   4.182   1.554   6.322 -0.3272  0.8402 -0.1466
    7SAPS   O31  830   4.243   1.375   6.231  0.1268  0.3419 -0.1472
    7SAPS   C31  831   4.117   1.340   6.206 -0.6225  0.7973 -0.4790
    7SAPS   O32  832   4.025   1.421   6.208 -0.5147  0.4129 -0.5484
    7SAPS   C32  833   4.106   1.190   6.181  0.6115 -0.1023  0.0959
    7SAPS   H2X  834   4.001   1.154   6.189 -0.3269  2.1818 -0.7570
    7SAPS   H2Y  835   4.163   1.127   6.252 -0.4756  1.2781  2.3129
    7SAPS   C23  836   4.561   2.031   6.322 -0.2818  0.0396 -0.2177
    7SAPS   H3R  837   4.657   2.001   6.370 -0.7042 -0.1201  0.5393
    7SAPS   H3S  838   4.538   2.125   6.376  0.5074  0.2516 -0.2372
    7SAPS   C24  839   4.587   2.060   6.172  0.0152 -0.6923 -0.2036
    7SAPS   H4R  840   4.611   1.960   6.129  0.3918 -0.1491 -1.3053
    7SAPS   H4S  841   4.680   2.117   6.153 -0.9754  0.6252 -1.2749
    7SAPS   C25  842   4.479   2.130   6.092  0.4382 -0.1190 -0.5591
    7SAPS   H5R  843   4.375   2.101   6.114  0.1040  0.5529 -1.2090
    7SAPS   C26  844   4.501   2.220   5.992  0.7181  0.4725  0.1028
    7SAPS   H6R  845   4.414   2.256   5.935  0.7218  2.3341  1.1930
    7SAPS   C27  846   4.626   2.268   5.928  0.1292 -0.0461 -0.2940
    7SAPS   H7R  847   4.711   2.277   5.998 -0.0071  0.8815 -0.2330
    7SAPS   H7S  848   4.618   2.374   5.896 -1.7227 -0.1846 -0.4487
    7SAPS   C28  849   4.665   2.180   5.812 -0.5508  0.3788  0.0368
    7SAPS   H8R  850   4.698   2.082   5.848 -2.1352 -0.1932  0.0100
    7SAPS   C29  851   4.676   2.212   5.682 -0.1390  0.5220  0.0867
    7SAPS   H9R  852   4.731   2.142   5.618 -0.8237 -0.2855  0.3599
    7SAPS  C210  853   4.636   2.349   5.622  0.4042  0.2279  0.6160
    7SAPS  H10R  854   4.719   2.384   5.557  1.1972 -1.7067  0.4944
    7SAPS  H10S  855   4.603   2.425   5.696  0.6748 -0.8970  1.9569
    7SAPS  C211  856   4.523   2.314   5.527 -0.1651 -0.9706 -0.6271
    7SAPS  H11R  857   4.453   2.239   5.567 -1.7696  0.4334 -0.6592
    7SAPS  C212  858   4.495   2.376   5.413  0.1308  0.0384 -0.4636
    7SAPS  H12R  859   4.423   2.327   5.346 -1.1539 -0.1492  0.9986
    7SAPS  C213  860   4.577   2.482   5.347  0.3358  0.0139 -0.6453
    7SAPS  H13R  861   4.648   2.438   5.274 -0.3536 -2.5300  0.1255
    7SAPS  H13S  862   4.650   2.537   5.410 -0.0933  0.3769 -0.4658
    7SAPS  C214  863   4.488   2.586   5.287 -0.1372  0.2978 -0.0263
    7SAPS  H14R  864   4.443   2.664   5.351  1.3065  1.3380 -0.2208
    7SAPS  C215  865   4.460   2.594   5.151  0.0711 -0.3987 -0.2408
    7SAPS  H15R  866   4.380   2.661   5.118  2.3012  0.5541 -4.3008
    7SAPS  C216  867   4.518   2.509   5.041 -0.3465  0.2676 -0.0963
    7SAPS  H16R  868   4.600   2.442   5.073  0.3998  1.2986  0.2035
    7SAPS  H16S  869   4.565   2.575   4.964  1.6997 -0.4175  0.5263
    7SAPS  C217  870   4.405   2.432   4.969 -0.9306  0.0693 -0.0575
    7SAPS  H17R  871   4.326   2.504   4.939 -0.0603  1.5425  1.0730
    7SAPS  H17S  872   4.359   2.367   5.047  0.7698 -1.5089 -0.3035
    7SAPS  C218  873   4.449   2.357   4.852 -0.1388 -0.4599 -0.6037
    7SAPS  H18R  874   4.528   2.292   4.895  0.4883  1.3293  1.0784
    7SAPS  H18S  875   4.493   2.438   4.790  0.1760  0.4011  0.7098
    7SAPS  C219  876   4.346   2.279   4.769 -0.1331  0.0186  0.1474
    7SAPS  H19R  877   4.270   2.354   4.738  2.7578  2.3546 -1.7582
    7SAPS  H19S  878   4.290   2.211   4.836 -1.0627  1.4820  0.9053
    7SAPS  C220  879   4.413   2.214   4.649 -0.1849  0.3901  0.6282
    7SAPS  H20R  880   4.476   2.293   4.602 -1.4244  2.1071  1.7521
    7SAPS  H20S  881   4.334   2.182   4.577 -0.9461  2.4134  0.5144
    7SAPS  H20T  882   4.466   2.128   4.695 -0.5204  0.3825  1.0005
    7SAPS   C33  883   4.156   1.174   6.038 -0.5915  1.2030  0.1501
    7SAPS   H3X  884   4.166   1.066   6.011 -0.9063  0.9148  1.1098
    7SAPS   H3Y  885   4.254   1.227   6.036 -0.0377  0.1886 -0.9071
    7SAPS   C34  886   4.057   1.237   5.933  0.5697  0.0824 -0.6374
    7SAPS   H4X  887   4.052   1.345   5.956  0.2257 -0.0263 -0.1709
    7SAPS   H4Y  888   3.959   1.187   5.953  0.7760 -0.7038 -1.5632
    7SAPS   C35  889   4.082   1.204   5.784  1.2838  0.5145  0.0899
    7SAPS   H5X  890   4.067   1.094   5.781 -1.2632  0.7904 -2.8129
    7SAPS   H5Y  891   4.186   1.235   5.762  1.3269  0.0711 -0.3517
    7SAPS   C36  892   3.988   1.280   5.693  0.2582 -0.3301  0.1255
    7SAPS   H6X  893   4.024   1.386   5.696  0.4338 -0.4028  2.2365
    7SAPS   H6Y  894   3.887   1.282   5.741 -0.0373  3.6548 -0.2607
    7SAPS   C37  895   3.968   1.218   5.554  0.0172  0.3719  0.0944
    7SAPS   H7X  896   3.872   1.248   5.507 -0.0839  1.2802  0.8649
    7SAPS   H7Y  897   3.946   1.113   5.582 -2.4411  1.2064  1.5829
    7SAPS   C38  898   4.087   1.233   5.460  0.0393 -0.0092 -0.1040
    7SAPS   H8X  899   4.076   1.147   5.390 -1.1568 -1.2308  1.4867
    7SAPS   H8Y  900   4.180   1.194   5.508 -0.0903 -1.4988 -1.0028
    7SAPS   C39  901   4.107   1.368   5.403  0.1356  0.2223  0.2642
    7SAPS   H9X  902   4.124   1.446   5.481 -0.9971  0.4663  0.2841
    7SAPS   H9Y  903   4.015   1.395   5.346  0.0526  0.6526  0.5944
    7SAPS  C310  904   4.218   1.380   5.293  0.1252 -0.4664  0.0965
    7SAPS  H10X  905   4.175   1.319   5.211  0.8536 -0.5171 -0.2467
    7SAPS  H10Y  906   4.312   1.336   5.332  1.4002  1.6175 -0.4793
    7SAPS  C311  907   4.242   1.517   5.246  0.3603 -0.1407  0.5095
    7SAPS  H11X  908   4.294   1.588   5.314  0.6735  0.8845 -0.7556
    7SAPS  H11Y  909   4.146   1.573   5.245  2.0503  3.0630  2.0373
    7SAPS  C312  910   4.309   1.516   5.109 -0.7895  0.3110 -0.8435
    7SAPS  H12X  911   4.288   1.609   5.053  0.5530  0.1547 -1.6323
    7SAPS  H12Y  912   4.270   1.424   5.060  0.5673 -1.0981  0.6017
    7SAPS  C313  913   4.461   1.507   5.113  0.5387 -0.5290  0.4216
    7SAPS  H13X  914   4.487   1.434   5.192  0.0815  0.9887  2.0522
    7SAPS  H13Y  915   4.497   1.605   5.152 -1.3661  1.1969 -1.8300
    7SAPS  C314  916   4.545   1.478   4.986 -0.1039  0.1377 -0.0221
    7SAPS  H14X  917   4.517   1.374   4.959 -0.6284 -0.1488  1.4923
    7SAPS  H14Y  918   4.655   1.472   4.994 -0.0704 -0.6913 -0.9503
    7SAPS  C315  919   4.524   1.575   4.866 -0.0795  0.2981 -0.2416
    7SAPS  H15X  920   4.559   1.674   4.902  0.2698  0.4259 -0.9059
    7SAPS  H15Y  921   4.417   1.578   4.837 -0.0927  1.3194 -0.1207
    7SAPS  C316  922   4.610   1.554   4.737  0.3207 -0.3702 -0.0821
    7SAPS  H16X  923   4.574   1.617   4.652  2.4168  0.4405 -0.4575
    7SAPS  H16Y  924   4.598   1.451   4.698 -1.8530  0.2675 -1.2727
    7SAPS  C317  925   4.759   1.586   4.762 -0.0846  0.9299 -0.1507
    7SAPS  H17X  926   4.800   1.497   4.813 -1.4785  0.1568 -0.3203
    7SAPS  H17Y  927   4.776   1.676   4.824 -2.1911  0.8974  0.5722
    7SAPS  C318  928   4.824   1.605   4.621  0.3621  0.2806  0.2201
    7SAPS  H18X  929   4.784   1.531   4.549  1.6831 -2.2087  1.9109
    7SAPS  H18Y  930   4.934   1.605   4.635  0.6284  3.2484 -1.1126
    7SAPS  H18Z  931   4.791   1.703   4.582 -2.8942 -0.2266  1.3830
    8SAPS     N  932   3.273   2.929   6.771  0.1225 -0.4355  0.0412
    8SAPS   HN1  933   3.251   2.867   6.690 -0.6666  1.1116 -0.9845
    8SAPS   HN2  934   3.188   2.962   6.820 -0.3790  0.0236 -1.0873
    8SAPS   HN3  935   3.304   3.015   6.722 -2.8637  0.7325 -0.0207
    8SAPS   C12  936   3.357   2.858   6.861  0.1513 -0.1388  0.1182
    8SAPS  H12A  937   3.454   2.863   6.815  0.1876  0.8241  0.2946
    8SAPS   C13  938   3.361   2.912   7.000 -0.6815  0.1122  0.5578
    8SAPS  O13A  939   3.305   3.021   7.024 -0.1990  0.5820 -0.0216
    8SAPS  O13B  940   3.414   2.846   7.093 -0.2023 -0.0631  0.1169
    8SAPS   C11  941   3.324   2.709   6.857  0.4369 -0.8533 -0.4191
    8SAPS  H11A  942   3.221   2.701   6.898  0.2809  0.5721 -0.4717
    8SAPS  H11B  943   3.395   2.664   6.929  1.4282 -0.3493 -1.0700
    8SAPS     P  944   3.447   2.559   6.685  0.1544  0.1214 -0.1009
    8SAPS   O13  945   3.576   2.591   6.755 -0.3087 -0.6453  0.0839
    8SAPS   O14  946   3.392   2.422   6.697  0.1641  0.6342 -0.2170
    8SAPS   O12  947   3.325   2.659   6.722 -0.3690  0.0865 -0.7729
    8SAPS   O11  948   3.458   2.606   6.535 -0.3391 -0.5285 -0.2586
    8SAPS    C1  949   3.498   2.737   6.492  0.8544 -0.2726 -0.8937
    8SAPS    HA  950   3.410   2.796   6.462  1.1952  0.5537 -0.2934
    8SAPS    HB  951   3.549   2.793   6.573 -0.5900 -0.9283  0.4996
    8SAPS    C2  952   3.586   2.730   6.368 -0.3398 -0.5398  0.5632
    8SAPS    HS  953   3.586   2.831   6.322 -0.0030 -0.4911  0.6717
    8SAPS   O21  954   3.528   2.636   6.272 -0.6244  0.0731  0.1594
    8SAPS   C21  955   3.434   2.678   6.207  0.0858  0.0917 -0.5069
    8SAPS   O22  956   3.384   2.793   6.208  0.3650  0.0889 -0.2208
    8SAPS   C22  957   3.392   2.554   6.123  0.5039  0.3622 -0.7505
    8SAPS   H2R  958   3.452   2.564   6.030  3.8353  1.3017  1.3446
    8SAPS   H2S  959   3.423   2.460   6.174 -2.1438  0.5089  1.3513
    8SAPS    C3  960   3.737   2.686   6.399 -0.1859 -0.1451 -0.3169
    8SAPS    HX  961   3.743   2.580   6.432 -2.2413 -0.1997  0.0296
    8SAPS    HY  962   3.753   2.749   6.489 -0.2362  0.4876 -0.7444
    8SAPS   O31  963   3.828   2.719   6.294 -0.0313  0.0103  0.4805
    8SAPS   C31  964   3.877   2.844   6.287  0.4149 -0.0259 -0.0578
    8SAPS   O32  965   3.849   2.934   6.364  0.7735  0.5262  0.3199
    8SAPS   C32  966   3.981   2.856   6.177 -0.6851 -0.1344 -0.7916
    8SAPS   H2X  967   3.940   2.825   6.079 -1.8594 -2.8287  0.4674
    8SAPS   H2Y  968   4.064   2.787   6.205 -1.3303 -1.4768 -2.0855
    8SAPS   C23  969   3.243   2.555   6.092 -0.3613  0.2971  0.6481
    8SAPS   H3R  970   3.232   2.634   6.015  0.1853  2.7961  2.9753
    8SAPS   H3S  971   3.172   2.582   6.173 -0.0256 -2.8700  2.1720
    8SAPS   C24  972   3.191   2.414   6.050 -0.5664 -0.1099 -0.2899
    8SAPS   H4R  973   3.222   2.352   6.136 -0.2230 -2.7779 -2.2121
    8SAPS   H4S  974   3.245   2.378   5.961 -2.5725 -1.9148 -0.8721
    8SAPS   C25  975   3.038   2.400   6.033 -0.4486 -0.4428 -0.3360
    8SAPS   H5R  976   2.983   2.392   6.128 -0.4793  0.1137 -0.2993
    8SAPS   C26  977   2.966   2.393   5.922  0.0433  0.9183  0.4607
    8SAPS   H6R  978   2.857   2.378   5.919  0.0831  0.5930  0.5764
    8SAPS   C27  979   3.025   2.408   5.783 -0.3494 -0.2516 -0.4151
    8SAPS   H7R  980   3.127   2.450   5.776 -0.3383 -0.4102 -1.4399
    8SAPS   H7S  981   2.968   2.480   5.719  1.1202  3.3425  2.0318
    8SAPS   C28  982   3.015   2.273   5.710  0.3996  0.5321  0.3656
    8SAPS   H8R  983   2.968   2.186   5.758 -0.9149  0.8510 -0.3027
    8SAPS   C29  984   3.048   2.251   5.581 -0.3052  0.7092 -0.4401
    8SAPS   H9R  985   3.025   2.150   5.544 -2.9769  1.1304 -0.1255
    8SAPS  C210  986   3.117   2.353   5.498  0.6845  0.6677 -0.4146
    8SAPS  H10R  987   3.161   2.434   5.561 -1.0727  2.6864 -1.6456
    8SAPS  H10S  988   3.040   2.417   5.450  0.8159  1.0417 -0.1410
    8SAPS  C211  989   3.190   2.289   5.383  0.4741 -0.4750 -0.1989
    8SAPS  H11R  990   3.293   2.270   5.416 -0.0872 -0.6839  1.5439
    8SAPS  C212  991   3.150   2.262   5.256  1.3436  0.3214  0.5059
    8SAPS  H12R  992   3.214   2.196   5.196 -1.6674 -2.2787 -0.0758
    8SAPS  C213  993   2.996   2.280   5.218 -0.3621 -0.2701 -0.4909
    8SAPS  H13R  994   2.933   2.286   5.309 -1.1794  1.5564 -1.1343
    8SAPS  H13S  995   2.977   2.191   5.154  0.7018 -0.0105 -1.2096
    8SAPS  C214  996   2.967   2.411   5.143 -0.8945  0.3208  0.0817
    8SAPS  H14R  997   2.956   2.495   5.213 -0.7258  0.9945 -0.6790
    8SAPS  C215  998   2.945   2.443   5.017  0.0708 -0.6696 -0.3018
    8SAPS  H15R  999   2.942   2.551   4.995  0.9347 -0.2140  1.6593
    8SAPS  C216 1000   2.952   2.361   4.893 -0.3159 -0.8287  0.7482
    8SAPS  H16R 1001   2.869   2.383   4.822 -1.6295 -0.3490  2.3718
    8SAPS  H16S 1002   2.915   2.262   4.927 -1.1865 -0.7741  0.0063
    8SAPS  C217 1003   3.084   2.353   4.815  0.1609 -0.5782 -0.2156
    8SAPS  H17R 1004   3.156   2.294   4.876  0.7270  0.4720  0.1557
    8SAPS  H17S 1005   3.117   2.459   4.806 -1.2140 -0.1814 -0.9312
    8SAPS  C218 1006   3.083   2.292   4.675 -0.2925 -0.2191 -0.2821
    8SAPS  H18R 1007   3.187   2.293   4.636  0.1146 -2.2754  0.6098
    8SAPS  H18S 1008   3.002   2.338   4.614  0.4304 -0.1429 -1.2017
    8SAPS  C219 1009   3.048   2.139   4.676  0.4025  0.1500  0.0316
    8SAPS  H19R 1010   2.957   2.122   4.738 -0.5603  1.2875 -1.0147
    8SAPS  H19S 1011   3.132   2.078   4.716  1.1604 -0.7122 -2.7196
    8SAPS  C220 1012   3.010   2.077   4.539 -0.5804 -0.1463 -0.9004
    8SAPS  H20R 1013   2.990   1.968   4.547 -0.4238 -0.0069  3.0826
    8SAPS  H20S 1014   3.097   2.080   4.470 -0.6296  0.1598 -0.9501
    8SAPS  H20T 1015   2.918   2.131   4.509 -1.0385  0.0924  0.8258
    8SAPS   C33 1016   4.038   3.001   6.163  0.3715 -0.2233 -0.4544
    8SAPS   H3X 1017   4.100   3.026   6.251 -1.0920  0.2459  0.4823
    8SAPS   H3Y 1018   3.955   3.074   6.149 -1.4630 -2.2517 -0.6882
    8SAPS   C34 1019   4.142   3.007   6.047  0.1161 -0.5392  0.3379
    8SAPS   H4X 1020   4.080   3.015   5.955  0.1244 -1.3421  0.2537
    8SAPS   H4Y 1021   4.205   2.916   6.036  2.3080  1.1244 -1.6050
    8SAPS   C35 1022   4.240   3.128   6.059 -0.4987  0.2293 -0.3190
    8SAPS   H5X 1023   4.313   3.103   6.139 -2.4076  0.2795  1.5081
    8SAPS   H5Y 1024   4.185   3.217   6.095  1.7396  2.1323 -1.2974
    8SAPS   C36 1025   4.305   3.162   5.927  0.4301 -0.0021 -0.1512
    8SAPS   H6X 1026   4.229   3.228   5.878  0.3066  0.4957  0.6760
    8SAPS   H6Y 1027   4.310   3.078   5.855  1.1956 -1.1596  1.2127
    8SAPS   C37 1028   4.434   3.239   5.944  0.6184  0.1197 -0.5038
    8SAPS   H7X 1029   4.511   3.172   5.987  1.7607  2.5925  1.5787
    8SAPS   H7Y 1030   4.414   3.317   6.020 -0.0748 -1.3887  0.9141
    8SAPS   C38 1031   4.479   3.320   5.830  0.1177 -0.2351  0.1631
    8SAPS   H8X 1032   4.581   3.354   5.857 -0.7943  1.5355  1.6542
    8SAPS   H8Y 1033   4.416   3.409   5.807  0.0245 -0.1814  0.6094
    8SAPS   C39 1034   4.497   3.236   5.702  0.5612 -0.7535  0.0615
    8SAPS   H9X 1035   4.406   3.200   5.649  0.4840  0.4696 -0.6636
    8SAPS   H9Y 1036   4.561   3.148   5.726  0.3496 -0.9170  0.0314
    8SAPS  C310 1037   4.574   3.325   5.595 -0.2578  0.4768 -0.3144
    8SAPS  H10X 1038   4.600   3.259   5.510 -0.8304 -1.4192  0.9164
    8SAPS  H10Y 1039   4.665   3.354   5.651 -1.0669  1.3676  0.5907
    8SAPS  C311 1040   4.505   3.445   5.532  0.5079  0.4609 -0.2163
    8SAPS  H11X 1041   4.453   3.506   5.609  0.7144  1.9442 -1.2126
    8SAPS  H11Y 1042   4.427   3.413   5.459 -1.0221  0.1634  1.4813
    8SAPS  C312 1043   4.608   3.543   5.473  0.2386 -0.6813  0.4463
    8SAPS  H12X 1044   4.648   3.496   5.381 -0.0399 -1.3428  0.6596
    8SAPS  H12Y 1045   4.685   3.569   5.549  0.9568  1.8400 -1.0362
    8SAPS  C313 1046   4.544   3.680   5.441 -0.2128 -0.3889 -0.3172
    8SAPS  H13X 1047   4.623   3.743   5.394  0.9277 -2.8654 -1.9306
    8SAPS  H13Y 1048   4.503   3.727   5.533  1.0865 -1.1345  0.6844
    8SAPS  C314 1049   4.420   3.680   5.349 -0.2201  0.1922  0.1552
    8SAPS  H14X 1050   4.342   3.617   5.398  0.3252 -0.4389  0.2262
    8SAPS  H14Y 1051   4.452   3.634   5.254 -1.3382 -0.7392  0.2054
    8SAPS  C315 1052   4.343   3.812   5.330  0.4533 -0.3995  0.5159
    8SAPS  H15X 1053   4.402   3.891   5.278 -0.2749 -0.6992 -0.8109
    8SAPS  H15Y 1054   4.317   3.840   5.434 -2.0806  1.2927 -0.4600
    8SAPS  C316 1055   4.207   3.782   5.256  0.0553  0.3616 -0.2369
    8SAPS  H16X 1056   4.154   3.878   5.239 -0.0399 -0.0829 -2.8502
    8SAPS  H16Y 1057   4.146   3.702   5.304 -0.2932  0.6807 -0.1448
    8SAPS  C317 1058   4.233   3.728   5.118  0.1966 -0.7692  0.0640
    8SAPS  H17X 1059   4.274   3.625   5.121  1.5496 -0.2805 -0.4398
    8SAPS  H17Y 1060   4.315   3.786   5.069 -0.4565 -0.4302 -0.6490
    8SAPS  C318 1061   4.103   3.717   5.042  0.3044 -0.1684  0.1303
    8SAPS  H18X 1062   4.119   3.673   4.941 -1.0505 -2.4087  0.8089
    8SAPS  H18Y 1063   4.056   3.817   5.034  0.4283  0.0197  1.5100
    8SAPS  H18Z 1064   4.039   3.646   5.097  0.8751  0.0768  1.1344
    9SAPS     N 1065   2.701   3.918   6.624  0.5450 -0.2408  0.1575
    9SAPS   HN1 1066   2.771   3.866   6.567  1.0160 -0.9411  1.3332
    9SAPS   HN2 1067   2.642   3.846   6.669  1.5632 -0.8488  0.5544
    9SAPS   HN3 1068   2.641   3.977   6.563 -0.4141 -0.3464  0.9795
    9SAPS   C12 1069   2.771   3.999   6.732  0.2958 -0.0088  0.4954
    9SAPS  H12A 1070   2.690   4.061   6.768 -1.4123 -1.3367 -0.8914
    9SAPS   C13 1071   2.816   3.917   6.854  0.3258 -0.4981  0.2271
    9SAPS  O13A 1072   2.823   3.790   6.849 -0.1632 -0.4544  0.2171
    9SAPS  O13B 1073   2.843   3.983   6.957 -0.2414 -0.1634 -0.4659
    9SAPS   C11 1074   2.890   4.079   6.679  0.3805  0.3635  0.3528
    9SAPS  H11A 1075   2.922   4.158   6.750 -0.0436  2.1945 -1.4015
    9SAPS  H11B 1076   2.838   4.134   6.597  0.8027 -0.7045 -0.6578
    9SAPS     P 1077   3.131   4.056   6.555  0.0321  0.4840 -0.0713
    9SAPS   O13 1078   3.206   4.146   6.644  0.2449 -0.2983  0.3284
    9SAPS   O14 1079   3.205   3.936   6.510 -0.3561 -0.4464  0.0813
    9SAPS   O12 1080   3.000   3.998   6.633 -0.2852  0.3037  0.1111
    9SAPS   O11 1081   3.080   4.128   6.431 -0.2712  0.0108  0.0027
    9SAPS    C1 1082   2.978   4.093   6.348  0.7081  0.0558  0.2379
    9SAPS    HA 1083   2.889   4.050   6.399  1.2807  0.6736  1.8388
    9SAPS    HB 1084   2.948   4.181   6.288 -0.2205 -1.2518 -1.2957
    9SAPS    C2 1085   3.030   3.996   6.233  0.2391  0.1776  0.0508
    9SAPS    HS 1086   3.070   3.900   6.272 -0.9284  0.1234  1.1831
    9SAPS   O21 1087   3.130   4.070   6.158  0.0074 -0.4068 -0.6586
    9SAPS   C21 1088   3.212   3.994   6.089  0.6743 -0.6149 -0.2174
    9SAPS   O22 1089   3.204   3.870   6.076  0.3982 -0.4405  0.1259
    9SAPS   C22 1090   3.309   4.077   6.015  0.1762 -0.1600 -0.9674
    9SAPS   H2R 1091   3.251   4.158   5.965 -1.9142 -0.6727  0.4824
    9SAPS   H2S 1092   3.381   4.127   6.084 -0.1614  1.1814 -1.5465
    9SAPS    C3 1093   2.905   3.962   6.137  0.2225 -0.0541  0.1203
    9SAPS    HX 1094   2.829   3.926   6.210  1.2046 -0.5153  0.9416
    9SAPS    HY 1095   2.952   3.879   6.079  0.8796 -0.4817  1.2222
    9SAPS   O31 1096   2.863   4.064   6.042 -0.0005  0.1118 -0.0679
    9SAPS   C31 1097   2.744   4.136   6.053 -0.2888  0.2931 -0.1533
    9SAPS   O32 1098   2.660   4.112   6.136 -0.1025 -0.5337 -0.1666
    9SAPS   C32 1099   2.745   4.253   5.955  0.6029  0.4588 -0.4561
    9SAPS   H2X 1100   2.850   4.287   5.941  0.5479  0.6947 -0.3050
    9SAPS   H2Y 1101   2.688   4.340   5.992  2.5879  1.6180  0.0216
    9SAPS   C23 1102   3.381   3.989   5.912 -0.1658  0.8443 -0.1464
    9SAPS   H3R 1103   3.312   3.959   5.831  3.7863 -2.6265 -2.6660
    9SAPS   H3S 1104   3.419   3.901   5.969 -1.2140  1.3000  1.3371
    9SAPS   C24 1105   3.491   4.082   5.854  0.4288  0.1317  0.3834
    9SAPS   H4R 1106   3.567   4.095   5.934 -0.9217  2.4733  1.3772
    9SAPS   H4S 1107   3.447   4.181   5.832 -2.4045 -0.6594  2.0753
    9SAPS   C25 1108   3.548   4.029   5.723 -0.2343 -0.0037 -0.0705
    9SAPS   H5R 1109   3.467   4.006   5.653 -1.5100 -0.2978  1.4630
    9SAPS   C26 1110   3.681   3.999   5.691 -0.0469  0.2787  0.1955
    9SAPS   H6R 1111   3.705   3.959   5.591  2.8283 -0.2941  1.0422
    9SAPS   C27 1112   3.797   4.003   5.784 -0.4672 -0.5460 -0.3421
    9SAPS   H7R 1113   3.764   3.969   5.884 -0.5152 -1.4224 -0.6519
    9SAPS   H7S 1114   3.822   4.110   5.801  0.6820 -0.8803  0.1593
    9SAPS   C28 1115   3.918   3.926   5.732 -0.6565  0.0517 -0.5293
    9SAPS   H8R 1116   3.908   3.817   5.739 -3.1860  0.1769 -0.9987
    9SAPS   C29 1117   4.022   3.981   5.670 -0.3256  0.1318 -0.4354
    9SAPS   H9R 1118   4.101   3.912   5.637  0.9698  0.2957  2.1103
    9SAPS  C210 1119   4.064   4.127   5.635  0.2950  0.5195  0.5168
    9SAPS  H10R 1120   4.162   4.107   5.587 -0.4949 -0.0086 -0.9288
    9SAPS  H10S 1121   4.082   4.191   5.724  0.8894  2.6177 -1.0253
    9SAPS  C211 1122   3.980   4.213   5.549 -0.2027 -0.9366 -0.2507
    9SAPS  H11R 1123   3.901   4.269   5.603  1.0063  1.6256 -0.9814
    9SAPS  C212 1124   4.001   4.238   5.421  0.2662 -0.0626  0.3985
    9SAPS  H12R 1125   3.928   4.302   5.369  0.8971  1.2044  1.0276
    9SAPS  C213 1126   4.101   4.181   5.324 -0.2463 -0.1751  0.1339
    9SAPS  H13R 1127   4.048   4.097   5.274 -1.6999  0.5237  0.4560
    9SAPS  H13S 1128   4.190   4.137   5.374 -1.1747 -1.4120  0.7577
    9SAPS  C214 1129   4.146   4.289   5.222 -0.6740 -0.1331  0.0217
    9SAPS  H14R 1130   4.157   4.392   5.259 -1.3914 -0.8832  2.5052
    9SAPS  C215 1131   4.200   4.267   5.100  0.1877 -0.0966 -0.1134
    9SAPS  H15R 1132   4.241   4.354   5.047 -0.1683  0.1148 -0.0411
    9SAPS  C216 1133   4.227   4.130   5.037  0.3555 -0.2542 -0.8042
    9SAPS  H16R 1134   4.176   4.053   5.098 -0.0252  1.4646  1.1623
    9SAPS  H16S 1135   4.337   4.117   5.035  0.4831  0.7444 -0.7971
    9SAPS  C217 1136   4.163   4.123   4.895  0.8686  0.2757 -0.5560
    9SAPS  H17R 1137   4.201   4.214   4.844 -0.1386  0.3050 -1.2768
    9SAPS  H17S 1138   4.053   4.125   4.882  0.3318 -0.8337  2.8160
    9SAPS  C218 1139   4.220   4.009   4.815  0.5917  0.0588  0.3156
    9SAPS  H18R 1140   4.212   3.919   4.879 -0.5631 -1.0253 -1.2885
    9SAPS  H18S 1141   4.326   4.024   4.786  0.2209  0.0878 -1.0872
    9SAPS  C219 1142   4.136   3.967   4.689  0.3983  0.2490 -0.2835
    9SAPS  H19R 1143   4.143   4.036   4.602 -1.8991  1.0850  0.1122
    9SAPS  H19S 1144   4.030   3.958   4.722  1.3018 -2.1528  2.3962
    9SAPS  C220 1145   4.190   3.835   4.632  0.2902 -0.8052  0.2217
    9SAPS  H20R 1146   4.301   3.835   4.633  0.2901 -1.2287  1.4268
    9SAPS  H20S 1147   4.154   3.844   4.527 -0.6258 -0.6854  0.5367
    9SAPS  H20T 1148   4.141   3.743   4.671  0.0086 -0.2003  1.3194
    9SAPS   C33 1149   2.672   4.212   5.819  0.7073 -0.1591 -0.1467
    9SAPS   H3X 1150   2.649   4.307   5.766  2.0603 -0.7282 -1.8929
    9SAPS   H3Y 1151   2.586   4.150   5.850  0.1877 -0.2320 -1.6205
    9SAPS   C34 1152   2.745   4.110   5.730  0.2185 -0.0254  0.8634
    9SAPS   H4X 1153   2.675   4.082   5.648 -1.1650 -3.1864  2.9255
    9SAPS   H4Y 1154   2.775   4.017   5.783  2.3814  1.0300  1.6069
    9SAPS   C35 1155   2.879   4.172   5.672  0.1857  0.6968  0.6803
    9SAPS   H5X 1156   2.876   4.283   5.675  0.0549  0.7217 -0.0132
    9SAPS   H5Y 1157   2.881   4.150   5.563 -3.2618 -0.2068  0.6944
    9SAPS   C36 1158   3.011   4.137   5.739 -0.0085 -0.0944  0.9262
    9SAPS   H6X 1159   2.995   4.034   5.778  0.5970 -1.1247 -1.4316
    9SAPS   H6Y 1160   3.037   4.211   5.819 -0.6567  0.6075  0.5012
    9SAPS   C37 1161   3.126   4.143   5.641  0.2484 -0.0625 -0.3760
    9SAPS   H7X 1162   3.112   4.066   5.562  3.2419 -1.3099  0.1543
    9SAPS   H7Y 1163   3.216   4.113   5.699  0.4374  4.2528  1.9243
    9SAPS   C38 1164   3.163   4.283   5.591 -0.0596 -0.2129  0.2045
    9SAPS   H8X 1165   3.163   4.345   5.683 -0.1459  0.3546 -0.1755
    9SAPS   H8Y 1166   3.086   4.320   5.520  0.4276 -0.3017 -0.3722
    9SAPS   C39 1167   3.304   4.289   5.536  0.2172  0.2014  0.4518
    9SAPS   H9X 1168   3.379   4.271   5.616  4.1535  1.1723 -2.6807
    9SAPS   H9Y 1169   3.320   4.397   5.515  2.5529  0.5126  3.1975
    9SAPS  C310 1170   3.328   4.182   5.421 -0.1524 -0.7581 -0.0906
    9SAPS  H10X 1171   3.265   4.194   5.330 -0.7830  1.0685  0.5493
    9SAPS  H10Y 1172   3.302   4.084   5.467  0.8213 -1.2930 -0.6362
    9SAPS  C311 1173   3.475   4.175   5.386 -0.0840 -0.2736 -0.3340
    9SAPS  H11X 1174   3.503   4.070   5.362 -0.3740 -0.4764  0.2106
    9SAPS  H11Y 1175   3.547   4.210   5.462 -0.2359  0.5363 -0.5601
    9SAPS  C312 1176   3.516   4.257   5.260 -0.0679  0.6089  0.2766
    9SAPS  H12X 1177   3.520   4.367   5.279  2.2182  0.6478 -0.1936
    9SAPS  H12Y 1178   3.434   4.230   5.190 -0.4130 -1.0578  1.2823
    9SAPS  C313 1179   3.651   4.191   5.215 -0.3502 -0.4739  0.1999
    9SAPS  H13X 1180   3.711   4.170   5.306  1.2407  0.1385 -0.6752
    9SAPS  H13Y 1181   3.710   4.254   5.146 -0.8747  0.4853  0.5994
    9SAPS  C314 1182   3.629   4.059   5.143 -0.0566  0.1296  0.6289
    9SAPS  H14X 1183   3.576   4.073   5.047 -1.3635 -1.0520  1.1211
    9SAPS  H14Y 1184   3.560   3.992   5.200 -0.3069 -0.9073 -0.8459
    9SAPS  C315 1185   3.753   3.979   5.102 -1.2514 -0.1669  0.3912
    9SAPS  H15X 1186   3.814   4.054   5.046 -1.0839 -0.8691 -0.3846
    9SAPS  H15Y 1187   3.727   3.915   5.016 -3.1647  2.6635 -1.3168
    9SAPS  C316 1188   3.830   3.918   5.222 -0.3143  0.4845  0.1963
    9SAPS  H16X 1189   3.875   3.990   5.294  2.1351 -1.4013  0.6621
    9SAPS  H16Y 1190   3.917   3.868   5.175  0.7932  0.8697  1.7696
    9SAPS  C317 1191   3.750   3.815   5.303 -0.8138  0.6036 -0.5507
    9SAPS  H17X 1192   3.719   3.734   5.233 -0.0955 -1.0221  0.9270
    9SAPS  H17Y 1193   3.661   3.870   5.341 -0.2635  1.5439 -0.5882
    9SAPS  C318 1194   3.826   3.751   5.420 -0.1568  0.3123  0.2447
    9SAPS  H18X 1195   3.889   3.825   5.474  0.7709 -1.0593  1.0756
    9SAPS  H18Y 1196   3.913   3.692   5.384  0.1788  0.2058  1.2162
    9SAPS  H18Z 1197   3.766   3.696   5.495 -1.3127  2.2478  0.8285
   10SAPS     N 1198   3.068   6.923   6.967 -0.2594  0.5021  0.1750
   10SAPS   HN1 1199   2.991   6.984   6.934 -1.3104 -0.6669  0.4069
   10SAPS   HN2 1200   3.112   6.887   6.880  3.0318  1.3656  1.3437
   10SAPS   HN3 1201   3.024   6.850   7.026  0.1335  0.1869  0.0842
   10SAPS   C12 1202   3.151   7.008   7.042  0.1953 -0.8374 -0.4533
   10SAPS  H12A 1203   3.101   7.013   7.137 -1.6569  0.6676 -1.4526
   10SAPS   C13 1204   3.302   6.965   7.068  0.0027  0.7446 -0.3174
   10SAPS  O13A 1205   3.349   6.870   6.995  0.2089  0.3308 -0.0261
   10SAPS  O13B 1206   3.382   7.034   7.133 -0.3992  0.2520  0.7482
   10SAPS   C11 1207   3.151   7.157   6.984 -0.0752 -0.3440 -0.3537
   10SAPS  H11A 1208   3.186   7.162   6.879 -0.5050  1.0525 -0.4518
   10SAPS  H11B 1209   3.226   7.217   7.039 -0.0703  0.2331 -0.9799
   10SAPS     P 1210   2.907   7.218   6.888  0.2888 -0.2087  0.0837
   10SAPS   O13 1211   2.881   7.075   6.861  0.1314 -0.0676 -0.0350
   10SAPS   O14 1212   2.793   7.301   6.933  0.4167  0.2752  0.4129
   10SAPS   O12 1213   3.026   7.226   6.995  0.0383 -0.1678 -0.1720
   10SAPS   O11 1214   2.966   7.288   6.759  0.2601 -0.1849  0.6259
   10SAPS    C1 1215   3.020   7.417   6.777 -0.1193 -0.4428  0.1519
   10SAPS    HA 1216   2.957   7.469   6.851 -1.6587 -1.6755 -0.2217
   10SAPS    HB 1217   3.126   7.416   6.808  0.1332 -0.2748 -0.6722
   10SAPS    C2 1218   3.006   7.498   6.641  0.1123 -0.2426  0.1913
   10SAPS    HS 1219   2.897   7.518   6.633  0.7633  3.1423 -1.4798
   10SAPS   O21 1220   3.061   7.433   6.528 -0.1104  0.1746 -0.0724
   10SAPS   C21 1221   3.000   7.463   6.411  0.1029  0.2427 -0.0091
   10SAPS   O22 1222   2.897   7.532   6.401  0.8207 -0.0514  0.2788
   10SAPS   C22 1223   3.070   7.388   6.296  0.1011  0.0742  0.3524
   10SAPS   H2R 1224   3.130   7.307   6.342  1.3185  0.8240  0.1186
   10SAPS   H2S 1225   2.990   7.343   6.233 -0.6789  1.2629  0.4731
   10SAPS    C3 1226   3.069   7.640   6.653 -0.1145 -0.3525  0.0573
   10SAPS    HX 1227   3.023   7.691   6.741  0.2946  0.1504 -0.0149
   10SAPS    HY 1228   3.022   7.699   6.572 -2.2146 -2.8170 -0.6469
   10SAPS   O31 1229   3.214   7.628   6.655 -0.5008  0.0764  0.0194
   10SAPS   C31 1230   3.270   7.708   6.565  0.5193  0.1610  0.2939
   10SAPS   O32 1231   3.207   7.789   6.501 -0.2232 -0.1226  0.1782
   10SAPS   C32 1232   3.418   7.686   6.552 -1.2171  0.1567 -0.2542
   10SAPS   H2X 1233   3.442   7.578   6.537  0.8484  0.8741 -2.7286
   10SAPS   H2Y 1234   3.460   7.718   6.650 -0.2040 -0.2821 -0.5218
   10SAPS   C23 1235   3.165   7.470   6.202  0.2323 -0.0648  0.0782
   10SAPS   H3R 1236   3.225   7.394   6.149 -1.7941 -1.1991 -0.7141
   10SAPS   H3S 1237   3.229   7.533   6.268 -0.2441 -0.3633  0.8415
   10SAPS   C24 1238   3.082   7.564   6.109 -0.1369  0.8395 -0.3968
   10SAPS   H4R 1239   3.154   7.647   6.097  0.8235  0.1453  0.3461
   10SAPS   H4S 1240   3.000   7.605   6.172  1.7580  0.4584  2.4961
   10SAPS   C25 1241   3.025   7.509   5.979  0.0470  0.0155 -0.0762
   10SAPS   H5R 1242   2.917   7.486   5.976  0.1481 -0.3954 -0.8442
   10SAPS   C26 1243   3.089   7.503   5.866  0.3612 -0.0138  0.5101
   10SAPS   H6R 1244   3.045   7.453   5.779  1.6032 -0.1055 -0.0904
   10SAPS   C27 1245   3.236   7.546   5.848 -0.9985 -0.2170  0.5881
   10SAPS   H7R 1246   3.269   7.616   5.927 -0.3150  1.5161 -1.1603
   10SAPS   H7S 1247   3.251   7.592   5.747 -1.4809  1.0751  1.0957
   10SAPS   C28 1248   3.331   7.427   5.847  0.7967 -0.6288 -0.3685
   10SAPS   H8R 1249   3.355   7.392   5.948  0.2440 -0.2984 -0.1202
   10SAPS   C29 1250   3.380   7.364   5.735  0.1841 -0.4093 -0.1908
   10SAPS   H9R 1251   3.445   7.276   5.741  0.6391 -0.2041 -1.6721
   10SAPS  C210 1252   3.337   7.399   5.596 -0.1147 -0.5718 -0.2467
   10SAPS  H10R 1253   3.397   7.490   5.574  0.3527 -0.8043  0.0285
   10SAPS  H10S 1254   3.229   7.421   5.601 -0.5153 -2.5550  0.5443
   10SAPS  C211 1255   3.354   7.292   5.488 -0.5376 -1.0805  0.1903
   10SAPS  H11R 1256   3.374   7.192   5.528 -0.8379 -0.4633  1.9768
   10SAPS  C212 1257   3.351   7.318   5.355  0.2566  0.2418  0.3616
   10SAPS  H12R 1258   3.372   7.241   5.279  2.0579  0.8800  0.1498
   10SAPS  C213 1259   3.327   7.456   5.295 -0.0627  0.4311  0.0024
   10SAPS  H13R 1260   3.423   7.495   5.256  0.4435 -0.9405 -0.1756
   10SAPS  H13S 1261   3.294   7.520   5.380  0.5576  1.2222 -0.3370
   10SAPS  C214 1262   3.212   7.447   5.197 -0.0726  0.1353 -0.6814
   10SAPS  H14R 1263   3.107   7.459   5.228 -0.0351  4.4331 -1.6254
   10SAPS  C215 1264   3.229   7.422   5.064 -0.6565 -0.3655 -0.2766
   10SAPS  H15R 1265   3.139   7.435   5.002  0.1258 -0.5113 -1.4724
   10SAPS  C216 1266   3.359   7.414   4.981  0.7061  0.1040 -0.7601
   10SAPS  H16R 1267   3.388   7.309   4.964  0.1046 -0.4512  1.3289
   10SAPS  H16S 1268   3.444   7.465   5.032  1.5546 -0.9566 -1.0770
   10SAPS  C217 1269   3.339   7.487   4.842  0.1039  1.0544  0.2243
   10SAPS  H17R 1270   3.440   7.526   4.819  0.4415 -0.1143 -0.3178
   10SAPS  H17S 1271   3.278   7.579   4.861 -1.6049 -0.1191  0.6847
   10SAPS  C218 1272   3.290   7.406   4.724 -0.0689 -0.2471  0.1517
   10SAPS  H18R 1273   3.190   7.364   4.745 -1.1980  0.3573 -3.4937
   10SAPS  H18S 1274   3.353   7.316   4.707 -1.7037 -1.3201 -0.4513
   10SAPS  C219 1275   3.305   7.494   4.602 -0.2213 -0.6903  0.7998
   10SAPS  H19R 1276   3.397   7.556   4.604 -1.2611  1.0759 -1.6197
   10SAPS  H19S 1277   3.218   7.562   4.591 -1.1382 -2.0008 -0.4830
   10SAPS  C220 1278   3.295   7.406   4.480 -0.5880 -0.4225 -0.1348
   10SAPS  H20R 1279   3.291   7.465   4.385 -1.1652 -0.6785 -0.2697
   10SAPS  H20S 1280   3.211   7.335   4.491  0.1947 -1.4346 -0.4456
   10SAPS  H20T 1281   3.382   7.338   4.470 -0.3110 -0.0494 -0.3156
   10SAPS   C33 1282   3.483   7.796   6.459 -0.6473  0.1476  0.0096
   10SAPS   H3X 1283   3.439   7.896   6.477 -2.7225 -0.5906 -0.6563
   10SAPS   H3Y 1284   3.469   7.751   6.359 -0.4654 -2.3504  1.0232
   10SAPS   C34 1285   3.632   7.799   6.487 -0.5097 -0.0129 -0.0181
   10SAPS   H4X 1286   3.665   7.693   6.481 -0.2500  0.1016 -0.6805
   10SAPS   H4Y 1287   3.661   7.830   6.590 -0.2169  2.8247 -0.8744
   10SAPS   C35 1288   3.715   7.889   6.398  0.2151 -0.1356  0.9087
   10SAPS   H5X 1289   3.816   7.903   6.441  1.2180 -2.8261 -0.3585
   10SAPS   H5Y 1290   3.663   7.984   6.372  0.9976 -0.2029 -1.0695
   10SAPS   C36 1291   3.752   7.816   6.266  0.0836 -0.2199 -0.8683
   10SAPS   H6X 1292   3.660   7.784   6.213 -0.7355 -1.9688  1.4749
   10SAPS   H6Y 1293   3.795   7.717   6.290 -0.6860 -1.0593 -2.7601
   10SAPS   C37 1294   3.849   7.896   6.182 -0.1139 -0.1117 -0.5765
   10SAPS   H7X 1295   3.933   7.935   6.243 -1.6271  2.0526  0.2425
   10SAPS   H7Y 1296   3.803   7.981   6.128 -0.4433 -0.4184 -0.7856
   10SAPS   C38 1297   3.919   7.809   6.077  0.0351 -0.5230  0.1181
   10SAPS   H8X 1298   3.837   7.746   6.039  1.2031 -1.4130 -0.9756
   10SAPS   H8Y 1299   3.986   7.734   6.125 -0.5605 -2.6384 -2.1718
   10SAPS   C39 1300   3.989   7.899   5.969  0.0218  0.3232 -0.3306
   10SAPS   H9X 1301   4.098   7.909   5.985 -0.3855  1.7583  1.9056
   10SAPS   H9Y 1302   3.934   7.995   5.960 -1.2636 -0.0462  2.5822
   10SAPS  C310 1303   3.960   7.834   5.833 -0.6317  0.2497  0.0678
   10SAPS  H10X 1304   3.855   7.801   5.825 -0.1276 -1.2049 -1.0876
   10SAPS  H10Y 1305   4.014   7.737   5.821  0.2192  0.6723  0.3536
   10SAPS  C311 1306   3.991   7.931   5.725  0.4612 -0.1433 -0.2278
   10SAPS  H11X 1307   4.101   7.937   5.736  0.2559  1.0546  1.6304
   10SAPS  H11Y 1308   3.942   8.030   5.733 -1.3759 -0.9061 -1.3199
   10SAPS  C312 1309   3.944   7.883   5.597  0.3404 -0.1584  0.7249
   10SAPS  H12X 1310   3.834   7.881   5.585  0.5456 -3.4384 -2.2566
   10SAPS  H12Y 1311   3.976   7.776   5.595  0.8166 -0.0272  1.0744
   10SAPS  C313 1312   4.015   7.946   5.479  0.1117 -0.6828  0.8987
   10SAPS  H13X 1313   4.125   7.933   5.479  0.0804 -0.9621  0.6446
   10SAPS  H13Y 1314   3.986   8.052   5.469 -1.2543 -1.0159  1.1092
   10SAPS  C314 1315   3.961   7.875   5.351 -0.2343 -0.2332 -0.0723
   10SAPS  H14X 1316   3.855   7.895   5.327 -0.2235 -0.5443 -0.3787
   10SAPS  H14Y 1317   3.986   7.767   5.362 -1.2555 -0.2638  3.3657
   10SAPS  C315 1318   4.041   7.930   5.242 -0.7976  0.6675 -0.1095
   10SAPS  H15X 1319   4.147   7.898   5.247 -0.6572  0.7051 -2.1036
   10SAPS  H15Y 1320   4.041   8.041   5.246 -0.3259  0.6543  0.2497
   10SAPS  C316 1321   3.973   7.898   5.105  0.0112  0.5922 -0.2701
   10SAPS  H16X 1322   3.870   7.941   5.104 -0.6075 -0.6907  1.7169
   10SAPS  H16Y 1323   3.974   7.787   5.098 -0.9347  0.3695  2.0300
   10SAPS  C317 1324   4.060   7.945   4.985 -0.2106  0.3090  0.7987
   10SAPS  H17X 1325   4.020   7.910   4.887  1.3064 -1.2143  0.6877
   10SAPS  H17Y 1326   4.168   7.921   4.991  0.5507  2.3822 -2.1501
   10SAPS  C318 1327   4.067   8.097   4.971 -0.2671  0.9323  0.4281
   10SAPS  H18X 1328   3.968   8.147   4.960  0.1959  2.4553  2.5510
   10SAPS  H18Y 1329   4.129   8.129   4.884 -1.7582 -0.8650 -1.4038
   10SAPS  H18Z 1330   4.114   8.135   5.064  0.2815 -1.4241  1.1808
   11SAPS     N 1331   4.048   1.247   2.096  0.1029  0.6437 -0.2935
   11SAPS   HN1 1332   4.085   1.260   2.193 -0.0897  2.5876 -0.4256
   11SAPS   HN2 1333   3.945   1.243   2.111  0.3482 -0.9554  1.3444
   11SAPS   HN3 1334   4.075   1.156   2.055  0.7746  1.5562 -1.9696
   11SAPS   C12 1335   4.080   1.348   1.997 -0.0297  0.6550  0.3423
   11SAPS  H12A 1336   4.172   1.395   2.026  1.0936 -0.7645 -0.7859
   11SAPS   C13 1337   4.090   1.299   1.845 -0.3007 -0.4331 -0.3545
   11SAPS  O13A 1338   4.031   1.197   1.811 -0.1878  0.7141 -0.2104
   11SAPS  O13B 1339   4.156   1.374   1.766  0.4299 -0.6667  0.9381
   11SAPS   C11 1340   3.966   1.458   1.997 -0.9623  0.0647  0.1048
   11SAPS  H11A 1341   3.877   1.415   1.948 -2.0633  2.9459 -0.6314
   11SAPS  H11B 1342   4.004   1.531   1.923 -0.9233  1.1433  1.1554
   11SAPS     P 1343   3.884   1.659   2.142 -0.0222  0.0789  0.2853
   11SAPS   O13 1344   3.911   1.743   2.027  0.0037 -0.6876  0.1760
   11SAPS   O14 1345   3.745   1.643   2.188  0.9533 -0.2178 -0.0775
   11SAPS   O12 1346   3.947   1.520   2.127 -0.4159  0.6222  0.7876
   11SAPS   O11 1347   3.974   1.721   2.261  0.0073  0.0917  0.2358
   11SAPS    C1 1348   4.085   1.643   2.310 -0.0753  0.1263 -0.6524
   11SAPS    HA 1349   4.146   1.599   2.229  0.6700 -0.3494  0.1498
   11SAPS    HB 1350   4.150   1.714   2.366  0.8260  0.5580 -2.2008
   11SAPS    C2 1351   4.051   1.525   2.415 -0.0657 -0.2599 -0.0122
   11SAPS    HS 1352   3.986   1.457   2.357 -0.1166  1.7799 -2.5412
   11SAPS   O21 1353   3.985   1.590   2.528 -0.1330 -0.2785 -0.1062
   11SAPS   C21 1354   3.909   1.520   2.601 -0.1038  0.3953 -0.0643
   11SAPS   O22 1355   3.876   1.403   2.580 -0.2132  0.3284  0.9151
   11SAPS   C22 1356   3.855   1.599   2.722  0.2288 -0.3619 -0.1868
   11SAPS   H2R 1357   3.798   1.684   2.679 -2.7253 -2.6390 -1.1440
   11SAPS   H2S 1358   3.773   1.539   2.766 -1.4870  0.9193 -1.4959
   11SAPS    C3 1359   4.178   1.456   2.461 -0.1309 -0.4257 -0.0714
   11SAPS    HX 1360   4.240   1.528   2.519  0.5286 -0.0985 -1.1630
   11SAPS    HY 1361   4.234   1.429   2.370 -0.8748 -1.9339 -0.1101
   11SAPS   O31 1362   4.155   1.336   2.542 -0.9268  0.1266 -0.2732
   11SAPS   C31 1363   4.105   1.230   2.483 -0.1259 -0.5951 -0.0418
   11SAPS   O32 1364   4.072   1.224   2.366  0.5250 -0.1169 -0.0540
   11SAPS   C32 1365   4.106   1.107   2.574 -0.3380  0.0067  0.0368
   11SAPS   H2X 1366   4.001   1.074   2.586 -0.8315  1.5178  0.0419
   11SAPS   H2Y 1367   4.157   1.129   2.670 -3.8104  0.0665  2.0221
   11SAPS   C23 1368   3.962   1.656   2.813  0.3089  0.0337 -0.3634
   11SAPS   H3R 1369   3.906   1.733   2.871  2.4059  2.0663 -0.8896
   11SAPS   H3S 1370   4.039   1.716   2.761 -0.1267  0.0153 -1.0491
   11SAPS   C24 1371   4.026   1.561   2.909  0.5382  0.2395 -0.1700
   11SAPS   H4R 1372   3.949   1.516   2.975  0.0015 -1.5365 -1.9218
   11SAPS   H4S 1373   4.094   1.611   2.981  1.0920 -0.5855 -0.0992
   11SAPS   C25 1374   4.116   1.453   2.866  0.4679  0.4732 -0.1390
   11SAPS   H5R 1375   4.194   1.482   2.793 -0.3929 -0.0334 -1.2950
   11SAPS   C26 1376   4.100   1.320   2.876  0.8507  0.0812  0.9373
   11SAPS   H6R 1377   4.173   1.250   2.835  0.1731  0.1924 -0.5172
   11SAPS   C27 1378   3.977   1.253   2.950 -0.2809  0.2817 -0.0735
   11SAPS   H7R 1379   3.890   1.269   2.883  0.7758  0.4291 -1.4802
   11SAPS   H7S 1380   3.966   1.290   3.054  1.2315 -0.5931  0.4402
   11SAPS   C28 1381   3.996   1.102   2.947 -0.4837 -0.9258 -0.1127
   11SAPS   H8R 1382   3.944   1.052   2.864  0.6584 -2.2458 -0.0589
   11SAPS   C29 1383   4.070   1.032   3.035 -0.0210  0.5132 -0.8310
   11SAPS   H9R 1384   4.091   0.926   3.012 -1.3097  0.0633 -0.0584
   11SAPS  C210 1385   4.139   1.087   3.161  0.6051 -0.0314  0.3641
   11SAPS  H10R 1386   4.071   1.113   3.245  1.1913  0.1072  0.8018
   11SAPS  H10S 1387   4.184   1.187   3.142  0.0810  0.2764  0.7053
   11SAPS  C211 1388   4.230   0.984   3.227  0.3070 -0.2077  0.2482
   11SAPS  H11R 1389   4.337   1.007   3.217  0.0319  1.5130  0.8652
   11SAPS  C212 1390   4.202   0.873   3.296 -0.7492  0.8694 -0.5279
   11SAPS  H12R 1391   4.286   0.822   3.345 -1.9244 -0.2327  0.4257
   11SAPS  C213 1392   4.077   0.796   3.320 -0.3835 -0.4578 -0.3968
   11SAPS  H13R 1393   4.091   0.699   3.268 -0.9183 -1.1372  0.6899
   11SAPS  H13S 1394   3.988   0.839   3.269 -0.1409 -0.4157 -0.7864
   11SAPS  C214 1395   4.035   0.783   3.463 -0.7578  0.1057  0.6100
   11SAPS  H14R 1396   4.018   0.874   3.522  0.7757  1.4730 -0.9334
   11SAPS  C215 1397   4.025   0.663   3.525 -0.7518  0.0362  0.4190
   11SAPS  H15R 1398   3.964   0.665   3.616 -0.2031  3.0033  0.8391
   11SAPS  C216 1399   4.042   0.528   3.456  0.6502 -0.1675  0.0175
   11SAPS  H16R 1400   4.143   0.483   3.471  0.1096 -1.1946  0.6514
   11SAPS  H16S 1401   4.009   0.527   3.350  2.8423  0.5475 -0.7276
   11SAPS  C217 1402   3.939   0.449   3.547 -0.2152 -0.4400  0.1834
   11SAPS  H17R 1403   3.923   0.354   3.492 -0.0576  0.9170 -2.3613
   11SAPS  H17S 1404   3.838   0.494   3.544 -0.5822 -1.2348  0.2876
   11SAPS  C218 1405   4.001   0.416   3.685 -0.1125 -0.1450 -0.3988
   11SAPS  H18R 1406   4.048   0.501   3.739  0.2039 -0.2687 -0.4809
   11SAPS  H18S 1407   4.088   0.351   3.666  1.8620  1.5135  2.2482
   11SAPS  C219 1408   3.899   0.337   3.776  0.3736  0.6297 -0.1322
   11SAPS  H19R 1409   3.860   0.250   3.719 -0.1556  0.3323  0.6625
   11SAPS  H19S 1410   3.806   0.391   3.803  0.6023  0.6440  0.6583
   11SAPS  C220 1411   3.957   0.299   3.912 -0.6138  0.2017  0.3771
   11SAPS  H20R 1412   4.064   0.274   3.893 -0.9726 -0.2554 -1.2056
   11SAPS  H20S 1413   3.899   0.218   3.960 -1.3286  0.6247  0.2293
   11SAPS  H20T 1414   3.956   0.392   3.973 -1.2557  2.2193 -2.4790
   11SAPS   C33 1415   4.183   0.983   2.509 -0.2904  0.4522 -0.7399
   11SAPS   H3X 1416   4.275   1.016   2.457 -0.4199  0.3702 -1.0221
   11SAPS   H3Y 1417   4.123   0.944   2.424  0.7994  1.4713 -2.0189
   11SAPS   C34 1418   4.204   0.866   2.618  0.2053 -0.2068 -0.0540
   11SAPS   H4X 1419   4.268   0.796   2.561 -1.3660 -1.1189 -0.7528
   11SAPS   H4Y 1420   4.109   0.823   2.655 -0.4431  2.3496  1.5716
   11SAPS   C35 1421   4.290   0.897   2.739  0.1919  0.1552  0.5632
   11SAPS   H5X 1422   4.225   0.951   2.812  0.2121 -1.1221  1.5664
   11SAPS   H5Y 1423   4.380   0.956   2.713  0.6375 -0.6787  0.1932
   11SAPS   C36 1424   4.347   0.762   2.794  0.0871  0.4554  0.5990
   11SAPS   H6X 1425   4.427   0.740   2.720 -0.1855  2.4107 -0.3537
   11SAPS   H6Y 1426   4.268   0.685   2.781  1.4383 -0.9501  0.4937
   11SAPS   C37 1427   4.396   0.766   2.942  0.2070  0.3951 -1.0527
   11SAPS   H7X 1428   4.322   0.825   3.000  0.1790 -0.3762 -0.2812
   11SAPS   H7Y 1429   4.492   0.820   2.949  0.7013 -0.6659  1.2366
   11SAPS   C38 1430   4.398   0.622   3.006  0.0325  0.0584 -0.1883
   11SAPS   H8X 1431   4.440   0.542   2.941 -0.6424  0.4965 -1.1869
   11SAPS   H8Y 1432   4.291   0.601   3.028  0.0870 -0.5345 -0.4666
   11SAPS   C39 1433   4.481   0.615   3.133  0.6902 -0.1775  0.3449
   11SAPS   H9X 1434   4.452   0.706   3.191 -1.1364  1.2944 -2.6515
   11SAPS   H9Y 1435   4.591   0.620   3.114  0.5766 -2.8578 -1.6112
   11SAPS  C310 1436   4.460   0.482   3.206  0.5735 -0.0947  0.2556
   11SAPS  H10X 1437   4.511   0.399   3.152 -0.1733 -0.2419 -0.2418
   11SAPS  H10Y 1438   4.353   0.452   3.215  1.4622 -3.5399  0.8913
   11SAPS  C311 1439   4.527   0.467   3.344 -0.0433  0.0607 -0.4457
   11SAPS  H11X 1440   4.636   0.486   3.345 -0.3234  1.8699 -0.8741
   11SAPS  H11Y 1441   4.505   0.362   3.373 -2.6701  0.7563  0.3643
   11SAPS  C312 1442   4.458   0.557   3.445 -0.9489 -0.5608  0.0957
   11SAPS  H12X 1443   4.348   0.556   3.428 -1.4437  0.4038  2.7336
   11SAPS  H12Y 1444   4.494   0.661   3.433  2.6606 -1.7079 -0.3235
   11SAPS  C313 1445   4.492   0.519   3.591 -0.3284 -0.2218 -0.0819
   11SAPS  H13X 1446   4.600   0.494   3.601 -0.0634  0.7470 -0.4182
   11SAPS  H13Y 1447   4.432   0.431   3.621 -2.0291  0.9780  0.1681
   11SAPS  C314 1448   4.459   0.634   3.687 -0.3768  0.3295  0.1825
   11SAPS  H14X 1449   4.394   0.696   3.621 -2.0791  0.1351  1.6085
   11SAPS  H14Y 1450   4.545   0.694   3.722 -1.5747  0.3513  3.4006
   11SAPS  C315 1451   4.377   0.605   3.806  0.5885  0.7971 -0.6743
   11SAPS  H15X 1452   4.412   0.526   3.875  3.6797  1.0021 -1.8670
   11SAPS  H15Y 1453   4.280   0.578   3.758  0.5644 -0.4170  0.0301
   11SAPS  C316 1454   4.362   0.731   3.893 -0.3750 -0.2831  1.3922
   11SAPS  H16X 1455   4.280   0.716   3.967  0.0839 -0.8658  1.7930
   11SAPS  H16Y 1456   4.336   0.814   3.825  2.6887 -0.4832 -0.1836
   11SAPS  C317 1457   4.492   0.776   3.967  0.0012  0.3999 -0.2808
   11SAPS  H17X 1458   4.572   0.792   3.892 -0.6515  0.0883 -1.0645
   11SAPS  H17Y 1459   4.537   0.700   4.034  1.4761 -1.0137 -2.7203
   11SAPS  C318 1460   4.470   0.913   4.037 -0.5083 -0.4043 -0.1581
   11SAPS  H18X 1461   4.563   0.947   4.087 -0.7067  1.2643 -0.8826
   11SAPS  H18Y 1462   4.388   0.909   4.112 -0.3608  0.3340  0.0480
   11SAPS  H18Z 1463   4.439   0.985   3.959 -1.2490 -0.5452 -0.0065
   12SAPS     N 1464   4.114   0.529   1.804  0.2823  0.0643  0.1888
   12SAPS   HN1 1465   4.102   0.544   1.702  0.2961  0.7148  0.2768
   12SAPS   HN2 1466   4.064   0.605   1.854 -2.7691 -1.6016 -0.0831
   12SAPS   HN3 1467   4.212   0.529   1.839  0.9832 -1.6547 -1.6121
   12SAPS   C12 1468   4.037   0.417   1.857 -0.2082  0.2780  0.5829
   12SAPS  H12A 1469   3.932   0.439   1.840 -0.8130 -2.7130 -0.0592
   12SAPS   C13 1470   4.068   0.284   1.784  0.8075 -0.0269 -0.1627
   12SAPS  O13A 1471   4.157   0.284   1.691  0.3771  0.1328  0.0336
   12SAPS  O13B 1472   4.001   0.186   1.813  0.4367  0.0331  0.5526
   12SAPS   C11 1473   4.054   0.405   2.007  0.1097  0.4298  0.4513
   12SAPS  H11A 1474   3.994   0.314   2.027 -0.7853  1.3643  2.2926
   12SAPS  H11B 1475   4.011   0.493   2.059  0.8646  0.8588  0.3692
   12SAPS     P 1476   4.241   0.341   2.169  0.2839 -0.0346  0.0275
   12SAPS   O13 1477   4.249   0.190   2.167  0.5181 -0.5826  0.0625
   12SAPS   O14 1478   4.366   0.414   2.209  0.4553  0.4235 -0.0399
   12SAPS   O12 1479   4.192   0.386   2.032  0.0816 -0.2922 -0.2585
   12SAPS   O11 1480   4.120   0.389   2.263 -0.3294 -0.0535  0.1359
   12SAPS    C1 1481   4.137   0.509   2.339  0.2425 -0.2182  0.1766
   12SAPS    HA 1482   4.236   0.527   2.385  0.6332  0.8180 -0.9981
   12SAPS    HB 1483   4.121   0.598   2.274 -1.4665  0.6529  1.7051
   12SAPS    C2 1484   4.047   0.503   2.462  0.5919 -0.0280  0.7556
   12SAPS    HS 1485   4.066   0.595   2.522  0.0586  0.3192  0.4032
   12SAPS   O21 1486   4.066   0.386   2.535  0.3707 -0.4139 -0.0211
   12SAPS   C21 1487   4.174   0.390   2.613 -0.3357  0.0688  0.4687
   12SAPS   O22 1488   4.257   0.485   2.617 -0.1552  0.7025  0.2035
   12SAPS   C22 1489   4.164   0.274   2.719 -0.0767  0.0828  1.1385
   12SAPS   H2R 1490   4.060   0.244   2.746  0.1050 -1.3031  0.4025
   12SAPS   H2S 1491   4.207   0.182   2.674  1.4391  0.7007  1.2550
   12SAPS    C3 1492   3.895   0.512   2.424  0.1036 -0.3004  0.1464
   12SAPS    HX 1493   3.882   0.416   2.370 -0.1768  0.0006 -0.3271
   12SAPS    HY 1494   3.887   0.597   2.353 -0.7430 -0.1225  0.4446
   12SAPS   O31 1495   3.805   0.533   2.536  0.5779  0.5191 -0.3648
   12SAPS   C31 1496   3.763   0.417   2.591 -0.5249 -0.5724  0.1388
   12SAPS   O32 1497   3.781   0.302   2.549  0.6177 -0.1157 -0.4478
   12SAPS   C32 1498   3.678   0.452   2.710  0.0005  0.3563 -0.1497
   12SAPS   H2X 1499   3.575   0.467   2.670  0.2407  0.2863 -0.8176
   12SAPS   H2Y 1500   3.708   0.547   2.757  0.3469  0.3176 -0.2895
   12SAPS   C23 1501   4.233   0.325   2.842 -0.0894 -0.4487  0.5486
   12SAPS   H3R 1502   4.206   0.429   2.869  1.8878  0.1562  0.3699
   12SAPS   H3S 1503   4.340   0.335   2.814  0.0331 -1.1067  0.7761
   12SAPS   C24 1504   4.226   0.225   2.956  0.0258  0.1649 -0.7179
   12SAPS   H4R 1505   4.309   0.240   3.028 -0.9651 -2.4970  1.1276
   12SAPS   H4S 1506   4.228   0.121   2.918 -0.2619 -0.6117  1.2676
   12SAPS   C25 1507   4.099   0.257   3.025  0.6632 -0.3038 -0.5735
   12SAPS   H5R 1508   4.009   0.292   2.972  0.6167  0.5426  0.0360
   12SAPS   C26 1509   4.076   0.262   3.158  0.1954  0.3419  0.1064
   12SAPS   H6R 1510   3.975   0.286   3.193  0.5595  0.2219  1.3076
   12SAPS   C27 1511   4.172   0.227   3.269  0.1120  0.2786 -0.7921
   12SAPS   H7R 1512   4.218   0.316   3.317 -0.3020  0.5657 -0.9194
   12SAPS   H7S 1513   4.258   0.172   3.226  0.2676 -0.3101  0.2462
   12SAPS   C28 1514   4.107   0.145   3.380  0.2459 -0.0738 -0.0298
   12SAPS   H8R 1515   4.018   0.086   3.354 -0.8743  2.0591 -1.3131
   12SAPS   C29 1516   4.166   0.117   3.490 -0.5620  0.2283 -0.5358
   12SAPS   H9R 1517   4.124   0.051   3.567  1.6704 -2.1499 -1.2021
   12SAPS  C210 1518   4.302   0.162   3.531  0.1291 -0.3207 -0.1666
   12SAPS  H10R 1519   4.298   0.233   3.616  1.6279 -3.2049  2.5547
   12SAPS  H10S 1520   4.356   0.202   3.443 -1.3884  0.6100 -0.7032
   12SAPS  C211 1521   4.394   0.054   3.579  0.0514 -0.1333 -0.3665
   12SAPS  H11R 1522   4.457   0.018   3.497 -0.5993 -0.8657 -0.5474
   12SAPS  C212 1523   4.404   0.013   3.704  0.4716  0.5825 -0.9202
   12SAPS  H12R 1524   4.475  -0.068   3.724  0.1478  0.4007 -0.5106
   12SAPS  C213 1525   4.308   0.054   3.821 -0.5225 -0.1224  1.0992
   12SAPS  H13R 1526   4.209   0.012   3.796  1.0693 -3.3527 -0.3988
   12SAPS  H13S 1527   4.287   0.163   3.829  0.2904  0.0034  1.6347
   12SAPS  C214 1528   4.349  -0.010   3.951  0.1796 -0.0543 -0.3668
   12SAPS  H14R 1529   4.295  -0.101   3.980  0.9009 -0.5740 -0.6416
   12SAPS  C215 1530   4.426   0.040   4.046  0.0642 -0.5074 -0.1946
   12SAPS  H15R 1531   4.444  -0.018   4.138  0.2474  1.4673  1.0875
   12SAPS  C216 1532   4.500   0.169   4.039  0.4325 -0.5198  0.1113
   12SAPS  H16R 1533   4.501   0.215   3.938 -0.5642 -1.2055 -0.2266
   12SAPS  H16S 1534   4.607   0.150   4.061  0.3613 -0.3075  0.6432
   12SAPS  C217 1535   4.468   0.277   4.141  0.6444 -0.1865  0.0118
   12SAPS  H17R 1536   4.535   0.366   4.141  1.1476 -0.5480  0.9464
   12SAPS  H17S 1537   4.464   0.245   4.247 -0.6576  1.1774  0.4172
   12SAPS  C218 1538   4.320   0.332   4.118 -0.2473 -0.0652 -0.6327
   12SAPS  H18R 1539   4.246   0.253   4.144  0.8160 -0.4424  1.4642
   12SAPS  H18S 1540   4.312   0.364   4.012 -0.3873  0.8131 -0.3631
   12SAPS  C219 1541   4.291   0.446   4.216  0.4927  0.3338  0.0166
   12SAPS  H19R 1542   4.343   0.541   4.192 -1.0928  1.4912  0.9456
   12SAPS  H19S 1543   4.320   0.412   4.318 -0.2833 -2.9088 -0.7488
   12SAPS  C220 1544   4.136   0.471   4.224 -0.2247 -0.2362 -0.1453
   12SAPS  H20R 1545   4.096   0.506   4.127  1.2626  1.0307 -0.3424
   12SAPS  H20S 1546   4.102   0.535   4.308 -1.1604 -1.4255  0.4204
   12SAPS  H20T 1547   4.090   0.371   4.243  1.9757 -1.0877  1.0799
   12SAPS   C33 1548   3.685   0.332   2.815 -0.5499  0.2352  0.2075
   12SAPS   H3X 1549   3.784   0.332   2.867 -1.9233  1.2027  3.0494
   12SAPS   H3Y 1550   3.663   0.242   2.754 -1.8176  1.2591 -0.9050
   12SAPS   C34 1551   3.565   0.324   2.911 -0.2023 -0.1312  0.2388
   12SAPS   H4X 1552   3.530   0.221   2.933 -0.5517 -0.0099  0.2577
   12SAPS   H4Y 1553   3.494   0.379   2.846  3.3159  1.4940 -2.5745
   12SAPS   C35 1554   3.584   0.385   3.049 -0.5512  0.4330  0.2872
   12SAPS   H5X 1555   3.483   0.394   3.096 -0.6926 -0.7362  0.2287
   12SAPS   H5Y 1556   3.632   0.485   3.045 -2.6820  1.5304  0.1702
   12SAPS   C36 1557   3.665   0.288   3.143  0.1950  0.5636  0.3495
   12SAPS   H6X 1558   3.765   0.265   3.098 -0.5579 -2.0687 -0.1620
   12SAPS   H6Y 1559   3.624   0.185   3.136 -1.0075  1.0706 -0.3288
   12SAPS   C37 1560   3.683   0.340   3.289  0.5422 -0.5424 -0.7154
   12SAPS   H7X 1561   3.710   0.446   3.273  0.4480 -0.1334  1.5673
   12SAPS   H7Y 1562   3.765   0.277   3.330 -2.0573 -2.7345  1.5006
   12SAPS   C38 1563   3.563   0.329   3.379 -0.0870  0.6891 -0.3049
   12SAPS   H8X 1564   3.526   0.225   3.394  0.0154  0.7132  0.1213
   12SAPS   H8Y 1565   3.474   0.385   3.341 -2.3558 -2.0078  0.6911
   12SAPS   C39 1566   3.599   0.387   3.515  0.5423  0.1948 -0.1521
   12SAPS   H9X 1567   3.628   0.493   3.502  1.4105 -0.2035 -1.8347
   12SAPS   H9Y 1568   3.687   0.336   3.561  1.5888  0.7744 -1.4333
   12SAPS  C310 1569   3.482   0.384   3.616 -0.7502 -0.0351 -0.7504
   12SAPS  H10X 1570   3.498   0.419   3.720 -2.0101  3.8847 -1.6724
   12SAPS  H10Y 1571   3.461   0.275   3.622  1.7739 -0.6034 -1.1228
   12SAPS  C311 1572   3.356   0.457   3.575 -0.8522 -0.2353  0.0462
   12SAPS  H11X 1573   3.318   0.432   3.474 -1.6581  0.3143  0.2055
   12SAPS  H11Y 1574   3.390   0.562   3.575 -1.7926  0.1035 -1.6353
   12SAPS  C312 1575   3.236   0.429   3.671  0.0976 -0.6709 -0.3009
   12SAPS  H12X 1576   3.211   0.321   3.678  0.4147 -0.6704  1.0780
   12SAPS  H12Y 1577   3.145   0.473   3.624  0.4299 -0.7146 -0.9970
   12SAPS  C313 1578   3.258   0.469   3.820 -0.1247  0.3965  0.2518
   12SAPS  H13X 1579   3.327   0.394   3.865  0.0184  0.6474  0.4556
   12SAPS  H13Y 1580   3.165   0.454   3.879  0.4870  0.5506  1.2748
   12SAPS  C314 1581   3.313   0.612   3.835 -0.2321  0.7105  0.0854
   12SAPS  H14X 1582   3.249   0.684   3.780  1.5400  2.1954 -0.1377
   12SAPS  H14Y 1583   3.413   0.616   3.788  0.1142  2.7260  0.8665
   12SAPS  C315 1584   3.343   0.671   3.970  0.1454  0.3356  0.1899
   12SAPS  H15X 1585   3.248   0.685   4.025 -0.1626 -0.3578 -0.1452
   12SAPS  H15Y 1586   3.401   0.766   3.969 -0.1252  0.5011 -0.0822
   12SAPS  C316 1587   3.433   0.583   4.066  0.6780 -0.3877  0.0908
   12SAPS  H16X 1588   3.532   0.551   4.026 -0.3120 -0.8571 -2.0846
   12SAPS  H16Y 1589   3.379   0.487   4.072 -0.4423  0.2594  0.7761
   12SAPS  C317 1590   3.435   0.638   4.205  0.2495 -0.1016 -0.3252
   12SAPS  H17X 1591   3.332   0.661   4.241  0.0909 -1.0389 -0.1627
   12SAPS  H17Y 1592   3.488   0.736   4.210  0.1135 -0.0861  2.2228
   12SAPS  C318 1593   3.507   0.537   4.300  0.4482 -0.6219 -0.2053
   12SAPS  H18X 1594   3.464   0.434   4.310 -0.8342 -0.1195 -0.3085
   12SAPS  H18Y 1595   3.516   0.569   4.406  0.1043  0.6446 -0.5443
   12SAPS  H18Z 1596   3.612   0.519   4.270  1.4496 -0.2693  2.8023
   13SAPS     N 1597   0.285   5.401   2.593 -0.0581 -0.5468  0.0392
   13SAPS   HN1 1598   0.259   5.336   2.516  1.5236 -0.4105 -0.6487
   13SAPS   HN2 1599   0.388   5.397   2.607  0.1087  0.5723 -0.7265
   13SAPS   HN3 1600   0.243   5.363   2.681 -0.2070 -0.5051 -0.0134
   13SAPS   C12 1601   0.238   5.534   2.557 -0.2171  0.0414 -0.0648
   13SAPS  H12A 1602   0.319   5.580   2.503 -1.1063  0.3410 -1.1619
   13SAPS   C13 1603   0.111   5.553   2.467 -0.3118 -0.2856  0.1147
   13SAPS  O13A 1604   0.057   5.450   2.427 -0.0379  0.4766  0.1908
   13SAPS  O13B 1605   0.086   5.664   2.419 -0.1993  0.9920  0.0265
   13SAPS   C11 1606   0.217   5.610   2.693 -0.1202  0.5554 -0.3099
   13SAPS  H11A 1607   0.187   5.716   2.680  1.8263  0.8819 -2.7619
   13SAPS  H11B 1608   0.311   5.615   2.751  1.0921  1.8869 -2.2772
   13SAPS     P 1609   0.015   5.550   2.868  0.1896  0.0961 -0.0618
   13SAPS   O13 1610  -0.104   5.580   2.790 -0.0886 -0.8056  0.6119
   13SAPS   O14 1611  -0.007   5.438   2.965 -0.3048 -0.4850 -0.2825
   13SAPS   O12 1612   0.122   5.523   2.768  0.4346 -0.4584  0.1536
   13SAPS   O11 1613   0.056   5.682   2.954  0.2531  0.6686  0.1231
   13SAPS    C1 1614   0.111   5.658   3.088 -0.6352  0.2675 -0.4089
   13SAPS    HA 1615   0.173   5.566   3.096  0.0582  0.7786  0.4617
   13SAPS    HB 1616   0.178   5.745   3.108 -1.1360  1.7879 -4.4392
   13SAPS    C2 1617  -0.000   5.667   3.203 -0.3518  0.5079 -0.1992
   13SAPS    HS 1618  -0.064   5.576   3.193  0.2279  0.2690 -2.4608
   13SAPS   O21 1619  -0.071   5.797   3.187 -0.7870 -0.0695 -0.3788
   13SAPS   C21 1620  -0.190   5.800   3.116 -0.2772 -0.3423 -0.0533
   13SAPS   O22 1621  -0.248   5.705   3.062 -0.1324 -0.3542  0.1932
   13SAPS   C22 1622  -0.238   5.943   3.111  0.0445  0.4238  0.3709
   13SAPS   H2R 1623  -0.223   5.992   3.210 -2.0106  1.4637  0.2329
   13SAPS   H2S 1624  -0.179   5.996   3.033  1.4733  1.0253  1.8063
   13SAPS    C3 1625   0.073   5.658   3.338 -0.6159  0.3588  0.2826
   13SAPS    HX 1626   0.136   5.750   3.334  0.7008 -0.5404 -2.6727
   13SAPS    HY 1627   0.137   5.567   3.342 -2.3025 -0.8203  1.8225
   13SAPS   O31 1628  -0.017   5.655   3.451 -0.2609 -0.2009  0.2643
   13SAPS   C31 1629  -0.099   5.554   3.471 -0.9800 -1.1130  0.1032
   13SAPS   O32 1630  -0.096   5.453   3.406  0.6171  1.0453  0.0276
   13SAPS   C32 1631  -0.197   5.595   3.572  0.7081  0.2555  0.1432
   13SAPS   H2X 1632  -0.154   5.686   3.619  1.5056 -1.5527  3.2178
   13SAPS   H2Y 1633  -0.204   5.506   3.639  1.1303 -0.3639 -0.6256
   13SAPS   C23 1634  -0.377   5.959   3.055 -0.2716  0.5487 -0.3578
   13SAPS   H3R 1635  -0.395   5.885   2.973 -0.8631 -0.0020  0.2567
   13SAPS   H3S 1636  -0.382   6.060   3.008  1.0535  1.3458  1.1147
   13SAPS   C24 1637  -0.482   5.965   3.162  0.0949 -0.0590  0.3673
   13SAPS   H4R 1638  -0.445   6.049   3.226  0.4666  0.7643 -0.8937
   13SAPS   H4S 1639  -0.482   5.873   3.225 -0.6604  0.3419  0.9760
   13SAPS   C25 1640  -0.623   5.981   3.132  0.1773  0.3298 -0.0215
   13SAPS   H5R 1641  -0.653   5.937   3.037  1.2583  1.3420 -0.8722
   13SAPS   C26 1642  -0.712   6.060   3.198  0.6532  0.4650 -1.1504
   13SAPS   H6R 1643  -0.815   6.057   3.158  0.5417 -1.2302 -0.8210
   13SAPS   C27 1644  -0.692   6.139   3.322  0.3991 -0.2537 -0.1150
   13SAPS   H7R 1645  -0.593   6.188   3.314 -0.3591  1.0093 -3.5782
   13SAPS   H7S 1646  -0.693   6.068   3.407 -3.2071 -1.3699 -0.9000
   13SAPS   C28 1647  -0.792   6.237   3.350  0.3194 -0.0898 -0.5255
   13SAPS   H8R 1648  -0.747   6.336   3.332 -2.0234  2.0939  4.0063
   13SAPS   C29 1649  -0.913   6.222   3.405  0.6240  0.3369 -0.9898
   13SAPS   H9R 1650  -0.983   6.307   3.404 -1.8909 -1.5834 -2.3664
   13SAPS  C210 1651  -0.989   6.103   3.455 -0.1956  0.9480  0.7413
   13SAPS  H10R 1652  -1.078   6.147   3.503  0.3228  1.5449  1.1762
   13SAPS  H10S 1653  -0.929   6.047   3.531  1.4970 -1.4267 -2.1072
   13SAPS  C211 1654  -1.045   6.003   3.355 -0.8011 -1.0210  0.3230
   13SAPS  H11R 1655  -0.974   5.929   3.316  0.5195 -0.4379  1.5533
   13SAPS  C212 1656  -1.169   6.001   3.304 -0.5800  0.4218  0.5300
   13SAPS  H12R 1657  -1.188   5.917   3.235  0.6742  1.7715 -1.5933
   13SAPS  C213 1658  -1.272   6.114   3.322  0.0204  0.1931  0.3942
   13SAPS  H13R 1659  -1.221   6.210   3.346  3.0223 -1.4003  0.8347
   13SAPS  H13S 1660  -1.346   6.085   3.400 -0.2090  1.1368  0.5435
   13SAPS  C214 1661  -1.335   6.144   3.186  0.4921 -0.3969  0.6106
   13SAPS  H14R 1662  -1.278   6.120   3.096 -0.7824  0.4537 -0.4570
   13SAPS  C215 1663  -1.457   6.196   3.164  0.0531  0.8267 -1.1286
   13SAPS  H15R 1664  -1.491   6.222   3.062 -0.8354  2.2072 -0.5157
   13SAPS  C216 1665  -1.542   6.252   3.282  0.0197  0.2303 -0.7385
   13SAPS  H16R 1666  -1.472   6.284   3.362 -1.3768  0.5509  0.3868
   13SAPS  H16S 1667  -1.585   6.157   3.320  4.0623 -0.9900  1.4157
   13SAPS  C217 1668  -1.650   6.357   3.247 -0.0478 -0.3998 -0.0605
   13SAPS  H17R 1669  -1.597   6.444   3.201 -0.0976  0.3029  1.1655
   13SAPS  H17S 1670  -1.688   6.392   3.346 -1.0935 -1.5695 -0.0218
   13SAPS  C218 1671  -1.762   6.303   3.159  0.1406  0.4010  0.8455
   13SAPS  H18R 1672  -1.729   6.243   3.071 -1.4189  2.0283 -0.9552
   13SAPS  H18S 1673  -1.824   6.381   3.109 -0.6196 -1.4611 -1.3172
   13SAPS  C219 1674  -1.856   6.203   3.237  0.4073 -0.1395 -0.3178
   13SAPS  H19R 1675  -1.907   6.250   3.323 -0.5736  0.6642 -1.3004
   13SAPS  H19S 1676  -1.796   6.118   3.276  1.1037  1.0467  1.3218
   13SAPS  C220 1677  -1.953   6.139   3.139  0.2319  0.1550  0.5113
   13SAPS  H20R 1678  -1.898   6.099   3.051 -2.7750 -0.5395 -1.1850
   13SAPS  H20S 1679  -2.030   6.212   3.106  0.1699 -0.7360 -1.4029
   13SAPS  H20T 1680  -2.006   6.056   3.190 -0.9500  1.8044  2.1049
   13SAPS   C33 1681  -0.334   5.617   3.503 -0.0734  0.8614 -0.1660
   13SAPS   H3X 1682  -0.375   5.517   3.478 -1.5857  0.6117  2.8874
   13SAPS   H3Y 1683  -0.316   5.677   3.411 -1.0646  0.7641 -0.4272
   13SAPS   C34 1684  -0.445   5.690   3.586  0.3934  0.7828 -0.4604
   13SAPS   H4X 1685  -0.403   5.778   3.639 -1.2636  0.8508  0.8051
   13SAPS   H4Y 1686  -0.485   5.630   3.670 -0.9676  2.0509 -0.1664
   13SAPS   C35 1687  -0.569   5.730   3.501 -0.3565  0.3573  0.2693
   13SAPS   H5X 1688  -0.530   5.786   3.413 -0.2080 -0.5722 -0.2752
   13SAPS   H5Y 1689  -0.645   5.789   3.555 -0.0235  1.5897 -0.5784
   13SAPS   C36 1690  -0.645   5.603   3.459 -0.4460  0.2653 -0.0610
   13SAPS   H6X 1691  -0.586   5.519   3.416 -2.7020 -1.3569 -0.1714
   13SAPS   H6Y 1692  -0.711   5.639   3.378 -0.8176  1.2855  0.6827
   13SAPS   C37 1693  -0.740   5.556   3.571  0.2233 -0.3038  0.3020
   13SAPS   H7X 1694  -0.798   5.632   3.628  0.6101  1.2467 -1.2900
   13SAPS   H7Y 1695  -0.688   5.497   3.649 -0.1972 -1.1898 -0.0794
   13SAPS   C38 1696  -0.853   5.459   3.526  0.3102  0.4742  0.0170
   13SAPS   H8X 1697  -0.810   5.373   3.471  0.0085  0.4564 -0.1903
   13SAPS   H8Y 1698  -0.917   5.514   3.454 -0.6467 -0.0859  0.4313
   13SAPS   C39 1699  -0.936   5.407   3.641  0.1816  0.6496  0.6155
   13SAPS   H9X 1700  -0.996   5.486   3.690  0.5645  0.2926  1.6800
   13SAPS   H9Y 1701  -0.869   5.383   3.726  2.7226 -0.5493 -1.5893
   13SAPS  C310 1702  -1.023   5.283   3.602 -0.5861  0.4356 -0.1561
   13SAPS  H10X 1703  -0.952   5.208   3.562  0.2215  0.7199  0.7127
   13SAPS  H10Y 1704  -1.101   5.308   3.527 -0.9315 -1.2475 -0.3783
   13SAPS  C311 1705  -1.114   5.227   3.718 -0.1381 -0.8795 -0.6602
   13SAPS  H11X 1706  -1.154   5.131   3.678 -0.6352 -1.6673  1.5379
   13SAPS  H11Y 1707  -1.190   5.306   3.730  1.3374  0.3955  0.7306
   13SAPS  C312 1708  -1.048   5.208   3.855 -1.7133 -0.2645  0.2604
   13SAPS  H12X 1709  -1.026   5.308   3.898 -0.4479 -0.6598  0.5613
   13SAPS  H12Y 1710  -0.954   5.150   3.840 -1.8948 -0.4964  0.0143
   13SAPS  C313 1711  -1.130   5.126   3.944  0.8007  0.1583 -0.3939
   13SAPS  H13X 1712  -1.137   5.027   3.895  1.8583  0.9372 -2.1812
   13SAPS  H13Y 1713  -1.232   5.170   3.954  1.1640  1.1197 -0.8316
   13SAPS  C314 1714  -1.077   5.097   4.089  0.0221  0.0096 -0.0970
   13SAPS  H14X 1715  -1.076   5.187   4.155 -2.5132  0.1671 -0.1736
   13SAPS  H14Y 1716  -0.978   5.049   4.077  0.4706  1.2081 -1.4333
   13SAPS  C315 1717  -1.172   4.998   4.155 -0.3809 -0.0600 -1.4332
   13SAPS  H15X 1718  -1.261   4.985   4.089  1.5004 -1.5519 -3.8916
   13SAPS  H15Y 1719  -1.204   5.035   4.254  1.9109  0.6250 -0.8900
   13SAPS  C316 1720  -1.131   4.857   4.186  0.0350  1.0960 -0.7843
   13SAPS  H16X 1721  -1.205   4.801   4.247  0.6965 -0.8359 -1.6672
   13SAPS  H16Y 1722  -1.032   4.846   4.236  0.6735  2.2643 -1.7369
   13SAPS  C317 1723  -1.122   4.766   4.055 -0.4871 -0.3688  0.5463
   13SAPS  H17X 1724  -1.049   4.812   3.985  0.1560 -1.2778  0.6042
   13SAPS  H17Y 1725  -1.219   4.753   4.001 -0.1721 -0.2732 -0.0439
   13SAPS  C318 1726  -1.051   4.626   4.087 -0.1103  0.2550 -0.0255
   13SAPS  H18X 1727  -1.034   4.566   3.995 -1.5338  0.2992 -0.3466
   13SAPS  H18Y 1728  -1.112   4.563   4.155  1.5025 -0.1193  1.1287
   13SAPS  H18Z 1729  -0.956   4.637   4.143 -0.4924  1.5966  0.4032
   14SAPS     N 1730   4.353   4.554   2.358 -0.3628 -0.3757  0.0291
   14SAPS   HN1 1731   4.257   4.551   2.317 -0.2247 -0.9441 -0.2699
   14SAPS   HN2 1732   4.361   4.462   2.407  0.0230 -2.7104 -3.9182
   14SAPS   HN3 1733   4.349   4.639   2.416  0.8792 -0.1233 -0.2208
   14SAPS   C12 1734   4.455   4.572   2.249  0.2737  0.5317  0.0316
   14SAPS  H12A 1735   4.539   4.509   2.274  0.0921  0.1597 -0.2877
   14SAPS   C13 1736   4.400   4.519   2.116  0.7308 -0.2122 -0.3332
   14SAPS  O13A 1737   4.301   4.437   2.112 -0.5821 -0.8126  0.0480
   14SAPS  O13B 1738   4.452   4.560   2.011 -0.0566  0.5559 -0.5238
   14SAPS   C11 1739   4.501   4.727   2.244 -0.5151 -0.4140  0.8797
   14SAPS  H11A 1740   4.410   4.776   2.203 -1.0222 -2.1252 -0.1824
   14SAPS  H11B 1741   4.583   4.735   2.170 -1.6558 -2.9983 -0.8286
   14SAPS     P 1742   4.684   4.763   2.416 -0.2818  0.1945  0.0707
   14SAPS   O13 1743   4.750   4.652   2.343 -0.4895  0.1881  0.0948
   14SAPS   O14 1744   4.735   4.897   2.396  0.2550  0.4459  0.8235
   14SAPS   O12 1745   4.538   4.774   2.374 -0.2089  0.6201  0.8424
   14SAPS   O11 1746   4.677   4.726   2.564 -0.3835  0.4704 -0.2417
   14SAPS    C1 1747   4.563   4.655   2.626 -0.1774 -0.4182 -0.0905
   14SAPS    HA 1748   4.488   4.730   2.661 -1.9192 -1.7684 -0.7577
   14SAPS    HB 1749   4.510   4.583   2.560 -2.1763  0.2476  0.7093
   14SAPS    C2 1750   4.607   4.566   2.749  0.1708  0.5782  0.6348
   14SAPS    HS 1751   4.515   4.515   2.785  1.4387 -2.1718  0.2186
   14SAPS   O21 1752   4.677   4.638   2.848 -0.4236 -0.1298  0.3167
   14SAPS   C21 1753   4.606   4.708   2.934 -1.3078 -0.3746 -0.1202
   14SAPS   O22 1754   4.486   4.715   2.944 -0.1401 -0.2273 -0.5819
   14SAPS   C22 1755   4.707   4.780   3.024 -0.7464 -0.1177  0.1113
   14SAPS   H2R 1756   4.793   4.817   2.964 -0.9461  0.1746  0.0038
   14SAPS   H2S 1757   4.656   4.871   3.060 -0.4523  0.8072 -1.7150
   14SAPS    C3 1758   4.696   4.446   2.704  0.0256 -0.3502  0.3859
   14SAPS    HX 1759   4.782   4.478   2.641  0.0519 -0.1251  0.5348
   14SAPS    HY 1760   4.628   4.389   2.638  1.1614 -3.1463  1.4260
   14SAPS   O31 1761   4.727   4.352   2.804 -0.1597 -0.2792 -0.3134
   14SAPS   C31 1762   4.840   4.370   2.872 -0.2868  0.4520  0.1711
   14SAPS   O32 1763   4.917   4.460   2.862 -0.3967 -0.3220  1.0016
   14SAPS   C32 1764   4.863   4.258   2.978  0.3275 -0.6457 -0.0743
   14SAPS   H2X 1765   4.936   4.180   2.947 -0.0514 -2.2735  2.7559
   14SAPS   H2Y 1766   4.762   4.214   2.991  0.2214  0.0988  1.8431
   14SAPS   C23 1767   4.749   4.697   3.145  0.0796  0.4396  0.5202
   14SAPS   H3R 1768   4.840   4.748   3.183 -0.1626  1.4163 -0.1949
   14SAPS   H3S 1769   4.769   4.592   3.113 -1.0191 -0.1975  1.7768
   14SAPS   C24 1770   4.641   4.678   3.257  0.2618 -0.1139  1.0510
   14SAPS   H4R 1771   4.677   4.597   3.324  0.8209  0.9876  2.1167
   14SAPS   H4S 1772   4.553   4.628   3.210  1.2356 -1.2004  0.3603
   14SAPS   C25 1773   4.609   4.810   3.325  0.8651  0.2585 -0.4195
   14SAPS   H5R 1774   4.692   4.852   3.385 -0.1065  2.2581 -0.3791
   14SAPS   C26 1775   4.504   4.886   3.310 -0.7135 -0.2513  0.2725
   14SAPS   H6R 1776   4.504   4.984   3.359  2.3637  1.0643 -2.0423
   14SAPS   C27 1777   4.378   4.856   3.239 -0.4690 -0.7129  0.0087
   14SAPS   H7R 1778   4.291   4.850   3.309 -1.2007 -0.1297 -0.8258
   14SAPS   H7S 1779   4.391   4.758   3.189  0.2474 -1.1481  1.0291
   14SAPS   C28 1780   4.363   4.955   3.127  0.1738  0.6659  0.4413
   14SAPS   H8R 1781   4.441   4.959   3.050  0.4697  0.4116  0.7217
   14SAPS   C29 1782   4.273   5.048   3.129  0.4195  0.0076 -0.0513
   14SAPS   H9R 1783   4.280   5.123   3.049  1.1247 -0.1438 -0.1422
   14SAPS  C210 1784   4.166   5.068   3.235 -0.6675  0.6019 -0.3823
   14SAPS  H10R 1785   4.218   5.082   3.333 -2.5808 -0.8068  0.9277
   14SAPS  H10S 1786   4.116   4.971   3.258  0.3829 -0.1392 -1.1436
   14SAPS  C211 1787   4.073   5.179   3.211  0.7875  0.5386  0.9393
   14SAPS  H11R 1788   4.104   5.281   3.237  2.2992  0.2818  0.2238
   14SAPS  C212 1789   3.954   5.164   3.151 -0.1540  0.1830 -0.0745
   14SAPS  H12R 1790   3.899   5.253   3.117 -0.0489 -0.1066 -1.0259
   14SAPS  C213 1791   3.886   5.036   3.112 -0.0372 -0.6777 -0.7641
   14SAPS  H13R 1792   3.880   4.969   3.200 -1.7172 -0.2091 -0.4802
   14SAPS  H13S 1793   3.951   4.980   3.041  0.2392 -0.4464 -0.6957
   14SAPS  C214 1794   3.741   5.061   3.065 -0.6608  0.2279 -0.3646
   14SAPS  H14R 1795   3.724   5.152   3.006 -0.0606  0.0702 -0.7920
   14SAPS  C215 1796   3.629   4.991   3.104 -0.6393  0.5255 -0.8006
   14SAPS  H15R 1797   3.533   5.031   3.067 -1.0612  0.1619 -0.1093
   14SAPS  C216 1798   3.620   4.875   3.202  0.1209  0.2836  0.1556
   14SAPS  H16R 1799   3.719   4.831   3.228  0.9630  0.8996 -1.8284
   14SAPS  H16S 1800   3.559   4.794   3.157  0.6504  1.2103 -2.3992
   14SAPS  C217 1801   3.548   4.919   3.335 -0.0030 -0.3233  0.0306
   14SAPS  H17R 1802   3.442   4.929   3.306  0.3885 -0.3930 -1.5005
   14SAPS  H17S 1803   3.597   5.011   3.372 -1.4644  0.2496  0.5916
   14SAPS  C218 1804   3.562   4.818   3.447 -0.0144 -0.0012  0.9581
   14SAPS  H18R 1805   3.529   4.872   3.539 -0.8898  2.0034 -0.4656
   14SAPS  H18S 1806   3.666   4.786   3.470 -0.5422 -0.7828  2.3981
   14SAPS  C219 1807   3.460   4.700   3.451  0.4029  0.1344  0.2531
   14SAPS  H19R 1808   3.462   4.637   3.359  2.7787 -0.4374  0.6351
   14SAPS  H19S 1809   3.362   4.749   3.465  1.1564  1.8226 -0.0786
   14SAPS  C220 1810   3.477   4.608   3.570 -0.1414 -0.6604 -0.1316
   14SAPS  H20R 1811   3.444   4.662   3.661 -0.2421 -1.0677  0.0758
   14SAPS  H20S 1812   3.586   4.588   3.586 -0.3009 -0.5185  1.2876
   14SAPS  H20T 1813   3.421   4.512   3.565 -2.2437  0.4168  1.3107
   14SAPS   C33 1814   4.912   4.306   3.106  1.1910  1.0530 -0.0347
   14SAPS   H3X 1815   4.855   4.395   3.138 -0.9938  0.5779 -2.3142
   14SAPS   H3Y 1816   5.016   4.345   3.097  1.4398  0.2366 -0.8700
   14SAPS   C34 1817   4.905   4.198   3.211 -0.4370  0.1154  0.3116
   14SAPS   H4X 1818   4.980   4.120   3.185 -1.4212 -0.2969 -1.5241
   14SAPS   H4Y 1819   4.803   4.156   3.227 -0.4863  0.9338  2.4881
   14SAPS   C35 1820   4.940   4.243   3.354  0.1847 -0.1600 -0.1828
   14SAPS   H5X 1821   5.046   4.275   3.359 -0.1252  0.7837  0.9255
   14SAPS   H5Y 1822   4.940   4.153   3.420  0.3704  0.6825  1.0090
   14SAPS   C36 1823   4.840   4.336   3.418 -0.1568  0.0191 -0.3957
   14SAPS   H6X 1824   4.746   4.283   3.395 -0.0321 -0.0774 -0.6913
   14SAPS   H6Y 1825   4.833   4.435   3.370 -1.8259  0.2702  0.3271
   14SAPS   C37 1826   4.854   4.359   3.571  0.0367  0.1590 -0.1275
   14SAPS   H7X 1827   4.956   4.381   3.611 -0.9286 -0.5540  2.9858
   14SAPS   H7Y 1828   4.813   4.269   3.620  0.4885  0.0801  0.1184
   14SAPS   C38 1829   4.764   4.466   3.622  0.4689 -0.9807 -0.9646
   14SAPS   H8X 1830   4.655   4.454   3.605  0.1172  0.5749 -0.0270
   14SAPS   H8Y 1831   4.791   4.561   3.571 -2.8273  1.5014  1.4548
   14SAPS   C39 1832   4.796   4.497   3.768  0.1511 -0.7813  0.2332
   14SAPS   H9X 1833   4.905   4.492   3.790  0.5419 -0.8273 -1.5644
   14SAPS   H9Y 1834   4.758   4.429   3.847  0.9372  0.4764  1.7335
   14SAPS  C310 1835   4.765   4.644   3.802  0.5387  0.3643 -1.6340
   14SAPS  H10X 1836   4.840   4.709   3.754  0.9581  2.1161  1.1590
   14SAPS  H10Y 1837   4.776   4.643   3.913 -2.0802 -3.8951 -1.1691
   14SAPS  C311 1838   4.620   4.684   3.756 -0.0251 -0.1076  0.1879
   14SAPS  H11X 1839   4.551   4.600   3.781  0.1079 -0.3117 -0.1239
   14SAPS  H11Y 1840   4.616   4.692   3.645 -0.1344 -2.3671 -0.0168
   14SAPS  C312 1841   4.566   4.819   3.821  0.0388  0.9762  0.9865
   14SAPS  H12X 1842   4.627   4.902   3.779  0.2349  0.7084  0.7445
   14SAPS  H12Y 1843   4.597   4.807   3.927  2.0899 -2.4803  0.1573
   14SAPS  C313 1844   4.414   4.850   3.797 -0.7323  0.0089  0.1339
   14SAPS  H13X 1845   4.351   4.761   3.817  0.4802 -1.3514 -1.7059
   14SAPS  H13Y 1846   4.393   4.858   3.688 -0.2291 -3.2749 -0.3095
   14SAPS  C314 1847   4.366   4.968   3.881  0.1610  0.1172  0.0289
   14SAPS  H14X 1848   4.262   4.980   3.844  0.1617  1.5981  0.4364
   14SAPS  H14Y 1849   4.420   5.059   3.846  1.1292  0.3898  2.0612
   14SAPS  C315 1850   4.389   4.970   4.034  0.3625  0.4049 -1.0664
   14SAPS  H15X 1851   4.493   4.957   4.070 -0.5283 -2.0927  0.9212
   14SAPS  H15Y 1852   4.344   4.878   4.078 -0.4657  0.9676 -0.7076
   14SAPS  C316 1853   4.314   5.087   4.100 -0.4768  0.0807  0.1506
   14SAPS  H16X 1854   4.303   5.058   4.206 -3.0865  0.2350 -0.0057
   14SAPS  H16Y 1855   4.209   5.101   4.066 -0.4950 -0.3384  0.0388
   14SAPS  C317 1856   4.403   5.218   4.095  0.2991 -0.4314 -0.0333
   14SAPS  H17X 1857   4.337   5.306   4.077 -0.5470 -1.1637 -0.6193
   14SAPS  H17Y 1858   4.461   5.215   4.000  0.3767  1.0152 -0.0619
   14SAPS  C318 1859   4.484   5.245   4.214  0.5207  0.6965  0.1586
   14SAPS  H18X 1860   4.424   5.252   4.307 -3.1424 -2.1611 -1.7160
   14SAPS  H18Y 1861   4.542   5.338   4.200 -0.2385  0.9738 -1.3493
   14SAPS  H18Z 1862   4.557   5.161   4.210 -0.5248 -0.2623  0.4951
   15SAPS     N 1863   4.247   1.091   1.667 -0.4552 -0.5052 -0.0794
   15SAPS   HN1 1864   4.259   1.117   1.567 -0.1066 -1.7715 -0.3839
   15SAPS   HN2 1865   4.151   1.104   1.703 -0.8619 -1.7950 -0.6387
   15SAPS   HN3 1866   4.313   1.153   1.719 -0.6278 -0.7201  0.3969
   15SAPS   C12 1867   4.279   0.946   1.684  0.6586  0.1546  0.6775
   15SAPS  H12A 1868   4.189   0.892   1.655  1.5163 -1.0039  0.0964
   15SAPS   C13 1869   4.375   0.900   1.570 -0.3238  0.2421 -0.3875
   15SAPS  O13A 1870   4.402   0.976   1.475 -0.1542 -0.7431 -0.2017
   15SAPS  O13B 1871   4.412   0.779   1.571  0.1721  0.3721 -0.4923
   15SAPS   C11 1872   4.322   0.921   1.832  0.3147  0.0335 -0.2174
   15SAPS  H11A 1873   4.406   0.986   1.862  1.4845 -2.0093  1.1827
   15SAPS  H11B 1874   4.344   0.813   1.844  0.7224  0.2431  1.0578
   15SAPS     P 1875   4.150   0.868   2.023  0.2522 -0.0933  0.2218
   15SAPS   O13 1876   4.058   0.949   2.108  0.0354  0.4946  0.1116
   15SAPS   O14 1877   4.087   0.741   1.976  0.7685 -0.2295 -0.0502
   15SAPS   O12 1878   4.203   0.954   1.906  0.6431 -0.1953 -0.4812
   15SAPS   O11 1879   4.277   0.823   2.106  0.0742  0.5599  0.2587
   15SAPS    C1 1880   4.346   0.924   2.186 -0.0348 -0.5964 -0.5115
   15SAPS    HA 1881   4.355   1.023   2.138  2.6131  1.1183  3.1434
   15SAPS    HB 1882   4.287   0.932   2.280  0.9817  0.6362  0.0350
   15SAPS    C2 1883   4.486   0.877   2.237 -0.9143  0.6139 -0.7877
   15SAPS    HS 1884   4.537   0.827   2.152 -0.0865  1.3588 -0.7331
   15SAPS   O21 1885   4.464   0.784   2.349  0.0877  0.0414 -0.6917
   15SAPS   C21 1886   4.564   0.697   2.354 -0.0907  0.0603 -0.8450
   15SAPS   O22 1887   4.671   0.706   2.298 -0.2252 -0.0333  0.2915
   15SAPS   C22 1888   4.542   0.586   2.458  0.2767  0.3684  0.0193
   15SAPS   H2R 1889   4.522   0.634   2.556  0.9906  0.7712 -0.0252
   15SAPS   H2S 1890   4.466   0.509   2.430  0.1400  0.5153 -0.0136
   15SAPS    C3 1891   4.590   0.993   2.272  0.6413  0.4973  0.2942
   15SAPS    HX 1892   4.607   1.036   2.171 -1.2839 -0.3810 -0.4569
   15SAPS    HY 1893   4.691   0.957   2.303  1.8581  2.2063 -1.4265
   15SAPS   O31 1894   4.529   1.084   2.370 -0.3503  0.3901 -0.6944
   15SAPS   C31 1895   4.619   1.175   2.423  0.2392 -0.9251 -0.4864
   15SAPS   O32 1896   4.740   1.183   2.396  0.5259  0.1260  0.1120
   15SAPS   C32 1897   4.540   1.263   2.523  0.2705  0.2902 -0.3027
   15SAPS   H2X 1898   4.431   1.245   2.513  0.3084 -1.6662  2.0164
   15SAPS   H2Y 1899   4.554   1.372   2.504  2.5306  0.2888  0.9699
   15SAPS   C23 1900   4.677   0.521   2.491  0.1295  0.4402 -0.9364
   15SAPS   H3R 1901   4.749   0.598   2.527  1.6465 -0.3625 -2.1026
   15SAPS   H3S 1902   4.719   0.476   2.399  0.1439 -0.8819 -0.2972
   15SAPS   C24 1903   4.677   0.411   2.605 -0.2308 -0.0583 -0.3098
   15SAPS   H4R 1904   4.621   0.466   2.684  0.0461 -0.4073  0.1360
   15SAPS   H4S 1905   4.772   0.385   2.657 -1.4288 -2.3102  0.9103
   15SAPS   C25 1906   4.608   0.287   2.561  0.0893  0.0154  0.7235
   15SAPS   H5R 1907   4.505   0.304   2.527  0.0621 -1.2870  0.0795
   15SAPS   C26 1908   4.653   0.161   2.545 -0.0959  0.2917  0.7525
   15SAPS   H6R 1909   4.573   0.092   2.517  1.1752 -1.4541  1.2485
   15SAPS   C27 1910   4.789   0.119   2.592 -0.7292  0.5168 -0.5659
   15SAPS   H7R 1911   4.777   0.057   2.683 -0.1970 -1.7767 -1.9922
   15SAPS   H7S 1912   4.841   0.212   2.625 -3.1384  1.3109  1.3794
   15SAPS   C28 1913   4.876   0.055   2.493 -0.0535 -0.4594  0.5610
   15SAPS   H8R 1914   4.962   0.122   2.484 -0.6018  0.5614  2.3531
   15SAPS   C29 1915   4.853  -0.054   2.416  0.8845  0.9068 -0.8041
   15SAPS   H9R 1916   4.935  -0.085   2.349 -0.3466 -1.6391 -1.2836
   15SAPS  C210 1917   4.732  -0.145   2.424 -0.5903 -0.7616 -0.1861
   15SAPS  H10R 1918   4.694  -0.140   2.320 -0.8238 -0.3728 -0.0871
   15SAPS  H10S 1919   4.646  -0.106   2.483 -3.1207 -2.4190 -2.4899
   15SAPS  C211 1920   4.770  -0.284   2.464  0.6486 -0.8082 -0.1810
   15SAPS  H11R 1921   4.824  -0.344   2.390 -0.6799  0.0925 -1.9522
   15SAPS  C212 1922   4.760  -0.331   2.592  0.6017 -0.0361 -0.3094
   15SAPS  H12R 1923   4.790  -0.433   2.622 -2.3721 -0.5666  1.2561
   15SAPS  C213 1924   4.703  -0.246   2.704  0.5250  0.2161  0.4455
   15SAPS  H13R 1925   4.607  -0.297   2.731  0.0870 -0.2981 -1.8132
   15SAPS  H13S 1926   4.671  -0.146   2.669  0.5972  0.3049  0.6340
   15SAPS  C214 1927   4.798  -0.225   2.817  0.4507  0.1835  0.4287
   15SAPS  H14R 1928   4.899  -0.202   2.780  1.0676 -0.5112  1.6116
   15SAPS  C215 1929   4.769  -0.209   2.946 -0.6125 -0.3429 -0.1924
   15SAPS  H15R 1930   4.849  -0.200   3.021 -0.8141  1.1269 -0.1195
   15SAPS  C216 1931   4.634  -0.226   3.005 -0.1740  0.2777  0.3216
   15SAPS  H16R 1932   4.633  -0.295   3.092 -1.8390  1.2244  1.1083
   15SAPS  H16S 1933   4.557  -0.247   2.928  1.1792  0.7796 -1.2247
   15SAPS  C217 1934   4.590  -0.093   3.064  0.2566 -0.2483 -0.8585
   15SAPS  H17R 1935   4.667  -0.053   3.134 -0.3097  0.1541 -0.4546
   15SAPS  H17S 1936   4.497  -0.103   3.124  0.6838  2.2688  0.3973
   15SAPS  C218 1937   4.571   0.017   2.959  0.2194  0.0889 -0.3839
   15SAPS  H18R 1938   4.483   0.006   2.892  1.3206 -1.3327 -1.6739
   15SAPS  H18S 1939   4.652   0.010   2.883 -1.6538 -0.3456 -2.4499
   15SAPS  C219 1940   4.570   0.168   3.013 -0.7788  0.1497 -0.7865
   15SAPS  H19R 1941   4.489   0.175   3.089 -1.7957 -0.9541 -1.7106
   15SAPS  H19S 1942   4.542   0.238   2.931 -0.9357 -0.4104 -1.2230
   15SAPS  C220 1943   4.704   0.220   3.068  1.4319 -0.2553 -0.4424
   15SAPS  H20R 1944   4.738   0.171   3.162  0.4989  0.1016  0.0977
   15SAPS  H20S 1945   4.702   0.328   3.096  0.1397 -0.7363  1.5765
   15SAPS  H20T 1946   4.784   0.218   2.991  2.9412  0.0935  1.0479
   15SAPS   C33 1947   4.559   1.222   2.672 -0.0448 -0.2956 -0.3610
   15SAPS   H3X 1948   4.665   1.246   2.692  0.8871 -2.3368 -2.4830
   15SAPS   H3Y 1949   4.548   1.114   2.695  1.2242 -0.3577  0.0376
   15SAPS   C34 1950   4.472   1.308   2.765  0.6597 -0.4008 -0.4797
   15SAPS   H4X 1951   4.366   1.276   2.766  1.2625 -2.9136  3.3566
   15SAPS   H4Y 1952   4.480   1.407   2.716 -0.2980 -0.4604 -0.7845
   15SAPS   C35 1953   4.519   1.310   2.911  0.2235  0.1215  0.0449
   15SAPS   H5X 1954   4.459   1.386   2.966  3.1642  1.4015  1.7182
   15SAPS   H5Y 1955   4.627   1.336   2.918  0.6791 -1.5130 -0.5442
   15SAPS   C36 1956   4.513   1.174   2.985 -0.4934 -0.0071 -0.2224
   15SAPS   H6X 1957   4.572   1.103   2.922 -0.7857  0.6285 -1.2322
   15SAPS   H6Y 1958   4.412   1.129   2.969 -2.0385  2.9577  0.5261
   15SAPS   C37 1959   4.567   1.183   3.129  0.5307  0.1701  0.0894
   15SAPS   H7X 1960   4.488   1.228   3.192  0.2098 -0.0368 -0.1633
   15SAPS   H7Y 1961   4.648   1.260   3.127  0.7840 -0.0942  0.1633
   15SAPS   C38 1962   4.628   1.055   3.171  0.1268  0.4485 -0.0135
   15SAPS   H8X 1963   4.706   1.020   3.099  1.0404  1.9313  0.2043
   15SAPS   H8Y 1964   4.551   0.976   3.184 -0.0038  0.7133  0.8728
   15SAPS   C39 1965   4.716   1.083   3.296 -0.1405  0.1255 -0.2854
   15SAPS   H9X 1966   4.654   1.120   3.380  0.4747 -3.2703  1.8552
   15SAPS   H9Y 1967   4.792   1.161   3.271 -0.4782  0.4693 -0.2503
   15SAPS  C310 1968   4.785   0.951   3.345 -0.0904  0.0819 -0.7818
   15SAPS  H10X 1969   4.893   0.955   3.317  0.4791 -0.6931  1.0846
   15SAPS  H10Y 1970   4.738   0.860   3.301  0.8827 -0.3358 -0.9887
   15SAPS  C311 1971   4.777   0.948   3.496  0.1938 -0.5173 -0.1266
   15SAPS  H11X 1972   4.671   0.938   3.525  0.8550  0.1397  2.7792
   15SAPS  H11Y 1973   4.817   1.043   3.536 -0.0280 -0.6553  0.4332
   15SAPS  C312 1974   4.857   0.846   3.565 -0.2183 -0.0177 -0.8238
   15SAPS  H12X 1975   4.956   0.844   3.514  0.4398  3.6397  0.0044
   15SAPS  H12Y 1976   4.811   0.746   3.549 -0.0453 -0.7572  2.5718
   15SAPS  C313 1977   4.877   0.873   3.719  0.2451 -0.1446 -0.2476
   15SAPS  H13X 1978   4.773   0.890   3.755  0.0512  0.1892 -0.9415
   15SAPS  H13Y 1979   4.936   0.965   3.734 -1.4037  0.8305  0.5781
   15SAPS  C314 1980   4.932   0.758   3.798 -0.5550  0.6068  0.6018
   15SAPS  H14X 1981   5.012   0.703   3.743 -1.4191 -1.8668  1.6520
   15SAPS  H14Y 1982   4.863   0.672   3.809  0.5305 -0.1429  2.0097
   15SAPS  C315 1983   4.985   0.791   3.932  0.1171 -0.1944 -0.6971
   15SAPS  H15X 1984   4.893   0.801   3.993  0.7744 -0.5875  0.3877
   15SAPS  H15Y 1985   5.041   0.887   3.926  0.5996 -0.5090 -1.3568
   15SAPS  C316 1986   5.078   0.688   3.995  0.1379  0.7146 -0.2852
   15SAPS  H16X 1987   5.182   0.709   3.964  0.1451  0.1549 -0.6489
   15SAPS  H16Y 1988   5.042   0.586   3.971  0.8275  0.3459  0.2369
   15SAPS  C317 1989   5.099   0.717   4.145  0.1544  0.1964 -0.6032
   15SAPS  H17X 1990   5.100   0.827   4.166 -1.0184 -0.4025  3.6265
   15SAPS  H17Y 1991   5.189   0.662   4.182 -0.2429  0.9345  1.6505
   15SAPS  C318 1992   4.990   0.666   4.246 -0.2085  0.4313  0.2141
   15SAPS  H18X 1993   5.002   0.555   4.247 -0.3207  0.3192 -2.5160
   15SAPS  H18Y 1994   4.887   0.693   4.215 -1.3344 -1.5625  1.9363
   15SAPS  H18Z 1995   5.007   0.717   4.343 -1.5467  2.3052 -0.4820
   16SAPS     N 1996   1.212   5.546   2.221 -0.5402  0.2795  1.0203
   16SAPS   HN1 1997   1.291   5.613   2.210  1.0357 -1.5401  0.7661
   16SAPS   HN2 1998   1.143   5.592   2.284 -0.7331  1.3792  0.0495
   16SAPS   HN3 1999   1.242   5.456   2.265 -0.2297 -0.8844 -1.4177
   16SAPS   C12 2000   1.149   5.520   2.088 -0.6272  0.2940  0.1616
   16SAPS  H12A 2001   1.120   5.616   2.048  0.4978  0.0876 -1.2259
   16SAPS   C13 2002   1.234   5.441   1.981 -0.1548  0.2330  0.4574
   16SAPS  O13A 2003   1.323   5.360   2.026 -0.4325 -0.1282 -0.1804
   16SAPS  O13B 2004   1.193   5.438   1.858  0.1342  0.6391  0.2261
   16SAPS   C11 2005   1.019   5.446   2.109  1.1742  0.3755 -0.0277
   16SAPS  H11A 2006   1.030   5.362   2.180  0.8103 -1.4876 -2.0711
   16SAPS  H11B 2007   0.987   5.401   2.013  0.5364 -2.6925  1.5038
   16SAPS     P 2008   0.858   5.590   2.277 -0.1132 -0.0390  0.3763
   16SAPS   O13 2009   0.846   5.735   2.262 -0.1823  0.1323  0.6068
   16SAPS   O14 2010   0.736   5.523   2.304 -0.1284  0.1024  0.2813
   16SAPS   O12 2011   0.921   5.539   2.144  0.2206  0.1101 -0.3772
   16SAPS   O11 2012   0.961   5.555   2.382  0.1259  0.3770 -0.4562
   16SAPS    C1 2013   0.984   5.436   2.449 -0.1284  0.4170 -0.0077
   16SAPS    HA 2014   0.974   5.349   2.380  2.1006  1.1813 -1.4217
   16SAPS    HB 2015   1.091   5.434   2.480 -0.2244 -1.7261  0.3589
   16SAPS    C2 2016   0.895   5.412   2.575 -0.8169 -0.7018  0.5824
   16SAPS    HS 2017   0.788   5.416   2.545 -0.1616  1.7624 -1.9140
   16SAPS   O21 2018   0.928   5.515   2.668 -0.4715 -0.4928 -0.6433
   16SAPS   C21 2019   0.850   5.621   2.670 -1.3637  0.6073 -0.2202
   16SAPS   O22 2020   0.735   5.631   2.630 -0.8851 -0.3600 -0.0444
   16SAPS   C22 2021   0.926   5.728   2.744 -0.4511 -0.2295 -0.6701
   16SAPS   H2R 2022   0.969   5.680   2.835 -0.0198 -0.0502 -0.7735
   16SAPS   H2S 2023   1.010   5.764   2.680  1.8721  0.0023  2.2598
   16SAPS    C3 2024   0.922   5.276   2.641 -0.8201  0.0712 -0.6668
   16SAPS    HX 2025   0.916   5.197   2.564 -2.0348  2.1864 -2.8716
   16SAPS    HY 2026   0.838   5.252   2.710  0.0982 -0.5218  0.2802
   16SAPS   O31 2027   1.053   5.277   2.703 -0.0245 -0.0911  0.2924
   16SAPS   C31 2028   1.086   5.160   2.758  0.0025  0.7479  0.8410
   16SAPS   O32 2029   1.007   5.068   2.774 -0.0923  0.6014 -0.3314
   16SAPS   C32 2030   1.240   5.173   2.792  0.5555 -0.3216  0.1815
   16SAPS   H2X 2031   1.245   5.256   2.865 -0.1487  0.7640 -0.9584
   16SAPS   H2Y 2032   1.291   5.212   2.701  0.5734  2.0778  1.1675
   16SAPS   C23 2033   0.823   5.838   2.788 -0.0737  0.1669 -0.4307
   16SAPS   H3R 2034   0.745   5.851   2.710  0.1906  1.1503 -0.5486
   16SAPS   H3S 2035   0.875   5.936   2.780  1.8093 -0.7213  0.1208
   16SAPS   C24 2036   0.772   5.811   2.932  0.5195 -0.1432  0.2759
   16SAPS   H4R 2037   0.705   5.896   2.960  1.4439  1.2862 -1.6046
   16SAPS   H4S 2038   0.856   5.816   3.004  0.0676 -0.3267  0.8254
   16SAPS   C25 2039   0.687   5.691   2.948  0.3726  0.7523  0.3214
   16SAPS   H5R 2040   0.584   5.695   2.908 -0.3556 -1.3062  1.8515
   16SAPS   C26 2041   0.724   5.578   3.018  0.5980 -0.2502  0.3543
   16SAPS   H6R 2042   0.653   5.495   3.019  0.4828 -0.1515  0.3626
   16SAPS   C27 2043   0.854   5.543   3.078 -0.3627  0.7557  0.5555
   16SAPS   H7R 2044   0.849   5.563   3.187  0.6454  0.1698  0.7226
   16SAPS   H7S 2045   0.941   5.602   3.043  0.7043 -0.6916  0.6504
   16SAPS   C28 2046   0.895   5.397   3.047  0.4834  0.9171  0.4262
   16SAPS   H8R 2047   0.950   5.384   2.952  0.6980 -0.7216  0.7486
   16SAPS   C29 2048   0.856   5.286   3.105  0.1841  0.1864  0.0944
   16SAPS   H9R 2049   0.901   5.188   3.083 -0.9133 -0.5678  1.0440
   16SAPS  C210 2050   0.753   5.272   3.215 -0.1735 -0.7896 -0.5815
   16SAPS  H10R 2051   0.658   5.254   3.160  0.5051 -1.0610 -1.6806
   16SAPS  H10S 2052   0.738   5.371   3.263  1.7952  0.1875 -1.8648
   16SAPS  C211 2053   0.783   5.160   3.312 -0.6314  0.3609 -0.8925
   16SAPS  H11R 2054   0.776   5.052   3.292  1.1941  0.0683 -0.1658
   16SAPS  C212 2055   0.836   5.183   3.439 -0.0188  0.5102 -0.0478
   16SAPS  H12R 2056   0.889   5.107   3.497 -0.5284  0.5729  0.5044
   16SAPS  C213 2057   0.866   5.314   3.500 -0.1729 -0.2700 -0.2263
   16SAPS  H13R 2058   0.774   5.371   3.527 -0.2731 -0.4298 -0.2274
   16SAPS  H13S 2059   0.915   5.378   3.424  0.5898 -0.1954  0.3213
   16SAPS  C214 2060   0.940   5.307   3.634  0.5723 -0.2855 -0.0489
   16SAPS  H14R 2061   1.046   5.334   3.642 -0.4464  3.5974  3.9201
   16SAPS  C215 2062   0.874   5.296   3.754  0.5664  0.7961 -0.3827
   16SAPS  H15R 2063   0.935   5.295   3.846  2.2789  1.9689 -1.4210
   16SAPS  C216 2064   0.722   5.282   3.781 -0.3424  0.9209 -0.7246
   16SAPS  H16R 2065   0.699   5.194   3.844  2.0312  0.2762 -0.6558
   16SAPS  H16S 2066   0.676   5.265   3.682  0.2223 -1.0644 -0.6848
   16SAPS  C217 2067   0.674   5.406   3.856  0.5560  0.3724  0.2229
   16SAPS  H17R 2068   0.682   5.496   3.792  0.8223  1.2072  1.4133
   16SAPS  H17S 2069   0.744   5.423   3.941  0.2818  2.6656  0.0486
   16SAPS  C218 2070   0.532   5.393   3.911 -0.6364  0.4545 -0.1506
   16SAPS  H18R 2071   0.459   5.366   3.832 -1.5694 -1.5579  1.3233
   16SAPS  H18S 2072   0.513   5.500   3.931  3.0344  1.3072 -0.4345
   16SAPS  C219 2073   0.512   5.327   4.043  0.2909  0.0531 -0.7254
   16SAPS  H19R 2074   0.571   5.393   4.111 -0.0299  2.3054 -2.5026
   16SAPS  H19S 2075   0.555   5.225   4.048 -0.7697 -0.3409  2.0329
   16SAPS  C220 2076   0.366   5.330   4.088 -0.4095 -0.8858 -0.4283
   16SAPS  H20R 2077   0.344   5.289   4.189 -0.5552  0.5742  0.1509
   16SAPS  H20S 2078   0.315   5.269   4.010  1.4983 -2.4947 -0.5030
   16SAPS  H20T 2079   0.326   5.434   4.090  1.2059 -0.2635  0.3544
   16SAPS   C33 2080   1.288   5.048   2.861 -0.1023  0.6083  0.8218
   16SAPS   H3X 2081   1.358   5.005   2.786  1.1628  4.4695 -0.3969
   16SAPS   H3Y 2082   1.213   4.971   2.892 -1.1826  1.3524  0.1322
   16SAPS   C34 2083   1.391   5.078   2.979 -0.6218  1.0623  0.5592
   16SAPS   H4X 2084   1.451   5.170   2.960  0.2912  0.5536  0.9493
   16SAPS   H4Y 2085   1.464   4.996   2.993 -0.7896  0.7039 -0.5492
   16SAPS   C35 2086   1.309   5.090   3.108 -0.1514 -0.0655 -0.0385
   16SAPS   H5X 2087   1.238   5.174   3.090  0.2127  0.4955  1.0106
   16SAPS   H5Y 2088   1.383   5.132   3.180  0.3765  0.2809 -0.7733
   16SAPS   C36 2089   1.247   4.969   3.157  0.0589  0.3776 -0.5266
   16SAPS   H6X 2090   1.321   4.886   3.151  2.1992  2.2651 -1.5229
   16SAPS   H6Y 2091   1.162   4.932   3.096 -1.1606  0.2776  1.1693
   16SAPS   C37 2092   1.183   5.001   3.298  0.0276  0.2331  0.1558
   16SAPS   H7X 2093   1.086   5.045   3.268 -0.0373 -0.5628 -0.8631
   16SAPS   H7Y 2094   1.254   5.068   3.352  3.6869 -2.2620 -1.1558
   16SAPS   C38 2095   1.151   4.864   3.379  0.5666 -0.3813 -0.0248
   16SAPS   H8X 2096   1.245   4.804   3.373  1.2291  0.4954  1.1843
   16SAPS   H8Y 2097   1.079   4.792   3.334  2.3913 -1.6935 -0.9743
   16SAPS   C39 2098   1.111   4.898   3.521 -0.5257  0.3700 -0.2778
   16SAPS   H9X 2099   1.010   4.944   3.522 -0.3433  0.8397  1.9692
   16SAPS   H9Y 2100   1.184   4.978   3.545 -0.4231  0.2386 -0.1504
   16SAPS  C310 2101   1.106   4.792   3.632 -0.0534 -0.0046 -0.6166
   16SAPS  H10X 2102   1.209   4.753   3.643  0.3902  0.9972 -1.0406
   16SAPS  H10Y 2103   1.040   4.705   3.609 -0.5077  0.7975 -2.5880
   16SAPS  C311 2104   1.058   4.840   3.772  0.1068 -0.2188  0.3941
   16SAPS  H11X 2105   0.953   4.865   3.747 -0.9360 -3.9949  0.4049
   16SAPS  H11Y 2106   1.123   4.925   3.803  1.2439  0.1409 -2.6477
   16SAPS  C312 2107   1.050   4.731   3.876 -0.0876 -0.1395 -0.1146
   16SAPS  H12X 2108   1.151   4.703   3.913  0.5067  3.3665  1.2740
   16SAPS  H12Y 2109   1.014   4.638   3.827 -1.5358  0.0772  0.4610
   16SAPS  C313 2110   0.964   4.756   3.998  0.2047  0.4465  0.2205
   16SAPS  H13X 2111   0.996   4.684   4.078  0.0003  0.9111  0.7244
   16SAPS  H13Y 2112   0.859   4.726   3.980  0.4259 -0.7595  0.8079
   16SAPS  C314 2113   0.966   4.899   4.060  0.0012 -0.4549 -0.3446
   16SAPS  H14X 2114   0.988   4.972   3.979  0.2984  0.1338  0.2587
   16SAPS  H14Y 2115   1.053   4.902   4.129  0.6248  3.6181 -1.0808
   16SAPS  C315 2116   0.834   4.934   4.128 -0.3938  0.4544 -0.2604
   16SAPS  H15X 2117   0.745   4.901   4.069  0.6887 -1.3848 -0.9482
   16SAPS  H15Y 2118   0.817   5.043   4.144 -1.1219  0.3901 -0.5484
   16SAPS  C316 2119   0.820   4.862   4.266 -0.2729 -0.1517  0.4407
   16SAPS  H16X 2120   0.907   4.890   4.329 -1.3327  0.8242  1.5027
   16SAPS  H16Y 2121   0.838   4.754   4.246  0.9810 -0.4025  2.6163
   16SAPS  C317 2122   0.690   4.884   4.336  0.2031  0.0357  0.8925
   16SAPS  H17X 2123   0.614   4.869   4.256 -0.8850 -1.9525  2.2112
   16SAPS  H17Y 2124   0.702   4.992   4.360  1.7737  0.6562 -2.1592
   16SAPS  C318 2125   0.659   4.803   4.459  0.2224 -0.4810 -0.0874
   16SAPS  H18X 2126   0.679   4.696   4.438  3.6767 -0.2756  1.4552
   16SAPS  H18Y 2127   0.557   4.800   4.503 -1.2079 -2.1791 -3.1758
   16SAPS  H18Z 2128   0.730   4.836   4.537  0.0955  0.1398 -0.2277
   17SAPS     N 2129   7.100   0.393   2.284  0.0036 -0.0390 -0.5819
   17SAPS   HN1 2130   7.015   0.418   2.337 -1.2371 -0.2988 -2.3690
   17SAPS   HN2 2131   7.146   0.479   2.248 -2.0221  1.9405  1.2659
   17SAPS   HN3 2132   7.069   0.346   2.197  0.4842  2.0006 -1.9246
   17SAPS   C12 2133   7.193   0.313   2.370  0.4431 -0.3083 -0.3915
   17SAPS  H12A 2134   7.228   0.380   2.448 -0.0262  0.8118 -1.1119
   17SAPS   C13 2135   7.137   0.187   2.435  0.2203  0.4844  0.8614
   17SAPS  O13A 2136   7.020   0.148   2.407  0.1785  0.0468 -0.4108
   17SAPS  O13B 2137   7.215   0.116   2.505  0.4061  0.0890 -0.5012
   17SAPS   C11 2138   7.300   0.269   2.274 -0.4020  0.2241  0.7295
   17SAPS  H11A 2139   7.250   0.188   2.218  0.8716 -0.6448  0.7958
   17SAPS  H11B 2140   7.384   0.220   2.328  0.9558 -0.1089 -1.5337
   17SAPS     P 2141   7.487   0.435   2.187 -0.7714 -0.1583  0.2049
   17SAPS   O13 2142   7.589   0.350   2.126  0.3882 -0.0204  0.4929
   17SAPS   O14 2143   7.477   0.574   2.135 -0.0422 -0.3052 -0.0389
   17SAPS   O12 2144   7.349   0.369   2.174 -0.1816  0.3326 -0.2056
   17SAPS   O11 2145   7.512   0.438   2.345  0.5917  0.0249 -0.8082
   17SAPS    C1 2146   7.474   0.551   2.409 -0.5251  0.4047  0.0120
   17SAPS    HA 2147   7.546   0.633   2.388 -0.5662  1.1997  2.6144
   17SAPS    HB 2148   7.372   0.592   2.393  0.0934  3.4985  2.8546
   17SAPS    C2 2149   7.494   0.540   2.564  0.4107 -0.5346  0.4018
   17SAPS    HS 2150   7.596   0.498   2.575  0.3689 -0.1940  2.3474
   17SAPS   O21 2151   7.389   0.449   2.623 -0.3641  0.1008  0.5975
   17SAPS   C21 2152   7.421   0.391   2.741 -0.2216  0.4085  0.1644
   17SAPS   O22 2153   7.531   0.389   2.784 -1.0749 -0.1400  0.2837
   17SAPS   C22 2154   7.300   0.322   2.813  0.5522 -0.2968 -0.0239
   17SAPS   H2R 2155   7.245   0.264   2.737  1.1063 -0.1804 -0.5187
   17SAPS   H2S 2156   7.332   0.260   2.900  2.9256  0.5591 -0.2219
   17SAPS    C3 2157   7.484   0.676   2.639 -0.8743  0.1309 -0.8032
   17SAPS    HX 2158   7.376   0.702   2.644 -1.4089 -2.1138  1.0204
   17SAPS    HY 2159   7.537   0.754   2.579  1.8512 -0.9269  0.0504
   17SAPS   O31 2160   7.530   0.683   2.779  0.3002  0.7142  0.1668
   17SAPS   C31 2161   7.664   0.672   2.798  0.0460 -0.2689  0.1504
   17SAPS   O32 2162   7.749   0.665   2.708  0.0528 -0.1156  0.2253
   17SAPS   C32 2163   7.699   0.678   2.943 -0.2911  0.0291 -0.6200
   17SAPS   H2X 2164   7.649   0.763   2.994 -0.0089 -0.2016  0.0603
   17SAPS   H2Y 2165   7.807   0.704   2.953 -0.9552  3.9772 -2.0306
   17SAPS   C23 2166   7.203   0.432   2.869  0.1608 -0.8232 -0.1863
   17SAPS   H3R 2167   7.267   0.503   2.925  1.1113  1.0815 -3.4711
   17SAPS   H3S 2168   7.131   0.384   2.939 -0.6021 -0.1170 -0.4762
   17SAPS   C24 2169   7.129   0.500   2.750 -0.1929  0.5803 -0.3878
   17SAPS   H4R 2170   7.104   0.413   2.685 -3.2685  0.1694  1.1421
   17SAPS   H4S 2171   7.199   0.558   2.686  0.8156  1.1440  1.1615
   17SAPS   C25 2172   7.004   0.583   2.767  0.1426 -0.3014  0.0654
   17SAPS   H5R 2173   7.014   0.678   2.712  3.7612 -1.6259 -1.9540
   17SAPS   C26 2174   6.887   0.546   2.815 -0.2627 -0.6922 -0.4207
   17SAPS   H6R 2175   6.807   0.621   2.817 -2.0570 -2.4913  2.1905
   17SAPS   C27 2176   6.863   0.417   2.893  0.3881  0.8909 -0.8852
   17SAPS   H7R 2177   6.898   0.430   2.998  1.8664 -1.1569 -1.0712
   17SAPS   H7S 2178   6.933   0.341   2.853  0.5379  0.6240 -0.1358
   17SAPS   C28 2179   6.722   0.366   2.898  0.1475  0.4454 -0.4211
   17SAPS   H8R 2180   6.700   0.283   2.829  2.8806 -0.8617  0.1722
   17SAPS   C29 2181   6.625   0.382   2.990 -0.1703 -0.2068  0.1385
   17SAPS   H9R 2182   6.531   0.325   2.977  1.3566 -2.9019  0.1061
   17SAPS  C210 2183   6.637   0.471   3.117  0.1193 -0.6618 -0.1579
   17SAPS  H10R 2184   6.736   0.460   3.166 -0.5451  0.0163  1.3920
   17SAPS  H10S 2185   6.581   0.430   3.204 -1.4880 -0.6000 -1.1215
   17SAPS  C211 2186   6.608   0.616   3.101 -0.4925 -1.0009  0.1207
   17SAPS  H11R 2187   6.610   0.649   2.996  1.0481 -0.8332  0.1776
   17SAPS  C212 2188   6.587   0.704   3.202  0.3622 -0.6050 -0.3839
   17SAPS  H12R 2189   6.584   0.812   3.180 -0.1882 -0.4751  0.2953
   17SAPS  C213 2190   6.578   0.668   3.352 -0.3489  0.4223  0.0310
   17SAPS  H13R 2191   6.678   0.642   3.393  0.4297  0.6572 -1.6405
   17SAPS  H13S 2192   6.527   0.570   3.360  1.5360 -0.7673 -1.6260
   17SAPS  C214 2193   6.521   0.766   3.452  0.4233  0.4122  0.0149
   17SAPS  H14R 2194   6.411   0.756   3.458  0.3187  0.9494 -0.7484
   17SAPS  C215 2195   6.578   0.863   3.523  1.0725  0.1553  0.3520
   17SAPS  H15R 2196   6.520   0.926   3.592 -0.1161 -0.5579  0.0284
   17SAPS  C216 2197   6.725   0.886   3.530  0.0445  0.1734  0.7629
   17SAPS  H16R 2198   6.735   0.993   3.502  0.3076  0.1469  0.7535
   17SAPS  H16S 2199   6.770   0.826   3.448 -0.1067 -1.2316  1.6887
   17SAPS  C217 2200   6.786   0.837   3.661  0.1081  0.9598  0.4465
   17SAPS  H17R 2201   6.787   0.727   3.676  1.7368  0.8025 -0.5684
   17SAPS  H17S 2202   6.728   0.881   3.746 -1.2554  1.5133 -0.7299
   17SAPS  C218 2203   6.927   0.883   3.680 -0.0640 -0.1457 -0.3294
   17SAPS  H18R 2204   6.936   0.982   3.629  0.1704  0.2108  0.3900
   17SAPS  H18S 2205   6.999   0.817   3.627  1.4725  2.8664 -2.3310
   17SAPS  C219 2206   6.975   0.895   3.826  0.0225  0.5301 -0.3086
   17SAPS  H19R 2207   6.918   0.973   3.882 -1.3788 -0.4687 -0.2904
   17SAPS  H19S 2208   7.080   0.929   3.816  0.1192  0.3475  0.0519
   17SAPS  C220 2209   6.981   0.765   3.903  0.5710  0.2423  0.1086
   17SAPS  H20R 2210   7.045   0.767   3.995  1.0916  2.7408 -0.2465
   17SAPS  H20S 2211   7.016   0.691   3.828 -1.5292  0.1475 -0.8408
   17SAPS  H20T 2212   6.880   0.731   3.933  1.2505 -2.0035  0.0284
   17SAPS   C33 2213   7.651   0.547   3.013 -0.0925 -0.1789 -0.0361
   17SAPS   H3X 2214   7.725   0.466   2.991  1.2331  0.1580  2.7514
   17SAPS   H3Y 2215   7.546   0.513   3.000 -0.6525  1.5454 -0.3062
   17SAPS   C34 2216   7.645   0.556   3.166  0.4752 -0.6823 -0.5926
   17SAPS   H4X 2217   7.558   0.498   3.204  0.1907 -0.4471 -0.8826
   17SAPS   H4Y 2218   7.625   0.659   3.202 -0.0371 -1.5321  1.7180
   17SAPS   C35 2219   7.768   0.503   3.240  0.0266 -0.6558  0.0193
   17SAPS   H5X 2220   7.854   0.562   3.199  0.7528 -1.5830  0.1944
   17SAPS   H5Y 2221   7.778   0.395   3.218  2.9476 -0.5655  0.5030
   17SAPS   C36 2222   7.766   0.522   3.392 -0.1642 -0.2157  0.3494
   17SAPS   H6X 2223   7.866   0.487   3.426  0.1757  0.5264  0.1393
   17SAPS   H6Y 2224   7.680   0.463   3.431 -1.1583  1.2901  0.5394
   17SAPS   C37 2225   7.762   0.660   3.455 -0.1508 -0.2749  0.1326
   17SAPS   H7X 2226   7.672   0.724   3.443 -1.3372 -0.8937  4.2170
   17SAPS   H7Y 2227   7.831   0.720   3.392 -1.9641  0.7938 -0.9118
   17SAPS   C38 2228   7.813   0.659   3.600 -0.7925 -0.7650  0.1141
   17SAPS   H8X 2229   7.864   0.755   3.619 -0.5688 -0.3293 -2.2875
   17SAPS   H8Y 2230   7.900   0.590   3.598  0.0093  0.1393 -3.1207
   17SAPS   C39 2231   7.705   0.628   3.696  0.1119  0.1306 -0.6962
   17SAPS   H9X 2232   7.660   0.529   3.674  0.6334 -0.1422 -0.5308
   17SAPS   H9Y 2233   7.615   0.691   3.679 -0.4787  0.4232  2.7436
   17SAPS  C310 2234   7.751   0.642   3.842  0.0768  0.0690 -0.3818
   17SAPS  H10X 2235   7.803   0.740   3.846  2.8203 -1.3136  0.0059
   17SAPS  H10Y 2236   7.836   0.573   3.859  0.4240  0.7537  0.8025
   17SAPS  C311 2237   7.639   0.628   3.941  1.1453  0.0666 -0.1052
   17SAPS  H11X 2238   7.692   0.616   4.038  1.7560  1.1847 -0.2774
   17SAPS  H11Y 2239   7.584   0.533   3.923  0.4508  0.2313  1.0491
   17SAPS  C312 2240   7.547   0.753   3.942  0.0157  0.5062  0.2899
   17SAPS  H12X 2241   7.528   0.798   3.842 -1.7411  0.5941  0.6331
   17SAPS  H12Y 2242   7.614   0.825   3.994  1.7359 -0.5085 -0.4494
   17SAPS  C313 2243   7.422   0.728   4.026 -0.3041  0.1046 -0.2791
   17SAPS  H13X 2244   7.386   0.628   3.993  1.0093  0.2562 -2.3432
   17SAPS  H13Y 2245   7.347   0.807   4.004  0.1903  1.1253  1.4834
   17SAPS  C314 2246   7.456   0.725   4.175  0.5557  0.3985  0.3097
   17SAPS  H14X 2247   7.455   0.830   4.212 -1.1433  0.8842 -0.9648
   17SAPS  H14Y 2248   7.549   0.672   4.205 -0.6077 -0.2655  3.0542
   17SAPS  C315 2249   7.332   0.669   4.265  0.3185 -0.3137  0.8461
   17SAPS  H15X 2250   7.306   0.574   4.213 -1.5750  0.6495 -0.0526
   17SAPS  H15Y 2251   7.250   0.743   4.252  0.2042 -0.5169  0.3976
   17SAPS  C316 2252   7.360   0.645   4.413  0.5577 -0.0484  0.1590
   17SAPS  H16X 2253   7.470   0.635   4.431  0.3005 -2.9122  0.7103
   17SAPS  H16Y 2254   7.323   0.548   4.452  0.6839 -0.4709 -0.7425
   17SAPS  C317 2255   7.286   0.753   4.494 -0.7391 -0.3167 -0.2394
   17SAPS  H17X 2256   7.189   0.775   4.446 -0.5597 -0.8371 -0.8593
   17SAPS  H17Y 2257   7.344   0.847   4.481  0.3848 -0.7756  1.1824
   17SAPS  C318 2258   7.286   0.727   4.646 -0.5138  0.0926  0.1070
   17SAPS  H18X 2259   7.204   0.654   4.669  0.1785 -0.0927  2.1470
   17SAPS  H18Y 2260   7.263   0.810   4.715 -2.3731 -1.6320  1.6924
   17SAPS  H18Z 2261   7.382   0.683   4.679 -0.5640  1.6659  2.5741
   18SAPS     N 2262   6.414   2.268   6.734  0.2739  0.3505  0.0892
   18SAPS   HN1 2263   6.433   2.332   6.655  4.5790 -1.3313 -0.5159
   18SAPS   HN2 2264   6.332   2.208   6.714  2.9644 -3.5505 -0.3596
   18SAPS   HN3 2265   6.400   2.324   6.821 -1.2488 -0.7275  0.5663
   18SAPS   C12 2266   6.532   2.174   6.754  0.3398  0.0169  0.2635
   18SAPS  H12A 2267   6.621   2.234   6.766  0.9682 -0.1701 -2.7153
   18SAPS   C13 2268   6.522   2.085   6.881  0.3009  0.5431 -0.2138
   18SAPS  O13A 2269   6.414   2.082   6.946 -0.1966  0.7831 -0.5142
   18SAPS  O13B 2270   6.628   2.020   6.912 -0.3165  0.7884  0.7316
   18SAPS   C11 2271   6.537   2.089   6.634  0.1492  0.2057  1.0202
   18SAPS  H11A 2272   6.626   2.024   6.650 -1.0473 -1.4677  1.1038
   18SAPS  H11B 2273   6.559   2.156   6.548  0.7155  2.8083  3.0601
   18SAPS     P 2274   6.312   2.033   6.501  0.0065  0.4846 -0.0597
   18SAPS   O13 2275   6.229   1.919   6.487  0.0098 -0.2409 -0.1741
   18SAPS   O14 2276   6.254   2.165   6.527  0.2409 -0.3432  0.7553
   18SAPS   O12 2277   6.422   2.004   6.612  0.2265  0.0283 -0.0844
   18SAPS   O11 2278   6.398   2.041   6.369 -0.1765  0.1658 -0.8422
   18SAPS    C1 2279   6.334   2.052   6.239 -0.2610 -0.0528  0.0683
   18SAPS    HA 2280   6.413   2.041   6.162  0.4365 -0.6946  0.8498
   18SAPS    HB 2281   6.259   1.970   6.234 -0.3986  0.0784 -0.0370
   18SAPS    C2 2282   6.261   2.184   6.213  0.0221 -0.2581 -0.5458
   18SAPS    HS 2283   6.182   2.193   6.291 -0.1251  0.7848 -0.7931
   18SAPS   O21 2284   6.195   2.194   6.089  0.2916  0.0816  0.0766
   18SAPS   C21 2285   6.088   2.115   6.068 -0.4765 -0.4762  0.4417
   18SAPS   O22 2286   6.036   2.039   6.145 -0.0923  0.0287  0.2154
   18SAPS   C22 2287   6.043   2.151   5.926 -0.4637  0.5643 -0.4863
   18SAPS   H2R 2288   5.939   2.191   5.922  0.0922  2.3694  1.3366
   18SAPS   H2S 2289   6.099   2.243   5.896  0.0232  0.4614  0.1065
   18SAPS    C3 2290   6.351   2.305   6.246 -0.0125 -0.5911 -0.4455
   18SAPS    HX 2291   6.379   2.304   6.353 -1.0009 -1.8425 -0.1800
   18SAPS    HY 2292   6.299   2.400   6.224 -1.6993 -1.9916 -3.0645
   18SAPS   O31 2293   6.467   2.299   6.160  0.2733  0.3059  0.4979
   18SAPS   C31 2294   6.590   2.332   6.204  0.3593 -0.1752 -0.5321
   18SAPS   O32 2295   6.609   2.372   6.317 -0.2458 -0.1081  0.4335
   18SAPS   C32 2296   6.692   2.304   6.101  0.0046  0.7189 -0.7724
   18SAPS   H2X 2297   6.699   2.197   6.074 -2.8693  0.0694  0.6633
   18SAPS   H2Y 2298   6.793   2.327   6.140 -0.5029  1.1959  0.2914
   18SAPS   C23 2299   6.074   2.041   5.822 -0.3584 -0.5277  0.2546
   18SAPS   H3R 2300   6.027   1.943   5.846  1.0708 -0.8842  1.7639
   18SAPS   H3S 2301   6.185   2.046   5.822 -0.3961  0.8121  1.2621
   18SAPS   C24 2302   6.032   2.084   5.679  0.1046 -0.8158  0.2665
   18SAPS   H4R 2303   6.068   2.188   5.665 -1.0213 -0.7635 -2.9022
   18SAPS   H4S 2304   5.922   2.101   5.679  0.2154  0.4095  3.0314
   18SAPS   C25 2305   6.084   1.992   5.570 -0.1738 -0.2492 -0.2768
   18SAPS   H5R 2306   6.009   1.931   5.517  0.3013 -1.1719  0.0838
   18SAPS   C26 2307   6.218   1.967   5.539  1.2785  0.6795  0.0820
   18SAPS   H6R 2308   6.227   1.898   5.453 -0.8164 -0.3486  0.6145
   18SAPS   C27 2309   6.343   2.030   5.601 -0.2852 -0.0869  0.0362
   18SAPS   H7R 2310   6.303   2.123   5.648 -1.3731 -0.6188  0.2007
   18SAPS   H7S 2311   6.401   2.064   5.513  0.6742 -0.9186  0.3409
   18SAPS   C28 2312   6.427   1.952   5.699 -0.2147 -0.5673  0.4689
   18SAPS   H8R 2313   6.455   2.007   5.791  0.9652  1.2315 -0.8943
   18SAPS   C29 2314   6.447   1.819   5.699  0.3465  0.1458 -0.2504
   18SAPS   H9R 2315   6.493   1.774   5.788  0.0648  1.9486  0.8389
   18SAPS  C210 2316   6.419   1.717   5.587 -0.4799 -0.0510 -0.6038
   18SAPS  H10R 2317   6.350   1.760   5.512 -3.6891 -0.3636  1.9785
   18SAPS  H10S 2318   6.359   1.636   5.633  1.4882 -0.2533  1.8567
   18SAPS  C211 2319   6.533   1.670   5.504 -0.0897 -0.1776 -0.1241
   18SAPS  H11R 2320   6.586   1.745   5.443  0.1461 -0.2149  0.0337
   18SAPS  C212 2321   6.590   1.549   5.512  0.1727 -0.0938 -0.5759
   18SAPS  H12R 2322   6.689   1.535   5.465  2.5942  1.3643  3.4941
   18SAPS  C213 2323   6.549   1.433   5.601 -0.6325  0.4944  0.1146
   18SAPS  H13R 2324   6.600   1.340   5.570 -1.7768 -0.4540  0.9435
   18SAPS  H13S 2325   6.442   1.413   5.577  0.0871 -2.4754 -0.9955
   18SAPS  C214 2326   6.566   1.462   5.752  0.4673 -0.5744  0.2057
   18SAPS  H14R 2327   6.590   1.567   5.772  0.1489  0.0312 -2.2918
   18SAPS  C215 2328   6.552   1.377   5.852 -1.0564 -0.3321 -0.1364
   18SAPS  H15R 2329   6.568   1.412   5.955  0.6080 -0.5781 -0.2818
   18SAPS  C216 2330   6.494   1.232   5.845  0.2351  0.6098 -0.3751
   18SAPS  H16R 2331   6.566   1.166   5.897  2.8198  3.0521 -0.6127
   18SAPS  H16S 2332   6.497   1.198   5.740  0.0808 -3.1000  0.6982
   18SAPS  C217 2333   6.354   1.209   5.916 -0.9727 -0.4617 -0.1485
   18SAPS  H17R 2334   6.334   1.100   5.916  0.5507 -0.7814  1.8893
   18SAPS  H17S 2335   6.279   1.269   5.859  0.5670  2.1664  0.4342
   18SAPS  C218 2336   6.344   1.258   6.062 -0.4387  0.0792  0.1246
   18SAPS  H18R 2337   6.373   1.364   6.078  1.7712 -0.6636  1.4549
   18SAPS  H18S 2338   6.429   1.208   6.113  1.0922 -0.8059 -3.0808
   18SAPS  C219 2339   6.203   1.225   6.123 -0.3354 -0.5978 -0.0580
   18SAPS  H19R 2340   6.122   1.258   6.054  0.6950 -0.8815 -1.4575
   18SAPS  H19S 2341   6.195   1.281   6.218 -0.4116  0.9403 -0.9407
   18SAPS  C220 2342   6.185   1.078   6.173  0.3676  0.0611  0.9780
   18SAPS  H20R 2343   6.099   1.066   6.241 -0.5019  0.6994  0.0238
   18SAPS  H20S 2344   6.281   1.044   6.219  2.0330 -0.1891 -2.3393
   18SAPS  H20T 2345   6.164   1.016   6.083 -0.3199 -2.6597  2.8972
   18SAPS   C33 2346   6.663   2.383   5.970  0.1380  0.6166 -0.7260
   18SAPS   H3X 2347   6.712   2.482   5.977 -0.1491  0.8308 -1.6755
   18SAPS   H3Y 2348   6.557   2.413   5.953 -0.2285  0.0282  0.4093
   18SAPS   C34 2349   6.719   2.318   5.842 -0.3448  0.1988 -0.8140
   18SAPS   H4X 2350   6.689   2.212   5.853  0.2154  0.0365 -0.7816
   18SAPS   H4Y 2351   6.830   2.313   5.845 -0.1876 -0.1735 -3.9432
   18SAPS   C35 2352   6.662   2.389   5.722  0.6508  0.4605  0.5985
   18SAPS   H5X 2353   6.713   2.488   5.715  0.3510  0.6186  0.6470
   18SAPS   H5Y 2354   6.553   2.401   5.738  0.7235  0.9200  0.7853
   18SAPS   C36 2355   6.678   2.309   5.597  0.2817  0.3973 -0.1318
   18SAPS   H6X 2356   6.623   2.214   5.613  0.6110  0.4643  1.6369
   18SAPS   H6Y 2357   6.785   2.285   5.581  0.2211 -0.5069  0.7469
   18SAPS   C37 2358   6.611   2.385   5.483  0.4954 -0.3866  0.0996
   18SAPS   H7X 2359   6.601   2.491   5.513 -1.6303 -0.8800  1.3672
   18SAPS   H7Y 2360   6.506   2.347   5.484 -0.5119  2.2107  0.6931
   18SAPS   C38 2361   6.672   2.378   5.340  0.2529 -0.2934 -0.2826
   18SAPS   H8X 2362   6.697   2.272   5.318  2.0894  0.0223  0.1119
   18SAPS   H8Y 2363   6.769   2.432   5.332  0.7753 -1.4742 -3.2572
   18SAPS   C39 2364   6.577   2.440   5.232  0.5126 -0.4575  0.1685
   18SAPS   H9X 2365   6.558   2.547   5.255  0.9589 -0.5749  1.1303
   18SAPS   H9Y 2366   6.475   2.396   5.243 -0.6488  1.2277 -2.5880
   18SAPS  C310 2367   6.633   2.422   5.094  0.2567  0.1284  0.2760
   18SAPS  H10X 2368   6.550   2.404   5.022 -1.1389  0.6362  1.6957
   18SAPS  H10Y 2369   6.693   2.329   5.088 -0.0672 -0.1371  1.0591
   18SAPS  C311 2370   6.724   2.529   5.031 -0.3383 -0.0235 -0.6883
   18SAPS  H11X 2371   6.796   2.568   5.105  0.6821 -1.9584 -0.5984
   18SAPS  H11Y 2372   6.671   2.621   4.998  1.3713  0.4016 -2.3958
   18SAPS  C312 2373   6.786   2.477   4.899  0.1138 -0.6094 -0.1593
   18SAPS  H12X 2374   6.702   2.440   4.838 -0.9469  0.9197  0.3282
   18SAPS  H12Y 2375   6.848   2.389   4.928 -0.7253 -0.7920  1.1665
   18SAPS  C313 2376   6.882   2.579   4.819  0.2549  0.4093  0.1890
   18SAPS  H13X 2377   6.924   2.642   4.901 -0.9356 -1.2798  2.1859
   18SAPS  H13Y 2378   6.821   2.647   4.756  1.0398  0.5046 -0.4782
   18SAPS  C314 2379   6.991   2.511   4.732  0.2337  0.1249 -0.1280
   18SAPS  H14X 2380   7.042   2.429   4.787  0.5740  0.2316 -0.2828
   18SAPS  H14Y 2381   7.061   2.592   4.702  2.3255 -1.9130 -1.0326
   18SAPS  C315 2382   6.940   2.459   4.594 -0.8701 -0.7368 -0.7162
   18SAPS  H15X 2383   6.855   2.525   4.566 -0.3704 -0.5424 -1.8186
   18SAPS  H15Y 2384   6.903   2.356   4.610 -2.8759 -0.2361 -1.7991
   18SAPS  C316 2385   7.036   2.454   4.482 -0.5707 -0.0676 -0.7089
   18SAPS  H16X 2386   7.095   2.360   4.484 -0.4252 -0.1080 -3.1938
   18SAPS  H16Y 2387   7.113   2.535   4.483  3.0489 -3.0985 -3.1850
   18SAPS  C317 2388   6.967   2.449   4.348  0.2357  0.2600 -0.6456
   18SAPS  H17X 2389   6.906   2.541   4.342 -0.7828 -0.4387 -1.2436
   18SAPS  H17Y 2390   6.898   2.363   4.333  0.0731  0.2230  0.2558
   18SAPS  C318 2391   7.073   2.468   4.239 -0.3358  0.2245 -0.2691
   18SAPS  H18X 2392   7.116   2.570   4.246 -1.8862  0.8140  1.9270
   18SAPS  H18Y 2393   7.029   2.437   4.142 -3.4590 -0.5162  1.2684
   18SAPS  H18Z 2394   7.156   2.399   4.269 -0.3495  0.8221  1.2325
   19SAPS     N 2395   5.387   4.102   2.807  0.7138 -0.2258  0.1641
   19SAPS   HN1 2396   5.484   4.064   2.799  0.3505 -1.2349  0.3719
   19SAPS   HN2 2397   5.382   4.200   2.839  0.2996 -0.6425  1.4568
   19SAPS   HN3 2398   5.324   4.050   2.871 -1.3254  2.4610  0.4888
   19SAPS   C12 2399   5.323   4.087   2.673 -0.1741  0.4467  0.1804
   19SAPS  H12A 2400   5.221   4.116   2.690  0.2256  0.3194  3.2709
   19SAPS   C13 2401   5.381   4.185   2.565 -0.1248 -0.4227  0.3192
   19SAPS  O13A 2402   5.448   4.288   2.605 -0.0480  0.3165 -0.0415
   19SAPS  O13B 2403   5.344   4.166   2.446 -0.3783 -0.5171  0.3171
   19SAPS   C11 2404   5.316   3.926   2.646  0.9010  0.5003 -0.5530
   19SAPS  H11A 2405   5.414   3.874   2.648  0.6765  0.0811 -0.4351
   19SAPS  H11B 2406   5.267   3.912   2.547  2.5752 -3.6512 -0.9797
   19SAPS     P 2407   5.181   3.721   2.731  0.1403  0.6798  0.5451
   19SAPS   O13 2408   5.054   3.717   2.651 -0.2221  0.1741  0.1027
   19SAPS   O14 2409   5.293   3.644   2.667  0.6609 -0.0452 -0.0609
   19SAPS   O12 2410   5.231   3.871   2.749 -0.3910  0.1385  0.1864
   19SAPS   O11 2411   5.153   3.669   2.874 -0.4946  0.1879 -0.6303
   19SAPS    C1 2412   5.192   3.738   2.990  0.1777  0.3551  0.0850
   19SAPS    HA 2413   5.196   3.670   3.078 -3.1166  0.1348  0.2110
   19SAPS    HB 2414   5.290   3.786   2.970 -0.4791  1.0420 -1.7013
   19SAPS    C2 2415   5.082   3.836   3.038  0.2117 -0.0704  0.4408
   19SAPS    HS 2416   5.066   3.917   2.964 -0.2081 -0.6005 -0.0517
   19SAPS   O21 2417   5.118   3.905   3.158 -0.4926  0.2972  0.7029
   19SAPS   C21 2418   5.232   3.973   3.142 -0.4106  0.1843  0.3953
   19SAPS   O22 2419   5.282   4.005   3.035  0.1430 -0.1791  0.2548
   19SAPS   C22 2420   5.291   3.992   3.283  0.3309 -0.3456  0.3328
   19SAPS   H2R 2421   5.232   3.946   3.364  0.3572 -1.1732 -0.1098
   19SAPS   H2S 2422   5.384   3.932   3.293  0.5979  0.3272  2.1495
   19SAPS    C3 2423   4.944   3.769   3.043  0.4735 -0.2468  0.1618
   19SAPS    HX 2424   4.920   3.734   2.940  0.2907 -0.2384  0.2003
   19SAPS    HY 2425   4.876   3.853   3.071  1.1804  0.2881  0.3031
   19SAPS   O31 2426   4.935   3.668   3.140  0.1305  0.3839  0.5633
   19SAPS   C31 2427   4.884   3.551   3.108 -0.3859  0.1168 -0.0636
   19SAPS   O32 2428   4.827   3.524   3.007  0.0401  0.4896 -0.0528
   19SAPS   C32 2429   4.922   3.450   3.213  0.2738 -0.1225 -0.1399
   19SAPS   H2X 2430   5.023   3.468   3.255 -0.1374  0.7554  0.5164
   19SAPS   H2Y 2431   4.931   3.355   3.157  1.3815  1.8630 -3.6360
   19SAPS   C23 2432   5.322   4.133   3.336 -0.7647  0.4968  0.3593
   19SAPS   H3R 2433   5.241   4.204   3.308 -0.8370  0.9817  1.7242
   19SAPS   H3S 2434   5.422   4.163   3.298 -0.6488  0.7657  0.8662
   19SAPS   C24 2435   5.315   4.139   3.492  0.2485 -0.2194  0.4303
   19SAPS   H4R 2436   5.371   4.050   3.525  1.3604  0.8227  1.4388
   19SAPS   H4S 2437   5.207   4.120   3.511  0.0696 -0.2461 -0.5321
   19SAPS   C25 2438   5.375   4.264   3.556  0.1064  0.4735 -0.1985
   19SAPS   H5R 2439   5.476   4.283   3.519 -0.6398  0.5862 -2.3018
   19SAPS   C26 2440   5.318   4.323   3.665 -0.4432 -0.1555  0.3149
   19SAPS   H6R 2441   5.364   4.413   3.708  0.5284 -0.9184  0.9167
   19SAPS   C27 2442   5.179   4.295   3.731  0.0445 -0.3403 -0.1823
   19SAPS   H7R 2443   5.109   4.271   3.648  0.2759  0.4528 -0.6211
   19SAPS   H7S 2444   5.130   4.383   3.778 -0.7345 -0.7264 -0.2512
   19SAPS   C28 2445   5.182   4.182   3.826 -0.6155  0.0539  0.5442
   19SAPS   H8R 2446   5.241   4.094   3.797 -2.0568 -1.2996  1.5651
   19SAPS   C29 2447   5.104   4.167   3.941  0.1754  0.3748 -0.3320
   19SAPS   H9R 2448   5.132   4.088   4.012 -0.4079 -0.8122 -1.3825
   19SAPS  C210 2449   5.015   4.270   3.999 -0.0494 -0.8978  0.7356
   19SAPS  H10R 2450   4.909   4.237   3.994 -1.3356  2.7097  1.3573
   19SAPS  H10S 2451   5.007   4.366   3.944  0.6782 -0.1611  1.8741
   19SAPS  C211 2452   5.059   4.310   4.137  0.0869  0.3121 -0.1655
   19SAPS  H11R 2453   5.163   4.345   4.139  0.4845 -0.7752 -0.8717
   19SAPS  C212 2454   4.988   4.288   4.250 -0.9849 -0.1495  0.4592
   19SAPS  H12R 2455   5.044   4.326   4.337 -0.8420  0.1778  0.2274
   19SAPS  C213 2456   4.855   4.225   4.272  0.6325  0.8461 -0.1961
   19SAPS  H13R 2457   4.836   4.139   4.205 -1.2782  0.0470  1.2659
   19SAPS  H13S 2458   4.781   4.304   4.247 -0.6395  0.1733  1.2931
   19SAPS  C214 2459   4.829   4.163   4.410  0.8574 -0.0750  0.3619
   19SAPS  H14R 2460   4.915   4.116   4.460  0.5213 -2.3027 -0.9924
   19SAPS  C215 2461   4.713   4.159   4.480 -0.1354 -0.6698  0.6556
   19SAPS  H15R 2462   4.708   4.101   4.573 -0.9139 -0.9298  0.4600
   19SAPS  C216 2463   4.575   4.204   4.429  0.3125  0.8544  0.0787
   19SAPS  H16R 2464   4.581   4.240   4.324 -0.8537  2.0404  0.3847
   19SAPS  H16S 2465   4.543   4.291   4.491 -1.0177  0.8952 -0.6299
   19SAPS  C217 2466   4.470   4.091   4.454 -0.0409 -0.1808  0.1726
   19SAPS  H17R 2467   4.368   4.132   4.438  0.8858  1.2938 -2.7306
   19SAPS  H17S 2468   4.482   4.054   4.558 -0.6190  0.4357  0.4673
   19SAPS  C218 2469   4.482   3.975   4.349 -0.2394 -0.6360 -0.4150
   19SAPS  H18R 2470   4.474   3.882   4.409 -0.1114 -0.5252 -0.2241
   19SAPS  H18S 2471   4.587   3.981   4.312 -0.2977  0.1194 -0.4782
   19SAPS  C219 2472   4.385   3.983   4.238 -0.6013  0.4908 -0.2236
   19SAPS  H19R 2473   4.286   3.979   4.288  0.3652  1.4081  1.8411
   19SAPS  H19S 2474   4.372   3.895   4.171 -2.6000  0.7993 -0.3146
   19SAPS  C220 2475   4.396   4.110   4.153  0.4907  0.3299 -0.4814
   19SAPS  H20R 2476   4.357   4.193   4.214  0.4715  0.3150 -0.4738
   19SAPS  H20S 2477   4.331   4.108   4.063 -0.8532  0.9359  0.4539
   19SAPS  H20T 2478   4.503   4.118   4.124  1.2966 -1.4945  1.6972
   19SAPS   C33 2479   4.804   3.426   3.303 -0.2025 -0.1211  0.1210
   19SAPS   H3X 2480   4.721   3.381   3.245 -1.7828  1.1360  1.3220
   19SAPS   H3Y 2481   4.768   3.526   3.334 -0.8111  0.3620 -1.9931
   19SAPS   C34 2482   4.846   3.323   3.408 -0.3131  0.3627  0.2205
   19SAPS   H4X 2483   4.943   3.356   3.452  0.0039  1.5582 -1.3135
   19SAPS   H4Y 2484   4.864   3.228   3.354 -0.5703  0.4431 -0.0103
   19SAPS   C35 2485   4.741   3.315   3.518 -0.3435  0.0626 -0.1812
   19SAPS   H5X 2486   4.641   3.299   3.471 -0.6814  1.1011  0.1532
   19SAPS   H5Y 2487   4.736   3.414   3.568 -3.3556 -0.0490 -0.0831
   19SAPS   C36 2488   4.775   3.207   3.623  0.2370 -0.2784  0.9943
   19SAPS   H6X 2489   4.810   3.115   3.571 -0.4481 -0.5618  1.0178
   19SAPS   H6Y 2490   4.682   3.191   3.682  0.5301 -1.7940  1.0972
   19SAPS   C37 2491   4.880   3.257   3.722  0.6298  0.0028 -0.2922
   19SAPS   H7X 2492   4.851   3.349   3.777  0.8434 -1.1487  1.8724
   19SAPS   H7Y 2493   4.967   3.290   3.661  1.4600  1.8785  1.7442
   19SAPS   C38 2494   4.912   3.159   3.829 -0.0803  0.2614  0.5876
   19SAPS   H8X 2495   4.968   3.209   3.911  1.0230 -1.8348  1.1936
   19SAPS   H8Y 2496   4.978   3.076   3.796 -1.2150 -0.2133 -0.5839
   19SAPS   C39 2497   4.800   3.097   3.913  0.1396 -0.4740 -0.4484
   19SAPS   H9X 2498   4.763   3.010   3.854 -0.0646  0.7325 -2.1794
   19SAPS   H9Y 2499   4.725   3.178   3.910  3.0058  2.5546  2.0972
   19SAPS  C310 2500   4.851   3.062   4.053 -0.1954  0.0872  0.0144
   19SAPS  H10X 2501   4.955   3.024   4.048 -0.5665 -0.8197 -2.4443
   19SAPS  H10Y 2502   4.793   2.970   4.076  1.1126 -0.9421 -0.6587
   19SAPS  C311 2503   4.861   3.162   4.156 -0.2768 -0.3573 -0.1900
   19SAPS  H11X 2504   4.760   3.207   4.171 -0.7876 -1.3811 -0.4243
   19SAPS  H11Y 2505   4.927   3.245   4.127 -1.6675  1.4509  1.5020
   19SAPS  C312 2506   4.926   3.111   4.289 -0.2768 -0.2008 -0.6193
   19SAPS  H12X 2507   5.031   3.081   4.269 -0.2865 -1.4258  0.9551
   19SAPS  H12Y 2508   4.873   3.019   4.323  1.4364 -0.3657  1.8701
   19SAPS  C313 2509   4.930   3.222   4.394 -0.1088 -1.0140  0.0115
   19SAPS  H13X 2510   4.823   3.250   4.400 -1.1840 -4.6710  0.7469
   19SAPS  H13Y 2511   4.993   3.308   4.364  0.4336 -1.0972  0.8707
   19SAPS  C314 2512   4.968   3.177   4.536 -0.4047 -0.0596 -0.4947
   19SAPS  H14X 2513   5.024   3.256   4.591 -1.2354 -0.1800  0.5606
   19SAPS  H14Y 2514   5.037   3.093   4.513  1.3983  0.5726  2.1640
   19SAPS  C315 2515   4.851   3.125   4.621  0.4160  0.0152 -0.7183
   19SAPS  H15X 2516   4.780   3.068   4.557  0.6376  0.7502 -1.6221
   19SAPS  H15Y 2517   4.788   3.211   4.651 -1.2853 -1.6638  0.8659
   19SAPS  C316 2518   4.891   3.043   4.743  0.1776  0.8617 -0.8261
   19SAPS  H16X 2519   4.956   3.103   4.811  1.9791 -3.2981  1.4708
   19SAPS  H16Y 2520   4.953   2.960   4.703  0.4003  1.0202 -0.8101
   19SAPS  C317 2521   4.760   3.007   4.812  0.1420 -0.0156  0.1753
   19SAPS  H17X 2522   4.698   2.964   4.731 -1.4790  0.6462  1.0149
   19SAPS  H17Y 2523   4.709   3.102   4.840 -0.3146 -0.1572 -0.1767
   19SAPS  C318 2524   4.790   2.918   4.935  0.2327 -0.1521  0.5286
   19SAPS  H18X 2525   4.850   2.980   5.006  0.7749 -1.0153  0.8376
   19SAPS  H18Y 2526   4.857   2.833   4.911 -0.0912  0.1365 -1.5445
   19SAPS  H18Z 2527   4.688   2.887   4.967 -0.0443  0.6095  0.4118
   20SAPS     N 2528   0.647   2.749   1.921 -0.2911 -0.3243 -0.0100
   20SAPS   HN1 2529   0.642   2.806   1.834 -1.3503 -2.0679 -1.1449
   20SAPS   HN2 2530   0.742   2.725   1.955  0.4461  0.8675 -1.1059
   20SAPS   HN3 2531   0.593   2.661   1.908  2.5763 -2.7731  3.0796
   20SAPS   C12 2532   0.566   2.825   2.012  0.2299 -0.6686 -0.1040
   20SAPS  H12A 2533   0.621   2.845   2.102 -0.5804  0.5866  0.1463
   20SAPS   C13 2534   0.526   2.967   1.963  0.0264  0.1717  0.3959
   20SAPS  O13A 2535   0.562   2.999   1.846  0.3054 -0.6809  0.1455
   20SAPS  O13B 2536   0.462   3.047   2.036  0.5879 -0.0364  0.7627
   20SAPS   C11 2537   0.441   2.746   2.049  0.4452  0.3452 -0.4287
   20SAPS  H11A 2538   0.358   2.773   1.981 -1.2133 -3.9827 -0.3919
   20SAPS  H11B 2539   0.407   2.772   2.152 -1.3987 -2.1129 -0.3411
   20SAPS     P 2540   0.371   2.486   2.044 -0.1716  0.0302 -0.4855
   20SAPS   O13 2541   0.290   2.482   1.922 -0.1407  0.0691 -0.0497
   20SAPS   O14 2542   0.458   2.365   2.074  0.2502  0.1513 -0.1665
   20SAPS   O12 2543   0.468   2.607   2.045 -0.3001  0.6094 -0.7981
   20SAPS   O11 2544   0.277   2.512   2.168 -0.7550  0.0686  0.2357
   20SAPS    C1 2545   0.335   2.525   2.302 -0.2925 -0.1596  0.6274
   20SAPS    HA 2546   0.433   2.577   2.311  0.2200 -1.3181  2.1570
   20SAPS    HB 2547   0.274   2.579   2.378 -3.5084 -0.2295 -1.7279
   20SAPS    C2 2548   0.336   2.389   2.381 -0.6624 -0.2494  0.5062
   20SAPS    HS 2549   0.358   2.302   2.316  2.0322  0.8625 -0.1749
   20SAPS   O21 2550   0.206   2.372   2.432  0.9216  0.6143 -0.1511
   20SAPS   C21 2551   0.115   2.324   2.354  0.2861  0.1523 -0.3639
   20SAPS   O22 2552   0.135   2.269   2.247 -0.4063  0.1455  0.0423
   20SAPS   C22 2553  -0.026   2.350   2.409 -0.1192  0.2932 -0.4105
   20SAPS   H2R 2554  -0.023   2.398   2.509 -0.4128  0.6423 -0.5658
   20SAPS   H2S 2555  -0.082   2.410   2.333 -4.6866 -3.1738 -0.2403
   20SAPS    C3 2556   0.428   2.375   2.502  0.7957  0.3182  0.3705
   20SAPS    HX 2557   0.534   2.387   2.470  0.8117 -0.1106  0.2634
   20SAPS    HY 2558   0.410   2.271   2.536 -1.7412  0.1995 -1.0922
   20SAPS   O31 2559   0.396   2.476   2.597  0.4781 -0.2853 -0.4939
   20SAPS   C31 2560   0.478   2.482   2.698 -0.0773  0.4119 -0.3218
   20SAPS   O32 2561   0.573   2.403   2.720 -0.4070  0.2346  0.4180
   20SAPS   C32 2562   0.441   2.602   2.790  0.3344  0.2237 -0.1915
   20SAPS   H2X 2563   0.333   2.626   2.783 -0.4001 -2.5549  0.1343
   20SAPS   H2Y 2564   0.501   2.688   2.756  0.9505 -0.5072 -0.9986
   20SAPS   C23 2565  -0.101   2.217   2.434 -0.0081 -0.1459  0.0955
   20SAPS   H3R 2566  -0.085   2.145   2.350  2.4163  1.3097 -0.7834
   20SAPS   H3S 2567  -0.211   2.226   2.446  0.0207 -1.3665  1.4678
   20SAPS   C24 2568  -0.054   2.161   2.562  0.5683  0.2759  0.0186
   20SAPS   H4R 2569  -0.052   2.237   2.643  1.4636 -0.6859  0.9396
   20SAPS   H4S 2570   0.053   2.134   2.551  0.7224  1.6915 -2.7560
   20SAPS   C25 2571  -0.144   2.046   2.610  0.8187 -0.6131 -1.2404
   20SAPS   H5R 2572  -0.158   1.960   2.542 -1.4827  0.4656 -2.2252
   20SAPS   C26 2573  -0.229   2.057   2.711  0.5081 -0.8334 -0.2381
   20SAPS   H6R 2574  -0.289   1.969   2.738  0.3196 -0.6334  0.0018
   20SAPS   C27 2575  -0.251   2.183   2.799 -0.8021  0.0205 -0.0404
   20SAPS   H7R 2576  -0.263   2.275   2.737  0.1703 -0.1796 -0.5430
   20SAPS   H7S 2577  -0.167   2.202   2.869 -0.7727 -0.4632  0.0544
   20SAPS   C28 2578  -0.372   2.167   2.888 -0.1072 -0.6818  0.4248
   20SAPS   H8R 2579  -0.402   2.066   2.920 -0.8941 -0.5292  0.1736
   20SAPS   C29 2580  -0.445   2.269   2.941 -0.1461  0.3969 -0.4803
   20SAPS   H9R 2581  -0.521   2.243   3.016  0.6568 -0.9689 -0.1157
   20SAPS  C210 2582  -0.411   2.419   2.932 -0.4001 -0.3531 -0.0150
   20SAPS  H10R 2583  -0.465   2.462   2.844 -1.6792 -0.4218  0.7027
   20SAPS  H10S 2584  -0.304   2.437   2.911  0.0320 -2.7038 -0.0991
   20SAPS  C211 2585  -0.450   2.510   3.041  0.1918 -0.2656  0.3750
   20SAPS  H11R 2586  -0.493   2.607   3.013  1.0374  0.4461  1.4485
   20SAPS  C212 2587  -0.390   2.507   3.167 -0.0683  0.3607 -0.1584
   20SAPS  H12R 2588  -0.416   2.580   3.245  4.2900 -0.0108  1.9191
   20SAPS  C213 2589  -0.293   2.396   3.208  0.2747  0.1076 -0.4803
   20SAPS  H13R 2590  -0.209   2.407   3.137  0.9997 -0.7066  0.2133
   20SAPS  H13S 2591  -0.333   2.294   3.189  0.5964 -0.4541  1.5336
   20SAPS  C214 2592  -0.247   2.400   3.350 -0.1755 -0.0005 -0.1063
   20SAPS  H14R 2593  -0.320   2.426   3.428  0.5208  1.7162  0.0283
   20SAPS  C215 2594  -0.123   2.368   3.390  0.1647 -0.5272 -0.0819
   20SAPS  H15R 2595  -0.106   2.377   3.499 -1.3702  0.6794  0.0896
   20SAPS  C216 2596  -0.016   2.305   3.304  0.0423  0.3224  0.0208
   20SAPS  H16R 2597   0.084   2.349   3.323  1.9123 -3.3174 -0.4718
   20SAPS  H16S 2598  -0.032   2.327   3.197  0.6628  0.2986 -0.0819
   20SAPS  C217 2599  -0.002   2.159   3.327 -0.5367  0.6249 -0.3428
   20SAPS  H17R 2600  -0.092   2.101   3.297  0.0883 -1.0910  0.9823
   20SAPS  H17S 2601   0.007   2.144   3.437  0.7879  0.3363 -0.4811
   20SAPS  C218 2602   0.123   2.101   3.266 -0.6810 -0.2506  0.5664
   20SAPS  H18R 2603   0.211   2.152   3.309  0.1088  0.5763 -1.8617
   20SAPS  H18S 2604   0.126   2.122   3.157  0.1996 -1.0147  0.4375
   20SAPS  C219 2605   0.150   1.956   3.293 -0.7118  0.0674  0.1032
   20SAPS  H19R 2606   0.241   1.917   3.242 -0.3759 -3.1887  2.8125
   20SAPS  H19S 2607   0.067   1.900   3.245  0.1733 -0.3884 -0.9529
   20SAPS  C220 2608   0.165   1.918   3.442 -0.7174 -0.3536 -0.1158
   20SAPS  H20R 2609   0.230   1.829   3.445 -2.4090 -1.6624 -0.8653
   20SAPS  H20S 2610   0.065   1.900   3.487 -0.2165 -0.4030  1.0237
   20SAPS  H20T 2611   0.221   1.995   3.500  2.1154 -0.9141 -1.9625
   20SAPS   C33 2612   0.474   2.567   2.939  0.4294 -0.5516  0.2395
   20SAPS   H3X 2613   0.585   2.565   2.951  0.4626  1.1972  0.5972
   20SAPS   H3Y 2614   0.412   2.483   2.976 -0.0220 -0.3560 -0.0629
   20SAPS   C34 2615   0.414   2.676   3.036 -0.3655  0.2611  0.3856
   20SAPS   H4X 2616   0.310   2.692   2.999 -0.7956  0.3346  1.5776
   20SAPS   H4Y 2617   0.470   2.767   3.005 -0.8596 -0.2023 -2.1018
   20SAPS   C35 2618   0.436   2.661   3.189  0.0352 -0.1677  0.1190
   20SAPS   H5X 2619   0.384   2.746   3.238  1.4257  0.4256  0.6390
   20SAPS   H5Y 2620   0.545   2.668   3.210  0.2212 -0.3455 -0.7254
   20SAPS   C36 2621   0.384   2.524   3.241  0.5685 -0.1896  0.1726
   20SAPS   H6X 2622   0.440   2.441   3.194 -2.3428 -1.1240 -1.9250
   20SAPS   H6Y 2623   0.280   2.508   3.206  0.8288 -0.0068 -0.7063
   20SAPS   C37 2624   0.393   2.509   3.393 -0.5512 -0.5012 -0.2487
   20SAPS   H7X 2625   0.332   2.590   3.439  1.1597  0.7523 -0.0969
   20SAPS   H7Y 2626   0.496   2.525   3.431 -0.5876  0.0460 -0.3786
   20SAPS   C38 2627   0.357   2.370   3.444  0.5829 -0.1876  0.0541
   20SAPS   H8X 2628   0.421   2.295   3.391  0.4578  0.3525 -0.8779
   20SAPS   H8Y 2629   0.253   2.337   3.426  1.1329 -0.9971 -1.9798
   20SAPS   C39 2630   0.378   2.364   3.596  0.3105 -0.0533 -1.0027
   20SAPS   H9X 2631   0.485   2.380   3.618  0.5423 -1.2696 -1.1446
   20SAPS   H9Y 2632   0.369   2.267   3.650 -0.6069  1.1015  1.0122
   20SAPS  C310 2633   0.314   2.473   3.681 -0.3080  0.5587  0.0470
   20SAPS  H10X 2634   0.205   2.454   3.693 -0.7694  2.6991 -0.4187
   20SAPS  H10Y 2635   0.324   2.571   3.631  1.6946  0.1339 -0.4513
   20SAPS  C311 2636   0.366   2.481   3.827 -0.2959 -0.0592  0.6670
   20SAPS  H11X 2637   0.476   2.484   3.838 -0.2965 -0.5172  0.8304
   20SAPS  H11Y 2638   0.326   2.387   3.871  0.4147 -0.6510  0.0597
   20SAPS  C312 2639   0.314   2.603   3.900 -0.5403 -0.1084  0.4512
   20SAPS  H12X 2640   0.226   2.635   3.840  0.0029  1.1410  0.3041
   20SAPS  H12Y 2641   0.392   2.681   3.888  1.8837 -2.4458  0.1239
   20SAPS  C313 2642   0.284   2.574   4.046  0.1310 -0.1489 -0.3523
   20SAPS  H13X 2643   0.345   2.489   4.084  1.3582  1.1820  0.7949
   20SAPS  H13Y 2644   0.175   2.559   4.065  0.4656 -0.9298  1.1891
   20SAPS  C314 2645   0.335   2.696   4.136 -0.2759 -0.3960  0.0924
   20SAPS  H14X 2646   0.286   2.787   4.096 -1.3704 -1.6989 -1.6321
   20SAPS  H14Y 2647   0.444   2.704   4.114  0.1383 -4.7248 -0.3084
   20SAPS  C315 2648   0.314   2.683   4.288 -0.1584  0.0272 -0.5199
   20SAPS  H15X 2649   0.355   2.580   4.301 -0.7202 -0.5013 -2.6084
   20SAPS  H15Y 2650   0.207   2.670   4.313  0.4203 -0.6419  1.9042
   20SAPS  C316 2651   0.383   2.788   4.382  0.0145 -0.1786 -0.3436
   20SAPS  H16X 2652   0.327   2.883   4.369 -0.1013 -0.1402  0.4016
   20SAPS  H16Y 2653   0.489   2.803   4.355  0.8350 -0.8621  2.2815
   20SAPS  C317 2654   0.366   2.769   4.534 -0.2581 -0.6638  0.6780
   20SAPS  H17X 2655   0.259   2.762   4.563 -0.9147 -1.2975 -1.6269
   20SAPS  H17Y 2656   0.410   2.860   4.580 -1.0396  0.7218 -1.1913
   20SAPS  C318 2657   0.444   2.651   4.595 -0.4350  0.2068 -0.1222
   20SAPS  H18X 2658   0.518   2.596   4.533  0.6191  0.2597  1.0450
   20SAPS  H18Y 2659   0.365   2.576   4.616 -1.2013  0.7003 -1.1602
   20SAPS  H18Z 2660   0.500   2.686   4.685  0.7226 -0.9003 -0.3836
   21CHL1    C3 2661   2.154   0.794   6.330  0.5175  0.4267  0.4055
   21CHL1    H3 2662   2.062   0.757   6.380  0.1351  2.8150  1.6227
   21CHL1    O3 2663   2.249   0.809   6.430 -0.1507 -0.3703  0.1854
   21CHL1   H3' 2664   2.197   0.851   6.499  2.9031 -0.1618  2.5596
   21CHL1    C4 2665   2.200   0.692   6.228  0.1374 -0.5247 -0.4860
   21CHL1   H4A 2666   2.310   0.708   6.218  0.9707 -1.1011  4.8049
   21CHL1   H4B 2667   2.200   0.596   6.284 -0.1204 -0.4716 -0.3935
   21CHL1    C5 2668   2.119   0.689   6.098 -0.4018 -0.7020  0.6213
   21CHL1    C6 2669   2.069   0.574   6.055  0.1327 -0.2114  0.3302
   21CHL1    H6 2670   2.082   0.485   6.118  0.9883 -0.0860  0.3307
   21CHL1    C7 2671   1.988   0.555   5.930  0.6782 -0.0510  1.3170
   21CHL1   H7A 2672   2.013   0.465   5.871 -1.7943 -1.6262  2.4663
   21CHL1   H7B 2673   1.881   0.532   5.954  0.0781 -0.8334 -1.6943
   21CHL1    C8 2674   1.982   0.680   5.841  0.3545  0.3369  0.3246
   21CHL1    H8 2675   2.083   0.688   5.796  1.4343  0.7888  2.6628
   21CHL1   C14 2676   1.858   0.668   5.749  0.4862  0.8402 -1.0406
   21CHL1   H14 2677   1.770   0.661   5.817  2.0619  0.9403  1.0938
   21CHL1   C15 2678   1.841   0.537   5.665  0.1131 -0.5646  0.5157
   21CHL1  H15A 2679   1.931   0.512   5.604 -0.6833  1.0702 -1.4441
   21CHL1  H15B 2680   1.808   0.450   5.726 -0.9285  0.8006  1.9658
   21CHL1   C16 2681   1.738   0.587   5.566  0.2000 -0.1032 -0.1995
   21CHL1  H16A 2682   1.778   0.559   5.467  0.0249  0.2773 -0.3838
   21CHL1  H16B 2683   1.635   0.545   5.577 -0.0370  0.3033 -0.8082
   21CHL1   C17 2684   1.714   0.746   5.587  1.0870  1.0400  0.1788
   21CHL1   H17 2685   1.637   0.763   5.666  1.3826  2.3329  0.2212
   21CHL1   C13 2686   1.840   0.793   5.660 -0.1535 -0.1656 -0.2815
   21CHL1   C18 2687   1.965   0.795   5.563  0.0603  0.0001  0.7366
   21CHL1  H18A 2688   1.957   0.871   5.482 -1.7758 -1.0019 -0.0871
   21CHL1  H18B 2689   2.054   0.814   5.626  2.1003  3.0237 -2.6993
   21CHL1  H18C 2690   1.985   0.694   5.519  2.7072  0.7076  0.1493
   21CHL1   C12 2691   1.826   0.919   5.744 -0.6519 -0.4145  0.1915
   21CHL1  H12A 2692   1.824   1.005   5.673 -2.0866 -2.1061 -1.9546
   21CHL1  H12B 2693   1.732   0.913   5.802  0.7591  0.3566  2.6862
   21CHL1   C11 2694   1.942   0.932   5.836  0.5025 -0.0704 -0.4713
   21CHL1  H11A 2695   2.036   0.949   5.778  0.8627  0.7779  0.3371
   21CHL1  H11B 2696   1.923   1.025   5.894 -2.9374 -0.8771 -0.1124
   21CHL1    C9 2697   1.969   0.807   5.928 -0.7072  0.6214  0.4051
   21CHL1    H9 2698   1.878   0.787   5.988  0.7288 -2.9837  1.6330
   21CHL1   C10 2699   2.085   0.824   6.032 -0.6719 -0.1164  0.8979
   21CHL1   C19 2700   2.222   0.869   5.956 -0.0387 -0.2295 -0.6729
   21CHL1  H19A 2701   2.305   0.877   6.029  0.0281  1.3640 -0.8832
   21CHL1  H19B 2702   2.240   0.790   5.880  1.1414  1.3795 -2.1522
   21CHL1  H19C 2703   2.211   0.971   5.913 -1.1781  0.0945  0.3315
   21CHL1    C1 2704   2.043   0.931   6.136  0.1888  0.3204 -0.2079
   21CHL1   H1A 2705   2.040   1.034   6.095  0.2396  1.0926  1.6112
   21CHL1   H1B 2706   1.947   0.904   6.185  0.5825  1.9707  1.5846
   21CHL1    C2 2707   2.136   0.932   6.263  0.9017 -0.1834  0.2673
   21CHL1   H2A 2708   2.089   1.001   6.336 -1.7874 -2.5217  0.9084
   21CHL1   H2B 2709   2.237   0.974   6.244  1.6160 -1.8030  0.3188
   21CHL1   C20 2710   1.670   0.817   5.461  0.4833 -0.2085  0.1822
   21CHL1   H20 2711   1.761   0.834   5.399  1.3316 -4.1500  0.1176
   21CHL1   C21 2712   1.614   0.946   5.504 -0.1277  0.3424  0.2801
   21CHL1  H21A 2713   1.690   1.001   5.563 -0.8885 -0.3689  2.0038
   21CHL1  H21B 2714   1.531   0.948   5.578  0.9513  0.9423  1.5055
   21CHL1  H21C 2715   1.589   1.003   5.412 -1.5268  0.1959  0.5515
   21CHL1   C22 2716   1.567   0.737   5.382  0.2212  0.5033  0.4915
   21CHL1  H22A 2717   1.620   0.642   5.357 -1.2507  0.1427 -1.4885
   21CHL1  H22B 2718   1.488   0.707   5.454  0.5498 -1.3846  0.1268
   21CHL1   C23 2719   1.508   0.804   5.255 -0.4076  0.2538 -0.4317
   21CHL1  H23A 2720   1.442   0.889   5.283 -0.4972  0.3076 -0.8052
   21CHL1  H23B 2721   1.591   0.844   5.194 -0.0216 -2.0700 -1.5529
   21CHL1   C24 2722   1.427   0.703   5.172 -0.3320 -0.2911 -0.6559
   21CHL1  H24A 2723   1.498   0.620   5.155 -0.1632 -0.0730 -1.0114
   21CHL1  H24B 2724   1.339   0.675   5.234  0.9362  2.7710  2.9527
   21CHL1   C25 2725   1.402   0.755   5.036  0.3113  1.0289 -0.4648
   21CHL1   H25 2726   1.503   0.777   4.994  1.4445  2.5378  2.7008
   21CHL1   C26 2727   1.312   0.662   4.953  0.2082  0.3282 -0.1162
   21CHL1  H26A 2728   1.353   0.558   4.955 -0.2470  0.1551  0.5506
   21CHL1  H26B 2729   1.210   0.671   4.995  0.0843  2.8447 -0.8029
   21CHL1  H26C 2730   1.322   0.686   4.845  1.9662 -0.5471 -0.2017
   21CHL1   C27 2731   1.331   0.890   5.051 -0.6152 -0.6209  0.1418
   21CHL1  H27A 2732   1.407   0.971   5.055 -3.1260  1.8133  2.5499
   21CHL1  H27B 2733   1.263   0.918   4.968 -1.4377  3.3586  1.9152
   21CHL1  H27C 2734   1.268   0.894   5.142 -2.2343  1.1476 -0.9756
   22CHL1    C3 2735   6.542   6.239   4.938 -0.8066  0.3932  0.6901
   22CHL1    H3 2736   6.596   6.329   4.975 -1.5748  0.8815  0.6368
   22CHL1    O3 2737   6.426   6.211   5.018 -0.4357  0.0614  0.1962
   22CHL1   H3' 2738   6.452   6.238   5.106  0.1501 -0.5758  0.2295
   22CHL1    C4 2739   6.500   6.249   4.788 -0.0809 -0.3260  0.6365
   22CHL1   H4A 2740   6.419   6.175   4.768  0.8647 -0.8966 -1.4343
   22CHL1   H4B 2741   6.457   6.351   4.781  0.5103  0.1021  2.7632
   22CHL1    C5 2742   6.609   6.238   4.683  0.6953 -0.5191  0.4068
   22CHL1    C6 2743   6.627   6.330   4.581 -0.2336 -0.3489 -0.3967
   22CHL1    H6 2744   6.556   6.414   4.574  0.4568  0.3245  0.4773
   22CHL1    C7 2745   6.739   6.353   4.477  1.0591 -0.6775 -0.1572
   22CHL1   H7A 2746   6.700   6.372   4.374 -0.2752 -1.4003  0.1908
   22CHL1   H7B 2747   6.809   6.435   4.505  2.5918 -1.7635 -0.6361
   22CHL1    C8 2748   6.813   6.219   4.468  0.0908  0.0811 -0.0589
   22CHL1    H8 2749   6.754   6.146   4.409 -1.7828  2.0488 -0.7544
   22CHL1   C14 2750   6.950   6.245   4.408 -0.7126 -0.9786 -0.0546
   22CHL1   H14 2751   6.999   6.319   4.475 -1.9823 -0.1805  0.0397
   22CHL1   C15 2752   6.952   6.316   4.270 -0.7431 -0.2074  0.4960
   22CHL1  H15A 2753   6.862   6.282   4.214 -0.7940  1.1446 -0.2899
   22CHL1  H15B 2754   6.931   6.425   4.281 -1.0320 -0.1695 -0.3536
   22CHL1   C16 2755   7.085   6.269   4.202  0.3240 -0.1979 -0.1549
   22CHL1  H16A 2756   7.060   6.218   4.107  2.4417 -1.1084 -0.2830
   22CHL1  H16B 2757   7.145   6.358   4.174  0.8572 -0.6023 -0.3331
   22CHL1   C17 2758   7.153   6.177   4.302  0.3711 -1.5882  0.6644
   22CHL1   H17 2759   7.215   6.244   4.364  0.9978 -0.1939 -1.3660
   22CHL1   C13 2760   7.041   6.122   4.396  0.0763  0.2336  0.2837
   22CHL1   C18 2761   6.968   6.007   4.314 -0.1655 -0.0596 -0.4660
   22CHL1  H18A 2762   7.025   5.912   4.311  0.2222  0.1909 -1.4986
   22CHL1  H18B 2763   6.871   5.979   4.360  1.3523 -2.8336  1.3517
   22CHL1  H18C 2764   6.953   6.046   4.211 -1.5658 -0.0933 -0.2989
   22CHL1   C12 2765   7.071   6.075   4.545  0.0282  0.9007  0.5536
   22CHL1  H12A 2766   7.139   5.987   4.535  0.0966  0.9789  0.3221
   22CHL1  H12B 2767   7.129   6.152   4.599 -1.5499  0.9156  2.3409
   22CHL1   C11 2768   6.945   6.044   4.616  0.6255 -0.0582 -0.1112
   22CHL1  H11A 2769   6.895   5.954   4.575  0.0936 -0.6442  1.7077
   22CHL1  H11B 2770   6.958   6.012   4.722 -2.0951  1.2194  0.7036
   22CHL1    C9 2771   6.843   6.159   4.615 -0.1253 -0.2792 -0.6533
   22CHL1    H9 2772   6.888   6.248   4.665  1.5796 -0.3224 -2.0120
   22CHL1   C10 2773   6.714   6.131   4.712 -0.1614  0.1014  1.2302
   22CHL1   C19 2774   6.638   6.008   4.656 -0.1382 -0.1507 -0.1711
   22CHL1  H19A 2775   6.696   5.917   4.683  0.9500 -0.2021 -2.4253
   22CHL1  H19B 2776   6.543   5.995   4.712  0.0291 -1.5912 -0.1757
   22CHL1  H19C 2777   6.632   6.003   4.545  1.6951 -0.2556 -0.3042
   22CHL1    C1 2778   6.756   6.128   4.862  0.1430 -0.3740  0.4755
   22CHL1   H1A 2779   6.819   6.045   4.898  2.5373  1.4791  0.8521
   22CHL1   H1B 2780   6.812   6.223   4.879 -1.0668  0.6479 -0.9367
   22CHL1    C2 2781   6.632   6.119   4.951  0.0003  0.3677 -0.3346
   22CHL1   H2A 2782   6.664   6.113   5.057 -1.7012  0.5624  0.2221
   22CHL1   H2B 2783   6.586   6.020   4.930 -1.5593  0.6934  1.2547
   22CHL1   C20 2784   7.255   6.079   4.254  0.1477  0.4453 -0.0899
   22CHL1   H20 2785   7.259   5.994   4.326 -0.1875  0.1797 -0.3840
   22CHL1   C21 2786   7.404   6.135   4.268  0.5052  0.4365 -0.3266
   22CHL1  H21A 2787   7.400   6.227   4.206  1.0725 -0.3339 -1.5538
   22CHL1  H21B 2788   7.474   6.058   4.227 -1.7642 -1.6199 -0.5470
   22CHL1  H21C 2789   7.427   6.147   4.376 -4.1611 -0.9545  1.0642
   22CHL1   C22 2790   7.230   6.019   4.109  0.1674 -0.0008  0.1102
   22CHL1  H22A 2791   7.120   6.006   4.101  0.2331  0.3613 -1.8423
   22CHL1  H22B 2792   7.263   6.098   4.037  1.6567  1.7686  2.5639
   22CHL1   C23 2793   7.307   5.891   4.069  0.1430 -0.0475  0.2424
   22CHL1  H23A 2794   7.415   5.913   4.083  0.3144 -1.7782  2.0707
   22CHL1  H23B 2795   7.270   5.800   4.121 -3.6628  1.1991  0.0053
   22CHL1   C24 2796   7.287   5.863   3.912 -0.0222 -0.2728 -0.4362
   22CHL1  H24A 2797   7.181   5.831   3.901 -0.0405 -0.5998  0.5486
   22CHL1  H24B 2798   7.315   5.958   3.862  1.4635  0.5062  1.6790
   22CHL1   C25 2799   7.389   5.752   3.871 -0.4140 -0.6869  0.0178
   22CHL1   H25 2800   7.489   5.780   3.908  0.2063 -1.6059 -0.9091
   22CHL1   C26 2801   7.336   5.618   3.937 -0.2071 -0.5176  0.9056
   22CHL1  H26A 2802   7.373   5.605   4.041  3.6622  2.0326  0.0640
   22CHL1  H26B 2803   7.227   5.609   3.919 -0.1671 -0.8974  0.8322
   22CHL1  H26C 2804   7.394   5.536   3.889  1.9594  0.8929  0.9623
   22CHL1   C27 2805   7.399   5.730   3.721  0.1323  0.1311 -0.0744
   22CHL1  H27A 2806   7.439   5.822   3.674  0.9333 -1.1136 -1.9986
   22CHL1  H27B 2807   7.466   5.643   3.704 -0.6339 -0.2235 -1.4213
   22CHL1  H27C 2808   7.301   5.705   3.675  0.4728 -0.8461 -0.3005
   23CHL1    C3 2809   3.369   1.014   6.163  0.1856 -0.5947  0.2244
   23CHL1    H3 2810   3.315   1.099   6.118 -0.2744 -1.3155 -0.6346
   23CHL1    O3 2811   3.373   1.025   6.304  0.1725 -0.4285 -0.0710
   23CHL1   H3' 2812   3.463   1.051   6.326 -0.3064  0.1713  1.3289
   23CHL1    C4 2813   3.308   0.877   6.124 -0.0223 -0.2336 -0.0216
   23CHL1   H4A 2814   3.340   0.786   6.180 -2.4032 -1.1302  0.0027
   23CHL1   H4B 2815   3.204   0.883   6.163  0.4615  1.7984  1.0526
   23CHL1    C5 2816   3.304   0.841   5.972  0.2981  0.2447 -0.6367
   23CHL1    C6 2817   3.189   0.813   5.915  0.9595 -0.1573 -0.0602
   23CHL1    H6 2818   3.097   0.794   5.972  0.8508  0.1921 -0.1160
   23CHL1    C7 2819   3.177   0.789   5.761  0.6906 -0.4669 -0.4615
   23CHL1   H7A 2820   3.102   0.708   5.748 -0.5961  0.9312 -2.1877
   23CHL1   H7B 2821   3.132   0.881   5.718 -2.5262 -1.9306 -0.5442
   23CHL1    C8 2822   3.311   0.760   5.701 -0.0755 -0.3263 -0.4271
   23CHL1    H8 2823   3.332   0.655   5.733  0.3061 -0.2792 -0.5187
   23CHL1   C14 2824   3.306   0.780   5.550  0.0496  0.0168 -0.7035
   23CHL1   H14 2825   3.272   0.885   5.547  2.7177  0.9635 -0.7132
   23CHL1   C15 2826   3.202   0.697   5.471  0.5633  0.5079 -0.7356
   23CHL1  H15A 2827   3.209   0.594   5.512  0.3532  0.4374 -0.8771
   23CHL1  H15B 2828   3.098   0.733   5.483  0.2897 -0.6441  0.5480
   23CHL1   C16 2829   3.244   0.708   5.326 -0.1147 -0.0808  0.0065
   23CHL1  H16A 2830   3.262   0.606   5.284 -0.0884  0.5059 -1.4698
   23CHL1  H16B 2831   3.165   0.767   5.276 -0.7614 -0.3917  0.6472
   23CHL1   C17 2832   3.377   0.780   5.326 -0.6328 -0.0724 -0.8471
   23CHL1   H17 2833   3.353   0.888   5.325  1.8261  0.6778  2.7947
   23CHL1   C13 2834   3.430   0.760   5.462 -0.0156  0.1381 -0.1591
   23CHL1   C18 2835   3.486   0.611   5.475  0.5471  0.3762  0.3643
   23CHL1  H18A 2836   3.431   0.548   5.402  0.7420  1.5320 -0.8047
   23CHL1  H18B 2837   3.588   0.613   5.432  0.1275  1.9193 -0.6196
   23CHL1  H18C 2838   3.484   0.565   5.576 -1.2081  0.3517  0.3511
   23CHL1   C12 2839   3.527   0.870   5.517  0.1526  0.1628  0.1939
   23CHL1  H12A 2840   3.623   0.859   5.463  0.0079 -1.3654  0.1852
   23CHL1  H12B 2841   3.477   0.967   5.498 -2.2370 -0.4787  2.5605
   23CHL1   C11 2842   3.552   0.852   5.666 -0.1957  0.4300 -0.5142
   23CHL1  H11A 2843   3.586   0.749   5.691  0.3498  0.2163 -2.0371
   23CHL1  H11B 2844   3.636   0.915   5.702  2.0120 -1.8021 -1.4210
   23CHL1    C9 2845   3.415   0.863   5.755 -0.0701 -0.3688  0.8456
   23CHL1    H9 2846   3.366   0.960   5.732 -2.5464 -0.7418  3.8554
   23CHL1   C10 2847   3.441   0.878   5.903  0.8597  0.3756  0.0594
   23CHL1   C19 2848   3.527   0.748   5.940 -0.1980 -0.2828 -0.4442
   23CHL1  H19A 2849   3.525   0.734   6.050 -1.2772 -0.7853 -0.5207
   23CHL1  H19B 2850   3.481   0.657   5.897 -0.1996 -0.8546  0.7583
   23CHL1  H19C 2851   3.631   0.760   5.901 -1.3764  0.4905 -3.6580
   23CHL1    C1 2852   3.496   1.012   5.952 -0.6722  0.2146  0.0408
   23CHL1   H1A 2853   3.600   1.036   5.919  0.0063  0.3312  2.1037
   23CHL1   H1B 2854   3.434   1.100   5.923 -1.5790 -0.5447 -0.3643
   23CHL1    C2 2855   3.515   1.016   6.108  0.6210  0.5243  0.1152
   23CHL1   H2A 2856   3.565   1.108   6.145 -1.4451  1.4684  0.6840
   23CHL1   H2B 2857   3.581   0.931   6.134  0.1739 -0.1106 -0.7431
   23CHL1   C20 2858   3.463   0.744   5.210  0.2932 -0.5317  0.5656
   23CHL1   H20 2859   3.510   0.645   5.224  1.3206 -0.2186 -0.5127
   23CHL1   C21 2860   3.573   0.849   5.185  0.3219  0.1117  1.0144
   23CHL1  H21A 2861   3.644   0.853   5.271  0.7511  1.7962  0.6326
   23CHL1  H21B 2862   3.527   0.949   5.166 -0.6863 -0.7512 -1.4793
   23CHL1  H21C 2863   3.641   0.833   5.099 -0.5668 -0.1720  0.3577
   23CHL1   C22 2864   3.384   0.742   5.080 -0.1917  0.9622 -0.1470
   23CHL1  H22A 2865   3.461   0.726   5.002 -1.8785 -0.3212 -1.6476
   23CHL1  H22B 2866   3.325   0.649   5.068  0.7244  0.4413 -0.7286
   23CHL1   C23 2867   3.310   0.871   5.038  0.1694 -0.1967 -0.9523
   23CHL1  H23A 2868   3.208   0.873   5.082 -0.4125 -0.5551 -2.2229
   23CHL1  H23B 2869   3.351   0.965   5.079 -2.2315 -0.1434  1.6385
   23CHL1   C24 2870   3.278   0.868   4.885  0.6045 -0.0745  0.0435
   23CHL1  H24A 2871   3.215   0.958   4.867  1.2081  0.5311  0.8425
   23CHL1  H24B 2872   3.369   0.894   4.827 -0.5918  2.6559 -0.7578
   23CHL1   C25 2873   3.202   0.743   4.842  0.2760 -0.0703 -0.5434
   23CHL1   H25 2874   3.277   0.662   4.854  1.5013  1.2124  0.8755
   23CHL1   C26 2875   3.087   0.704   4.935 -0.0528  0.1742  0.7594
   23CHL1  H26A 2876   3.031   0.619   4.892 -2.9098  0.7459  3.0364
   23CHL1  H26B 2877   3.122   0.666   5.034 -0.5600 -0.5020  0.6852
   23CHL1  H26C 2878   3.015   0.788   4.943 -0.5613 -0.1692 -0.0852
   23CHL1   C27 2879   3.173   0.750   4.690  0.3564  0.8057 -0.3369
   23CHL1  H27A 2880   3.105   0.836   4.672  0.4681  0.8803 -0.4008
   23CHL1  H27B 2881   3.269   0.762   4.634  1.4007  0.1680  1.2339
   23CHL1  H27C 2882   3.125   0.653   4.664 -2.5603  1.1239  3.0035
   24CHL1    C3 2883   4.303   6.264   6.255  0.1311 -0.3030  0.2295
   24CHL1    H3 2884   4.271   6.162   6.285 -0.3891  0.0777  1.0148
   24CHL1    O3 2885   4.395   6.310   6.351 -0.0234 -0.4361  0.0379
   24CHL1   H3' 2886   4.410   6.401   6.324  3.5550 -1.0904 -0.7728
   24CHL1    C4 2887   4.383   6.260   6.131 -0.2120  0.0398  0.4839
   24CHL1   H4A 2888   4.429   6.360   6.116 -0.1999 -0.3246 -2.6273
   24CHL1   H4B 2889   4.472   6.194   6.133  0.3343  0.6815 -0.9513
   24CHL1    C5 2890   4.301   6.233   6.002 -0.6918  0.7578 -0.3671
   24CHL1    C6 2891   4.334   6.134   5.918  0.3715  0.0265  0.1775
   24CHL1    H6 2892   4.428   6.081   5.938 -0.3544 -1.1139  0.6409
   24CHL1    C7 2893   4.261   6.110   5.784 -0.3677  0.1409  0.6182
   24CHL1   H7A 2894   4.336   6.090   5.704  1.3488 -0.5080  2.3093
   24CHL1   H7B 2895   4.196   6.019   5.786  1.6282 -1.4196 -0.8468
   24CHL1    C8 2896   4.161   6.230   5.753  0.3326 -0.5191 -0.0226
   24CHL1    H8 2897   4.233   6.308   5.720 -1.8049  1.6840  0.3011
   24CHL1   C14 2898   4.076   6.195   5.636 -0.1022  0.0431  0.3941
   24CHL1   H14 2899   4.025   6.102   5.669  1.6730 -0.8312  0.7866
   24CHL1   C15 2900   4.141   6.166   5.505 -0.4505  0.2888  0.5386
   24CHL1  H15A 2901   4.199   6.247   5.455  0.2105 -0.2396  0.4279
   24CHL1  H15B 2902   4.212   6.081   5.503 -1.9524 -0.9918 -0.7002
   24CHL1   C16 2903   4.018   6.140   5.414 -0.6135  0.0801 -0.5610
   24CHL1  H16A 2904   4.032   6.152   5.305  0.3445 -1.1266 -0.5882
   24CHL1  H16B 2905   3.984   6.035   5.413 -0.8912  0.1686 -1.8636
   24CHL1   C17 2906   3.894   6.216   5.480  0.4159  0.5007  0.2198
   24CHL1   H17 2907   3.827   6.146   5.535  1.5270 -0.4308  0.4410
   24CHL1   C13 2908   3.965   6.287   5.603 -0.2988  0.1041  0.2822
   24CHL1   C18 2909   4.019   6.430   5.568 -0.1720 -0.1319 -0.4904
   24CHL1  H18A 2910   4.074   6.472   5.655  2.4369  0.0114 -2.0930
   24CHL1  H18B 2911   4.096   6.424   5.487  1.0685 -0.9113  0.6970
   24CHL1  H18C 2912   3.937   6.497   5.535 -1.2096 -0.8339  0.5683
   24CHL1   C12 2913   3.874   6.292   5.731  0.1991 -0.9639 -1.1417
   24CHL1  H12A 2914   3.791   6.362   5.710  1.1351  0.2496 -0.8825
   24CHL1  H12B 2915   3.835   6.195   5.769  0.0988 -0.4691  0.0608
   24CHL1   C11 2916   3.960   6.345   5.851 -0.9111  0.6831  0.5710
   24CHL1  H11A 2917   3.980   6.452   5.828  0.5387  0.7016  1.7378
   24CHL1  H11B 2918   3.902   6.368   5.943  1.7123  0.4700  2.3834
   24CHL1    C9 2919   4.087   6.258   5.879 -0.2172 -0.5011 -0.1547
   24CHL1    H9 2920   4.047   6.160   5.912 -0.3436 -0.4478 -0.1486
   24CHL1   C10 2921   4.180   6.324   5.989 -0.2823 -0.0880  0.5657
   24CHL1   C19 2922   4.223   6.471   5.941  0.3974  0.4974  0.1869
   24CHL1  H19A 2923   4.130   6.523   5.908 -1.0860  0.0485  3.3049
   24CHL1  H19B 2924   4.263   6.532   6.025  0.1697  0.8898  0.0162
   24CHL1  H19C 2925   4.292   6.470   5.854 -1.4851 -0.4568 -1.3631
   24CHL1    C1 2926   4.101   6.327   6.122  0.5651 -0.1223 -0.7805
   24CHL1   H1A 2927   4.023   6.407   6.120 -1.0509 -1.5410  1.4155
   24CHL1   H1B 2928   4.046   6.232   6.140 -0.5544  0.7575  0.6418
   24CHL1    C2 2929   4.188   6.363   6.247 -0.5067  0.4109  0.2590
   24CHL1   H2A 2930   4.125   6.373   6.338 -0.4696  2.9399  0.1008
   24CHL1   H2B 2931   4.217   6.468   6.222 -1.8148  0.8346  0.4482
   24CHL1   C20 2932   3.809   6.303   5.386  0.6551  0.4838 -0.1725
   24CHL1   H20 2933   3.871   6.379   5.334  0.9702  0.3392 -0.0108
   24CHL1   C21 2934   3.693   6.372   5.462 -0.0404  0.1446 -0.2686
   24CHL1  H21A 2935   3.631   6.296   5.515  1.4257  0.4641  2.0609
   24CHL1  H21B 2936   3.623   6.426   5.395 -2.6454  0.2070  2.2657
   24CHL1  H21C 2937   3.721   6.450   5.537 -1.7615  0.7236 -0.1735
   24CHL1   C22 2938   3.754   6.213   5.268 -0.5813  0.0085  0.4649
   24CHL1  H22A 2939   3.676   6.263   5.207 -1.5964 -1.8849  0.1496
   24CHL1  H22B 2940   3.834   6.204   5.192 -0.5213  1.9317  0.2553
   24CHL1   C23 2941   3.699   6.074   5.304 -0.7498 -0.0099 -0.0067
   24CHL1  H23A 2942   3.792   6.014   5.300  1.4168  3.1286 -0.7536
   24CHL1  H23B 2943   3.663   6.076   5.409  0.5033 -0.1210  0.4490
   24CHL1   C24 2944   3.589   6.008   5.214  0.2429 -0.0446 -0.2329
   24CHL1  H24A 2945   3.490   6.054   5.234  0.4681 -0.0440  0.9486
   24CHL1  H24B 2946   3.621   6.021   5.109 -1.0564  1.6746 -0.4675
   24CHL1   C25 2947   3.572   5.858   5.250  0.5912 -0.2787 -0.4269
   24CHL1   H25 2948   3.575   5.846   5.361 -0.8799  1.4895 -0.1505
   24CHL1   C26 2949   3.438   5.804   5.188 -0.3767 -0.5920 -0.1087
   24CHL1  H26A 2950   3.352   5.867   5.218 -0.6004 -0.6538 -0.6120
   24CHL1  H26B 2951   3.447   5.807   5.077 -3.0782  0.9674 -0.3737
   24CHL1  H26C 2952   3.420   5.700   5.224 -1.2335 -0.0432  1.1024
   24CHL1   C27 2953   3.685   5.768   5.204 -0.6024 -0.2428  0.1079
   24CHL1  H27A 2954   3.678   5.769   5.093  0.2920  1.3815  0.0493
   24CHL1  H27B 2955   3.790   5.797   5.225 -0.8832  1.3358 -0.5245
   24CHL1  H27C 2956   3.659   5.665   5.239  0.3664 -0.1174  1.2260
   25CHL1    C3 2957   6.561   3.372   6.252 -0.3623 -0.0306  0.9156
   25CHL1    H3 2958   6.632   3.423   6.184  0.4077 -0.5488  1.3146
   25CHL1    O3 2959   6.603   3.369   6.389  0.8047 -0.3413 -0.5320
   25CHL1   H3' 2960   6.541   3.311   6.433 -0.4704 -0.0483 -1.8669
   25CHL1    C4 2961   6.424   3.436   6.241 -1.0505 -0.4499  0.3191
   25CHL1   H4A 2962   6.355   3.376   6.305 -3.4020 -0.5414 -2.0994
   25CHL1   H4B 2963   6.449   3.537   6.280 -0.2804 -0.7573  0.6309
   25CHL1    C5 2964   6.371   3.448   6.101 -0.9444 -0.4038  0.0565
   25CHL1    C6 2965   6.328   3.560   6.040  0.1933 -0.3482 -0.5318
   25CHL1    H6 2966   6.324   3.649   6.104  3.0221 -1.4155  1.3058
   25CHL1    C7 2967   6.278   3.577   5.902  0.1275  0.5012  0.0597
   25CHL1   H7A 2968   6.184   3.637   5.901  1.0071  1.9029 -0.2875
   25CHL1   H7B 2969   6.346   3.629   5.832  1.5795 -1.3518  0.0262
   25CHL1    C8 2970   6.245   3.440   5.841 -0.0907  0.3638  0.3886
   25CHL1    H8 2971   6.151   3.399   5.884  0.4873 -0.5711  0.7822
   25CHL1   C14 2972   6.232   3.443   5.688  0.3264 -0.2122 -0.5619
   25CHL1   H14 2973   6.338   3.456   5.658  0.9321 -2.8668  0.2169
   25CHL1   C15 2974   6.149   3.559   5.621 -0.3893 -0.2314  0.5793
   25CHL1  H15A 2975   6.048   3.567   5.667 -1.7877  0.6964 -2.4034
   25CHL1  H15B 2976   6.203   3.653   5.644 -0.6359  0.1594 -0.4204
   25CHL1   C16 2977   6.134   3.522   5.475 -0.7039  0.2339  0.0094
   25CHL1  H16A 2978   6.032   3.544   5.437 -0.7279  2.1419  1.0520
   25CHL1  H16B 2979   6.212   3.582   5.425 -0.4761  0.5188  0.6988
   25CHL1   C17 2980   6.180   3.369   5.469  0.2960 -0.1589  0.1151
   25CHL1   H17 2981   6.289   3.372   5.443  0.7156  2.2288  1.8110
   25CHL1   C13 2982   6.185   3.312   5.621 -0.9324 -0.3612  1.0813
   25CHL1   C18 2983   6.046   3.272   5.665 -0.8855 -0.0284 -0.0798
   25CHL1  H18A 2984   6.020   3.283   5.773  0.6879 -1.1001  0.4340
   25CHL1  H18B 2985   5.962   3.318   5.609  0.8865  1.6047 -1.5351
   25CHL1  H18C 2986   6.035   3.164   5.643 -0.7674  0.1575 -1.0759
   25CHL1   C12 2987   6.308   3.220   5.655  0.0630 -0.0877  0.2180
   25CHL1  H12A 2988   6.282   3.125   5.604 -0.1086 -0.7792  1.5560
   25CHL1  H12B 2989   6.402   3.252   5.606  1.6862 -2.0035  1.8766
   25CHL1   C11 2990   6.326   3.199   5.810 -0.6279  0.0952 -0.5598
   25CHL1  H11A 2991   6.240   3.139   5.846  1.0566 -1.1963  1.5643
   25CHL1  H11B 2992   6.411   3.133   5.837 -1.5345 -0.4821  0.9849
   25CHL1    C9 2993   6.348   3.331   5.880 -0.3584  0.3299 -0.2441
   25CHL1    H9 2994   6.439   3.375   5.835 -1.2442  1.4553 -1.0172
   25CHL1   C10 2995   6.369   3.315   6.028  0.2691  1.0061 -0.1596
   25CHL1   C19 2996   6.250   3.239   6.108 -0.0958  0.0830  0.7939
   25CHL1  H19A 2997   6.245   3.130   6.090 -2.8563  0.4370 -1.1871
   25CHL1  H19B 2998   6.258   3.253   6.217  1.9385  0.9233  0.5954
   25CHL1  H19C 2999   6.158   3.283   6.065  0.2552 -1.3653 -1.6977
   25CHL1    C1 3000   6.495   3.229   6.052  0.0513 -0.4464 -0.9606
   25CHL1   H1A 3001   6.462   3.123   6.039 -2.2501  0.3532 -2.1526
   25CHL1   H1B 3002   6.578   3.251   5.981 -0.0582  1.0069 -0.6707
   25CHL1    C2 3003   6.545   3.233   6.204 -0.4622 -0.1376  0.0719
   25CHL1   H2A 3004   6.635   3.170   6.220 -1.3528 -1.0727  1.8452
   25CHL1   H2B 3005   6.468   3.183   6.268 -1.0542 -0.5128 -0.8992
   25CHL1   C20 3006   6.107   3.294   5.368 -0.7606  0.3243  0.5091
   25CHL1   H20 3007   5.999   3.309   5.391 -0.4023  1.1355  1.7650
   25CHL1   C21 3008   6.147   3.132   5.373  0.4554 -0.0468 -0.8378
   25CHL1  H21A 3009   6.110   3.081   5.282 -0.0860  0.3130 -0.8243
   25CHL1  H21B 3010   6.101   3.079   5.460 -0.6073 -0.4862 -1.6488
   25CHL1  H21C 3011   6.258   3.121   5.373  0.4351 -1.5276  2.6245
   25CHL1   C22 3012   6.142   3.340   5.225 -0.1610 -1.1440 -0.5536
   25CHL1  H22A 3013   6.162   3.449   5.228 -1.0946 -0.9927  0.6263
   25CHL1  H22B 3014   6.237   3.287   5.200  0.9673  1.1521 -1.4459
   25CHL1   C23 3015   6.027   3.304   5.131  0.0323 -0.1719  0.2595
   25CHL1  H23A 3016   6.004   3.195   5.130  0.9204 -0.3957 -1.8643
   25CHL1  H23B 3017   5.933   3.363   5.137 -1.6273 -2.1266 -3.2390
   25CHL1   C24 3018   6.077   3.339   4.984 -0.0669  0.5207  0.2464
   25CHL1  H24A 3019   5.989   3.338   4.916  0.7897 -1.6977 -0.9274
   25CHL1  H24B 3020   6.106   3.446   4.975  0.0679  0.4664  0.0205
   25CHL1   C25 3021   6.185   3.251   4.927 -0.4519  0.4301  0.2976
   25CHL1   H25 3022   6.282   3.257   4.981 -0.0422 -0.6251 -0.2876
   25CHL1   C26 3023   6.147   3.099   4.929 -0.4575 -0.5666 -0.2943
   25CHL1  H26A 3024   6.208   3.049   4.850  1.7558 -1.1704  1.6781
   25CHL1  H26B 3025   6.175   3.061   5.029 -0.8329  0.4157  0.2023
   25CHL1  H26C 3026   6.037   3.101   4.913 -0.2166 -0.6168 -2.2481
   25CHL1   C27 3027   6.223   3.300   4.785  0.7539 -0.4861  0.4913
   25CHL1  H27A 3028   6.308   3.237   4.748  0.7738  0.0588 -0.4256
   25CHL1  H27B 3029   6.134   3.304   4.719 -1.0436  0.2469  2.8589
   25CHL1  H27C 3030   6.256   3.406   4.788 -1.5195  0.5807 -3.7795
   26CHL1    C3 3031   5.256   0.493   5.567  0.2885  0.5001 -0.1785
   26CHL1    H3 3032   5.164   0.554   5.580 -1.1919 -1.3428 -1.3723
   26CHL1    O3 3033   5.220   0.374   5.638 -0.5272 -0.3874  0.0763
   26CHL1   H3' 3034   5.278   0.306   5.602 -3.2908 -2.3561 -1.0359
   26CHL1    C4 3035   5.286   0.472   5.418 -0.4089 -0.6018  0.4769
   26CHL1   H4A 3036   5.384   0.420   5.418  0.1556  0.4195 -0.3389
   26CHL1   H4B 3037   5.225   0.393   5.370  0.0322 -0.0844 -0.9791
   26CHL1    C5 3038   5.297   0.602   5.342  0.8771  0.0957 -0.1327
   26CHL1    C6 3039   5.224   0.632   5.237  0.6033 -0.9052 -0.2958
   26CHL1    H6 3040   5.136   0.571   5.214 -1.1545  1.5326 -0.4086
   26CHL1    C7 3041   5.246   0.754   5.154  0.0399  0.0989 -0.2629
   26CHL1   H7A 3042   5.266   0.714   5.052  1.0585 -0.9366  0.3101
   26CHL1   H7B 3043   5.169   0.834   5.154  1.2154  1.2620  0.6750
   26CHL1    C8 3044   5.376   0.830   5.194  0.6865  0.8303 -0.1370
   26CHL1    H8 3045   5.459   0.777   5.143  0.9140 -2.5527  3.2876
   26CHL1   C14 3046   5.369   0.968   5.139  0.5199  0.4815 -0.0369
   26CHL1   H14 3047   5.288   1.023   5.192  1.3999  1.1006  0.6972
   26CHL1   C15 3048   5.331   0.985   4.985 -0.4126  0.1114  0.3015
   26CHL1  H15A 3049   5.389   0.906   4.934  2.2234  1.7816  0.5303
   26CHL1  H15B 3050   5.220   0.973   4.981 -0.3717 -0.1467 -0.1145
   26CHL1   C16 3051   5.372   1.129   4.957  0.4287 -0.5803 -0.0571
   26CHL1  H16A 3052   5.444   1.124   4.872  0.3417  1.5644 -0.2979
   26CHL1  H16B 3053   5.290   1.199   4.931  0.2190 -1.0754 -0.7405
   26CHL1   C17 3054   5.433   1.186   5.085 -0.1609  0.4820  0.4135
   26CHL1   H17 3055   5.352   1.223   5.151 -0.2305 -1.2140  1.3337
   26CHL1   C13 3056   5.489   1.060   5.164 -0.5915 -0.1878 -1.0739
   26CHL1   C18 3057   5.618   1.000   5.103  0.1191  0.4439  0.0084
   26CHL1  H18A 3058   5.603   0.996   4.993 -0.3436  3.1481 -0.0988
   26CHL1  H18B 3059   5.702   1.068   5.127 -0.6508  1.2219  0.5218
   26CHL1  H18C 3060   5.635   0.899   5.147  1.9435  0.6946 -0.0414
   26CHL1   C12 3061   5.488   1.072   5.324 -0.2044 -0.1659  0.7068
   26CHL1  H12A 3062   5.578   1.128   5.358 -0.8460  1.5099 -0.2049
   26CHL1  H12B 3063   5.396   1.129   5.350  0.8323  2.0452 -0.1694
   26CHL1   C11 3064   5.496   0.935   5.388  0.0142  0.7290 -0.3451
   26CHL1  H11A 3065   5.594   0.888   5.368 -0.4727  0.2145 -1.7070
   26CHL1  H11B 3066   5.488   0.947   5.498 -0.9672 -3.9354  0.3168
   26CHL1    C9 3067   5.393   0.834   5.342  0.3375  0.3142 -0.2668
   26CHL1    H9 3068   5.298   0.874   5.385  1.3159  0.9088  1.4533
   26CHL1   C10 3069   5.412   0.686   5.400 -0.5770 -0.0767  0.8195
   26CHL1   C19 3070   5.548   0.624   5.351 -0.8305 -0.4487 -0.8133
   26CHL1  H19A 3071   5.550   0.612   5.241  0.7864 -0.1739 -0.8418
   26CHL1  H19B 3072   5.631   0.691   5.382 -2.5342  1.0516  0.7533
   26CHL1  H19C 3073   5.565   0.527   5.402 -0.9541 -1.0836 -1.9622
   26CHL1    C1 3074   5.403   0.692   5.555  0.4983  0.5444 -0.0311
   26CHL1   H1A 3075   5.492   0.740   5.601  0.7503  0.6589 -0.6202
   26CHL1   H1B 3076   5.320   0.763   5.573  2.1331  2.3038  0.9413
   26CHL1    C2 3077   5.374   0.564   5.633  0.2388 -0.0134  0.0023
   26CHL1   H2A 3078   5.344   0.582   5.739  1.5164 -1.4018  0.6398
   26CHL1   H2B 3079   5.456   0.489   5.638  0.2604  0.0651  1.2021
   26CHL1   C20 3080   5.539   1.289   5.060  0.0481  0.0124  0.7104
   26CHL1   H20 3081   5.622   1.249   4.997 -0.5350 -0.0527 -0.0416
   26CHL1   C21 3082   5.593   1.339   5.198 -0.4689  0.3119 -0.7655
   26CHL1  H21A 3083   5.647   1.253   5.243 -0.7139 -0.5062 -2.0072
   26CHL1  H21B 3084   5.505   1.365   5.261 -0.5233  1.1839 -1.1867
   26CHL1  H21C 3085   5.667   1.422   5.192  0.4344 -0.5330 -1.4434
   26CHL1   C22 3086   5.487   1.406   4.979 -0.3364  0.1403 -0.7722
   26CHL1  H22A 3087   5.565   1.484   4.966  0.4722 -0.5752 -0.2699
   26CHL1  H22B 3088   5.460   1.377   4.876  1.2505 -1.0083 -0.8941
   26CHL1   C23 3089   5.356   1.465   5.036  0.3158  0.5455  0.0366
   26CHL1  H23A 3090   5.279   1.386   5.040  2.1298 -1.2937  0.7770
   26CHL1  H23B 3091   5.386   1.497   5.139  0.5264 -2.0006  0.8330
   26CHL1   C24 3092   5.291   1.572   4.953  0.1092  0.1091  0.8661
   26CHL1  H24A 3093   5.365   1.655   4.954 -0.1447  0.3970 -0.6153
   26CHL1  H24B 3094   5.283   1.545   4.845 -0.8442  2.5278  0.2636
   26CHL1   C25 3095   5.155   1.624   4.997  0.3270  0.0313  0.0407
   26CHL1   H25 3096   5.078   1.546   5.018 -1.1225  1.7000  1.3509
   26CHL1   C26 3097   5.168   1.716   5.121 -0.3927 -0.1512  0.2362
   26CHL1  H26A 3098   5.247   1.792   5.107  0.0374 -0.8380 -1.2602
   26CHL1  H26B 3099   5.072   1.766   5.146 -0.8590 -1.6276  1.6381
   26CHL1  H26C 3100   5.198   1.650   5.205 -1.7585 -1.7576 -0.4726
   26CHL1   C27 3101   5.104   1.706   4.875  0.7098 -0.3151  0.5575
   26CHL1  H27A 3102   5.081   1.639   4.789 -1.9173  2.5950 -1.2414
   26CHL1  H27B 3103   5.008   1.747   4.911 -0.4033 -0.8806 -1.5901
   26CHL1  H27C 3104   5.173   1.788   4.846 -0.5315  0.8051  0.6975
   27CHL1    C3 3105   2.090   6.516   6.216 -0.6890 -0.1662 -0.2121
   27CHL1    H3 3106   2.053   6.613   6.175 -1.3460  0.8654  2.5775
   27CHL1    O3 3107   2.079   6.517   6.360 -0.1886  0.2824 -0.4317
   27CHL1   H3' 3108   2.169   6.523   6.390  0.2563  0.3618 -1.7054
   27CHL1    C4 3109   2.007   6.405   6.154 -0.6555 -0.8688  0.2480
   27CHL1   H4A 3110   2.016   6.309   6.210  1.6948 -0.4885  0.6052
   27CHL1   H4B 3111   1.904   6.442   6.172 -0.6045  1.1697 -3.0295
   27CHL1    C5 3112   2.036   6.394   6.008  0.3585  0.4611  0.6367
   27CHL1    C6 3113   1.937   6.393   5.916  0.1693 -0.5362 -0.1915
   27CHL1    H6 3114   1.836   6.405   5.958  0.3232  0.7744 -0.1510
   27CHL1    C7 3115   1.948   6.391   5.767 -0.2536  0.1506  0.1641
   27CHL1   H7A 3116   1.870   6.330   5.717 -1.2130 -1.1887  3.0850
   27CHL1   H7B 3117   1.919   6.493   5.733 -1.7334  0.0936  1.1873
   27CHL1    C8 3118   2.090   6.349   5.727  0.3298 -0.2029 -0.3950
   27CHL1    H8 3119   2.087   6.240   5.745 -0.6701  0.0246  1.0099
   27CHL1   C14 3120   2.119   6.365   5.580 -0.4199  0.6389 -0.0339
   27CHL1   H14 3121   2.115   6.476   5.572  0.2854  0.6231 -0.6039
   27CHL1   C15 3122   2.007   6.315   5.489 -0.3377  0.2073  0.3095
   27CHL1  H15A 3123   1.972   6.216   5.524 -2.0129 -0.2447 -2.2915
   27CHL1  H15B 3124   1.941   6.404   5.488  2.0044  2.0394 -0.5082
   27CHL1   C16 3125   2.084   6.316   5.346  0.2036  0.1626  0.4161
   27CHL1  H16A 3126   2.080   6.215   5.299 -0.0336  0.4294 -0.1486
   27CHL1  H16B 3127   2.043   6.393   5.278 -1.9054  0.0355  1.4692
   27CHL1   C17 3128   2.234   6.356   5.377 -0.8467  0.6604  0.4158
   27CHL1   H17 3129   2.235   6.467   5.374 -0.8575  0.6543  0.1795
   27CHL1   C13 3130   2.253   6.319   5.527 -0.9987  0.1310 -0.6581
   27CHL1   C18 3131   2.283   6.169   5.543  0.1121 -0.5331 -0.0854
   27CHL1  H18A 3132   2.385   6.140   5.510  0.6114 -1.0839  1.8576
   27CHL1  H18B 3133   2.279   6.141   5.650 -1.8053  1.8044  0.5525
   27CHL1  H18C 3134   2.205   6.111   5.488  1.1998 -2.6264  0.4865
   27CHL1   C12 3135   2.361   6.402   5.607 -0.8071 -0.2834 -0.1562
   27CHL1  H12A 3136   2.468   6.380   5.587 -0.6382  0.2180  0.1956
   27CHL1  H12B 3137   2.355   6.512   5.597 -0.1396 -0.4383 -3.3054
   27CHL1   C11 3138   2.345   6.369   5.762 -0.2099 -0.3567 -0.3412
   27CHL1  H11A 3139   2.369   6.262   5.782 -0.8700 -0.4429 -0.0062
   27CHL1  H11B 3140   2.425   6.426   5.813 -0.6848  0.5825 -0.6226
   27CHL1    C9 3141   2.209   6.411   5.813  1.0829  0.6344  0.2081
   27CHL1    H9 3142   2.203   6.518   5.784 -0.2755  1.0605  1.8894
   27CHL1   C10 3143   2.181   6.389   5.958 -0.5732 -0.1212 -0.6928
   27CHL1   C19 3144   2.220   6.245   5.995  0.0721  0.0834 -0.3272
   27CHL1  H19A 3145   2.201   6.227   6.103  1.2043 -3.0809 -0.5408
   27CHL1  H19B 3146   2.156   6.174   5.937 -2.8039  2.1529  0.1297
   27CHL1  H19C 3147   2.330   6.228   5.992  0.0647 -0.0016 -0.1153
   27CHL1    C1 3148   2.267   6.492   6.029 -0.6916  0.8154 -0.4443
   27CHL1   H1A 3149   2.374   6.467   6.017 -1.2300 -1.4537 -1.1981
   27CHL1   H1B 3150   2.246   6.593   5.987  0.4635  1.3592  0.2538
   27CHL1    C2 3151   2.239   6.496   6.181 -0.3954 -0.3089  0.4093
   27CHL1   H2A 3152   2.292   6.591   6.205 -3.0379  1.2757  0.3388
   27CHL1   H2B 3153   2.274   6.408   6.239 -1.5608 -0.1135  1.4419
   27CHL1   C20 3154   2.331   6.305   5.268 -0.1728  0.1922  0.0356
   27CHL1   H20 3155   2.336   6.195   5.256  1.0075  0.5181 -3.4993
   27CHL1   C21 3156   2.475   6.350   5.307 -0.3891  0.4997 -0.3540
   27CHL1  H21A 3157   2.498   6.302   5.404 -0.8817  2.0334  0.5621
   27CHL1  H21B 3158   2.481   6.461   5.310  1.2097  0.4135  0.8693
   27CHL1  H21C 3159   2.538   6.315   5.222 -1.4805 -0.1355 -0.9168
   27CHL1   C22 3160   2.290   6.345   5.122  0.0522  0.6295 -0.9256
   27CHL1  H22A 3161   2.184   6.321   5.099  0.6758 -2.2867 -1.0161
   27CHL1  H22B 3162   2.303   6.454   5.101 -1.1450  0.6794 -1.5199
   27CHL1   C23 3163   2.372   6.273   5.010  0.3744  0.2820  0.0079
   27CHL1  H23A 3164   2.480   6.295   5.025  0.9690 -1.0454 -1.8467
   27CHL1  H23B 3165   2.354   6.163   5.011 -2.6202  0.4516 -4.6351
   27CHL1   C24 3166   2.340   6.325   4.877  0.2392 -0.3012  0.5360
   27CHL1  H24A 3167   2.231   6.320   4.856  0.1551 -0.7622  1.0545
   27CHL1  H24B 3168   2.371   6.431   4.888 -0.3494 -0.2363  1.7958
   27CHL1   C25 3169   2.407   6.253   4.754 -0.6561  0.1932 -1.1605
   27CHL1   H25 3170   2.397   6.147   4.786  2.0705  0.2710  0.3116
   27CHL1   C26 3171   2.350   6.281   4.616  0.2420 -0.5544  0.1943
   27CHL1  H26A 3172   2.364   6.390   4.596  1.7000 -0.8439 -0.5232
   27CHL1  H26B 3173   2.400   6.216   4.540  2.7682  2.0740 -0.5809
   27CHL1  H26C 3174   2.241   6.258   4.624 -0.3067  1.8900  0.5282
   27CHL1   C27 3175   2.563   6.284   4.755  0.9266  0.2146 -1.2418
   27CHL1  H27A 3176   2.608   6.240   4.846 -0.2386  0.6071 -0.4475
   27CHL1  H27B 3177   2.583   6.393   4.764 -0.4169  0.3227  2.0478
   27CHL1  H27C 3178   2.612   6.241   4.665 -0.9544  0.1228 -2.2730
   28CHL1    C3 3179   1.554   6.986   6.217  0.5689 -0.0626 -0.2218
   28CHL1    H3 3180   1.479   7.062   6.187  0.4289  0.7998  2.0846
   28CHL1    O3 3181   1.603   7.006   6.348  0.2133 -0.8207  0.3868
   28CHL1   H3' 3182   1.658   6.929   6.365  2.9794  1.0012  0.3661
   28CHL1    C4 3183   1.498   6.848   6.208  0.1402  0.6407 -0.2203
   28CHL1   H4A 3184   1.572   6.771   6.240  0.0306  0.0942 -1.2155
   28CHL1   H4B 3185   1.416   6.842   6.283  0.5759 -1.3822  0.1609
   28CHL1    C5 3186   1.440   6.814   6.073  0.0083 -0.4090  0.2913
   28CHL1    C6 3187   1.309   6.774   6.041 -0.7129 -0.5796  0.0034
   28CHL1    H6 3188   1.236   6.773   6.123  2.8514 -0.4070  3.4868
   28CHL1    C7 3189   1.271   6.749   5.901  0.0391  0.2413  0.1561
   28CHL1   H7A 3190   1.215   6.654   5.911  1.9747 -0.8569  1.0557
   28CHL1   H7B 3191   1.200   6.824   5.860  0.0294 -1.1748 -2.6945
   28CHL1    C8 3192   1.391   6.729   5.793  0.6951 -0.4832  0.3596
   28CHL1    H8 3193   1.430   6.625   5.797  0.8145 -0.7064 -3.2725
   28CHL1   C14 3194   1.335   6.750   5.652 -0.6237  0.5345  0.3388
   28CHL1   H14 3195   1.297   6.854   5.655  1.3281  1.2706  1.4471
   28CHL1   C15 3196   1.210   6.668   5.617  0.0726  0.3137  0.6812
   28CHL1  H15A 3197   1.214   6.563   5.653  1.7961 -0.9970 -2.8051
   28CHL1  H15B 3198   1.128   6.712   5.677  1.2407  1.9702  1.1307
   28CHL1   C16 3199   1.208   6.693   5.465 -0.0622 -0.4090 -0.4563
   28CHL1  H16A 3200   1.181   6.607   5.400 -0.6096  2.3056 -4.1541
   28CHL1  H16B 3201   1.122   6.762   5.451 -0.2022 -0.4433  0.1878
   28CHL1   C17 3202   1.338   6.758   5.413 -0.4178 -0.0102 -0.7225
   28CHL1   H17 3203   1.316   6.866   5.401  2.0783  0.5675 -0.8348
   28CHL1   C13 3204   1.437   6.740   5.535  0.4829 -0.5157  0.9318
   28CHL1   C18 3205   1.501   6.598   5.531 -0.1896  0.5912  0.3768
   28CHL1  H18A 3206   1.587   6.590   5.461  0.8369 -2.9229  1.8385
   28CHL1  H18B 3207   1.540   6.574   5.631  1.5207 -0.4178 -0.4908
   28CHL1  H18C 3208   1.427   6.525   5.491  0.3441  0.7134 -0.8774
   28CHL1   C12 3209   1.534   6.856   5.556 -0.7721  0.0879 -0.2998
   28CHL1  H12A 3210   1.612   6.849   5.477  0.4749 -1.2460  0.9807
   28CHL1  H12B 3211   1.484   6.955   5.549 -0.8917 -0.0376 -1.5133
   28CHL1   C11 3212   1.604   6.847   5.704  0.4139 -0.4606  0.9650
   28CHL1  H11A 3213   1.662   6.752   5.708 -0.8193 -1.3153 -0.3368
   28CHL1  H11B 3214   1.661   6.942   5.716 -1.0625  0.5059  0.6026
   28CHL1    C9 3215   1.496   6.838   5.815  0.5253  0.1362 -0.1423
   28CHL1    H9 3216   1.445   6.936   5.797  1.5768  0.2293 -3.2122
   28CHL1   C10 3217   1.544   6.833   5.960  0.3196  0.1502  0.3171
   28CHL1   C19 3218   1.643   6.712   5.976 -0.5265 -0.6495  0.1943
   28CHL1  H19A 3219   1.728   6.743   5.912  0.0267  0.2440  1.3291
   28CHL1  H19B 3220   1.682   6.700   6.080 -0.4766  0.9835  0.3884
   28CHL1  H19C 3221   1.610   6.623   5.918  3.4102 -0.4602 -2.7884
   28CHL1    C1 3222   1.630   6.965   5.986 -0.3094  0.4187  0.3123
   28CHL1   H1A 3223   1.708   6.968   5.907  0.7115  1.5522  1.3258
   28CHL1   H1B 3224   1.562   7.045   5.951 -1.4370 -0.1071  1.2118
   28CHL1    C2 3225   1.675   6.993   6.126 -0.4622 -0.1745 -0.0695
   28CHL1   H2A 3226   1.710   7.097   6.144 -0.0651 -0.2109 -0.6419
   28CHL1   H2B 3227   1.755   6.917   6.142  0.0868  0.2713 -0.6710
   28CHL1   C20 3228   1.391   6.721   5.275  0.4960  0.5546 -0.2181
   28CHL1   H20 3229   1.422   6.614   5.278 -0.9091  0.1327  0.8923
   28CHL1   C21 3230   1.508   6.810   5.239  0.0659  0.2168 -0.0644
   28CHL1  H21A 3231   1.491   6.914   5.275 -0.3149  0.3332 -0.5690
   28CHL1  H21B 3232   1.535   6.812   5.131 -0.3773  2.5198 -0.1909
   28CHL1  H21C 3233   1.598   6.770   5.290 -0.3404  0.9519  1.2795
   28CHL1   C22 3234   1.279   6.727   5.166 -0.1646  0.3396  0.5994
   28CHL1  H22A 3235   1.206   6.645   5.179  0.9530 -0.8312 -0.3571
   28CHL1  H22B 3236   1.230   6.826   5.154  0.9885  0.8065 -0.5137
   28CHL1   C23 3237   1.338   6.696   5.022 -0.2443 -0.0146 -0.0799
   28CHL1  H23A 3238   1.395   6.779   4.975 -1.2140  0.3522 -0.6413
   28CHL1  H23B 3239   1.409   6.611   5.020  1.0729  1.0505 -2.6155
   28CHL1   C24 3240   1.221   6.650   4.930  0.0578  0.2672 -0.2827
   28CHL1  H24A 3241   1.187   6.551   4.966 -1.3352 -0.0168 -2.1714
   28CHL1  H24B 3242   1.134   6.720   4.931 -0.3588 -0.2493 -0.2382
   28CHL1   C25 3243   1.255   6.656   4.778 -0.4146 -0.0220  0.1978
   28CHL1   H25 3244   1.357   6.614   4.764 -0.6546 -0.5023 -0.1453
   28CHL1   C26 3245   1.149   6.583   4.695 -0.0574  0.2171 -0.7055
   28CHL1  H26A 3246   1.055   6.643   4.693 -1.6903 -2.1619  0.3015
   28CHL1  H26B 3247   1.177   6.554   4.591  0.0402 -2.5734  0.0301
   28CHL1  H26C 3248   1.111   6.493   4.748  1.2559  0.1062  0.0915
   28CHL1   C27 3249   1.263   6.802   4.741  0.0597 -0.4053 -0.0540
   28CHL1  H27A 3250   1.344   6.853   4.796  4.1240 -2.0891 -3.8571
   28CHL1  H27B 3251   1.295   6.813   4.635  1.3923  1.1676  0.4828
   28CHL1  H27C 3252   1.167   6.856   4.756 -0.8184 -2.2397  1.5332
   29CHL1    C3 3253   3.508   1.562   5.984 -0.5089 -0.4273 -0.0184
   29CHL1    H3 3254   3.413   1.504   5.974  0.7666 -2.6140 -0.0457
   29CHL1    O3 3255   3.528   1.592   6.118 -0.4793 -0.2371  0.1888
   29CHL1   H3' 3256   3.586   1.668   6.128  0.8464 -1.1281 -0.4856
   29CHL1    C4 3257   3.622   1.475   5.936 -0.4435 -0.0483  0.3898
   29CHL1   H4A 3258   3.727   1.509   5.948  0.2570 -2.3035  1.1188
   29CHL1   H4B 3259   3.617   1.383   5.998 -2.8636  0.4749  1.0915
   29CHL1    C5 3260   3.603   1.444   5.786 -0.3840  0.0344 -0.4394
   29CHL1    C6 3261   3.584   1.324   5.730  0.1099 -0.2020 -0.5167
   29CHL1    H6 3262   3.592   1.236   5.795 -0.4352 -0.6084 -0.9846
   29CHL1    C7 3263   3.559   1.290   5.587  0.6284 -0.0360 -0.1239
   29CHL1   H7A 3264   3.601   1.191   5.561  0.4649 -0.0883 -0.1935
   29CHL1   H7B 3265   3.451   1.271   5.570  0.8648 -0.9026 -0.7098
   29CHL1    C8 3266   3.607   1.402   5.499  0.5544 -0.4541  0.9185
   29CHL1    H8 3267   3.718   1.404   5.501  0.5906  0.3905 -0.4406
   29CHL1   C14 3268   3.556   1.375   5.354 -0.0901 -0.9522 -0.6582
   29CHL1   H14 3269   3.446   1.364   5.362 -0.1577  0.0326 -0.1033
   29CHL1   C15 3270   3.615   1.249   5.296 -0.2611  0.3387  0.4765
   29CHL1  H15A 3271   3.722   1.245   5.323  0.0813 -2.2690 -0.8404
   29CHL1  H15B 3272   3.566   1.153   5.325 -0.2252  0.1707  0.0057
   29CHL1   C16 3273   3.595   1.262   5.148  0.0085  0.0105  0.5117
   29CHL1  H16A 3274   3.694   1.256   5.099 -0.7694 -1.0368 -0.9932
   29CHL1  H16B 3275   3.528   1.183   5.107 -0.0632  0.2317  0.2056
   29CHL1   C17 3276   3.543   1.412   5.127 -0.0277 -0.1680 -0.1318
   29CHL1   H17 3277   3.433   1.404   5.142 -0.2280 -0.9500 -1.8516
   29CHL1   C13 3278   3.593   1.482   5.256 -0.5364 -0.6682  0.3330
   29CHL1   C18 3279   3.750   1.501   5.233  0.0803 -0.4046  0.5889
   29CHL1  H18A 3280   3.799   1.518   5.332  1.0390  0.2070  0.0277
   29CHL1  H18B 3281   3.792   1.414   5.179 -1.4001  1.0295 -3.2116
   29CHL1  H18C 3282   3.772   1.586   5.166 -1.8001 -2.0432 -2.3105
   29CHL1   C12 3283   3.529   1.618   5.304  0.2402  0.3624  0.2803
   29CHL1  H12A 3284   3.550   1.706   5.240 -5.1714  1.6575 -0.2290
   29CHL1  H12B 3285   3.420   1.602   5.289  0.4594 -2.1900  0.8435
   29CHL1   C11 3286   3.570   1.658   5.452  0.1977 -0.4956 -0.8761
   29CHL1  H11A 3287   3.676   1.687   5.437 -0.9222  4.1055 -1.2635
   29CHL1  H11B 3288   3.515   1.750   5.481  0.2516  0.0213 -2.3323
   29CHL1    C9 3289   3.550   1.542   5.550  0.7082  0.4696  0.4807
   29CHL1    H9 3290   3.443   1.513   5.552  1.1589 -1.6434 -1.6347
   29CHL1   C10 3291   3.588   1.568   5.699  0.1839  0.0480  0.1442
   29CHL1   C19 3292   3.725   1.649   5.697  0.2534 -0.3388 -0.0811
   29CHL1  H19A 3293   3.804   1.597   5.638  1.4546  2.6223 -1.2826
   29CHL1  H19B 3294   3.706   1.744   5.642  0.6526  1.3531  2.5215
   29CHL1  H19C 3295   3.765   1.668   5.799  0.6207  0.3772 -0.3508
   29CHL1    C1 3296   3.482   1.662   5.755 -0.7071 -0.6028 -0.6284
   29CHL1   H1A 3297   3.502   1.760   5.707  0.1637 -0.0013  0.8853
   29CHL1   H1B 3298   3.377   1.632   5.732 -0.4849 -0.6361 -1.6394
   29CHL1    C2 3299   3.495   1.694   5.904 -0.1831 -0.2423 -0.0858
   29CHL1   H2A 3300   3.419   1.764   5.946  1.0824  0.2441  1.5037
   29CHL1   H2B 3301   3.593   1.741   5.925 -0.6031  0.3184  0.6773
   29CHL1   C20 3302   3.565   1.469   4.990 -0.2450  0.3825  0.3339
   29CHL1   H20 3303   3.673   1.473   4.964 -0.3010 -1.8939 -0.4575
   29CHL1   C21 3304   3.507   1.606   4.975 -0.1678  0.3985 -0.4201
   29CHL1  H21A 3305   3.558   1.685   5.035 -0.0115 -0.2593  0.3404
   29CHL1  H21B 3306   3.402   1.613   5.011 -0.6398 -1.8588 -1.1916
   29CHL1  H21C 3307   3.517   1.648   4.873  1.7727  1.9516  0.3483
   29CHL1   C22 3308   3.517   1.370   4.874 -0.0289 -0.3323 -0.2574
   29CHL1  H22A 3309   3.581   1.279   4.872 -0.5571 -0.7001 -0.6509
   29CHL1  H22B 3310   3.412   1.342   4.897  0.5656 -1.7602  0.8899
   29CHL1   C23 3311   3.510   1.424   4.731 -0.9649  0.9498 -0.5379
   29CHL1  H23A 3312   3.458   1.349   4.668 -0.8260 -0.5092  1.0024
   29CHL1  H23B 3313   3.441   1.511   4.735 -2.4975 -0.2202 -0.7919
   29CHL1   C24 3314   3.649   1.439   4.659 -0.0634  0.1437  0.7557
   29CHL1  H24A 3315   3.707   1.519   4.710  0.2688  0.6055 -0.3298
   29CHL1  H24B 3316   3.700   1.341   4.655 -0.0293  0.2115 -1.6620
   29CHL1   C25 3317   3.630   1.478   4.499 -0.2597  0.0925 -0.7421
   29CHL1   H25 3318   3.546   1.416   4.460  0.1251 -1.1444  0.3452
   29CHL1   C26 3319   3.591   1.627   4.497  1.0141  0.3986  0.5165
   29CHL1  H26A 3320   3.589   1.675   4.397 -2.7033 -3.3505 -1.5090
   29CHL1  H26B 3321   3.493   1.649   4.546  1.5410 -0.8241  2.2054
   29CHL1  H26C 3322   3.675   1.667   4.557  1.6099 -2.6689  1.9212
   29CHL1   C27 3323   3.761   1.446   4.426  0.1863 -0.0850 -0.4698
   29CHL1  H27A 3324   3.853   1.480   4.477  0.7206 -0.1519 -1.3661
   29CHL1  H27B 3325   3.762   1.336   4.407 -5.0433 -0.9598  2.4565
   29CHL1  H27C 3326   3.753   1.492   4.325  0.2940  1.2589  0.1131
   30CHL1    C3 3327   5.801   0.771   5.985 -0.2028 -0.1251  0.0692
   30CHL1    H3 3328   5.820   0.685   5.918 -0.5167 -0.8436  0.8772
   30CHL1    O3 3329   5.754   0.746   6.117  0.2225 -0.4194 -0.6138
   30CHL1   H3' 3330   5.742   0.832   6.157  0.4586 -1.0222  0.7990
   30CHL1    C4 3331   5.929   0.857   5.996  0.1045 -1.2168  0.6683
   30CHL1   H4A 3332   5.908   0.935   6.073 -3.9876 -1.6074  0.1792
   30CHL1   H4B 3333   6.002   0.785   6.040 -0.0847 -2.1198 -0.4504
   30CHL1    C5 3334   5.980   0.917   5.862  0.0817 -0.4126 -0.3547
   30CHL1    C6 3335   6.106   0.893   5.818  0.0294 -0.0619  0.0071
   30CHL1    H6 3336   6.176   0.842   5.886 -0.0231  0.3011  0.3375
   30CHL1    C7 3337   6.158   0.944   5.692 -0.5117  0.5713  0.0868
   30CHL1   H7A 3338   6.264   0.969   5.715  0.1056 -1.5224 -0.2961
   30CHL1   H7B 3339   6.152   0.856   5.625  0.6899  0.5122  0.0325
   30CHL1    C8 3340   6.083   1.059   5.631  0.1527  0.0355 -0.0886
   30CHL1    H8 3341   6.105   1.157   5.679  1.7458 -0.4048  0.1201
   30CHL1   C14 3342   6.129   1.093   5.483 -0.1404 -0.0710 -0.1895
   30CHL1   H14 3343   6.104   1.000   5.427 -0.1078 -0.5876  0.6338
   30CHL1   C15 3344   6.276   1.104   5.454 -0.2211 -0.1466  0.2891
   30CHL1  H15A 3345   6.328   1.168   5.529 -2.3789  1.9028  0.1547
   30CHL1  H15B 3346   6.340   1.013   5.457  0.2322  0.0847 -1.1727
   30CHL1   C16 3347   6.276   1.183   5.325  0.2255 -0.5778  0.0498
   30CHL1  H16A 3348   6.338   1.275   5.323 -1.5392  0.6673 -0.1181
   30CHL1  H16B 3349   6.322   1.114   5.250 -0.3719 -0.4454 -0.4477
   30CHL1   C17 3350   6.128   1.214   5.278 -0.9123  0.0066  0.0641
   30CHL1   H17 3351   6.108   1.127   5.212  1.4144 -0.0990 -0.6092
   30CHL1   C13 3352   6.051   1.201   5.410 -0.2463 -0.5325  0.4021
   30CHL1   C18 3353   6.072   1.349   5.469  0.2456  0.7987  0.3602
   30CHL1  H18A 3354   6.019   1.427   5.410  0.4527  0.1594 -0.6869
   30CHL1  H18B 3355   6.028   1.356   5.571 -1.6865 -1.4659 -0.2450
   30CHL1  H18C 3356   6.178   1.382   5.477  1.2363 -2.1928  0.8900
   30CHL1   C12 3357   5.908   1.164   5.403 -0.5535  0.3675 -0.4144
   30CHL1  H12A 3358   5.847   1.245   5.357 -0.7289  0.2507 -0.3871
   30CHL1  H12B 3359   5.894   1.072   5.342 -0.6002  0.8667 -1.1711
   30CHL1   C11 3360   5.856   1.142   5.549 -0.0767 -0.8825  0.6727
   30CHL1  H11A 3361   5.864   1.242   5.597 -0.8598 -0.5625  0.1679
   30CHL1  H11B 3362   5.745   1.128   5.553 -0.1459 -0.4937  0.2198
   30CHL1    C9 3363   5.934   1.034   5.631  0.7985  0.0000 -0.6894
   30CHL1    H9 3364   5.923   0.941   5.571 -0.5366  0.1685 -0.7453
   30CHL1   C10 3365   5.884   0.999   5.776  0.1142 -0.0202  0.7167
   30CHL1   C19 3366   5.858   1.142   5.843 -0.1214  0.1359  0.7979
   30CHL1  H19A 3367   5.946   1.208   5.830  1.1914 -2.1433 -5.0019
   30CHL1  H19B 3368   5.777   1.195   5.788 -0.2155 -1.0156 -0.2219
   30CHL1  H19C 3369   5.822   1.133   5.948  0.5358 -4.1032  0.8164
   30CHL1    C1 3370   5.757   0.909   5.777  0.4011  0.0973  0.4446
   30CHL1   H1A 3371   5.665   0.958   5.739 -0.8153 -3.9040 -2.4204
   30CHL1   H1B 3372   5.769   0.814   5.721 -1.5259  0.8984 -1.4643
   30CHL1    C2 3373   5.695   0.860   5.910 -0.1815  0.0435  0.3501
   30CHL1   H2A 3374   5.603   0.805   5.883 -0.0233 -1.0736  1.9574
   30CHL1   H2B 3375   5.663   0.945   5.975 -0.5423  0.4170 -0.3007
   30CHL1   C20 3376   6.109   1.346   5.200 -0.2119  0.8897 -0.8827
   30CHL1   H20 3377   6.122   1.443   5.252 -1.5953  0.1818  0.9470
   30CHL1   C21 3378   5.965   1.349   5.147 -0.3992 -0.3126 -0.5060
   30CHL1  H21A 3379   5.958   1.424   5.065  1.8508 -1.3065 -1.7003
   30CHL1  H21B 3380   5.896   1.381   5.228 -1.0608 -1.2041 -0.6924
   30CHL1  H21C 3381   5.917   1.256   5.108 -1.7220 -0.7886  2.0451
   30CHL1   C22 3382   6.210   1.347   5.082  0.2669 -0.2013  0.3316
   30CHL1  H22A 3383   6.182   1.439   5.026 -1.8004 -0.3007  1.1161
   30CHL1  H22B 3384   6.312   1.352   5.125 -0.2764  0.8133  1.5720
   30CHL1   C23 3385   6.206   1.228   4.977  0.1803 -0.2298 -0.6054
   30CHL1  H23A 3386   6.222   1.129   5.026 -4.2310 -1.7809 -1.7821
   30CHL1  H23B 3387   6.105   1.208   4.934  0.4416  1.6317 -2.2011
   30CHL1   C24 3388   6.308   1.238   4.866  0.1745 -0.0576 -0.2117
   30CHL1  H24A 3389   6.408   1.226   4.914  0.3494  2.3891  0.1376
   30CHL1  H24B 3390   6.292   1.145   4.807 -0.6076 -0.1042  0.0637
   30CHL1   C25 3391   6.322   1.368   4.789  1.1309  0.0190 -0.2610
   30CHL1   H25 3392   6.324   1.450   4.864 -1.7105 -0.2163  0.1780
   30CHL1   C26 3393   6.436   1.362   4.697 -0.1662 -0.2596  0.2311
   30CHL1  H26A 3394   6.532   1.353   4.753  0.3094  0.4416 -0.4440
   30CHL1  H26B 3395   6.429   1.277   4.626 -0.3603  1.3177 -1.7419
   30CHL1  H26C 3396   6.440   1.458   4.640  4.8929 -0.2817  0.1129
   30CHL1   C27 3397   6.194   1.385   4.701  0.1613 -0.5677 -0.5975
   30CHL1  H27A 3398   6.179   1.287   4.653 -0.2679 -0.2936 -1.0306
   30CHL1  H27B 3399   6.098   1.406   4.753  1.5451  0.2952  1.8240
   30CHL1  H27C 3400   6.195   1.471   4.631 -1.7150  0.6874  0.8102
   31CHL1    C3 3401   3.185   6.846   6.342  0.2361  0.1654  0.1758
   31CHL1    H3 3402   3.096   6.784   6.361  0.5231 -1.1044 -2.2307
   31CHL1    O3 3403   3.271   6.844   6.457  0.3737  0.4140 -0.2915
   31CHL1   H3' 3404   3.352   6.883   6.422 -0.3018  1.1260 -1.1144
   31CHL1    C4 3405   3.260   6.796   6.217  0.2546 -0.1155  0.6821
   31CHL1   H4A 3406   3.361   6.839   6.197  0.8280 -1.1184  1.2860
   31CHL1   H4B 3407   3.271   6.687   6.238 -0.4922 -0.4262 -0.4657
   31CHL1    C5 3408   3.174   6.827   6.095 -0.3497  0.6255 -0.0227
   31CHL1    C6 3409   3.139   6.727   6.015  0.4404 -0.0119 -0.2413
   31CHL1    H6 3410   3.161   6.620   6.033 -2.0184 -0.5296 -0.0214
   31CHL1    C7 3411   3.070   6.749   5.875 -0.0180  0.4754  0.0390
   31CHL1   H7A 3412   3.120   6.690   5.795  1.3530 -0.9291  1.8418
   31CHL1   H7B 3413   2.961   6.725   5.878  0.1717 -0.4014  0.0887
   31CHL1    C8 3414   3.071   6.899   5.837  0.5304  0.4291  0.2129
   31CHL1    H8 3415   3.170   6.912   5.788  0.5635 -0.9634 -0.1232
   31CHL1   C14 3416   2.963   6.928   5.731 -0.0353 -0.0310 -0.1828
   31CHL1   H14 3417   2.868   6.924   5.788 -0.3876  0.3193 -0.7391
   31CHL1   C15 3418   2.956   6.838   5.602 -0.8256  0.3122  0.0300
   31CHL1  H15A 3419   3.057   6.797   5.582 -0.5932 -0.2598  2.1536
   31CHL1  H15B 3420   2.891   6.748   5.604  0.9102 -1.1589 -2.7392
   31CHL1   C16 3421   2.914   6.926   5.485  0.9897 -0.5806  0.4652
   31CHL1  H16A 3422   3.003   6.944   5.421  1.1007  0.1742  0.8244
   31CHL1  H16B 3423   2.834   6.878   5.425  2.6708 -1.5661 -1.0861
   31CHL1   C17 3424   2.884   7.065   5.549  0.0170  0.3848 -0.5771
   31CHL1   H17 3425   2.782   7.058   5.592 -0.5131  1.0996 -1.6634
   31CHL1   C13 3426   2.975   7.069   5.678 -0.4521 -0.2371 -0.0872
   31CHL1   C18 3427   3.113   7.106   5.633  0.5905  0.4626 -0.3381
   31CHL1  H18A 3428   3.183   7.102   5.719 -1.0020 -0.8024  0.9474
   31CHL1  H18B 3429   3.150   7.034   5.557 -3.0486 -0.1446 -1.6866
   31CHL1  H18C 3430   3.110   7.205   5.583  0.0070 -0.5347 -2.4082
   31CHL1   C12 3431   2.921   7.166   5.785  0.9858  0.3546  0.3751
   31CHL1  H12A 3432   2.916   7.272   5.751 -0.2072  0.1618 -0.0795
   31CHL1  H12B 3433   2.817   7.134   5.807  0.9443  0.3242  0.1367
   31CHL1   C11 3434   3.013   7.144   5.908  0.4113  0.2154 -0.1163
   31CHL1  H11A 3435   3.106   7.203   5.895  0.8082  0.0621  1.7773
   31CHL1  H11B 3436   2.974   7.186   6.003 -0.0809  0.1754 -0.2976
   31CHL1    C9 3437   3.036   6.993   5.951 -0.1677 -0.1954 -0.1278
   31CHL1    H9 3438   2.939   6.951   5.983 -1.2314 -1.6501 -4.5374
   31CHL1   C10 3439   3.131   6.969   6.073 -0.0230 -0.5608 -0.4308
   31CHL1   C19 3440   3.264   7.042   6.043  0.0668  0.4294 -0.4707
   31CHL1  H19A 3441   3.313   6.988   5.959  0.3990  0.4396 -0.2836
   31CHL1  H19B 3442   3.256   7.143   5.997  0.4620  0.4689 -0.4511
   31CHL1  H19C 3443   3.335   7.049   6.128 -0.4972 -1.9926  0.2873
   31CHL1    C1 3444   3.063   7.016   6.203 -0.4203 -0.6093  0.0582
   31CHL1   H1A 3445   3.036   7.123   6.199 -0.8040 -0.6869  0.4931
   31CHL1   H1B 3446   2.974   6.951   6.216  0.4725 -1.4420  2.6462
   31CHL1    C2 3447   3.141   6.993   6.330 -0.3161 -0.1824  0.5880
   31CHL1   H2A 3448   3.075   7.019   6.416 -2.6924 -0.6559 -0.9661
   31CHL1   H2B 3449   3.230   7.059   6.334 -0.5480  0.4618 -2.3641
   31CHL1   C20 3450   2.874   7.190   5.464  0.1939  0.5979  0.0799
   31CHL1   H20 3451   2.917   7.279   5.516  0.6013  1.8982 -2.3408
   31CHL1   C21 3452   2.733   7.223   5.437  0.2429  0.0510  0.4748
   31CHL1  H21A 3453   2.678   7.240   5.531 -2.3772 -0.7896 -0.8039
   31CHL1  H21B 3454   2.686   7.132   5.393 -1.2993  1.0939 -0.0902
   31CHL1  H21C 3455   2.719   7.310   5.369  0.3396 -1.6317 -1.8432
   31CHL1   C22 3456   2.967   7.193   5.336  0.7167 -0.7169 -0.5295
   31CHL1  H22A 3457   2.987   7.302   5.323 -0.0650 -0.6890 -1.6908
   31CHL1  H22B 3458   3.062   7.140   5.356  1.2238  0.9021  1.6643
   31CHL1   C23 3459   2.899   7.145   5.209  0.3452  0.3350  0.4005
   31CHL1  H23A 3460   2.850   7.045   5.215 -1.7425  1.2162 -0.5749
   31CHL1  H23B 3461   2.811   7.208   5.185  0.6777  0.5140 -0.3682
   31CHL1   C24 3462   2.986   7.148   5.081  0.3600  0.2367 -0.6189
   31CHL1  H24A 3463   3.017   7.249   5.045  1.0732  0.0797 -0.4496
   31CHL1  H24B 3464   3.077   7.089   5.101  0.6229  0.8661  0.1076
   31CHL1   C25 3465   2.917   7.080   4.961  0.0312  0.4612 -0.2113
   31CHL1   H25 3466   2.878   6.984   5.003 -1.5782  0.4376 -1.6722
   31CHL1   C26 3467   2.807   7.166   4.902  0.1289 -0.5127  0.3434
   31CHL1  H26A 3468   2.739   7.194   4.985  2.5029  1.6571  1.7013
   31CHL1  H26B 3469   2.852   7.255   4.852  0.5082 -1.8130 -1.7558
   31CHL1  H26C 3470   2.744   7.114   4.827  0.8047 -0.7827 -0.0514
   31CHL1   C27 3471   3.010   7.043   4.843  0.9515  0.4272 -0.2901
   31CHL1  H27A 3472   3.058   7.136   4.809 -0.2468  1.5893  1.0516
   31CHL1  H27B 3473   3.083   6.971   4.886 -1.7513 -1.3659  1.6371
   31CHL1  H27C 3474   2.949   6.996   4.762 -0.0808  0.2679  0.5537
   32CHL1    C3 3475   5.638   2.404   6.206 -0.3815 -0.6053 -0.2509
   32CHL1    H3 3476   5.537   2.362   6.225  0.3605 -1.1602  3.2490
   32CHL1    O3 3477   5.698   2.401   6.331 -0.3807  0.3938 -0.5233
   32CHL1   H3' 3478   5.737   2.489   6.337  0.5477 -0.0622  0.4545
   32CHL1    C4 3479   5.710   2.308   6.118 -0.1099 -0.4563 -0.3167
   32CHL1   H4A 3480   5.818   2.333   6.104 -0.8072  1.8419 -2.1322
   32CHL1   H4B 3481   5.709   2.209   6.170  3.0682 -0.6955 -0.4794
   32CHL1    C5 3482   5.663   2.312   5.972  0.1299  0.0018  0.4570
   32CHL1    C6 3483   5.632   2.203   5.902  0.0614  0.1219 -0.0578
   32CHL1    H6 3484   5.638   2.103   5.947  2.7858 -0.1023 -0.7723
   32CHL1    C7 3485   5.601   2.199   5.756  0.1358  0.4312  0.6896
   32CHL1   H7A 3486   5.641   2.114   5.698 -1.4606  1.6006 -2.3289
   32CHL1   H7B 3487   5.492   2.177   5.743 -0.2536  2.2716  0.6115
   32CHL1    C8 3488   5.629   2.331   5.684 -0.4130 -0.0516 -0.1277
   32CHL1    H8 3489   5.738   2.340   5.664 -0.7115  0.1952 -1.7896
   32CHL1   C14 3490   5.551   2.336   5.553  0.4382 -0.5019  0.0010
   32CHL1   H14 3491   5.444   2.353   5.577  0.4059  3.5490 -2.2065
   32CHL1   C15 3492   5.548   2.213   5.460  0.5302  0.4664  0.3764
   32CHL1  H15A 3493   5.649   2.169   5.446  0.6369  0.7003  0.4041
   32CHL1  H15B 3494   5.476   2.141   5.504  0.3099 -0.9171 -2.0769
   32CHL1   C16 3495   5.512   2.278   5.324  0.3279 -0.8153  0.0618
   32CHL1  H16A 3496   5.597   2.268   5.253 -0.2336  1.9090 -1.1401
   32CHL1  H16B 3497   5.425   2.219   5.291 -1.2550  0.7019  1.3588
   32CHL1   C17 3498   5.498   2.435   5.341 -0.3067 -0.1044 -0.1075
   32CHL1   H17 3499   5.393   2.462   5.363  0.1316  1.2416  0.4550
   32CHL1   C13 3500   5.588   2.460   5.467  0.3128  0.4561 -0.8711
   32CHL1   C18 3501   5.733   2.467   5.441 -0.0977  1.0406  0.6512
   32CHL1  H18A 3502   5.778   2.371   5.409  0.1311  0.9962  1.1036
   32CHL1  H18B 3503   5.754   2.549   5.369  0.6080  1.1710  0.9928
   32CHL1  H18C 3504   5.795   2.496   5.529  1.0559  1.4578 -0.2630
   32CHL1   C12 3505   5.533   2.588   5.537 -0.4947 -0.0077  0.0956
   32CHL1  H12A 3506   5.578   2.679   5.494  0.4529 -0.4384  0.1393
   32CHL1  H12B 3507   5.424   2.581   5.517 -0.4328  1.0693 -0.6373
   32CHL1   C11 3508   5.563   2.587   5.691 -0.3623  0.0940 -0.4193
   32CHL1  H11A 3509   5.668   2.625   5.685  1.3343 -4.0381 -0.8193
   32CHL1  H11B 3510   5.491   2.655   5.741  1.1607  1.3628  0.1370
   32CHL1    C9 3511   5.583   2.451   5.769  0.1738 -0.2062 -0.2212
   32CHL1    H9 3512   5.479   2.431   5.801  0.5988  0.7949  1.9973
   32CHL1   C10 3513   5.662   2.456   5.904  0.1701 -0.1783 -0.2037
   32CHL1   C19 3514   5.803   2.514   5.899 -0.8608 -0.0209  0.0332
   32CHL1  H19A 3515   5.807   2.622   5.875  0.2547  0.8960  3.7475
   32CHL1  H19B 3516   5.868   2.500   5.988 -1.0765  0.2503  0.2352
   32CHL1  H19C 3517   5.871   2.467   5.824 -1.8602 -1.7275  0.1348
   32CHL1    C1 3518   5.576   2.548   6.001  0.0655 -0.2266 -0.8268
   32CHL1   H1A 3519   5.558   2.654   5.976 -0.6811  0.0347  0.7039
   32CHL1   H1B 3520   5.481   2.493   6.014  0.9880 -1.9524 -1.0022
   32CHL1    C2 3521   5.634   2.549   6.145 -0.3829  0.0014 -0.2717
   32CHL1   H2A 3522   5.570   2.617   6.206 -0.9576  1.3400 -2.2820
   32CHL1   H2B 3523   5.741   2.578   6.140  0.9891 -4.3965 -0.6278
   32CHL1   C20 3524   5.543   2.510   5.215 -0.4175  0.1143  0.7583
   32CHL1   H20 3525   5.652   2.495   5.198 -0.4823  0.7390 -0.3207
   32CHL1   C21 3526   5.530   2.667   5.226 -0.0347  0.6721 -0.9562
   32CHL1  H21A 3527   5.541   2.725   5.132 -2.7774  1.2334 -1.0155
   32CHL1  H21B 3528   5.608   2.695   5.299  0.5235 -2.0271 -0.4023
   32CHL1  H21C 3529   5.428   2.694   5.261  0.5182  0.8499  0.5733
   32CHL1   C22 3530   5.454   2.456   5.101 -0.1770  0.3835  0.6410
   32CHL1  H22A 3531   5.467   2.348   5.079 -0.5768  0.2837  0.8762
   32CHL1  H22B 3532   5.355   2.465   5.151  0.2583 -0.2234  1.6389
   32CHL1   C23 3533   5.449   2.528   4.964  0.7188  0.3890 -1.2273
   32CHL1  H23A 3534   5.376   2.470   4.903 -0.7958  0.1325  0.7409
   32CHL1  H23B 3535   5.404   2.630   4.970 -2.9600 -1.1252 -0.1487
   32CHL1   C24 3536   5.585   2.532   4.899 -0.4933  0.1921 -0.4650
   32CHL1  H24A 3537   5.654   2.594   4.960 -0.1318  1.0454 -1.6996
   32CHL1  H24B 3538   5.640   2.437   4.886  1.0745  0.7950  1.3389
   32CHL1   C25 3539   5.586   2.598   4.755 -0.2538 -0.1157  0.2610
   32CHL1   H25 3540   5.549   2.702   4.765  2.4075  0.8990  0.1519
   32CHL1   C26 3541   5.727   2.611   4.706 -0.2608  0.6019  0.0665
   32CHL1  H26A 3542   5.801   2.635   4.786  0.3005  0.1282 -0.2977
   32CHL1  H26B 3543   5.755   2.506   4.683 -1.9619 -0.3244  1.9041
   32CHL1  H26C 3544   5.733   2.674   4.615  1.3951  2.2284  1.2342
   32CHL1   C27 3545   5.496   2.522   4.654  0.2772 -0.1095  0.6142
   32CHL1  H27A 3546   5.526   2.416   4.646 -2.0638 -0.7763 -0.1193
   32CHL1  H27B 3547   5.394   2.530   4.698  0.3582  1.4098  0.6008
   32CHL1  H27C 3548   5.505   2.572   4.555 -1.2906 -1.8125 -0.4578
   33CHL1    C3 3549   2.555   0.301   6.161  0.0997  0.0217  0.1572
   33CHL1    H3 3550   2.626   0.364   6.104 -1.1225 -0.5891 -2.1551
   33CHL1    O3 3551   2.577   0.316   6.303  0.0078  0.2901 -0.7753
   33CHL1   H3' 3552   2.490   0.305   6.342 -0.3635 -1.9906 -2.0442
   33CHL1    C4 3553   2.421   0.359   6.124  0.3048  0.0359 -0.3947
   33CHL1   H4A 3554   2.337   0.306   6.174  0.3112 -0.2165 -0.6527
   33CHL1   H4B 3555   2.414   0.459   6.173 -1.1834 -0.8768  1.4127
   33CHL1    C5 3556   2.397   0.346   5.979  0.8259 -0.0343 -0.1347
   33CHL1    C6 3557   2.378   0.460   5.906 -0.1220  0.1504  0.3788
   33CHL1    H6 3558   2.394   0.559   5.951 -0.1641  0.3915 -0.1243
   33CHL1    C7 3559   2.347   0.453   5.758  0.6965 -0.2020 -0.0543
   33CHL1   H7A 3560   2.253   0.510   5.740  0.8105 -0.2789 -0.9029
   33CHL1   H7B 3561   2.431   0.490   5.696 -0.8991  2.6175 -0.7242
   33CHL1    C8 3562   2.304   0.307   5.713 -0.0934 -0.3650 -0.3476
   33CHL1    H8 3563   2.202   0.283   5.749  0.7643 -1.1879  1.6609
   33CHL1   C14 3564   2.294   0.310   5.566  0.5895 -0.4336 -0.0637
   33CHL1   H14 3565   2.399   0.332   5.537 -0.3358  2.5869 -1.5747
   33CHL1   C15 3566   2.221   0.422   5.503  0.2559  0.3607  0.7180
   33CHL1  H15A 3567   2.121   0.418   5.549 -0.5399  0.3452 -0.9264
   33CHL1  H15B 3568   2.267   0.523   5.505  0.5929  0.2730 -0.8736
   33CHL1   C16 3569   2.197   0.367   5.363 -0.1669 -0.2551 -0.1185
   33CHL1  H16A 3570   2.090   0.364   5.336 -0.2737  0.4631  0.1772
   33CHL1  H16B 3571   2.248   0.431   5.288 -0.8210  0.5450  0.1016
   33CHL1   C17 3572   2.269   0.224   5.356  0.1382  0.1511  0.2788
   33CHL1   H17 3573   2.373   0.239   5.318 -0.3955 -1.2232 -1.9211
   33CHL1   C13 3574   2.265   0.173   5.500 -0.5014  0.3446  0.5482
   33CHL1   C18 3575   2.120   0.129   5.535  0.5165  0.4812 -0.1500
   33CHL1  H18A 3576   2.092   0.167   5.635  1.5564  3.6316 -0.9445
   33CHL1  H18B 3577   2.045   0.149   5.456  0.5327  0.0749 -0.2737
   33CHL1  H18C 3578   2.120   0.018   5.544 -0.8131  0.4258 -0.5682
   33CHL1   C12 3579   2.376   0.078   5.535  0.4780 -0.3429  0.0692
   33CHL1  H12A 3580   2.346  -0.021   5.493  0.0269  0.8736 -2.6905
   33CHL1  H12B 3581   2.471   0.102   5.482 -0.5582  2.6041 -0.6329
   33CHL1   C11 3582   2.390   0.060   5.694 -0.2513  0.1845  0.4872
   33CHL1  H11A 3583   2.296   0.008   5.723 -1.4697  2.6292  1.1289
   33CHL1  H11B 3584   2.472  -0.006   5.730 -0.0840 -0.0610 -0.3076
   33CHL1    C9 3585   2.397   0.196   5.768  0.0468 -0.9449  0.5571
   33CHL1    H9 3586   2.493   0.244   5.738  1.1972 -1.2753  3.4014
   33CHL1   C10 3587   2.398   0.201   5.919  0.2675 -0.4311 -0.1290
   33CHL1   C19 3588   2.281   0.122   5.967  0.3534  0.5550 -0.1210
   33CHL1  H19A 3589   2.283   0.014   5.939  1.6431  0.4505  0.2738
   33CHL1  H19B 3590   2.284   0.134   6.078  0.5872 -0.3010 -0.0282
   33CHL1  H19C 3591   2.184   0.160   5.929  0.6741  0.7153 -0.7852
   33CHL1    C1 3592   2.527   0.129   5.977 -0.1705  0.0698 -0.0706
   33CHL1   H1A 3593   2.518   0.021   5.952 -1.4164  0.4622 -1.4842
   33CHL1   H1B 3594   2.612   0.170   5.919 -0.6082  0.1673 -0.6529
   33CHL1    C2 3595   2.559   0.154   6.125 -0.6080 -0.1419  0.0753
   33CHL1   H2A 3596   2.668   0.138   6.141 -0.5460  0.5841  0.4101
   33CHL1   H2B 3597   2.501   0.098   6.201 -0.1613 -2.5350 -1.2458
   33CHL1   C20 3598   2.201   0.142   5.247  0.0805 -0.1697 -0.1216
   33CHL1   H20 3599   2.098   0.117   5.280 -0.2189  1.7941  0.5580
   33CHL1   C21 3600   2.280   0.014   5.219 -0.1794 -0.0914 -0.6705
   33CHL1  H21A 3601   2.279  -0.043   5.314 -3.9285 -0.6467 -0.8832
   33CHL1  H21B 3602   2.386   0.032   5.193  0.2915 -0.9017  0.5681
   33CHL1  H21C 3603   2.229  -0.051   5.145  0.1118 -1.5668  0.3815
   33CHL1   C22 3604   2.185   0.222   5.114 -0.4235 -0.2629 -0.3961
   33CHL1  H22A 3605   2.105   0.299   5.122 -0.8607 -0.2879 -3.2429
   33CHL1  H22B 3606   2.279   0.273   5.084 -1.1547  0.3304 -1.7724
   33CHL1   C23 3607   2.154   0.127   4.995 -0.4673  0.5497 -0.2347
   33CHL1  H23A 3608   2.251   0.085   4.961  0.3855  1.4028  1.0029
   33CHL1  H23B 3609   2.085   0.045   5.021  1.1061 -1.0528 -0.9171
   33CHL1   C24 3610   2.106   0.209   4.874  0.3122 -0.2174  0.6142
   33CHL1  H24A 3611   2.025   0.277   4.908 -0.3821 -1.3083  1.1977
   33CHL1  H24B 3612   2.183   0.274   4.826  0.2651 -0.9685 -0.5158
   33CHL1   C25 3613   2.041   0.124   4.762  0.1936 -0.3542 -0.4465
   33CHL1   H25 3614   1.961   0.068   4.817 -0.3521  1.6244  0.8739
   33CHL1   C26 3615   1.982   0.219   4.649 -0.6541  0.7637 -0.2210
   33CHL1  H26A 3616   1.887   0.267   4.681  0.2245  2.5192 -0.1055
   33CHL1  H26B 3617   2.055   0.296   4.617  1.7236 -1.0753  0.4281
   33CHL1  H26C 3618   1.962   0.163   4.555 -0.3049  0.5999 -0.1998
   33CHL1   C27 3619   2.135   0.017   4.706 -0.1864  0.5638  0.0364
   33CHL1  H27A 3620   2.207   0.069   4.639  0.1413  1.3617  0.9919
   33CHL1  H27B 3621   2.198  -0.037   4.780 -1.3190  2.0403  2.1587
   33CHL1  H27C 3622   2.079  -0.060   4.649 -2.9113  1.9161  0.7385
   34CHL1    C3 3623   3.635   6.913   5.982 -0.0773  0.3395 -0.0406
   34CHL1    H3 3624   3.569   7.002   5.978 -0.2186  0.3200  1.4836
   34CHL1    O3 3625   3.679   6.885   6.115  0.7701  0.3006  0.1055
   34CHL1   H3' 3626   3.727   6.802   6.114 -0.0429 -0.2016  0.6822
   34CHL1    C4 3627   3.581   6.786   5.917  0.0642  0.4461 -0.7675
   34CHL1   H4A 3628   3.661   6.710   5.931  0.4048  0.9173 -0.0813
   34CHL1   H4B 3629   3.491   6.749   5.970  0.4884  0.0600 -0.3165
   34CHL1    C5 3630   3.549   6.813   5.769 -0.5544 -0.5956  0.3477
   34CHL1    C6 3631   3.426   6.806   5.722  0.8578  0.2483 -0.0174
   34CHL1    H6 3632   3.349   6.773   5.794  1.4381  2.3167  1.6327
   34CHL1    C7 3633   3.388   6.832   5.585  0.2637 -0.1714  0.1878
   34CHL1   H7A 3634   3.323   6.745   5.561  2.1542 -1.8980  1.0061
   34CHL1   H7B 3635   3.325   6.922   5.565 -0.1357 -0.1136  1.5861
   34CHL1    C8 3636   3.510   6.836   5.480  0.7682 -0.2490  0.2019
   34CHL1    H8 3637   3.544   6.731   5.477 -0.0597 -0.5799  1.5536
   34CHL1   C14 3638   3.466   6.891   5.345  0.0324  0.5482 -0.5809
   34CHL1   H14 3639   3.445   6.996   5.374 -2.1672 -0.0698  0.2754
   34CHL1   C15 3640   3.338   6.839   5.278 -0.8267  0.2184 -0.2901
   34CHL1  H15A 3641   3.337   6.728   5.292 -0.0919  0.1900 -0.3882
   34CHL1  H15B 3642   3.247   6.889   5.315 -0.6081  1.2999 -1.1631
   34CHL1   C16 3643   3.350   6.875   5.128 -0.5691 -0.0411  0.3051
   34CHL1  H16A 3644   3.350   6.785   5.062 -1.1357  0.7915 -0.8636
   34CHL1  H16B 3645   3.262   6.937   5.102 -1.2193 -0.9620  0.2558
   34CHL1   C17 3646   3.486   6.951   5.120  0.0532  0.3913 -0.1474
   34CHL1   H17 3647   3.474   7.058   5.146 -1.5340 -0.3469  2.5772
   34CHL1   C13 3648   3.573   6.885   5.236  0.3895 -0.2091 -0.0497
   34CHL1   C18 3649   3.603   6.736   5.206  0.3903  0.0406  0.6890
   34CHL1  H18A 3650   3.520   6.673   5.167 -0.2423  1.2903 -0.0662
   34CHL1  H18B 3651   3.680   6.719   5.128 -0.4844  0.3760 -0.2643
   34CHL1  H18C 3652   3.631   6.688   5.302 -0.6653  0.4111  1.1923
   34CHL1   C12 3653   3.685   6.969   5.293 -0.1187  0.1957 -0.7898
   34CHL1  H12A 3654   3.768   6.976   5.219 -0.3101  2.2212 -0.8640
   34CHL1  H12B 3655   3.643   7.071   5.305  1.1979  0.9370 -2.0191
   34CHL1   C11 3656   3.744   6.917   5.433 -0.4436 -0.6233  1.0440
   34CHL1  H11A 3657   3.784   6.816   5.411 -0.3306 -0.4436  0.4024
   34CHL1  H11B 3658   3.826   6.990   5.449  0.3900 -1.5582  1.1014
   34CHL1    C9 3659   3.628   6.907   5.536 -0.0612 -0.5766  0.0142
   34CHL1    H9 3660   3.599   7.011   5.562  0.4179 -0.5724  0.5674
   34CHL1   C10 3661   3.668   6.855   5.679 -0.1765  0.0788  0.1144
   34CHL1   C19 3662   3.785   6.746   5.670  0.1643  0.8036  0.0745
   34CHL1  H19A 3663   3.866   6.787   5.606 -0.0978  0.0004 -0.8023
   34CHL1  H19B 3664   3.825   6.725   5.771  0.5975  0.7360 -0.1065
   34CHL1  H19C 3665   3.742   6.652   5.627  0.5543  0.0202  1.3433
   34CHL1    C1 3666   3.727   6.977   5.747 -0.1705 -0.0037 -0.3197
   34CHL1   H1A 3667   3.822   7.007   5.698  0.5561  0.2146  1.1379
   34CHL1   H1B 3668   3.659   7.065   5.748  1.1270  1.0482 -1.0108
   34CHL1    C2 3669   3.764   6.957   5.904  0.2316 -0.0057  0.2779
   34CHL1   H2A 3670   3.804   7.052   5.945 -0.2173  0.2991  0.0274
   34CHL1   H2B 3671   3.842   6.878   5.915  1.4529  1.0618 -0.3488
   34CHL1   C20 3672   3.548   6.953   4.977  0.1888  0.5740  0.4767
   34CHL1   H20 3673   3.566   6.847   4.949 -2.3032  0.3698 -0.6706
   34CHL1   C21 3674   3.681   7.021   4.984  0.1967  0.1915 -0.2808
   34CHL1  H21A 3675   3.760   6.956   5.027  1.3931  2.1188  0.5440
   34CHL1  H21B 3676   3.684   7.110   5.050  1.5188  0.3275 -0.5003
   34CHL1  H21C 3677   3.723   7.041   4.883  1.0487  0.5138  0.1325
   34CHL1   C22 3678   3.453   7.009   4.865  0.3259  0.3562  0.1549
   34CHL1  H22A 3679   3.350   7.000   4.906  0.0897  2.5784  0.1354
   34CHL1  H22B 3680   3.471   7.115   4.841 -1.3338  0.4424 -0.8653
   34CHL1   C23 3681   3.456   6.936   4.729  0.5368 -0.1571 -1.3437
   34CHL1  H23A 3682   3.558   6.901   4.702  1.1373 -0.8990  1.4935
   34CHL1  H23B 3683   3.402   6.839   4.741  1.4638 -0.5461 -0.0886
   34CHL1   C24 3684   3.376   7.013   4.629 -0.0807 -0.4242  0.0125
   34CHL1  H24A 3685   3.296   7.071   4.678  1.5480  0.1825  2.1090
   34CHL1  H24B 3686   3.446   7.085   4.582 -1.1375  0.3684 -0.3757
   34CHL1   C25 3687   3.320   6.929   4.517  0.4294 -0.3057 -0.1669
   34CHL1   H25 3688   3.363   6.826   4.514 -0.2585 -0.5891 -1.2360
   34CHL1   C26 3689   3.166   6.913   4.527  0.2009 -0.4760 -0.2056
   34CHL1  H26A 3690   3.157   6.858   4.624 -0.9474  1.4757  0.8548
   34CHL1  H26B 3691   3.126   7.016   4.536  0.2030 -0.0697 -3.6805
   34CHL1  H26C 3692   3.108   6.855   4.452 -0.6950  1.3108 -0.9623
   34CHL1   C27 3693   3.346   7.007   4.392  0.2112  0.3372  0.8631
   34CHL1  H27A 3694   3.452   7.037   4.379  0.0734  0.5035 -0.0022
   34CHL1  H27B 3695   3.305   6.939   4.314  1.1312  0.2051  0.4821
   34CHL1  H27C 3696   3.276   7.093   4.388  0.2102  0.5769  3.8315
   35CHL1    C3 3697   6.883   5.658   5.538  0.6906 -0.1993  0.8921
   35CHL1    H3 3698   6.807   5.733   5.570  1.0395 -0.5205  2.5559
   35CHL1    O3 3699   6.948   5.620   5.654 -0.4207  0.5084 -0.1106
   35CHL1   H3' 3700   6.982   5.697   5.699 -0.6945  0.0768  0.8451
   35CHL1    C4 3701   6.821   5.524   5.487 -0.2190  0.7406 -0.1816
   35CHL1   H4A 3702   6.892   5.442   5.509 -0.7173  0.6234  1.1120
   35CHL1   H4B 3703   6.744   5.501   5.564 -1.2638  2.2208 -0.7496
   35CHL1    C5 3704   6.772   5.518   5.345 -0.7634  0.5061  0.2078
   35CHL1    C6 3705   6.659   5.456   5.309  0.2744 -0.3086 -0.1252
   35CHL1    H6 3706   6.602   5.417   5.393  1.7175  1.6561  1.8979
   35CHL1    C7 3707   6.615   5.431   5.169 -1.3020  0.0827  0.6949
   35CHL1   H7A 3708   6.580   5.326   5.159  2.8244 -1.4462  0.4430
   35CHL1   H7B 3709   6.525   5.492   5.145 -2.1890 -1.8104 -1.1317
   35CHL1    C8 3710   6.722   5.474   5.069  0.5098  0.4000 -0.2235
   35CHL1    H8 3711   6.790   5.389   5.047  0.1329 -0.1926  0.8530
   35CHL1   C14 3712   6.656   5.497   4.939 -0.5317 -0.3515  0.5972
   35CHL1   H14 3713   6.595   5.587   4.960  1.7769  0.8873  2.4486
   35CHL1   C15 3714   6.564   5.383   4.893 -0.0211 -0.1835 -0.8481
   35CHL1  H15A 3715   6.607   5.284   4.920 -0.8120 -0.4298 -0.4536
   35CHL1  H15B 3716   6.466   5.396   4.944  0.3921  0.8426 -0.2902
   35CHL1   C16 3717   6.554   5.403   4.742 -0.3481  0.3602  0.0397
   35CHL1  H16A 3718   6.591   5.308   4.698 -0.9607 -0.0795  0.4602
   35CHL1  H16B 3719   6.449   5.430   4.715 -0.8340 -0.8936  0.5849
   35CHL1   C17 3720   6.639   5.525   4.703 -0.0076  0.1119  0.6890
   35CHL1   H17 3721   6.567   5.609   4.715  0.3879  0.5355  0.1625
   35CHL1   C13 3722   6.742   5.539   4.816 -0.2235  0.4964  0.4087
   35CHL1   C18 3723   6.846   5.423   4.784 -0.2867  0.3346 -0.8948
   35CHL1  H18A 3724   6.914   5.459   4.703 -2.6851  2.1540 -2.2303
   35CHL1  H18B 3725   6.913   5.407   4.872  0.0036  0.4612 -1.0904
   35CHL1  H18C 3726   6.794   5.335   4.741 -1.7940  0.2278  1.0192
   35CHL1   C12 3727   6.804   5.671   4.855  0.5112 -0.7826  0.3321
   35CHL1  H12A 3728   6.882   5.699   4.781 -2.4788  0.7668 -2.5194
   35CHL1  H12B 3729   6.735   5.758   4.862  0.7495 -0.6345  0.8438
   35CHL1   C11 3730   6.888   5.656   4.988  0.1137 -0.2392  0.1232
   35CHL1  H11A 3731   6.970   5.590   4.954 -0.8323 -1.0255 -0.7070
   35CHL1  H11B 3732   6.935   5.754   5.013 -0.7527 -0.4285  2.7939
   35CHL1    C9 3733   6.807   5.598   5.105 -0.0709 -0.3583  0.5767
   35CHL1    H9 3734   6.747   5.690   5.117  1.2103  0.7279 -0.8478
   35CHL1   C10 3735   6.874   5.590   5.241 -0.1136 -0.3810  0.3488
   35CHL1   C19 3736   6.988   5.497   5.221 -0.8907  0.2587 -0.3014
   35CHL1  H19A 3737   7.064   5.546   5.156 -1.5654 -0.8687 -2.0185
   35CHL1  H19B 3738   7.046   5.481   5.314 -1.4647 -0.9734 -0.1334
   35CHL1  H19C 3739   6.975   5.396   5.176  1.0765 -0.0392 -0.2833
   35CHL1    C1 3740   6.908   5.729   5.298  0.0157  0.1872  0.4335
   35CHL1   H1A 3741   6.979   5.769   5.223  0.2187 -1.7527 -0.4662
   35CHL1   H1B 3742   6.819   5.796   5.298 -0.1704 -0.0561  0.4597
   35CHL1    C2 3743   6.977   5.727   5.441  0.3218 -0.1858  1.6118
   35CHL1   H2A 3744   7.007   5.829   5.472  3.5480 -0.6468  0.3922
   35CHL1   H2B 3745   7.073   5.672   5.429  0.7790  1.1352 -2.0430
   35CHL1   C20 3746   6.675   5.524   4.558 -0.4030 -0.5961 -0.6950
   35CHL1   H20 3747   6.758   5.452   4.543  0.1808  0.1184 -0.9824
   35CHL1   C21 3748   6.701   5.664   4.513  0.3245 -0.1816 -0.3440
   35CHL1  H21A 3749   6.619   5.730   4.548  1.8336  0.8393  1.4685
   35CHL1  H21B 3750   6.719   5.673   4.404 -1.3238  0.9998 -0.5411
   35CHL1  H21C 3751   6.788   5.717   4.558 -0.1320  0.9970 -0.8074
   35CHL1   C22 3752   6.563   5.472   4.462  0.9341  0.5559  0.2224
   35CHL1  H22A 3753   6.536   5.366   4.483  3.6283 -0.8179 -2.5690
   35CHL1  H22B 3754   6.472   5.535   4.474 -0.1892 -0.9000 -0.3181
   35CHL1   C23 3755   6.596   5.462   4.314 -0.6999  0.2920 -0.3387
   35CHL1  H23A 3756   6.630   5.557   4.266 -0.4979  0.0109 -0.7612
   35CHL1  H23B 3757   6.686   5.397   4.312 -1.4916 -0.8357 -1.5371
   35CHL1   C24 3758   6.491   5.380   4.229  0.1650 -0.0690 -0.0213
   35CHL1  H24A 3759   6.431   5.321   4.302  0.6837  1.3668  1.6380
   35CHL1  H24B 3760   6.417   5.447   4.180  0.8771  0.7740  0.0326
   35CHL1   C25 3761   6.563   5.297   4.116 -0.2014  0.1283  0.1438
   35CHL1   H25 3762   6.631   5.222   4.161  1.0084  1.3872  0.5105
   35CHL1   C26 3763   6.464   5.226   4.020 -0.3467  0.3733 -0.3840
   35CHL1  H26A 3764   6.398   5.167   4.087 -1.9461  1.4442 -0.9743
   35CHL1  H26B 3765   6.406   5.297   3.958  2.2455  1.8218 -1.3323
   35CHL1  H26C 3766   6.518   5.143   3.969  0.0870 -1.8155  3.2145
   35CHL1   C27 3767   6.652   5.391   4.035 -0.2292 -0.4363  0.5245
   35CHL1  H27A 3768   6.737   5.428   4.096 -0.6108  0.6493  0.4143
   35CHL1  H27B 3769   6.684   5.343   3.940 -1.3969  1.8563 -1.1378
   35CHL1  H27C 3770   6.587   5.480   4.019  0.4943 -0.2510 -1.8723
   36CHL1    C3 3771   2.922   1.265   6.003  0.1191 -0.8509 -0.6079
   36CHL1    H3 3772   2.817   1.277   5.968 -0.0711  3.0836  0.8340
   36CHL1    O3 3773   2.906   1.262   6.143 -0.4718 -0.0262 -0.3094
   36CHL1   H3' 3774   2.979   1.209   6.175  0.5743  0.8055 -1.2162
   36CHL1    C4 3775   2.973   1.133   5.948 -0.6874  0.4479 -0.1525
   36CHL1   H4A 3776   3.074   1.117   5.993 -0.5441  0.0100 -0.6245
   36CHL1   H4B 3777   2.918   1.046   5.989 -0.3420  0.3613  0.1350
   36CHL1    C5 3778   2.974   1.127   5.798  0.5523  0.1419 -0.3721
   36CHL1    C6 3779   2.902   1.042   5.729  0.3328  0.3127 -0.2814
   36CHL1    H6 3780   2.855   0.958   5.782  1.7144 -1.5130 -1.7591
   36CHL1    C7 3781   2.901   1.038   5.575  0.1782  0.1786 -0.1601
   36CHL1   H7A 3782   2.912   0.931   5.547  1.0682  0.5613 -1.3597
   36CHL1   H7B 3783   2.804   1.067   5.531 -0.0650 -0.5600 -0.1323
   36CHL1    C8 3784   3.015   1.123   5.514 -0.0289 -0.8595  0.8074
   36CHL1    H8 3785   3.111   1.068   5.525  0.7232 -0.6759 -3.2666
   36CHL1   C14 3786   2.983   1.156   5.366 -0.2563 -0.1852 -0.0782
   36CHL1   H14 3787   2.895   1.224   5.364  0.7453  1.1862 -2.7593
   36CHL1   C15 3788   2.938   1.042   5.278  0.7369 -0.9920  0.3003
   36CHL1  H15A 3789   2.993   0.946   5.291  0.6980 -1.1042 -0.2988
   36CHL1  H15B 3790   2.830   1.023   5.294  0.4077  0.8774  0.4649
   36CHL1   C16 3791   2.957   1.093   5.130  0.3334  0.1237  0.3624
   36CHL1  H16A 3792   3.018   1.031   5.062 -0.7005  0.7866 -1.2457
   36CHL1  H16B 3793   2.862   1.099   5.072  1.9451 -0.7377 -2.5186
   36CHL1   C17 3794   3.028   1.235   5.141 -1.0510 -0.1592 -0.4360
   36CHL1   H17 3795   2.938   1.301   5.139  0.4268  1.9637 -0.5810
   36CHL1   C13 3796   3.090   1.229   5.287  0.1471  0.2245 -0.4132
   36CHL1   C18 3797   3.224   1.143   5.280  0.7081  0.6260  0.3094
   36CHL1  H18A 3798   3.303   1.200   5.227 -0.3161  1.6296 -0.1918
   36CHL1  H18B 3799   3.267   1.131   5.382  0.7835  2.3566  0.5110
   36CHL1  H18C 3800   3.210   1.053   5.217 -0.6168  0.5051  0.7394
   36CHL1   C12 3801   3.114   1.359   5.362  0.1825 -0.0948  0.0205
   36CHL1  H12A 3802   3.201   1.413   5.320 -0.3134 -1.4748 -3.0758
   36CHL1  H12B 3803   3.029   1.431   5.356  0.0962 -0.2465 -0.6158
   36CHL1   C11 3804   3.142   1.342   5.513 -0.1371  0.2036  0.0306
   36CHL1  H11A 3805   3.238   1.286   5.525  0.5787  1.4809  0.4736
   36CHL1  H11B 3806   3.132   1.436   5.570 -2.5425 -0.2909  0.5089
   36CHL1    C9 3807   3.033   1.252   5.582  0.1188  0.0471  0.8943
   36CHL1    H9 3808   2.937   1.303   5.561  0.4504 -0.3684 -2.0307
   36CHL1   C10 3809   3.052   1.241   5.736  0.3684  0.4075 -0.6181
   36CHL1   C19 3810   3.203   1.217   5.777 -0.4659 -0.2429 -0.7474
   36CHL1  H19A 3811   3.218   1.192   5.884  0.0934  0.5412 -0.6293
   36CHL1  H19B 3812   3.233   1.129   5.716  0.1845  0.8635 -2.0702
   36CHL1  H19C 3813   3.260   1.309   5.750 -2.0180  1.1283  0.4701
   36CHL1    C1 3814   3.000   1.377   5.802  0.3878 -0.3977  1.0516
   36CHL1   H1A 3815   3.064   1.460   5.765  0.7870 -1.3414 -0.4852
   36CHL1   H1B 3816   2.895   1.397   5.773  1.1313  2.7594  0.2271
   36CHL1    C2 3817   3.004   1.385   5.953 -0.1135  0.7549 -0.3337
   36CHL1   H2A 3818   2.976   1.479   6.005  0.6201 -0.6251  2.7839
   36CHL1   H2B 3819   3.112   1.368   5.971 -0.1601  0.6213 -0.1725
   36CHL1   C20 3820   3.111   1.270   5.019 -0.0889  0.6237  0.5719
   36CHL1   H20 3821   3.187   1.190   5.004 -0.4977 -0.0946  2.1091
   36CHL1   C21 3822   3.169   1.413   5.044 -0.0209  0.0785  0.5720
   36CHL1  H21A 3823   3.078   1.473   5.068  1.0172  1.9573  0.0185
   36CHL1  H21B 3824   3.214   1.449   4.949 -2.3864 -0.5541 -0.8773
   36CHL1  H21C 3825   3.243   1.409   5.126 -0.0898 -0.8317  0.5944
   36CHL1   C22 3826   3.025   1.276   4.886  0.1097 -0.4628 -0.2105
   36CHL1  H22A 3827   2.964   1.184   4.875  1.8586 -1.7733  0.6684
   36CHL1  H22B 3828   2.960   1.366   4.885  0.3874 -0.2514  0.6687
   36CHL1   C23 3829   3.122   1.284   4.759  0.4476 -0.0414 -0.4281
   36CHL1  H23A 3830   3.177   1.381   4.762 -1.8974  1.3598  0.8565
   36CHL1  H23B 3831   3.182   1.191   4.751 -0.6754 -0.8395  0.0478
   36CHL1   C24 3832   3.034   1.288   4.633 -0.0209 -0.4118 -0.3217
   36CHL1  H24A 3833   2.988   1.187   4.627  1.2546 -0.9600 -1.5275
   36CHL1  H24B 3834   2.956   1.367   4.642 -1.3921 -1.7332 -0.2502
   36CHL1   C25 3835   3.115   1.318   4.510 -0.2467  0.2034 -0.3791
   36CHL1   H25 3836   3.213   1.272   4.533 -0.1638  1.3319  1.7528
   36CHL1   C26 3837   3.059   1.256   4.379 -0.1884 -0.8349 -0.7481
   36CHL1  H26A 3838   2.949   1.269   4.368 -0.3589 -1.3880  0.1898
   36CHL1  H26B 3839   3.111   1.314   4.300  0.7118 -0.3310  0.1779
   36CHL1  H26C 3840   3.081   1.148   4.365 -1.5664 -1.1815 -0.3915
   36CHL1   C27 3841   3.124   1.473   4.493  0.6372  0.4671  0.1562
   36CHL1  H27A 3842   3.029   1.507   4.447  0.9100 -0.1292 -0.8836
   36CHL1  H27B 3843   3.149   1.532   4.583  1.0923  1.2411 -0.4646
   36CHL1  H27C 3844   3.199   1.492   4.414  0.3203  1.3101  0.0544
   37CHL1    C3 3845   4.289   4.442   6.289 -1.4002 -0.1722  0.3134
   37CHL1    H3 3846   4.342   4.534   6.322 -2.2599  0.5925 -0.4072
   37CHL1    O3 3847   4.274   4.369   6.406  0.1880 -1.1546  0.1019
   37CHL1   H3' 3848   4.198   4.310   6.405 -0.6217 -0.1606  0.5305
   37CHL1    C4 3849   4.160   4.470   6.223  0.4893 -0.4213  0.1102
   37CHL1   H4A 3850   4.091   4.383   6.217 -1.2485  0.8832  0.2862
   37CHL1   H4B 3851   4.110   4.533   6.299  0.2890 -0.4643  0.0143
   37CHL1    C5 3852   4.170   4.533   6.081 -0.3171 -0.4010 -0.1824
   37CHL1    C6 3853   4.096   4.641   6.048 -0.3881  0.5268 -0.2170
   37CHL1    H6 3854   4.030   4.676   6.129 -0.9830 -2.2701  0.6072
   37CHL1    C7 3855   4.111   4.714   5.921  0.2837 -0.0516  0.3014
   37CHL1   H7A 3856   4.007   4.738   5.892  0.6816  0.0548 -1.0941
   37CHL1   H7B 3857   4.162   4.812   5.931  0.4149 -0.1610  0.7260
   37CHL1    C8 3858   4.187   4.627   5.814  0.4789 -0.0802  0.0710
   37CHL1    H8 3859   4.119   4.544   5.785 -0.4540 -0.1300  2.2687
   37CHL1   C14 3860   4.229   4.713   5.684  0.5153  0.1856 -0.3953
   37CHL1   H14 3861   4.304   4.783   5.726 -1.1758  1.3988  0.6935
   37CHL1   C15 3862   4.125   4.805   5.621 -0.1061  0.4132 -0.0588
   37CHL1  H15A 3863   4.025   4.758   5.611 -0.7318  1.9987 -1.7159
   37CHL1  H15B 3864   4.111   4.898   5.681  0.5676 -0.5678  1.7104
   37CHL1   C16 3865   4.188   4.835   5.481  0.0365  0.0037 -0.2092
   37CHL1  H16A 3866   4.120   4.791   5.405  1.0235  0.5159 -1.4201
   37CHL1  H16B 3867   4.192   4.942   5.452  0.3494 -0.0522 -0.3732
   37CHL1   C17 3868   4.316   4.748   5.473 -0.2904  0.2070  0.4462
   37CHL1   H17 3869   4.405   4.811   5.499 -0.4466 -0.2336  2.1485
   37CHL1   C13 3870   4.304   4.637   5.576  0.1909  0.2611  0.3275
   37CHL1   C18 3871   4.225   4.519   5.530  0.4250  0.1813  0.0737
   37CHL1  H18A 3872   4.130   4.551   5.482  0.4202  0.2509  0.1279
   37CHL1  H18B 3873   4.281   4.459   5.455 -1.7453 -1.4650 -0.3167
   37CHL1  H18C 3874   4.186   4.456   5.613 -1.7911  1.3806  0.0200
   37CHL1   C12 3875   4.436   4.590   5.634  0.0593  0.0297 -0.8230
   37CHL1  H12A 3876   4.496   4.528   5.564  0.5520  0.2773 -0.6252
   37CHL1  H12B 3877   4.506   4.671   5.663 -1.5240  1.6977 -1.4820
   37CHL1   C11 3878   4.410   4.497   5.764  0.3364 -0.2980  0.2084
   37CHL1  H11A 3879   4.374   4.394   5.741  2.1407 -1.2075  1.2744
   37CHL1  H11B 3880   4.506   4.478   5.816  0.4039 -2.3002 -0.5540
   37CHL1    C9 3881   4.311   4.560   5.871  0.5220 -0.0224 -0.1847
   37CHL1    H9 3882   4.379   4.638   5.910  1.2042 -0.8839  0.3684
   37CHL1   C10 3883   4.275   4.472   5.993 -0.0302  0.0962 -0.0811
   37CHL1   C19 3884   4.213   4.336   5.944 -0.1520  0.3902  0.1131
   37CHL1  H19A 3885   4.132   4.349   5.868 -0.3895 -0.3623  0.2338
   37CHL1  H19B 3886   4.291   4.279   5.890 -1.9108 -1.4602 -0.5819
   37CHL1  H19C 3887   4.172   4.275   6.027 -0.9184  0.9272  0.1471
   37CHL1    C1 3888   4.407   4.438   6.067 -0.8031 -0.2481 -0.0834
   37CHL1   H1A 3889   4.474   4.378   6.001  0.3605 -0.9730  1.6631
   37CHL1   H1B 3890   4.460   4.530   6.101  0.7771 -0.3219 -2.1019
   37CHL1    C2 3891   4.382   4.359   6.198  0.0724 -0.6366 -0.0357
   37CHL1   H2A 3892   4.477   4.334   6.249  0.3498 -1.1944 -0.7975
   37CHL1   H2B 3893   4.344   4.259   6.168  0.6009 -0.6868 -0.5599
   37CHL1   C20 3894   4.358   4.704   5.334  0.8579 -0.3288  0.0965
   37CHL1   H20 3895   4.283   4.629   5.300 -2.8998  3.4417 -0.7801
   37CHL1   C21 3896   4.499   4.655   5.320  0.4044 -0.0741  0.1843
   37CHL1  H21A 3897   4.556   4.740   5.363 -0.3747  0.9066 -0.6579
   37CHL1  H21B 3898   4.536   4.650   5.215  0.1374  2.3908 -0.0873
   37CHL1  H21C 3899   4.519   4.557   5.367  1.4792  0.8036  1.6353
   37CHL1   C22 3900   4.340   4.815   5.229 -0.0069 -0.5564 -0.3461
   37CHL1  H22A 3901   4.247   4.875   5.244  0.9302  0.5176  1.4227
   37CHL1  H22B 3902   4.422   4.889   5.237 -1.8712  1.5859  0.0596
   37CHL1   C23 3903   4.321   4.767   5.086 -0.7569  0.8742  0.4693
   37CHL1  H23A 3904   4.398   4.694   5.053 -2.5508 -2.3476  2.7818
   37CHL1  H23B 3905   4.227   4.707   5.085 -0.9035  1.0701 -1.4501
   37CHL1   C24 3906   4.308   4.884   4.990 -0.4656 -0.2745 -0.0775
   37CHL1  H24A 3907   4.286   4.983   5.035 -3.6040 -0.4420 -1.0044
   37CHL1  H24B 3908   4.396   4.886   4.922 -1.7393  0.8739 -1.7631
   37CHL1   C25 3909   4.204   4.869   4.869  0.0534  0.3406  0.0075
   37CHL1   H25 3910   4.188   4.760   4.855 -0.7000  0.5677 -1.0211
   37CHL1   C26 3911   4.064   4.925   4.907 -0.4813  0.4349  0.2814
   37CHL1  H26A 3912   4.079   5.034   4.928  1.9781  0.2890 -0.4040
   37CHL1  H26B 3913   3.997   4.903   4.821 -2.7721 -1.6606  2.4684
   37CHL1  H26C 3914   4.024   4.867   4.993 -0.2422 -0.4953 -0.2298
   37CHL1   C27 3915   4.256   4.932   4.732  0.2291 -0.3554  0.1609
   37CHL1  H27A 3916   4.259   5.043   4.738  1.8710 -0.3255 -0.6878
   37CHL1  H27B 3917   4.352   4.890   4.696  0.8146  1.4264 -0.4720
   37CHL1  H27C 3918   4.184   4.902   4.653 -1.1106  2.7742  0.0316
   38CHL1    C3 3919   5.898   5.832   5.937  0.5435 -0.2896 -0.0261
   38CHL1    H3 3920   5.933   5.926   5.888  0.2515  0.7402  1.6743
   38CHL1    O3 3921   5.890   5.852   6.076 -0.2275 -0.2522  0.1854
   38CHL1   H3' 3922   5.848   5.771   6.105  1.9240 -1.4848  0.0281
   38CHL1    C4 3923   5.757   5.793   5.897 -0.0599 -0.4273  0.5578
   38CHL1   H4A 3924   5.738   5.701   5.957 -1.2465 -0.4683  0.1436
   38CHL1   H4B 3925   5.697   5.880   5.932  1.0600  0.0446  1.3757
   38CHL1    C5 3926   5.753   5.781   5.753  0.3462 -0.2873  0.1187
   38CHL1    C6 3927   5.679   5.867   5.683  0.2486  0.2852  0.7337
   38CHL1    H6 3928   5.619   5.948   5.728  0.5365  0.9844 -0.1232
   38CHL1    C7 3929   5.673   5.854   5.533  0.6125  0.0249  0.1570
   38CHL1   H7A 3930   5.573   5.871   5.489  0.4670  2.5855  1.3149
   38CHL1   H7B 3931   5.725   5.944   5.496  2.0262 -0.8912 -0.1812
   38CHL1    C8 3932   5.741   5.732   5.467 -0.1248 -0.2146  0.2265
   38CHL1    H8 3933   5.664   5.653   5.478 -2.3960  2.0775  1.9361
   38CHL1   C14 3934   5.773   5.749   5.322 -0.2200 -0.5211 -0.0095
   38CHL1   H14 3935   5.854   5.825   5.317  0.5448 -1.3662 -1.1432
   38CHL1   C15 3936   5.660   5.807   5.230  0.4008  0.4875 -0.5918
   38CHL1  H15A 3937   5.571   5.744   5.253  0.3173  0.1442 -1.7897
   38CHL1  H15B 3938   5.636   5.914   5.248 -0.4395  0.1340  0.4855
   38CHL1   C16 3939   5.708   5.765   5.085  1.0371 -0.7811 -0.1719
   38CHL1  H16A 3940   5.628   5.698   5.048 -0.3793  1.2307 -0.9680
   38CHL1  H16B 3941   5.722   5.846   5.011  0.5401  0.7940  1.3743
   38CHL1   C17 3942   5.839   5.684   5.101 -0.0227  0.1453  0.0648
   38CHL1   H17 3943   5.923   5.755   5.112  0.7756 -0.8355  0.4306
   38CHL1   C13 3944   5.840   5.627   5.251  0.0880 -0.4089  0.2168
   38CHL1   C18 3945   5.753   5.502   5.247  0.0245  0.4233 -0.3358
   38CHL1  H18A 3946   5.805   5.422   5.188  0.4555 -0.0219  0.6292
   38CHL1  H18B 3947   5.720   5.472   5.348  1.8178 -2.5641 -0.5068
   38CHL1  H18C 3948   5.658   5.536   5.200 -0.6453 -0.8125  0.0624
   38CHL1   C12 3949   5.973   5.608   5.325 -0.2783  0.0232 -0.2911
   38CHL1  H12A 3950   6.038   5.524   5.292 -0.9148 -0.5163 -0.2118
   38CHL1  H12B 3951   6.038   5.696   5.307 -0.0516  0.0822  0.8066
   38CHL1   C11 3952   5.941   5.577   5.472 -0.0291 -0.6805 -0.3285
   38CHL1  H11A 3953   5.886   5.481   5.479  1.1383 -1.4275 -1.1728
   38CHL1  H11B 3954   6.032   5.537   5.522 -0.3803 -0.9450  0.1082
   38CHL1    C9 3955   5.862   5.687   5.547  0.2038  0.3886  0.7066
   38CHL1    H9 3956   5.930   5.776   5.543 -0.7764  1.1457  0.5009
   38CHL1   C10 3957   5.849   5.676   5.699  0.4567  0.2679 -0.8500
   38CHL1   C19 3958   5.796   5.534   5.732 -0.2668  0.5385  0.0058
   38CHL1  H19A 3959   5.772   5.515   5.839  0.5385 -2.1868 -0.2299
   38CHL1  H19B 3960   5.710   5.507   5.666  1.1347  0.7239 -1.9550
   38CHL1  H19C 3961   5.867   5.450   5.716 -0.9933 -0.1433  0.2841
   38CHL1    C1 3962   5.997   5.684   5.760  0.2110  0.1534 -0.2415
   38CHL1   H1A 3963   6.059   5.593   5.749 -0.4366 -0.3581  0.2766
   38CHL1   H1B 3964   6.045   5.771   5.710  3.0620 -0.5291  1.1248
   38CHL1    C2 3965   5.998   5.721   5.909  0.2924  0.3965  0.3298
   38CHL1   H2A 3966   6.100   5.750   5.942  0.4076  0.6990 -0.2735
   38CHL1   H2B 3967   5.976   5.629   5.967  0.4641 -0.7401 -1.3566
   38CHL1   C20 3968   5.870   5.585   4.986  0.2338 -0.2662 -0.3708
   38CHL1   H20 3969   5.794   5.503   4.993 -1.4421  1.2894  0.5131
   38CHL1   C21 3970   6.001   5.504   5.009 -0.4630 -0.2335  1.2116
   38CHL1  H21A 3971   6.090   5.564   5.039 -0.2681  0.8675 -1.2740
   38CHL1  H21B 3972   6.021   5.440   4.920 -0.7036 -1.3982  1.9738
   38CHL1  H21C 3973   5.995   5.429   5.090  2.0498 -1.0056  0.7735
   38CHL1   C22 3974   5.864   5.647   4.844 -0.4701  0.3908 -0.0857
   38CHL1  H22A 3975   5.799   5.737   4.853  0.5696  1.0730  0.7509
   38CHL1  H22B 3976   5.965   5.686   4.818 -1.3270  3.4066  0.6927
   38CHL1   C23 3977   5.801   5.547   4.743  0.1506  0.3991  0.2593
   38CHL1  H23A 3978   5.832   5.578   4.642 -1.5469  1.3297 -0.0151
   38CHL1  H23B 3979   5.835   5.443   4.765 -1.1737  0.1073  1.1114
   38CHL1   C24 3980   5.648   5.561   4.747 -1.3006 -0.3088  0.4797
   38CHL1  H24A 3981   5.609   5.547   4.850 -0.9327  0.4462  0.7293
   38CHL1  H24B 3982   5.619   5.667   4.732  1.3310  0.0571 -3.3539
   38CHL1   C25 3983   5.578   5.466   4.654 -0.1362 -0.4317  0.2974
   38CHL1   H25 3984   5.615   5.363   4.671  4.2485  0.4957 -1.9675
   38CHL1   C26 3985   5.432   5.482   4.685  0.4522  0.1839  0.3321
   38CHL1  H26A 3986   5.366   5.405   4.640  2.1921 -0.9305 -0.4209
   38CHL1  H26B 3987   5.411   5.488   4.794 -1.8258 -1.0648  0.0289
   38CHL1  H26C 3988   5.420   5.584   4.643  3.4166  0.8406  0.8445
   38CHL1   C27 3989   5.613   5.488   4.505  0.0841  0.3086  0.7415
   38CHL1  H27A 3990   5.547   5.427   4.440  0.5419  0.5059  0.0854
   38CHL1  H27B 3991   5.602   5.594   4.471  1.9819  0.6223  1.0274
   38CHL1  H27C 3992   5.721   5.469   4.492  0.2170  1.3132  0.2294
   39CHL1    C3 3993   5.674   4.954   5.976  0.3045  0.6668  0.1842
   39CHL1    H3 3994   5.594   4.877   5.977  1.7295 -0.9338 -1.6111
   39CHL1    O3 3995   5.708   4.976   6.106  0.6615 -0.2827  0.0036
   39CHL1   H3' 3996   5.765   5.053   6.101 -1.1323  1.1253 -0.0369
   39CHL1    C4 3997   5.797   4.910   5.901  0.3213  0.2737 -0.2452
   39CHL1   H4A 3998   5.880   4.981   5.918  1.2510 -1.2520  2.2774
   39CHL1   H4B 3999   5.827   4.818   5.956  1.8893  1.8887  1.7736
   39CHL1    C5 4000   5.763   4.903   5.753  0.0972 -0.0511  0.5886
   39CHL1    C6 4001   5.784   4.789   5.680  0.1348  0.2848 -0.6056
   39CHL1    H6 4002   5.817   4.703   5.740 -1.9984  0.3045  0.6925
   39CHL1    C7 4003   5.761   4.780   5.534 -0.2606 -0.1360  0.3058
   39CHL1   H7A 4004   5.825   4.709   5.477  0.1677  0.5163 -0.0307
   39CHL1   H7B 4005   5.664   4.730   5.513 -0.0087 -0.3508 -0.3752
   39CHL1    C8 4006   5.763   4.914   5.457  0.1546 -0.4766  0.1789
   39CHL1    H8 4007   5.867   4.953   5.453 -0.7448  2.0519 -1.3975
   39CHL1   C14 4008   5.712   4.903   5.313 -0.2503  0.3613  0.0154
   39CHL1   H14 4009   5.603   4.887   5.321 -0.2371  0.8903  1.6308
   39CHL1   C15 4010   5.760   4.790   5.218 -0.3110  0.2169  0.6607
   39CHL1  H15A 4011   5.867   4.769   5.238 -0.2529  1.9623  2.4646
   39CHL1  H15B 4012   5.700   4.701   5.250 -0.5807 -0.5411 -1.7154
   39CHL1   C16 4013   5.732   4.833   5.075  0.4105  0.0923 -0.9534
   39CHL1  H16A 4014   5.826   4.835   5.016  0.4501  0.6056 -0.8801
   39CHL1  H16B 4015   5.652   4.769   5.033  0.3337 -1.6723  1.6389
   39CHL1   C17 4016   5.665   4.980   5.088 -0.2257  0.5757  0.5450
   39CHL1   H17 4017   5.557   4.969   5.109 -0.2715  0.1629  0.1120
   39CHL1   C13 4018   5.713   5.026   5.236  0.5019 -0.5221  0.4098
   39CHL1   C18 4019   5.849   5.086   5.224  0.1508 -0.9787 -0.3733
   39CHL1  H18A 4020   5.836   5.193   5.196 -0.4711 -1.2095 -1.0006
   39CHL1  H18B 4021   5.899   5.092   5.323 -2.6805  1.5021  1.0606
   39CHL1  H18C 4022   5.911   5.035   5.148  0.9874  1.3148 -1.3175
   39CHL1   C12 4023   5.623   5.132   5.300  0.0397  0.1079 -0.4226
   39CHL1  H12A 4024   5.620   5.235   5.259 -1.6629  0.8827  1.4569
   39CHL1  H12B 4025   5.519   5.091   5.304 -0.6374  1.7751 -0.3286
   39CHL1   C11 4026   5.653   5.148   5.449 -0.4623  0.3028 -0.5053
   39CHL1  H11A 4027   5.746   5.210   5.455  0.4452 -1.1111  1.2564
   39CHL1  H11B 4028   5.569   5.207   5.492 -0.9073 -1.1822  0.7744
   39CHL1    C9 4029   5.677   5.019   5.531  0.3885 -0.7322  0.5500
   39CHL1    H9 4030   5.577   4.971   5.526 -0.2940  0.7115 -0.4805
   39CHL1   C10 4031   5.713   5.034   5.685 -0.2649  0.0854  1.2532
   39CHL1   C19 4032   5.818   5.146   5.679  0.3658  0.2247 -0.2155
   39CHL1  H19A 4033   5.864   5.168   5.778 -0.0986  0.2548 -0.0011
   39CHL1  H19B 4034   5.905   5.107   5.623  0.5692 -0.1123  0.3256
   39CHL1  H19C 4035   5.772   5.242   5.646 -0.2256  0.2301  0.5822
   39CHL1    C1 4036   5.590   5.071   5.764 -0.1546 -1.0627 -0.0218
   39CHL1   H1A 4037   5.550   5.166   5.722  1.5025 -0.5653 -0.5244
   39CHL1   H1B 4038   5.505   5.000   5.775 -3.2409  2.4850  0.9442
   39CHL1    C2 4039   5.629   5.088   5.920  0.0920  0.6810  0.4926
   39CHL1   H2A 4040   5.533   5.117   5.970  1.2161  1.0283  2.5588
   39CHL1   H2B 4041   5.706   5.168   5.926 -0.3702  1.0427  2.1312
   39CHL1   C20 4042   5.685   5.069   4.962  0.8187  0.1748  0.3484
   39CHL1   H20 4043   5.795   5.082   4.956  0.8656  0.6953  1.9401
   39CHL1   C21 4044   5.610   5.203   4.977  0.3685 -0.5572  0.2393
   39CHL1  H21A 4045   5.625   5.264   4.885  1.1466 -0.4199  0.4427
   39CHL1  H21B 4046   5.633   5.272   5.062 -2.3612 -0.9863  1.4228
   39CHL1  H21C 4047   5.501   5.182   4.977  0.6978 -2.4545  0.6092
   39CHL1   C22 4048   5.629   4.992   4.841  0.9863  0.1974 -0.0471
   39CHL1  H22A 4049   5.665   4.888   4.834 -0.0945 -0.6305  3.8690
   39CHL1  H22B 4050   5.518   5.006   4.838  0.5128 -2.9385 -2.9267
   39CHL1   C23 4051   5.669   5.041   4.694  0.2940 -0.3685  0.6537
   39CHL1  H23A 4052   5.650   5.151   4.690  0.5269 -0.3291  0.6361
   39CHL1  H23B 4053   5.778   5.026   4.686  0.4840  1.4419 -1.2208
   39CHL1   C24 4054   5.598   4.978   4.570  0.0109 -0.0991 -0.5166
   39CHL1  H24A 4055   5.597   4.868   4.582  1.9034 -0.1382 -0.4934
   39CHL1  H24B 4056   5.497   5.010   4.535 -0.3000 -2.4621 -1.9905
   39CHL1   C25 4057   5.676   5.001   4.441  0.0125 -0.8002  0.0839
   39CHL1   H25 4058   5.774   4.951   4.460  1.4242  1.8717  0.2105
   39CHL1   C26 4059   5.612   4.930   4.321 -0.5809 -0.1401 -0.1089
   39CHL1  H26A 4060   5.511   4.974   4.305 -0.3647  1.3267  2.2372
   39CHL1  H26B 4061   5.662   4.947   4.223  0.2302 -0.1749  0.2899
   39CHL1  H26C 4062   5.597   4.820   4.326  2.1830 -0.5415  1.0638
   39CHL1   C27 4063   5.695   5.153   4.418  0.0513  0.2818 -0.4060
   39CHL1  H27A 4064   5.598   5.201   4.393 -1.4154 -1.4157  1.6234
   39CHL1  H27B 4065   5.744   5.196   4.508 -0.2819 -2.5771  1.2588
   39CHL1  H27C 4066   5.767   5.168   4.334  0.5237 -3.2723 -0.7936
   40CHL1    C3 4067   4.135   7.003   6.028 -0.1604 -0.0096 -0.2097
   40CHL1    H3 4068   4.035   6.964   6.002 -0.7553  1.7860 -0.7505
   40CHL1    O3 4069   4.157   6.981   6.165  0.2065  0.0423  0.2379
   40CHL1   H3' 4070   4.236   7.033   6.180  0.1227 -0.3168  2.2391
   40CHL1    C4 4071   4.244   6.933   5.953 -0.0080  0.2601  0.0616
   40CHL1   H4A 4072   4.346   6.968   5.981  0.2310 -0.6363  0.3488
   40CHL1   H4B 4073   4.256   6.828   5.985  2.2741  0.6565  0.6489
   40CHL1    C5 4074   4.225   6.943   5.806 -0.3785 -0.0727  0.4174
   40CHL1    C6 4075   4.224   6.833   5.728  0.3470 -0.0512 -0.0930
   40CHL1    H6 4076   4.240   6.731   5.766 -2.3064 -1.3835 -2.1828
   40CHL1    C7 4077   4.223   6.839   5.581 -0.0070 -0.5656  0.1629
   40CHL1   H7A 4078   4.305   6.774   5.542  0.1075 -0.5045  0.3014
   40CHL1   H7B 4079   4.124   6.804   5.546 -1.0551  0.9359  1.5050
   40CHL1    C8 4080   4.240   6.985   5.519 -0.5348  0.2702 -0.6325
   40CHL1    H8 4081   4.348   7.009   5.526 -0.2991 -1.0298  0.7501
   40CHL1   C14 4082   4.195   6.992   5.375  0.7649 -0.0031  0.0298
   40CHL1   H14 4083   4.085   6.983   5.379  0.9038 -1.5876  2.6935
   40CHL1   C15 4084   4.259   6.898   5.273  0.2408 -0.0135 -0.1881
   40CHL1  H15A 4085   4.368   6.898   5.298  0.3416  1.0723 -0.5990
   40CHL1  H15B 4086   4.221   6.794   5.270  1.7405 -0.5637 -1.9597
   40CHL1   C16 4087   4.211   6.957   5.131 -0.9028  0.6084 -0.1751
   40CHL1  H16A 4088   4.300   6.950   5.066  0.1112  1.0436  1.1295
   40CHL1  H16B 4089   4.127   6.898   5.088 -1.1888  1.5808 -0.9930
   40CHL1   C17 4090   4.161   7.095   5.159 -0.5449  0.6229 -0.1363
   40CHL1   H17 4091   4.050   7.095   5.167 -0.5456 -0.7677 -0.0274
   40CHL1   C13 4092   4.212   7.130   5.304 -0.2487  0.1599  0.0179
   40CHL1   C18 4093   4.365   7.169   5.291 -0.3703  0.3812  0.4142
   40CHL1  H18A 4094   4.363   7.272   5.251 -0.2224 -0.2161 -1.1920
   40CHL1  H18B 4095   4.414   7.168   5.391  1.4465  0.1086 -0.4392
   40CHL1  H18C 4096   4.420   7.101   5.222 -1.4859 -2.2389  1.9312
   40CHL1   C12 4097   4.136   7.233   5.382  0.6583 -0.5675 -1.3212
   40CHL1  H12A 4098   4.130   7.336   5.339  0.1547  0.7306  1.5733
   40CHL1  H12B 4099   4.030   7.197   5.386  0.7263 -0.6377  0.6644
   40CHL1   C11 4100   4.175   7.242   5.533 -0.2703 -0.8752  0.1914
   40CHL1  H11A 4101   4.281   7.274   5.541 -0.2687 -0.8777  0.1784
   40CHL1  H11B 4102   4.110   7.307   5.595  0.0065 -0.5036  0.0976
   40CHL1    C9 4103   4.173   7.100   5.599 -0.0241  0.2700  0.0099
   40CHL1    H9 4104   4.066   7.068   5.601  0.7401 -2.4958  0.8618
   40CHL1   C10 4105   4.212   7.090   5.745 -0.5525  0.5929  0.1460
   40CHL1   C19 4106   4.350   7.167   5.754 -0.0693  0.6063  0.0550
   40CHL1  H19A 4107   4.413   7.123   5.674 -2.3982  0.7160 -1.9527
   40CHL1  H19B 4108   4.334   7.275   5.732 -2.0282  0.1797 -0.7545
   40CHL1  H19C 4109   4.392   7.153   5.856  0.2383  1.7202  0.0950
   40CHL1    C1 4110   4.110   7.168   5.833 -0.2449 -0.2032  0.1372
   40CHL1   H1A 4111   4.110   7.276   5.806  2.1811  0.0588  0.9310
   40CHL1   H1B 4112   4.013   7.119   5.810 -0.8061 -0.0579  2.0255
   40CHL1    C2 4113   4.133   7.157   5.988  0.1270  0.8362 -0.5489
   40CHL1   H2A 4114   4.054   7.210   6.045  0.9724 -0.3633  1.8898
   40CHL1   H2B 4115   4.231   7.204   6.011  0.0197  0.6292  0.3715
   40CHL1   C20 4116   4.200   7.181   5.041 -0.3341 -0.8213 -0.1030
   40CHL1   H20 4117   4.310   7.168   5.029 -0.5837 -3.1689 -0.2538
   40CHL1   C21 4118   4.164   7.326   5.075  0.7150 -0.3867  0.0395
   40CHL1  H21A 4119   4.224   7.366   5.159 -0.7877  0.1813  0.8733
   40CHL1  H21B 4120   4.055   7.343   5.089  0.4381 -2.0409  0.1174
   40CHL1  H21C 4121   4.179   7.395   4.989  0.2072 -0.3149  0.0046
   40CHL1   C22 4122   4.119   7.152   4.911 -0.2662  0.5786 -0.2457
   40CHL1  H22A 4123   4.105   7.042   4.906  0.9714  0.2806  1.6223
   40CHL1  H22B 4124   4.016   7.194   4.911  0.1222  1.5994 -1.3833
   40CHL1   C23 4125   4.203   7.198   4.786 -0.1621  0.7274 -0.2030
   40CHL1  H23A 4126   4.243   7.301   4.798  0.1422  0.4992  0.8365
   40CHL1  H23B 4127   4.293   7.133   4.775 -0.4843  0.6364 -3.0312
   40CHL1   C24 4128   4.119   7.184   4.658 -0.4460 -0.5608  0.6456
   40CHL1  H24A 4129   4.072   7.083   4.655 -1.2448 -0.2589  2.0895
   40CHL1  H24B 4130   4.040   7.262   4.653 -0.2846 -0.4071  0.4556
   40CHL1   C25 4131   4.201   7.194   4.526  0.2444 -0.2460  0.3186
   40CHL1   H25 4132   4.288   7.124   4.526  0.3259 -0.2553 -2.3241
   40CHL1   C26 4133   4.114   7.152   4.403 -0.3589 -0.6879 -0.1701
   40CHL1  H26A 4134   4.009   7.181   4.423 -0.2301  0.8695 -1.5702
   40CHL1  H26B 4135   4.146   7.200   4.308 -0.5787  1.2010  0.6639
   40CHL1  H26C 4136   4.118   7.042   4.387  0.2659 -0.6506 -0.3096
   40CHL1   C27 4137   4.252   7.338   4.513 -0.1400  0.0512 -0.0472
   40CHL1  H27A 4138   4.312   7.348   4.420 -2.9533 -0.1264 -2.0116
   40CHL1  H27B 4139   4.173   7.415   4.499 -2.3567 -2.4328 -2.5649
   40CHL1  H27C 4140   4.312   7.367   4.601  1.1796  2.1176 -1.5298
   41CHL1    C3 4141   6.915   3.201   6.043  0.4697  0.1614  0.4709
   41CHL1    H3 4142   6.820   3.243   6.083  0.3963 -0.8269  1.3777
   41CHL1    O3 4143   7.016   3.237   6.138 -0.5255  0.3813 -0.1887
   41CHL1   H3' 4144   7.088   3.181   6.108 -1.6772 -0.8068 -0.8585
   41CHL1    C4 4145   6.902   3.046   6.035  0.2609  0.5787 -0.4053
   41CHL1   H4A 4146   7.003   3.002   6.017  0.8768  2.0759 -0.8295
   41CHL1   H4B 4147   6.861   3.019   6.134  1.1219 -1.5549 -0.5818
   41CHL1    C5 4148   6.814   3.005   5.920 -0.1885 -0.2434 -0.0028
   41CHL1    C6 4149   6.700   2.942   5.950 -0.5228  0.4976  0.2733
   41CHL1    H6 4150   6.677   2.923   6.056  3.4775  5.7079  2.5896
   41CHL1    C7 4151   6.603   2.880   5.846 -0.3917 -0.0653 -0.1930
   41CHL1   H7A 4152   6.590   2.771   5.863  0.7162 -0.1802  0.0076
   41CHL1   H7B 4153   6.510   2.941   5.845 -0.3249  0.0575  0.4066
   41CHL1    C8 4154   6.664   2.897   5.698 -0.2090 -0.1964 -0.2335
   41CHL1    H8 4155   6.736   2.814   5.680  0.5238  0.4745 -0.4545
   41CHL1   C14 4156   6.553   2.879   5.593 -0.8449  0.3616 -0.2542
   41CHL1   H14 4157   6.486   2.966   5.612 -2.2409 -1.1174  2.2440
   41CHL1   C15 4158   6.464   2.751   5.596 -0.3715  0.0603  0.4361
   41CHL1  H15A 4159   6.526   2.662   5.621 -2.4095 -2.2315 -2.0824
   41CHL1  H15B 4160   6.383   2.768   5.669  0.2257  0.3925  1.0365
   41CHL1   C16 4161   6.418   2.739   5.442 -0.1684  0.2149 -0.3182
   41CHL1  H16A 4162   6.455   2.645   5.396  0.8781 -1.1380  3.0111
   41CHL1  H16B 4163   6.307   2.738   5.436 -0.1494 -0.8236 -0.6937
   41CHL1   C17 4164   6.471   2.866   5.371  0.2023 -0.1270  0.3742
   41CHL1   H17 4165   6.400   2.949   5.391 -1.7715 -1.1577 -1.8332
   41CHL1   C13 4166   6.599   2.901   5.445  1.5372  0.0934  0.3031
   41CHL1   C18 4167   6.703   2.793   5.422 -0.4851 -0.7771 -0.2031
   41CHL1  H18A 4168   6.743   2.811   5.320 -2.1762  1.5904 -0.5352
   41CHL1  H18B 4169   6.785   2.804   5.495 -0.5584 -2.3284  0.1515
   41CHL1  H18C 4170   6.663   2.690   5.434  0.1569 -0.9619  0.3424
   41CHL1   C12 4171   6.658   3.041   5.427 -0.1117 -0.5870  0.0643
   41CHL1  H12A 4172   6.699   3.049   5.324 -0.8420  0.9794 -0.1377
   41CHL1  H12B 4173   6.585   3.124   5.439  0.0378 -0.6266  1.5131
   41CHL1   C11 4174   6.766   3.065   5.531  0.8863  0.5036 -0.4011
   41CHL1  H11A 4175   6.851   2.995   5.516  1.9439  1.9989 -1.8643
   41CHL1  H11B 4176   6.806   3.168   5.518 -1.5540  1.6560  0.7250
   41CHL1    C9 4177   6.730   3.029   5.682  0.5681 -0.7590  0.7082
   41CHL1    H9 4178   6.656   3.108   5.710  0.8701 -0.4851  0.7456
   41CHL1   C10 4179   6.845   3.058   5.781  0.5059 -0.1495 -1.0433
   41CHL1   C19 4180   6.975   2.983   5.738 -0.2118  0.3784  0.0075
   41CHL1  H19A 4181   7.012   3.027   5.643  0.8212  2.0154  1.1017
   41CHL1  H19B 4182   7.064   3.005   5.801 -1.0689  1.8684  0.7598
   41CHL1  H19C 4183   6.950   2.875   5.731 -0.7477  0.4287  0.9375
   41CHL1    C1 4184   6.876   3.206   5.790  0.5179 -0.1154  0.1823
   41CHL1   H1A 4185   6.899   3.255   5.693  0.0168 -0.0557  0.0890
   41CHL1   H1B 4186   6.777   3.250   5.815 -1.4196 -4.0668  0.1497
   41CHL1    C2 4187   6.957   3.264   5.911 -0.5753  0.0114  0.8891
   41CHL1   H2A 4188   6.944   3.374   5.918 -1.5108 -0.0943  0.9627
   41CHL1   H2B 4189   7.062   3.236   5.886 -1.2922 -1.5178 -0.5314
   41CHL1   C20 4190   6.471   2.859   5.219  0.0704  0.1321 -0.4207
   41CHL1   H20 4191   6.557   2.801   5.178 -0.9441 -1.4632 -0.3852
   41CHL1   C21 4192   6.485   3.002   5.150  0.2947 -0.3359  0.3725
   41CHL1  H21A 4193   6.389   3.057   5.141 -0.1039 -0.3721  3.4338
   41CHL1  H21B 4194   6.517   2.995   5.044 -1.0474  2.9549 -0.3516
   41CHL1  H21C 4195   6.551   3.074   5.201 -0.0869  2.3197 -2.5867
   41CHL1   C22 4196   6.344   2.791   5.165  0.4265  0.3285 -0.7272
   41CHL1  H22A 4197   6.339   2.691   5.214  0.2112  1.5913  2.0201
   41CHL1  H22B 4198   6.257   2.851   5.198  1.7639  1.6422  0.5447
   41CHL1   C23 4199   6.343   2.766   5.018  0.6626  0.6594  0.5522
   41CHL1  H23A 4200   6.351   2.861   4.960  0.3323  0.1230 -0.3951
   41CHL1  H23B 4201   6.435   2.711   4.991 -0.0678 -0.0409 -0.6162
   41CHL1   C24 4202   6.214   2.692   4.959 -0.2490 -0.0539  0.7933
   41CHL1  H24A 4203   6.217   2.591   5.005  0.0407 -1.8117 -2.7468
   41CHL1  H24B 4204   6.129   2.757   4.990 -1.7005 -2.2258  1.6507
   41CHL1   C25 4205   6.196   2.674   4.807 -0.1267 -0.7514 -0.3073
   41CHL1   H25 4206   6.100   2.626   4.778  0.3890 -0.8371 -1.9917
   41CHL1   C26 4207   6.193   2.812   4.738 -0.4960  0.1774  0.8532
   41CHL1  H26A 4208   6.178   2.797   4.629  2.1066 -1.2585  0.6032
   41CHL1  H26B 4209   6.122   2.882   4.787 -0.7800  0.0281  0.6564
   41CHL1  H26C 4210   6.292   2.862   4.735 -0.6967  0.5304 -0.9229
   41CHL1   C27 4211   6.301   2.585   4.748  0.3599 -0.4195 -0.1150
   41CHL1  H27A 4212   6.292   2.595   4.638 -0.0560  2.0203  0.0881
   41CHL1  H27B 4213   6.402   2.619   4.779 -0.4132  0.4923  1.5602
   41CHL1  H27C 4214   6.285   2.480   4.781  0.1213 -0.8227 -1.4731
   42CHL1    C3 4215   1.738   4.304   6.082  0.2049 -0.0612 -0.0376
   42CHL1    H3 4216   1.798   4.210   6.073  0.2727  0.0654 -1.0639
   42CHL1    O3 4217   1.708   4.318   6.221  0.7974 -0.5949 -0.1994
   42CHL1   H3' 4218   1.645   4.250   6.246 -0.0534  0.0897 -0.4152
   42CHL1    C4 4219   1.827   4.420   6.039 -0.2514  0.3360  0.3736
   42CHL1   H4A 4220   1.775   4.517   6.053  0.1958  0.7788 -0.8697
   42CHL1   H4B 4221   1.917   4.425   6.103  0.0772 -3.8290  0.4947
   42CHL1    C5 4222   1.854   4.402   5.890 -0.1309  0.2733  0.5240
   42CHL1    C6 4223   1.979   4.398   5.847  0.8762  0.2747 -0.4800
   42CHL1    H6 4224   2.064   4.403   5.916  2.0811 -2.2700 -1.6564
   42CHL1    C7 4225   2.019   4.383   5.699  0.4068 -0.9728 -0.1850
   42CHL1   H7A 4226   2.092   4.467   5.689 -4.5832  4.2351  1.5098
   42CHL1   H7B 4227   2.073   4.288   5.679 -1.0392 -2.1664  1.3334
   42CHL1    C8 4228   1.898   4.388   5.599  0.2407  0.0902 -0.3004
   42CHL1    H8 4229   1.882   4.495   5.575 -1.5022 -0.0710 -0.0445
   42CHL1   C14 4230   1.922   4.302   5.474  0.9012  0.3598  0.4091
   42CHL1   H14 4231   1.914   4.198   5.512  2.1076  0.5969  1.3486
   42CHL1   C15 4232   2.065   4.313   5.404  0.8218 -0.2484 -0.5819
   42CHL1  H15A 4233   2.080   4.423   5.401  2.1175 -0.3856 -0.0071
   42CHL1  H15B 4234   2.145   4.259   5.460 -0.9027 -1.0294  1.2364
   42CHL1   C16 4235   2.040   4.259   5.259  0.2805 -0.0802  0.1753
   42CHL1  H16A 4236   2.063   4.349   5.197 -2.2259  0.2282 -0.4354
   42CHL1  H16B 4237   2.108   4.175   5.235  1.1467  0.4095  0.8751
   42CHL1   C17 4238   1.887   4.227   5.259 -0.1150 -0.5587 -0.2981
   42CHL1   H17 4239   1.882   4.123   5.299  2.6251 -0.6407  0.0674
   42CHL1   C13 4240   1.812   4.320   5.364 -0.1645 -0.2924  0.7992
   42CHL1   C18 4241   1.809   4.466   5.312  0.4824  0.0731 -0.0335
   42CHL1  H18A 4242   1.759   4.533   5.386  0.3306 -1.2233  1.0835
   42CHL1  H18B 4243   1.910   4.506   5.288 -0.1092  0.7301 -1.5625
   42CHL1  H18C 4244   1.757   4.486   5.216  1.7415 -0.3262 -0.8186
   42CHL1   C12 4245   1.678   4.273   5.425  0.1882 -0.2301  0.2937
   42CHL1  H12A 4246   1.594   4.299   5.357 -0.9012 -0.7150  1.3986
   42CHL1  H12B 4247   1.680   4.163   5.438  2.3709 -0.6476 -2.5856
   42CHL1   C11 4248   1.648   4.347   5.557 -0.0743 -0.4929  0.0657
   42CHL1  H11A 4249   1.624   4.453   5.534  1.3267 -0.5581 -2.0051
   42CHL1  H11B 4250   1.553   4.301   5.592 -0.6305 -0.0880 -0.8821
   42CHL1    C9 4251   1.763   4.334   5.665  0.2218  0.0358  0.4091
   42CHL1    H9 4252   1.783   4.225   5.672 -1.7500 -0.4236 -0.3774
   42CHL1   C10 4253   1.730   4.383   5.804  0.2044 -0.1104 -0.3656
   42CHL1   C19 4254   1.669   4.533   5.793 -0.2425  0.2779 -0.5285
   42CHL1  H19A 4255   1.739   4.594   5.732  3.4817 -1.0402  2.0378
   42CHL1  H19B 4256   1.565   4.515   5.760 -0.5206 -0.4374  0.6603
   42CHL1  H19C 4257   1.656   4.573   5.896  1.2776 -0.5235  0.0119
   42CHL1    C1 4258   1.631   4.280   5.860 -0.1673  0.2434 -0.2797
   42CHL1   H1A 4259   1.539   4.283   5.797  0.4064 -1.4808 -1.2526
   42CHL1   H1B 4260   1.671   4.178   5.847  2.3745  0.7887  2.2096
   42CHL1    C2 4261   1.607   4.297   6.009 -0.0452  0.7154 -0.3292
   42CHL1   H2A 4262   1.545   4.210   6.040 -0.3283  0.1378 -2.4001
   42CHL1   H2B 4263   1.543   4.387   6.019 -0.9439 -0.0540  1.2036
   42CHL1   C20 4264   1.840   4.228   5.115  0.6307 -0.1198  0.4635
   42CHL1   H20 4265   1.841   4.334   5.082 -3.5972  0.6662  2.2701
   42CHL1   C21 4266   1.685   4.209   5.099 -0.4469 -0.0089  0.3614
   42CHL1  H21A 4267   1.656   4.104   5.122  0.4346 -0.6176 -1.1943
   42CHL1  H21B 4268   1.656   4.218   4.992 -2.0384 -0.2792  0.7406
   42CHL1  H21C 4269   1.635   4.294   5.150  1.4320  2.6565 -1.9480
   42CHL1   C22 4270   1.924   4.131   5.019  0.0188  0.1098 -0.1190
   42CHL1  H22A 4271   2.032   4.153   5.032 -0.7058  3.6726  1.2233
   42CHL1  H22B 4272   1.903   4.028   5.053 -0.6931 -0.3823 -1.9374
   42CHL1   C23 4273   1.892   4.147   4.869 -0.5637 -0.1321 -0.1279
   42CHL1  H23A 4274   1.783   4.130   4.853 -0.4745  0.7750 -1.8573
   42CHL1  H23B 4275   1.906   4.256   4.852  0.7735  0.4142  3.5488
   42CHL1   C24 4276   1.979   4.057   4.781  0.3651  0.3107 -0.4387
   42CHL1  H24A 4277   2.085   4.087   4.795  0.3351  0.7979 -1.1930
   42CHL1  H24B 4278   1.954   3.951   4.804 -0.6376  0.9447  1.6525
   42CHL1   C25 4279   1.950   4.091   4.631 -0.2198 -0.3666 -0.4029
   42CHL1   H25 4280   1.843   4.123   4.632 -0.1228 -0.0273 -0.6067
   42CHL1   C26 4281   2.041   4.202   4.575  0.6058  0.4442  0.2213
   42CHL1  H26A 4282   2.144   4.160   4.578  0.9890  1.2163 -1.4057
   42CHL1  H26B 4283   2.019   4.217   4.468  1.6274 -0.2246 -0.1036
   42CHL1  H26C 4284   2.021   4.298   4.628 -3.0890  0.6885 -1.3212
   42CHL1   C27 4285   1.944   3.964   4.539 -0.1360  0.5619 -0.4509
   42CHL1  H27A 4286   2.041   3.915   4.563 -0.1611  0.8023  0.1643
   42CHL1  H27B 4287   1.849   3.907   4.556 -0.0309  0.6702  0.5843
   42CHL1  H27C 4288   1.944   3.980   4.429 -0.2058 -0.7761 -0.6663
   43CHL1    C3 4289   2.262   4.790   6.299 -0.0021 -0.3321  0.8079
   43CHL1    H3 4290   2.211   4.889   6.296 -0.3377 -0.3819  3.2879
   43CHL1    O3 4291   2.259   4.750   6.435  0.0269  0.0157  0.0855
   43CHL1   H3' 4292   2.333   4.690   6.444 -1.9816 -3.0436 -1.9539
   43CHL1    C4 4293   2.173   4.696   6.216  0.8893  0.3749 -0.2205
   43CHL1   H4A 4294   2.215   4.594   6.212 -1.9130 -0.8715 -0.4244
   43CHL1   H4B 4295   2.075   4.691   6.269  0.5904 -1.5084 -0.8855
   43CHL1    C5 4296   2.164   4.740   6.074 -0.2838 -0.1815 -0.0891
   43CHL1    C6 4297   2.042   4.765   6.023  0.6603  0.3564 -0.1646
   43CHL1    H6 4298   1.954   4.753   6.088  0.6417  0.8814 -0.0873
   43CHL1    C7 4299   2.007   4.788   5.878  0.2972  0.5874  0.5845
   43CHL1   H7A 4300   1.921   4.727   5.843  0.2850  0.7192  0.3823
   43CHL1   H7B 4301   1.978   4.894   5.866  0.9571  0.6954 -0.2081
   43CHL1    C8 4302   2.137   4.760   5.787 -0.3482 -0.8412  0.4078
   43CHL1    H8 4303   2.146   4.651   5.771 -0.9866 -0.7189 -1.0004
   43CHL1   C14 4304   2.124   4.818   5.646 -0.4868 -0.1716  0.2556
   43CHL1   H14 4305   2.108   4.926   5.665  1.3203  0.0250  0.8786
   43CHL1   C15 4306   1.996   4.770   5.559 -0.2616 -0.3113  0.2709
   43CHL1  H15A 4307   1.981   4.660   5.569 -2.8649 -0.1261 -0.6382
   43CHL1  H15B 4308   1.900   4.816   5.591 -1.0570 -0.7655 -1.3527
   43CHL1   C16 4309   2.033   4.820   5.421 -0.6613 -0.3312  0.1239
   43CHL1  H16A 4310   2.022   4.737   5.347 -0.9047 -1.1976  1.1120
   43CHL1  H16B 4311   1.971   4.903   5.380 -0.5343 -0.8062 -1.0757
   43CHL1   C17 4312   2.188   4.869   5.424  0.1191 -0.3184  0.0505
   43CHL1   H17 4313   2.193   4.975   5.457  1.4064  0.7883 -3.2462
   43CHL1   C13 4314   2.243   4.799   5.550 -0.4724  0.1054  0.5364
   43CHL1   C18 4315   2.275   4.653   5.521  0.2258 -0.6424 -0.0830
   43CHL1  H18A 4316   2.291   4.600   5.618 -0.1098 -2.2469 -0.8773
   43CHL1  H18B 4317   2.183   4.602   5.484  0.7491 -2.0870  0.5358
   43CHL1  H18C 4318   2.361   4.632   5.455 -1.5960 -0.5102 -2.6609
   43CHL1   C12 4319   2.360   4.863   5.631  0.3319  0.7074  0.6068
   43CHL1  H12A 4320   2.444   4.849   5.560 -0.2731  1.9719 -0.4086
   43CHL1  H12B 4321   2.347   4.974   5.630 -0.8662  0.6043 -1.6212
   43CHL1   C11 4322   2.386   4.809   5.770 -0.1418 -0.4064  0.2763
   43CHL1  H11A 4323   2.422   4.706   5.749 -0.6965 -0.2681 -1.5863
   43CHL1  H11B 4324   2.480   4.857   5.805  1.1963 -2.4622 -0.2991
   43CHL1    C9 4325   2.260   4.812   5.863 -0.2120 -0.1238  0.5910
   43CHL1    H9 4326   2.248   4.921   5.882 -1.3712  0.1494 -1.4574
   43CHL1   C10 4327   2.291   4.742   5.996  0.7080  0.1406  0.0009
   43CHL1   C19 4328   2.343   4.600   5.976 -0.4895 -0.3832 -0.8391
   43CHL1  H19A 4329   2.447   4.613   5.939 -0.0521  2.4836  1.0760
   43CHL1  H19B 4330   2.346   4.546   6.073  1.2088 -0.8735 -1.1355
   43CHL1  H19C 4331   2.281   4.536   5.910  0.6247 -1.4278 -0.8973
   43CHL1    C1 4332   2.394   4.823   6.087 -1.0394  0.1131  0.2596
   43CHL1   H1A 4333   2.487   4.808   6.029 -0.3526  0.8184  1.1496
   43CHL1   H1B 4334   2.365   4.930   6.086 -2.5952 -0.1274  3.7944
   43CHL1    C2 4335   2.407   4.787   6.233  0.0764 -0.0845 -0.3150
   43CHL1   H2A 4336   2.478   4.852   6.289 -0.3710  0.3074 -0.1947
   43CHL1   H2B 4337   2.449   4.685   6.247 -2.4356 -1.1885 -0.2577
   43CHL1   C20 4338   2.254   4.845   5.292 -0.1283  0.0049 -0.6807
   43CHL1   H20 4339   2.246   4.736   5.275  1.8517 -0.0128 -1.7010
   43CHL1   C21 4340   2.405   4.877   5.299 -0.7113  0.3008  0.2109
   43CHL1  H21A 4341   2.452   4.802   5.366  0.7044  0.2049 -0.8586
   43CHL1  H21B 4342   2.421   4.985   5.322  2.0942 -0.2899  1.3298
   43CHL1  H21C 4343   2.457   4.855   5.204  3.0113  0.0640  2.1137
   43CHL1   C22 4344   2.181   4.914   5.178  0.3389  0.2711  0.1936
   43CHL1  H22A 4345   2.075   4.887   5.161 -0.6961  2.7774  1.9915
   43CHL1  H22B 4346   2.172   5.022   5.200  1.3712  0.3419  0.3353
   43CHL1   C23 4347   2.252   4.917   5.041 -0.0781  0.0795  0.3461
   43CHL1  H23A 4348   2.339   4.984   5.055 -1.3753  1.8614  0.2646
   43CHL1  H23B 4349   2.283   4.812   5.018 -0.4432 -0.0358  0.3714
   43CHL1   C24 4350   2.170   4.967   4.927  0.0635  0.2259  0.7209
   43CHL1  H24A 4351   2.079   4.903   4.927  0.1305  0.0948 -0.8707
   43CHL1  H24B 4352   2.139   5.070   4.955 -1.0201  0.4508 -1.1543
   43CHL1   C25 4353   2.249   4.966   4.794 -0.0383 -0.9214  0.1064
   43CHL1   H25 4354   2.351   5.004   4.817 -0.3468  0.6036 -0.9445
   43CHL1   C26 4355   2.264   4.829   4.740 -0.6234  0.2355  0.1632
   43CHL1  H26A 4356   2.333   4.837   4.653 -0.7485 -0.4147  0.0040
   43CHL1  H26B 4357   2.305   4.751   4.807 -3.0884 -0.6891  0.6969
   43CHL1  H26C 4358   2.168   4.786   4.705 -1.9540  2.4725  0.8463
   43CHL1   C27 4359   2.186   5.063   4.688 -0.0537  0.5982 -0.4517
   43CHL1  H27A 4360   2.180   5.170   4.715  0.1555  0.8755 -1.4632
   43CHL1  H27B 4361   2.238   5.058   4.590  0.3391 -0.1837 -0.2149
   43CHL1  H27C 4362   2.086   5.022   4.661  0.2127 -0.8087  0.6221
   44CHL1    C3 4363   2.623   1.568   6.118 -0.0820  0.2845 -0.1907
   44CHL1    H3 4364   2.729   1.546   6.093  0.5803 -0.0147  2.6239
   44CHL1    O3 4365   2.622   1.604   6.254  0.0935  0.3912  0.2231
   44CHL1   H3' 4366   2.698   1.662   6.264 -0.2258  0.7473  0.6152
   44CHL1    C4 4367   2.593   1.695   6.035  0.0188  0.2233  0.2531
   44CHL1   H4A 4368   2.495   1.739   6.064 -1.0350 -1.6410 -0.2488
   44CHL1   H4B 4369   2.672   1.768   6.063  0.2783 -0.0459  0.2354
   44CHL1    C5 4370   2.613   1.668   5.885 -0.9399 -0.1482 -1.4173
   44CHL1    C6 4371   2.709   1.724   5.816  0.1561 -0.2331  0.0114
   44CHL1    H6 4372   2.773   1.800   5.865 -1.2315 -0.1036  1.7135
   44CHL1    C7 4373   2.744   1.701   5.676 -0.1036  0.7481 -0.0130
   44CHL1   H7A 4374   2.758   1.798   5.624  1.6168  1.1795  1.1545
   44CHL1   H7B 4375   2.840   1.648   5.668 -0.5654 -0.1332  0.2063
   44CHL1    C8 4376   2.628   1.619   5.611 -0.1732 -0.1990 -0.0601
   44CHL1    H8 4377   2.553   1.700   5.594  2.7621  2.9315  0.7262
   44CHL1   C14 4378   2.682   1.554   5.476 -0.3923 -0.1195 -0.0685
   44CHL1   H14 4379   2.753   1.472   5.503  0.2914  1.0804  2.0025
   44CHL1   C15 4380   2.758   1.640   5.380 -0.8225 -0.0152  0.7484
   44CHL1  H15A 4381   2.722   1.745   5.377  1.1797  0.7071  0.0422
   44CHL1  H15B 4382   2.864   1.652   5.412 -0.3426 -1.5719 -0.1500
   44CHL1   C16 4383   2.743   1.574   5.239  0.0520  0.1350  0.6504
   44CHL1  H16A 4384   2.684   1.640   5.172 -1.5873 -2.0634 -0.1421
   44CHL1  H16B 4385   2.835   1.544   5.185 -1.6991  1.0422 -3.1553
   44CHL1   C17 4386   2.657   1.447   5.269  0.5152  1.0618  0.5207
   44CHL1   H17 4387   2.714   1.355   5.295 -2.6321 -1.2748 -0.2500
   44CHL1   C13 4388   2.576   1.486   5.399 -0.1651  0.5976 -0.2309
   44CHL1   C18 4389   2.460   1.584   5.365  0.3906  0.4662  0.2866
   44CHL1  H18A 4390   2.389   1.552   5.286  0.6179  1.6822 -0.4284
   44CHL1  H18B 4391   2.404   1.608   5.457 -1.2088  0.2879 -0.6059
   44CHL1  H18C 4392   2.506   1.680   5.333  2.1671 -1.0898 -2.2451
   44CHL1   C12 4393   2.526   1.359   5.486 -0.3817  0.2808 -1.1826
   44CHL1  H12A 4394   2.438   1.308   5.441 -0.1525 -1.1386 -0.0888
   44CHL1  H12B 4395   2.607   1.282   5.489  2.8099  3.4037 -0.2999
   44CHL1   C11 4396   2.475   1.409   5.625  0.1177 -0.2400  0.7521
   44CHL1  H11A 4397   2.373   1.452   5.612  0.7386  1.4476  1.1820
   44CHL1  H11B 4398   2.465   1.317   5.687  3.2772 -0.5784  0.9246
   44CHL1    C9 4399   2.572   1.508   5.700 -0.2426  0.5374  0.3373
   44CHL1    H9 4400   2.658   1.439   5.717  0.5804  1.8879  1.9956
   44CHL1   C10 4401   2.530   1.548   5.839 -0.2450 -0.0715  0.1023
   44CHL1   C19 4402   2.394   1.607   5.828 -0.0581 -0.2853  0.2417
   44CHL1  H19A 4403   2.382   1.671   5.738  0.6108 -1.3791 -0.6411
   44CHL1  H19B 4404   2.315   1.530   5.818  0.3417 -0.4113 -2.6837
   44CHL1  H19C 4405   2.356   1.658   5.920  0.0404  0.9923 -0.4034
   44CHL1    C1 4406   2.538   1.426   5.934 -0.1646 -0.4463  0.1979
   44CHL1   H1A 4407   2.461   1.350   5.911  1.2616 -2.0514  0.5746
   44CHL1   H1B 4408   2.633   1.372   5.922  0.8798  1.0561  1.2327
   44CHL1    C2 4409   2.529   1.464   6.088  0.9772  0.0596  0.3588
   44CHL1   H2A 4410   2.545   1.366   6.139 -0.9838 -2.2789 -3.1571
   44CHL1   H2B 4411   2.427   1.499   6.114  1.6095  0.3839  2.6565
   44CHL1   C20 4412   2.576   1.406   5.141 -0.0028  0.4384  1.2305
   44CHL1   H20 4413   2.488   1.471   5.127 -1.3686 -1.5384  0.2060
   44CHL1   C21 4414   2.513   1.265   5.172 -0.0719 -0.8569  0.4532
   44CHL1  H21A 4415   2.589   1.203   5.226  1.6024  0.5630 -0.1617
   44CHL1  H21B 4416   2.490   1.214   5.076  4.5289 -0.1851 -1.2918
   44CHL1  H21C 4417   2.421   1.267   5.234  0.0532  0.3102  0.6208
   44CHL1   C22 4418   2.659   1.408   5.007 -0.7665  0.2176 -0.2923
   44CHL1  H22A 4419   2.704   1.507   4.985 -2.0132  0.9330  0.2863
   44CHL1  H22B 4420   2.745   1.337   5.018  0.5924  1.5651 -1.7523
   44CHL1   C23 4421   2.579   1.380   4.876  0.7109 -0.3553  0.4039
   44CHL1  H23A 4422   2.543   1.275   4.870 -0.4597 -0.0569  1.7744
   44CHL1  H23B 4423   2.494   1.452   4.881  0.1426 -1.0563  0.8652
   44CHL1   C24 4424   2.664   1.407   4.750 -0.1485  0.1588 -0.1405
   44CHL1  H24A 4425   2.697   1.512   4.736  0.8653  0.0136  0.9932
   44CHL1  H24B 4426   2.758   1.349   4.760 -1.0910 -1.3961  0.0021
   44CHL1   C25 4427   2.597   1.364   4.616 -0.9831 -0.2727 -0.0552
   44CHL1   H25 4428   2.556   1.261   4.623 -2.2347  0.2868  2.1665
   44CHL1   C26 4429   2.469   1.442   4.602  0.1212  0.2873  0.1037
   44CHL1  H26A 4430   2.400   1.417   4.685  1.1273 -3.4759 -0.0384
   44CHL1  H26B 4431   2.482   1.552   4.587  0.5874 -0.0892 -3.0587
   44CHL1  H26C 4432   2.420   1.408   4.508 -0.9271  1.3743  0.2178
   44CHL1   C27 4433   2.685   1.372   4.494  0.5268 -0.2001  0.1576
   44CHL1  H27A 4434   2.756   1.287   4.490 -1.5492 -2.0624  0.7488
   44CHL1  H27B 4435   2.621   1.359   4.404 -3.0785  0.4273  2.4239
   44CHL1  H27C 4436   2.741   1.468   4.490 -1.6509  1.1551  0.3417
   45CHL1    C3 4437   3.622   2.780   5.824  0.5267  0.4398  0.9404
   45CHL1    H3 4438   3.597   2.883   5.791 -1.3819 -0.2072  0.2294
   45CHL1    O3 4439   3.652   2.771   5.963 -0.0799  0.2664  0.2501
   45CHL1   H3' 4440   3.615   2.850   6.003 -0.2837  0.2237  0.1477
   45CHL1    C4 4441   3.496   2.689   5.794 -0.6531  0.4549  0.5234
   45CHL1   H4A 4442   3.511   2.582   5.819 -0.8964  0.2336 -0.2464
   45CHL1   H4B 4443   3.412   2.712   5.863 -0.2338 -0.8215  1.5007
   45CHL1    C5 4444   3.461   2.693   5.649  0.3637  0.7618  0.9504
   45CHL1    C6 4445   3.338   2.733   5.601 -0.0615 -0.3114 -0.4352
   45CHL1    H6 4446   3.255   2.744   5.672  0.2810 -0.5267  0.0047
   45CHL1    C7 4447   3.301   2.736   5.457 -0.0103  0.0267  0.3621
   45CHL1   H7A 4448   3.198   2.697   5.448  0.0099  0.3245 -1.6675
   45CHL1   H7B 4449   3.299   2.843   5.429 -0.4642 -0.0039  0.2719
   45CHL1    C8 4450   3.410   2.653   5.372 -0.6815 -0.1789  0.2688
   45CHL1    H8 4451   3.394   2.544   5.388  0.6793 -0.4092  0.2040
   45CHL1   C14 4452   3.387   2.682   5.224  0.3899  1.2110  0.1849
   45CHL1   H14 4453   3.408   2.791   5.215 -1.0809  1.7653  2.6173
   45CHL1   C15 4454   3.245   2.659   5.164 -0.1653  0.5697 -0.5408
   45CHL1  H15A 4455   3.204   2.564   5.204 -0.8828  0.2220 -2.0088
   45CHL1  H15B 4456   3.184   2.746   5.197 -0.2248  0.5517 -0.6025
   45CHL1   C16 4457   3.278   2.644   5.021  0.3102 -0.6242 -0.6824
   45CHL1  H16A 4458   3.234   2.549   4.985  0.8851 -1.2193  0.1414
   45CHL1  H16B 4459   3.238   2.731   4.964  0.6420  0.9782  1.3607
   45CHL1   C17 4460   3.429   2.652   4.992  0.0804 -0.5688  0.0956
   45CHL1   H17 4461   3.451   2.760   4.979 -0.0802 -0.7343 -1.9395
   45CHL1   C13 4462   3.491   2.616   5.128  0.7425 -0.7486  0.4068
   45CHL1   C18 4463   3.476   2.463   5.127  0.1884 -0.7305  0.0665
   45CHL1  H18A 4464   3.372   2.429   5.114  0.0554 -0.3383  0.0765
   45CHL1  H18B 4465   3.543   2.409   5.057  0.9346  0.5137 -0.2230
   45CHL1  H18C 4466   3.500   2.428   5.230 -0.2817 -1.7208 -0.1480
   45CHL1   C12 4467   3.638   2.665   5.165 -0.3863  0.2987 -0.5806
   45CHL1  H12A 4468   3.718   2.613   5.108 -1.1806 -1.4976 -0.1163
   45CHL1  H12B 4469   3.636   2.771   5.133  0.1884  0.2961 -0.6440
   45CHL1   C11 4470   3.661   2.632   5.318 -0.5800 -0.1175  0.6476
   45CHL1  H11A 4471   3.671   2.521   5.324 -0.8933 -0.3398 -1.8544
   45CHL1  H11B 4472   3.761   2.677   5.333 -0.9395  1.2836 -0.8692
   45CHL1    C9 4473   3.555   2.685   5.411  0.0488 -1.1794 -0.3519
   45CHL1    H9 4474   3.552   2.795   5.394  0.9634 -1.0679  0.1834
   45CHL1   C10 4475   3.585   2.653   5.561 -0.0828  0.1646  0.7334
   45CHL1   C19 4476   3.601   2.510   5.572  0.2913  0.2764 -0.1225
   45CHL1  H19A 4477   3.639   2.492   5.675  0.1317 -0.3186 -0.1657
   45CHL1  H19B 4478   3.509   2.452   5.553 -0.7568  2.0456 -0.6526
   45CHL1  H19C 4479   3.685   2.463   5.517  0.3000 -0.7774  0.7463
   45CHL1    C1 4480   3.718   2.735   5.601 -0.0155  0.0686  0.5097
   45CHL1   H1A 4481   3.809   2.692   5.554 -0.0135  0.9591 -0.3441
   45CHL1   H1B 4482   3.712   2.842   5.572  1.2607  0.0735  0.2246
   45CHL1    C2 4483   3.744   2.735   5.746  0.2999  0.0753 -0.4169
   45CHL1   H2A 4484   3.836   2.789   5.775 -0.4495  1.1992 -0.0210
   45CHL1   H2B 4485   3.770   2.631   5.774  0.9613 -0.3283 -2.3422
   45CHL1   C20 4486   3.471   2.581   4.864 -0.2473  0.1578  0.1507
   45CHL1   H20 4487   3.430   2.478   4.872 -0.8374  0.3956  0.2462
   45CHL1   C21 4488   3.616   2.571   4.835 -0.5485 -0.2532 -0.1755
   45CHL1  H21A 4489   3.648   2.673   4.804 -0.3245 -0.5682 -1.0068
   45CHL1  H21B 4490   3.640   2.500   4.752 -0.7114  1.2709 -1.5658
   45CHL1  H21C 4491   3.681   2.539   4.919 -0.0831 -0.3648 -0.5690
   45CHL1   C22 4492   3.399   2.652   4.736 -0.1116  0.4069  0.4258
   45CHL1  H22A 4493   3.292   2.671   4.755 -0.1923  0.4511 -0.0713
   45CHL1  H22B 4494   3.432   2.758   4.735 -3.3745  1.5064 -1.2760
   45CHL1   C23 4495   3.423   2.593   4.596 -0.1810 -0.0303  0.5734
   45CHL1  H23A 4496   3.517   2.642   4.563 -0.4257  1.5539  2.0582
   45CHL1  H23B 4497   3.424   2.483   4.608  0.8020 -0.0239  0.6649
   45CHL1   C24 4498   3.310   2.626   4.501 -0.4789 -0.4363  0.2653
   45CHL1  H24A 4499   3.213   2.604   4.551 -0.7866 -0.1856 -0.2119
   45CHL1  H24B 4500   3.313   2.735   4.480  1.2558 -0.0503  2.1947
   45CHL1   C25 4501   3.331   2.563   4.370 -0.2312  0.7432  0.1776
   45CHL1   H25 4502   3.437   2.575   4.339 -0.4462  1.4633 -0.3019
   45CHL1   C26 4503   3.306   2.407   4.385  0.0576 -1.1543  0.0193
   45CHL1  H26A 4504   3.321   2.364   4.284 -0.1588 -3.7805  1.0270
   45CHL1  H26B 4505   3.377   2.359   4.456  1.0846 -1.7058 -1.3484
   45CHL1  H26C 4506   3.200   2.398   4.417 -0.1186 -0.9313 -0.4918
   45CHL1   C27 4507   3.240   2.619   4.266  0.0414 -0.0073  0.3328
   45CHL1  H27A 4508   3.239   2.571   4.166  2.5430  1.7859 -0.6571
   45CHL1  H27B 4509   3.134   2.623   4.298 -0.4454 -1.0459 -1.0755
   45CHL1  H27C 4510   3.268   2.724   4.242 -1.2409  0.3613  0.3677
   46CHL1    C3 4511   1.223   5.468   6.105  0.7333  0.2066 -0.2543
   46CHL1    H3 4512   1.170   5.564   6.091 -1.2983 -0.6366  1.0633
   46CHL1    O3 4513   1.220   5.445   6.244  0.3842 -0.7062  0.5102
   46CHL1   H3' 4514   1.288   5.383   6.271  0.9656  0.1003  0.9163
   46CHL1    C4 4515   1.151   5.363   6.026  0.1625  0.0255  0.0837
   46CHL1   H4A 4516   1.206   5.268   6.041  0.0141 -0.2470 -1.0560
   46CHL1   H4B 4517   1.048   5.346   6.065 -0.2365  0.6254 -0.6760
   46CHL1    C5 4518   1.144   5.390   5.880  0.3834 -0.0848 -0.1413
   46CHL1    C6 4519   1.035   5.422   5.807  0.0986  0.0150 -1.0191
   46CHL1    H6 4520   0.938   5.433   5.857  1.0228  3.2012  0.3122
   46CHL1    C7 4521   1.034   5.451   5.660 -0.5124  0.4507  0.5002
   46CHL1   H7A 4522   0.958   5.385   5.613 -1.3518  0.0964  2.3132
   46CHL1   H7B 4523   1.016   5.556   5.629 -0.6347 -0.0160 -1.1090
   46CHL1    C8 4524   1.169   5.411   5.599  0.4453 -0.4414 -0.3165
   46CHL1    H8 4525   1.180   5.302   5.579 -0.4397 -0.3304 -1.5545
   46CHL1   C14 4526   1.183   5.470   5.460 -0.1467 -0.0235  0.2097
   46CHL1   H14 4527   1.187   5.579   5.477 -0.0662 -0.3022  2.3614
   46CHL1   C15 4528   1.071   5.445   5.356  0.3967 -0.2840 -0.0467
   46CHL1  H15A 4529   1.042   5.338   5.364  2.2582 -0.6827  2.9492
   46CHL1  H15B 4530   0.990   5.515   5.385 -0.7286 -1.2219 -0.8397
   46CHL1   C16 4531   1.126   5.485   5.222 -0.2404 -0.7087  0.1384
   46CHL1  H16A 4532   1.108   5.395   5.159 -0.3964 -0.0051 -0.8352
   46CHL1  H16B 4533   1.083   5.574   5.171  0.1793 -0.0226  0.9577
   46CHL1   C17 4534   1.282   5.508   5.245  0.6838  0.3548 -0.6288
   46CHL1   H17 4535   1.297   5.618   5.252 -0.6604  0.4489  2.0315
   46CHL1   C13 4536   1.308   5.431   5.382 -0.3927  0.1173 -0.4920
   46CHL1   C18 4537   1.320   5.281   5.350 -0.3050  0.3417 -0.5156
   46CHL1  H18A 4538   1.330   5.226   5.446  1.4640 -2.6813 -2.2687
   46CHL1  H18B 4539   1.238   5.238   5.289 -0.7760 -0.5576  0.7206
   46CHL1  H18C 4540   1.420   5.257   5.307 -0.6073  0.7397 -1.4582
   46CHL1   C12 4541   1.425   5.480   5.465  0.0357 -0.0861  0.1791
   46CHL1  H12A 4542   1.515   5.439   5.414  1.1982  0.9248  1.3422
   46CHL1  H12B 4543   1.443   5.589   5.464 -1.6765  0.2268 -1.9003
   46CHL1   C11 4544   1.431   5.431   5.610  0.2834 -0.0285  0.0151
   46CHL1  H11A 4545   1.456   5.323   5.606 -1.3037 -0.5170  1.9108
   46CHL1  H11B 4546   1.516   5.474   5.666  0.8207  0.0532 -0.8425
   46CHL1    C9 4547   1.296   5.449   5.681 -0.2277  0.0495 -0.3835
   46CHL1    H9 4548   1.285   5.558   5.699 -2.1534 -0.2095  0.1565
   46CHL1   C10 4549   1.289   5.393   5.824  0.3668 -0.4064 -0.0603
   46CHL1   C19 4550   1.338   5.246   5.816 -0.8010  0.4701 -0.1812
   46CHL1  H19A 4551   1.447   5.236   5.793 -0.8933  0.8806 -0.8514
   46CHL1  H19B 4552   1.321   5.193   5.912 -1.3980  2.3836  0.8246
   46CHL1  H19C 4553   1.284   5.193   5.735  0.2908 -2.9086  1.1605
   46CHL1    C1 4554   1.377   5.488   5.912  0.1706  0.1090  0.5889
   46CHL1   H1A 4555   1.482   5.483   5.877  0.2122  1.6905  0.4396
   46CHL1   H1B 4556   1.340   5.589   5.882  1.8392 -0.3053 -3.5802
   46CHL1    C2 4557   1.365   5.466   6.063  0.2994  0.4496 -0.4215
   46CHL1   H2A 4558   1.423   5.538   6.125  2.8839 -0.1546 -1.9508
   46CHL1   H2B 4559   1.404   5.363   6.076  1.4622  0.5612 -2.4688
   46CHL1   C20 4560   1.371   5.469   5.126 -0.4044 -0.8348 -0.7825
   46CHL1   H20 4561   1.369   5.361   5.102  1.4568 -1.4695  1.5292
   46CHL1   C21 4562   1.516   5.515   5.149  0.1379 -0.0376 -0.1842
   46CHL1  H21A 4563   1.525   5.611   5.204 -3.1648  1.0834 -1.3505
   46CHL1  H21B 4564   1.570   5.518   5.053 -0.7857 -2.4793 -0.8721
   46CHL1  H21C 4565   1.559   5.429   5.204 -2.9359 -1.0096  0.9651
   46CHL1   C22 4566   1.302   5.533   4.999 -0.6145 -0.7198  0.1846
   46CHL1  H22A 4567   1.199   5.499   4.974 -0.9700  0.0458  0.5726
   46CHL1  H22B 4568   1.317   5.643   5.000  0.8917 -0.8870 -0.8288
   46CHL1   C23 4569   1.366   5.474   4.870  0.2815  0.2534 -0.7799
   46CHL1  H23A 4570   1.473   5.499   4.857  0.6148 -0.7102  0.0272
   46CHL1  H23B 4571   1.369   5.363   4.880  0.9125  0.2382 -1.0632
   46CHL1   C24 4572   1.291   5.531   4.739  0.1522  0.0667 -0.7306
   46CHL1  H24A 4573   1.195   5.475   4.731  0.9327 -0.9925 -4.1391
   46CHL1  H24B 4574   1.284   5.640   4.760 -1.2937 -0.3366  1.2842
   46CHL1   C25 4575   1.382   5.505   4.620  0.4211  0.0428 -0.3440
   46CHL1   H25 4576   1.481   5.554   4.637 -1.0690  3.0286  0.5146
   46CHL1   C26 4577   1.387   5.353   4.589  0.7538  0.3904 -0.8008
   46CHL1  H26A 4578   1.459   5.298   4.654  0.0791  1.6581  1.1094
   46CHL1  H26B 4579   1.285   5.309   4.597  1.2766 -0.7648 -0.1401
   46CHL1  H26C 4580   1.418   5.336   4.484 -0.9310 -0.6062 -1.1711
   46CHL1   C27 4581   1.321   5.577   4.502 -0.3381 -0.0824  0.7027
   46CHL1  H27A 4582   1.345   5.684   4.517 -0.1147 -0.2067  1.2723
   46CHL1  H27B 4583   1.362   5.534   4.408  0.7228  2.2626  0.0195
   46CHL1  H27C 4584   1.211   5.576   4.490 -0.1781  2.0051 -1.6787
   47CHL1    C3 4585   5.169   3.572   5.874  0.4380 -0.2702  0.9182
   47CHL1    H3 4586   5.075   3.625   5.848  1.0994  0.0476 -0.9287
   47CHL1    O3 4587   5.186   3.553   6.014  0.7480 -0.1434 -0.0673
   47CHL1   H3' 4588   5.110   3.496   6.029  0.6430  0.2923  1.2032
   47CHL1    C4 4589   5.168   3.428   5.825  0.1615 -0.0085  0.0438
   47CHL1   H4A 4590   5.262   3.375   5.854  0.2559  0.6831  1.0588
   47CHL1   H4B 4591   5.106   3.357   5.884  2.1869 -1.1604  0.9029
   47CHL1    C5 4592   5.125   3.432   5.681 -0.1727 -0.2384 -0.0894
   47CHL1    C6 4593   5.012   3.381   5.628  0.3727 -0.7423 -0.3439
   47CHL1    H6 4594   4.938   3.336   5.695 -0.5046  1.8416  0.5455
   47CHL1    C7 4595   4.982   3.382   5.474 -0.3137  0.6016 -0.8295
   47CHL1   H7A 4596   4.970   3.275   5.448  1.0002 -0.4545  2.4048
   47CHL1   H7B 4597   4.886   3.433   5.447 -1.8807 -0.7596  1.8094
   47CHL1    C8 4598   5.106   3.420   5.388 -0.3840  0.0531 -0.4578
   47CHL1    H8 4599   5.170   3.330   5.401 -1.5609 -0.7674 -0.1671
   47CHL1   C14 4600   5.062   3.451   5.245 -0.3033 -0.1046  0.9046
   47CHL1   H14 4601   4.993   3.538   5.245  0.2197  0.4094 -1.9373
   47CHL1   C15 4602   4.975   3.351   5.171 -0.1130  0.2183  0.1871
   47CHL1  H15A 4603   4.996   3.244   5.190 -0.5832 -0.3186 -2.0129
   47CHL1  H15B 4604   4.873   3.362   5.212 -0.2936  1.3016 -0.4737
   47CHL1   C16 4605   5.001   3.385   5.025 -0.5147  0.2654  0.2719
   47CHL1  H16A 4606   5.051   3.293   4.988 -2.2035 -0.1988 -0.9723
   47CHL1  H16B 4607   4.909   3.420   4.974  0.1811 -1.0733 -2.0493
   47CHL1   C17 4608   5.108   3.500   5.018  0.4902  0.2731  0.2108
   47CHL1   H17 4609   5.038   3.586   5.014 -0.6332 -0.2855  3.8506
   47CHL1   C13 4610   5.179   3.485   5.153 -0.7557 -0.5142  0.2517
   47CHL1   C18 4611   5.283   3.368   5.153  0.2478 -1.0358  0.7906
   47CHL1  H18A 4612   5.350   3.380   5.240 -1.2123  0.3199  1.7892
   47CHL1  H18B 4613   5.234   3.269   5.169 -2.4059  0.1521  0.5410
   47CHL1  H18C 4614   5.346   3.362   5.062  0.0821 -0.4084  0.6346
   47CHL1   C12 4615   5.240   3.617   5.212 -0.0817 -0.0382 -0.5951
   47CHL1  H12A 4616   5.329   3.641   5.150 -1.4454 -1.1135 -3.0837
   47CHL1  H12B 4617   5.163   3.697   5.210  0.0155  0.0449 -1.8496
   47CHL1   C11 4618   5.287   3.612   5.357  0.0055  0.3895  0.0336
   47CHL1  H11A 4619   5.385   3.560   5.361 -1.8506 -3.3712  1.1422
   47CHL1  H11B 4620   5.315   3.716   5.386  1.4237  0.0404 -0.0056
   47CHL1    C9 4621   5.174   3.544   5.452  0.0684 -0.1100  0.7014
   47CHL1    H9 4622   5.094   3.620   5.453 -2.1503 -2.2537 -0.8966
   47CHL1   C10 4623   5.231   3.512   5.594  0.4197 -0.3114 -0.0967
   47CHL1   C19 4624   5.360   3.428   5.578 -0.1434 -0.3970 -0.0233
   47CHL1  H19A 4625   5.356   3.353   5.496 -1.1764 -0.1444 -0.2164
   47CHL1  H19B 4626   5.434   3.501   5.541 -0.0762 -0.4710 -0.0363
   47CHL1  H19C 4627   5.384   3.386   5.679  1.6424  1.4171  0.3717
   47CHL1    C1 4628   5.271   3.646   5.658  0.5499 -0.1069  0.4510
   47CHL1   H1A 4629   5.359   3.693   5.610  1.3760  0.7811  2.6719
   47CHL1   H1B 4630   5.187   3.716   5.638 -0.1287 -1.7397 -3.3834
   47CHL1    C2 4631   5.294   3.643   5.805  0.5061 -0.5050  0.2697
   47CHL1   H2A 4632   5.305   3.745   5.846 -1.0029  1.4952 -3.8225
   47CHL1   H2B 4633   5.384   3.588   5.840  0.3470 -0.7838  0.2473
   47CHL1   C20 4634   5.183   3.502   4.890  0.1062  0.7516  0.7156
   47CHL1   H20 4635   5.256   3.419   4.890 -1.0770 -0.3414 -0.5813
   47CHL1   C21 4636   5.250   3.633   4.874  0.2030  1.0839  0.1754
   47CHL1  H21A 4637   5.325   3.656   4.953  1.3516  0.3250 -0.6663
   47CHL1  H21B 4638   5.173   3.713   4.874 -1.4157 -0.4163  0.2675
   47CHL1  H21C 4639   5.310   3.627   4.781  2.2206 -0.9679  1.4843
   47CHL1   C22 4640   5.096   3.469   4.765  0.4125  0.1083 -0.5171
   47CHL1  H22A 4641   5.169   3.475   4.681  2.3101  2.5668  1.1383
   47CHL1  H22B 4642   5.047   3.371   4.781 -0.9528  0.7865 -0.4229
   47CHL1   C23 4643   4.978   3.565   4.739  0.0771  0.1100  0.6718
   47CHL1  H23A 4644   4.907   3.560   4.824 -1.1105 -1.4139 -0.3749
   47CHL1  H23B 4645   5.011   3.671   4.742  0.4370  0.0570 -0.8366
   47CHL1   C24 4646   4.910   3.528   4.614  0.0328  0.7985  0.4015
   47CHL1  H24A 4647   4.980   3.548   4.531  1.0112  1.9769  1.4779
   47CHL1  H24B 4648   4.878   3.421   4.615  0.3779  0.5881 -2.4996
   47CHL1   C25 4649   4.789   3.610   4.586  0.2158 -0.6816 -0.5820
   47CHL1   H25 4650   4.717   3.601   4.670  1.6278 -2.0284  0.5493
   47CHL1   C26 4651   4.830   3.761   4.558  0.7371 -0.0353 -0.6029
   47CHL1  H26A 4652   4.909   3.756   4.479 -0.3559  0.3765 -1.7631
   47CHL1  H26B 4653   4.738   3.812   4.521  0.1919  1.6363  2.6800
   47CHL1  H26C 4654   4.868   3.803   4.653  0.0639 -1.1870  0.2078
   47CHL1   C27 4655   4.715   3.555   4.458  0.0380 -0.1733 -0.5278
   47CHL1  H27A 4656   4.613   3.597   4.444  0.0859  0.0465 -0.2130
   47CHL1  H27B 4657   4.782   3.583   4.374 -1.1469 -0.4961 -1.6214
   47CHL1  H27C 4658   4.709   3.446   4.480 -2.0955  0.1869  0.9157
   48CHL1    C3 4659   6.708   3.762   6.146  0.0680  0.0045  0.1891
   48CHL1    H3 4660   6.689   3.653   6.137  0.5184  0.0482 -1.8406
   48CHL1    O3 4661   6.741   3.804   6.278 -0.2004  0.1756 -0.2485
   48CHL1   H3' 4662   6.832   3.772   6.285 -0.0680 -0.0721 -2.3819
   48CHL1    C4 4663   6.829   3.793   6.058 -0.5030  0.2595 -0.9704
   48CHL1   H4A 4664   6.858   3.900   6.064  0.9717 -0.1940  0.7697
   48CHL1   H4B 4665   6.921   3.758   6.110 -0.8588 -1.4341 -1.3941
   48CHL1    C5 4666   6.819   3.739   5.925  0.1646  0.0628 -0.1815
   48CHL1    C6 4667   6.903   3.639   5.874  0.6500 -0.0319  0.1187
   48CHL1    H6 4668   6.984   3.604   5.940 -0.0658  2.0642  2.2433
   48CHL1    C7 4669   6.887   3.586   5.731  0.0285 -0.2013  0.3708
   48CHL1   H7A 4670   6.986   3.587   5.680 -0.1322  1.2422  0.0629
   48CHL1   H7B 4671   6.847   3.482   5.731 -1.8659  0.4681  1.7702
   48CHL1    C8 4672   6.785   3.666   5.641 -0.4566 -0.2209 -0.1748
   48CHL1    H8 4673   6.841   3.752   5.599 -0.3553 -0.8727 -1.4167
   48CHL1   C14 4674   6.738   3.582   5.534 -0.7737 -0.0991  0.0251
   48CHL1   H14 4675   6.673   3.500   5.571 -0.5688 -0.2375  0.0853
   48CHL1   C15 4676   6.845   3.515   5.450 -0.6596 -0.1131  0.6300
   48CHL1  H15A 4677   6.921   3.595   5.432 -1.6981  0.8722  0.4902
   48CHL1  H15B 4678   6.894   3.426   5.495 -0.7608 -0.2928  0.3860
   48CHL1   C16 4679   6.776   3.491   5.313 -0.2194 -0.6352  0.6783
   48CHL1  H16A 4680   6.833   3.551   5.239 -1.0243  0.9221  1.2800
   48CHL1  H16B 4681   6.787   3.381   5.299  0.4224 -0.3540 -1.4919
   48CHL1   C17 4682   6.630   3.548   5.327 -0.2235  0.0300  0.1753
   48CHL1   H17 4683   6.572   3.469   5.380 -2.0143 -0.1421 -1.8919
   48CHL1   C13 4684   6.645   3.656   5.438  0.1575  0.0784  0.7247
   48CHL1   C18 4685   6.693   3.792   5.381  0.6903  0.5055 -0.3927
   48CHL1  H18A 4686   6.743   3.858   5.455  0.3779 -1.0390  1.2441
   48CHL1  H18B 4687   6.765   3.779   5.298 -0.3342  0.7519 -1.3502
   48CHL1  H18C 4688   6.605   3.847   5.339  1.7580  2.2320 -0.4849
   48CHL1   C12 4689   6.520   3.685   5.517 -0.2866 -0.2720  0.9644
   48CHL1  H12A 4690   6.453   3.744   5.450 -1.6195  0.0166  2.4956
   48CHL1  H12B 4691   6.472   3.591   5.551  1.2252 -0.8194  1.6645
   48CHL1   C11 4692   6.555   3.783   5.636  0.1404  0.4619  0.3936
   48CHL1  H11A 4693   6.594   3.879   5.596  2.5421  0.0469  1.5388
   48CHL1  H11B 4694   6.464   3.800   5.697  0.7202 -2.2668  2.1878
   48CHL1    C9 4695   6.663   3.719   5.722 -0.3700  0.1743  0.5362
   48CHL1    H9 4696   6.613   3.629   5.763 -0.7552  0.2888  0.3295
   48CHL1   C10 4697   6.695   3.802   5.849  0.0833 -0.3005 -0.2773
   48CHL1   C19 4698   6.723   3.949   5.808 -0.1255  0.2312  0.4090
   48CHL1  H19A 4699   6.634   3.984   5.752 -1.4755 -0.8362  1.8183
   48CHL1  H19B 4700   6.737   4.009   5.900 -0.4799  0.1147  0.5366
   48CHL1  H19C 4701   6.807   3.957   5.735 -0.6652 -0.9502 -0.3673
   48CHL1    C1 4702   6.567   3.798   5.939 -0.6531 -0.7143 -0.1405
   48CHL1   H1A 4703   6.488   3.862   5.894 -0.5756 -0.7998 -0.4011
   48CHL1   H1B 4704   6.526   3.695   5.940 -4.3952  0.5719 -1.5310
   48CHL1    C2 4705   6.588   3.837   6.089 -0.1021 -0.1863 -0.3127
   48CHL1   H2A 4706   6.503   3.820   6.158  1.3021 -0.3799  1.4167
   48CHL1   H2B 4707   6.615   3.945   6.087  1.6754 -0.5725  0.8858
   48CHL1   C20 4708   6.560   3.583   5.202 -0.2521  0.5261  1.0188
   48CHL1   H20 4709   6.466   3.641   5.218 -1.5985 -0.7488 -1.6841
   48CHL1   C21 4710   6.509   3.443   5.152 -0.3339  0.2744 -0.3438
   48CHL1  H21A 4711   6.417   3.455   5.092 -1.7156 -0.5102  1.5249
   48CHL1  H21B 4712   6.595   3.398   5.097 -0.1240  1.7937 -1.3087
   48CHL1  H21C 4713   6.480   3.378   5.238  3.4090  0.0611  0.9515
   48CHL1   C22 4714   6.636   3.662   5.082 -0.5472 -0.0636  0.1410
   48CHL1  H22A 4715   6.659   3.762   5.125  0.0977 -0.1441 -0.0023
   48CHL1  H22B 4716   6.734   3.618   5.055 -0.8779 -1.2287  0.8031
   48CHL1   C23 4717   6.558   3.680   4.955 -1.1486  0.4014  0.0426
   48CHL1  H23A 4718   6.533   3.577   4.920 -1.7697  0.3382  0.6347
   48CHL1  H23B 4719   6.458   3.727   4.963 -0.1283  3.3926 -2.7306
   48CHL1   C24 4720   6.639   3.757   4.854 -0.2238 -0.4619  0.0312
   48CHL1  H24A 4721   6.644   3.862   4.890 -1.0582 -0.4559  0.1539
   48CHL1  H24B 4722   6.740   3.716   4.834  0.5034  1.1899  0.1565
   48CHL1   C25 4723   6.574   3.787   4.716  0.0177  0.6784  0.5859
   48CHL1   H25 4724   6.649   3.852   4.666  0.4777  0.2915  0.7527
   48CHL1   C26 4725   6.568   3.655   4.632 -0.7187 -0.2073 -0.2743
   48CHL1  H26A 4726   6.668   3.608   4.645 -0.7646 -0.2911 -0.2282
   48CHL1  H26B 4727   6.487   3.597   4.681  0.7001 -1.6498  0.4328
   48CHL1  H26C 4728   6.539   3.687   4.530 -2.9213 -0.3449  0.2607
   48CHL1   C27 4729   6.432   3.853   4.712  0.5066  0.3251  0.0939
   48CHL1  H27A 4730   6.352   3.784   4.745  0.0549  0.4609 -0.6841
   48CHL1  H27B 4731   6.433   3.929   4.793 -0.9187 -2.5742  3.0635
   48CHL1  H27C 4732   6.413   3.902   4.614 -1.4272 -1.0880 -0.2755
   49CHL1    C3 4733   6.046   2.721   3.036 -0.3647 -0.1324  0.6098
   49CHL1    H3 4734   5.950   2.725   3.091  0.1100  1.4632  1.3715
   49CHL1    O3 4735   6.030   2.763   2.906 -0.5644  0.2208  0.4539
   49CHL1   H3' 4736   5.959   2.708   2.872 -2.1074  1.2403  1.8963
   49CHL1    C4 4737   6.145   2.820   3.104 -0.7147 -0.2014  0.2258
   49CHL1   H4A 4738   6.229   2.834   3.033 -3.1772  0.7793 -2.6873
   49CHL1   H4B 4739   6.099   2.919   3.087  0.5323  0.4443  0.4713
   49CHL1    C5 4740   6.176   2.789   3.243  0.1977  0.2624  0.0830
   49CHL1    C6 4741   6.150   2.872   3.345 -0.0591 -0.1202 -0.0205
   49CHL1    H6 4742   6.103   2.968   3.319 -2.5572 -1.4713 -0.8658
   49CHL1    C7 4743   6.175   2.846   3.490 -0.1087  0.2661  0.8105
   49CHL1   H7A 4744   6.230   2.934   3.529 -0.9757  1.2727 -0.1567
   49CHL1   H7B 4745   6.076   2.848   3.540 -0.8900 -0.1787 -0.6597
   49CHL1    C8 4746   6.260   2.714   3.510 -0.0603 -0.7358  0.4600
   49CHL1    H8 4747   6.368   2.731   3.494  0.5370 -2.7567  1.8267
   49CHL1   C14 4748   6.253   2.673   3.656 -0.3387  0.3244  0.0327
   49CHL1   H14 4749   6.145   2.669   3.682 -0.7646  0.4430 -1.6156
   49CHL1   C15 4750   6.315   2.771   3.756  0.8249 -0.2504  0.2890
   49CHL1  H15A 4751   6.420   2.798   3.730  0.8884 -0.0176  0.7734
   49CHL1  H15B 4752   6.262   2.868   3.758  1.1678 -0.0497 -0.2082
   49CHL1   C16 4753   6.306   2.694   3.895  0.0978  0.7156 -0.2379
   49CHL1  H16A 4754   6.397   2.711   3.957  1.1350  2.9582 -2.2138
   49CHL1  H16B 4755   6.211   2.729   3.939 -1.9611 -0.4591 -3.3500
   49CHL1   C17 4756   6.274   2.542   3.850 -0.2739 -0.4087 -0.0415
   49CHL1   H17 4757   6.163   2.543   3.849 -0.3324  1.4752  1.7099
   49CHL1   C13 4758   6.307   2.538   3.697 -0.0023  0.3126 -0.1336
   49CHL1   C18 4759   6.456   2.536   3.679 -0.0025 -0.1901 -0.0341
   49CHL1  H18A 4760   6.499   2.435   3.661  0.5977  0.2878 -1.4405
   49CHL1  H18B 4761   6.482   2.601   3.593  1.3038  0.2799  0.6870
   49CHL1  H18C 4762   6.511   2.567   3.771  0.0828  0.2431 -0.2308
   49CHL1   C12 4763   6.244   2.431   3.602 -0.9613 -0.7200  0.0718
   49CHL1  H12A 4764   6.290   2.333   3.626 -1.5124 -0.5284  2.0607
   49CHL1  H12B 4765   6.133   2.430   3.615 -1.4397 -0.5985 -3.0881
   49CHL1   C11 4766   6.278   2.466   3.459  0.5071 -0.5775  0.0888
   49CHL1  H11A 4767   6.387   2.469   3.438  0.6860  3.0870  0.9021
   49CHL1  H11B 4768   6.233   2.382   3.401 -0.4733  0.0838 -0.1502
   49CHL1    C9 4769   6.211   2.601   3.422 -0.7516 -0.1544  1.3978
   49CHL1    H9 4770   6.101   2.593   3.435 -1.1210  0.6540 -0.8910
   49CHL1   C10 4771   6.225   2.644   3.270  0.1435 -0.4031  0.3313
   49CHL1   C19 4772   6.375   2.646   3.234 -0.6952 -0.1356 -0.5654
   49CHL1  H19A 4773   6.433   2.725   3.286  0.0194 -1.3004  0.4756
   49CHL1  H19B 4774   6.422   2.547   3.249 -1.8313 -0.4874  1.0013
   49CHL1  H19C 4775   6.376   2.662   3.125 -0.8238 -0.0754 -0.5584
   49CHL1    C1 4776   6.150   2.548   3.173 -0.0785 -0.2147 -0.2229
   49CHL1   H1A 4777   6.214   2.457   3.172  0.0643 -0.1189  0.0980
   49CHL1   H1B 4778   6.057   2.520   3.226  0.0303 -2.0743 -0.9508
   49CHL1    C2 4779   6.118   2.587   3.026  0.2015 -0.0919 -0.0896
   49CHL1   H2A 4780   6.047   2.517   2.978 -0.5082 -1.1195  2.3175
   49CHL1   H2B 4781   6.215   2.600   2.973  0.6090  0.2510  0.7223
   49CHL1   C20 4782   6.332   2.438   3.938 -0.5230  0.9270 -0.6535
   49CHL1   H20 4783   6.441   2.458   3.928 -0.6708  1.7467 -0.6542
   49CHL1   C21 4784   6.319   2.292   3.884  0.0072 -0.1693 -0.3341
   49CHL1  H21A 4785   6.377   2.289   3.789  0.4071  1.4626 -0.1750
   49CHL1  H21B 4786   6.213   2.262   3.870  0.3012 -1.0484 -0.7871
   49CHL1  H21C 4787   6.370   2.220   3.951 -0.0766  0.7418  0.7445
   49CHL1   C22 4788   6.304   2.444   4.095 -0.3705 -0.4947 -0.5686
   49CHL1  H22A 4789   6.347   2.538   4.137  2.1593 -1.0758 -1.6743
   49CHL1  H22B 4790   6.195   2.432   4.112  0.3003 -3.8452  2.6566
   49CHL1   C23 4791   6.376   2.334   4.181 -0.8051  0.2587  0.6671
   49CHL1  H23A 4792   6.347   2.232   4.149  0.9508  0.0427 -0.3492
   49CHL1  H23B 4793   6.485   2.347   4.162 -1.1390 -0.1680 -1.9267
   49CHL1   C24 4794   6.353   2.343   4.331 -1.0297  0.3581  0.5407
   49CHL1  H24A 4795   6.377   2.443   4.373 -1.0242 -0.0805  1.6334
   49CHL1  H24B 4796   6.244   2.329   4.345 -1.1025 -1.3290 -1.2747
   49CHL1   C25 4797   6.416   2.228   4.414  0.0726 -0.1142  0.9493
   49CHL1   H25 4798   6.361   2.137   4.381 -0.4027  0.7626 -0.8140
   49CHL1   C26 4799   6.569   2.207   4.404  0.0935 -0.2271  0.3933
   49CHL1  H26A 4800   6.602   2.126   4.473 -0.7457  0.0052  1.0897
   49CHL1  H26B 4801   6.594   2.194   4.297 -1.6667 -0.2208 -0.0518
   49CHL1  H26C 4802   6.625   2.295   4.443  0.5644 -0.1166 -0.5275
   49CHL1   C27 4803   6.386   2.255   4.563 -0.0466  0.9967  0.7837
   49CHL1  H27A 4804   6.283   2.293   4.580 -0.9074 -0.6519 -0.4495
   49CHL1  H27B 4805   6.397   2.165   4.627  0.9554 -0.2552 -1.0700
   49CHL1  H27C 4806   6.451   2.334   4.606  2.4943 -0.4941 -0.1387
   50CHL1    C3 4807   7.134   6.824   2.994  0.9714 -0.3223  0.0895
   50CHL1    H3 4808   7.109   6.883   2.903 -3.3568 -0.8669  0.7271
   50CHL1    O3 4809   7.218   6.715   2.960  0.2554 -0.7144  0.2557
   50CHL1   H3' 4810   7.302   6.742   2.921  0.3434  1.4911  1.8051
   50CHL1    C4 4811   7.203   6.930   3.079 -0.3040  0.3610  0.2721
   50CHL1   H4A 4812   7.262   6.872   3.155 -1.9263 -0.9479  0.5970
   50CHL1   H4B 4813   7.282   6.973   3.014 -0.1696  0.2797  0.3811
   50CHL1    C5 4814   7.106   7.033   3.131  0.2035  0.9002  0.4887
   50CHL1    C6 4815   7.126   7.159   3.100  0.2436 -0.9625 -0.1134
   50CHL1    H6 4816   7.217   7.185   3.044  0.8957  0.9204  1.6579
   50CHL1    C7 4817   7.049   7.273   3.164 -0.8106 -0.8150 -0.1782
   50CHL1   H7A 4818   7.116   7.358   3.189 -0.1438 -1.1785 -0.6993
   50CHL1   H7B 4819   6.974   7.316   3.095 -0.0602  0.8228 -0.0114
   50CHL1    C8 4820   6.985   7.220   3.300  0.0621 -1.0264  0.4095
   50CHL1    H8 4821   7.066   7.191   3.370 -0.5540 -0.3477  1.4291
   50CHL1   C14 4822   6.901   7.328   3.364 -0.0086 -0.4765  0.8345
   50CHL1   H14 4823   6.842   7.345   3.272 -0.5891  0.9682  1.4477
   50CHL1   C15 4824   6.969   7.458   3.406  0.2106  0.2077  0.2600
   50CHL1  H15A 4825   7.061   7.419   3.454 -0.4061 -0.5914  0.8062
   50CHL1  H15B 4826   6.992   7.524   3.319 -1.4287  0.5207  0.0281
   50CHL1   C16 4827   6.860   7.535   3.477 -0.5926  0.5702  0.5691
   50CHL1  H16A 4828   6.898   7.563   3.577  0.4714  1.7638 -0.1339
   50CHL1  H16B 4829   6.843   7.630   3.421  3.7253  1.0050 -0.3470
   50CHL1   C17 4830   6.742   7.440   3.484 -0.1019 -0.6845 -0.5004
   50CHL1   H17 4831   6.689   7.458   3.388 -0.4911  2.0600  0.1619
   50CHL1   C13 4832   6.802   7.296   3.467 -0.9965  0.2002  0.2468
   50CHL1   C18 4833   6.884   7.256   3.592 -0.1561 -0.0289 -0.0914
   50CHL1  H18A 4834   6.810   7.245   3.674  1.1434 -1.3556  0.9532
   50CHL1  H18B 4835   6.936   7.160   3.575 -1.7585 -0.9712  0.0743
   50CHL1  H18C 4836   6.961   7.330   3.623 -1.6004  2.1206 -1.3242
   50CHL1   C12 4837   6.708   7.179   3.406 -0.7305 -0.0279 -0.3686
   50CHL1  H12A 4838   6.637   7.147   3.486  1.2030  1.0152  1.9153
   50CHL1  H12B 4839   6.658   7.224   3.319  0.8498  0.2210 -1.1877
   50CHL1   C11 4840   6.795   7.053   3.360 -0.1774 -0.4023 -0.0804
   50CHL1  H11A 4841   6.845   7.010   3.449  0.7736 -0.6070 -0.7038
   50CHL1  H11B 4842   6.736   6.970   3.314  0.1638 -0.0706 -1.1541
   50CHL1    C9 4843   6.902   7.100   3.259 -0.0259  0.0314 -0.5462
   50CHL1    H9 4844   6.849   7.129   3.166  0.3917  1.5862 -0.3168
   50CHL1   C10 4845   6.992   6.979   3.215  0.0121 -0.5256  0.7714
   50CHL1   C19 4846   7.040   6.912   3.342 -0.7370 -0.1367 -0.9497
   50CHL1  H19A 4847   7.122   6.843   3.311  0.0886  0.9935 -1.3502
   50CHL1  H19B 4848   7.083   6.971   3.426  4.1452 -0.0822 -3.1931
   50CHL1  H19C 4849   6.967   6.842   3.390  0.3711 -1.9319 -1.7628
   50CHL1    C1 4850   6.922   6.875   3.122  0.0305  0.4639 -0.1174
   50CHL1   H1A 4851   6.846   6.824   3.185  1.4697 -2.4287 -0.5371
   50CHL1   H1B 4852   6.875   6.928   3.036 -1.9914 -2.5478 -1.0493
   50CHL1    C2 4853   7.005   6.768   3.057  0.0609 -0.0704 -0.8660
   50CHL1   H2A 4854   6.961   6.722   2.966 -1.0299  0.3908 -0.5922
   50CHL1   H2B 4855   7.028   6.698   3.140  0.8139  3.2074  1.9036
   50CHL1   C20 4856   6.649   7.460   3.599  0.5251 -0.0991 -0.5220
   50CHL1   H20 4857   6.665   7.381   3.676 -0.8980 -0.3830 -0.4861
   50CHL1   C21 4858   6.506   7.439   3.540 -0.2275  0.4863  0.1119
   50CHL1  H21A 4859   6.497   7.340   3.489 -2.6470  0.3029  0.7225
   50CHL1  H21B 4860   6.481   7.517   3.466 -1.2501 -0.3818 -0.4887
   50CHL1  H21C 4861   6.431   7.425   3.622  1.2195 -2.5677  1.0883
   50CHL1   C22 4862   6.648   7.601   3.665  0.3721  0.0891  0.3486
   50CHL1  H22A 4863   6.753   7.612   3.700  1.7818 -0.8906 -3.1132
   50CHL1  H22B 4864   6.629   7.680   3.588  3.1931  0.6329  0.0982
   50CHL1   C23 4865   6.547   7.603   3.777  0.6156 -0.0501  0.3734
   50CHL1  H23A 4866   6.450   7.613   3.724  1.5020  4.7778 -0.7842
   50CHL1  H23B 4867   6.548   7.515   3.845  0.4302  0.2954  0.8291
   50CHL1   C24 4868   6.566   7.720   3.857  0.2040 -0.7291 -0.8272
   50CHL1  H24A 4869   6.654   7.710   3.924 -0.0193 -2.7542 -0.7949
   50CHL1  H24B 4870   6.597   7.802   3.788 -0.5995  0.8002  0.5664
   50CHL1   C25 4871   6.439   7.760   3.939  0.1535  0.1846  0.5370
   50CHL1   H25 4872   6.349   7.745   3.875  0.2315 -2.5735  0.9270
   50CHL1   C26 4873   6.419   7.671   4.061 -0.7206 -0.3400  0.5801
   50CHL1  H26A 4874   6.418   7.563   4.037  4.4034 -1.0370  2.3143
   50CHL1  H26B 4875   6.508   7.698   4.122 -0.0090  1.0740 -0.9958
   50CHL1  H26C 4876   6.326   7.703   4.111 -0.8305 -0.0263  0.1853
   50CHL1   C27 4877   6.466   7.912   3.961 -0.0942  0.0422 -0.0520
   50CHL1  H27A 4878   6.501   7.971   3.874  1.5350 -0.9611 -0.1206
   50CHL1  H27B 4879   6.370   7.956   3.997  0.0636 -0.5615  1.1704
   50CHL1  H27C 4880   6.537   7.926   4.045  1.6399 -2.1709 -1.0648
   51CHL1    C3 4881   1.512   0.444   2.951 -0.0745  0.1788 -0.1070
   51CHL1    H3 4882   1.618   0.416   2.969 -0.0669 -0.5910 -1.2443
   51CHL1    O3 4883   1.486   0.413   2.817 -0.0963 -0.1885  0.6405
   51CHL1   H3' 4884   1.543   0.474   2.770  0.4005 -0.8390  0.3926
   51CHL1    C4 4885   1.414   0.368   3.042 -0.3925 -0.6389 -0.3522
   51CHL1   H4A 4886   1.312   0.411   3.035 -1.9405 -3.3297  3.0826
   51CHL1   H4B 4887   1.403   0.262   3.010 -3.4353 -0.0553 -1.5612
   51CHL1    C5 4888   1.458   0.395   3.189 -0.8836  0.4936 -0.3944
   51CHL1    C6 4889   1.488   0.298   3.275  0.4537  0.3022  0.0488
   51CHL1    H6 4890   1.463   0.199   3.234 -1.0641  1.3865 -1.7686
   51CHL1    C7 4891   1.517   0.319   3.420  0.1603  0.0194  0.2243
   51CHL1   H7A 4892   1.456   0.255   3.488 -0.3940 -0.1253 -0.4011
   51CHL1   H7B 4893   1.624   0.299   3.444  0.2392  0.6153  0.3805
   51CHL1    C8 4894   1.488   0.464   3.467  0.1334 -0.2879 -0.5449
   51CHL1    H8 4895   1.380   0.461   3.492  0.5230 -2.5438  1.2507
   51CHL1   C14 4896   1.560   0.481   3.601 -0.5165 -0.2049 -0.4129
   51CHL1   H14 4897   1.663   0.450   3.575 -1.5897 -3.4573 -1.2063
   51CHL1   C15 4898   1.531   0.384   3.721 -0.5315  0.0906  0.6791
   51CHL1  H15A 4899   1.423   0.364   3.734 -0.1281 -2.4490  0.6451
   51CHL1  H15B 4900   1.581   0.287   3.702  3.5991  1.9044  1.0469
   51CHL1   C16 4901   1.591   0.458   3.839  0.2026  0.9161  0.1293
   51CHL1  H16A 4902   1.524   0.456   3.928 -0.9562  1.4756 -0.7102
   51CHL1  H16B 4903   1.687   0.404   3.857  1.1447  1.2651 -3.2450
   51CHL1   C17 4904   1.633   0.598   3.792 -0.2398  0.6815  0.3753
   51CHL1   H17 4905   1.739   0.589   3.760 -0.2026  2.8191 -0.2393
   51CHL1   C13 4906   1.553   0.622   3.661  0.6614 -0.0628 -0.9447
   51CHL1   C18 4907   1.407   0.652   3.702 -0.0997 -0.1077 -0.3688
   51CHL1  H18A 4908   1.393   0.754   3.743 -0.3206  0.6425 -2.2490
   51CHL1  H18B 4909   1.342   0.634   3.614  1.5487  1.1809 -1.9179
   51CHL1  H18C 4910   1.372   0.582   3.781  1.4140  0.3473  0.7413
   51CHL1   C12 4911   1.612   0.717   3.562  0.0812 -0.1564 -0.1137
   51CHL1  H12A 4912   1.610   0.819   3.606 -1.0484 -0.7211  1.1968
   51CHL1  H12B 4913   1.719   0.695   3.544 -0.0965 -1.4672  0.3018
   51CHL1   C11 4914   1.540   0.710   3.424  0.1813  0.6217  0.2718
   51CHL1  H11A 4915   1.439   0.755   3.438 -1.5137 -2.4585 -1.0584
   51CHL1  H11B 4916   1.596   0.761   3.343 -0.5026  0.2543 -0.4515
   51CHL1    C9 4917   1.530   0.559   3.369 -0.5315  0.4430  0.0811
   51CHL1    H9 4918   1.637   0.536   3.347 -0.4601  0.2319  0.6339
   51CHL1   C10 4919   1.465   0.542   3.229 -0.4452 -0.7276  0.1208
   51CHL1   C19 4920   1.320   0.600   3.232 -0.3144 -0.1309  0.6744
   51CHL1  H19A 4921   1.260   0.597   3.138  0.9913  0.3890 -0.2033
   51CHL1  H19B 4922   1.271   0.550   3.318 -0.7351  2.3224  1.9461
   51CHL1  H19C 4923   1.312   0.709   3.253 -2.3784  0.0544 -0.7503
   51CHL1    C1 4924   1.544   0.624   3.122  0.0912 -0.1117 -0.4446
   51CHL1   H1A 4925   1.527   0.733   3.128  0.5398 -0.1214  2.5295
   51CHL1   H1B 4926   1.652   0.604   3.142 -0.3559 -2.5774 -0.1171
   51CHL1    C2 4927   1.509   0.594   2.979  0.5147 -0.1288 -0.4232
   51CHL1   H2A 4928   1.566   0.647   2.900  0.0252  1.4588  0.2409
   51CHL1   H2B 4929   1.406   0.635   2.968 -0.4256 -2.1164  0.5379
   51CHL1   C20 4930   1.618   0.694   3.904  0.2331 -0.5517 -0.1299
   51CHL1   H20 4931   1.517   0.680   3.949 -0.4564  2.2210 -0.6509
   51CHL1   C21 4932   1.621   0.841   3.868  0.1798  0.1322  0.4658
   51CHL1  H21A 4933   1.532   0.883   3.817 -0.5207 -0.2290  1.3556
   51CHL1  H21B 4934   1.713   0.858   3.809  0.1593  0.1697  0.4443
   51CHL1  H21C 4935   1.643   0.885   3.968 -0.8216  0.7476  0.4331
   51CHL1   C22 4936   1.702   0.674   4.031 -0.2030  0.2091  0.2893
   51CHL1  H22A 4937   1.766   0.584   4.032  1.2466  1.1985 -0.1750
   51CHL1  H22B 4938   1.777   0.755   4.045  0.4172 -0.5788  1.7519
   51CHL1   C23 4939   1.604   0.649   4.151 -0.1247 -0.0130  0.3291
   51CHL1  H23A 4940   1.521   0.723   4.152  0.2408  0.4049  0.2548
   51CHL1  H23B 4941   1.543   0.560   4.127  0.8809 -0.6909  0.2293
   51CHL1   C24 4942   1.668   0.638   4.286 -0.0996 -0.7588 -0.1291
   51CHL1  H24A 4943   1.764   0.583   4.277 -0.4068 -1.1779 -0.9368
   51CHL1  H24B 4944   1.698   0.742   4.311 -0.4608 -0.3917 -1.1663
   51CHL1   C25 4945   1.578   0.577   4.390 -0.4316  0.2865  0.4144
   51CHL1   H25 4946   1.483   0.544   4.343 -1.2170  2.2468  0.5091
   51CHL1   C26 4947   1.648   0.462   4.461  0.4235 -0.1654 -0.0971
   51CHL1  H26A 4948   1.571   0.414   4.526  0.4730 -0.5024 -0.2825
   51CHL1  H26B 4949   1.687   0.399   4.377  0.8104  0.1238 -0.1370
   51CHL1  H26C 4950   1.733   0.500   4.522 -0.7944 -0.0410  1.5880
   51CHL1   C27 4951   1.508   0.683   4.474  0.2936 -0.0707  0.1659
   51CHL1  H27A 4952   1.442   0.632   4.547 -0.7889  1.7079  0.5140
   51CHL1  H27B 4953   1.564   0.770   4.516  0.1971  0.1288 -0.1145
   51CHL1  H27C 4954   1.429   0.724   4.408  0.3058  2.1271  1.3952
   52CHL1    C3 4955   1.313   0.143   5.998  0.2187  0.1152 -0.3281
   52CHL1    H3 4956   1.424   0.148   5.993  0.6311 -3.8294  1.3728
   52CHL1    O3 4957   1.274   0.129   6.137  0.8712 -0.0565 -0.8396
   52CHL1   H3' 4958   1.182   0.103   6.142  0.6960  0.0573 -2.8521
   52CHL1    C4 4959   1.243   0.268   5.938  0.3382  0.7736 -0.2505
   52CHL1   H4A 4960   1.139   0.259   5.975 -0.1337 -0.6242 -1.8024
   52CHL1   H4B 4961   1.291   0.359   5.981  0.3847  0.7782 -0.3110
   52CHL1    C5 4962   1.239   0.257   5.785 -1.1051  0.2729 -0.7150
   52CHL1    C6 4963   1.305   0.354   5.716  0.0128  0.3581 -0.3256
   52CHL1    H6 4964   1.350   0.431   5.779 -2.6853 -0.2463  2.5787
   52CHL1    C7 4965   1.297   0.364   5.563  0.2696 -0.0726 -0.2124
   52CHL1   H7A 4966   1.252   0.462   5.535 -1.2548 -0.4161  0.8673
   52CHL1   H7B 4967   1.401   0.357   5.525  0.7357  0.0574  1.0098
   52CHL1    C8 4968   1.203   0.255   5.493 -0.5242  0.6507 -0.3666
   52CHL1    H8 4969   1.103   0.302   5.497  0.2565  2.2777  1.4808
   52CHL1   C14 4970   1.242   0.242   5.347 -0.0461 -0.5476  0.2803
   52CHL1   H14 4971   1.348   0.211   5.340 -0.4106 -2.0557  0.9603
   52CHL1   C15 4972   1.240   0.369   5.261 -0.4843  0.0558 -0.5176
   52CHL1  H15A 4973   1.150   0.434   5.261 -0.3787  0.2277 -1.9739
   52CHL1  H15B 4974   1.328   0.435   5.277 -0.5487 -0.1019  0.6097
   52CHL1   C16 4975   1.258   0.310   5.115 -0.4066  0.5441 -0.4408
   52CHL1  H16A 4976   1.181   0.357   5.049 -0.1416 -0.5786 -1.5930
   52CHL1  H16B 4977   1.361   0.318   5.074  0.2917 -4.2425 -0.1304
   52CHL1   C17 4978   1.229   0.157   5.131  0.1418  0.2563  0.0085
   52CHL1   H17 4979   1.327   0.105   5.139  0.9549  1.7958  0.2804
   52CHL1   C13 4980   1.167   0.135   5.269  0.7263  0.6130  0.3433
   52CHL1   C18 4981   1.016   0.179   5.257  0.5129 -0.2714  0.1743
   52CHL1  H18A 4982   1.009   0.275   5.201  2.9725 -0.5475 -0.7410
   52CHL1  H18B 4983   0.964   0.104   5.193 -2.3478  1.1512  0.6700
   52CHL1  H18C 4984   0.968   0.194   5.355 -0.2165 -1.1569 -0.0393
   52CHL1   C12 4985   1.186   0.001   5.326 -0.2359  0.0887 -0.3345
   52CHL1  H12A 4986   1.124  -0.073   5.271 -3.9854  1.8344  1.2439
   52CHL1  H12B 4987   1.291  -0.033   5.313  0.1333  0.9038  0.4102
   52CHL1   C11 4988   1.134   0.012   5.479 -0.2343  0.0172 -0.1480
   52CHL1  H11A 4989   1.024   0.027   5.472 -0.0291  0.9043 -2.2281
   52CHL1  H11B 4990   1.152  -0.091   5.517  0.7955 -0.0754 -0.8690
   52CHL1    C9 4991   1.215   0.119   5.562 -0.7080  1.0945  0.3701
   52CHL1    H9 4992   1.321   0.087   5.550 -1.1764 -0.1685 -0.7455
   52CHL1   C10 4993   1.188   0.130   5.721 -0.1209  0.1040  0.8784
   52CHL1   C19 4994   1.040   0.115   5.743 -0.1143 -0.3985  0.1709
   52CHL1  H19A 4995   0.986   0.184   5.674 -0.5634 -0.4765  0.4371
   52CHL1  H19B 4996   1.020   0.007   5.728  0.6185 -0.3160 -1.7145
   52CHL1  H19C 4997   1.011   0.148   5.845 -0.2611  0.8987 -0.2741
   52CHL1    C1 4998   1.264   0.011   5.790 -0.3863 -0.0661  0.3018
   52CHL1   H1A 4999   1.214  -0.083   5.757 -0.0031 -0.6337  1.2746
   52CHL1   H1B 5000   1.366  -0.006   5.751 -0.5969  0.4714 -0.4992
   52CHL1    C2 5001   1.254   0.009   5.941 -0.4732  0.3548 -0.0039
   52CHL1   H2A 5002   1.323  -0.073   5.971 -1.1979 -0.4952 -0.6077
   52CHL1   H2B 5003   1.150  -0.015   5.973 -0.5953  0.8021 -0.0605
   52CHL1   C20 5004   1.162   0.097   5.009  0.3412  0.5510  0.9024
   52CHL1   H20 5005   1.064   0.144   4.985  0.7360  0.8836 -0.1059
   52CHL1   C21 5006   1.116  -0.055   5.009  0.5394  0.1446 -0.1724
   52CHL1  H21A 5007   1.197  -0.130   5.005  0.3404 -0.1096  0.4234
   52CHL1  H21B 5008   1.058  -0.059   4.914  2.4923 -2.6126 -1.3669
   52CHL1  H21C 5009   1.045  -0.081   5.091  0.2721  1.8244  0.1839
   52CHL1   C22 5010   1.252   0.120   4.878 -0.1536 -0.0541 -0.8106
   52CHL1  H22A 5011   1.199   0.067   4.796  0.2449 -2.2063  0.2537
   52CHL1  H22B 5012   1.259   0.230   4.861  0.5601  0.3566  1.8049
   52CHL1   C23 5013   1.396   0.057   4.877  0.4231 -0.0903 -0.5012
   52CHL1  H23A 5014   1.462   0.119   4.941 -2.1294  0.5846  1.6505
   52CHL1  H23B 5015   1.396  -0.048   4.913 -1.1388 -0.6436 -1.9495
   52CHL1   C24 5016   1.451   0.053   4.731  0.0348 -0.0609 -0.0222
   52CHL1  H24A 5017   1.385  -0.006   4.663  1.1233  1.5266 -2.5892
   52CHL1  H24B 5018   1.440   0.147   4.673 -0.8107 -0.5625 -0.6923
   52CHL1   C25 5019   1.601   0.017   4.725  0.0881 -0.2452  0.9855
   52CHL1   H25 5020   1.653   0.106   4.767 -1.5767  0.2727  2.0891
   52CHL1   C26 5021   1.640  -0.106   4.813 -0.2326 -0.3336 -0.1225
   52CHL1  H26A 5022   1.731  -0.159   4.776  0.3879 -0.1758  1.1204
   52CHL1  H26B 5023   1.667  -0.068   4.914 -0.1856 -2.6713  0.8267
   52CHL1  H26C 5024   1.559  -0.182   4.814 -1.3507  0.8168  0.8169
   52CHL1   C27 5025   1.628   0.000   4.574  1.1723 -0.4076 -0.1946
   52CHL1  H27A 5026   1.585   0.085   4.516 -1.3004 -0.7269  1.0584
   52CHL1  H27B 5027   1.737  -0.010   4.553  0.7354  2.2918 -5.3965
   52CHL1  H27C 5028   1.579  -0.090   4.530  0.3473 -0.0647 -0.0006
   53CHL1    C3 5029   1.094   1.448   2.885  0.5777  0.3876  0.3881
   53CHL1    H3 5030   1.174   1.520   2.857  0.1969 -0.1885 -2.5235
   53CHL1    O3 5031   1.074   1.386   2.761 -0.4227  0.7491 -0.0448
   53CHL1   H3' 5032   1.011   1.314   2.763  0.7312 -0.4477 -2.3555
   53CHL1    C4 5033   1.135   1.347   2.991 -0.9659  0.1787  1.0400
   53CHL1   H4A 5034   1.048   1.279   2.999 -0.0528 -1.0342  0.9088
   53CHL1   H4B 5035   1.223   1.293   2.950 -0.2104  0.4864  2.1975
   53CHL1    C5 5036   1.155   1.416   3.126  0.2091 -0.3674  0.4570
   53CHL1    C6 5037   1.266   1.405   3.189  0.2318  0.2704 -0.5386
   53CHL1    H6 5038   1.356   1.353   3.153  2.6283  1.0468  3.6612
   53CHL1    C7 5039   1.292   1.451   3.329 -1.1173  0.1576 -0.2209
   53CHL1   H7A 5040   1.337   1.362   3.377 -1.9228 -0.0842  0.0949
   53CHL1   H7B 5041   1.372   1.529   3.339 -0.7526 -0.3926  1.5097
   53CHL1    C8 5042   1.162   1.490   3.408  0.1425 -0.1008  0.2540
   53CHL1    H8 5043   1.112   1.395   3.437  0.6190 -1.4409 -2.9273
   53CHL1   C14 5044   1.188   1.564   3.538 -0.7806 -0.3265 -0.5328
   53CHL1   H14 5045   1.264   1.639   3.509  1.2548 -1.1340  2.3319
   53CHL1   C15 5046   1.269   1.482   3.647 -0.0124 -0.3178 -0.3996
   53CHL1  H15A 5047   1.219   1.384   3.656 -3.2295  1.2046 -0.3946
   53CHL1  H15B 5048   1.377   1.456   3.638  0.5028  1.5278 -0.0411
   53CHL1   C16 5049   1.243   1.582   3.766 -0.0517  0.0142 -0.4546
   53CHL1  H16A 5050   1.225   1.517   3.854 -0.5298  0.5876 -0.1296
   53CHL1  H16B 5051   1.334   1.639   3.794 -0.9618  0.5674  1.4728
   53CHL1   C17 5052   1.125   1.676   3.737 -0.1608 -0.4366  0.2240
   53CHL1   H17 5053   1.160   1.781   3.728  1.6031 -0.8823  1.4470
   53CHL1   C13 5054   1.067   1.624   3.604  0.5902  0.4079  0.3244
   53CHL1   C18 5055   0.963   1.507   3.639  0.2757 -0.2682  0.0779
   53CHL1  H18A 5056   0.865   1.556   3.659  0.0110  0.1946 -2.1209
   53CHL1  H18B 5057   0.958   1.433   3.557  0.1665  1.5907 -1.6699
   53CHL1  H18C 5058   1.005   1.449   3.724 -0.5336  0.4864  1.0262
   53CHL1   C12 5059   1.006   1.726   3.504 -0.7916 -0.4409 -0.0130
   53CHL1  H12A 5060   0.920   1.782   3.549 -0.4867  0.7546 -0.8618
   53CHL1  H12B 5061   1.079   1.802   3.468  1.1781 -1.3102  1.9283
   53CHL1   C11 5062   0.955   1.654   3.376 -0.3912  0.5460  0.0312
   53CHL1  H11A 5063   0.866   1.592   3.398  0.4409 -0.3124  1.1393
   53CHL1  H11B 5064   0.914   1.734   3.312  1.1100  1.4816  0.1952
   53CHL1    C9 5065   1.075   1.570   3.306  0.2634 -0.1344 -0.4518
   53CHL1    H9 5066   1.146   1.648   3.270  1.0002  0.0214  1.2371
   53CHL1   C10 5067   1.035   1.499   3.178 -0.2758 -0.3905  0.2441
   53CHL1   C19 5068   0.919   1.401   3.221 -0.2191 -0.1080  0.7671
   53CHL1  H19A 5069   0.826   1.461   3.204 -0.5499 -1.1312 -1.3255
   53CHL1  H19B 5070   0.914   1.308   3.160  0.6488  0.7508 -0.6627
   53CHL1  H19C 5071   0.929   1.376   3.328  0.2564  0.5932  0.8926
   53CHL1    C1 5072   0.987   1.597   3.067  0.1812 -0.0304 -0.8149
   53CHL1   H1A 5073   0.891   1.644   3.097 -0.3938 -2.5230  1.5864
   53CHL1   H1B 5074   1.057   1.681   3.049  0.5760 -0.2978 -0.5293
   53CHL1    C2 5075   0.966   1.521   2.925 -0.5166  0.6523 -0.6006
   53CHL1   H2A 5076   0.942   1.592   2.843 -0.4815  1.0393 -0.2794
   53CHL1   H2B 5077   0.884   1.451   2.950 -0.6451  0.6652 -0.9708
   53CHL1   C20 5078   1.038   1.679   3.864  0.2333  0.3716  0.1863
   53CHL1   H20 5079   0.993   1.580   3.886  1.7451  0.0198  1.8944
   53CHL1   C21 5080   0.923   1.775   3.831 -0.4693 -0.1434 -0.3314
   53CHL1  H21A 5081   0.843   1.775   3.909  1.1775  0.4664  1.4527
   53CHL1  H21B 5082   0.874   1.744   3.737 -0.6796 -0.8488  0.0068
   53CHL1  H21C 5083   0.955   1.881   3.816 -2.4087  0.2397 -2.1876
   53CHL1   C22 5084   1.107   1.726   3.995 -0.6790 -0.3224 -0.5323
   53CHL1  H22A 5085   1.191   1.660   4.027 -1.5564  0.9104  5.7759
   53CHL1  H22B 5086   1.141   1.828   3.969 -3.5906  1.1355  0.8820
   53CHL1   C23 5087   1.026   1.742   4.123 -0.5703 -0.8413  0.9042
   53CHL1  H23A 5088   1.085   1.777   4.211  0.1921  2.3056 -0.7238
   53CHL1  H23B 5089   0.953   1.823   4.103  1.2617  1.0888  1.6310
   53CHL1   C24 5090   0.964   1.614   4.179 -0.1124 -0.0326  0.4177
   53CHL1  H24A 5091   0.907   1.564   4.098  1.8505 -0.8021 -0.5666
   53CHL1  H24B 5092   1.054   1.552   4.196  1.3559  1.4560 -1.4491
   53CHL1   C25 5093   0.870   1.628   4.302  0.2447  0.2919  1.1798
   53CHL1   H25 5094   0.787   1.691   4.265 -0.2201 -0.8608  0.1946
   53CHL1   C26 5095   0.826   1.487   4.349 -0.0763 -0.3945  0.0409
   53CHL1  H26A 5096   0.904   1.433   4.407  0.6720 -0.2992 -0.8563
   53CHL1  H26B 5097   0.737   1.490   4.416  1.2624 -1.6176  1.9648
   53CHL1  H26C 5098   0.803   1.426   4.259  0.6116  0.5146 -0.7710
   53CHL1   C27 5099   0.947   1.693   4.414 -0.6299  0.2666 -0.5947
   53CHL1  H27A 5100   0.976   1.798   4.394 -1.0613  1.3834  3.6602
   53CHL1  H27B 5101   0.890   1.688   4.509 -0.4942 -1.7931 -0.5720
   53CHL1  H27C 5102   1.043   1.639   4.430 -0.1560  1.2270 -0.1649
   54CHL1    C3 5103   1.502   2.414   2.513  0.7749  0.2407  0.1533
   54CHL1    H3 5104   1.613   2.405   2.512  0.6793 -1.4571 -1.3499
   54CHL1    O3 5105   1.463   2.417   2.374 -0.5526 -0.8536 -0.0727
   54CHL1   H3' 5106   1.368   2.427   2.363 -0.8146  1.3847  2.9126
   54CHL1    C4 5107   1.438   2.294   2.581 -0.3826  0.2187  0.4806
   54CHL1   H4A 5108   1.332   2.326   2.576  0.0182  1.4596 -3.5021
   54CHL1   H4B 5109   1.452   2.195   2.532 -0.5398 -0.4946  1.8308
   54CHL1    C5 5110   1.475   2.285   2.719 -0.0970  0.6945 -0.3449
   54CHL1    C6 5111   1.542   2.180   2.770  0.0803  0.7326 -0.1314
   54CHL1    H6 5112   1.558   2.098   2.699 -0.6845  0.6042 -0.1690
   54CHL1    C7 5113   1.574   2.169   2.921  0.0103 -0.2275  0.5071
   54CHL1   H7A 5114   1.548   2.070   2.964 -2.1329 -0.1655 -0.5096
   54CHL1   H7B 5115   1.684   2.183   2.932  0.1606 -1.1257  0.2454
   54CHL1    C8 5116   1.508   2.275   3.010  0.3359 -0.1965 -0.5169
   54CHL1    H8 5117   1.407   2.235   3.030  0.8796 -0.5628  1.7345
   54CHL1   C14 5118   1.572   2.280   3.151 -0.0357  0.5277  0.0461
   54CHL1   H14 5119   1.675   2.319   3.133 -0.0663  0.3717 -0.4981
   54CHL1   C15 5120   1.601   2.144   3.226 -0.0098  1.2498 -0.0869
   54CHL1  H15A 5121   1.505   2.089   3.233  0.0826  0.8894 -1.4034
   54CHL1  H15B 5122   1.688   2.091   3.182 -0.4949  1.5147 -1.4213
   54CHL1   C16 5123   1.630   2.190   3.370 -0.8240  0.5139  0.0441
   54CHL1  H16A 5124   1.559   2.131   3.431 -2.0020 -0.4094 -2.1244
   54CHL1  H16B 5125   1.730   2.165   3.411 -1.3863  2.5216  2.9997
   54CHL1   C17 5126   1.619   2.346   3.370  0.1518  0.0891  0.0215
   54CHL1   H17 5127   1.713   2.397   3.344 -0.8634  1.0067 -2.0947
   54CHL1   C13 5128   1.520   2.379   3.251 -0.6822  0.2808 -0.9491
   54CHL1   C18 5129   1.377   2.351   3.291  0.5270  0.6972 -0.2371
   54CHL1  H18A 5130   1.305   2.337   3.208 -0.0627 -1.8700  0.5994
   54CHL1  H18B 5131   1.369   2.262   3.359 -1.2093 -0.7979 -2.2620
   54CHL1  H18C 5132   1.335   2.434   3.352  1.7060 -0.1646  1.8513
   54CHL1   C12 5133   1.532   2.516   3.191 -0.6231 -0.0027  0.0651
   54CHL1  H12A 5134   1.483   2.600   3.244  0.3103  2.2845 -2.4549
   54CHL1  H12B 5135   1.639   2.544   3.184 -0.6390  0.9208  2.5369
   54CHL1   C11 5136   1.461   2.522   3.052 -0.2576 -0.1698 -0.2765
   54CHL1  H11A 5137   1.357   2.503   3.086  0.2033  3.5760  4.3438
   54CHL1  H11B 5138   1.473   2.629   3.022 -1.2895  0.5354  1.6033
   54CHL1    C9 5139   1.512   2.414   2.949  0.3010  0.1527 -0.0639
   54CHL1    H9 5140   1.616   2.445   2.925  0.0201  2.5080  1.4536
   54CHL1   C10 5141   1.434   2.409   2.808  0.2368 -0.0157  0.1931
   54CHL1   C19 5142   1.288   2.409   2.837 -0.2290  0.3273 -0.0208
   54CHL1  H19A 5143   1.265   2.497   2.901  1.4850 -0.3698  1.6412
   54CHL1  H19B 5144   1.224   2.429   2.748  3.0514  0.8914 -2.4813
   54CHL1  H19C 5145   1.254   2.317   2.889  1.9110 -0.4107  0.1654
   54CHL1    C1 5146   1.491   2.536   2.731 -0.0729  0.1500  0.5067
   54CHL1   H1A 5147   1.450   2.628   2.779 -0.6756  0.4986 -0.6474
   54CHL1   H1B 5148   1.599   2.556   2.750  0.0639 -1.3334  1.3970
   54CHL1    C2 5149   1.455   2.544   2.579 -0.8347  0.4727  0.3324
   54CHL1   H2A 5150   1.513   2.618   2.521 -0.6906  0.9136  1.0274
   54CHL1   H2B 5151   1.345   2.557   2.574 -1.0310 -1.3239 -1.5921
   54CHL1   C20 5152   1.571   2.401   3.510 -0.5898 -0.7532  0.4757
   54CHL1   H20 5153   1.462   2.386   3.523 -0.9885  0.7751 -0.7948
   54CHL1   C21 5154   1.604   2.551   3.524  0.2647 -0.3173  0.6931
   54CHL1  H21A 5155   1.562   2.585   3.622 -1.7627 -1.1614  0.1634
   54CHL1  H21B 5156   1.553   2.615   3.449  0.5867 -0.8286  0.0276
   54CHL1  H21C 5157   1.711   2.582   3.524  0.1645  0.0638  1.7229
   54CHL1   C22 5158   1.635   2.320   3.626 -1.0773  0.6092  0.0268
   54CHL1  H22A 5159   1.626   2.210   3.609 -1.8950  0.8628 -1.3791
   54CHL1  H22B 5160   1.745   2.333   3.628 -0.9459  0.0038 -1.5668
   54CHL1   C23 5161   1.581   2.360   3.767  0.1503 -0.3183  0.0671
   54CHL1  H23A 5162   1.586   2.468   3.793 -0.4525  0.0275 -1.1893
   54CHL1  H23B 5163   1.475   2.327   3.772  0.3274 -0.8096  0.6806
   54CHL1   C24 5164   1.678   2.308   3.877 -0.2062 -0.1659 -0.4655
   54CHL1  H24A 5165   1.684   2.198   3.868 -1.0304 -0.2987  0.3958
   54CHL1  H24B 5166   1.774   2.360   3.860 -1.5149  2.9048  0.6486
   54CHL1   C25 5167   1.646   2.324   4.029  0.2761  0.2059  0.3902
   54CHL1   H25 5168   1.622   2.429   4.057 -0.2342 -0.2878  1.9386
   54CHL1   C26 5169   1.519   2.237   4.058  0.6051  0.4792  0.0534
   54CHL1  H26A 5170   1.498   2.250   4.167 -1.6665 -0.7270 -0.1860
   54CHL1  H26B 5171   1.431   2.264   3.997 -1.4758 -2.2498  1.6490
   54CHL1  H26C 5172   1.544   2.129   4.046  0.8777  0.6072 -0.5405
   54CHL1   C27 5173   1.770   2.277   4.107 -0.0448 -0.0528 -0.3059
   54CHL1  H27A 5174   1.814   2.204   4.036 -1.0305  0.2529 -1.2569
   54CHL1  H27B 5175   1.842   2.361   4.110 -0.3882  0.2846 -1.2513
   54CHL1  H27C 5176   1.765   2.224   4.204  1.7261  1.1715  0.5172
   55CHL1    C3 5177   5.635   4.466   3.386 -0.2452 -0.1812 -0.1103
   55CHL1    H3 5178   5.581   4.496   3.478  0.0259  0.1512 -0.0558
   55CHL1    O3 5179   5.538   4.420   3.291  0.8234 -0.7205 -0.2188
   55CHL1   H3' 5180   5.574   4.421   3.202 -0.3137  1.8759 -0.7446
   55CHL1    C4 5181   5.700   4.588   3.331 -0.0810 -0.1681  0.0511
   55CHL1   H4A 5182   5.737   4.589   3.226 -1.6505 -0.6457 -0.5362
   55CHL1   H4B 5183   5.611   4.653   3.345 -0.2599 -0.3161 -0.3779
   55CHL1    C5 5184   5.813   4.626   3.418 -0.4584  0.0978 -0.9407
   55CHL1    C6 5185   5.808   4.743   3.482 -0.4344  1.2754 -0.6085
   55CHL1    H6 5186   5.722   4.811   3.475 -0.2482  1.6358  0.4406
   55CHL1    C7 5187   5.930   4.799   3.556 -0.0472  0.9109  0.1096
   55CHL1   H7A 5188   5.948   4.908   3.539  0.1603  1.1797  1.7984
   55CHL1   H7B 5189   5.913   4.801   3.666  0.9628 -2.0722  0.3856
   55CHL1    C8 5190   6.061   4.725   3.526 -0.2696 -0.2623  0.0904
   55CHL1    H8 5191   6.102   4.767   3.432 -0.4334  1.6662  0.8499
   55CHL1   C14 5192   6.164   4.754   3.635 -0.3280  0.3808  0.1468
   55CHL1   H14 5193   6.114   4.721   3.728  1.9979 -0.8113  1.0481
   55CHL1   C15 5194   6.197   4.903   3.659 -0.1309  0.2255 -0.2187
   55CHL1  H15A 5195   6.251   4.950   3.574  0.6280  0.8919  0.6155
   55CHL1  H15B 5196   6.110   4.968   3.685  0.5836  1.5490 -0.9783
   55CHL1   C16 5197   6.303   4.890   3.766 -0.7307 -0.5593  0.0254
   55CHL1  H16A 5198   6.389   4.958   3.751 -1.2387 -0.0862 -0.8370
   55CHL1  H16B 5199   6.268   4.922   3.867  2.2068  0.5095  0.8169
   55CHL1   C17 5200   6.357   4.744   3.761 -0.4867 -0.1339  0.3020
   55CHL1   H17 5201   6.312   4.694   3.850  1.0422 -0.1419  1.1166
   55CHL1   C13 5202   6.297   4.680   3.632  0.3053  0.2987 -0.0729
   55CHL1   C18 5203   6.373   4.711   3.506 -0.2984 -0.0456  0.2796
   55CHL1  H18A 5204   6.474   4.668   3.513 -0.2353 -0.0639 -0.5847
   55CHL1  H18B 5205   6.316   4.674   3.418  0.2834  1.4191 -0.7509
   55CHL1  H18C 5206   6.392   4.820   3.492  1.1674 -0.2354  0.6514
   55CHL1   C12 5207   6.267   4.532   3.642  0.4680  0.6380 -0.1926
   55CHL1  H12A 5208   6.364   4.479   3.635  2.1112  3.3654  0.7472
   55CHL1  H12B 5209   6.224   4.509   3.742 -1.5498 -0.8425 -1.3163
   55CHL1   C11 5210   6.167   4.492   3.529  0.3129  0.4742  0.5104
   55CHL1  H11A 5211   6.226   4.477   3.435 -2.9821  1.0882 -1.8382
   55CHL1  H11B 5212   6.133   4.387   3.536  0.2452  0.4066 -0.6282
   55CHL1    C9 5213   6.039   4.573   3.534  0.2047  0.1200 -0.5113
   55CHL1    H9 5214   6.009   4.552   3.639  1.2484  0.1465 -0.1935
   55CHL1   C10 5215   5.931   4.529   3.434 -0.0667  1.2353 -0.6204
   55CHL1   C19 5216   5.994   4.499   3.292 -0.1685 -0.0247 -0.0367
   55CHL1  H19A 5217   5.913   4.468   3.222 -0.1518 -2.7023  1.0175
   55CHL1  H19B 5218   6.050   4.588   3.257  0.9207 -0.7597 -0.1887
   55CHL1  H19C 5219   6.062   4.412   3.296  0.4863  0.2398 -3.1025
   55CHL1    C1 5220   5.858   4.392   3.491  0.9711  0.2994  0.1561
   55CHL1   H1A 5221   5.931   4.309   3.481 -0.8210 -1.6850  2.5394
   55CHL1   H1B 5222   5.825   4.397   3.596 -0.6574 -3.3368 -0.0531
   55CHL1    C2 5223   5.735   4.351   3.404  0.4558 -0.0674 -0.0719
   55CHL1   H2A 5224   5.688   4.262   3.450 -1.1008  1.6311  1.8009
   55CHL1   H2B 5225   5.767   4.306   3.308 -1.1594 -0.4858 -0.4304
   55CHL1   C20 5226   6.512   4.724   3.787  0.2573 -0.1035 -1.1654
   55CHL1   H20 5227   6.559   4.784   3.706  1.1895 -0.9534 -1.2774
   55CHL1   C21 5228   6.557   4.578   3.772  0.0552  0.7919 -0.2565
   55CHL1  H21A 5229   6.663   4.569   3.806 -0.2385  0.0779  0.4878
   55CHL1  H21B 5230   6.546   4.541   3.667 -0.0470  1.3538 -0.4444
   55CHL1  H21C 5231   6.498   4.512   3.839 -2.4860  0.5077 -2.5802
   55CHL1   C22 5232   6.544   4.788   3.924 -0.6639 -0.4404 -0.9150
   55CHL1  H22A 5233   6.494   4.887   3.937  2.0101  1.4446 -3.5061
   55CHL1  H22B 5234   6.486   4.734   4.001 -0.7055  0.1134 -0.5512
   55CHL1   C23 5235   6.691   4.810   3.949 -0.0125  0.7471 -0.5016
   55CHL1  H23A 5236   6.747   4.714   3.950 -2.1583 -0.6159 -2.5979
   55CHL1  H23B 5237   6.724   4.877   3.867  0.1969  1.4724  0.1626
   55CHL1   C24 5238   6.718   4.883   4.085  0.9129  0.9281  0.7355
   55CHL1  H24A 5239   6.671   4.983   4.086 -1.8223 -0.2521  2.7620
   55CHL1  H24B 5240   6.658   4.828   4.161  2.4391 -2.0635 -0.0528
   55CHL1   C25 5241   6.863   4.874   4.123 -0.1932 -0.1270  0.3812
   55CHL1   H25 5242   6.898   4.768   4.117  0.0006  0.0110 -3.5280
   55CHL1   C26 5243   6.951   4.951   4.023  0.0968 -0.4034 -0.2018
   55CHL1  H26A 5244   6.948   4.911   3.919 -0.0058  1.4255 -0.9448
   55CHL1  H26B 5245   6.916   5.055   4.008 -0.0556 -0.0415  2.2696
   55CHL1  H26C 5246   7.052   4.971   4.062 -1.2768  3.2815  1.9903
   55CHL1   C27 5247   6.883   4.930   4.262 -0.1510  0.9409  0.1729
   55CHL1  H27A 5248   6.805   4.889   4.330 -0.2371 -2.2503 -1.7043
   55CHL1  H27B 5249   6.979   4.892   4.302  0.5908  2.2358 -0.3030
   55CHL1  H27C 5250   6.879   5.041   4.252 -1.3996  0.8642 -0.4286
   56CHL1    C3 5251   1.746   5.691   2.888 -0.5668  0.7438 -0.8863
   56CHL1    H3 5252   1.683   5.611   2.932 -0.2092  0.9743  0.0689
   56CHL1    O3 5253   1.723   5.704   2.751  0.2815 -0.2703  0.0525
   56CHL1   H3' 5254   1.772   5.785   2.732  0.2776 -0.2593  0.0876
   56CHL1    C4 5255   1.695   5.822   2.961 -1.0802 -0.0078  0.5327
   56CHL1   H4A 5256   1.734   5.916   2.917  1.0830  0.9173  3.9620
   56CHL1   H4B 5257   1.588   5.828   2.933 -0.6958  1.6358 -0.7426
   56CHL1    C5 5258   1.725   5.807   3.107  0.0558  0.3193  0.0144
   56CHL1    C6 5259   1.626   5.806   3.195 -0.8716 -0.2240  1.2831
   56CHL1    H6 5260   1.527   5.841   3.161  0.4778  2.7753  0.0332
   56CHL1    C7 5261   1.649   5.781   3.343  0.2516 -0.2951  1.4072
   56CHL1   H7A 5262   1.576   5.844   3.398  0.6983  0.6791  0.9180
   56CHL1   H7B 5263   1.629   5.673   3.356 -2.4407 -0.2673 -1.3655
   56CHL1    C8 5264   1.793   5.813   3.388 -0.0381 -0.9739 -0.8178
   56CHL1    H8 5265   1.811   5.921   3.372 -0.2838 -0.6442  0.9280
   56CHL1   C14 5266   1.812   5.756   3.528 -0.7327  0.3932 -0.6106
   56CHL1   H14 5267   1.796   5.648   3.504  1.5823 -0.0471 -0.3775
   56CHL1   C15 5268   1.715   5.795   3.642 -0.3118 -0.7546  0.1060
   56CHL1  H15A 5269   1.716   5.905   3.653 -1.0577 -0.4757 -2.1022
   56CHL1  H15B 5270   1.616   5.750   3.621 -0.9189  0.0377  1.2012
   56CHL1   C16 5271   1.794   5.752   3.768  0.6111  0.5718  0.1635
   56CHL1  H16A 5272   1.789   5.835   3.841 -1.1886 -0.6766  1.5283
   56CHL1  H16B 5273   1.754   5.661   3.817  1.7592 -0.7176 -1.1604
   56CHL1   C17 5274   1.939   5.717   3.723 -0.6498 -0.5602 -0.3837
   56CHL1   H17 5275   1.930   5.607   3.715 -1.3411 -0.4148 -2.2514
   56CHL1   C13 5276   1.956   5.774   3.589 -0.1421 -0.3455  0.4904
   56CHL1   C18 5277   1.973   5.925   3.595 -0.1059  0.1042  0.7200
   56CHL1  H18A 5278   1.973   5.965   3.492  1.0923 -1.4036  0.0994
   56CHL1  H18B 5279   1.899   5.984   3.653 -0.4848  0.5731 -0.2206
   56CHL1  H18C 5280   2.078   5.942   3.628  0.5291 -2.3443  0.1355
   56CHL1   C12 5281   2.057   5.698   3.502 -0.6390 -0.7698 -0.2348
   56CHL1  H12A 5282   2.163   5.702   3.537 -0.3066 -1.9231 -1.0304
   56CHL1  H12B 5283   2.046   5.588   3.501 -0.0147 -0.8380 -0.7911
   56CHL1   C11 5284   2.048   5.748   3.355 -0.0554 -0.3110 -0.1040
   56CHL1  H11A 5285   2.092   5.849   3.338  1.1884 -0.7127  0.6179
   56CHL1  H11B 5286   2.107   5.673   3.298 -1.4007 -1.4855  0.0019
   56CHL1    C9 5287   1.899   5.737   3.298 -0.1496 -0.4350 -0.0259
   56CHL1    H9 5288   1.870   5.630   3.309 -1.6603 -0.4075 -2.6803
   56CHL1   C10 5289   1.873   5.769   3.148 -0.2650 -0.2930  0.7883
   56CHL1   C19 5290   1.956   5.895   3.114 -0.2723 -0.4472  0.3740
   56CHL1  H19A 5291   2.066   5.885   3.131  0.1873  0.8583 -1.5040
   56CHL1  H19B 5292   1.950   5.915   3.005 -0.2790 -0.2619  0.4090
   56CHL1  H19C 5293   1.918   5.981   3.172  2.0784 -0.0405  1.4365
   56CHL1    C1 5294   1.924   5.640   3.062 -0.1994  0.3659 -0.4500
   56CHL1   H1A 5295   2.033   5.620   3.070  0.0954  0.8942 -2.5785
   56CHL1   H1B 5296   1.867   5.556   3.107  0.1451  0.2159 -0.2939
   56CHL1    C2 5297   1.891   5.655   2.906 -0.5387 -0.6594 -0.3880
   56CHL1   H2A 5298   1.918   5.562   2.851  1.2291  0.3842 -1.3460
   56CHL1   H2B 5299   1.961   5.734   2.872 -1.4423 -0.1874 -1.2203
   56CHL1   C20 5300   2.040   5.751   3.830 -0.9097 -0.5173  0.1702
   56CHL1   H20 5301   2.028   5.855   3.868 -2.4237 -0.4655 -0.3977
   56CHL1   C21 5302   2.188   5.739   3.792 -0.3592 -0.6522  0.3132
   56CHL1  H21A 5303   2.252   5.768   3.878  0.2460 -2.4805  0.5110
   56CHL1  H21B 5304   2.221   5.814   3.717  1.2906 -0.7064  0.9372
   56CHL1  H21C 5305   2.210   5.632   3.775 -1.1585 -0.8063  0.2167
   56CHL1   C22 5306   2.010   5.661   3.954 -0.3507 -1.0891 -0.4135
   56CHL1  H22A 5307   1.906   5.623   3.947 -0.8702  0.4272 -1.6289
   56CHL1  H22B 5308   2.079   5.574   3.962  1.7228  0.2812 -2.0426
   56CHL1   C23 5309   2.026   5.742   4.093 -0.2845  0.1681 -0.6912
   56CHL1  H23A 5310   2.121   5.799   4.086 -0.1026 -0.2692 -2.0372
   56CHL1  H23B 5311   1.942   5.814   4.107 -0.6379 -0.5994  1.6794
   56CHL1   C24 5312   2.024   5.655   4.223 -0.1807  0.0071 -0.3994
   56CHL1  H24A 5313   1.992   5.722   4.305 -0.9302  0.6658 -1.2010
   56CHL1  H24B 5314   1.953   5.570   4.232  0.0102  0.0857  2.5519
   56CHL1   C25 5315   2.165   5.593   4.242 -0.0417 -0.3797 -0.0908
   56CHL1   H25 5316   2.191   5.545   4.145 -0.0683  1.1563 -0.8827
   56CHL1   C26 5317   2.282   5.687   4.272 -0.0534 -0.3849  0.3044
   56CHL1  H26A 5318   2.287   5.725   4.377  1.0313  1.5876 -0.4122
   56CHL1  H26B 5319   2.378   5.633   4.260  0.3997  0.0549  1.6889
   56CHL1  H26C 5320   2.284   5.776   4.205  0.5103 -1.2130 -0.8104
   56CHL1   C27 5321   2.161   5.493   4.359 -0.1549  0.1620  0.2678
   56CHL1  H27A 5322   2.260   5.442   4.355  0.5599  1.5038  0.5358
   56CHL1  H27B 5323   2.155   5.546   4.456 -1.3586  0.4553  0.0493
   56CHL1  H27C 5324   2.081   5.416   4.352 -2.4346  2.5359 -2.6620
   57CHL1    C3 5325   5.373   4.934   2.875 -0.1214  0.4253 -0.3114
   57CHL1    H3 5326   5.293   4.877   2.927 -0.3442  0.0786 -1.0245
   57CHL1    O3 5327   5.347   4.912   2.744  0.8502 -0.5415  0.1621
   57CHL1   H3' 5328   5.392   4.832   2.715  0.6722 -0.0702 -1.4965
   57CHL1    C4 5329   5.366   5.084   2.892 -0.7181  0.3004  0.4551
   57CHL1   H4A 5330   5.439   5.129   2.822 -0.7074 -1.5437 -0.8065
   57CHL1   H4B 5331   5.271   5.122   2.846  1.0138  2.9920 -1.1876
   57CHL1    C5 5332   5.387   5.129   3.035  0.6694  0.2983 -0.3129
   57CHL1    C6 5333   5.297   5.207   3.094 -0.2570  0.0156  0.0512
   57CHL1    H6 5334   5.206   5.231   3.037  1.1510  0.8580 -1.9578
   57CHL1    C7 5335   5.305   5.252   3.232  0.1329  0.3111 -0.7227
   57CHL1   H7A 5336   5.291   5.361   3.245 -2.3742 -0.1180  0.6963
   57CHL1   H7B 5337   5.219   5.204   3.284  0.0326  2.2504  1.0087
   57CHL1    C8 5338   5.445   5.217   3.297 -0.5514  0.5847  0.2587
   57CHL1    H8 5339   5.509   5.297   3.255 -1.7987  1.6199  0.2662
   57CHL1   C14 5340   5.429   5.219   3.442  0.6681 -0.3704 -0.1267
   57CHL1   H14 5341   5.350   5.149   3.477  1.0513 -0.6047  0.2967
   57CHL1   C15 5342   5.388   5.359   3.503  0.5710  0.6105  0.5809
   57CHL1  H15A 5343   5.450   5.432   3.446 -1.6764  0.7691 -1.8590
   57CHL1  H15B 5344   5.279   5.373   3.485  0.2470 -3.3329 -1.6294
   57CHL1   C16 5345   5.420   5.343   3.655 -0.1052  0.3226 -0.1544
   57CHL1  H16A 5346   5.478   5.434   3.680  0.3922  0.8879 -3.0405
   57CHL1  H16B 5347   5.326   5.335   3.715  0.5676  3.7102  1.5944
   57CHL1   C17 5348   5.514   5.214   3.665  0.1149  0.0828  0.0849
   57CHL1   H17 5349   5.438   5.138   3.692  1.4107 -1.6811 -0.9999
   57CHL1   C13 5350   5.559   5.184   3.519  0.0597 -0.4253  0.6217
   57CHL1   C18 5351   5.677   5.282   3.483  0.6735 -0.1446  0.1365
   57CHL1  H18A 5352   5.689   5.302   3.374 -2.5191  0.0714 -0.2820
   57CHL1  H18B 5353   5.651   5.383   3.521  1.5023  1.0145 -2.1385
   57CHL1  H18C 5354   5.773   5.251   3.530  1.1631  0.0473 -0.7098
   57CHL1   C12 5355   5.610   5.041   3.491  0.2450 -0.4505 -0.0071
   57CHL1  H12A 5356   5.712   5.039   3.534  1.1379 -0.8510 -2.0092
   57CHL1  H12B 5357   5.540   4.972   3.541  0.2788  1.0453  2.2345
   57CHL1   C11 5358   5.615   5.027   3.334  0.8406  0.1302  0.5352
   57CHL1  H11A 5359   5.704   5.075   3.289 -0.4565  2.3805  0.2183
   57CHL1  H11B 5360   5.637   4.921   3.313  1.6003  0.2243  0.8248
   57CHL1    C9 5361   5.492   5.073   3.256  0.0252 -0.0258  0.5129
   57CHL1    H9 5362   5.410   5.013   3.301 -0.5060  0.8845  0.8039
   57CHL1   C10 5363   5.508   5.058   3.103  0.4769 -0.2975  0.7228
   57CHL1   C19 5364   5.635   5.130   3.043  0.2925  0.3146 -0.1207
   57CHL1  H19A 5365   5.653   5.125   2.934  1.4226  1.2696  0.0063
   57CHL1  H19B 5366   5.649   5.235   3.074  0.0288  0.0585  0.9147
   57CHL1  H19C 5367   5.727   5.079   3.081  1.7934  1.1599 -2.4361
   57CHL1    C1 5368   5.518   4.904   3.064 -0.6806 -0.5638  0.2576
   57CHL1   H1A 5369   5.619   4.867   3.094  1.1057  3.6273  0.1422
   57CHL1   H1B 5370   5.436   4.850   3.115 -0.0067 -1.3043  0.5751
   57CHL1    C2 5371   5.509   4.877   2.910  0.3060 -0.3417  0.3103
   57CHL1   H2A 5372   5.510   4.769   2.885  2.5600  0.4217 -3.6998
   57CHL1   H2B 5373   5.598   4.918   2.858  0.6978 -1.1570  0.3150
   57CHL1   C20 5374   5.623   5.218   3.784  0.5685 -0.0074  0.3471
   57CHL1   H20 5375   5.707   5.283   3.753  0.0366  0.8281  0.6199
   57CHL1   C21 5376   5.677   5.077   3.805 -0.7219  0.2793 -0.3401
   57CHL1  H21A 5377   5.770   5.064   3.747 -0.9207 -0.1555 -0.5688
   57CHL1  H21B 5378   5.613   4.994   3.766 -0.3454 -1.4013  2.3373
   57CHL1  H21C 5379   5.694   5.057   3.913  1.1310  0.8234 -0.5013
   57CHL1   C22 5380   5.582   5.277   3.917 -0.1015 -0.2230 -0.2972
   57CHL1  H22A 5381   5.664   5.263   3.991 -0.2446 -0.0797 -0.1086
   57CHL1  H22B 5382   5.564   5.386   3.908 -0.1625 -0.2347 -0.3209
   57CHL1   C23 5383   5.458   5.227   3.992  0.1783 -0.2006 -0.2435
   57CHL1  H23A 5384   5.371   5.222   3.924 -1.2928  0.2626  1.5311
   57CHL1  H23B 5385   5.470   5.120   4.019 -1.4782 -0.2977  0.2101
   57CHL1   C24 5386   5.423   5.310   4.121  0.2509 -0.5678 -0.0323
   57CHL1  H24A 5387   5.500   5.324   4.199  0.1964  1.8173 -0.3348
   57CHL1  H24B 5388   5.416   5.416   4.090 -0.2566 -0.6498 -0.2073
   57CHL1   C25 5389   5.287   5.269   4.191 -0.0552 -0.3531 -0.8805
   57CHL1   H25 5390   5.280   5.161   4.217 -0.7212  0.0589  0.8331
   57CHL1   C26 5391   5.272   5.344   4.323 -0.1614 -0.3435  0.5584
   57CHL1  H26A 5392   5.169   5.349   4.363 -0.3467  0.2932  0.0147
   57CHL1  H26B 5393   5.343   5.300   4.397  2.9447  0.8614 -1.5038
   57CHL1  H26C 5394   5.306   5.449   4.306  4.8432 -1.5671  1.2681
   57CHL1   C27 5395   5.176   5.314   4.095  0.5079 -0.3950 -0.5073
   57CHL1  H27A 5396   5.077   5.295   4.143  1.1565 -1.4583  0.4507
   57CHL1  H27B 5397   5.183   5.421   4.065  2.0171 -0.4924 -0.5668
   57CHL1  H27C 5398   5.180   5.248   4.006  1.1148 -3.8583  1.9101
   58CHL1    C3 5399   5.180   4.551   3.263 -0.6728  0.0750 -0.7457
   58CHL1    H3 5400   5.073   4.545   3.235 -0.9693  0.8727  0.1692
   58CHL1    O3 5401   5.263   4.451   3.206 -0.2269 -0.2582 -0.6292
   58CHL1   H3' 5402   5.351   4.458   3.245 -0.2764  0.3847 -0.6181
   58CHL1    C4 5403   5.228   4.690   3.222 -0.5029 -1.2488 -0.3143
   58CHL1   H4A 5404   5.331   4.701   3.262 -0.5342 -1.4911 -0.1617
   58CHL1   H4B 5405   5.231   4.685   3.111  1.5362 -2.0988 -0.2706
   58CHL1    C5 5406   5.137   4.803   3.272 -0.2685 -0.1521 -0.0518
   58CHL1    C6 5407   5.078   4.893   3.192 -0.7875  0.2171  0.1624
   58CHL1    H6 5408   5.086   4.897   3.083  2.3109 -0.2549  0.2773
   58CHL1    C7 5409   4.997   5.008   3.250 -0.5442 -0.2523 -0.0304
   58CHL1   H7A 5410   5.028   5.103   3.202 -0.0645  0.1500  1.0400
   58CHL1   H7B 5411   4.888   4.998   3.231 -0.6913  0.3952  0.4086
   58CHL1    C8 5412   5.011   5.028   3.405  0.1798 -0.4052 -0.4323
   58CHL1    H8 5413   5.107   5.081   3.422 -0.8236  1.4067 -0.0797
   58CHL1   C14 5414   4.901   5.120   3.463  0.1847  0.3359 -1.0250
   58CHL1   H14 5415   4.809   5.069   3.429 -0.9425  0.5633  1.4678
   58CHL1   C15 5416   4.882   5.258   3.403  0.3939 -0.1853 -0.4484
   58CHL1  H15A 5417   4.976   5.314   3.381 -0.3126  0.0707 -3.3557
   58CHL1  H15B 5418   4.831   5.253   3.304 -0.8913  0.0272  0.1795
   58CHL1   C16 5419   4.779   5.324   3.499  0.1650  0.5515  0.0458
   58CHL1  H16A 5420   4.809   5.426   3.529 -2.3984  0.3552  4.0841
   58CHL1  H16B 5421   4.675   5.316   3.460  0.7724  0.1163 -1.6012
   58CHL1   C17 5422   4.773   5.231   3.632 -0.1326 -0.6013  0.4873
   58CHL1   H17 5423   4.682   5.169   3.615 -1.1062  0.3530  1.9342
   58CHL1   C13 5424   4.895   5.142   3.614 -0.2601  0.7937  0.1672
   58CHL1   C18 5425   5.011   5.237   3.649 -0.6882  0.3210  0.6819
   58CHL1  H18A 5426   5.099   5.183   3.610 -1.1805 -2.0049  2.5622
   58CHL1  H18B 5427   5.007   5.339   3.604 -0.4314 -0.3715 -1.0044
   58CHL1  H18C 5428   5.010   5.244   3.760  0.4655 -2.7426  0.9661
   58CHL1   C12 5429   4.896   5.000   3.675  0.2394  0.3991 -0.1574
   58CHL1  H12A 5430   4.887   5.006   3.786  0.7444 -0.3974 -0.0623
   58CHL1  H12B 5431   4.812   4.940   3.634 -1.0466  0.2568  2.4360
   58CHL1   C11 5432   5.014   4.912   3.629 -0.0716 -0.0471  0.0709
   58CHL1  H11A 5433   5.104   4.969   3.660  0.7285  0.0856 -2.2507
   58CHL1  H11B 5434   5.016   4.817   3.685  0.3185 -0.8471 -1.2690
   58CHL1    C9 5435   5.016   4.889   3.476  0.0604 -0.2299  0.2568
   58CHL1    H9 5436   4.917   4.841   3.462  0.0477 -0.4152  0.9669
   58CHL1   C10 5437   5.127   4.795   3.428  0.0942 -0.6059 -0.1949
   58CHL1   C19 5438   5.256   4.843   3.501  0.7280  0.5827 -0.0593
   58CHL1  H19A 5439   5.284   4.943   3.460 -0.0492  0.8321 -0.0006
   58CHL1  H19B 5440   5.256   4.859   3.611  1.5141 -1.3104  0.2539
   58CHL1  H19C 5441   5.338   4.772   3.480 -0.4359 -0.6082 -0.7508
   58CHL1    C1 5442   5.099   4.652   3.476  0.2186 -0.8569 -0.7285
   58CHL1   H1A 5443   5.108   4.633   3.585  0.3157 -2.7041 -1.0300
   58CHL1   H1B 5444   4.991   4.629   3.464 -0.1103 -0.5184  1.2618
   58CHL1    C2 5445   5.186   4.539   3.416 -1.2615 -0.3983 -0.8521
   58CHL1   H2A 5446   5.150   4.442   3.454  0.5938 -1.0858 -0.7304
   58CHL1   H2B 5447   5.294   4.544   3.443 -2.1605  0.2255  3.3024
   58CHL1   C20 5448   4.750   5.310   3.761  0.5649  1.2227 -0.5855
   58CHL1   H20 5449   4.832   5.385   3.763  2.2043 -0.3586 -3.0921
   58CHL1   C21 5450   4.753   5.227   3.895  0.4338 -0.1541  0.0041
   58CHL1  H21A 5451   4.841   5.159   3.898  0.5630  0.0196  0.1897
   58CHL1  H21B 5452   4.653   5.181   3.909  0.0516  0.7042  0.1715
   58CHL1  H21C 5453   4.767   5.288   3.987  0.7577  1.1531 -0.8875
   58CHL1   C22 5454   4.620   5.403   3.769 -0.8500  0.7157 -0.8022
   58CHL1  H22A 5455   4.616   5.435   3.876 -2.2425 -0.1195 -0.5831
   58CHL1  H22B 5456   4.640   5.498   3.715  0.6290  2.1490  2.0105
   58CHL1   C23 5457   4.497   5.334   3.722 -0.7170 -0.9841  0.6873
   58CHL1  H23A 5458   4.502   5.325   3.611  2.9772  2.6297  0.3191
   58CHL1  H23B 5459   4.503   5.236   3.774 -1.0573 -1.5356 -0.2790
   58CHL1   C24 5460   4.367   5.410   3.753  0.4575  0.0919 -0.5062
   58CHL1  H24A 5461   4.365   5.419   3.863  0.3690  1.9306 -0.6252
   58CHL1  H24B 5462   4.380   5.511   3.708 -1.2595  0.5521 -0.0344
   58CHL1   C25 5463   4.239   5.351   3.693  1.1382 -0.2157  0.0943
   58CHL1   H25 5464   4.232   5.244   3.720 -0.7030 -0.4225 -1.0480
   58CHL1   C26 5465   4.120   5.421   3.765  0.2547 -1.4690 -0.0253
   58CHL1  H26A 5466   4.029   5.394   3.706  0.1119 -0.7023 -0.1701
   58CHL1  H26B 5467   4.104   5.375   3.865 -1.8538 -0.7691  0.0198
   58CHL1  H26C 5468   4.130   5.532   3.763  2.6181 -1.6236  0.7466
   58CHL1   C27 5469   4.237   5.382   3.544  0.5366 -0.2213 -0.1006
   58CHL1  H27A 5470   4.152   5.338   3.488  0.4911 -0.3762  0.0923
   58CHL1  H27B 5471   4.231   5.492   3.528 -0.1285 -0.3353 -0.6514
   58CHL1  H27C 5472   4.331   5.352   3.491  0.6677  0.6376 -0.3781
   59CHL1    C3 5473   4.804   2.158   3.216 -0.1354  0.2535 -0.3122
   59CHL1    H3 5474   4.771   2.069   3.273 -3.1974  0.8116 -1.0543
   59CHL1    O3 5475   4.919   2.116   3.137  0.2165 -0.2830  0.2490
   59CHL1   H3' 5476   4.963   2.197   3.111 -2.3534  2.0319  2.4810
   59CHL1    C4 5477   4.696   2.228   3.134  0.7957 -0.4238 -0.5967
   59CHL1   H4A 5478   4.723   2.320   3.078 -0.6454  0.1935 -0.2996
   59CHL1   H4B 5479   4.667   2.150   3.059 -1.3362 -1.5472  1.2931
   59CHL1    C5 5480   4.579   2.269   3.221  0.6359  0.2054 -0.4433
   59CHL1    C6 5481   4.452   2.222   3.194  0.8967  0.0596 -0.1678
   59CHL1    H6 5482   4.435   2.150   3.112 -1.1981  0.2815  0.0298
   59CHL1    C7 5483   4.337   2.244   3.283  0.3486  0.8331 -0.0708
   59CHL1   H7A 5484   4.246   2.266   3.222 -1.2137 -2.3636  0.8780
   59CHL1   H7B 5485   4.308   2.152   3.338 -1.4553  1.6271  0.3991
   59CHL1    C8 5486   4.352   2.357   3.389  0.3064  0.1643  0.1845
   59CHL1    H8 5487   4.315   2.455   3.351 -0.1373 -0.2163 -0.3776
   59CHL1   C14 5488   4.255   2.334   3.507 -0.0458 -0.8607  0.1645
   59CHL1   H14 5489   4.291   2.247   3.566  1.6837  0.2512  0.8072
   59CHL1   C15 5490   4.108   2.296   3.476  0.3866 -0.8659  0.8170
   59CHL1  H15A 5491   4.074   2.362   3.394  0.6666 -2.6888 -0.8366
   59CHL1  H15B 5492   4.085   2.191   3.448 -0.1360 -0.2473 -1.2336
   59CHL1   C16 5493   4.029   2.334   3.609 -0.2849 -0.5900 -0.0659
   59CHL1  H16A 5494   3.960   2.421   3.609  1.5055  0.8952 -1.3857
   59CHL1  H16B 5495   3.985   2.239   3.646  0.6410 -0.8995  0.2713
   59CHL1   C17 5496   4.134   2.391   3.710  0.3099  0.0340  0.1481
   59CHL1   H17 5497   4.174   2.297   3.754  0.3308  0.4535  1.0433
   59CHL1   C13 5498   4.245   2.445   3.613 -1.1005 -0.4643  0.4414
   59CHL1   C18 5499   4.198   2.579   3.545  0.7167 -0.0818  0.4707
   59CHL1  H18A 5500   4.273   2.623   3.476 -2.1736  0.8039 -2.3385
   59CHL1  H18B 5501   4.117   2.563   3.471  1.3439 -0.4075 -0.1549
   59CHL1  H18C 5502   4.173   2.653   3.624  0.2368 -1.5332  1.7175
   59CHL1   C12 5503   4.393   2.458   3.672  0.2164 -0.1132 -0.2743
   59CHL1  H12A 5504   4.404   2.551   3.732 -1.2198  1.9283 -2.9485
   59CHL1  H12B 5505   4.422   2.362   3.718 -0.9218 -0.6259 -0.5907
   59CHL1   C11 5506   4.498   2.470   3.563 -0.2625  0.4046 -0.2443
   59CHL1  H11A 5507   4.501   2.568   3.510  0.1419  1.1138  1.0441
   59CHL1  H11B 5508   4.596   2.468   3.616  1.9170  1.8999 -3.8506
   59CHL1    C9 5509   4.490   2.364   3.442 -0.6942 -0.2543 -0.1544
   59CHL1    H9 5510   4.505   2.267   3.493 -0.4549 -0.3134 -0.3342
   59CHL1   C10 5511   4.605   2.362   3.343 -0.3891  0.3949 -0.3663
   59CHL1   C19 5512   4.632   2.510   3.294  0.3967  0.2990  0.3396
   59CHL1  H19A 5513   4.719   2.516   3.226 -0.7243 -0.8770 -1.2688
   59CHL1  H19B 5514   4.539   2.549   3.247  0.1484  1.3816  1.6508
   59CHL1  H19C 5515   4.655   2.578   3.379 -1.8132  1.3795  0.1541
   59CHL1    C1 5516   4.737   2.309   3.417  1.0737 -0.0810 -0.6467
   59CHL1   H1A 5517   4.777   2.393   3.478  1.4123 -1.1008  0.5819
   59CHL1   H1B 5518   4.713   2.225   3.486 -1.0507 -0.1339 -1.3629
   59CHL1    C2 5519   4.851   2.255   3.326 -0.2827  0.3630  0.1906
   59CHL1   H2A 5520   4.917   2.199   3.395 -1.7388 -4.1224 -1.7188
   59CHL1   H2B 5521   4.905   2.342   3.283  1.9627 -1.1245 -0.1713
   59CHL1   C20 5522   4.079   2.478   3.827 -0.0406  0.4797  0.1260
   59CHL1   H20 5523   4.032   2.567   3.781 -1.0256  0.0048  0.1870
   59CHL1   C21 5524   4.198   2.510   3.924 -0.1710  0.5442  0.8651
   59CHL1  H21A 5525   4.252   2.592   3.873  1.4568 -0.3635  1.0684
   59CHL1  H21B 5526   4.264   2.422   3.934  0.5415  0.8208 -0.9756
   59CHL1  H21C 5527   4.168   2.544   4.026 -1.8793  1.9575 -0.0403
   59CHL1   C22 5528   3.979   2.395   3.910 -0.1694  0.7357 -0.4372
   59CHL1  H22A 5529   3.896   2.365   3.843 -2.3978  1.3721  1.8476
   59CHL1  H22B 5530   4.026   2.301   3.944 -1.8919 -0.0051  0.0162
   59CHL1   C23 5531   3.907   2.465   4.029  0.0333 -0.2116  0.9243
   59CHL1  H23A 5532   3.988   2.486   4.102 -0.4927  1.4244  1.0678
   59CHL1  H23B 5533   3.866   2.562   3.994 -1.3553 -0.8026  0.8454
   59CHL1   C24 5534   3.793   2.381   4.073  0.3503  0.5458 -0.3987
   59CHL1  H24A 5535   3.820   2.274   4.084 -1.7693  0.0136 -0.0300
   59CHL1  H24B 5536   3.773   2.420   4.175 -0.9059  0.1701 -0.4910
   59CHL1   C25 5537   3.668   2.407   3.989 -0.0502  0.5745 -0.1587
   59CHL1   H25 5538   3.695   2.426   3.883  0.6082  1.4771  0.1482
   59CHL1   C26 5539   3.581   2.283   3.994  0.6863  0.0682  0.3150
   59CHL1  H26A 5540   3.641   2.192   3.972 -1.4137 -0.8756 -1.8271
   59CHL1  H26B 5541   3.533   2.264   4.093  0.4165 -1.1940 -0.0497
   59CHL1  H26C 5542   3.509   2.290   3.910 -0.0652 -0.0774  0.9364
   59CHL1   C27 5543   3.583   2.522   4.045  0.2245 -0.0839  0.0372
   59CHL1  H27A 5544   3.571   2.530   4.155  1.3763  3.1191  0.0237
   59CHL1  H27B 5545   3.619   2.618   4.002  0.1173  0.4335  1.0619
   59CHL1  H27C 5546   3.479   2.505   4.012 -0.9562 -0.0905  3.4118
   60CHL1    C3 5547   6.153   0.350   2.701 -0.1271 -0.0783 -0.3096
   60CHL1    H3 5548   6.123   0.246   2.728  2.0905 -0.4848  0.8250
   60CHL1    O3 5549   6.183   0.343   2.563 -0.3093  0.6500  0.4057
   60CHL1   H3' 5550   6.129   0.271   2.529  1.6975 -1.1302  0.7281
   60CHL1    C4 5551   6.035   0.446   2.728 -0.2035 -0.3532  0.2932
   60CHL1   H4A 5552   6.049   0.546   2.682 -0.2663 -0.7585 -0.6316
   60CHL1   H4B 5553   5.951   0.393   2.677  0.1886 -1.9608  1.2390
   60CHL1    C5 5554   6.015   0.463   2.877  0.6171  0.1857 -0.5906
   60CHL1    C6 5555   5.893   0.425   2.931 -0.7593 -0.6931  0.5771
   60CHL1    H6 5556   5.812   0.395   2.863 -0.5551 -1.2982  0.5982
   60CHL1    C7 5557   5.862   0.450   3.073 -0.1774 -0.3497  0.1807
   60CHL1   H7A 5558   5.759   0.492   3.082 -0.5433 -1.2075  0.1223
   60CHL1   H7B 5559   5.864   0.351   3.125 -0.8281  0.2852  1.4794
   60CHL1    C8 5560   5.955   0.539   3.148  0.4419 -0.7028 -0.7506
   60CHL1    H8 5561   5.925   0.645   3.132  2.2206 -0.2419 -1.2127
   60CHL1   C14 5562   5.939   0.530   3.305 -0.1360 -0.6362  0.3997
   60CHL1   H14 5563   5.972   0.425   3.318  2.7274  0.1352  0.0107
   60CHL1   C15 5564   5.805   0.556   3.362 -0.8647 -0.0859  1.2104
   60CHL1  H15A 5565   5.763   0.644   3.310  2.2007 -0.0299 -1.4938
   60CHL1  H15B 5566   5.744   0.464   3.352 -1.0340  0.1023  0.4922
   60CHL1   C16 5567   5.832   0.583   3.507  0.3520  0.2086 -0.0093
   60CHL1  H16A 5568   5.773   0.670   3.543  1.3404  0.6969  0.4732
   60CHL1  H16B 5569   5.810   0.497   3.574  3.0138  0.0485  0.7566
   60CHL1   C17 5570   5.987   0.584   3.517 -0.6064  0.1810 -0.7273
   60CHL1   H17 5571   6.024   0.480   3.533 -0.4931  0.0754 -1.6536
   60CHL1   C13 5572   6.038   0.617   3.382 -0.0683  0.0153  0.3561
   60CHL1   C18 5573   6.007   0.764   3.351  0.2335 -0.3474  0.3563
   60CHL1  H18A 5574   6.007   0.795   3.245  1.5231  0.3618  0.5377
   60CHL1  H18B 5575   5.909   0.798   3.391  0.3455  0.8737 -0.3847
   60CHL1  H18C 5576   6.081   0.824   3.408  0.9410 -2.1927  1.5007
   60CHL1   C12 5577   6.180   0.590   3.354  0.6725 -0.1133 -0.5599
   60CHL1  H12A 5578   6.257   0.653   3.404  0.8284 -0.3737 -0.4743
   60CHL1  H12B 5579   6.218   0.489   3.377  1.1970  0.2730  0.3077
   60CHL1   C11 5580   6.211   0.594   3.200 -0.5263 -0.3324 -0.2944
   60CHL1  H11A 5581   6.199   0.701   3.175 -2.9913 -0.4431  0.1274
   60CHL1  H11B 5582   6.317   0.565   3.182 -0.9872 -3.5916  1.4765
   60CHL1    C9 5583   6.099   0.519   3.108 -0.1710 -0.4459 -0.3365
   60CHL1    H9 5584   6.119   0.416   3.145  2.4849 -0.3198 -1.1715
   60CHL1   C10 5585   6.127   0.519   2.957  0.3860  0.3445  0.6763
   60CHL1   C19 5586   6.163   0.667   2.923  0.3471  0.4597  0.8950
   60CHL1  H19A 5587   6.182   0.691   2.816  0.9928  0.3791  0.9895
   60CHL1  H19B 5588   6.085   0.738   2.958 -2.2808 -2.6930  2.0046
   60CHL1  H19C 5589   6.257   0.683   2.980  1.8199 -2.3974 -0.5229
   60CHL1    C1 5590   6.252   0.423   2.924 -0.4185  0.2784  0.7599
   60CHL1   H1A 5591   6.343   0.469   2.967 -1.4466  2.0926  1.1330
   60CHL1   H1B 5592   6.220   0.328   2.972 -2.8197  0.3273 -0.5723
   60CHL1    C2 5593   6.277   0.396   2.774  0.6504 -0.2147 -0.6445
   60CHL1   H2A 5594   6.355   0.319   2.758  0.7456  0.3306 -3.2057
   60CHL1   H2B 5595   6.301   0.496   2.731  1.9511 -0.1455  0.2072
   60CHL1   C20 5596   6.028   0.662   3.648 -0.3272 -0.5081 -0.1946
   60CHL1   H20 5597   5.993   0.768   3.646 -0.5633 -0.6038 -1.6640
   60CHL1   C21 5598   6.185   0.666   3.670 -0.0253  0.5443  0.1963
   60CHL1  H21A 5599   6.226   0.563   3.659  0.6206  1.0257 -2.8272
   60CHL1  H21B 5600   6.199   0.692   3.777 -1.6907  0.0370  0.5684
   60CHL1  H21C 5601   6.248   0.728   3.604  0.7603 -1.2002 -0.7693
   60CHL1   C22 5602   5.978   0.590   3.778 -0.1925  0.2921  0.0836
   60CHL1  H22A 5603   6.005   0.653   3.866  0.9483  1.9679 -1.3795
   60CHL1  H22B 5604   5.868   0.599   3.781 -0.4627 -2.1635 -0.9224
   60CHL1   C23 5605   6.012   0.436   3.801 -0.0813  0.0793 -0.4031
   60CHL1  H23A 5606   5.963   0.379   3.719  0.4913 -1.0424  0.0087
   60CHL1  H23B 5607   6.123   0.429   3.801 -0.1226 -0.8265  0.9547
   60CHL1   C24 5608   5.958   0.392   3.940 -0.1753 -0.0183 -0.7963
   60CHL1  H24A 5609   5.992   0.472   4.009  1.4942 -1.0165 -0.4096
   60CHL1  H24B 5610   5.847   0.395   3.941 -0.1739  2.5683 -0.7056
   60CHL1   C25 5611   6.021   0.266   4.005 -0.1249  0.4142  0.0862
   60CHL1   H25 5612   6.018   0.184   3.931  1.5917  0.7954 -0.4498
   60CHL1   C26 5613   6.178   0.280   4.023  0.0074  0.2914  0.1532
   60CHL1  H26A 5614   6.200   0.364   4.092  0.3253 -0.4126  0.9224
   60CHL1  H26B 5615   6.220   0.185   4.061 -1.8357 -1.3885 -1.7774
   60CHL1  H26C 5616   6.234   0.297   3.928  0.8938  0.2137  0.6528
   60CHL1   C27 5617   5.954   0.212   4.135 -0.2858  0.4997  0.4297
   60CHL1  H27A 5618   5.856   0.167   4.106  1.1468 -0.7528 -2.9111
   60CHL1  H27B 5619   6.017   0.128   4.172 -0.7338  0.7425  1.8094
   60CHL1  H27C 5620   5.950   0.282   4.221  1.7855 -1.0538  1.9144
   61CHL1    C3 5621   1.581   1.612   2.800  0.1180 -0.1292 -0.1516
   61CHL1    H3 5622   1.670   1.548   2.783 -0.4784 -0.5590 -1.9616
   61CHL1    O3 5623   1.500   1.614   2.678  0.0155 -0.0378 -0.0580
   61CHL1   H3' 5624   1.538   1.685   2.626 -1.4564  1.3188  0.6448
   61CHL1    C4 5625   1.507   1.536   2.911  0.3428 -0.1379 -0.2863
   61CHL1   H4A 5626   1.408   1.585   2.920  1.5196  2.4020 -0.1489
   61CHL1   H4B 5627   1.478   1.432   2.884  0.9818 -0.2900 -0.3996
   61CHL1    C5 5628   1.579   1.542   3.044 -0.5449 -0.1030 -0.0573
   61CHL1    C6 5629   1.618   1.438   3.118  1.2984  0.5997  0.7238
   61CHL1    H6 5630   1.589   1.337   3.085  0.7730 -0.0819  3.0761
   61CHL1    C7 5631   1.680   1.447   3.259  0.0992  0.2940 -0.8036
   61CHL1   H7A 5632   1.641   1.367   3.326  1.3331 -0.3267 -0.7952
   61CHL1   H7B 5633   1.784   1.410   3.245  0.3738  1.2477 -1.3262
   61CHL1    C8 5634   1.677   1.585   3.321 -0.3447 -0.0929 -0.0562
   61CHL1    H8 5635   1.571   1.606   3.350 -0.6102 -0.0679 -1.0078
   61CHL1   C14 5636   1.764   1.596   3.443  0.1319  0.1210 -0.3490
   61CHL1   H14 5637   1.867   1.576   3.406 -0.0867 -1.1075 -0.3299
   61CHL1   C15 5638   1.744   1.492   3.553 -0.2586 -1.0827  0.0061
   61CHL1  H15A 5639   1.645   1.449   3.580  0.7338 -2.3329  1.9448
   61CHL1  H15B 5640   1.811   1.409   3.522 -0.8925 -1.5291 -0.1922
   61CHL1   C16 5641   1.804   1.560   3.680 -0.3961 -0.4218  0.4754
   61CHL1  H16A 5642   1.726   1.570   3.759 -0.9442  2.3883 -0.3095
   61CHL1  H16B 5643   1.882   1.491   3.717 -2.6955 -3.6098 -0.2441
   61CHL1   C17 5644   1.862   1.697   3.633  0.2273  0.9669  0.6886
   61CHL1   H17 5645   1.960   1.673   3.585 -1.1036  0.4959 -1.9986
   61CHL1   C13 5646   1.764   1.734   3.517  0.6233 -0.1957 -0.5514
   61CHL1   C18 5647   1.629   1.778   3.571  0.4436  0.3716 -0.2666
   61CHL1  H18A 5648   1.551   1.782   3.492  0.9847  0.1122 -0.8308
   61CHL1  H18B 5649   1.584   1.710   3.646  0.0982 -0.7246 -1.4351
   61CHL1  H18C 5650   1.631   1.882   3.612 -0.3815 -0.0649  0.9279
   61CHL1   C12 5651   1.818   1.838   3.420 -0.3390  0.0625  0.7386
   61CHL1  H12A 5652   1.845   1.941   3.452  1.7430 -0.1967 -0.0047
   61CHL1  H12B 5653   1.919   1.805   3.387 -0.4797  0.2694  0.0974
   61CHL1   C11 5654   1.734   1.835   3.284 -0.1544  0.3886  0.4077
   61CHL1  H11A 5655   1.630   1.875   3.288  0.0456  1.0743 -0.7785
   61CHL1  H11B 5656   1.791   1.897   3.211  0.2212 -0.3638  0.0478
   61CHL1    C9 5657   1.713   1.694   3.216 -0.1702  0.3028  0.0265
   61CHL1    H9 5658   1.816   1.659   3.192 -0.0310 -0.2290  1.3041
   61CHL1   C10 5659   1.615   1.690   3.089  0.1694 -0.6447  0.2099
   61CHL1   C19 5660   1.488   1.766   3.124 -0.7948  0.9914  0.4471
   61CHL1  H19A 5661   1.459   1.747   3.230  2.5286  0.0092  1.2995
   61CHL1  H19B 5662   1.499   1.876   3.112  1.4655  1.0411  2.2587
   61CHL1  H19C 5663   1.405   1.734   3.057 -1.3302 -0.8053  1.8701
   61CHL1    C1 5664   1.694   1.770   2.983  0.2262 -0.4508 -0.7252
   61CHL1   H1A 5665   1.692   1.881   2.989 -0.6232 -0.5226  0.9988
   61CHL1   H1B 5666   1.795   1.724   2.990  0.2521 -0.1787  1.5949
   61CHL1    C2 5667   1.624   1.752   2.845 -0.8171  0.8481  0.1927
   61CHL1   H2A 5668   1.691   1.786   2.763  0.6709 -1.2680  0.4366
   61CHL1   H2B 5669   1.534   1.816   2.850 -1.4344  0.0845 -0.7245
   61CHL1   C20 5670   1.878   1.796   3.746  0.1646  0.1099  0.5821
   61CHL1   H20 5671   1.783   1.848   3.767 -0.5899  0.3142 -2.7536
   61CHL1   C21 5672   1.979   1.898   3.699  0.5181  0.0575  0.4826
   61CHL1  H21A 5673   2.077   1.849   3.679  0.8725  0.6200  0.8024
   61CHL1  H21B 5674   2.008   1.972   3.777 -1.2313  0.5294  0.7086
   61CHL1  H21C 5675   1.958   1.953   3.605  0.1603 -1.5133 -0.3998
   61CHL1   C22 5676   1.922   1.726   3.877 -0.4046  0.3090 -0.4043
   61CHL1  H22A 5677   1.832   1.697   3.936  0.2598  0.7469  0.8363
   61CHL1  H22B 5678   1.995   1.645   3.856  1.5611  2.0831 -0.7016
   61CHL1   C23 5679   1.978   1.830   3.981 -0.1495 -0.1990 -0.0526
   61CHL1  H23A 5680   2.079   1.860   3.946 -0.3271 -0.5703 -0.9051
   61CHL1  H23B 5681   1.917   1.923   3.985 -0.7294 -0.5797  3.3145
   61CHL1   C24 5682   1.977   1.779   4.121  0.5644  0.4674 -0.3276
   61CHL1  H24A 5683   1.877   1.755   4.164  0.3786  0.1628 -0.9106
   61CHL1  H24B 5684   2.023   1.678   4.112 -2.9745 -1.5090  1.5591
   61CHL1   C25 5685   2.070   1.846   4.225  0.4718  0.1919 -0.8122
   61CHL1   H25 5686   2.173   1.823   4.190  1.3343  0.9947  1.0919
   61CHL1   C26 5687   2.044   1.996   4.237  0.2206 -0.6319 -0.2957
   61CHL1  H26A 5688   1.945   2.018   4.283  0.3767 -0.0680 -0.2248
   61CHL1  H26B 5689   2.124   2.050   4.291 -0.7577 -0.2285  0.7947
   61CHL1  H26C 5690   2.034   2.047   4.139 -3.8960  0.8685  0.6923
   61CHL1   C27 5691   2.070   1.783   4.362 -0.0939 -0.8086  0.1788
   61CHL1  H27A 5692   1.965   1.754   4.385  0.0985 -0.6384  1.3366
   61CHL1  H27B 5693   2.118   1.683   4.372  0.4875 -0.3916  1.9034
   61CHL1  H27C 5694   2.113   1.854   4.436 -1.4821 -1.3269  1.5271
   62CHL1    C3 5695   2.178   3.924   3.267  0.1572 -0.3781 -0.0009
   62CHL1    H3 5696   2.096   3.867   3.315 -1.9407  2.1798 -0.3457
   62CHL1    O3 5697   2.163   3.930   3.126 -0.2825 -0.2031 -0.9026
   62CHL1   H3' 5698   2.133   4.019   3.108  0.3937  0.1324 -0.3668
   62CHL1    C4 5699   2.146   4.067   3.332  0.2749 -0.6133  0.3687
   62CHL1   H4A 5700   2.214   4.143   3.287 -2.2219  1.1411 -0.6736
   62CHL1   H4B 5701   2.049   4.102   3.290  0.0798 -1.9671 -0.3417
   62CHL1    C5 5702   2.159   4.053   3.486 -0.2117 -0.3204 -0.0658
   62CHL1    C6 5703   2.060   4.080   3.568  0.2358  0.7816 -0.0476
   62CHL1    H6 5704   1.966   4.113   3.522  0.6505 -1.6132 -2.8925
   62CHL1    C7 5705   2.062   4.072   3.718  0.3754  0.2197  0.4223
   62CHL1   H7A 5706   2.007   4.156   3.766 -0.3193  1.3390 -2.1355
   62CHL1   H7B 5707   2.001   3.986   3.752 -0.8509  1.5989  1.8325
   62CHL1    C8 5708   2.199   4.069   3.776  0.0960  0.3470  0.3614
   62CHL1    H8 5709   2.232   4.175   3.769 -0.8726  0.5567 -2.1933
   62CHL1   C14 5710   2.196   4.025   3.917 -0.0391  0.0978  0.2818
   62CHL1   H14 5711   2.149   3.924   3.911 -2.3128  1.0952  0.0521
   62CHL1   C15 5712   2.107   4.107   4.012 -0.2593 -0.0087  0.1892
   62CHL1  H15A 5713   2.131   4.216   4.004 -1.1958  0.2129  0.3292
   62CHL1  H15B 5714   1.999   4.085   4.003 -0.5000  0.6930  1.1585
   62CHL1   C16 5715   2.161   4.071   4.151  0.5709  0.1368 -0.0222
   62CHL1  H16A 5716   2.160   4.158   4.219 -0.8010  0.6230 -0.6395
   62CHL1  H16B 5717   2.089   4.006   4.206  0.6225  1.0769  1.1936
   62CHL1   C17 5718   2.292   3.987   4.136  0.3914 -0.6408  0.2358
   62CHL1   H17 5719   2.259   3.881   4.145 -0.6758 -0.1705  2.2315
   62CHL1   C13 5720   2.336   4.009   3.988  0.4554 -0.2707  0.7327
   62CHL1   C18 5721   2.421   4.141   3.988 -0.3482  0.8217  0.0834
   62CHL1  H18A 5722   2.529   4.117   3.997 -0.6390 -0.5314  0.1403
   62CHL1  H18B 5723   2.408   4.192   3.890  0.4199 -0.8094 -0.9200
   62CHL1  H18C 5724   2.390   4.219   4.061 -1.4986  0.4130  0.0549
   62CHL1   C12 5725   2.413   3.897   3.909 -0.2123  0.4088 -0.3572
   62CHL1  H12A 5726   2.513   3.874   3.951 -1.2066 -0.3478  1.7190
   62CHL1  H12B 5727   2.363   3.799   3.914  1.5539 -0.4780  1.0226
   62CHL1   C11 5728   2.424   3.935   3.763 -0.4707  0.3651  0.4852
   62CHL1  H11A 5729   2.480   4.031   3.763 -1.0393  0.7135  1.6769
   62CHL1  H11B 5730   2.471   3.851   3.709 -0.8067 -0.3015  1.2156
   62CHL1    C9 5731   2.288   3.967   3.691  0.3958 -0.2700 -0.2650
   62CHL1    H9 5732   2.236   3.869   3.689 -3.3174  1.5129 -0.6309
   62CHL1   C10 5733   2.294   4.002   3.538 -0.1097  0.1628 -0.3185
   62CHL1   C19 5734   2.407   4.110   3.523 -0.2659 -0.4706 -0.8022
   62CHL1  H19A 5735   2.510   4.067   3.529 -0.2807 -0.3036  2.3684
   62CHL1  H19B 5736   2.395   4.154   3.422  2.5149  0.9354 -0.6113
   62CHL1  H19C 5737   2.402   4.194   3.595  0.6204 -0.3538 -0.8605
   62CHL1    C1 5738   2.326   3.874   3.455 -0.7428 -0.4133  0.0515
   62CHL1   H1A 5739   2.429   3.847   3.488 -0.2331  0.9384 -0.3879
   62CHL1   H1B 5740   2.259   3.791   3.486 -0.9805  0.1537  1.0945
   62CHL1    C2 5741   2.321   3.891   3.307 -0.4420  0.1545  0.1366
   62CHL1   H2A 5742   2.350   3.796   3.258 -0.8444 -0.1717  0.5244
   62CHL1   H2B 5743   2.392   3.973   3.284 -0.6081  0.0073 -0.9585
   62CHL1   C20 5744   2.401   4.002   4.245  0.6826 -0.1001  0.2760
   62CHL1   H20 5745   2.434   4.108   4.243 -0.8200  0.4138  1.3197
   62CHL1   C21 5746   2.514   3.909   4.215 -0.0932  0.7910 -0.2179
   62CHL1  H21A 5747   2.485   3.802   4.220 -0.1309  0.6589 -2.3046
   62CHL1  H21B 5748   2.584   3.933   4.298 -2.6872  0.6661  2.1085
   62CHL1  H21C 5749   2.575   3.945   4.128  2.2376  1.8641  1.7343
   62CHL1   C22 5750   2.338   3.960   4.379  0.0008  0.5406  0.0889
   62CHL1  H22A 5751   2.247   4.019   4.405 -0.5242 -0.7610  1.3378
   62CHL1  H22B 5752   2.316   3.851   4.382 -0.6063  0.6112 -1.1907
   62CHL1   C23 5753   2.444   3.984   4.494  0.2064 -0.6721 -0.3518
   62CHL1  H23A 5754   2.508   3.895   4.508  0.3428 -0.5920 -0.4586
   62CHL1  H23B 5755   2.500   4.078   4.471 -0.9288  0.1634  0.1949
   62CHL1   C24 5756   2.375   4.020   4.626  0.1281 -0.5587  0.2969
   62CHL1  H24A 5757   2.334   4.122   4.609  1.2489 -0.2896 -1.0629
   62CHL1  H24B 5758   2.288   3.954   4.643 -0.0848 -0.6734 -1.1005
   62CHL1   C25 5759   2.473   4.032   4.744  0.8038  0.5587  0.5700
   62CHL1   H25 5760   2.523   3.937   4.770 -1.0709 -1.3358 -2.1559
   62CHL1   C26 5761   2.587   4.138   4.727  0.2397 -0.8044  0.0098
   62CHL1  H26A 5762   2.628   4.164   4.827  0.3022 -0.2879 -0.1474
   62CHL1  H26B 5763   2.664   4.092   4.662  1.5931  0.3224  0.7671
   62CHL1  H26C 5764   2.554   4.236   4.685  2.7990  1.1278  2.1195
   62CHL1   C27 5765   2.387   4.070   4.872  0.3220 -0.5715 -0.3411
   62CHL1  H27A 5766   2.463   4.059   4.953 -1.5838 -1.7240  1.3911
   62CHL1  H27B 5767   2.354   4.176   4.872 -1.1121 -0.9960 -0.0468
   62CHL1  H27C 5768   2.297   4.009   4.896 -1.5659  2.8082  2.1298
   63CHL1    C3 5769   6.453   7.054   2.928  0.1872 -0.3110  0.8400
   63CHL1    H3 5770   6.392   6.961   2.919 -0.8992  0.5784 -2.4260
   63CHL1    O3 5771   6.554   7.043   2.822  0.2938 -0.3580  0.5722
   63CHL1   H3' 5772   6.634   7.070   2.869 -0.6538  1.4185  1.2652
   63CHL1    C4 5773   6.357   7.170   2.900  0.3320  0.2466 -0.4440
   63CHL1   H4A 5774   6.412   7.266   2.891  1.3790  0.0255  2.5403
   63CHL1   H4B 5775   6.300   7.160   2.805 -0.3200  1.2488 -0.1757
   63CHL1    C5 5776   6.258   7.187   3.005 -0.4578 -0.5638  0.4150
   63CHL1    C6 5777   6.127   7.194   2.968  0.0922  0.1491 -0.6840
   63CHL1    H6 5778   6.094   7.196   2.864 -3.6245 -1.1021  0.3210
   63CHL1    C7 5779   6.019   7.203   3.074 -0.3454  0.2368  0.2648
   63CHL1   H7A 5780   5.942   7.277   3.044 -1.0937 -0.3216  0.7656
   63CHL1   H7B 5781   5.969   7.104   3.068  0.8942 -0.3038 -2.0375
   63CHL1    C8 5782   6.063   7.222   3.216 -0.7907  0.4015 -0.2754
   63CHL1    H8 5783   6.094   7.327   3.237  2.9316 -0.8942  1.7934
   63CHL1   C14 5784   5.956   7.180   3.322 -0.3989  0.4409 -0.2228
   63CHL1   H14 5785   5.933   7.071   3.315  1.6602  0.0548 -1.9661
   63CHL1   C15 5786   5.817   7.251   3.310 -0.2316 -0.2655 -0.2254
   63CHL1  H15A 5787   5.826   7.362   3.305 -1.9449 -0.1459 -1.2962
   63CHL1  H15B 5788   5.767   7.203   3.224  3.3793 -0.9270 -2.1695
   63CHL1   C16 5789   5.756   7.237   3.450  0.1628  0.2324 -0.1013
   63CHL1  H16A 5790   5.711   7.330   3.493 -0.2954 -0.5693  1.2372
   63CHL1  H16B 5791   5.684   7.152   3.443  0.1424 -0.1236  3.0102
   63CHL1   C17 5792   5.865   7.172   3.541 -0.4524 -0.9844 -1.0920
   63CHL1   H17 5793   5.844   7.063   3.530 -2.4985 -0.5337 -2.2777
   63CHL1   C13 5794   6.002   7.207   3.469  0.2224 -0.1097 -0.0316
   63CHL1   C18 5795   6.045   7.352   3.490  0.6413  0.1158  0.3484
   63CHL1  H18A 5796   6.127   7.393   3.427  1.2750  1.3035  1.8884
   63CHL1  H18B 5797   5.958   7.421   3.478 -1.2767 -1.6314  3.1187
   63CHL1  H18C 5798   6.078   7.361   3.596 -2.2301 -0.0938  1.3513
   63CHL1   C12 5799   6.116   7.107   3.501 -0.0191  0.5551 -0.2173
   63CHL1  H12A 5800   6.158   7.124   3.602  0.5096  0.4268 -0.4110
   63CHL1  H12B 5801   6.086   7.001   3.488 -0.9108  0.9332 -1.4866
   63CHL1   C11 5802   6.234   7.132   3.400  0.3999  0.1903  0.6735
   63CHL1  H11A 5803   6.305   7.213   3.428  0.9497  0.3451 -1.0889
   63CHL1  H11B 5804   6.289   7.036   3.410  0.4650  0.1217 -0.2747
   63CHL1    C9 5805   6.196   7.143   3.249 -0.5146 -0.3943 -0.3750
   63CHL1    H9 5806   6.161   7.040   3.226 -0.1560 -0.1703 -2.0780
   63CHL1   C10 5807   6.309   7.175   3.152  0.4774 -0.0509  0.0550
   63CHL1   C19 5808   6.366   7.316   3.181 -0.2341 -0.2415  0.0643
   63CHL1  H19A 5809   6.422   7.342   3.273  0.7715 -0.2969 -0.5136
   63CHL1  H19B 5810   6.424   7.363   3.098  0.9890 -0.4216  0.7779
   63CHL1  H19C 5811   6.280   7.385   3.194  0.8724  1.0252  0.9733
   63CHL1    C1 5812   6.421   7.063   3.159  0.4287 -0.3850  0.2842
   63CHL1   H1A 5813   6.473   7.071   3.257 -2.1491  1.8798  1.5949
   63CHL1   H1B 5814   6.362   6.970   3.165 -0.4248  0.1181 -0.1001
   63CHL1    C2 5815   6.531   7.072   3.052 -0.3933  0.6760  0.4241
   63CHL1   H2A 5816   6.609   6.994   3.065 -0.1220  0.9435  0.4230
   63CHL1   H2B 5817   6.575   7.174   3.051  0.4235  0.3568  1.3374
   63CHL1   C20 5818   5.859   7.204   3.691  0.9504 -0.3909 -0.3297
   63CHL1   H20 5819   5.881   7.312   3.701 -1.6452  0.1987 -0.3390
   63CHL1   C21 5820   5.952   7.123   3.790 -0.3948  0.6597  0.0529
   63CHL1  H21A 5821   5.936   7.017   3.762  1.4040  0.9225 -2.2612
   63CHL1  H21B 5822   5.931   7.139   3.898  5.3678 -1.2618  1.8420
   63CHL1  H21C 5823   6.059   7.149   3.771 -0.7405  1.4162 -0.9466
   63CHL1   C22 5824   5.718   7.202   3.744  0.3097 -0.0168 -0.5219
   63CHL1  H22A 5825   5.724   7.245   3.846 -0.2388 -1.1449  0.0145
   63CHL1  H22B 5826   5.650   7.270   3.689  1.6118  1.7630 -0.0129
   63CHL1   C23 5827   5.661   7.063   3.749 -0.6178  0.6818 -0.0505
   63CHL1  H23A 5828   5.719   6.995   3.683 -0.5605  0.3240  0.3646
   63CHL1  H23B 5829   5.692   7.023   3.848 -1.5993 -1.8193 -0.6652
   63CHL1   C24 5830   5.508   7.054   3.726 -0.3188 -0.0209 -0.1424
   63CHL1  H24A 5831   5.473   7.092   3.628 -0.8938  1.8677  0.7383
   63CHL1  H24B 5832   5.471   6.949   3.720 -1.3320  0.1819  1.6624
   63CHL1   C25 5833   5.426   7.137   3.832 -0.1605 -0.2725 -0.3858
   63CHL1   H25 5834   5.452   7.245   3.834 -2.1138  0.2352 -0.3660
   63CHL1   C26 5835   5.276   7.119   3.802  0.2851  0.1268 -0.2877
   63CHL1  H26A 5836   5.224   7.170   3.886  1.0801  0.2544  0.1324
   63CHL1  H26B 5837   5.254   7.172   3.708  4.8488  1.4919 -0.8092
   63CHL1  H26C 5838   5.243   7.013   3.807 -0.0579  0.2521  3.8636
   63CHL1   C27 5839   5.449   7.082   3.971 -1.5558  0.5660 -0.0150
   63CHL1  H27A 5840   5.404   7.125   4.063  0.4655  1.4723  0.6253
   63CHL1  H27B 5841   5.417   6.976   3.974 -0.0253 -0.1268 -3.5129
   63CHL1  H27C 5842   5.559   7.077   3.988 -1.4491 -1.3765 -1.0222
   64CHL1    C3 5843   2.527   0.732   2.829  0.2574  0.5681  0.3654
   64CHL1    H3 5844   2.529   0.843   2.823 -1.4338  0.5474 -1.8670
   64CHL1    O3 5845   2.513   0.677   2.695  0.3210  0.6691  0.1434
   64CHL1   H3' 5846   2.480   0.587   2.702  0.5057  0.5941  0.0551
   64CHL1    C4 5847   2.657   0.667   2.893  0.2364 -0.0273  0.6356
   64CHL1   H4A 5848   2.638   0.558   2.889  0.4165 -0.0624  0.7640
   64CHL1   H4B 5849   2.748   0.686   2.832  0.8238 -1.3377  1.0670
   64CHL1    C5 5850   2.673   0.715   3.032  0.5752 -0.1907  0.7109
   64CHL1    C6 5851   2.779   0.782   3.082 -0.2654  0.9028  0.4684
   64CHL1    H6 5852   2.855   0.814   3.009  1.4362 -0.6602  1.4839
   64CHL1    C7 5853   2.786   0.821   3.227 -0.3269  0.3951 -0.8928
   64CHL1   H7A 5854   2.890   0.822   3.265 -1.6304 -0.8129  3.2090
   64CHL1   H7B 5855   2.762   0.929   3.226 -0.4996  0.3578 -0.8403
   64CHL1    C8 5856   2.694   0.751   3.324  0.7970  0.2526  0.2865
   64CHL1    H8 5857   2.728   0.645   3.325 -0.3029 -0.1050  1.2359
   64CHL1   C14 5858   2.693   0.824   3.455 -0.1774 -0.0715 -0.4118
   64CHL1   H14 5859   2.653   0.924   3.427  1.3440  1.2498  1.8493
   64CHL1   C15 5860   2.831   0.854   3.524 -0.4696  0.0232 -0.1880
   64CHL1  H15A 5861   2.877   0.752   3.527 -2.0949 -0.7194  0.6947
   64CHL1  H15B 5862   2.893   0.924   3.464 -1.1742  1.5350  0.8081
   64CHL1   C16 5863   2.786   0.904   3.661  0.1579  0.4282 -1.0461
   64CHL1  H16A 5864   2.846   0.870   3.748 -0.4150  0.5041 -0.6194
   64CHL1  H16B 5865   2.797   1.014   3.656  1.5458  0.4025  0.4415
   64CHL1   C17 5866   2.631   0.863   3.672 -0.1173  0.1611 -0.2915
   64CHL1   H17 5867   2.575   0.952   3.636  0.5288  0.3292 -0.9087
   64CHL1   C13 5868   2.602   0.766   3.560  0.5733 -0.3126 -0.5336
   64CHL1   C18 5869   2.652   0.626   3.605 -0.1168 -0.3114 -0.1405
   64CHL1  H18A 5870   2.658   0.561   3.515  0.3750  1.0337 -1.1032
   64CHL1  H18B 5871   2.758   0.629   3.638  0.2712  0.4051 -1.3888
   64CHL1  H18C 5872   2.585   0.590   3.686  3.6454 -3.0734  2.0916
   64CHL1   C12 5873   2.455   0.764   3.504 -0.3053 -0.1062  0.3692
   64CHL1  H12A 5874   2.388   0.714   3.577 -0.3381  0.8981  1.0473
   64CHL1  H12B 5875   2.416   0.867   3.487 -0.0060 -0.4122 -2.7578
   64CHL1   C11 5876   2.441   0.694   3.364  0.4805 -0.4499 -0.1470
   64CHL1  H11A 5877   2.455   0.589   3.399 -2.4277 -0.2392  2.0431
   64CHL1  H11B 5878   2.335   0.695   3.331  0.1773 -2.8729  0.5081
   64CHL1    C9 5879   2.553   0.742   3.264 -0.5206  0.3273 -0.1853
   64CHL1    H9 5880   2.528   0.849   3.246  0.6621  0.6586  0.0283
   64CHL1   C10 5881   2.547   0.670   3.119 -0.1244  0.1020 -0.0735
   64CHL1   C19 5882   2.549   0.521   3.146  0.1997  0.1320  1.1840
   64CHL1  H19A 5883   2.563   0.463   3.052  2.3157  1.1839  0.7760
   64CHL1  H19B 5884   2.627   0.488   3.217 -1.0751 -1.1523  2.0427
   64CHL1  H19C 5885   2.451   0.495   3.191 -0.3768 -0.1843 -0.1747
   64CHL1    C1 5886   2.417   0.718   3.054  0.0076 -0.1251  0.1610
   64CHL1   H1A 5887   2.323   0.678   3.097  0.7202 -1.0657  0.8989
   64CHL1   H1B 5888   2.418   0.827   3.073 -0.4509 -0.0088 -0.4663
   64CHL1    C2 5889   2.401   0.687   2.907 -0.2229  0.1526  0.7012
   64CHL1   H2A 5890   2.314   0.742   2.865 -1.1967 -1.0838  1.0393
   64CHL1   H2B 5891   2.386   0.578   2.892 -1.5496  0.6614 -2.4815
   64CHL1   C20 5892   2.577   0.821   3.808  0.3637 -0.2419 -0.5761
   64CHL1   H20 5893   2.499   0.744   3.793 -0.9233  0.5806  1.4821
   64CHL1   C21 5894   2.495   0.939   3.876  0.2037  0.0617  0.3030
   64CHL1  H21A 5895   2.454   0.907   3.975 -0.6492  0.6802  0.1629
   64CHL1  H21B 5896   2.411   0.971   3.812 -0.1879 -1.6123 -0.0841
   64CHL1  H21C 5897   2.562   1.021   3.908  1.7651 -0.8168 -0.6132
   64CHL1   C22 5898   2.687   0.769   3.911 -0.2204 -0.8632 -0.6604
   64CHL1  H22A 5899   2.770   0.717   3.858  1.9204  1.2757  0.4324
   64CHL1  H22B 5900   2.742   0.849   3.963 -0.0347 -2.1380  1.2156
   64CHL1   C23 5901   2.643   0.657   4.005 -0.1549  0.3759 -0.0857
   64CHL1  H23A 5902   2.538   0.680   4.033 -1.2321  0.3054 -3.5139
   64CHL1  H23B 5903   2.644   0.562   3.947 -0.2701 -0.0323  0.5726
   64CHL1   C24 5904   2.745   0.630   4.117  0.3958 -0.1874  0.1625
   64CHL1  H24A 5905   2.847   0.614   4.077  0.3197  2.6773 -1.4998
   64CHL1  H24B 5906   2.729   0.723   4.176  0.5155 -0.4034  0.5377
   64CHL1   C25 5907   2.705   0.507   4.212 -0.0415  0.1817  0.4128
   64CHL1   H25 5908   2.719   0.406   4.167 -0.3324  0.3220 -0.0002
   64CHL1   C26 5909   2.788   0.537   4.336 -0.3567  0.0678 -0.2974
   64CHL1  H26A 5910   2.896   0.541   4.309 -0.8415  0.7646 -2.3096
   64CHL1  H26B 5911   2.759   0.631   4.389 -0.4524  1.0778 -2.0665
   64CHL1  H26C 5912   2.770   0.450   4.402  0.6813 -0.5647 -0.8217
   64CHL1   C27 5913   2.558   0.509   4.254  0.1523  0.0614  0.5150
   64CHL1  H27A 5914   2.497   0.520   4.162  1.7081  0.6240 -0.4887
   64CHL1  H27B 5915   2.529   0.420   4.315 -1.1220 -0.0319 -0.1949
   64CHL1  H27C 5916   2.552   0.594   4.326 -0.0979 -0.0620  0.6412
   65CHL1    C3 5917   3.870   6.974   2.747 -0.5751  0.0791 -0.2687
   65CHL1    H3 5918   3.976   6.959   2.775 -0.7182  0.5642  0.5712
   65CHL1    O3 5919   3.849   6.990   2.607 -0.3217  0.1735 -0.1580
   65CHL1   H3' 5920   3.883   7.077   2.587  2.9228 -1.2348 -1.4309
   65CHL1    C4 5921   3.787   6.854   2.796 -0.4248 -0.3488 -0.3655
   65CHL1   H4A 5922   3.683   6.874   2.763 -0.3763  2.8560  1.1008
   65CHL1   H4B 5923   3.816   6.759   2.747  2.2276 -0.6713  1.6042
   65CHL1    C5 5924   3.781   6.836   2.947  0.0683  0.2015  0.3206
   65CHL1    C6 5925   3.814   6.717   3.003  1.2421 -0.0122 -0.0278
   65CHL1    H6 5926   3.813   6.628   2.938  0.7675 -0.0422  0.0209
   65CHL1    C7 5927   3.805   6.692   3.152 -0.3545  0.9296  0.0001
   65CHL1   H7A 5928   3.730   6.610   3.163 -1.1021  0.8321 -4.0350
   65CHL1   H7B 5929   3.892   6.648   3.204 -0.2611  0.2056 -0.7405
   65CHL1    C8 5930   3.767   6.810   3.240 -0.4826  0.0692  0.5377
   65CHL1    H8 5931   3.657   6.824   3.249 -0.3250  0.7747  1.6848
   65CHL1   C14 5932   3.809   6.789   3.387  0.9898 -0.4624  0.8841
   65CHL1   H14 5933   3.918   6.772   3.376  1.5856  1.6841  2.7549
   65CHL1   C15 5934   3.769   6.661   3.464 -0.2055  0.4379 -0.6030
   65CHL1  H15A 5935   3.664   6.629   3.452  0.4276 -0.9376 -3.2176
   65CHL1  H15B 5936   3.839   6.577   3.444 -0.7103 -0.6329  1.8409
   65CHL1   C16 5937   3.799   6.698   3.611 -0.4574  0.4122 -0.3659
   65CHL1  H16A 5938   3.704   6.687   3.667 -0.2203 -0.7107 -0.1490
   65CHL1  H16B 5939   3.880   6.641   3.662 -1.6489  0.0560  1.2130
   65CHL1   C17 5940   3.852   6.847   3.607  0.3828  0.3471  0.7922
   65CHL1   H17 5941   3.962   6.844   3.592  0.0414 -0.2467 -2.1396
   65CHL1   C13 5942   3.790   6.901   3.477 -0.9715 -1.8076  0.0408
   65CHL1   C18 5943   3.637   6.926   3.501 -0.1854 -0.1517  0.0387
   65CHL1  H18A 5944   3.603   6.835   3.554 -0.2217 -0.9211 -1.2557
   65CHL1  H18B 5945   3.619   6.993   3.587 -1.4581 -1.9250  1.2185
   65CHL1  H18C 5946   3.572   6.955   3.416  1.6608  0.4195 -1.2528
   65CHL1   C12 5947   3.851   7.031   3.420  1.2173 -0.9368  0.3156
   65CHL1  H12A 5948   3.838   7.116   3.490 -3.4538 -0.0316 -1.2906
   65CHL1  H12B 5949   3.961   7.013   3.420  1.6938  1.5175 -1.6234
   65CHL1   C11 5950   3.805   7.058   3.273 -0.7205 -0.7474 -0.1169
   65CHL1  H11A 5951   3.696   7.080   3.270 -0.6230 -0.3367 -2.0536
   65CHL1  H11B 5952   3.863   7.146   3.238 -0.6524 -1.2177 -1.2287
   65CHL1    C9 5953   3.817   6.938   3.183 -0.2114  0.0778  1.0381
   65CHL1    H9 5954   3.927   6.928   3.180 -0.2125  0.1678 -1.3052
   65CHL1   C10 5955   3.759   6.966   3.033 -0.4092 -0.4653  0.2733
   65CHL1   C19 5956   3.608   7.005   3.040 -0.3501  0.3245 -0.6618
   65CHL1  H19A 5957   3.557   6.927   3.100  1.0357  1.5432  2.3286
   65CHL1  H19B 5958   3.592   7.100   3.095  0.9553  0.2717 -0.1473
   65CHL1  H19C 5959   3.562   7.006   2.939  0.2349 -0.8432 -0.9585
   65CHL1    C1 5960   3.840   7.082   2.968  0.3368  0.0426 -0.1386
   65CHL1   H1A 5961   3.807   7.178   3.014 -1.7839 -0.0583 -1.3477
   65CHL1   H1B 5962   3.946   7.067   2.998 -0.3234  1.6236  3.6315
   65CHL1    C2 5963   3.828   7.099   2.817 -0.7800  0.0345 -0.0468
   65CHL1   H2A 5964   3.879   7.193   2.786  2.5640 -1.8715 -0.7292
   65CHL1   H2B 5965   3.721   7.114   2.791 -0.7966 -0.7696 -0.4717
   65CHL1   C20 5966   3.817   6.909   3.742 -0.6854  0.0689  0.4864
   65CHL1   H20 5967   3.708   6.933   3.744 -0.6250  0.6222 -1.2255
   65CHL1   C21 5968   3.897   7.043   3.753  0.8913  0.4952  0.5735
   65CHL1  H21A 5969   3.909   7.080   3.857  0.4717  2.5106 -0.0538
   65CHL1  H21B 5970   3.844   7.118   3.691  0.8616  0.8781  1.0572
   65CHL1  H21C 5971   4.001   7.026   3.715  1.3227 -1.2972  2.3717
   65CHL1   C22 5972   3.839   6.816   3.863  0.1365 -0.1908  0.0693
   65CHL1  H22A 5973   3.759   6.740   3.861  0.3236 -0.3832 -0.4473
   65CHL1  H22B 5974   3.934   6.760   3.852  0.4183 -0.1178  1.9149
   65CHL1   C23 5975   3.835   6.879   4.007  0.2551 -1.3298  0.4445
   65CHL1  H23A 5976   3.921   6.949   4.015 -0.5985 -0.2106  0.0319
   65CHL1  H23B 5977   3.746   6.944   3.994  0.8549 -0.3932  0.8540
   65CHL1   C24 5978   3.827   6.776   4.119  0.3285  0.1941  0.1922
   65CHL1  H24A 5979   3.739   6.712   4.094  1.4974 -1.8232  1.0556
   65CHL1  H24B 5980   3.909   6.702   4.110 -1.1719 -1.4398 -0.7317
   65CHL1   C25 5981   3.817   6.839   4.262 -0.1730  0.1019 -0.2369
   65CHL1   H25 5982   3.885   6.927   4.265  0.3227 -0.2917  1.2675
   65CHL1   C26 5983   3.679   6.888   4.300  0.0422  0.4266  0.6137
   65CHL1  H26A 5984   3.611   6.802   4.283 -0.4100  0.5268  1.8303
   65CHL1  H26B 5985   3.666   6.922   4.405  0.8263  0.3900  0.7278
   65CHL1  H26C 5986   3.640   6.971   4.237 -0.0462 -0.0361  0.0497
   65CHL1   C27 5987   3.873   6.742   4.369  0.1953 -0.1688 -0.0991
   65CHL1  H27A 5988   3.798   6.661   4.383 -0.3585  0.3610  0.0505
   65CHL1  H27B 5989   3.968   6.703   4.325 -0.3216  1.1448 -2.5349
   65CHL1  H27C 5990   3.894   6.796   4.464  0.1090 -0.6256  0.1869
   66CHL1    C3 5991   7.125   6.229   3.229 -0.1143  0.0073  0.0055
   66CHL1    H3 5992   7.056   6.156   3.183 -1.2432  1.0093  0.0673
   66CHL1    O3 5993   7.206   6.284   3.125 -0.1655 -0.1664  0.1996
   66CHL1   H3' 5994   7.266   6.347   3.165  2.0724 -1.5515 -0.7559
   66CHL1    C4 5995   7.045   6.344   3.302 -0.1573  0.8366  0.4598
   66CHL1   H4A 5996   7.131   6.404   3.341  2.8374 -1.1524 -2.5203
   66CHL1   H4B 5997   6.993   6.407   3.227  1.5837  0.3174 -1.2799
   66CHL1    C5 5998   6.965   6.290   3.418  1.5533 -0.0997 -0.0365
   66CHL1    C6 5999   6.829   6.301   3.413  0.1270  0.0875 -0.4679
   66CHL1    H6 6000   6.777   6.359   3.335  1.9000  0.9949 -1.0237
   66CHL1    C7 6001   6.739   6.239   3.518  0.4958 -0.4855 -0.9181
   66CHL1   H7A 6002   6.670   6.315   3.560  2.7261  1.5953 -0.7888
   66CHL1   H7B 6003   6.689   6.153   3.468  0.3653  0.1071 -1.8463
   66CHL1    C8 6004   6.815   6.186   3.647  0.3433 -0.3846 -0.0357
   66CHL1    H8 6005   6.845   6.268   3.716  2.7869  0.0199 -1.4710
   66CHL1   C14 6006   6.712   6.085   3.716 -0.1529  0.3313 -0.2507
   66CHL1   H14 6007   6.696   6.006   3.639  0.0225 -1.6155  1.5961
   66CHL1   C15 6008   6.570   6.138   3.747 -0.3585 -0.4516 -0.0309
   66CHL1  H15A 6009   6.565   6.246   3.773 -2.0847 -0.9635  1.9484
   66CHL1  H15B 6010   6.503   6.127   3.659  1.3838  1.3185 -1.6945
   66CHL1   C16 6011   6.521   6.044   3.863 -0.3728  0.1252 -0.2896
   66CHL1  H16A 6012   6.505   6.111   3.950 -0.9821 -1.2694  0.7068
   66CHL1  H16B 6013   6.427   5.992   3.835 -0.3499 -0.8468  1.3441
   66CHL1   C17 6014   6.637   5.939   3.885 -0.3897 -0.2915  0.0620
   66CHL1   H17 6015   6.624   5.856   3.812  0.9916 -1.1955  0.7946
   66CHL1   C13 6016   6.764   6.022   3.840  0.3223  0.7133 -0.3830
   66CHL1   C18 6017   6.788   6.129   3.947 -0.1044  1.2264 -0.0001
   66CHL1  H18A 6018   6.698   6.170   3.998 -0.0880  1.7538 -0.3880
   66CHL1  H18B 6019   6.853   6.077   4.021  0.0745  0.6443 -0.5600
   66CHL1  H18C 6020   6.837   6.223   3.915 -0.4866  2.1400  1.9111
   66CHL1   C12 6021   6.904   5.955   3.809 -0.0734  0.5688 -0.4518
   66CHL1  H12A 6022   6.946   5.919   3.905  0.2991  0.8068 -0.5238
   66CHL1  H12B 6023   6.884   5.863   3.749  0.3284 -0.1561  0.5008
   66CHL1   C11 6024   7.004   6.038   3.731  0.5370  0.3625 -0.4720
   66CHL1  H11A 6025   7.044   6.121   3.793  1.0675 -0.0579 -0.2531
   66CHL1  H11B 6026   7.086   5.968   3.704  1.0575  1.2760 -1.3536
   66CHL1    C9 6027   6.940   6.106   3.608  0.1251  0.2637  0.5530
   66CHL1    H9 6028   6.898   6.028   3.540 -1.2003 -0.0961  1.7487
   66CHL1   C10 6029   7.035   6.197   3.523  0.2696  0.0400  0.1373
   66CHL1   C19 6030   7.125   6.284   3.616  0.4848  0.3876 -0.0229
   66CHL1  H19A 6031   7.066   6.349   3.685  1.7977  0.1432  1.3823
   66CHL1  H19B 6032   7.194   6.237   3.689  0.2464  2.2982  1.5338
   66CHL1  H19C 6033   7.175   6.357   3.549  1.5769  0.2074  0.5859
   66CHL1    C1 6034   7.117   6.102   3.437 -0.4614 -0.5448  0.0297
   66CHL1   H1A 6035   7.185   6.043   3.503  0.7831 -1.2793 -1.8422
   66CHL1   H1B 6036   7.062   6.024   3.379  0.2043 -0.3239 -0.9043
   66CHL1    C2 6037   7.212   6.160   3.335  0.1506 -0.6869  0.5179
   66CHL1   H2A 6038   7.263   6.070   3.295 -1.0680 -1.6310  1.0316
   66CHL1   H2B 6039   7.288   6.231   3.376  0.4932  1.0765 -2.8004
   66CHL1   C20 6040   6.640   5.859   4.020 -0.2671 -0.4417 -0.3144
   66CHL1   H20 6041   6.691   5.922   4.096  0.6606 -0.7233 -0.6895
   66CHL1   C21 6042   6.726   5.736   4.000 -0.8350 -0.5336 -1.1540
   66CHL1  H21A 6043   6.712   5.672   4.090 -0.0110  1.8963  0.8222
   66CHL1  H21B 6044   6.833   5.763   3.983 -0.8535  1.1285  0.9011
   66CHL1  H21C 6045   6.695   5.674   3.913 -0.6298  1.2160 -2.5485
   66CHL1   C22 6046   6.502   5.824   4.069 -0.1195  1.1794 -0.2975
   66CHL1  H22A 6047   6.514   5.770   4.165  1.5110  0.2120 -0.9814
   66CHL1  H22B 6048   6.446   5.915   4.098 -1.2377  0.1498  0.8688
   66CHL1   C23 6049   6.409   5.731   3.988  0.0517  0.1505 -0.1741
   66CHL1  H23A 6050   6.422   5.735   3.878  2.6721  1.6560  0.1112
   66CHL1  H23B 6051   6.434   5.628   4.022  3.0469  0.6920 -0.4717
   66CHL1   C24 6052   6.265   5.749   4.030  0.2566  0.0937 -0.6679
   66CHL1  H24A 6053   6.204   5.658   4.013  1.5495 -1.3175  1.7138
   66CHL1  H24B 6054   6.253   5.768   4.139 -0.7068 -0.9950 -0.5636
   66CHL1   C25 6055   6.188   5.855   3.947 -0.1470 -0.5624  0.2113
   66CHL1   H25 6056   6.242   5.952   3.956  1.0030 -1.1713  0.0734
   66CHL1   C26 6057   6.157   5.815   3.801 -0.0561 -0.2697 -0.4203
   66CHL1  H26A 6058   6.095   5.891   3.748  0.1062  0.4142  0.3384
   66CHL1  H26B 6059   6.243   5.793   3.733 -1.9178 -1.4813 -2.5095
   66CHL1  H26C 6060   6.091   5.727   3.807 -1.0290  0.4462 -0.4164
   66CHL1   C27 6061   6.043   5.874   4.016 -0.3541 -0.1943  0.0027
   66CHL1  H27A 6062   6.061   5.885   4.125  1.9036 -1.7187 -0.1551
   66CHL1  H27B 6063   5.989   5.777   4.006 -1.2708  0.2054  0.9417
   66CHL1  H27C 6064   5.981   5.950   3.964  2.1997  0.1641 -2.8057
   67CHL1    C3 6065   5.352   1.257   3.421 -0.2601  0.9139  0.3715
   67CHL1    H3 6066   5.405   1.165   3.455 -4.3980 -1.3682  1.4157
   67CHL1    O3 6067   5.337   1.244   3.282  0.1450 -0.1813  0.8056
   67CHL1   H3' 6068   5.297   1.326   3.254  1.5926 -0.4277 -2.5844
   67CHL1    C4 6069   5.214   1.251   3.480 -0.5972  0.4219  0.3840
   67CHL1   H4A 6070   5.161   1.334   3.428 -0.6201  1.3528  1.8494
   67CHL1   H4B 6071   5.169   1.154   3.448  2.1950 -0.4660 -1.2563
   67CHL1    C5 6072   5.229   1.258   3.632 -0.1875  0.2734 -1.1106
   67CHL1    C6 6073   5.162   1.175   3.716 -0.1636 -0.0086 -0.0358
   67CHL1    H6 6074   5.101   1.097   3.667 -0.2961  0.7623 -1.1417
   67CHL1    C7 6075   5.155   1.186   3.862 -0.1845 -0.3447  0.0949
   67CHL1   H7A 6076   5.061   1.154   3.911 -0.9786 -1.8638 -2.2487
   67CHL1   H7B 6077   5.242   1.125   3.894 -0.0854 -0.2200  0.0653
   67CHL1    C8 6078   5.200   1.322   3.919  0.4279  0.1804 -0.0900
   67CHL1    H8 6079   5.120   1.395   3.893  1.4340  1.1937 -0.4333
   67CHL1   C14 6080   5.240   1.314   4.068 -0.4109 -0.4335 -1.3468
   67CHL1   H14 6081   5.330   1.249   4.065  0.2939  0.5182 -1.2317
   67CHL1   C15 6082   5.150   1.246   4.168 -0.7108  0.2398 -0.2416
   67CHL1  H15A 6083   5.045   1.276   4.151 -1.4017 -0.5291  2.1865
   67CHL1  H15B 6084   5.180   1.140   4.181 -0.2525  0.4645  0.6422
   67CHL1   C16 6085   5.184   1.308   4.306 -0.2597 -0.7997 -0.4250
   67CHL1  H16A 6086   5.089   1.355   4.338 -0.3609 -1.2760 -0.0136
   67CHL1  H16B 6087   5.192   1.226   4.381 -0.4858 -0.7799 -0.3782
   67CHL1   C17 6088   5.305   1.401   4.277 -0.6552  0.1735 -0.3992
   67CHL1   H17 6089   5.401   1.345   4.275  0.5163  2.0809 -0.0851
   67CHL1   C13 6090   5.285   1.442   4.130 -0.3217  0.3536  0.1278
   67CHL1   C18 6091   5.168   1.550   4.125 -0.4903  0.9510  0.0891
   67CHL1  H18A 6092   5.209   1.647   4.161  3.0236 -0.6767  0.8630
   67CHL1  H18B 6093   5.132   1.544   4.020 -3.0561  0.3159  0.9297
   67CHL1  H18C 6094   5.092   1.507   4.194  0.6710 -1.8031 -0.2204
   67CHL1   C12 6095   5.417   1.496   4.059  0.2405  0.6518  0.2602
   67CHL1  H12A 6096   5.443   1.593   4.106  0.0571  1.0051 -0.3507
   67CHL1  H12B 6097   5.497   1.422   4.080  1.0078  1.0141 -1.2527
   67CHL1   C11 6098   5.403   1.498   3.904  0.7415 -0.6637 -0.0278
   67CHL1  H11A 6099   5.335   1.585   3.892  0.5756 -0.6117  1.1402
   67CHL1  H11B 6100   5.500   1.523   3.855 -0.2956  0.8413 -1.4173
   67CHL1    C9 6101   5.337   1.371   3.842 -0.4382  0.5008  0.0707
   67CHL1    H9 6102   5.410   1.288   3.852  0.1871  0.7416 -2.0018
   67CHL1   C10 6103   5.312   1.378   3.686 -0.0143 -0.4429  0.0685
   67CHL1   C19 6104   5.233   1.505   3.655 -0.4167 -0.4710  0.1351
   67CHL1  H19A 6105   5.140   1.510   3.715 -0.9801  2.5152 -0.8163
   67CHL1  H19B 6106   5.302   1.591   3.662 -2.6606  1.2633  3.7401
   67CHL1  H19C 6107   5.198   1.509   3.549  2.3553 -0.6752 -0.8741
   67CHL1    C1 6108   5.447   1.382   3.611  0.0096 -0.0694  0.2374
   67CHL1   H1A 6109   5.499   1.477   3.633 -1.4536  0.9340 -0.4857
   67CHL1   H1B 6110   5.504   1.295   3.649 -2.1970 -1.4054  0.6594
   67CHL1    C2 6111   5.439   1.381   3.457  0.2247  0.2621  0.6175
   67CHL1   H2A 6112   5.541   1.382   3.413 -0.0519  1.9859 -0.0809
   67CHL1   H2B 6113   5.403   1.476   3.412  1.6686 -0.7240 -3.0568
   67CHL1   C20 6114   5.329   1.518   4.374 -0.0509 -0.6911  0.2766
   67CHL1   H20 6115   5.354   1.611   4.319  1.2883 -2.2102 -1.8168
   67CHL1   C21 6116   5.451   1.483   4.460  0.3373 -0.1020 -0.1199
   67CHL1  H21A 6117   5.535   1.441   4.400 -0.2668 -0.8346 -0.4773
   67CHL1  H21B 6118   5.428   1.407   4.537 -0.6404 -0.6256 -0.8916
   67CHL1  H21C 6119   5.483   1.576   4.512 -2.3002  0.1752  1.1792
   67CHL1   C22 6120   5.213   1.561   4.463  0.1608 -0.4811  0.0919
   67CHL1  H22A 6121   5.128   1.568   4.392  0.4600  0.1370 -0.2158
   67CHL1  H22B 6122   5.183   1.482   4.535 -1.0142  0.5944  0.8120
   67CHL1   C23 6123   5.233   1.690   4.540  0.0921  0.4883  0.5848
   67CHL1  H23A 6124   5.130   1.713   4.574 -0.2932 -0.7135  0.2854
   67CHL1  H23B 6125   5.298   1.697   4.630 -0.0479  1.9944  0.6036
   67CHL1   C24 6126   5.269   1.813   4.453 -0.6575  0.1621  0.6184
   67CHL1  H24A 6127   5.368   1.791   4.407 -1.8211 -0.0833 -1.9346
   67CHL1  H24B 6128   5.204   1.823   4.364  2.5059  3.8738 -1.5847
   67CHL1   C25 6129   5.277   1.944   4.532 -0.3436 -0.0468  0.4409
   67CHL1   H25 6130   5.317   1.924   4.633 -1.4923 -2.1589  0.5218
   67CHL1   C26 6131   5.378   2.036   4.466  0.3321  0.5642 -0.0502
   67CHL1  H26A 6132   5.345   2.056   4.361 -1.0177  0.8827  0.4114
   67CHL1  H26B 6133   5.388   2.136   4.513  1.8242  0.2497  0.3612
   67CHL1  H26C 6134   5.481   1.994   4.468  1.0539  2.2220  2.3431
   67CHL1   C27 6135   5.140   2.006   4.547  0.7258 -0.1021 -0.3152
   67CHL1  H27A 6136   5.062   1.936   4.583  0.9866 -0.9036 -1.2681
   67CHL1  H27B 6137   5.149   2.084   4.626 -0.1647 -0.8476  0.5398
   67CHL1  H27C 6138   5.114   2.050   4.448  0.3950 -0.4018 -0.3605
   68CHL1    C3 6139   1.112   3.015   2.872 -0.4791  0.1116 -0.4624
   68CHL1    H3 6140   1.010   3.001   2.912  0.3417 -1.9838  1.0611
   68CHL1    O3 6141   1.105   3.046   2.737  0.2779 -0.1682 -0.3478
   68CHL1   H3' 6142   1.020   3.013   2.707 -0.2478  0.5969  0.2281
   68CHL1    C4 6143   1.183   3.130   2.957 -0.5282  0.4483  0.2115
   68CHL1   H4A 6144   1.287   3.145   2.921  0.2472  0.4230  2.3291
   68CHL1   H4B 6145   1.129   3.226   2.944  0.5020  1.1495  1.0205
   68CHL1    C5 6146   1.187   3.095   3.107 -0.3897  0.0811  0.3025
   68CHL1    C6 6147   1.145   3.177   3.197  0.6184 -0.1556 -0.2338
   68CHL1    H6 6148   1.111   3.277   3.167  0.7516  0.8447  2.6479
   68CHL1    C7 6149   1.154   3.158   3.346  0.2071  0.4234 -0.0709
   68CHL1   H7A 6150   1.197   3.251   3.391  2.3341 -0.7457  0.4446
   68CHL1   H7B 6151   1.055   3.141   3.392 -0.3555 -1.8301 -1.9444
   68CHL1    C8 6152   1.238   3.032   3.395 -0.2388  0.7775  0.4553
   68CHL1    H8 6153   1.343   3.066   3.399  0.4937 -1.4070  0.7607
   68CHL1   C14 6154   1.187   2.979   3.532  0.4881  0.1379  0.2603
   68CHL1   H14 6155   1.085   2.939   3.513  0.6279  0.4746 -1.3191
   68CHL1   C15 6156   1.185   3.081   3.645 -0.3839 -0.1906  0.3568
   68CHL1  H15A 6157   1.279   3.140   3.629 -1.6526  1.6576 -0.7591
   68CHL1  H15B 6158   1.097   3.146   3.627 -0.9131 -1.6285 -2.9885
   68CHL1   C16 6159   1.179   2.991   3.773  0.5952 -0.3767  1.0040
   68CHL1  H16A 6160   1.261   3.022   3.842 -0.9086 -1.6941  3.4986
   68CHL1  H16B 6161   1.083   3.009   3.826  0.8988 -1.8368  2.1179
   68CHL1   C17 6162   1.208   2.842   3.730  0.2060  0.6073  0.2672
   68CHL1   H17 6163   1.108   2.795   3.715  0.0407  0.7858  0.7990
   68CHL1   C13 6164   1.265   2.857   3.588  0.6750 -0.3764 -0.1253
   68CHL1   C18 6165   1.411   2.889   3.604  0.0445  0.9000 -1.1723
   68CHL1  H18A 6166   1.434   2.956   3.690  0.2260 -0.2115 -0.3260
   68CHL1  H18B 6167   1.465   2.792   3.616  2.1066  2.1984  0.9092
   68CHL1  H18C 6168   1.459   2.933   3.514 -1.5236  3.7038 -0.7586
   68CHL1   C12 6169   1.247   2.749   3.482  0.6789  0.2524 -0.0596
   68CHL1  H12A 6170   1.310   2.659   3.494 -0.3751 -0.6889 -1.3568
   68CHL1  H12B 6171   1.143   2.713   3.488  0.3956  0.9171 -0.7744
   68CHL1   C11 6172   1.288   2.791   3.342  0.6377  0.3663  0.0408
   68CHL1  H11A 6173   1.399   2.787   3.342  0.6262 -0.0546  0.3653
   68CHL1  H11B 6174   1.257   2.710   3.273  0.5719  1.3425 -1.1022
   68CHL1    C9 6175   1.219   2.917   3.295  0.0442 -0.4624  0.5452
   68CHL1    H9 6176   1.110   2.895   3.294 -0.2279  0.7254  1.4335
   68CHL1   C10 6177   1.236   2.954   3.149 -0.2024 -0.3972  0.4937
   68CHL1   C19 6178   1.387   2.954   3.130  0.7994  0.0050  0.1745
   68CHL1  H19A 6179   1.443   3.020   3.200  3.3199 -0.3504 -1.3791
   68CHL1  H19B 6180   1.439   2.857   3.144 -1.9756 -1.7415 -0.9322
   68CHL1  H19C 6181   1.412   2.997   3.031  3.4354  1.0197  1.1836
   68CHL1    C1 6182   1.167   2.849   3.056  0.2654 -0.1782  0.4954
   68CHL1   H1A 6183   1.222   2.754   3.072  1.8134  0.8661  1.6012
   68CHL1   H1B 6184   1.062   2.836   3.090  0.2776 -2.3484 -0.1533
   68CHL1    C2 6185   1.167   2.877   2.905 -0.1122  0.6672  0.2384
   68CHL1   H2A 6186   1.119   2.801   2.840 -0.2171  0.7631  0.2040
   68CHL1   H2B 6187   1.276   2.874   2.883 -0.1474 -0.1149  0.1369
   68CHL1   C20 6188   1.280   2.766   3.836 -0.6438 -0.2613 -0.0846
   68CHL1   H20 6189   1.386   2.800   3.826 -1.0774  0.8081 -1.4243
   68CHL1   C21 6190   1.275   2.606   3.804  0.4281 -0.4446  0.1513
   68CHL1  H21A 6191   1.289   2.590   3.695 -1.3544  2.3362 -0.5845
   68CHL1  H21B 6192   1.173   2.565   3.818 -0.7040  1.4716 -1.8736
   68CHL1  H21C 6193   1.347   2.546   3.865  0.0419 -1.3522 -0.2597
   68CHL1   C22 6194   1.226   2.795   3.979 -0.0463  0.5445 -0.5071
   68CHL1  H22A 6195   1.263   2.893   4.016  1.5624  0.1316 -0.9226
   68CHL1  H22B 6196   1.116   2.793   3.964  0.1358 -0.3408 -2.0061
   68CHL1   C23 6197   1.257   2.695   4.098 -0.0758  0.2639 -0.2270
   68CHL1  H23A 6198   1.241   2.589   4.066  1.0578 -0.3282  1.0424
   68CHL1  H23B 6199   1.365   2.716   4.113 -0.3804  3.5805 -1.8199
   68CHL1   C24 6200   1.181   2.739   4.224  0.9261 -0.2132 -0.3990
   68CHL1  H24A 6201   1.239   2.826   4.261  0.9697  0.9573 -3.0463
   68CHL1  H24B 6202   1.081   2.780   4.199 -0.5999 -1.9169  2.3515
   68CHL1   C25 6203   1.168   2.631   4.336  0.0920  0.0051  0.4545
   68CHL1   H25 6204   1.262   2.573   4.343  1.0513  1.6484  2.0675
   68CHL1   C26 6205   1.154   2.706   4.470 -0.1646 -0.3996 -0.1427
   68CHL1  H26A 6206   1.104   2.642   4.546 -1.0643  0.8771  0.3722
   68CHL1  H26B 6207   1.257   2.735   4.498  0.3472 -2.5509  0.3975
   68CHL1  H26C 6208   1.094   2.798   4.456 -0.1575 -0.1308  1.4991
   68CHL1   C27 6209   1.052   2.540   4.320  0.7310  0.6531  0.6883
   68CHL1  H27A 6210   1.063   2.462   4.241  1.0128  2.2988 -0.9463
   68CHL1  H27B 6211   1.040   2.487   4.417  0.4588 -0.5012  0.0477
   68CHL1  H27C 6212   0.955   2.592   4.310  1.1574  1.3045 -0.2279
   69CHL1    C3 6213   1.730   2.146   6.105  0.7202 -0.3613  0.0057
   69CHL1    H3 6214   1.824   2.086   6.110  1.5211  0.9299  1.7478
   69CHL1    O3 6215   1.668   2.140   6.236 -0.0349  0.1909 -0.1988
   69CHL1   H3' 6216   1.611   2.216   6.235 -1.0359 -0.5028 -2.2996
   69CHL1    C4 6217   1.776   2.292   6.059 -0.1485 -0.1208  0.1777
   69CHL1   H4A 6218   1.699   2.373   6.050  0.4138  0.6460  1.9059
   69CHL1   H4B 6219   1.835   2.322   6.148  0.4422  1.1140 -0.5898
   69CHL1    C5 6220   1.842   2.285   5.924  0.4641  0.5667 -0.4470
   69CHL1    C6 6221   1.970   2.325   5.917 -0.1539  0.0124  0.0906
   69CHL1    H6 6222   2.025   2.353   6.008 -0.4885 -2.1643  1.0418
   69CHL1    C7 6223   2.029   2.327   5.780 -0.2919 -0.2499 -1.4324
   69CHL1   H7A 6224   2.077   2.426   5.764 -0.4284  0.5005  2.0524
   69CHL1   H7B 6225   2.108   2.251   5.763  0.7733  0.3271  0.6666
   69CHL1    C8 6226   1.942   2.315   5.662  0.0123 -0.6845  0.2519
   69CHL1    H8 6227   1.884   2.409   5.653  2.2170  0.8641  1.4428
   69CHL1   C14 6228   2.013   2.284   5.535 -0.1904 -0.4059  1.0540
   69CHL1   H14 6229   2.059   2.183   5.542 -2.0395 -1.3596  0.1168
   69CHL1   C15 6230   2.129   2.374   5.495 -0.0644 -0.6152 -0.1415
   69CHL1  H15A 6231   2.110   2.480   5.523  1.6397 -0.2630 -0.2336
   69CHL1  H15B 6232   2.222   2.333   5.538 -0.0878 -1.2884 -0.7007
   69CHL1   C16 6233   2.137   2.366   5.336  0.0015  0.0702 -0.2192
   69CHL1  H16A 6234   2.111   2.466   5.294  0.6319  0.3861  0.1221
   69CHL1  H16B 6235   2.237   2.326   5.307 -1.6667 -4.6419 -0.3198
   69CHL1   C17 6236   2.028   2.257   5.297  0.3200 -0.1891 -0.7807
   69CHL1   H17 6237   2.068   2.155   5.310 -0.5480 -0.4197  0.2071
   69CHL1   C13 6238   1.926   2.265   5.408  0.2114  0.1444  0.1151
   69CHL1   C18 6239   1.841   2.392   5.381 -0.3336 -0.1211  0.4750
   69CHL1  H18A 6240   1.764   2.368   5.305 -0.0238  0.3069  0.0275
   69CHL1  H18B 6241   1.793   2.416   5.478 -2.0131  0.6941 -0.5219
   69CHL1  H18C 6242   1.901   2.484   5.364 -2.1339  1.1652  0.8621
   69CHL1   C12 6243   1.840   2.143   5.434  0.1414 -0.0711  0.1490
   69CHL1  H12A 6244   1.770   2.116   5.353 -1.7248  2.0904  0.9219
   69CHL1  H12B 6245   1.908   2.057   5.455  0.4450  0.4648  1.5128
   69CHL1   C11 6246   1.753   2.164   5.557 -0.1342 -0.0745 -0.5662
   69CHL1  H11A 6247   1.675   2.241   5.540  0.5004  0.7504  0.1552
   69CHL1  H11B 6248   1.705   2.066   5.579 -0.0816 -0.4302 -1.9393
   69CHL1    C9 6249   1.840   2.205   5.688 -0.0564 -0.5827  0.0244
   69CHL1    H9 6250   1.902   2.116   5.713  1.1079  0.1292 -0.2226
   69CHL1   C10 6251   1.755   2.228   5.815  0.9661 -0.0999  0.2892
   69CHL1   C19 6252   1.651   2.332   5.783  0.2077  0.7225 -0.3636
   69CHL1  H19A 6253   1.573   2.298   5.711  0.2320 -0.0165 -0.0452
   69CHL1  H19B 6254   1.590   2.341   5.875 -1.0002 -2.8018 -0.6711
   69CHL1  H19C 6255   1.693   2.429   5.747  1.6803  0.0558 -0.5134
   69CHL1    C1 6256   1.683   2.096   5.859  0.3559  0.0329  0.4144
   69CHL1   H1A 6257   1.603   2.072   5.786 -0.4377  2.2388  0.4993
   69CHL1   H1B 6258   1.760   2.016   5.857  0.0739 -0.2318 -0.3053
   69CHL1    C2 6259   1.625   2.094   6.006  0.2489  0.2175  0.5444
   69CHL1   H2A 6260   1.593   1.989   6.021  1.7161 -0.2016  0.9710
   69CHL1   H2B 6261   1.547   2.171   5.994  2.4933  2.4794 -0.5107
   69CHL1   C20 6262   1.973   2.258   5.156 -0.0589  0.4618 -0.9603
   69CHL1   H20 6263   1.867   2.227   5.165  0.0225 -0.0788 -1.8263
   69CHL1   C21 6264   2.041   2.147   5.077 -0.0728  0.0859  1.0111
   69CHL1  H21A 6265   2.006   2.151   4.972 -2.1361 -2.8678  1.4871
   69CHL1  H21B 6266   2.003   2.052   5.119 -2.7077  0.6321 -0.0036
   69CHL1  H21C 6267   2.153   2.148   5.079  0.0150 -2.7429  1.1596
   69CHL1   C22 6268   1.991   2.400   5.092 -0.1807 -0.1495 -0.5787
   69CHL1  H22A 6269   1.930   2.469   5.155  1.5068 -0.5398  1.6115
   69CHL1  H22B 6270   2.099   2.428   5.094 -0.1000 -0.4743 -0.4176
   69CHL1   C23 6271   1.940   2.409   4.948 -0.5581 -0.5732 -0.0769
   69CHL1  H23A 6272   1.987   2.329   4.887  0.9203 -0.5665  1.0014
   69CHL1  H23B 6273   1.830   2.390   4.946 -0.8009  0.1138  2.6090
   69CHL1   C24 6274   1.980   2.543   4.874 -0.1505  0.0350 -0.0302
   69CHL1  H24A 6275   1.926   2.625   4.927 -0.7614 -0.9486  0.8976
   69CHL1  H24B 6276   2.091   2.543   4.877 -0.0297 -1.0118 -2.3734
   69CHL1   C25 6277   1.928   2.558   4.729  0.0315  0.3104  0.2573
   69CHL1   H25 6278   1.960   2.468   4.673  0.4478  1.4920 -1.4898
   69CHL1   C26 6279   1.772   2.558   4.727  0.2413 -0.9720  0.0578
   69CHL1  H26A 6280   1.744   2.642   4.794  3.1363  0.4605 -0.3955
   69CHL1  H26B 6281   1.741   2.575   4.621 -0.8004 -1.1402  0.3180
   69CHL1  H26C 6282   1.721   2.464   4.758  0.8690 -1.8515 -1.4969
   69CHL1   C27 6283   1.990   2.674   4.648  0.4877  0.2927  0.4611
   69CHL1  H27A 6284   1.972   2.770   4.701 -0.9039  0.3568 -0.0980
   69CHL1  H27B 6285   2.100   2.659   4.637  0.5595  1.4049 -0.4734
   69CHL1  H27C 6286   1.941   2.683   4.549  0.7033  0.4389  0.3663
   70CHL1    C3 6287   2.952   4.737   6.371  0.1874 -0.1107  1.0275
   70CHL1    H3 6288   3.031   4.815   6.365  0.3570 -0.1844  2.1212
   70CHL1    O3 6289   2.930   4.722   6.511  0.1645 -0.3512 -0.4183
   70CHL1   H3' 6290   2.944   4.809   6.548  2.7801 -0.6320 -0.5891
   70CHL1    C4 6291   2.833   4.803   6.298 -0.0630  0.1351  0.1722
   70CHL1   H4A 6292   2.746   4.743   6.332  0.8123 -1.0150  0.4675
   70CHL1   H4B 6293   2.817   4.902   6.344 -0.7781 -0.9738  2.4676
   70CHL1    C5 6294   2.847   4.810   6.148  0.4863 -0.0440  0.4880
   70CHL1    C6 6295   2.825   4.921   6.086  0.2487 -0.0121  0.3014
   70CHL1    H6 6296   2.796   5.012   6.140 -0.1895 -0.3426  0.6362
   70CHL1    C7 6297   2.826   4.938   5.940  0.5315 -0.2786 -0.2472
   70CHL1   H7A 6298   2.748   5.011   5.907 -0.0517 -0.8105 -0.0685
   70CHL1   H7B 6299   2.918   4.991   5.909  0.3988 -0.6932 -1.4402
   70CHL1    C8 6300   2.806   4.801   5.880  0.1210  0.6044  0.1849
   70CHL1    H8 6301   2.697   4.777   5.885 -0.0422  0.6530 -2.0185
   70CHL1   C14 6302   2.822   4.812   5.724  0.0342  0.5356  0.0006
   70CHL1   H14 6303   2.916   4.865   5.698 -0.3528  1.4490  0.3945
   70CHL1   C15 6304   2.730   4.905   5.645 -0.1770  0.1341 -0.0929
   70CHL1  H15A 6305   2.621   4.903   5.671 -0.1401 -0.1697  0.0484
   70CHL1  H15B 6306   2.753   5.010   5.673 -0.2793 -0.1003  0.9196
   70CHL1   C16 6307   2.756   4.867   5.499  0.6375  0.1803  0.1124
   70CHL1  H16A 6308   2.660   4.846   5.446  0.0919  0.3679  1.0092
   70CHL1  H16B 6309   2.819   4.939   5.441  1.2928 -0.4932 -0.0213
   70CHL1   C17 6310   2.833   4.731   5.498  0.0213  0.1643  0.3978
   70CHL1   H17 6311   2.939   4.758   5.475  0.1849  0.1598  1.1259
   70CHL1   C13 6312   2.829   4.680   5.642 -0.2626 -0.4380  0.1429
   70CHL1   C18 6313   2.685   4.607   5.657  0.8616 -0.6292  0.4051
   70CHL1  H18A 6314   2.667   4.595   5.766 -0.3554  0.9368  0.4044
   70CHL1  H18B 6315   2.602   4.669   5.616  0.9451  0.3402  1.6579
   70CHL1  H18C 6316   2.698   4.511   5.601 -0.5850 -0.5900 -0.0488
   70CHL1   C12 6317   2.946   4.595   5.692  0.1458 -0.8505  0.5456
   70CHL1  H12A 6318   2.948   4.493   5.648 -0.3018 -0.8390  0.5009
   70CHL1  H12B 6319   3.035   4.659   5.673 -1.2269  1.1063  0.4073
   70CHL1   C11 6320   2.928   4.567   5.841  0.0202  0.3771 -0.3657
   70CHL1  H11A 6321   2.831   4.513   5.851  0.2351 -0.1388 -1.0292
   70CHL1  H11B 6322   3.010   4.501   5.876 -0.8451  0.1129  1.2579
   70CHL1    C9 6323   2.905   4.696   5.931 -0.7600  0.6425  0.9413
   70CHL1    H9 6324   3.000   4.751   5.916 -0.4702  0.1340  0.8622
   70CHL1   C10 6325   2.886   4.676   6.082 -0.3443  0.2323 -0.5357
   70CHL1   C19 6326   2.771   4.581   6.113  0.1989  0.0043  0.0556
   70CHL1  H19A 6327   2.792   4.483   6.063  1.9318  0.4947 -0.2225
   70CHL1  H19B 6328   2.751   4.564   6.221  0.0332  1.3999  0.2560
   70CHL1  H19C 6329   2.678   4.623   6.068 -1.1019 -1.7984  0.9196
   70CHL1    C1 6330   3.017   4.621   6.151  0.4338 -0.1683  0.9375
   70CHL1   H1A 6331   3.056   4.534   6.094 -1.0964  0.0514 -0.5133
   70CHL1   H1B 6332   3.091   4.704   6.149  1.0290 -0.6740  1.4010
   70CHL1    C2 6333   3.005   4.602   6.303 -0.2879 -0.7327 -0.1604
   70CHL1   H2A 6334   3.105   4.573   6.340 -0.7527  0.4935  2.2345
   70CHL1   H2B 6335   2.938   4.517   6.329 -0.9848  0.6674  3.1344
   70CHL1   C20 6336   2.786   4.633   5.392  0.1611  0.5397  0.7223
   70CHL1   H20 6337   2.680   4.600   5.405  0.4128 -0.3990  0.5233
   70CHL1   C21 6338   2.874   4.509   5.385 -0.9177 -1.1492 -0.2877
   70CHL1  H21A 6339   2.876   4.449   5.478 -0.4118  0.2616  0.6463
   70CHL1  H21B 6340   2.980   4.539   5.373 -0.7255 -0.9207  1.7402
   70CHL1  H21C 6341   2.858   4.437   5.301 -1.7814  0.0274 -1.1582
   70CHL1   C22 6342   2.798   4.694   5.251 -0.2844 -0.5171  0.2585
   70CHL1  H22A 6343   2.747   4.793   5.247 -0.8691 -0.7248  1.6862
   70CHL1  H22B 6344   2.906   4.708   5.229 -0.7352  1.5737 -0.9006
   70CHL1   C23 6345   2.737   4.622   5.132 -0.0548 -0.7389  0.1676
   70CHL1  H23A 6346   2.785   4.524   5.117  0.2848 -0.3346 -1.5894
   70CHL1  H23B 6347   2.626   4.611   5.139  0.0305 -1.2904  0.6625
   70CHL1   C24 6348   2.771   4.709   5.001 -0.4749  0.2993  0.1780
   70CHL1  H24A 6349   2.695   4.790   5.008  0.8023  1.4855  0.6156
   70CHL1  H24B 6350   2.868   4.757   5.023 -0.2004 -0.4478  0.6648
   70CHL1   C25 6351   2.756   4.638   4.860  0.4499  0.4760 -0.2510
   70CHL1   H25 6352   2.828   4.554   4.861 -0.1448 -0.0704  2.1125
   70CHL1   C26 6353   2.615   4.564   4.848 -0.3485 -0.8476 -0.1725
   70CHL1  H26A 6354   2.593   4.511   4.944  1.0369 -0.3156  0.4697
   70CHL1  H26B 6355   2.553   4.655   4.839 -0.1577 -0.6150  0.7941
   70CHL1  H26C 6356   2.612   4.511   4.751 -0.0754 -1.3909  0.1058
   70CHL1   C27 6357   2.789   4.730   4.746  0.0502  0.3580 -0.2228
   70CHL1  H27A 6358   2.720   4.816   4.737 -0.6426 -0.3009 -1.4518
   70CHL1  H27B 6359   2.891   4.774   4.754  0.1977  0.1354 -0.8030
   70CHL1  H27C 6360   2.776   4.680   4.647  0.5717 -0.4552  0.1111
   71CHL1    C3 6361   2.292   4.698   2.970  0.4974 -0.5466 -0.1655
   71CHL1    H3 6362   2.392   4.656   2.991  0.7405  1.5331  3.7017
   71CHL1    O3 6363   2.274   4.711   2.827 -0.4052 -0.1759  0.0419
   71CHL1   H3' 6364   2.224   4.634   2.799  1.1724 -1.1650 -0.2135
   71CHL1    C4 6365   2.179   4.608   3.025  0.0756  0.2602  0.1674
   71CHL1   H4A 6366   2.085   4.659   2.996 -0.4119  0.1347  1.4411
   71CHL1   H4B 6367   2.181   4.508   2.976  0.8957  0.8406 -1.0408
   71CHL1    C5 6368   2.179   4.594   3.181 -0.3951  0.2646  0.1126
   71CHL1    C6 6369   2.190   4.467   3.238 -0.2496  0.3994  0.0402
   71CHL1    H6 6370   2.178   4.377   3.176  1.1681 -0.2860  0.7159
   71CHL1    C7 6371   2.204   4.454   3.383  0.5519 -0.0756  0.3935
   71CHL1   H7A 6372   2.146   4.365   3.416 -1.5327  1.0995  0.0471
   71CHL1   H7B 6373   2.311   4.440   3.409  0.4895  1.5810  1.7250
   71CHL1    C8 6374   2.156   4.572   3.467  0.0084  0.2729  0.0437
   71CHL1    H8 6375   2.045   4.578   3.472 -0.1185 -2.0056  1.1876
   71CHL1   C14 6376   2.208   4.553   3.609  0.5483 -0.2431 -0.2244
   71CHL1   H14 6377   2.319   4.559   3.602  0.5582  0.2646  0.2881
   71CHL1   C15 6378   2.177   4.420   3.675  0.0070 -0.8321 -0.0092
   71CHL1  H15A 6379   2.076   4.383   3.646 -0.8786  1.3982  0.0513
   71CHL1  H15B 6380   2.244   4.337   3.644  0.6380 -1.1191  2.0162
   71CHL1   C16 6381   2.189   4.446   3.826  0.6153 -0.4298 -0.3569
   71CHL1  H16A 6382   2.088   4.450   3.871  0.3975 -1.3008 -0.7585
   71CHL1  H16B 6383   2.271   4.392   3.877  0.4315 -1.7803 -1.4223
   71CHL1   C17 6384   2.234   4.597   3.844  0.8623  0.1950  0.3457
   71CHL1   H17 6385   2.345   4.596   3.848  0.9233  2.7485  0.8486
   71CHL1   C13 6386   2.178   4.657   3.707 -0.0957 -0.4322  0.1477
   71CHL1   C18 6387   2.025   4.688   3.711  0.0477 -0.0978  0.5884
   71CHL1  H18A 6388   1.971   4.594   3.736 -1.4307  0.8020  0.8766
   71CHL1  H18B 6389   2.006   4.763   3.792  2.3810  3.1250 -1.6166
   71CHL1  H18C 6390   1.974   4.714   3.616  1.5213  1.3690  0.1516
   71CHL1   C12 6391   2.256   4.784   3.658  0.4898  0.1171 -0.9264
   71CHL1  H12A 6392   2.223   4.876   3.712  2.1624  1.0640 -1.4649
   71CHL1  H12B 6393   2.364   4.764   3.674  0.1911 -1.0486 -0.2782
   71CHL1   C11 6394   2.214   4.815   3.514 -0.1352 -0.3432  0.1776
   71CHL1  H11A 6395   2.107   4.845   3.514  0.5879  2.5350  1.2006
   71CHL1  H11B 6396   2.268   4.904   3.475  0.5491 -0.4335  0.8906
   71CHL1    C9 6397   2.224   4.699   3.412 -0.2999 -0.8591 -0.2278
   71CHL1    H9 6398   2.331   4.672   3.417  1.0178  3.5853  0.4198
   71CHL1   C10 6399   2.191   4.727   3.263  0.7566  0.7798  0.9090
   71CHL1   C19 6400   2.057   4.800   3.253  0.3194 -0.5411 -0.3620
   71CHL1  H19A 6401   2.073   4.908   3.274 -0.7571 -0.3653 -0.3717
   71CHL1  H19B 6402   2.005   4.801   3.155  1.0125 -0.9512 -0.7414
   71CHL1  H19C 6403   1.989   4.758   3.330  0.6938 -0.1541  0.1895
   71CHL1    C1 6404   2.299   4.820   3.191 -1.1666 -0.0209  0.3312
   71CHL1   H1A 6405   2.306   4.919   3.239 -0.4179 -0.1393  0.4721
   71CHL1   H1B 6406   2.396   4.774   3.220  0.2911  1.7809 -1.4296
   71CHL1    C2 6407   2.293   4.837   3.038  0.1607  0.1715 -0.3395
   71CHL1   H2A 6408   2.379   4.893   2.994  2.5364 -2.5313  0.5811
   71CHL1   H2B 6409   2.195   4.884   3.018 -0.1264 -0.1163  0.3563
   71CHL1   C20 6410   2.196   4.669   3.978  0.4627 -0.4240  0.3711
   71CHL1   H20 6411   2.086   4.672   3.990  0.3138 -0.2542 -0.8810
   71CHL1   C21 6412   2.263   4.809   3.981 -0.0618 -0.2354 -0.1366
   71CHL1  H21A 6413   2.372   4.814   3.960 -0.3057  0.8351 -1.2921
   71CHL1  H21B 6414   2.243   4.864   4.076  0.4934 -0.4663  0.1203
   71CHL1  H21C 6415   2.208   4.873   3.910  0.0603 -2.3912 -2.2836
   71CHL1   C22 6416   2.247   4.586   4.092 -0.5916  0.7635 -0.1045
   71CHL1  H22A 6417   2.198   4.486   4.101  0.5592  0.3588  2.6137
   71CHL1  H22B 6418   2.356   4.565   4.079 -0.7150  0.6587 -1.0820
   71CHL1   C23 6419   2.226   4.647   4.231  0.5491  0.3536  0.1587
   71CHL1  H23A 6420   2.295   4.733   4.248  0.5076  0.9388 -2.3096
   71CHL1  H23B 6421   2.122   4.685   4.230  0.3580 -0.1352 -1.8157
   71CHL1   C24 6422   2.238   4.538   4.348  0.2284 -0.2154  0.0552
   71CHL1  H24A 6423   2.202   4.580   4.444 -0.1148  0.3791 -0.3308
   71CHL1  H24B 6424   2.169   4.452   4.330  1.1169 -1.1710  1.1023
   71CHL1   C25 6425   2.377   4.467   4.369  0.0729 -0.7534  0.0241
   71CHL1   H25 6426   2.419   4.425   4.275  3.0500  0.3941  0.7378
   71CHL1   C26 6427   2.482   4.562   4.431  0.0970 -0.0772  0.3062
   71CHL1  H26A 6428   2.452   4.598   4.532 -1.7970  0.1391 -0.3051
   71CHL1  H26B 6429   2.582   4.514   4.438 -0.4368 -1.1442  0.8401
   71CHL1  H26C 6430   2.502   4.653   4.370  1.4685  0.6026  1.7026
   71CHL1   C27 6431   2.354   4.338   4.444 -0.5587  0.0654  0.1978
   71CHL1  H27A 6432   2.310   4.266   4.371 -2.6382  1.4385  0.0145
   71CHL1  H27B 6433   2.452   4.300   4.482 -0.3103 -2.8460 -2.8617
   71CHL1  H27C 6434   2.268   4.350   4.513 -2.3343 -0.2813 -1.8556
   72CHL1    C3 6435   0.499   0.186   3.229 -0.1315 -0.2346  0.3449
   72CHL1    H3 6436   0.449   0.285   3.230 -2.8289 -1.4965  0.8333
   72CHL1    O3 6437   0.588   0.169   3.116 -0.5565  0.1090 -0.3122
   72CHL1   H3' 6438   0.526   0.141   3.047 -0.5001  0.5320 -0.5377
   72CHL1    C4 6439   0.577   0.164   3.359 -0.1083 -0.3326  0.7967
   72CHL1   H4A 6440   0.639   0.072   3.344  0.4611 -0.0555  1.3839
   72CHL1   H4B 6441   0.643   0.253   3.368  0.4633 -0.7216  0.5504
   72CHL1    C5 6442   0.489   0.147   3.483 -0.5183 -0.5512  0.3388
   72CHL1    C6 6443   0.514   0.220   3.591  0.9647  0.0325 -0.3156
   72CHL1    H6 6444   0.608   0.276   3.586  1.4922 -0.8224 -0.1583
   72CHL1    C7 6445   0.434   0.229   3.710  0.0676  0.1852 -0.1599
   72CHL1   H7A 6446   0.497   0.235   3.802 -2.2570  0.0670  1.5315
   72CHL1   H7B 6447   0.363   0.314   3.709  0.9291  0.9526  1.2918
   72CHL1    C8 6448   0.344   0.099   3.717 -0.2052  0.1255 -0.6317
   72CHL1    H8 6449   0.405   0.007   3.733  0.2306  0.5893  0.5060
   72CHL1   C14 6450   0.255   0.103   3.835  0.6873 -0.3278 -0.4487
   72CHL1   H14 6451   0.191   0.192   3.819 -0.8890 -1.3315  0.0158
   72CHL1   C15 6452   0.328   0.122   3.973 -0.9314  0.1135 -0.1678
   72CHL1  H15A 6453   0.414   0.053   3.987 -1.1136  0.1386  1.2735
   72CHL1  H15B 6454   0.360   0.229   3.980 -1.9543  0.3334  1.9442
   72CHL1   C16 6455   0.212   0.080   4.074 -1.0791 -0.0235 -0.2014
   72CHL1  H16A 6456   0.255  -0.002   4.135 -1.5633  0.4775  0.8425
   72CHL1  H16B 6457   0.185   0.172   4.131 -1.3219 -0.8393  1.0250
   72CHL1   C17 6458   0.096   0.031   3.990 -0.3579 -0.5309  0.0815
   72CHL1   H17 6459   0.037   0.120   3.959  2.1247  0.6185 -1.6222
   72CHL1   C13 6460   0.158  -0.016   3.859 -0.4361 -0.8548 -0.4952
   72CHL1   C18 6461   0.240  -0.144   3.880  0.7170  0.7481  0.5425
   72CHL1  H18A 6462   0.171  -0.229   3.895  1.2691  0.2784  0.4371
   72CHL1  H18B 6463   0.307  -0.168   3.795 -0.0912 -2.3416  0.6872
   72CHL1  H18C 6464   0.307  -0.140   3.968  1.4504 -0.1478  0.0391
   72CHL1   C12 6465   0.068  -0.015   3.733  0.7500 -0.0787 -0.5075
   72CHL1  H12A 6466  -0.004  -0.099   3.742  0.9795 -0.1380  0.9298
   72CHL1  H12B 6467   0.011   0.081   3.735  1.5741  0.3979  1.0696
   72CHL1   C11 6468   0.150  -0.023   3.603 -0.2496  0.2523 -0.1557
   72CHL1  H11A 6469   0.205  -0.119   3.589  0.0064  0.0477  2.0350
   72CHL1  H11B 6470   0.081  -0.006   3.517  1.2067  2.7438 -0.9538
   72CHL1    C9 6471   0.264   0.080   3.587 -0.2353 -0.2918 -0.4647
   72CHL1    H9 6472   0.211   0.176   3.571  0.4307  0.0871 -0.4258
   72CHL1   C10 6473   0.362   0.059   3.472 -0.1481  0.2654  0.0471
   72CHL1   C19 6474   0.407  -0.086   3.454  0.0294 -0.1447 -0.1818
   72CHL1  H19A 6475   0.457  -0.125   3.545  0.6662 -2.5598 -1.4983
   72CHL1  H19B 6476   0.323  -0.154   3.428 -0.4306  0.4812 -0.3685
   72CHL1  H19C 6477   0.474  -0.102   3.367  0.6289  2.1384 -0.1923
   72CHL1    C1 6478   0.292   0.094   3.338  0.3140  0.8147 -0.2003
   72CHL1   H1A 6479   0.208   0.029   3.303 -0.1695  1.4024 -0.1533
   72CHL1   H1B 6480   0.257   0.199   3.343  0.0552  0.7802 -1.0774
   72CHL1    C2 6481   0.380   0.098   3.214  0.1321  0.1844  0.2135
   72CHL1   H2A 6482   0.313   0.144   3.138 -1.8674  1.1738  2.4210
   72CHL1   H2B 6483   0.410  -0.003   3.178 -3.5556 -1.6395  1.7230
   72CHL1   C20 6484   0.002  -0.068   4.067  0.0838  0.1056  0.1465
   72CHL1   H20 6485   0.054  -0.165   4.082 -1.4463 -0.7658 -0.0397
   72CHL1   C21 6486  -0.125  -0.099   3.986  1.3947  0.2438  0.5506
   72CHL1  H21A 6487  -0.194  -0.162   4.046 -0.1825  0.8399 -0.5394
   72CHL1  H21B 6488  -0.102  -0.163   3.899 -0.0799  0.8201 -0.3165
   72CHL1  H21C 6489  -0.178  -0.012   3.941  1.9628  1.2003  1.6851
   72CHL1   C22 6490  -0.035  -0.017   4.208 -0.4152  0.3647 -0.3539
   72CHL1  H22A 6491  -0.106  -0.092   4.250 -0.3286  1.0880  1.1383
   72CHL1  H22B 6492   0.056  -0.018   4.271 -1.0672  2.6351  0.7163
   72CHL1   C23 6493  -0.106   0.113   4.224  0.4187  0.8372  0.6880
   72CHL1  H23A 6494  -0.053   0.199   4.179  0.7361  1.6099  2.4590
   72CHL1  H23B 6495  -0.207   0.109   4.179 -0.3196  2.5697  2.0717
   72CHL1   C24 6496  -0.129   0.159   4.372 -0.0945 -0.1685 -0.5712
   72CHL1  H24A 6497  -0.171   0.262   4.366  0.5395  0.1160 -0.1923
   72CHL1  H24B 6498  -0.197   0.095   4.433  0.2306 -0.8711 -0.9327
   72CHL1   C25 6499   0.000   0.180   4.467  0.0495 -0.3434  0.3574
   72CHL1   H25 6500   0.055   0.084   4.467 -0.7706 -0.8296  0.9680
   72CHL1   C26 6501   0.094   0.286   4.409  0.4228  0.6092  0.1581
   72CHL1  H26A 6502   0.145   0.243   4.320  0.6517  1.5586 -0.1825
   72CHL1  H26B 6503   0.038   0.378   4.382  1.6955  1.3219 -0.1478
   72CHL1  H26C 6504   0.175   0.326   4.474 -1.2377  4.9600 -0.1049
   72CHL1   C27 6505  -0.018   0.215   4.615  0.0739 -1.1164  0.0470
   72CHL1  H27A 6506   0.077   0.217   4.672  1.1992  2.5269 -1.6859
   72CHL1  H27B 6507  -0.034   0.323   4.630  1.6795 -0.8813  0.2346
   72CHL1  H27C 6508  -0.101   0.154   4.659 -0.6692 -0.6581 -0.6768
   73CHL1    C3 6509   3.058   5.922   2.555 -0.0775  0.4818 -0.3529
   73CHL1    H3 6510   3.124   6.008   2.579  1.7601 -0.8087 -0.6229
   73CHL1    O3 6511   3.042   5.912   2.411 -0.1411 -0.0986 -0.0720
   73CHL1   H3' 6512   3.131   5.920   2.377  0.3605 -3.1256  0.2444
   73CHL1    C4 6513   3.113   5.786   2.598  0.0410  0.1341 -0.5347
   73CHL1   H4A 6514   3.039   5.708   2.570 -0.6556  0.6096 -0.0604
   73CHL1   H4B 6515   3.207   5.758   2.547  0.0031  1.0090 -1.1052
   73CHL1    C5 6516   3.133   5.797   2.753 -0.3415  1.0794 -0.1572
   73CHL1    C6 6517   3.261   5.788   2.799  0.0172 -0.3114  0.5283
   73CHL1    H6 6518   3.350   5.777   2.737  1.3393 -2.7509  2.6624
   73CHL1    C7 6519   3.281   5.763   2.949 -0.9802 -0.1579 -0.9495
   73CHL1   H7A 6520   3.351   5.681   2.975 -0.9616  0.3497  0.6781
   73CHL1   H7B 6521   3.343   5.846   2.989 -1.0720 -0.4519 -0.1903
   73CHL1    C8 6522   3.151   5.759   3.038  0.3117  0.1570  0.2251
   73CHL1    H8 6523   3.117   5.654   3.027  1.1978 -0.0326 -0.9359
   73CHL1   C14 6524   3.182   5.789   3.180 -0.2731 -0.1165  0.0694
   73CHL1   H14 6525   3.220   5.893   3.181 -0.1323 -0.1564  1.4426
   73CHL1   C15 6526   3.298   5.700   3.245 -0.1919 -0.1467  0.4504
   73CHL1  H15A 6527   3.296   5.594   3.212 -1.3282 -0.7957  2.4270
   73CHL1  H15B 6528   3.401   5.738   3.231  0.4303 -1.4092  1.3326
   73CHL1   C16 6529   3.260   5.703   3.391  0.8547  0.5375  0.3019
   73CHL1  H16A 6530   3.242   5.598   3.425  0.4377  0.5124  0.0139
   73CHL1  H16B 6531   3.334   5.746   3.461 -0.5281 -0.9372  2.8121
   73CHL1   C17 6532   3.125   5.789   3.408  0.2326  0.1345 -0.1502
   73CHL1   H17 6533   3.169   5.890   3.413  0.8470 -0.1206 -0.2798
   73CHL1   C13 6534   3.058   5.779   3.271 -0.2388  0.2703  0.0758
   73CHL1   C18 6535   2.985   5.640   3.265 -0.1001  0.0606  0.1662
   73CHL1  H18A 6536   2.887   5.655   3.315  0.7096 -1.7971  2.4703
   73CHL1  H18B 6537   2.962   5.615   3.159  0.4684 -3.8164  0.8315
   73CHL1  H18C 6538   3.047   5.558   3.306  1.7068  0.6177 -1.2988
   73CHL1   C12 6539   2.968   5.894   3.221  0.9270  0.0129 -0.7779
   73CHL1  H12A 6540   2.882   5.912   3.289  0.9210  3.9777 -1.5485
   73CHL1  H12B 6541   3.025   5.985   3.251 -1.5048  0.6803  2.4434
   73CHL1   C11 6542   2.924   5.888   3.072 -0.3849  0.2560  0.8007
   73CHL1  H11A 6543   2.849   5.806   3.070 -2.2961  1.8226  3.2463
   73CHL1  H11B 6544   2.866   5.977   3.038  0.4576  1.1967  1.7332
   73CHL1    C9 6545   3.049   5.855   2.981 -0.9016  0.1951  1.1986
   73CHL1    H9 6546   3.111   5.947   2.979  2.6826 -2.0439  2.1450
   73CHL1   C10 6547   3.007   5.825   2.834 -0.3342  0.3074  0.3008
   73CHL1   C19 6548   2.919   5.697   2.810 -0.4962  0.4380 -0.9048
   73CHL1  H19A 6549   2.888   5.679   2.704  1.4909 -0.4783 -1.3840
   73CHL1  H19B 6550   2.978   5.608   2.842 -0.0572  0.5113 -1.4871
   73CHL1  H19C 6551   2.828   5.710   2.872 -1.2286  1.0604 -2.0707
   73CHL1    C1 6552   2.935   5.952   2.777 -0.6014  0.4556 -0.4986
   73CHL1   H1A 6553   2.836   5.967   2.824 -0.7949 -0.3433 -0.6436
   73CHL1   H1B 6554   2.991   6.042   2.813  1.2461 -1.6888  2.4566
   73CHL1    C2 6555   2.924   5.953   2.622  0.0461 -0.5626  0.8020
   73CHL1   H2A 6556   2.882   6.049   2.585  0.9365 -0.3863  0.2291
   73CHL1   H2B 6557   2.849   5.874   2.597  0.5941 -0.9420  0.3538
   73CHL1   C20 6558   3.040   5.761   3.538  0.1999  0.4497  0.5098
   73CHL1   H20 6559   2.980   5.671   3.514  2.3715 -0.4501 -2.1071
   73CHL1   C21 6560   2.950   5.888   3.570 -0.2020 -0.1001  1.2444
   73CHL1  H21A 6561   2.895   5.932   3.485  2.0115 -2.5968 -1.7357
   73CHL1  H21B 6562   3.030   5.961   3.595  0.8597 -0.2174 -1.4434
   73CHL1  H21C 6563   2.881   5.875   3.656 -1.1388 -1.7617  0.2967
   73CHL1   C22 6564   3.124   5.727   3.660 -0.1502 -0.1027  0.0603
   73CHL1  H22A 6565   3.184   5.634   3.656 -1.2608 -0.8046 -0.8384
   73CHL1  H22B 6566   3.207   5.802   3.663  0.2084 -0.4906 -0.0970
   73CHL1   C23 6567   3.046   5.732   3.792 -0.0133 -0.0512 -0.5476
   73CHL1  H23A 6568   3.011   5.836   3.808 -2.5712 -1.1330  1.5283
   73CHL1  H23B 6569   2.968   5.654   3.781  1.1380 -1.1326 -1.3390
   73CHL1   C24 6570   3.131   5.702   3.917  0.3006  0.4798  0.2334
   73CHL1  H24A 6571   3.169   5.599   3.903  0.9765  0.8167 -0.4688
   73CHL1  H24B 6572   3.209   5.779   3.935 -1.6883  2.9464 -0.9546
   73CHL1   C25 6573   3.046   5.695   4.045 -0.4205 -0.5911  0.6413
   73CHL1   H25 6574   2.964   5.620   4.032  0.9199 -2.2130  1.2014
   73CHL1   C26 6575   3.115   5.634   4.161 -0.7653 -0.1459  1.0297
   73CHL1  H26A 6576   3.051   5.638   4.252 -1.6013 -0.1604  0.4527
   73CHL1  H26B 6577   3.143   5.528   4.138 -0.1610 -0.1642  1.7943
   73CHL1  H26C 6578   3.212   5.682   4.186 -1.3257  1.0226  0.9917
   73CHL1   C27 6579   2.997   5.841   4.085 -0.4116 -0.2726 -0.1011
   73CHL1  H27A 6580   2.965   5.845   4.191  0.0740  1.0433  0.0106
   73CHL1  H27B 6581   3.069   5.921   4.060 -0.4710  0.4769  1.9907
   73CHL1  H27C 6582   2.904   5.869   4.030  1.4820  4.5482 -1.3647
   74CHL1    C3 6583   6.336   2.075   2.906  0.1086  0.2870  0.0929
   74CHL1    H3 6584   6.429   2.129   2.875  0.0891  0.9651  1.1789
   74CHL1    O3 6585   6.249   2.045   2.803  0.0067 -0.5513 -0.4391
   74CHL1   H3' 6586   6.177   1.988   2.831 -1.1201  0.7365 -0.6100
   74CHL1    C4 6587   6.381   1.938   2.959  0.8276 -0.4640 -0.3118
   74CHL1   H4A 6588   6.289   1.879   2.985  1.1366 -0.9061 -0.2036
   74CHL1   H4B 6589   6.432   1.884   2.877 -0.2289  1.7840 -2.5781
   74CHL1    C5 6590   6.475   1.953   3.077 -0.1312  0.4087  0.5404
   74CHL1    C6 6591   6.602   1.919   3.063  0.5337 -0.1555  0.1480
   74CHL1    H6 6592   6.636   1.883   2.965 -1.2530  1.4164 -1.1373
   74CHL1    C7 6593   6.699   1.933   3.174 -0.1515 -0.6273  0.0864
   74CHL1   H7A 6594   6.756   1.838   3.180 -1.5574 -1.4848  0.2625
   74CHL1   H7B 6595   6.777   2.012   3.164 -1.1781  0.3981 -0.0315
   74CHL1    C8 6596   6.628   1.949   3.311 -0.3020 -0.3813 -0.4419
   74CHL1    H8 6597   6.588   1.849   3.340 -1.5247 -0.0256 -0.8330
   74CHL1   C14 6598   6.740   1.985   3.415  0.8937 -0.3465  0.0097
   74CHL1   H14 6599   6.795   2.073   3.375 -0.3178  0.1679 -0.5486
   74CHL1   C15 6600   6.853   1.888   3.445  0.0805 -0.1871 -0.3459
   74CHL1  H15A 6601   6.828   1.782   3.426  2.2142 -1.3199  2.4663
   74CHL1  H15B 6602   6.934   1.911   3.372  0.9047 -2.0290 -0.0676
   74CHL1   C16 6603   6.902   1.914   3.589  0.0718 -0.8481  0.4825
   74CHL1  H16A 6604   6.880   1.826   3.653  0.1274 -0.8819  0.4553
   74CHL1  H16B 6605   7.009   1.944   3.589 -0.8310  2.9587 -1.4009
   74CHL1   C17 6606   6.816   2.040   3.639  0.2265  0.6799  0.3104
   74CHL1   H17 6607   6.868   2.125   3.591 -0.8124  2.4927  2.2211
   74CHL1   C13 6608   6.684   2.022   3.558 -0.1989 -0.0335  0.2197
   74CHL1   C18 6609   6.611   1.899   3.613  0.1125 -0.2952 -0.4397
   74CHL1  H18A 6610   6.525   1.872   3.548 -0.4095  0.1304  0.0498
   74CHL1  H18B 6611   6.679   1.814   3.633 -0.5875 -0.9170 -0.6440
   74CHL1  H18C 6612   6.559   1.923   3.709  1.3084 -1.9239  0.6570
   74CHL1   C12 6613   6.594   2.146   3.540 -0.3106  0.5245  0.1522
   74CHL1  H12A 6614   6.565   2.183   3.641 -2.3045  1.2596 -0.6473
   74CHL1  H12B 6615   6.639   2.241   3.504 -1.8390  1.0014 -0.5990
   74CHL1   C11 6616   6.475   2.114   3.445 -0.0210 -0.4449  0.3589
   74CHL1  H11A 6617   6.409   2.039   3.494  0.3807  0.1204  1.7953
   74CHL1  H11B 6618   6.409   2.203   3.435 -2.4913 -1.9335  2.1454
   74CHL1    C9 6619   6.524   2.066   3.302 -0.0296 -0.1181 -0.3904
   74CHL1    H9 6620   6.589   2.144   3.256  1.7301 -0.5567  1.2311
   74CHL1   C10 6621   6.407   2.029   3.202 -0.0056 -0.2319 -0.5262
   74CHL1   C19 6622   6.302   1.945   3.268  0.1005  0.1417 -0.1343
   74CHL1  H19A 6623   6.228   1.906   3.195  2.1162 -0.2001 -2.1134
   74CHL1  H19B 6624   6.348   1.866   3.330  1.4606  0.2336 -0.9877
   74CHL1  H19C 6625   6.237   2.003   3.337  1.5109  1.1902  0.3424
   74CHL1    C1 6626   6.342   2.167   3.150 -0.3753  0.3270 -0.0138
   74CHL1   H1A 6627   6.277   2.210   3.229  2.9786 -1.0419  3.8175
   74CHL1   H1B 6628   6.435   2.226   3.136 -1.5902  1.9423 -1.6973
   74CHL1    C2 6629   6.262   2.152   3.012 -0.4933  0.7559  0.4164
   74CHL1   H2A 6630   6.235   2.254   2.976 -2.4976 -0.2860 -1.3007
   74CHL1   H2B 6631   6.166   2.101   3.037  0.0534 -1.5684 -1.7264
   74CHL1   C20 6632   6.817   2.056   3.787  0.2597 -0.2548 -0.7651
   74CHL1   H20 6633   6.761   1.972   3.835 -0.4536  1.3315  1.3632
   74CHL1   C21 6634   6.743   2.183   3.837  0.5016 -1.3647  0.9868
   74CHL1  H21A 6635   6.760   2.198   3.945  0.9200  2.6391  0.5338
   74CHL1  H21B 6636   6.635   2.164   3.825 -0.0353  0.0261  3.1570
   74CHL1  H21C 6637   6.767   2.278   3.783  0.3215 -1.5401  0.5973
   74CHL1   C22 6638   6.963   2.053   3.847 -0.1218 -0.7668  0.6178
   74CHL1  H22A 6639   6.958   2.089   3.952 -0.6958  1.0304  0.0078
   74CHL1  H22B 6640   7.002   1.950   3.858  0.3121 -0.5417  1.2244
   74CHL1   C23 6641   7.060   2.149   3.778 -0.0294  0.4878 -0.1288
   74CHL1  H23A 6642   7.089   2.106   3.680 -1.9585  0.7106 -0.8331
   74CHL1  H23B 6643   7.022   2.251   3.755  0.8728  1.0959  0.9463
   74CHL1   C24 6644   7.190   2.173   3.858 -0.0396  0.1178 -0.0891
   74CHL1  H24A 6645   7.267   2.228   3.801 -0.3897  1.3179  0.5712
   74CHL1  H24B 6646   7.169   2.241   3.943 -0.1282 -2.7199  2.3045
   74CHL1   C25 6647   7.256   2.045   3.903  0.1807  0.0425  0.5112
   74CHL1   H25 6648   7.181   1.972   3.941 -1.1080  0.7478 -0.5524
   74CHL1   C26 6649   7.323   1.965   3.789  0.1903  0.3142  0.3422
   74CHL1  H26A 6650   7.367   1.870   3.827 -2.4061 -0.7907  0.7649
   74CHL1  H26B 6651   7.250   1.941   3.709  0.2645 -0.5945  0.5341
   74CHL1  H26C 6652   7.400   2.036   3.750 -1.0129  1.6008  0.2462
   74CHL1   C27 6653   7.361   2.081   3.994 -0.8527  0.5554 -0.1132
   74CHL1  H27A 6654   7.329   2.134   4.086  0.5035  0.6174  0.3495
   74CHL1  H27B 6655   7.418   1.995   4.037  2.8839  2.2366 -1.2871
   74CHL1  H27C 6656   7.433   2.148   3.943 -0.6365  0.1776 -0.3117
   75CHL1    C3 6657   1.898   1.036   2.746 -0.1008 -0.4564  0.0150
   75CHL1    H3 6658   1.968   1.121   2.737 -0.9117  0.3231  0.9369
   75CHL1    O3 6659   1.874   0.986   2.621 -0.0729 -0.5651  0.4590
   75CHL1   H3' 6660   1.953   0.937   2.598  0.1896  0.3712 -0.7489
   75CHL1    C4 6661   1.978   0.931   2.823  0.1586  0.3371 -0.3160
   75CHL1   H4A 6662   1.932   0.831   2.814  0.0256  0.3796 -0.1070
   75CHL1   H4B 6663   2.077   0.916   2.773 -0.5777  1.7472 -2.3437
   75CHL1    C5 6664   1.999   0.977   2.963 -0.0812 -0.0727  0.2813
   75CHL1    C6 6665   2.122   1.000   3.012 -0.0555  0.7163  0.2226
   75CHL1    H6 6666   2.216   0.991   2.954  0.7846 -1.3653  1.7864
   75CHL1    C7 6667   2.162   1.064   3.144  0.2762  0.1088  0.2469
   75CHL1   H7A 6668   2.254   1.030   3.196  0.6639  1.7307  0.7091
   75CHL1   H7B 6669   2.188   1.171   3.127  1.2537  0.0690  1.3225
   75CHL1    C8 6670   2.036   1.035   3.234  0.2931 -0.1449 -0.4813
   75CHL1    H8 6671   2.023   0.926   3.247 -0.4606 -0.1170 -0.9643
   75CHL1   C14 6672   2.057   1.116   3.366  0.1497  0.4264  0.5462
   75CHL1   H14 6673   2.052   1.225   3.344  1.8818  0.5463  0.5913
   75CHL1   C15 6674   2.189   1.091   3.433  0.0598  0.0099  0.2409
   75CHL1  H15A 6675   2.208   0.982   3.443 -0.6559 -0.3064 -1.4681
   75CHL1  H15B 6676   2.280   1.125   3.379 -0.5295 -1.0502 -1.4902
   75CHL1   C16 6677   2.170   1.143   3.570  0.4506  0.3105 -0.1175
   75CHL1  H16A 6678   2.216   1.062   3.632  0.6234  1.5692  1.4651
   75CHL1  H16B 6679   2.230   1.234   3.590 -0.9028  1.3455 -0.6700
   75CHL1   C17 6680   2.017   1.171   3.591  0.6233  0.7424 -0.0904
   75CHL1   H17 6681   2.000   1.279   3.569 -2.0918  0.6320  1.0961
   75CHL1   C13 6682   1.954   1.099   3.471 -0.9935  0.1408 -0.1580
   75CHL1   C18 6683   1.932   0.950   3.502 -0.1006  0.7534  0.0313
   75CHL1  H18A 6684   2.020   0.910   3.557  1.7912  2.3426 -1.6733
   75CHL1  H18B 6685   1.851   0.950   3.578 -0.1341  0.5534 -0.0022
   75CHL1  H18C 6686   1.914   0.878   3.420  0.7638 -0.7996  1.1491
   75CHL1   C12 6687   1.834   1.158   3.421  0.2019  0.9414  0.2844
   75CHL1  H12A 6688   1.748   1.139   3.489 -0.0924 -0.4919 -0.4491
   75CHL1  H12B 6689   1.850   1.264   3.392  3.5053 -0.0079 -1.9424
   75CHL1   C11 6690   1.789   1.096   3.282  0.6340  0.0646 -0.5546
   75CHL1  H11A 6691   1.754   0.992   3.304  1.1678  0.0603  0.2966
   75CHL1  H11B 6692   1.703   1.154   3.242  1.9043  1.2938 -1.5980
   75CHL1    C9 6693   1.904   1.086   3.177  0.2137  0.2642 -0.2975
   75CHL1    H9 6694   1.921   1.189   3.139  2.1352  0.2245  0.3658
   75CHL1   C10 6695   1.873   1.013   3.042 -0.5149 -0.7988  0.0194
   75CHL1   C19 6696   1.787   0.887   3.075  0.7193  0.3673 -0.0128
   75CHL1  H19A 6697   1.779   0.820   2.987 -0.3338 -0.1647  0.4658
   75CHL1  H19B 6698   1.816   0.837   3.170 -2.4828  0.1872  0.9747
   75CHL1  H19C 6699   1.683   0.926   3.081  0.1511 -0.7157 -2.0867
   75CHL1    C1 6700   1.785   1.113   2.953  0.0329 -0.9595 -1.2889
   75CHL1   H1A 6701   1.682   1.120   2.994  0.6712  2.7544  0.1307
   75CHL1   H1B 6702   1.823   1.218   2.950 -0.2209 -0.8751 -1.5670
   75CHL1    C2 6703   1.765   1.058   2.816 -0.3460 -0.1334 -0.2363
   75CHL1   H2A 6704   1.704   1.125   2.751  2.3891  2.1906 -0.6056
   75CHL1   H2B 6705   1.715   0.959   2.816 -0.1689 -0.2570  1.4618
   75CHL1   C20 6706   1.976   1.135   3.738  0.2390  0.1711 -0.3568
   75CHL1   H20 6707   2.006   1.029   3.749  2.9373  0.7760 -0.9557
   75CHL1   C21 6708   1.826   1.155   3.752  0.6041 -0.0047 -0.0353
   75CHL1  H21A 6709   1.759   1.094   3.688  0.2667  0.6874 -0.3500
   75CHL1  H21B 6710   1.808   1.263   3.736 -2.4551  0.1285  3.1962
   75CHL1  H21C 6711   1.793   1.137   3.857 -3.0463 -1.8841 -1.3504
   75CHL1   C22 6712   2.047   1.219   3.840 -0.3703 -0.7626 -1.1424
   75CHL1  H22A 6713   2.154   1.195   3.821  0.3139  0.1288  1.2042
   75CHL1  H22B 6714   2.026   1.325   3.817  0.0545 -0.0167  1.6015
   75CHL1   C23 6715   2.014   1.196   3.989  0.0936  0.3236 -1.0002
   75CHL1  H23A 6716   1.909   1.228   4.006  0.2102  0.7278 -1.0224
   75CHL1  H23B 6717   2.018   1.086   4.002  1.8455  0.5574  0.7453
   75CHL1   C24 6718   2.099   1.264   4.095  0.1927 -0.2333  0.0736
   75CHL1  H24A 6719   2.205   1.231   4.082  0.1637 -0.1214 -0.4838
   75CHL1  H24B 6720   2.081   1.372   4.079 -1.3850 -0.5347 -0.3636
   75CHL1   C25 6721   2.068   1.244   4.245  0.3929 -0.0078 -0.3199
   75CHL1   H25 6722   1.962   1.275   4.256 -0.2558 -1.7807 -1.2519
   75CHL1   C26 6723   2.067   1.098   4.291  0.3443 -0.0720  0.7358
   75CHL1  H26A 6724   2.159   1.072   4.348  1.5758 -1.8988 -1.8723
   75CHL1  H26B 6725   1.977   1.072   4.350 -2.2495 -0.0516 -2.8796
   75CHL1  H26C 6726   2.065   1.025   4.206  1.7730  0.4403  0.2330
   75CHL1   C27 6727   2.153   1.326   4.352 -0.4197  0.6230 -0.0008
   75CHL1  H27A 6728   2.142   1.436   4.339  0.7909  0.7988  0.3532
   75CHL1  H27B 6729   2.125   1.302   4.457  1.6632 -0.0186  0.4522
   75CHL1  H27C 6730   2.256   1.294   4.325 -0.6180 -0.1191  0.1149
   76CHL1    C3 6731   4.178   6.745   2.598 -0.3134  0.3725 -0.6709
   76CHL1    H3 6732   4.090   6.800   2.637 -0.6235 -1.0698  0.7670
   76CHL1    O3 6733   4.191   6.756   2.457 -0.0859  0.1688 -0.6267
   76CHL1   H3' 6734   4.244   6.680   2.433 -1.3125 -0.5910 -0.9802
   76CHL1    C4 6735   4.303   6.806   2.663 -0.0451  0.2265 -0.4452
   76CHL1   H4A 6736   4.381   6.729   2.646  0.0299 -0.1241  1.3213
   76CHL1   H4B 6737   4.319   6.907   2.617  1.1869 -0.1963 -0.9927
   76CHL1    C5 6738   4.282   6.810   2.814 -0.3608  0.8415  0.1271
   76CHL1    C6 6739   4.262   6.921   2.878  0.1912 -0.2321  0.1746
   76CHL1    H6 6740   4.266   7.020   2.830 -1.1013 -0.5228 -0.6019
   76CHL1    C7 6741   4.237   6.923   3.029  0.1674  0.2125  0.2799
   76CHL1   H7A 6742   4.294   7.004   3.079  0.3479 -0.1572  0.6787
   76CHL1   H7B 6743   4.127   6.938   3.040 -0.3764 -1.9627 -1.4593
   76CHL1    C8 6744   4.283   6.791   3.091 -0.4984 -0.2211 -0.5501
   76CHL1    H8 6745   4.394   6.783   3.089 -0.3545  1.3872 -2.2959
   76CHL1   C14 6746   4.239   6.793   3.236 -0.6962  0.4970  0.3777
   76CHL1   H14 6747   4.128   6.790   3.243 -0.6264 -1.5012  1.6226
   76CHL1   C15 6748   4.276   6.917   3.315  0.4296  0.8666 -0.0211
   76CHL1  H15A 6749   4.382   6.949   3.301  0.2107  1.6836  0.1780
   76CHL1  H15B 6750   4.202   6.997   3.296 -0.0446  0.1894 -1.1160
   76CHL1   C16 6751   4.257   6.872   3.459  0.3080 -0.4819 -0.2325
   76CHL1  H16A 6752   4.353   6.891   3.511 -0.8867  1.1491  1.5601
   76CHL1  H16B 6753   4.180   6.929   3.517  1.1018  1.4547 -0.9845
   76CHL1   C17 6754   4.220   6.724   3.458 -0.2187  0.6479  0.1110
   76CHL1   H17 6755   4.112   6.703   3.473 -0.0598  0.6097  1.2812
   76CHL1   C13 6756   4.264   6.670   3.317 -0.7355 -0.1153 -0.1413
   76CHL1   C18 6757   4.422   6.651   3.319 -0.3054 -0.5494  0.5273
   76CHL1  H18A 6758   4.435   6.557   3.377  0.3392 -0.2879  0.8162
   76CHL1  H18B 6759   4.466   6.634   3.218  2.4943 -1.0320  1.7465
   76CHL1  H18C 6760   4.476   6.733   3.370 -0.7448 -0.9496  1.6577
   76CHL1   C12 6761   4.199   6.551   3.256 -0.4282  0.3966 -0.3303
   76CHL1  H12A 6762   4.240   6.459   3.302 -1.1434  0.3995  0.3286
   76CHL1  H12B 6763   4.089   6.543   3.272 -0.3683  2.7213  1.7339
   76CHL1   C11 6764   4.243   6.543   3.110  0.1934 -0.6518 -0.4311
   76CHL1  H11A 6765   4.346   6.503   3.107  1.3816  1.9234  1.7711
   76CHL1  H11B 6766   4.176   6.468   3.062 -1.4250  0.1746  0.4218
   76CHL1    C9 6767   4.222   6.675   3.023 -0.1998  0.2185  0.7303
   76CHL1    H9 6768   4.115   6.702   3.023 -0.2243  0.1202  0.6475
   76CHL1   C10 6769   4.272   6.667   2.877 -0.5622 -0.1054 -0.0419
   76CHL1   C19 6770   4.412   6.596   2.870 -0.0810 -0.2058 -0.1872
   76CHL1  H19A 6771   4.463   6.591   2.771  0.3517  0.9474 -0.0458
   76CHL1  H19B 6772   4.484   6.627   2.949 -0.7169  2.0832 -0.4049
   76CHL1  H19C 6773   4.393   6.492   2.902 -0.4319 -0.5873 -1.5459
   76CHL1    C1 6774   4.166   6.588   2.794 -0.2507  0.2742  1.2017
   76CHL1   H1A 6775   4.186   6.485   2.830  1.4051 -0.6746 -2.0522
   76CHL1   H1B 6776   4.058   6.614   2.807 -0.9100 -1.1069 -0.9246
   76CHL1    C2 6777   4.172   6.591   2.643 -0.2189 -0.5320  0.1777
   76CHL1   H2A 6778   4.073   6.556   2.609 -1.0260  0.8099  1.0161
   76CHL1   H2B 6779   4.262   6.540   2.603  1.0489  1.7630 -0.1138
   76CHL1   C20 6780   4.281   6.655   3.581  0.2270  0.0919 -0.4379
   76CHL1   H20 6781   4.392   6.658   3.578  0.2469 -0.6664 -3.2662
   76CHL1   C21 6782   4.231   6.505   3.578  0.0301  0.8891 -0.2319
   76CHL1  H21A 6783   4.122   6.506   3.555 -0.4032 -0.1551  1.5283
   76CHL1  H21B 6784   4.239   6.456   3.678 -0.7031 -0.0824 -0.6381
   76CHL1  H21C 6785   4.293   6.441   3.513  0.1217 -2.7628  3.0778
   76CHL1   C22 6786   4.243   6.715   3.718 -0.2937 -0.3459  0.6567
   76CHL1  H22A 6787   4.260   6.825   3.718 -4.4084  0.5423 -3.0717
   76CHL1  H22B 6788   4.134   6.718   3.737 -0.1696  1.0903  1.3301
   76CHL1   C23 6789   4.318   6.654   3.846 -0.0914 -1.0840  0.2183
   76CHL1  H23A 6790   4.278   6.552   3.861 -0.2912 -0.8185  1.6508
   76CHL1  H23B 6791   4.427   6.641   3.827  0.3702 -0.4534  2.1927
   76CHL1   C24 6792   4.284   6.742   3.973 -0.8449  0.1760  0.5307
   76CHL1  H24A 6793   4.323   6.843   3.950 -0.0844 -0.4827 -1.2902
   76CHL1  H24B 6794   4.175   6.742   3.993 -0.9098 -0.5483  0.2140
   76CHL1   C25 6795   4.350   6.691   4.100  0.4573  0.4305 -0.7184
   76CHL1   H25 6796   4.459   6.697   4.080  1.0399  0.9875  2.2208
   76CHL1   C26 6797   4.333   6.788   4.215 -0.6778  0.4210 -0.2863
   76CHL1  H26A 6798   4.228   6.807   4.247 -0.3686  1.7997 -0.0355
   76CHL1  H26B 6799   4.391   6.745   4.300 -0.7596  1.4055  0.2869
   76CHL1  H26C 6800   4.384   6.882   4.186  1.4657 -0.5813  0.0529
   76CHL1   C27 6801   4.313   6.550   4.150 -0.9947 -0.1297  0.1392
   76CHL1  H27A 6802   4.335   6.470   4.076 -0.7924 -1.5107  1.6321
   76CHL1  H27B 6803   4.367   6.535   4.245  0.9863  1.6876 -0.6157
   76CHL1  H27C 6804   4.207   6.546   4.183 -1.5712 -2.5800 -1.6407
   77SOPE     N 6805   5.219   0.540   6.780  0.2909 -0.2453 -0.4048
   77SOPE   HN1 6806   5.232   0.602   6.697  3.1667  0.0234  0.1453
   77SOPE   HN2 6807   5.118   0.543   6.807 -0.2124 -0.7458 -2.0921
   77SOPE   HN3 6808   5.275   0.573   6.861 -0.5140 -1.7621  0.8156
   77SOPE   C12 6809   5.278   0.403   6.740 -0.1940  0.2044 -0.2861
   77SOPE  H12A 6810   5.313   0.342   6.825  1.2791  1.0801 -0.2302
   77SOPE  H12B 6811   5.363   0.429   6.673  0.2075  0.3700  0.2829
   77SOPE   C11 6812   5.175   0.319   6.663 -0.5709  0.3238 -0.2523
   77SOPE  H11A 6813   5.082   0.298   6.720 -0.4503  1.7027  0.4857
   77SOPE  H11B 6814   5.218   0.218   6.643 -0.0327  0.0999  1.8297
   77SOPE     P 6815   5.064   0.336   6.419  0.1909 -0.0786 -0.0620
   77SOPE   O13 6816   5.013   0.195   6.430 -0.4055  0.0018 -0.1099
   77SOPE   O14 6817   5.136   0.361   6.294 -0.0106  0.2381  0.5321
   77SOPE   O12 6818   5.146   0.393   6.546  0.2045  0.0647 -0.8091
   77SOPE   O11 6819   4.935   0.432   6.423 -0.3954  0.0945 -0.0640
   77SOPE    C1 6820   4.820   0.381   6.353 -0.6225  0.7311 -0.3423
   77SOPE    HA 6821   4.728   0.438   6.381 -1.7867 -1.3191  0.1682
   77SOPE    HB 6822   4.792   0.277   6.380  1.3291 -0.1985 -1.7278
   77SOPE    C2 6823   4.829   0.383   6.195  0.0076  0.4797 -0.0395
   77SOPE    HS 6824   4.927   0.349   6.156 -0.0446  1.7393 -1.3646
   77SOPE   O21 6825   4.798   0.514   6.138 -0.8310 -0.5621  0.3142
   77SOPE   C21 6826   4.852   0.550   6.029  0.1259  0.1612  0.5836
   77SOPE   O22 6827   4.940   0.495   5.969 -0.0699 -0.1870  1.4480
   77SOPE   C22 6828   4.791   0.679   5.977  0.1436 -0.0589  0.9284
   77SOPE   H2R 6829   4.854   0.768   5.999 -2.4460  3.1174 -3.0684
   77SOPE   H2S 6830   4.687   0.685   6.016  0.1337  0.4970  0.8215
   77SOPE    C3 6831   4.726   0.278   6.138  0.0637 -0.1010 -0.6212
   77SOPE    HX 6832   4.620   0.312   6.145 -0.1137  0.4495 -4.0810
   77SOPE    HY 6833   4.738   0.185   6.198 -0.4437 -0.4287 -1.0088
   77SOPE   O31 6834   4.755   0.253   6.003 -0.2794  0.8530 -0.8554
   77SOPE   C31 6835   4.667   0.166   5.942 -0.0421 -0.1826 -0.4191
   77SOPE   O32 6836   4.560   0.134   5.997  0.1291 -0.3273 -0.0519
   77SOPE   C32 6837   4.715   0.126   5.805 -0.3076 -0.6649  0.5118
   77SOPE   H2X 6838   4.670   0.034   5.762  1.9181 -1.0752 -1.1580
   77SOPE   H2Y 6839   4.825   0.113   5.815 -0.5892 -1.5464  3.0103
   77SOPE   C23 6840   4.745   0.682   5.831 -0.2013 -0.4086  0.2683
   77SOPE   H3R 6841   4.677   0.770   5.824  0.2184  0.1062  1.9709
   77SOPE   H3S 6842   4.689   0.592   5.798  0.4525 -0.9161  0.5181
   77SOPE   C24 6843   4.849   0.735   5.731 -0.0105 -0.1328  0.1668
   77SOPE   H4R 6844   4.918   0.811   5.773 -1.1093  0.8968  0.1554
   77SOPE   H4S 6845   4.909   0.644   5.714 -2.6079 -2.0306  0.5133
   77SOPE   C25 6846   4.778   0.798   5.610 -0.4715 -0.0351 -0.1850
   77SOPE   H5R 6847   4.701   0.731   5.566  0.0765  0.1249 -1.4418
   77SOPE   H5S 6848   4.736   0.897   5.637  0.4945  0.3010  0.1366
   77SOPE   C26 6849   4.867   0.831   5.490  0.5993  0.1124 -0.1949
   77SOPE   H6R 6850   4.953   0.762   5.477 -0.1718 -0.9116  0.0456
   77SOPE   H6S 6851   4.807   0.834   5.396  0.7613 -0.1516 -0.3094
   77SOPE   C27 6852   4.912   0.979   5.500 -0.3560  0.4547  0.2205
   77SOPE   H7R 6853   4.830   1.052   5.482 -0.7398 -0.4238 -1.9024
   77SOPE   H7S 6854   4.961   0.999   5.598  0.5036  0.3527 -0.1850
   77SOPE   C28 6855   5.019   1.011   5.393 -0.6894 -0.0432  0.9979
   77SOPE   H8R 6856   5.097   0.933   5.409  0.7144  1.3578  1.1567
   77SOPE   H8S 6857   4.961   0.985   5.301  0.5519  0.9503 -0.1047
   77SOPE   C29 6858   5.074   1.157   5.385 -0.4605 -0.4134  0.2787
   77SOPE   H91 6859   5.100   1.194   5.485 -3.2487 -0.3999  1.0658
   77SOPE  C210 6860   5.080   1.240   5.283  0.4910 -0.2596  0.5013
   77SOPE  H101 6861   5.120   1.342   5.293  1.7471 -0.4649 -1.7184
   77SOPE  C211 6862   5.027   1.202   5.144 -0.0866 -0.2892  0.2638
   77SOPE  H11R 6863   5.020   1.092   5.133 -0.5868 -0.5060  2.2533
   77SOPE  H11S 6864   5.105   1.238   5.074 -1.6304  0.8242 -0.9531
   77SOPE  C212 6865   4.888   1.259   5.104  0.0599  0.0571 -0.2064
   77SOPE  H12R 6866   4.903   1.367   5.083  0.8226  0.2014  0.9800
   77SOPE  H12S 6867   4.816   1.248   5.188 -0.8193  1.0506 -0.7989
   77SOPE  C213 6868   4.852   1.187   4.971  0.7631 -0.1615  0.1807
   77SOPE  H13R 6869   4.753   1.226   4.941  1.2103  0.4112 -0.5897
   77SOPE  H13S 6870   4.873   1.078   4.981  0.1409 -0.2171  0.9616
   77SOPE  C214 6871   4.954   1.218   4.853  0.0556 -0.2197 -0.2750
   77SOPE  H14R 6872   5.046   1.156   4.849  1.7070  2.1424 -1.0922
   77SOPE  H14S 6873   4.978   1.327   4.845  1.8673 -0.5345  0.3597
   77SOPE  C215 6874   4.879   1.183   4.726  0.5391  0.7775 -0.0610
   77SOPE  H15R 6875   4.773   1.218   4.727  0.6117  0.9963  1.1630
   77SOPE  H15S 6876   4.882   1.072   4.718 -1.6777  0.7201 -0.9680
   77SOPE  C216 6877   4.949   1.207   4.587  0.5142 -0.1414 -0.3637
   77SOPE  H16R 6878   5.038   1.141   4.596  0.1568 -0.4334  1.3509
   77SOPE  H16S 6879   4.987   1.310   4.600  0.2038  0.0103 -0.6345
   77SOPE  C217 6880   4.854   1.197   4.472  0.2017 -0.0338  0.1123
   77SOPE  H17R 6881   4.913   1.209   4.378  0.9173 -0.2859  0.5247
   77SOPE  H17S 6882   4.783   1.283   4.470  0.2062 -0.0238  0.4099
   77SOPE  C218 6883   4.774   1.064   4.455 -0.3698 -0.8572  0.5243
   77SOPE  H18R 6884   4.716   1.047   4.548 -2.0220 -1.7085 -0.6083
   77SOPE  H18S 6885   4.841   0.978   4.435 -1.0975 -1.5059  0.8309
   77SOPE  H18T 6886   4.694   1.073   4.377  0.5541  1.4793 -0.2259
   77SOPE   C33 6887   4.669   0.232   5.703  0.1815 -0.1921 -0.0881
   77SOPE   H3X 6888   4.692   0.336   5.736 -0.0178 -0.3367  0.5169
   77SOPE   H3Y 6889   4.560   0.227   5.683  0.3085  0.4179 -1.0167
   77SOPE   C34 6890   4.725   0.204   5.559  0.4247 -0.8816 -0.1373
   77SOPE   H4X 6891   4.666   0.277   5.500 -0.4724  0.2525  2.0526
   77SOPE   H4Y 6892   4.693   0.102   5.531 -0.9787 -0.5676  0.2586
   77SOPE   C35 6893   4.880   0.238   5.542  0.9760 -0.6009  0.2904
   77SOPE   H5X 6894   4.946   0.155   5.575  1.3764 -0.3874  0.0460
   77SOPE   H5Y 6895   4.891   0.321   5.615  0.9603 -1.1183  0.8892
   77SOPE   C36 6896   4.926   0.300   5.410  0.4792  0.2439  0.0752
   77SOPE   H6X 6897   4.935   0.224   5.329  0.4519 -0.8207  1.0498
   77SOPE   H6Y 6898   5.032   0.322   5.433  0.3519 -1.0102  2.0583
   77SOPE   C37 6899   4.858   0.436   5.366  0.0996 -0.3646 -0.0331
   77SOPE   H7X 6900   4.905   0.517   5.427  3.0589 -1.3774 -0.7890
   77SOPE   H7Y 6901   4.748   0.427   5.376 -0.3087  0.5624 -3.0087
   77SOPE   C38 6902   4.880   0.458   5.218  1.0917 -0.4686  0.0516
   77SOPE   H8X 6903   4.830   0.379   5.158  0.1935 -1.0638  1.5160
   77SOPE   H8Y 6904   4.991   0.460   5.218  1.1580 -2.0441 -1.4661
   77SOPE   C39 6905   4.831   0.600   5.170 -0.0765  0.8282  0.0319
   77SOPE   H9X 6906   4.884   0.677   5.231  0.9239  1.0671 -1.1134
   77SOPE   H9Y 6907   4.721   0.616   5.176  0.1785  2.6512  0.3726
   77SOPE  C310 6908   4.877   0.620   5.022  1.0301  0.0842 -0.5817
   77SOPE  H10X 6909   4.829   0.538   4.964 -0.1724 -1.5629  2.5056
   77SOPE  H10Y 6910   4.985   0.597   5.031  1.0861  1.1052  3.7044
   77SOPE  C311 6911   4.851   0.753   4.961  0.5451 -0.3364  0.3501
   77SOPE  H11X 6912   4.889   0.836   5.025  2.4432  0.5455 -1.7697
   77SOPE  H11Y 6913   4.742   0.770   4.953  0.3784 -1.5604 -0.0696
   77SOPE  C312 6914   4.894   0.766   4.813  0.2933 -0.1677  0.0228
   77SOPE  H12X 6915   4.840   0.856   4.777 -1.0807 -1.1259 -0.3816
   77SOPE  H12Y 6916   4.865   0.678   4.752 -1.8999  0.5475 -0.0365
   77SOPE  C313 6917   5.042   0.798   4.805 -0.4075  0.4818  0.0016
   77SOPE  H13X 6918   5.103   0.711   4.838 -1.9112 -0.5559  0.1089
   77SOPE  H13Y 6919   5.075   0.888   4.862  1.2151  0.9803 -1.6251
   77SOPE  C314 6920   5.078   0.831   4.660  0.6760 -0.1603  1.4256
   77SOPE  H14X 6921   5.021   0.913   4.612 -0.1718 -1.8227 -0.5379
   77SOPE  H14Y 6922   5.051   0.740   4.602  2.6805 -0.6646  1.2126
   77SOPE  C315 6923   5.223   0.861   4.633  0.1843 -0.2158 -0.1753
   77SOPE  H15X 6924   5.278   0.779   4.684 -1.2740 -1.3954 -0.4678
   77SOPE  H15Y 6925   5.250   0.963   4.670 -0.2075 -0.5905  1.1852
   77SOPE  C316 6926   5.247   0.855   4.480  0.1186  0.2392  0.1019
   77SOPE  H16X 6927   5.204   0.948   4.440 -0.8893 -0.6424 -0.9269
   77SOPE  H16Y 6928   5.192   0.769   4.436  1.6723 -0.1417 -1.2176
   77SOPE  C317 6929   5.394   0.841   4.430 -0.1159 -0.3277 -0.6125
   77SOPE  H17X 6930   5.399   0.876   4.325 -2.2326  1.7222 -0.1243
   77SOPE  H17Y 6931   5.430   0.736   4.428 -1.1022 -0.6728 -2.1987
   77SOPE  C318 6932   5.489   0.928   4.510 -0.0086  0.5967 -0.2954
   77SOPE  H18X 6933   5.591   0.905   4.473  1.0485  1.0496  2.1510
   77SOPE  H18Y 6934   5.494   0.900   4.618  1.5208  0.5613 -0.3468
   77SOPE  H18Z 6935   5.463   1.034   4.490 -0.1371  0.4240 -1.0576
   78SOPE     N 6936   5.904   6.353   6.256 -0.7198  0.2065 -0.1711
   78SOPE   HN1 6937   6.002   6.386   6.240  0.2451 -2.1368  0.5022
   78SOPE   HN2 6938   5.832   6.411   6.209  0.1399  0.3384 -1.3969
   78SOPE   HN3 6939   5.887   6.348   6.358 -0.7238 -1.9948 -0.2395
   78SOPE   C12 6940   5.903   6.212   6.202  0.3469  0.1234  0.1620
   78SOPE  H12A 6941   5.946   6.142   6.277 -0.2926  0.9573  1.3511
   78SOPE  H12B 6942   5.959   6.202   6.107 -0.1352 -0.5204 -0.0634
   78SOPE   C11 6943   5.759   6.162   6.174 -0.2800 -0.2954  0.7846
   78SOPE  H11A 6944   5.774   6.055   6.148 -0.8030 -0.6173  1.7262
   78SOPE  H11B 6945   5.707   6.212   6.090  1.2952 -0.6175 -0.4242
   78SOPE     P 6946   5.532   6.111   6.292 -0.0309  0.0888 -0.2735
   78SOPE   O13 6947   5.461   6.216   6.364 -0.1670 -0.4064 -0.0623
   78SOPE   O14 6948   5.519   5.974   6.347 -0.7149  0.9475 -0.2490
   78SOPE   O12 6949   5.684   6.157   6.299  0.1644  0.1962  0.6118
   78SOPE   O11 6950   5.498   6.115   6.135 -0.0097  0.2588  0.1596
   78SOPE    C1 6951   5.401   6.208   6.080 -0.3075  0.0407 -0.3434
   78SOPE    HA 6952   5.443   6.308   6.103 -0.8654  0.1799  0.0964
   78SOPE    HB 6953   5.307   6.216   6.139  0.6992  2.1636  1.1239
   78SOPE    C2 6954   5.390   6.198   5.924 -0.2744  0.0331  0.5251
   78SOPE    HS 6955   5.309   6.271   5.905 -1.1404 -0.8097  0.8694
   78SOPE   O21 6956   5.349   6.071   5.867  0.5199  0.4800 -0.8328
   78SOPE   C21 6957   5.259   6.000   5.938 -0.4244 -0.8040  0.4855
   78SOPE   O22 6958   5.191   6.032   6.032  0.3467  0.0456  0.6321
   78SOPE   C22 6959   5.244   5.869   5.865 -0.0454 -0.8781 -0.7723
   78SOPE   H2R 6960   5.274   5.786   5.933 -1.2007 -0.5790  0.1491
   78SOPE   H2S 6961   5.307   5.863   5.774  0.3633  0.3665 -0.5937
   78SOPE    C3 6962   5.510   6.259   5.849  0.2217  0.6029  0.5012
   78SOPE    HX 6963   5.586   6.178   5.851  0.3177  0.4754 -2.8561
   78SOPE    HY 6964   5.544   6.349   5.905  1.5916  0.2111  0.3367
   78SOPE   O31 6965   5.483   6.280   5.707 -0.2740 -0.6259  0.2960
   78SOPE   C31 6966   5.574   6.243   5.615  0.9215  0.2464  0.4201
   78SOPE   O32 6967   5.687   6.202   5.636 -0.0915  0.6009  0.0784
   78SOPE   C32 6968   5.518   6.275   5.476  0.7107  0.5605  0.3328
   78SOPE   H2X 6969   5.502   6.384   5.466 -1.3873  0.1660 -1.2418
   78SOPE   H2Y 6970   5.419   6.225   5.467  0.6851  0.4333  1.2126
   78SOPE   C23 6971   5.103   5.845   5.818  0.0631  0.3088 -0.1156
   78SOPE   H3R 6972   5.027   5.853   5.899 -1.1968  1.0244 -1.3271
   78SOPE   H3S 6973   5.103   5.744   5.772 -1.8319  0.9546 -1.6688
   78SOPE   C24 6974   5.051   5.925   5.700  0.6121 -0.3390  0.5618
   78SOPE   H4R 6975   5.061   6.032   5.726  2.4114 -0.2822 -0.1662
   78SOPE   H4S 6976   5.115   5.893   5.614  0.6430  1.7220 -0.2404
   78SOPE   C25 6977   4.902   5.893   5.649 -0.1392 -0.4035 -0.5727
   78SOPE   H5R 6978   4.887   5.786   5.623 -0.9575 -0.4632  0.1062
   78SOPE   H5S 6979   4.827   5.915   5.727 -0.5080  1.9014 -1.4642
   78SOPE   C26 6980   4.865   5.979   5.535 -0.3384  0.0319 -0.1302
   78SOPE   H6R 6981   4.850   6.084   5.571  0.2708  0.4987 -1.2014
   78SOPE   H6S 6982   4.945   5.965   5.460 -1.8999  0.7954 -2.0443
   78SOPE   C27 6983   4.739   5.941   5.460  0.9320 -0.1571  0.4237
   78SOPE   H7R 6984   4.737   5.831   5.445  0.0778 -0.0433 -0.4284
   78SOPE   H7S 6985   4.642   5.967   5.509  1.0993  1.3949 -0.0337
   78SOPE   C28 6986   4.742   6.011   5.318 -0.7196  0.2357 -0.0731
   78SOPE   H8R 6987   4.842   6.001   5.269 -1.3599 -0.2031 -1.3397
   78SOPE   H8S 6988   4.676   5.960   5.245 -0.1805 -1.1118  0.3400
   78SOPE   C29 6989   4.715   6.162   5.325 -0.0890 -0.1525 -0.3624
   78SOPE   H91 6990   4.771   6.224   5.397  1.8862  0.2879 -2.1733
   78SOPE  C210 6991   4.639   6.233   5.237  0.6359  0.1980 -1.2861
   78SOPE  H101 6992   4.627   6.342   5.247  0.3432  0.3066 -2.5955
   78SOPE  C211 6993   4.559   6.178   5.124  0.9429 -0.4572  0.1014
   78SOPE  H11R 6994   4.462   6.230   5.138  1.6129  0.3109  2.3238
   78SOPE  H11S 6995   4.548   6.070   5.149  0.6767 -0.3867  0.2946
   78SOPE  C212 6996   4.610   6.183   4.975  0.8279  0.3380  0.6727
   78SOPE  H12R 6997   4.545   6.120   4.910  0.7084  1.5884 -0.4628
   78SOPE  H12S 6998   4.705   6.127   4.980  0.8838  0.3863  0.1527
   78SOPE  C213 6999   4.620   6.329   4.920  0.3278 -0.2240 -0.1943
   78SOPE  H13R 7000   4.663   6.329   4.817 -0.8805  0.7042 -0.7316
   78SOPE  H13S 7001   4.690   6.387   4.983 -2.3326  1.4604  1.4087
   78SOPE  C214 7002   4.488   6.410   4.926 -0.6802 -0.0189  0.2702
   78SOPE  H14R 7003   4.446   6.422   5.029  1.9916 -2.4280  1.7795
   78SOPE  H14S 7004   4.411   6.360   4.864  0.4354  0.4381 -1.5386
   78SOPE  C215 7005   4.506   6.542   4.846  0.2881 -0.4568  0.3176
   78SOPE  H15R 7006   4.526   6.506   4.743  1.4143 -0.7207  0.6143
   78SOPE  H15S 7007   4.592   6.610   4.865 -0.3674  0.4307  0.2054
   78SOPE  C216 7008   4.388   6.642   4.859 -0.3355 -0.3877  0.2465
   78SOPE  H16R 7009   4.375   6.673   4.965  2.1170 -0.7917  0.7196
   78SOPE  H16S 7010   4.301   6.576   4.839 -1.3196  0.4874  1.4912
   78SOPE  C217 7011   4.382   6.767   4.774  0.3431  0.2241 -0.1776
   78SOPE  H17R 7012   4.411   6.725   4.675  0.0661  1.6178 -0.8795
   78SOPE  H17S 7013   4.465   6.835   4.804  1.7199  0.2567 -3.5597
   78SOPE  C218 7014   4.246   6.822   4.767 -0.0850 -0.0542  0.4051
   78SOPE  H18R 7015   4.213   6.873   4.860  0.8396 -0.8829  1.2041
   78SOPE  H18S 7016   4.184   6.737   4.732 -0.2880  0.7346 -1.2564
   78SOPE  H18T 7017   4.223   6.892   4.684  1.3617 -0.4546 -0.3707
   78SOPE   C33 7018   5.621   6.239   5.359  0.4117  0.1781 -0.2614
   78SOPE   H3X 7019   5.614   6.130   5.339 -2.2342  0.3643 -0.7825
   78SOPE   H3Y 7020   5.724   6.261   5.392  0.8984  2.8931 -3.0816
   78SOPE   C34 7021   5.593   6.302   5.219  0.4969  0.0031  0.5516
   78SOPE   H4X 7022   5.684   6.286   5.158 -0.4439 -3.2484 -0.1811
   78SOPE   H4Y 7023   5.595   6.407   5.256  1.6617  0.2710 -0.2106
   78SOPE   C35 7024   5.472   6.263   5.137  0.1846  0.4903  0.0952
   78SOPE   H5X 7025   5.459   6.325   5.045  1.7665 -0.0526 -0.5131
   78SOPE   H5Y 7026   5.384   6.291   5.199  0.0372  0.5652 -0.1438
   78SOPE   C36 7027   5.475   6.114   5.097 -0.1938 -0.1923  0.4671
   78SOPE   H6X 7028   5.453   6.047   5.183 -1.4732 -2.1439 -1.2735
   78SOPE   H6Y 7029   5.575   6.082   5.060 -0.1512 -2.0120  1.9770
   78SOPE   C37 7030   5.364   6.075   4.994  0.2402  0.5455 -0.0082
   78SOPE   H7X 7031   5.394   6.114   4.894  1.0167  0.7522  0.2985
   78SOPE   H7Y 7032   5.266   6.121   5.019 -0.7914  1.0107 -4.1387
   78SOPE   C38 7033   5.358   5.923   4.963 -0.2301 -0.3447  0.2638
   78SOPE   H8X 7034   5.346   5.860   5.053  2.0584  0.5775  1.2839
   78SOPE   H8Y 7035   5.459   5.905   4.920 -0.0388  0.0716  0.5280
   78SOPE   C39 7036   5.261   5.905   4.850 -0.1259  0.0281  0.1923
   78SOPE   H9X 7037   5.297   5.966   4.764  0.2037  0.4103  0.5951
   78SOPE   H9Y 7038   5.168   5.964   4.863  0.8966  1.8535 -0.3608
   78SOPE  C310 7039   5.234   5.757   4.812  0.1336 -1.4632  0.4337
   78SOPE  H10X 7040   5.183   5.715   4.902 -2.6292 -0.1244 -0.3872
   78SOPE  H10Y 7041   5.329   5.704   4.791  0.7822  0.1894 -1.0901
   78SOPE  C311 7042   5.145   5.746   4.687 -0.4516  0.2608 -0.2792
   78SOPE  H11X 7043   5.042   5.785   4.696 -0.8993 -0.6339 -1.3253
   78SOPE  H11Y 7044   5.128   5.637   4.679  0.7018  0.0481 -0.0182
   78SOPE  C312 7045   5.214   5.796   4.567  0.7476 -0.9214  0.0776
   78SOPE  H12X 7046   5.324   5.781   4.564  0.8785  0.1015 -1.5347
   78SOPE  H12Y 7047   5.208   5.906   4.556  0.4535 -1.0179 -0.8362
   78SOPE  C313 7048   5.176   5.722   4.440 -0.2013 -0.5278  0.1986
   78SOPE  H13X 7049   5.067   5.704   4.441 -0.0427 -1.9513 -1.5729
   78SOPE  H13Y 7050   5.230   5.625   4.442 -0.8348 -0.8799  0.2733
   78SOPE  C314 7051   5.211   5.772   4.302 -0.6535 -0.5989  0.2603
   78SOPE  H14X 7052   5.183   5.697   4.225  0.0951  0.9020 -1.5513
   78SOPE  H14Y 7053   5.322   5.771   4.305 -0.6776 -1.2415  2.3556
   78SOPE  C315 7054   5.145   5.908   4.280  0.1459  0.4679 -0.2087
   78SOPE  H15X 7055   5.189   5.967   4.364  1.1465 -0.3487 -0.1507
   78SOPE  H15Y 7056   5.035   5.898   4.285 -0.0151  2.2658  1.6269
   78SOPE  C316 7057   5.175   5.975   4.147 -0.4257 -0.5904  0.9183
   78SOPE  H16X 7058   5.138   5.914   4.061  1.6231  0.7148 -0.9840
   78SOPE  H16Y 7059   5.286   5.971   4.152 -0.4533  0.2444  3.3186
   78SOPE  C317 7060   5.140   6.125   4.121  0.7621  0.5590  0.6136
   78SOPE  H17X 7061   5.209   6.150   4.038 -0.0907 -2.0128 -0.9992
   78SOPE  H17Y 7062   5.160   6.192   4.207 -1.2833  2.7917 -0.5044
   78SOPE  C318 7063   5.001   6.158   4.057  0.0223  0.1487 -0.6498
   78SOPE  H18X 7064   4.993   6.266   4.031  0.5788  0.9820  2.2931
   78SOPE  H18Y 7065   4.910   6.142   4.119 -0.7299  1.7100 -1.3076
   78SOPE  H18Z 7066   4.981   6.091   3.970  0.7935  0.7070 -1.2683
   79SOPE     N 7067   6.759   7.117   6.332 -0.0428 -0.3520  0.4179
   79SOPE   HN1 7068   6.690   7.093   6.257  1.1399 -1.1728 -0.4631
   79SOPE   HN2 7069   6.706   7.142   6.418 -0.5885 -0.4720  0.1225
   79SOPE   HN3 7070   6.810   7.202   6.302 -0.6874  0.0398  0.4250
   79SOPE   C12 7071   6.854   7.008   6.351 -1.0874  0.7844  0.1602
   79SOPE  H12A 7072   6.808   6.916   6.394  0.2741 -0.1631 -0.3412
   79SOPE  H12B 7073   6.930   7.038   6.426 -0.8445  2.3028 -0.6704
   79SOPE   C11 7074   6.927   6.977   6.217  0.0942  0.1704 -0.3162
   79SOPE  H11A 7075   6.862   6.937   6.136  0.7144  1.6476 -1.5841
   79SOPE  H11B 7076   6.996   6.897   6.253 -0.5436 -0.5590 -0.6871
   79SOPE     P 7077   7.142   7.082   6.108  0.3683 -0.3401 -0.1217
   79SOPE   O13 7078   7.206   6.970   6.170 -0.3084  0.2570 -0.0659
   79SOPE   O14 7079   7.199   7.222   6.131  0.0806  0.1914  0.3422
   79SOPE   O12 7080   6.995   7.089   6.173 -0.2913  0.3898  0.1951
   79SOPE   O11 7081   7.129   7.058   5.961 -0.1015  0.3029  0.3562
   79SOPE    C1 7082   7.026   6.979   5.896 -0.0999 -0.3546  0.1579
   79SOPE    HA 7083   6.922   7.013   5.916 -0.4991 -1.2984 -0.2820
   79SOPE    HB 7084   7.017   6.875   5.933 -1.3019 -1.1951 -2.2668
   79SOPE    C2 7085   7.058   6.971   5.740 -0.1154 -0.3559 -0.6687
   79SOPE    HS 7086   7.019   6.876   5.699 -1.2733  0.5566 -1.7288
   79SOPE   O21 7087   7.198   6.982   5.715  0.1946 -0.3900 -0.4230
   79SOPE   C21 7088   7.263   6.884   5.764  0.3847  0.1540  0.2115
   79SOPE   O22 7089   7.217   6.781   5.806  0.2126 -0.0437 -0.8897
   79SOPE   C22 7090   7.416   6.909   5.765 -0.1948  0.5112  0.6724
   79SOPE   H2R 7091   7.429   6.963   5.861 -0.6544  3.0767 -0.6250
   79SOPE   H2S 7092   7.432   6.981   5.682  0.3497  0.7861  1.0069
   79SOPE    C3 7093   6.974   7.082   5.673  0.4227  0.6136  0.5386
   79SOPE    HX 7094   6.962   7.181   5.722 -0.1295  1.4365 -1.2029
   79SOPE    HY 7095   6.867   7.056   5.686 -0.0131  3.2616  3.2683
   79SOPE   O31 7096   7.015   7.086   5.536  0.5045 -0.7803 -0.3848
   79SOPE   C31 7097   7.096   7.185   5.505  0.5897 -0.6597 -0.1583
   79SOPE   O32 7098   7.120   7.285   5.575 -0.5744 -0.4417  0.3616
   79SOPE   C32 7099   7.175   7.155   5.379 -0.0043  0.4983  0.1641
   79SOPE   H2X 7100   7.220   7.058   5.410 -0.9458 -0.3354 -0.9994
   79SOPE   H2Y 7101   7.245   7.237   5.355 -1.5928  1.9301  0.2334
   79SOPE   C23 7102   7.512   6.783   5.761  0.5327 -0.8265  0.5597
   79SOPE   H3R 7103   7.473   6.705   5.830 -0.6259 -1.1635 -0.4426
   79SOPE   H3S 7104   7.609   6.824   5.797 -0.0815  1.3325 -0.1130
   79SOPE   C24 7105   7.521   6.716   5.623  0.5719  0.2664  1.0444
   79SOPE   H4R 7106   7.419   6.679   5.598  0.1398  1.2433  1.2768
   79SOPE   H4S 7107   7.544   6.789   5.543 -1.2766  0.6093  0.7722
   79SOPE   C25 7108   7.612   6.588   5.627 -0.4676  0.1306 -0.0650
   79SOPE   H5R 7109   7.720   6.601   5.647 -0.5005 -1.0163  1.0141
   79SOPE   H5S 7110   7.570   6.531   5.713 -2.8026  3.9256  1.5483
   79SOPE   C26 7111   7.596   6.515   5.492  0.1254  0.5081  0.6734
   79SOPE   H6R 7112   7.488   6.505   5.471  0.3559 -0.8264  0.0369
   79SOPE   H6S 7113   7.635   6.589   5.418 -1.2619  1.1349  0.5367
   79SOPE   C27 7114   7.672   6.378   5.482  0.3838 -0.0804 -0.1946
   79SOPE   H7R 7115   7.777   6.389   5.518 -0.5994  0.3384  2.8131
   79SOPE   H7S 7116   7.622   6.304   5.548 -2.2748  0.3135 -1.6580
   79SOPE   C28 7117   7.691   6.332   5.332  0.7219 -0.3762  0.4324
   79SOPE   H8R 7118   7.590   6.298   5.301  1.7135 -3.0681 -0.1257
   79SOPE   H8S 7119   7.725   6.423   5.278 -0.7448 -0.3143 -0.4313
   79SOPE   C29 7120   7.788   6.216   5.319 -0.3192  0.1436 -0.2239
   79SOPE   H91 7121   7.845   6.180   5.406 -1.5606  2.7024  1.7867
   79SOPE  C210 7122   7.802   6.142   5.202 -0.3664 -0.3275 -0.4818
   79SOPE  H101 7123   7.878   6.063   5.201 -0.8080 -0.7545 -0.3907
   79SOPE  C211 7124   7.733   6.176   5.074  0.7518 -0.1805 -0.1067
   79SOPE  H11R 7125   7.640   6.233   5.098  1.5431  0.1722  2.4136
   79SOPE  H11S 7126   7.698   6.088   5.017  0.1715  1.4958 -2.5208
   79SOPE  C212 7127   7.821   6.248   4.970 -0.2871  0.3837  0.0164
   79SOPE  H12R 7128   7.882   6.324   5.024 -0.3808  1.3515 -1.1988
   79SOPE  H12S 7129   7.749   6.296   4.901 -0.4173  0.1588 -0.0058
   79SOPE  C213 7130   7.926   6.154   4.898  0.6401  0.3617 -0.4752
   79SOPE  H13R 7131   7.882   6.087   4.822 -0.6412  0.5987  0.0358
   79SOPE  H13S 7132   7.969   6.083   4.971 -0.8218 -1.5209 -1.3763
   79SOPE  C214 7133   8.031   6.235   4.828 -0.5998  0.1214  0.6839
   79SOPE  H14R 7134   8.102   6.171   4.771 -1.6697  0.8376 -1.5567
   79SOPE  H14S 7135   8.085   6.297   4.904 -1.1415 -0.2017  1.3474
   79SOPE  C215 7136   7.976   6.328   4.714 -0.0567 -0.7885 -0.4990
   79SOPE  H15R 7137   8.060   6.379   4.662 -1.3961  1.5875 -0.4735
   79SOPE  H15S 7138   7.919   6.416   4.749  2.6585  0.0293  2.3430
   79SOPE  C216 7139   7.909   6.250   4.603 -0.4147  0.6945 -0.2867
   79SOPE  H16R 7140   7.815   6.208   4.645 -1.4627  2.6155 -0.5748
   79SOPE  H16S 7141   7.963   6.157   4.578 -1.5054 -0.1706  0.4692
   79SOPE  C217 7142   7.877   6.343   4.480  0.4306 -0.4860 -0.1122
   79SOPE  H17R 7143   7.970   6.386   4.437  0.2708 -1.4285 -1.4234
   79SOPE  H17S 7144   7.819   6.433   4.511  0.6840  0.4818 -2.3105
   79SOPE  C218 7145   7.794   6.268   4.382  0.4292  0.5605  0.8285
   79SOPE  H18R 7146   7.854   6.208   4.311 -0.6990 -0.9620  1.0924
   79SOPE  H18S 7147   7.730   6.335   4.321  0.3555 -0.8763 -0.7564
   79SOPE  H18T 7148   7.717   6.205   4.432 -0.0248  2.2765  2.3667
   79SOPE   C33 7149   7.085   7.107   5.260 -0.0625 -0.7962 -0.3020
   79SOPE   H3X 7150   7.027   7.018   5.293 -2.7984  0.7702 -0.6862
   79SOPE   H3Y 7151   7.148   7.071   5.175 -1.3722 -1.5267 -0.9874
   79SOPE   C34 7152   6.987   7.210   5.199 -0.6916 -0.0581  0.1728
   79SOPE   H4X 7153   6.929   7.256   5.282  0.3670  2.5768 -0.4752
   79SOPE   H4Y 7154   6.916   7.164   5.126 -3.3035  1.6467  1.4839
   79SOPE   C35 7155   7.063   7.326   5.126 -0.0817  0.3109  1.3481
   79SOPE   H5X 7156   7.013   7.350   5.029  0.1818  1.1093  1.4038
   79SOPE   H5Y 7157   7.156   7.282   5.084  0.7607  2.3058  1.0606
   79SOPE   C36 7158   7.094   7.447   5.206 -0.5610 -0.0041 -0.0771
   79SOPE   H6X 7159   7.138   7.420   5.304 -0.0016  2.0326  0.2901
   79SOPE   H6Y 7160   6.996   7.498   5.214 -1.1516 -0.9243 -1.1809
   79SOPE   C37 7161   7.203   7.539   5.150 -0.8324 -0.6589  0.1478
   79SOPE   H7X 7162   7.304   7.492   5.152  0.0944  1.1393  2.9526
   79SOPE   H7Y 7163   7.209   7.626   5.219 -3.0412 -0.0674 -0.3394
   79SOPE   C38 7164   7.181   7.603   5.012  0.5178 -0.3944  0.2608
   79SOPE   H8X 7165   7.089   7.665   5.013 -0.1214 -1.3172 -0.5406
   79SOPE   H8Y 7166   7.167   7.523   4.937 -0.3001  0.5573 -0.6272
   79SOPE   C39 7167   7.298   7.692   4.959 -1.2075  0.2403 -0.0720
   79SOPE   H9X 7168   7.324   7.772   5.032  0.5221  0.0913 -0.4911
   79SOPE   H9Y 7169   7.265   7.743   4.866 -0.8069 -0.1925 -0.4534
   79SOPE  C310 7170   7.433   7.621   4.922  0.1149  0.3509 -0.1244
   79SOPE  H10X 7171   7.456   7.547   5.002  1.0845 -1.5264 -2.0550
   79SOPE  H10Y 7172   7.517   7.693   4.914  1.5727 -1.1033  1.5139
   79SOPE  C311 7173   7.435   7.554   4.784  0.0705  0.1677 -0.3413
   79SOPE  H11X 7174   7.400   7.633   4.715  0.1602  1.8396  1.4595
   79SOPE  H11Y 7175   7.376   7.460   4.774 -1.0242  1.0551 -3.6630
   79SOPE  C312 7176   7.577   7.511   4.759  0.6465  0.2917  0.1024
   79SOPE  H12X 7177   7.608   7.460   4.852 -4.3452  1.1532  2.6096
   79SOPE  H12Y 7178   7.630   7.609   4.763  1.5612 -0.0732 -1.8308
   79SOPE  C313 7179   7.606   7.438   4.630  0.7723  0.6715 -0.0805
   79SOPE  H13X 7180   7.527   7.363   4.606  0.4256  0.0986  2.4965
   79SOPE  H13Y 7181   7.693   7.370   4.638  0.7049  0.4619 -0.9681
   79SOPE  C314 7182   7.614   7.518   4.503  0.3803 -0.1822  0.1744
   79SOPE  H14X 7183   7.680   7.606   4.515  0.8241 -0.6640  1.3620
   79SOPE  H14Y 7184   7.513   7.543   4.463  0.2078 -0.8361  0.1827
   79SOPE  C315 7185   7.683   7.437   4.395 -0.4081 -0.6771  0.3462
   79SOPE  H15X 7186   7.618   7.355   4.358  0.7520 -1.1962 -0.5867
   79SOPE  H15Y 7187   7.781   7.395   4.425  0.4759  1.4338  0.6486
   79SOPE  C316 7188   7.716   7.530   4.277  0.0191  0.7290 -0.1083
   79SOPE  H16X 7189   7.751   7.633   4.300  2.2334 -0.0357  0.1541
   79SOPE  H16Y 7190   7.633   7.552   4.206 -0.3794 -0.8227 -0.1698
   79SOPE  C317 7191   7.812   7.470   4.179 -0.4093 -0.6717  0.5783
   79SOPE  H17X 7192   7.786   7.501   4.075 -0.8735 -0.9451  0.6092
   79SOPE  H17Y 7193   7.791   7.361   4.190  0.7885 -0.7496  2.6215
   79SOPE  C318 7194   7.960   7.491   4.217 -0.3628 -0.1077  0.3048
   79SOPE  H18X 7195   7.992   7.596   4.200 -0.9425  0.0985  0.4574
   79SOPE  H18Y 7196   8.027   7.420   4.163  1.3725  0.5701  1.4910
   79SOPE  H18Z 7197   7.978   7.468   4.324 -0.2750  1.8657  0.7458
   80SOPE     N 7198   2.385   0.837   6.939 -0.0508  0.1439 -0.6924
   80SOPE   HN1 7199   2.472   0.782   6.956 -0.6948 -1.4517 -2.3071
   80SOPE   HN2 7200   2.398   0.939   6.955  1.6103 -0.3510  1.6733
   80SOPE   HN3 7201   2.306   0.805   6.999  1.4968 -0.1262  1.3368
   80SOPE   C12 7202   2.347   0.817   6.801 -0.2003 -0.1233  0.2279
   80SOPE  H12A 7203   2.274   0.896   6.774  0.7220 -0.2020 -2.8311
   80SOPE  H12B 7204   2.287   0.723   6.801 -0.7018  0.1878  1.1774
   80SOPE   C11 7205   2.475   0.821   6.714  0.6692  0.2742 -1.2253
   80SOPE  H11A 7206   2.537   0.912   6.730 -0.0127  0.9440 -2.2715
   80SOPE  H11B 7207   2.432   0.820   6.612 -0.0952 -0.7997 -0.9120
   80SOPE     P 7208   2.704   0.689   6.676 -0.2086 -0.0438  0.2946
   80SOPE   O13 7209   2.704   0.563   6.599  0.0819  0.4506 -0.2126
   80SOPE   O14 7210   2.795   0.700   6.788 -0.4090 -0.8580  0.1263
   80SOPE   O12 7211   2.561   0.703   6.741 -0.0409  0.3415 -0.5900
   80SOPE   O11 7212   2.715   0.816   6.591  0.5355 -0.1509 -0.6171
   80SOPE    C1 7213   2.841   0.868   6.550 -0.1092 -0.4760 -0.2153
   80SOPE    HA 7214   2.927   0.821   6.601  1.1130  1.4635 -0.3556
   80SOPE    HB 7215   2.842   0.977   6.576  1.8193  0.6782 -4.2630
   80SOPE    C2 7216   2.842   0.866   6.394  0.2375 -0.5879  1.0334
   80SOPE    HS 7217   2.903   0.952   6.358  2.1801 -1.7241  1.4384
   80SOPE   O21 7218   2.711   0.866   6.335  0.2266  0.9846  0.0785
   80SOPE   C21 7219   2.645   0.984   6.348 -0.5104 -0.3075  0.4042
   80SOPE   O22 7220   2.681   1.080   6.410  0.2494 -0.8293 -0.9297
   80SOPE   C22 7221   2.517   0.976   6.274  0.3962 -0.8088  0.2435
   80SOPE   H2R 7222   2.442   1.001   6.352 -1.7021  0.2148 -1.9899
   80SOPE   H2S 7223   2.493   0.872   6.245  0.7163 -0.8095 -0.0294
   80SOPE    C3 7224   2.911   0.741   6.346 -0.3008 -0.1255 -0.2637
   80SOPE    HX 7225   2.848   0.659   6.388  0.5688  0.2098  1.8097
   80SOPE    HY 7226   3.010   0.723   6.392 -0.6301  0.9781  0.9308
   80SOPE   O31 7227   2.918   0.749   6.201  0.4124 -0.2248  0.5267
   80SOPE   C31 7228   2.833   0.671   6.137 -0.1920  0.8047  0.3035
   80SOPE   O32 7229   2.773   0.580   6.194  0.0591  0.2568  0.0682
   80SOPE   C32 7230   2.796   0.724   5.992 -0.5036  0.3832 -1.1269
   80SOPE   H2X 7231   2.871   0.801   5.965  1.0568 -0.6393  0.0647
   80SOPE   H2Y 7232   2.690   0.754   5.988 -0.6508  0.2016  0.5104
   80SOPE   C23 7233   2.493   1.068   6.153 -0.1439  0.1724 -0.0002
   80SOPE   H3R 7234   2.534   1.168   6.180 -1.6799  0.3578  1.8435
   80SOPE   H3S 7235   2.385   1.076   6.131 -0.2079 -0.6096  0.0226
   80SOPE   C24 7236   2.563   1.014   6.030 -0.0580  0.1629  0.6471
   80SOPE   H4R 7237   2.673   1.032   6.031  0.2004 -1.3340  0.9054
   80SOPE   H4S 7238   2.552   0.904   6.035  0.9475  0.0913  1.7553
   80SOPE   C25 7239   2.514   1.068   5.897  0.2045 -0.3128  0.4176
   80SOPE   H5R 7240   2.412   1.112   5.903  0.8388  1.9086 -2.6620
   80SOPE   H5S 7241   2.580   1.146   5.853  2.2602 -1.8713  0.5645
   80SOPE   C26 7242   2.517   0.951   5.797  0.0351 -0.2399 -0.0405
   80SOPE   H6R 7243   2.618   0.909   5.776  0.5278  1.0024 -0.2292
   80SOPE   H6S 7244   2.442   0.879   5.836  0.6791 -0.6596  0.4348
   80SOPE   C27 7245   2.462   0.995   5.657  0.3999  0.1704  0.6251
   80SOPE   H7R 7246   2.399   1.085   5.673  1.1920  0.8356  0.1244
   80SOPE   H7S 7247   2.554   1.027   5.604  0.7280  0.5274  1.3927
   80SOPE   C28 7248   2.380   0.887   5.584  0.3056  0.2674  0.3211
   80SOPE   H8R 7249   2.319   0.836   5.661  0.6477 -2.4927 -1.1141
   80SOPE   H8S 7250   2.314   0.940   5.512 -1.8219  4.4816  4.7741
   80SOPE   C29 7251   2.469   0.791   5.517  0.5193  0.0743 -0.6219
   80SOPE   H91 7252   2.522   0.723   5.586  0.8753  0.8816 -0.0894
   80SOPE  C210 7253   2.476   0.783   5.384 -0.2766 -0.5601  0.2121
   80SOPE  H101 7254   2.544   0.706   5.344 -0.4168  0.4631 -2.1541
   80SOPE  C211 7255   2.410   0.867   5.277  0.0401 -0.3902 -0.4571
   80SOPE  H11R 7256   2.473   0.892   5.189  0.2302  0.2489 -0.1446
   80SOPE  H11S 7257   2.396   0.969   5.317  2.1931  0.7860 -2.4927
   80SOPE  C212 7258   2.262   0.822   5.230  0.1466 -0.0370 -0.0811
   80SOPE  H12R 7259   2.233   0.900   5.157  1.9154 -0.8704 -1.7631
   80SOPE  H12S 7260   2.193   0.822   5.317  1.1537  0.3329  0.7337
   80SOPE  C213 7261   2.260   0.691   5.155 -0.0029 -0.0983 -0.3043
   80SOPE  H13R 7262   2.155   0.657   5.160  0.6377 -2.0979  0.7760
   80SOPE  H13S 7263   2.297   0.608   5.220 -2.8277 -1.7776 -0.7039
   80SOPE  C214 7264   2.306   0.690   5.011 -0.5547 -0.2176  0.1863
   80SOPE  H14R 7265   2.390   0.761   4.998  1.0626 -2.1030 -0.0401
   80SOPE  H14S 7266   2.217   0.721   4.952 -0.8184 -1.5158 -0.1382
   80SOPE  C215 7267   2.355   0.553   4.975 -0.1805 -0.0537 -0.0867
   80SOPE  H15R 7268   2.278   0.476   4.999  0.1659 -0.8003 -1.2765
   80SOPE  H15S 7269   2.448   0.530   5.032 -1.7132 -2.4520  1.6351
   80SOPE  C216 7270   2.381   0.545   4.823  0.3485 -0.4395  0.0025
   80SOPE  H16R 7271   2.438   0.638   4.803  0.2502 -0.1875  0.8398
   80SOPE  H16S 7272   2.283   0.551   4.771 -0.4110 -1.9010  1.1773
   80SOPE  C217 7273   2.453   0.415   4.781  0.4985 -0.5264  0.2964
   80SOPE  H17R 7274   2.398   0.320   4.798 -0.4914 -0.1784 -0.8575
   80SOPE  H17S 7275   2.554   0.413   4.826  0.6757 -0.5960 -0.1029
   80SOPE  C218 7276   2.481   0.416   4.633 -0.1355  0.1773  0.6109
   80SOPE  H18R 7277   2.550   0.499   4.607  1.6514 -1.0145  1.3717
   80SOPE  H18S 7278   2.390   0.430   4.571  2.2208  1.8221 -2.7960
   80SOPE  H18T 7279   2.528   0.323   4.596  1.4385  0.4602  1.7697
   80SOPE   C33 7280   2.820   0.602   5.901 -0.3505  0.4144 -0.0544
   80SOPE   H3X 7281   2.748   0.522   5.927 -0.0154  1.0104  3.2645
   80SOPE   H3Y 7282   2.926   0.575   5.923 -0.6718 -0.9822 -0.1560
   80SOPE   C34 7283   2.784   0.640   5.761 -0.1863 -0.6392  0.0787
   80SOPE   H4X 7284   2.840   0.727   5.720  0.7952 -1.9897 -1.5510
   80SOPE   H4Y 7285   2.675   0.664   5.753 -0.1367 -0.7934 -1.3407
   80SOPE   C35 7286   2.810   0.530   5.653  0.5249 -0.1428 -0.1842
   80SOPE   H5X 7287   2.735   0.451   5.673 -0.9889  1.1803 -0.3535
   80SOPE   H5Y 7288   2.914   0.491   5.650  0.8018  0.6043 -1.9860
   80SOPE   C36 7289   2.782   0.572   5.508  0.0740 -0.3904  0.5414
   80SOPE   H6X 7290   2.790   0.683   5.505 -3.2135 -0.0537  0.8622
   80SOPE   H6Y 7291   2.687   0.535   5.464  0.8389 -0.1247 -1.4738
   80SOPE   C37 7292   2.881   0.504   5.405 -0.4762 -1.0533  0.0887
   80SOPE   H7X 7293   2.861   0.395   5.391 -1.1532 -0.8379 -0.6626
   80SOPE   H7Y 7294   2.986   0.522   5.439 -0.6108  3.1365 -1.1659
   80SOPE   C38 7295   2.880   0.557   5.262  0.0852  0.0394  0.8442
   80SOPE   H8X 7296   2.982   0.535   5.224  0.4004  1.0997  1.0421
   80SOPE   H8Y 7297   2.866   0.667   5.250 -1.2508 -0.3683 -2.1450
   80SOPE   C39 7298   2.778   0.488   5.179  0.0216  0.1382  0.4915
   80SOPE   H9X 7299   2.676   0.514   5.213 -0.1359 -0.1922  0.2824
   80SOPE   H9Y 7300   2.788   0.378   5.195  2.5011  0.3831  0.9788
   80SOPE  C310 7301   2.778   0.514   5.024  0.3208  0.6842  0.0657
   80SOPE  H10X 7302   2.698   0.451   4.978 -1.6068  3.3618 -0.4876
   80SOPE  H10Y 7303   2.874   0.478   4.984  0.4272  0.7351  0.2730
   80SOPE  C311 7304   2.745   0.659   4.991  0.6421 -0.1635  0.2770
   80SOPE  H11X 7305   2.802   0.733   5.052 -0.7310  1.3381 -0.1996
   80SOPE  H11Y 7306   2.646   0.687   5.031  0.1602 -1.3064 -0.0821
   80SOPE  C312 7307   2.741   0.682   4.846 -0.6121  0.6387  0.9983
   80SOPE  H12X 7308   2.656   0.618   4.815  0.0082 -0.0959  0.7850
   80SOPE  H12Y 7309   2.833   0.638   4.800  0.2591  0.3689  2.8877
   80SOPE  C313 7310   2.715   0.826   4.809 -0.8371  0.2666  0.7543
   80SOPE  H13X 7311   2.808   0.882   4.831  0.3125 -0.8245 -1.0795
   80SOPE  H13Y 7312   2.626   0.862   4.865 -0.0433  1.9073  1.0304
   80SOPE  C314 7313   2.690   0.822   4.654 -0.0316 -1.0003  0.1501
   80SOPE  H14X 7314   2.601   0.757   4.640 -0.1082 -0.7698 -0.4522
   80SOPE  H14Y 7315   2.779   0.786   4.598 -0.7264 -1.5610 -0.6297
   80SOPE  C315 7316   2.651   0.964   4.603 -0.4947 -0.2887 -0.3834
   80SOPE  H15X 7317   2.732   1.039   4.619  0.0818 -1.3554  2.3757
   80SOPE  H15Y 7318   2.567   1.012   4.657 -0.0480 -0.6645  0.6783
   80SOPE  C316 7319   2.624   0.953   4.453  0.0259 -0.1038 -0.3685
   80SOPE  H16X 7320   2.700   0.889   4.403  0.6080  1.0593 -1.0120
   80SOPE  H16Y 7321   2.641   1.057   4.417  1.7572 -0.4711 -0.7031
   80SOPE  C317 7322   2.479   0.907   4.419  0.7725  0.1180  0.1030
   80SOPE  H17X 7323   2.401   0.979   4.453 -0.1585 -0.4634 -0.7355
   80SOPE  H17Y 7324   2.456   0.805   4.456  1.1976  0.0740  0.2425
   80SOPE  C318 7325   2.453   0.875   4.264 -0.9733  0.2443 -0.0769
   80SOPE  H18X 7326   2.524   0.801   4.222  0.5781  1.9427 -0.5462
   80SOPE  H18Y 7327   2.467   0.970   4.209  1.9221  0.1462  0.3380
   80SOPE  H18Z 7328   2.353   0.831   4.242 -0.9486  0.1694 -0.0402
   81SOPE     N 7329   6.609   5.935   5.996  0.5054 -0.2971 -0.2844
   81SOPE   HN1 7330   6.592   5.997   5.914  0.4018 -0.6917 -0.5635
   81SOPE   HN2 7331   6.707   5.963   6.019 -0.3741  1.8912  1.0785
   81SOPE   HN3 7332   6.602   5.836   5.966 -1.5177  0.0408 -1.0725
   81SOPE   C12 7333   6.502   5.958   6.102 -0.4573 -0.5455 -0.1537
   81SOPE  H12A 7334   6.474   6.065   6.093  1.6275  0.1287  0.8694
   81SOPE  H12B 7335   6.547   5.941   6.202 -0.4728  0.6510  0.0750
   81SOPE   C11 7336   6.374   5.871   6.075 -0.6470 -0.1803  0.5978
   81SOPE  H11A 7337   6.351   5.901   5.971  0.8542  0.0816  0.3314
   81SOPE  H11B 7338   6.301   5.902   6.153 -0.0134  0.1939  1.0504
   81SOPE     P 7339   6.407   5.650   6.209  0.2734  0.3959  0.0585
   81SOPE   O13 7340   6.270   5.599   6.237  0.3978 -0.6627  0.1569
   81SOPE   O14 7341   6.469   5.728   6.313  0.1376 -0.6997  0.2903
   81SOPE   O12 7342   6.402   5.733   6.075  0.0631 -0.0418  0.1227
   81SOPE   O11 7343   6.508   5.530   6.170 -0.1175 -0.4428  0.3083
   81SOPE    C1 7344   6.473   5.460   6.051  0.1639  0.7024  0.3314
   81SOPE    HA 7345   6.457   5.531   5.967  2.1191  1.8528  0.8648
   81SOPE    HB 7346   6.387   5.393   6.069 -1.9648  2.4695 -2.4987
   81SOPE    C2 7347   6.595   5.370   6.006 -0.6333  0.2648 -0.0733
   81SOPE    HS 7348   6.551   5.290   5.943  1.7086 -1.3030  0.1574
   81SOPE   O21 7349   6.669   5.299   6.110  0.4500 -0.1857  0.1621
   81SOPE   C21 7350   6.601   5.221   6.194 -0.2874  0.0268  1.1843
   81SOPE   O22 7351   6.484   5.196   6.174 -0.3032 -0.1706 -0.7845
   81SOPE   C22 7352   6.680   5.168   6.306 -0.5795  0.4647 -0.5985
   81SOPE   H2R 7353   6.646   5.230   6.392 -0.4910  0.5210 -0.6040
   81SOPE   H2S 7354   6.788   5.190   6.288 -0.3738 -0.1691 -0.1645
   81SOPE    C3 7355   6.695   5.447   5.911  0.1552 -0.5480  0.1494
   81SOPE    HX 7356   6.773   5.373   5.882  0.0391 -0.2629 -0.9374
   81SOPE    HY 7357   6.755   5.522   5.966  0.0454  0.8809 -1.5886
   81SOPE   O31 7358   6.627   5.501   5.795 -0.0412  0.3877  0.1112
   81SOPE   C31 7359   6.612   5.628   5.786  0.3228 -0.2848  0.2177
   81SOPE   O32 7360   6.641   5.702   5.883  0.1890 -0.7555  0.0576
   81SOPE   C32 7361   6.548   5.677   5.659  0.1555  0.4026  0.0112
   81SOPE   H2X 7362   6.557   5.595   5.585  0.2455 -0.2714  0.7659
   81SOPE   H2Y 7363   6.599   5.769   5.623 -0.0687  0.3081 -0.5720
   81SOPE   C23 7364   6.654   5.017   6.337 -0.5428  0.5050  0.4600
   81SOPE   H3R 7365   6.544   5.005   6.342 -0.2890 -3.0252  0.1149
   81SOPE   H3S 7366   6.686   4.980   6.437 -2.9097 -0.6369  0.8475
   81SOPE   C24 7367   6.716   4.921   6.233  0.1600  0.2355  0.4432
   81SOPE   H4R 7368   6.716   4.815   6.267  0.8982 -0.2045 -0.8646
   81SOPE   H4S 7369   6.646   4.919   6.146  1.8570  1.1761 -1.0033
   81SOPE   C25 7370   6.852   4.960   6.166 -0.1964 -0.0490 -0.1503
   81SOPE   H5R 7371   6.840   5.060   6.120 -1.2108 -0.4658 -0.8255
   81SOPE   H5S 7372   6.929   4.966   6.246 -0.5814 -0.5401  0.2634
   81SOPE   C26 7373   6.903   4.867   6.059 -0.0035 -0.3266 -0.6976
   81SOPE   H6R 7374   6.998   4.915   6.027  0.6286 -1.2909 -0.3081
   81SOPE   H6S 7375   6.917   4.766   6.103 -3.5816 -1.3632 -1.6105
   81SOPE   C27 7376   6.801   4.851   5.933 -0.4025 -0.1175 -0.2712
   81SOPE   H7R 7377   6.854   4.786   5.860  1.7273  1.3438 -0.1236
   81SOPE   H7S 7378   6.707   4.806   5.971 -0.5325  1.7328  1.7966
   81SOPE   C28 7379   6.768   4.989   5.871  0.5162  0.1271 -0.3128
   81SOPE   H8R 7380   6.737   5.058   5.953  0.2584  1.1915 -1.2748
   81SOPE   H8S 7381   6.860   5.033   5.827  0.3327  2.0274  1.0539
   81SOPE   C29 7382   6.651   4.977   5.776 -1.2023 -0.1683 -0.5137
   81SOPE   H91 7383   6.581   4.896   5.800 -2.0260 -0.1460 -2.5833
   81SOPE  C210 7384   6.635   5.052   5.668  0.0105 -0.6251  0.1402
   81SOPE  H101 7385   6.552   5.033   5.599  1.3584  0.0285 -1.7210
   81SOPE  C211 7386   6.729   5.155   5.611 -0.2103 -0.4210 -0.0889
   81SOPE  H11R 7387   6.798   5.198   5.687 -1.4037 -0.8639  1.2891
   81SOPE  H11S 7388   6.660   5.238   5.583 -1.1685 -1.7038 -1.7209
   81SOPE  C212 7389   6.813   5.114   5.486 -0.1792 -0.0091  0.2650
   81SOPE  H12R 7390   6.871   5.028   5.526 -1.6742 -1.3179 -0.2817
   81SOPE  H12S 7391   6.874   5.202   5.455 -0.4220 -0.1631 -0.6752
   81SOPE  C213 7392   6.723   5.074   5.368 -0.4301  0.5412  0.2265
   81SOPE  H13R 7393   6.633   5.136   5.382  1.1764  2.7699  1.3384
   81SOPE  H13S 7394   6.703   4.966   5.387 -0.3738  0.4635 -0.1439
   81SOPE  C214 7395   6.809   5.070   5.237  0.1291 -0.5594 -0.6483
   81SOPE  H14R 7396   6.904   5.015   5.254  2.6124  3.8288  1.2073
   81SOPE  H14S 7397   6.833   5.176   5.214 -0.9029  0.2207  1.5555
   81SOPE  C215 7398   6.726   5.017   5.123 -0.5417  0.1802 -0.7993
   81SOPE  H15R 7399   6.623   5.056   5.136 -1.0080 -1.2053 -0.0526
   81SOPE  H15S 7400   6.712   4.906   5.125  0.6266 -0.0035 -1.3669
   81SOPE  C216 7401   6.781   5.037   4.982  0.0149 -0.0147 -0.7676
   81SOPE  H16R 7402   6.882   4.992   4.974  0.4816  1.0623 -1.0327
   81SOPE  H16S 7403   6.812   5.143   4.972 -0.3558  0.0141 -1.6812
   81SOPE  C217 7404   6.687   4.989   4.872  0.2852  0.6460 -0.3995
   81SOPE  H17R 7405   6.589   5.042   4.864 -0.5106 -0.4317  1.5760
   81SOPE  H17S 7406   6.667   4.881   4.884 -1.6624  1.0857  0.8303
   81SOPE  C218 7407   6.743   5.003   4.733 -0.3335 -0.8779  0.7616
   81SOPE  H18R 7408   6.836   4.944   4.721  1.1259  0.8869  2.6391
   81SOPE  H18S 7409   6.779   5.106   4.713  0.2509 -1.1653  0.2997
   81SOPE  H18T 7410   6.670   4.967   4.658  0.3112 -0.3155 -0.1611
   81SOPE   C33 7411   6.401   5.700   5.680  0.0259 -0.6921 -0.0248
   81SOPE   H3X 7412   6.389   5.791   5.743 -0.1881 -0.2618 -0.6882
   81SOPE   H3Y 7413   6.350   5.614   5.729  0.2938  0.1113  1.7454
   81SOPE   C34 7414   6.336   5.736   5.544  0.7035 -0.6193  0.0148
   81SOPE   H4X 7415   6.229   5.738   5.574  0.8688  0.4160  0.5679
   81SOPE   H4Y 7416   6.342   5.649   5.475 -1.1583  0.2611 -1.3292
   81SOPE   C35 7417   6.373   5.877   5.477  0.1128  0.2468  0.1414
   81SOPE   H5X 7418   6.473   5.903   5.518  0.2414  0.2696 -0.1887
   81SOPE   H5Y 7419   6.303   5.956   5.513 -0.3186  0.5623 -1.3205
   81SOPE   C36 7420   6.357   5.890   5.327  0.3945  0.3262  0.4260
   81SOPE   H6X 7421   6.372   5.991   5.283 -1.9515  0.2752 -0.6606
   81SOPE   H6Y 7422   6.250   5.873   5.301 -0.3226  2.7349  1.5772
   81SOPE   C37 7423   6.446   5.788   5.255 -0.5257 -1.0464 -0.5110
   81SOPE   H7X 7424   6.404   5.687   5.275 -2.8234  0.1014  0.9252
   81SOPE   H7Y 7425   6.548   5.807   5.295 -0.2816  0.3074 -1.6766
   81SOPE   C38 7426   6.451   5.824   5.102 -0.4198  0.0012 -0.1570
   81SOPE   H8X 7427   6.540   5.779   5.053 -0.7249  1.4357 -2.1583
   81SOPE   H8Y 7428   6.459   5.934   5.090  0.8264 -0.2189 -1.5660
   81SOPE   C39 7429   6.328   5.783   5.022 -0.6791 -0.1148 -0.0704
   81SOPE   H9X 7430   6.233   5.819   5.067 -1.3487 -1.5575 -0.2785
   81SOPE   H9Y 7431   6.313   5.673   5.017 -0.7936 -0.1028  0.0292
   81SOPE  C310 7432   6.348   5.830   4.878  0.0922  0.2412  0.6883
   81SOPE  H10X 7433   6.456   5.807   4.861  0.0922 -1.1373  2.3504
   81SOPE  H10Y 7434   6.331   5.939   4.865  0.5786  0.2720  0.2575
   81SOPE  C311 7435   6.264   5.760   4.771  0.0620  0.3220  0.6697
   81SOPE  H11X 7436   6.156   5.781   4.792 -0.3828  2.3158 -2.8007
   81SOPE  H11Y 7437   6.283   5.651   4.771 -0.6184  0.1928  1.1281
   81SOPE  C312 7438   6.296   5.809   4.625  0.4470  0.3019 -0.1787
   81SOPE  H12X 7439   6.406   5.796   4.613  0.8047  2.7939 -0.1412
   81SOPE  H12Y 7440   6.256   5.913   4.617 -0.9528 -0.3229 -2.0593
   81SOPE  C313 7441   6.220   5.716   4.522 -0.2056 -0.6489 -0.3929
   81SOPE  H13X 7442   6.242   5.608   4.531 -2.8325 -1.4457 -2.2411
   81SOPE  H13Y 7443   6.249   5.760   4.424 -0.5098  0.6512  0.0844
   81SOPE  C314 7444   6.066   5.717   4.516  0.1770 -0.0315 -0.9040
   81SOPE  H14X 7445   6.046   5.823   4.538  0.2233  0.2488 -2.1355
   81SOPE  H14Y 7446   6.035   5.653   4.601 -1.6730  1.3349 -0.5122
   81SOPE  C315 7447   5.993   5.663   4.391  0.4010  0.5006 -0.2778
   81SOPE  H15X 7448   6.004   5.731   4.303 -3.5106  1.3605 -0.2860
   81SOPE  H15Y 7449   5.885   5.658   4.416  0.5373 -2.2695  0.0344
   81SOPE  C316 7450   6.040   5.517   4.358 -0.3977 -0.0826  0.0715
   81SOPE  H16X 7451   6.037   5.462   4.455 -0.2689  1.3797  0.9415
   81SOPE  H16Y 7452   6.143   5.523   4.318 -1.0456  2.3582 -1.4100
   81SOPE  C317 7453   5.956   5.439   4.262 -0.1596  0.0585 -0.2156
   81SOPE  H17X 7454   5.853   5.432   4.303  0.0141 -2.2807 -0.0359
   81SOPE  H17Y 7455   5.990   5.333   4.260  0.8864  0.3350  1.4637
   81SOPE  C318 7456   5.936   5.502   4.129  0.2492 -0.3244  0.3000
   81SOPE  H18X 7457   6.024   5.542   4.074 -2.0606  2.0315 -1.9799
   81SOPE  H18Y 7458   5.864   5.585   4.143  1.0380  0.4445 -0.0821
   81SOPE  H18Z 7459   5.875   5.433   4.067  3.2917 -1.0918 -2.1093
   82SOPE     N 7460   5.390   2.390   6.565  0.3860  0.6442  0.2816
   82SOPE   HN1 7461   5.475   2.429   6.610  1.1034  0.7856 -1.1346
   82SOPE   HN2 7462   5.319   2.344   6.625  0.2426  0.4344 -0.0470
   82SOPE   HN3 7463   5.431   2.319   6.502  0.0707  0.5149  0.2200
   82SOPE   C12 7464   5.335   2.500   6.470 -0.1129  1.1295 -0.0418
   82SOPE  H12A 7465   5.243   2.453   6.429  0.0378  0.1513  0.6925
   82SOPE  H12B 7466   5.406   2.519   6.387 -2.3202  1.1497 -2.0509
   82SOPE   C11 7467   5.273   2.611   6.560  0.4927  0.2592  0.4100
   82SOPE  H11A 7468   5.235   2.691   6.492 -0.5688 -1.6108 -1.3029
   82SOPE  H11B 7469   5.351   2.655   6.625  0.8223  0.4590 -0.1100
   82SOPE     P 7470   5.072   2.674   6.719 -0.3202  0.1791 -0.0220
   82SOPE   O13 7471   5.122   2.807   6.680 -0.0569  0.0806  0.0752
   82SOPE   O14 7472   5.069   2.633   6.860 -0.4695  0.1876 -0.1657
   82SOPE   O12 7473   5.164   2.564   6.639  0.1638 -0.2522  0.0206
   82SOPE   O11 7474   4.934   2.651   6.656  0.0625 -0.2034 -0.0224
   82SOPE    C1 7475   4.889   2.551   6.576 -0.1255  0.7906  0.1476
   82SOPE    HA 7476   4.780   2.541   6.592 -0.4207 -0.8422 -2.4317
   82SOPE    HB 7477   4.929   2.451   6.605 -0.7863  0.3202 -0.5556
   82SOPE    C2 7478   4.918   2.581   6.428 -0.2489  0.0255  0.0278
   82SOPE    HS 7479   5.029   2.574   6.437 -0.3894 -5.2152  0.7345
   82SOPE   O21 7480   4.864   2.713   6.404 -0.1809  0.5145 -0.0317
   82SOPE   C21 7481   4.936   2.780   6.321  0.0505 -0.7297  0.1440
   82SOPE   O22 7482   5.039   2.746   6.259  0.7327 -0.1495 -0.4626
   82SOPE   C22 7483   4.876   2.917   6.306 -0.2818 -0.2538  1.1216
   82SOPE   H2R 7484   4.896   2.965   6.405 -2.0317  1.1758  0.8329
   82SOPE   H2S 7485   4.765   2.909   6.300 -0.1807 -0.5318 -0.6052
   82SOPE    C3 7486   4.874   2.476   6.326 -1.0393 -0.3806 -0.1926
   82SOPE    HX 7487   4.765   2.474   6.344 -1.5992 -0.9901 -3.0546
   82SOPE    HY 7488   4.904   2.373   6.355 -0.0397  0.0230  0.2732
   82SOPE   O31 7489   4.892   2.501   6.187  0.4479  0.3473  0.2979
   82SOPE   C31 7490   5.015   2.475   6.144 -0.6037 -0.2019 -0.6824
   82SOPE   O32 7491   5.099   2.418   6.213  0.0444 -0.0456 -0.5573
   82SOPE   C32 7492   5.018   2.522   6.006 -0.6134  0.0716  0.1083
   82SOPE   H2X 7493   5.010   2.633   6.005 -0.3622  0.1020  1.0309
   82SOPE   H2Y 7494   4.938   2.472   5.948 -0.7120 -0.6679  0.8803
   82SOPE   C23 7495   4.940   3.011   6.207 -0.4747 -0.3438 -0.5153
   82SOPE   H3R 7496   5.051   3.006   6.211 -0.5220 -1.1753  0.1994
   82SOPE   H3S 7497   4.910   3.117   6.215  1.3679  0.3457 -2.0150
   82SOPE   C24 7498   4.897   2.966   6.067  0.0144 -0.0481  0.0850
   82SOPE   H4R 7499   4.944   2.870   6.039  1.3424 -0.1999  2.5996
   82SOPE   H4S 7500   4.786   2.955   6.071 -0.0878 -0.0043 -1.7344
   82SOPE   C25 7501   4.930   3.067   5.961  0.0223  0.3666 -0.1199
   82SOPE   H5R 7502   4.893   3.163   6.002  0.7018  1.0035 -0.9869
   82SOPE   H5S 7503   5.036   3.095   5.947 -0.3985  1.4237 -1.3963
   82SOPE   C26 7504   4.856   3.038   5.830  0.1426 -0.2155 -0.6313
   82SOPE   H6R 7505   4.746   3.031   5.843  0.1972  1.0137  0.7507
   82SOPE   H6S 7506   4.876   3.119   5.757 -0.2595 -0.1740 -0.6951
   82SOPE   C27 7507   4.892   2.906   5.767 -0.8357 -0.2088 -0.3074
   82SOPE   H7R 7508   5.000   2.895   5.745 -0.9711 -0.3587 -0.9004
   82SOPE   H7S 7509   4.865   2.828   5.842 -2.0973  0.5557  0.0636
   82SOPE   C28 7510   4.810   2.882   5.640 -0.3675  0.2976  0.1582
   82SOPE   H8R 7511   4.835   2.780   5.604  2.0925  1.2456 -1.0125
   82SOPE   H8S 7512   4.706   2.876   5.680 -0.1900 -0.2363  0.5480
   82SOPE   C29 7513   4.841   2.982   5.527  0.3364  0.0955 -0.1438
   82SOPE   H91 7514   4.939   3.031   5.537  1.8553 -2.7936  0.2119
   82SOPE  C210 7515   4.775   2.994   5.411  0.1761  0.3585  0.0649
   82SOPE  H101 7516   4.799   3.077   5.342  1.5031 -0.7484 -0.8525
   82SOPE  C211 7517   4.659   2.920   5.354  0.5230  0.5187  0.2559
   82SOPE  H11R 7518   4.639   2.832   5.419  0.1153 -0.7751 -1.5508
   82SOPE  H11S 7519   4.696   2.886   5.255 -0.5248  0.2716 -0.0630
   82SOPE  C212 7520   4.526   2.989   5.336  0.5376 -0.0680  0.6512
   82SOPE  H12R 7521   4.475   3.024   5.428  1.8131  1.2207  0.9063
   82SOPE  H12S 7522   4.459   2.916   5.286  0.6578 -1.7513  2.8058
   82SOPE  C213 7523   4.540   3.107   5.233 -0.1117 -0.6735 -0.1368
   82SOPE  H13R 7524   4.565   3.052   5.139 -0.7755 -0.1691 -0.6190
   82SOPE  H13S 7525   4.614   3.184   5.261  1.2604 -1.5935 -1.1001
   82SOPE  C214 7526   4.397   3.168   5.208  0.0008 -0.4800 -0.1181
   82SOPE  H14R 7527   4.348   3.192   5.304  1.4604  3.8640 -0.2491
   82SOPE  H14S 7528   4.342   3.081   5.165  0.0883 -0.4079 -0.3771
   82SOPE  C215 7529   4.396   3.286   5.110  0.2233 -0.1052 -0.0853
   82SOPE  H15R 7530   4.464   3.356   5.163  0.7787 -1.1704  0.6227
   82SOPE  H15S 7531   4.294   3.327   5.101 -0.7194 -1.9996  1.3269
   82SOPE  C216 7532   4.445   3.254   4.966  0.1175  0.1678 -0.4879
   82SOPE  H16R 7533   4.545   3.206   4.969 -0.2151 -0.5746  2.9860
   82SOPE  H16S 7534   4.476   3.350   4.920 -0.6511  1.0782  0.8215
   82SOPE  C217 7535   4.349   3.170   4.883 -0.0119 -0.5277  0.2170
   82SOPE  H17R 7536   4.244   3.205   4.892 -0.9805 -2.3837 -2.5236
   82SOPE  H17S 7537   4.342   3.069   4.928  1.2493 -0.0128  1.6568
   82SOPE  C218 7538   4.387   3.163   4.734  0.4416 -0.1505  0.0105
   82SOPE  H18R 7539   4.319   3.101   4.672  1.0566 -0.0332 -0.7942
   82SOPE  H18S 7540   4.489   3.119   4.729 -0.4290 -2.2803 -0.2213
   82SOPE  H18T 7541   4.394   3.263   4.687  0.9446 -0.7575 -1.2460
   82SOPE   C33 7542   5.164   2.494   5.942  0.0690 -0.2972 -0.0869
   82SOPE   H3X 7543   5.194   2.389   5.957 -2.4660 -0.9984  0.5096
   82SOPE   H3Y 7544   5.235   2.553   6.004 -0.5126 -1.6870  1.9628
   82SOPE   C34 7545   5.171   2.545   5.799  0.3975 -0.2853  0.1212
   82SOPE   H4X 7546   5.271   2.532   5.753  1.6744 -0.4374  2.7543
   82SOPE   H4Y 7547   5.135   2.650   5.795 -0.7861 -0.5921  1.5884
   82SOPE   C35 7548   5.069   2.491   5.690 -0.4820 -0.4070  0.6282
   82SOPE   H5X 7549   4.977   2.553   5.697  0.3695  0.7071  2.6623
   82SOPE   H5Y 7550   5.038   2.386   5.709  1.5479 -0.8331  1.7611
   82SOPE   C36 7551   5.111   2.504   5.547  0.4363  0.1410  0.6700
   82SOPE   H6X 7552   5.036   2.455   5.481 -0.9436 -0.7257  2.7695
   82SOPE   H6Y 7553   5.204   2.445   5.538  0.3817  0.3924 -2.2913
   82SOPE   C37 7554   5.148   2.644   5.511 -0.4681  0.3797  0.1231
   82SOPE   H7X 7555   5.242   2.675   5.559 -0.6387  0.6077  0.3110
   82SOPE   H7Y 7556   5.066   2.713   5.542 -0.4973 -0.0415  1.0042
   82SOPE   C38 7557   5.160   2.662   5.355  0.7778 -0.5341 -0.3710
   82SOPE   H8X 7558   5.175   2.563   5.308 -1.6011  0.0205 -2.4494
   82SOPE   H8Y 7559   5.248   2.730   5.343  0.2889  0.5379  1.6413
   82SOPE   C39 7560   5.031   2.740   5.305  0.2610 -0.3566  0.8492
   82SOPE   H9X 7561   5.026   2.838   5.357 -0.5600 -0.5892  1.2286
   82SOPE   H9Y 7562   4.939   2.681   5.325  1.4392 -2.7818 -0.4897
   82SOPE  C310 7563   5.033   2.779   5.151 -0.2881  0.1789 -0.7325
   82SOPE  H10X 7564   4.940   2.840   5.145  0.2565  1.0425 -0.6677
   82SOPE  H10Y 7565   5.026   2.686   5.092 -0.5417  0.3914 -1.0344
   82SOPE  C311 7566   5.167   2.845   5.105  0.4676 -0.0661 -0.1464
   82SOPE  H11X 7567   5.252   2.775   5.096  0.6812  0.4078 -2.3425
   82SOPE  H11Y 7568   5.197   2.910   5.190  2.0499  0.3588 -0.9938
   82SOPE  C312 7569   5.152   2.950   4.988  0.3324 -0.0065  0.0254
   82SOPE  H12X 7570   5.099   3.036   5.034 -0.0445  0.9758 -2.1149
   82SOPE  H12Y 7571   5.086   2.907   4.909 -0.8481 -0.4945  1.2370
   82SOPE  C313 7572   5.281   2.999   4.930 -0.7598  0.0901  0.2474
   82SOPE  H13X 7573   5.332   2.913   4.881 -0.7282  0.7680 -0.9520
   82SOPE  H13Y 7574   5.345   3.029   5.016  0.6676 -0.1940 -0.6788
   82SOPE  C314 7575   5.264   3.112   4.824 -0.2231  0.3434  0.1764
   82SOPE  H14X 7576   5.205   3.194   4.871 -1.6608 -1.2799  1.3355
   82SOPE  H14Y 7577   5.198   3.078   4.741 -0.1076  1.2393 -0.3020
   82SOPE  C315 7578   5.399   3.165   4.766 -0.1693  0.4594  0.1839
   82SOPE  H15X 7579   5.452   3.074   4.733 -0.6597 -0.9733  2.9749
   82SOPE  H15Y 7580   5.454   3.208   4.853  0.6371 -0.3683  0.0958
   82SOPE  C316 7581   5.375   3.267   4.650 -0.3719  0.6464 -0.3622
   82SOPE  H16X 7582   5.338   3.362   4.696 -1.2089  1.4571 -2.5848
   82SOPE  H16Y 7583   5.294   3.237   4.580  1.2665 -1.7072 -1.3702
   82SOPE  C317 7584   5.501   3.307   4.568  0.4089 -0.8001 -0.2682
   82SOPE  H17X 7585   5.537   3.231   4.495 -0.0271  0.1592 -1.5175
   82SOPE  H17Y 7586   5.586   3.338   4.634 -1.0366  0.9514  0.8864
   82SOPE  C318 7587   5.472   3.423   4.478 -0.0466  0.3223 -0.2101
   82SOPE  H18X 7588   5.390   3.481   4.525  1.4056  1.6002  0.8277
   82SOPE  H18Y 7589   5.438   3.393   4.376 -1.2536  1.3893 -0.1438
   82SOPE  H18Z 7590   5.553   3.499   4.470 -0.3804  0.5429 -1.8656
   83SOPE     N 7591   1.650   0.894   2.231 -0.7004  1.0630 -0.2307
   83SOPE   HN1 7592   1.715   0.879   2.151 -0.3441  0.9579  0.0805
   83SOPE   HN2 7593   1.591   0.810   2.216  2.9022 -1.4431 -1.6734
   83SOPE   HN3 7594   1.598   0.983   2.217  0.0559  1.2242 -2.5295
   83SOPE   C12 7595   1.717   0.896   2.363 -1.1926 -0.1942  0.0047
   83SOPE  H12A 7596   1.640   0.901   2.443 -1.5183 -0.8304 -0.2603
   83SOPE  H12B 7597   1.777   0.989   2.369 -0.8797 -0.0679 -3.1170
   83SOPE   C11 7598   1.803   0.770   2.392 -0.5790 -0.2409 -0.5015
   83SOPE  H11A 7599   1.740   0.686   2.357 -1.9653 -1.0685  3.5066
   83SOPE  H11B 7600   1.815   0.746   2.500  1.6123 -3.3256 -1.3079
   83SOPE     P 7601   2.063   0.737   2.413  0.2632  0.1462  0.0810
   83SOPE   O13 7602   2.081   0.843   2.514 -0.4179  0.2386  0.4450
   83SOPE   O14 7603   2.181   0.729   2.319 -0.1199 -0.0118 -0.6333
   83SOPE   O12 7604   1.931   0.776   2.323 -0.1655  0.3009  0.7610
   83SOPE   O11 7605   2.026   0.602   2.488 -0.0017 -0.0576 -0.2046
   83SOPE    C1 7606   2.136   0.510   2.520 -0.0525 -0.7007 -0.4378
   83SOPE    HA 7607   2.234   0.561   2.528 -0.7110  0.4232  0.7670
   83SOPE    HB 7608   2.131   0.443   2.431 -2.8354 -1.2110  0.0013
   83SOPE    C2 7609   2.120   0.451   2.664  0.0813 -0.3447  0.0777
   83SOPE    HS 7610   2.215   0.405   2.699  0.6775 -0.0010 -1.0543
   83SOPE   O21 7611   2.014   0.356   2.660 -0.1196  0.3552 -0.3236
   83SOPE   C21 7612   2.040   0.241   2.600 -0.5782 -0.8973  0.1222
   83SOPE   O22 7613   2.151   0.203   2.560 -0.2024  0.7626  0.5577
   83SOPE   C22 7614   1.915   0.159   2.569 -0.1749 -0.5642  0.1455
   83SOPE   H2R 7615   1.959   0.061   2.541  0.2591 -1.2481  2.9017
   83SOPE   H2S 7616   1.856   0.196   2.482 -0.2602  0.6810  0.7053
   83SOPE    C3 7617   2.097   0.564   2.759 -0.4771 -0.0377 -0.5402
   83SOPE    HX 7618   2.014   0.629   2.723 -0.3799 -0.1697 -1.0203
   83SOPE    HY 7619   2.195   0.616   2.755  0.3373 -1.2889  1.4699
   83SOPE   O31 7620   2.091   0.523   2.893  0.1303  0.3271 -0.0718
   83SOPE   C31 7621   1.979   0.515   2.951 -0.7065  0.8738 -0.0772
   83SOPE   O32 7622   1.871   0.552   2.914  0.1806 -0.3234  0.0868
   83SOPE   C32 7623   1.995   0.446   3.091 -0.5131  0.0249  0.1254
   83SOPE   H2X 7624   2.095   0.398   3.090 -0.4324  0.0079  2.6428
   83SOPE   H2Y 7625   1.909   0.379   3.111 -0.1922  0.1928  2.2517
   83SOPE   C23 7626   1.824   0.146   2.695 -0.8915 -0.6128 -0.4166
   83SOPE   H3R 7627   1.739   0.083   2.660 -1.8705  1.0357 -1.1166
   83SOPE   H3S 7628   1.780   0.242   2.730 -0.5346 -1.2951  2.0354
   83SOPE   C24 7629   1.896   0.100   2.824  0.0296  0.1512 -0.3918
   83SOPE   H4R 7630   1.936  -0.002   2.811  1.0010  0.4172  0.3860
   83SOPE   H4S 7631   1.983   0.166   2.843 -0.9321  1.1571  0.7316
   83SOPE   C25 7632   1.807   0.100   2.944 -0.5791 -0.5610 -0.6973
   83SOPE   H5R 7633   1.790   0.208   2.963  0.2772 -0.5327  0.0019
   83SOPE   H5S 7634   1.714   0.052   2.907 -2.0730  0.2957  1.6757
   83SOPE   C26 7635   1.871   0.029   3.066  1.3120 -0.4853  0.1850
   83SOPE   H6R 7636   1.868  -0.081   3.052 -0.7368 -0.1722 -2.8156
   83SOPE   H6S 7637   1.968   0.079   3.086  0.5514  2.0900 -1.9285
   83SOPE   C27 7638   1.783   0.053   3.188 -0.3261 -0.4849 -0.2196
   83SOPE   H7R 7639   1.799   0.156   3.224 -0.8504 -0.5307  0.1558
   83SOPE   H7S 7640   1.679   0.036   3.152  0.2856 -0.9830 -1.8441
   83SOPE   C28 7641   1.825  -0.028   3.314  0.1253  0.2017 -0.4992
   83SOPE   H8R 7642   1.820  -0.138   3.296  1.8373 -0.3806  1.9796
   83SOPE   H8S 7643   1.932  -0.000   3.328  0.0487  0.5420 -0.5872
   83SOPE   C29 7644   1.745  -0.003   3.448  0.1173 -0.7969 -0.9650
   83SOPE   H91 7645   1.645  -0.048   3.443  0.8343 -3.1407  2.4417
   83SOPE  C210 7646   1.780   0.071   3.552 -0.3109 -0.0338 -0.3764
   83SOPE  H101 7647   1.714   0.073   3.641  0.7173 -2.8609  0.5640
   83SOPE  C211 7648   1.900   0.155   3.566  0.2800 -0.7572 -0.8023
   83SOPE  H11R 7649   1.877   0.256   3.526  3.4857 -0.1350 -1.3515
   83SOPE  H11S 7650   1.984   0.134   3.497 -1.0105 -0.4444 -2.5381
   83SOPE  C212 7651   1.962   0.167   3.704 -0.3022  0.4404  0.2857
   83SOPE  H12R 7652   2.046   0.237   3.687 -0.4916  0.8551  1.0145
   83SOPE  H12S 7653   1.992   0.064   3.735  0.4694  0.3463 -0.7396
   83SOPE  C213 7654   1.871   0.227   3.810  0.2349  0.2582  0.2803
   83SOPE  H13R 7655   1.768   0.207   3.773 -0.0720  1.2993  0.5541
   83SOPE  H13S 7656   1.869   0.337   3.793  2.6484  0.3723  0.4401
   83SOPE  C214 7657   1.888   0.206   3.963 -0.2146  0.0249  0.0997
   83SOPE  H14R 7658   1.795   0.244   4.011 -0.0846 -0.3558  0.6662
   83SOPE  H14S 7659   1.982   0.252   3.998  0.0136 -0.1699 -0.2468
   83SOPE  C215 7660   1.884   0.051   3.989 -0.7474  0.8079  0.3039
   83SOPE  H15R 7661   1.967  -0.006   3.942 -0.2917  0.2764  1.6949
   83SOPE  H15S 7662   1.791   0.008   3.948 -0.6153  1.2899 -0.5170
   83SOPE  C216 7663   1.887   0.017   4.142 -0.0420 -0.1186 -0.5141
   83SOPE  H16R 7664   1.801   0.068   4.192  0.5267  1.2619 -0.8771
   83SOPE  H16S 7665   1.974   0.071   4.184 -0.5111  0.6334 -0.4761
   83SOPE  C217 7666   1.883  -0.137   4.165 -0.9399  0.0476  0.2536
   83SOPE  H17R 7667   1.989  -0.169   4.179 -1.5021 -1.0955  2.2078
   83SOPE  H17S 7668   1.848  -0.183   4.070 -0.3598 -1.0367  0.5467
   83SOPE  C218 7669   1.802  -0.179   4.288  0.1046  0.5894  0.9950
   83SOPE  H18R 7670   1.692  -0.164   4.284  0.2133  1.4607  1.1735
   83SOPE  H18S 7671   1.838  -0.137   4.385 -0.3787  1.7333  0.6962
   83SOPE  H18T 7672   1.809  -0.289   4.299 -1.9453  0.3696  0.4827
   83SOPE   C33 7673   2.016   0.553   3.203 -0.0256 -0.4940  0.1931
   83SOPE   H3X 7674   1.920   0.607   3.218 -0.5115 -1.1213 -0.5830
   83SOPE   H3Y 7675   2.091   0.631   3.180 -0.3070  0.2411  1.6160
   83SOPE   C34 7676   2.082   0.499   3.330  0.5742 -0.7941  0.1088
   83SOPE   H4X 7677   2.191   0.486   3.313  0.8193  1.6885 -0.6443
   83SOPE   H4Y 7678   2.048   0.395   3.347  0.1865 -0.7470 -0.3504
   83SOPE   C35 7679   2.058   0.576   3.461 -0.0259 -0.2112  0.6250
   83SOPE   H5X 7680   1.948   0.571   3.475 -0.2956  0.7053 -0.9625
   83SOPE   H5Y 7681   2.086   0.682   3.441 -0.9823  0.5113  2.8205
   83SOPE   C36 7682   2.130   0.532   3.596  0.1047  0.2326  0.2547
   83SOPE   H6X 7683   2.235   0.518   3.563 -0.4251 -0.5124 -1.2209
   83SOPE   H6Y 7684   2.096   0.433   3.632  0.3354  0.5787  1.4530
   83SOPE   C37 7685   2.124   0.630   3.712 -0.3845 -0.5650  0.7162
   83SOPE   H7X 7686   2.018   0.662   3.715 -0.7979 -0.4697 -4.4725
   83SOPE   H7Y 7687   2.187   0.718   3.688  0.0433 -0.8187  0.8958
   83SOPE   C38 7688   2.166   0.575   3.847  0.2035  0.4699 -0.3349
   83SOPE   H8X 7689   2.275   0.568   3.866 -0.0833 -3.2046  0.8853
   83SOPE   H8Y 7690   2.133   0.469   3.856 -1.6107  0.9931 -0.2975
   83SOPE   C39 7691   2.101   0.651   3.958  0.2873  0.1098 -0.5234
   83SOPE   H9X 7692   1.998   0.671   3.924 -0.0392  0.0489  0.3921
   83SOPE   H9Y 7693   2.145   0.752   3.975 -1.3898  0.6522  0.8838
   83SOPE  C310 7694   2.109   0.569   4.088 -0.5630 -0.2396  0.1855
   83SOPE  H10X 7695   2.208   0.521   4.102 -1.8658 -2.6242  1.7529
   83SOPE  H10Y 7696   2.047   0.477   4.090 -0.0877 -0.5847 -0.6896
   83SOPE  C311 7697   2.073   0.655   4.213  0.1480  0.2879 -0.9881
   83SOPE  H11X 7698   1.968   0.690   4.200 -0.8584 -1.8829  0.7300
   83SOPE  H11Y 7699   2.146   0.738   4.221  0.2712 -0.0108  1.8922
   83SOPE  C312 7700   2.078   0.584   4.346 -0.2941  0.8505  0.4963
   83SOPE  H12X 7701   2.160   0.510   4.332  0.2078  1.5238 -0.2030
   83SOPE  H12Y 7702   1.989   0.522   4.366  1.1244 -1.7235 -0.7621
   83SOPE  C313 7703   2.116   0.663   4.468  0.5093 -0.2701 -0.0108
   83SOPE  H13X 7704   2.198   0.734   4.445  1.3536 -1.0853  0.3734
   83SOPE  H13Y 7705   2.146   0.595   4.551  0.3662  1.4345  1.4961
   83SOPE  C314 7706   1.992   0.737   4.515 -0.2197  0.3297  0.1745
   83SOPE  H14X 7707   1.916   0.656   4.519  2.1486 -2.1637 -1.5876
   83SOPE  H14Y 7708   1.960   0.814   4.440  0.2544  0.4572  0.1018
   83SOPE  C315 7709   2.007   0.802   4.649 -0.8927 -0.2102 -0.1046
   83SOPE  H15X 7710   2.039   0.720   4.717  2.5894  0.2017 -1.0560
   83SOPE  H15Y 7711   1.913   0.851   4.680 -1.4868  0.0998 -2.2073
   83SOPE  C316 7712   2.114   0.914   4.646 -0.7452  0.4636 -0.1597
   83SOPE  H16X 7713   2.092   1.001   4.581  0.9518 -1.6237 -3.8220
   83SOPE  H16Y 7714   2.213   0.881   4.606 -0.0946  3.2794 -1.1068
   83SOPE  C317 7715   2.142   0.971   4.781  0.7486 -0.4612 -0.0558
   83SOPE  H17X 7716   2.142   0.896   4.863  1.5018  0.2327  0.5940
   83SOPE  H17Y 7717   2.061   1.044   4.801 -1.2001 -2.7607  1.0505
   83SOPE  C318 7718   2.277   1.045   4.790  0.3627  0.5591 -0.4172
   83SOPE  H18X 7719   2.276   1.093   4.890  0.5968 -0.4781  0.0940
   83SOPE  H18Y 7720   2.284   1.115   4.704  1.2642 -0.5193 -1.2550
   83SOPE  H18Z 7721   2.363   0.976   4.778  0.4888  0.7639 -0.6898
   84SOPE     N 7722   4.588   5.798   2.148 -0.3492  0.8644  0.0409
   84SOPE   HN1 7723   4.682   5.833   2.176  0.3878  0.4875 -1.8277
   84SOPE   HN2 7724   4.568   5.734   2.227  2.1548 -0.1056 -0.0060
   84SOPE   HN3 7725   4.600   5.734   2.067 -2.5941  0.2044  0.1477
   84SOPE   C12 7726   4.459   5.878   2.134 -0.2122  0.3570  0.3048
   84SOPE  H12A 7727   4.446   5.914   2.029  1.1235  0.2341  0.0835
   84SOPE  H12B 7728   4.467   5.971   2.194  0.9959 -0.1556  0.9635
   84SOPE   C11 7729   4.341   5.792   2.176  0.3955  0.1228  0.0928
   84SOPE  H11A 7730   4.327   5.703   2.110  1.6320 -0.8780  1.1236
   84SOPE  H11B 7731   4.246   5.848   2.171 -0.0576 -0.5863  0.5528
   84SOPE     P 7732   4.241   5.687   2.391  0.2174  0.2757  0.3843
   84SOPE   O13 7733   4.292   5.592   2.489  0.6902  0.7307  0.4252
   84SOPE   O14 7734   4.126   5.645   2.302  0.3091  0.4486 -0.0623
   84SOPE   O12 7735   4.364   5.755   2.313  0.1012  0.0568  0.0094
   84SOPE   O11 7736   4.188   5.811   2.472 -0.5407 -0.2707 -0.1014
   84SOPE    C1 7737   4.114   5.923   2.417  0.2434 -0.3759 -0.0854
   84SOPE    HA 7738   4.062   5.901   2.321 -0.5011  1.7874 -0.2369
   84SOPE    HB 7739   4.180   6.006   2.383 -1.9209  1.4833 -0.0236
   84SOPE    C2 7740   4.008   5.973   2.522  0.6220  0.7589  0.0768
   84SOPE    HS 7741   3.962   6.064   2.477  1.1690  0.9115 -0.1758
   84SOPE   O21 7742   4.076   6.010   2.647 -0.3107  0.5240 -0.4240
   84SOPE   C21 7743   4.180   6.077   2.662 -0.2175  0.4454 -0.0941
   84SOPE   O22 7744   4.230   6.153   2.576 -0.3094 -0.7082 -0.9242
   84SOPE   C22 7745   4.228   6.064   2.808 -0.7024 -0.3732  0.4657
   84SOPE   H2R 7746   4.277   5.964   2.811 -0.8377 -0.4249  1.0731
   84SOPE   H2S 7747   4.134   6.078   2.866 -1.3803  2.5586 -1.1349
   84SOPE    C3 7748   3.900   5.862   2.555 -0.2125  0.0347  0.2868
   84SOPE    HX 7749   3.965   5.781   2.594 -0.6896  0.1979  1.4534
   84SOPE    HY 7750   3.854   5.849   2.455  0.1704  2.2585 -0.2246
   84SOPE   O31 7751   3.801   5.910   2.647 -0.1556  0.1445  0.3047
   84SOPE   C31 7752   3.803   5.856   2.769  0.4874  0.7949 -0.2803
   84SOPE   O32 7753   3.891   5.783   2.811 -0.5180 -0.3321  0.0537
   84SOPE   C32 7754   3.689   5.923   2.857 -0.2714  0.0366  0.7618
   84SOPE   H2X 7755   3.590   5.887   2.822  0.2183  1.3674 -2.3380
   84SOPE   H2Y 7756   3.692   6.033   2.845 -0.5189  0.1308  1.5706
   84SOPE   C23 7757   4.320   6.175   2.863  0.6971  0.3088  0.1619
   84SOPE   H3R 7758   4.270   6.274   2.867  0.4515  0.1357  1.7696
   84SOPE   H3S 7759   4.408   6.175   2.795 -0.6957  0.2623 -1.7362
   84SOPE   C24 7760   4.350   6.151   3.016 -0.5111 -0.8193  0.3306
   84SOPE   H4R 7761   4.421   6.229   3.050 -1.2964  0.5386 -1.0624
   84SOPE   H4S 7762   4.261   6.169   3.080 -3.2518 -0.8306 -3.1857
   84SOPE   C25 7763   4.420   6.014   3.048  0.2332 -0.1322  0.1580
   84SOPE   H5R 7764   4.372   5.922   3.010 -2.5232  1.3723 -0.2500
   84SOPE   H5S 7765   4.517   6.016   2.993  0.7754 -0.9561  1.0652
   84SOPE   C26 7766   4.444   5.986   3.195  0.2448 -0.9732 -0.1369
   84SOPE   H6R 7767   4.500   5.891   3.202 -1.2643 -1.8658  0.4664
   84SOPE   H6S 7768   4.506   6.063   3.246  0.0789 -1.1455  0.3369
   84SOPE   C27 7769   4.318   5.976   3.282  0.7684  0.4085  0.3576
   84SOPE   H7R 7770   4.276   6.078   3.295  2.9657  1.1040  2.8698
   84SOPE   H7S 7771   4.245   5.912   3.229  1.8171  0.1010 -0.7553
   84SOPE   C28 7772   4.338   5.899   3.421 -0.1898 -0.0966  0.4395
   84SOPE   H8R 7773   4.354   5.792   3.397  1.1897  0.2472 -0.2954
   84SOPE   H8S 7774   4.437   5.921   3.468  1.1223 -1.4568 -1.5320
   84SOPE   C29 7775   4.225   5.909   3.516 -0.3657  0.5432  0.2341
   84SOPE   H91 7776   4.157   5.822   3.504  2.3111 -1.9141  1.5804
   84SOPE  C210 7777   4.204   5.993   3.614  0.4040  0.0431  0.0362
   84SOPE  H101 7778   4.112   5.981   3.674  2.0390 -0.3075  2.6049
   84SOPE  C211 7779   4.306   6.096   3.655 -0.8178  0.0232 -0.0178
   84SOPE  H11R 7780   4.256   6.195   3.647 -0.0916  0.5361  1.3850
   84SOPE  H11S 7781   4.388   6.111   3.581 -1.1774  2.5786  0.0328
   84SOPE  C212 7782   4.372   6.089   3.791 -0.0452 -0.6327 -0.4922
   84SOPE  H12R 7783   4.436   6.179   3.801  2.1359 -2.0011 -1.3956
   84SOPE  H12S 7784   4.432   5.996   3.798 -0.0036 -0.5745 -0.0748
   84SOPE  C213 7785   4.276   6.086   3.908  0.3711  0.5282  0.2492
   84SOPE  H13R 7786   4.202   6.003   3.910  0.0951  0.7804  0.6260
   84SOPE  H13S 7787   4.215   6.179   3.911  1.3640  1.1788  1.6911
   84SOPE  C214 7788   4.343   6.092   4.046  0.3150 -0.1385  0.3304
   84SOPE  H14R 7789   4.260   6.131   4.108 -1.4272 -2.0984 -0.6254
   84SOPE  H14S 7790   4.412   6.179   4.042 -2.5781  2.2681 -1.7193
   84SOPE  C215 7791   4.413   5.976   4.107  0.0679  0.4076  0.3329
   84SOPE  H15R 7792   4.424   6.016   4.210  2.1238  0.8418 -0.0109
   84SOPE  H15S 7793   4.514   5.962   4.063  0.4015 -0.6794  1.3720
   84SOPE  C216 7794   4.328   5.845   4.094  0.2369 -1.0967 -0.4013
   84SOPE  H16R 7795   4.313   5.821   3.986  0.5154 -1.1486 -0.4309
   84SOPE  H16S 7796   4.232   5.881   4.136 -0.1332 -1.5034 -0.8914
   84SOPE  C217 7797   4.384   5.727   4.181  0.0462 -0.8637 -0.0759
   84SOPE  H17R 7798   4.373   5.750   4.289 -0.7798 -0.8133 -0.1641
   84SOPE  H17S 7799   4.494   5.721   4.164  0.9603  3.4288  2.6177
   84SOPE  C218 7800   4.321   5.589   4.162 -0.8682  0.6895  0.2225
   84SOPE  H18R 7801   4.340   5.530   4.254  1.8676  1.2072  0.0733
   84SOPE  H18S 7802   4.369   5.541   4.073  0.2462  0.4015  0.9548
   84SOPE  H18T 7803   4.212   5.602   4.147 -1.0691 -0.8523  0.1694
   84SOPE   C33 7804   3.709   5.880   3.003 -0.3407  0.4581  0.4687
   84SOPE   H3X 7805   3.815   5.882   3.036  0.2877 -2.1785 -1.0625
   84SOPE   H3Y 7806   3.687   5.771   3.005  0.8553  0.2121  0.6886
   84SOPE   C34 7807   3.617   5.964   3.097  0.2911 -0.5463  0.1513
   84SOPE   H4X 7808   3.511   5.942   3.073  0.4001  0.3864 -1.2780
   84SOPE   H4Y 7809   3.641   6.072   3.097  2.8240 -1.0335  1.6442
   84SOPE   C35 7810   3.624   5.922   3.243  0.5073  0.3970  0.3728
   84SOPE   H5X 7811   3.730   5.935   3.274 -0.5438  1.9404  3.8248
   84SOPE   H5Y 7812   3.603   5.813   3.244  2.8732 -0.1032  1.9024
   84SOPE   C36 7813   3.531   5.992   3.342  0.1380  0.3470  0.2854
   84SOPE   H6X 7814   3.426   5.968   3.312  0.0284 -1.3942  1.9203
   84SOPE   H6Y 7815   3.544   6.102   3.329 -2.4396  0.6392 -0.4796
   84SOPE   C37 7816   3.559   5.954   3.485 -0.6618  0.5793 -0.0250
   84SOPE   H7X 7817   3.658   5.992   3.520  0.4925 -1.5220 -0.8300
   84SOPE   H7Y 7818   3.554   5.844   3.500 -1.0243  0.5860 -0.0850
   84SOPE   C38 7819   3.451   6.016   3.581  0.6966 -0.3949 -0.0183
   84SOPE   H8X 7820   3.346   5.979   3.576  0.0468  1.4375 -0.7765
   84SOPE   H8Y 7821   3.445   6.126   3.571 -0.6928 -0.6087 -2.0754
   84SOPE   C39 7822   3.483   5.987   3.724  0.3240  0.2880  0.8849
   84SOPE   H9X 7823   3.582   6.032   3.748  0.6299  0.5733 -0.8184
   84SOPE   H9Y 7824   3.492   5.877   3.741  1.3978  0.2514  0.1981
   84SOPE  C310 7825   3.378   6.048   3.828  0.0799  0.2829 -0.0521
   84SOPE  H10X 7826   3.280   5.999   3.810  0.0381  0.4998 -0.4359
   84SOPE  H10Y 7827   3.364   6.152   3.791 -0.5458  0.0750 -0.4042
   84SOPE  C311 7828   3.410   6.030   3.975 -0.4208 -0.7403 -0.2709
   84SOPE  H11X 7829   3.510   6.071   3.999 -1.0078  0.4080  0.2891
   84SOPE  H11Y 7830   3.418   5.921   3.996 -0.0848 -0.1924  2.8992
   84SOPE  C312 7831   3.316   6.101   4.068  0.7308  0.7059 -0.3018
   84SOPE  H12X 7832   3.208   6.087   4.049  0.5757  0.4438  0.7062
   84SOPE  H12Y 7833   3.338   6.210   4.070  1.6754  0.5309 -0.6208
   84SOPE  C313 7834   3.325   6.052   4.214  0.1286 -0.5978 -0.7455
   84SOPE  H13X 7835   3.426   6.079   4.251 -0.5410  1.5463 -0.3527
   84SOPE  H13Y 7836   3.319   5.942   4.218  0.6217 -0.7704 -2.9608
   84SOPE  C314 7837   3.221   6.114   4.309 -0.0783  0.2764  0.3368
   84SOPE  H14X 7838   3.126   6.061   4.286  0.5236 -0.9786  0.6765
   84SOPE  H14Y 7839   3.216   6.223   4.291 -0.6999  0.1482 -0.3461
   84SOPE  C315 7840   3.240   6.081   4.454 -0.0907  0.0076 -0.0712
   84SOPE  H15X 7841   3.250   6.178   4.508 -1.9185 -1.5671  3.4209
   84SOPE  H15Y 7842   3.338   6.035   4.482 -1.6960 -3.5739  0.1993
   84SOPE  C316 7843   3.141   5.989   4.521  0.5902 -0.4741 -0.0090
   84SOPE  H16X 7844   3.041   6.036   4.506  1.2994  0.8299 -0.8713
   84SOPE  H16Y 7845   3.156   5.962   4.627  3.4081 -1.9744 -0.6912
   84SOPE  C317 7846   3.133   5.850   4.456  0.3761  0.1111 -0.0620
   84SOPE  H17X 7847   3.219   5.782   4.477 -0.1839 -0.3946  0.6327
   84SOPE  H17Y 7848   3.129   5.857   4.345 -1.3250 -1.5590 -0.1545
   84SOPE  C318 7849   3.006   5.769   4.499 -0.3693 -0.2365 -0.3913
   84SOPE  H18X 7850   3.010   5.768   4.610 -1.0207 -0.4917 -0.3671
   84SOPE  H18Y 7851   3.011   5.663   4.465  0.0355 -1.0217  1.9366
   84SOPE  H18Z 7852   2.922   5.834   4.468 -0.5257 -1.6358 -3.3289
   85SOPE     N 7853   5.954   2.207   2.500  0.0333  0.5926  0.9059
   85SOPE   HN1 7854   5.977   2.113   2.461  0.6001  0.8979  0.4909
   85SOPE   HN2 7855   5.851   2.214   2.511  0.0358  2.1987  0.1281
   85SOPE   HN3 7856   5.978   2.281   2.431 -2.3644  0.4968 -0.1409
   85SOPE   C12 7857   6.020   2.210   2.634 -0.0028 -0.0952 -0.4371
   85SOPE  H12A 7858   6.128   2.188   2.623 -0.2552 -1.0806 -1.1221
   85SOPE  H12B 7859   5.983   2.113   2.675  2.3038 -1.8897 -2.3067
   85SOPE   C11 7860   5.986   2.343   2.705 -0.3684 -0.6171 -0.0828
   85SOPE  H11A 7861   6.023   2.435   2.653 -0.5140  0.8900  2.3167
   85SOPE  H11B 7862   6.038   2.341   2.803  1.9033  1.8480 -1.1019
   85SOPE     P 7863   5.782   2.485   2.789 -0.6047  0.1521 -0.1853
   85SOPE   O13 7864   5.647   2.488   2.738  0.6780  0.1051  0.7143
   85SOPE   O14 7865   5.871   2.605   2.768  0.0910  0.1320  0.9462
   85SOPE   O12 7866   5.842   2.359   2.723 -0.3070 -0.6671  0.0096
   85SOPE   O11 7867   5.779   2.446   2.938 -0.4493  0.4783  0.0217
   85SOPE    C1 7868   5.684   2.345   2.973 -0.0507 -0.3889 -0.3492
   85SOPE    HA 7869   5.708   2.254   2.913  1.6649 -1.3411  1.6305
   85SOPE    HB 7870   5.578   2.365   2.946  0.1418  1.0429 -0.1247
   85SOPE    C2 7871   5.698   2.323   3.120 -0.5149 -0.1595  0.5522
   85SOPE    HS 7872   5.612   2.267   3.162 -0.7942 -1.5005 -1.6164
   85SOPE   O21 7873   5.725   2.445   3.192 -0.1237 -1.0446 -0.0962
   85SOPE   C21 7874   5.632   2.535   3.213  0.0431  0.6663  0.3132
   85SOPE   O22 7875   5.519   2.527   3.173 -0.6960 -0.8824  0.8572
   85SOPE   C22 7876   5.684   2.654   3.295  0.1009 -0.3970 -0.3028
   85SOPE   H2R 7877   5.602   2.710   3.347  0.9455 -0.3042  0.9614
   85SOPE   H2S 7878   5.721   2.728   3.220 -0.5238 -0.3390 -0.5656
   85SOPE    C3 7879   5.826   2.238   3.150  0.6056 -0.0735  0.0159
   85SOPE    HX 7880   5.913   2.301   3.127 -0.8320  2.0776  0.1887
   85SOPE    HY 7881   5.821   2.153   3.078  1.7687  0.0564 -0.2357
   85SOPE   O31 7882   5.817   2.189   3.291  0.1160  0.2225  0.0877
   85SOPE   C31 7883   5.932   2.206   3.367 -0.0380  0.5464 -0.1110
   85SOPE   O32 7884   6.030   2.275   3.333 -0.0363 -0.1153  0.5713
   85SOPE   C32 7885   5.921   2.115   3.489 -0.2482 -0.2788 -1.3051
   85SOPE   H2X 7886   5.885   2.014   3.460 -0.9397 -0.1544 -0.9147
   85SOPE   H2Y 7887   5.843   2.149   3.561  0.8621  0.1651 -0.2810
   85SOPE   C23 7888   5.792   2.620   3.400 -0.6642 -0.0552 -0.0875
   85SOPE   H3R 7889   5.838   2.712   3.443  0.7670 -1.8062  2.3738
   85SOPE   H3S 7890   5.881   2.564   3.365  0.5517  2.0365 -0.5039
   85SOPE   C24 7891   5.731   2.539   3.514 -0.0941  0.2295  0.6816
   85SOPE   H4R 7892   5.667   2.611   3.568 -1.3503 -1.3393  1.3718
   85SOPE   H4S 7893   5.676   2.450   3.476  2.3431 -0.4456 -1.6630
   85SOPE   C25 7894   5.843   2.495   3.607 -0.0727 -0.0867  0.0128
   85SOPE   H5R 7895   5.921   2.441   3.549 -0.6595 -0.5765 -0.3296
   85SOPE   H5S 7896   5.890   2.588   3.648  0.4603 -1.2334  2.1289
   85SOPE   C26 7897   5.799   2.414   3.721 -0.0239  0.3742 -0.4138
   85SOPE   H6R 7898   5.716   2.465   3.775 -0.2585 -0.2973 -0.1305
   85SOPE   H6S 7899   5.772   2.311   3.687 -3.6438  1.7507 -2.2956
   85SOPE   C27 7900   5.906   2.398   3.832 -0.0474 -0.4003  0.1800
   85SOPE   H7R 7901   6.002   2.380   3.779  0.8840  1.4036  1.1632
   85SOPE   H7S 7902   5.918   2.497   3.881  1.3246  0.0808 -1.0273
   85SOPE   C28 7903   5.871   2.281   3.928 -0.0921  0.0599  0.5371
   85SOPE   H8R 7904   5.767   2.296   3.964  0.3470 -0.9906  2.4429
   85SOPE   H8S 7905   5.878   2.186   3.870  0.3144  1.2200 -1.3995
   85SOPE   C29 7906   5.969   2.277   4.044  0.3052 -0.4846 -0.2852
   85SOPE   H91 7907   6.074   2.256   4.019  0.1448  0.4773 -1.9126
   85SOPE  C210 7908   5.937   2.286   4.176  0.4395  0.1811 -0.0159
   85SOPE  H101 7909   6.015   2.268   4.252  1.7139  0.0296 -1.3114
   85SOPE  C211 7910   5.805   2.302   4.231  0.1471  0.2521  0.3428
   85SOPE  H11R 7911   5.804   2.273   4.339 -0.3249  2.3363  0.9419
   85SOPE  H11S 7912   5.730   2.248   4.170  2.1619 -0.8586 -1.2992
   85SOPE  C212 7913   5.763   2.451   4.234 -0.4160 -0.4452 -0.6189
   85SOPE  H12R 7914   5.792   2.515   4.148  0.5163  0.2633  0.1995
   85SOPE  H12S 7915   5.829   2.496   4.311 -0.3876 -1.6852  0.1061
   85SOPE  C213 7916   5.614   2.477   4.281 -0.3325 -0.3328 -0.1248
   85SOPE  H13R 7917   5.602   2.587   4.277 -2.2609 -0.5004  0.2160
   85SOPE  H13S 7918   5.588   2.449   4.385 -0.5791 -0.5429 -0.2405
   85SOPE  C214 7919   5.508   2.439   4.180 -0.0879  1.1082 -0.5544
   85SOPE  H14R 7920   5.520   2.332   4.155 -0.4469  0.9255  0.0525
   85SOPE  H14S 7921   5.524   2.488   4.081 -0.6486 -1.2516 -1.8988
   85SOPE  C215 7922   5.372   2.469   4.240 -0.2017  0.0313 -0.3573
   85SOPE  H15R 7923   5.306   2.464   4.151 -0.4054 -0.7048 -0.1655
   85SOPE  H15S 7924   5.368   2.569   4.288  0.2788  0.4040 -1.0635
   85SOPE  C216 7925   5.323   2.360   4.339  0.6484  0.1051 -0.4812
   85SOPE  H16R 7926   5.393   2.362   4.424  0.0947  0.7398 -0.0289
   85SOPE  H16S 7927   5.342   2.261   4.293  1.5319  0.8978 -1.8960
   85SOPE  C217 7928   5.180   2.377   4.399 -0.1575  0.0301  0.0702
   85SOPE  H17R 7929   5.170   2.477   4.446 -1.9799 -0.4129  0.6898
   85SOPE  H17S 7930   5.147   2.296   4.467 -0.6361 -0.2012 -0.4252
   85SOPE  C218 7931   5.069   2.377   4.291 -0.4511 -0.2422 -0.0486
   85SOPE  H18R 7932   4.967   2.373   4.334 -1.2929 -0.7724 -2.0294
   85SOPE  H18S 7933   5.090   2.294   4.221  1.5404  1.7702 -2.0539
   85SOPE  H18T 7934   5.085   2.467   4.227  1.4586 -0.4065  0.1250
   85SOPE   C33 7935   6.060   2.102   3.569 -0.2691 -0.2987  0.3362
   85SOPE   H3X 7936   6.089   2.201   3.611  0.7511 -0.3458 -0.2307
   85SOPE   H3Y 7937   6.137   2.069   3.495 -0.2914 -2.6541  1.2796
   85SOPE   C34 7938   6.055   1.988   3.670 -0.0751  0.3578 -0.1321
   85SOPE   H4X 7939   6.023   1.889   3.634 -2.2502  1.2856 -0.9252
   85SOPE   H4Y 7940   5.983   2.001   3.754 -2.0940 -2.2514 -1.3045
   85SOPE   C35 7941   6.200   1.969   3.727  0.6244 -0.2400  0.1886
   85SOPE   H5X 7942   6.242   2.064   3.765 -3.8325  2.2624 -0.5173
   85SOPE   H5Y 7943   6.259   1.916   3.649 -1.9892 -3.5011  0.1908
   85SOPE   C36 7944   6.202   1.873   3.847  0.0222  0.4314  0.0383
   85SOPE   H6X 7945   6.297   1.816   3.858 -0.5961 -0.8772 -0.9617
   85SOPE   H6Y 7946   6.132   1.791   3.821  0.8849 -0.4129  0.3108
   85SOPE   C37 7947   6.168   1.942   3.979 -0.0407 -0.3078 -0.1718
   85SOPE   H7X 7948   6.057   1.953   3.981  0.0685  0.9696 -0.4835
   85SOPE   H7Y 7949   6.204   2.047   3.987 -0.8313 -0.1233  1.3498
   85SOPE   C38 7950   6.199   1.859   4.107 -0.0803  0.4968  0.4152
   85SOPE   H8X 7951   6.309   1.856   4.120 -0.0095  1.1710  0.0207
   85SOPE   H8Y 7952   6.169   1.752   4.100 -1.1677  0.7911  0.2754
   85SOPE   C39 7953   6.131   1.938   4.227 -0.1854 -0.2566 -0.1752
   85SOPE   H9X 7954   6.025   1.960   4.206 -0.4241  0.7169  1.7735
   85SOPE   H9Y 7955   6.178   2.039   4.233  2.3986 -1.4542  1.7645
   85SOPE  C310 7956   6.135   1.867   4.365  0.0013 -0.1368 -0.1377
   85SOPE  H10X 7957   6.121   1.758   4.348  2.5654 -0.4122 -0.9400
   85SOPE  H10Y 7958   6.052   1.906   4.428  2.1967  0.2015  2.7586
   85SOPE  C311 7959   6.265   1.883   4.445  0.5584 -0.2347  0.1796
   85SOPE  H11X 7960   6.281   1.990   4.474  2.2861 -0.1682 -0.8631
   85SOPE  H11Y 7961   6.350   1.852   4.381 -2.3874 -0.9212 -3.7834
   85SOPE  C312 7962   6.240   1.796   4.571 -0.5156  0.2051  0.5295
   85SOPE  H12X 7963   6.199   1.698   4.538  0.4256 -0.1929  0.5157
   85SOPE  H12Y 7964   6.162   1.838   4.638  0.0938 -0.4831  1.7153
   85SOPE  C313 7965   6.378   1.775   4.643  0.3539 -0.5072 -0.8282
   85SOPE  H13X 7966   6.448   1.715   4.581 -0.9273 -0.7374 -2.0873
   85SOPE  H13Y 7967   6.359   1.707   4.730  2.3302 -1.3859 -1.0312
   85SOPE  C314 7968   6.444   1.912   4.683  0.0705 -0.7530  0.1972
   85SOPE  H14X 7969   6.363   1.955   4.745  0.5094 -0.7393  0.7655
   85SOPE  H14Y 7970   6.463   1.976   4.594  1.4843  0.0513  1.0416
   85SOPE  C315 7971   6.574   1.907   4.772 -0.1550  0.9215  0.2221
   85SOPE  H15X 7972   6.654   1.862   4.708  0.5528 -0.6631  2.1286
   85SOPE  H15Y 7973   6.556   1.841   4.859  0.4419 -2.0010 -1.7098
   85SOPE  C316 7974   6.624   2.042   4.823 -0.2114  0.3267  0.5630
   85SOPE  H16X 7975   6.553   2.090   4.893 -0.2161 -0.4076  1.0756
   85SOPE  H16Y 7976   6.635   2.105   4.732 -0.6657  1.1934  1.0979
   85SOPE  C317 7977   6.754   2.043   4.899  0.0474 -0.5962 -0.0294
   85SOPE  H17X 7978   6.757   2.003   5.003  0.6492  2.5873  1.2781
   85SOPE  H17Y 7979   6.773   2.150   4.922 -2.7680 -0.4251  2.0700
   85SOPE  C318 7980   6.871   1.985   4.813 -0.4243 -1.0911 -0.4662
   85SOPE  H18X 7981   6.848   1.879   4.792  0.2640 -1.9349  2.5758
   85SOPE  H18Y 7982   6.975   2.005   4.845 -0.1154  0.7475 -2.3845
   85SOPE  H18Z 7983   6.856   2.035   4.715 -0.8331 -0.7527 -0.2372
   86SOPE     N 7984   7.138   4.856   2.742 -0.1670  0.3520  0.1088
   86SOPE   HN1 7985   7.160   4.890   2.646 -0.6722  0.6942  0.1082
   86SOPE   HN2 7986   7.051   4.800   2.737 -0.4239  0.4527  2.3350
   86SOPE   HN3 7987   7.101   4.932   2.803  0.4126 -1.9499  3.6465
   86SOPE   C12 7988   7.244   4.780   2.814  0.6512  0.1003 -0.0013
   86SOPE  H12A 7989   7.273   4.689   2.757  2.0073  0.5552 -0.0630
   86SOPE  H12B 7990   7.189   4.748   2.906  0.7569 -1.1747 -0.3533
   86SOPE   C11 7991   7.371   4.866   2.840  0.4011 -0.4587 -0.1534
   86SOPE  H11A 7992   7.457   4.801   2.867  0.2431  0.0302  1.6414
   86SOPE  H11B 7993   7.336   4.942   2.913 -0.9224  1.1760 -2.3738
   86SOPE     P 7994   7.556   4.922   2.659  0.6027  0.0942  0.1929
   86SOPE   O13 7995   7.604   5.037   2.579  0.3076 -0.5897 -0.3644
   86SOPE   O14 7996   7.552   4.801   2.573  0.2044 -0.4450 -0.6085
   86SOPE   O12 7997   7.408   4.942   2.724  0.2655  0.5443  0.7447
   86SOPE   O11 7998   7.649   4.888   2.786 -0.0117  0.0294  0.1433
   86SOPE    C1 7999   7.738   4.993   2.835 -0.0974  0.8961  0.0590
   86SOPE    HA 8000   7.694   5.095   2.838 -0.1053  0.8993 -0.1996
   86SOPE    HB 8001   7.825   5.009   2.769  1.3334  0.9261  1.8653
   86SOPE    C2 8002   7.790   4.954   2.970 -0.2726 -0.6761 -0.1926
   86SOPE    HS 8003   7.856   5.036   3.006 -1.8416 -0.6799  3.0455
   86SOPE   O21 8004   7.864   4.827   2.959  0.2533 -0.5457 -0.1818
   86SOPE   C21 8005   7.974   4.822   3.038 -0.4219  0.0352 -0.3629
   86SOPE   O22 8006   8.031   4.915   3.091  0.3935  0.1235 -0.2153
   86SOPE   C22 8007   8.027   4.678   3.044  0.3254 -0.2592  0.0541
   86SOPE   H2R 8008   8.100   4.679   3.129 -1.2469 -2.4382  1.5414
   86SOPE   H2S 8009   8.088   4.665   2.952 -0.5171  1.0674 -0.7145
   86SOPE    C3 8010   7.665   4.940   3.074  0.0061  0.3118 -0.2331
   86SOPE    HX 8011   7.626   4.839   3.050  1.3269 -0.6850  1.5630
   86SOPE    HY 8012   7.593   5.022   3.055 -3.6668 -2.6273 -0.0554
   86SOPE   O31 8013   7.709   4.940   3.211 -0.5990 -0.3050  0.2437
   86SOPE   C31 8014   7.621   4.890   3.297 -0.3428 -0.6193  0.2513
   86SOPE   O32 8015   7.507   4.856   3.277 -0.1288 -0.4864 -0.2266
   86SOPE   C32 8016   7.694   4.886   3.431  0.3886 -0.1500 -0.5467
   86SOPE   H2X 8017   7.781   4.954   3.427  0.3501 -0.0943 -0.4401
   86SOPE   H2Y 8018   7.724   4.783   3.458 -0.7550 -1.1085 -2.6353
   86SOPE   C23 8019   7.918   4.573   3.058 -0.0465  0.5739 -0.4076
   86SOPE   H3R 8020   7.960   4.470   3.050 -2.1950 -0.6425  2.1499
   86SOPE   H3S 8021   7.846   4.581   2.974  0.5301  0.6405 -0.9072
   86SOPE   C24 8022   7.846   4.557   3.196  0.5736  0.3684  0.4930
   86SOPE   H4R 8023   7.755   4.620   3.200 -1.5776 -2.5043  0.4451
   86SOPE   H4S 8024   7.810   4.452   3.197  0.4248  0.4176  1.3869
   86SOPE   C25 8025   7.929   4.589   3.322 -0.4351 -0.1507  0.0878
   86SOPE   H5R 8026   8.034   4.565   3.296 -0.4240  0.7965 -0.8299
   86SOPE   H5S 8027   7.923   4.697   3.347  0.6473 -0.0323 -0.1174
   86SOPE   C26 8028   7.888   4.506   3.445 -0.3128 -0.5332 -0.2481
   86SOPE   H6R 8029   7.782   4.483   3.466 -0.3959 -2.3086 -2.2851
   86SOPE   H6S 8030   7.929   4.406   3.417 -1.4001 -0.7862 -0.9994
   86SOPE   C27 8031   7.956   4.561   3.569 -0.5332  0.4256 -0.9022
   86SOPE   H7R 8032   8.064   4.535   3.569 -1.0005 -1.7676 -0.6452
   86SOPE   H7S 8033   7.957   4.672   3.563 -0.7911  0.5399  0.7015
   86SOPE   C28 8034   7.887   4.516   3.706 -0.3312 -0.4260 -0.0641
   86SOPE   H8R 8035   7.921   4.585   3.787 -2.1783 -0.4892  0.8257
   86SOPE   H8S 8036   7.778   4.538   3.702 -0.3371  0.1214  1.8055
   86SOPE   C29 8037   7.926   4.376   3.733  0.4995 -0.3498 -0.1335
   86SOPE   H91 8038   7.913   4.313   3.644  0.6832  1.4897 -1.5252
   86SOPE  C210 8039   7.982   4.335   3.852  0.1359  0.9125  0.1494
   86SOPE  H101 8040   8.009   4.229   3.868  0.3171  1.0531  0.8128
   86SOPE  C211 8041   8.000   4.417   3.969 -0.3100 -0.2686 -0.6543
   86SOPE  H11R 8042   7.935   4.506   3.959  1.0110  0.6575 -1.2064
   86SOPE  H11S 8043   8.105   4.452   3.979  0.5334 -2.9370  1.1677
   86SOPE  C212 8044   7.956   4.334   4.102 -0.0781 -0.0185  0.2731
   86SOPE  H12R 8045   8.018   4.245   4.123 -0.7344 -0.3907  0.6567
   86SOPE  H12S 8046   7.852   4.295   4.099  0.7566 -2.8681  3.2711
   86SOPE  C213 8047   7.962   4.409   4.236 -0.2350 -0.3950 -0.2168
   86SOPE  H13R 8048   7.919   4.364   4.328  1.3608  0.6917  1.1264
   86SOPE  H13S 8049   7.900   4.500   4.230 -1.5502 -1.2740 -0.3138
   86SOPE  C214 8050   8.105   4.447   4.273  0.2071  0.3229 -0.5180
   86SOPE  H14R 8051   8.134   4.514   4.189  2.4198  1.2037  0.8753
   86SOPE  H14S 8052   8.177   4.364   4.291 -1.1341 -0.4843  1.5129
   86SOPE  C215 8053   8.115   4.532   4.402  0.0005  0.0978 -0.0764
   86SOPE  H15R 8054   8.095   4.477   4.496 -2.0279 -1.7006 -1.4632
   86SOPE  H15S 8055   8.038   4.612   4.399  0.3624  0.4875  0.7888
   86SOPE  C216 8056   8.254   4.604   4.402 -0.7142 -0.0485  0.5201
   86SOPE  H16R 8057   8.251   4.683   4.323  1.0628 -0.8032 -0.3538
   86SOPE  H16S 8058   8.345   4.540   4.393  0.9514  2.3142 -0.5027
   86SOPE  C217 8059   8.272   4.694   4.526  1.0251 -0.6839 -0.6696
   86SOPE  H17R 8060   8.168   4.700   4.566  1.4766  2.8881  0.3400
   86SOPE  H17S 8061   8.314   4.794   4.502  0.1495  0.4447  2.0595
   86SOPE  C218 8062   8.358   4.637   4.635 -0.3835 -0.2401  0.1201
   86SOPE  H18R 8063   8.321   4.536   4.661  0.5568 -1.2882 -2.3388
   86SOPE  H18S 8064   8.348   4.701   4.725  0.2529 -0.4554  0.3423
   86SOPE  H18T 8065   8.463   4.644   4.600 -0.3785  2.6567  0.4635
   86SOPE   C33 8066   7.603   4.960   3.536 -0.2374  0.4806 -0.6807
   86SOPE   H3X 8067   7.509   4.904   3.556 -0.5128  0.9262 -0.7214
   86SOPE   H3Y 8068   7.576   5.063   3.503  0.0763  1.3791  1.6877
   86SOPE   C34 8069   7.683   4.983   3.665 -0.0470  0.7402 -0.3272
   86SOPE   H4X 8070   7.621   5.053   3.724  1.3661 -0.8272  3.3312
   86SOPE   H4Y 8071   7.782   5.024   3.637 -0.1788  0.7311 -0.8169
   86SOPE   C35 8072   7.726   4.858   3.743  0.2700  0.0517  1.0868
   86SOPE   H5X 8073   7.784   4.886   3.833 -1.5069 -0.8858  2.5800
   86SOPE   H5Y 8074   7.776   4.795   3.666 -2.6751 -0.6095 -0.4634
   86SOPE   C36 8075   7.604   4.776   3.786  0.0657  0.0213 -0.7949
   86SOPE   H6X 8076   7.647   4.699   3.853 -2.4603 -0.2257  0.7039
   86SOPE   H6Y 8077   7.552   4.736   3.696 -0.5121  0.3139 -0.5999
   86SOPE   C37 8078   7.499   4.845   3.883  0.4426 -0.1010 -0.6650
   86SOPE   H7X 8079   7.497   4.951   3.850  0.9608  0.1628  0.1210
   86SOPE   H7Y 8080   7.528   4.858   3.989 -0.6607  3.0963 -0.6382
   86SOPE   C38 8081   7.349   4.797   3.868 -0.1463 -0.3206  0.5100
   86SOPE   H8X 8082   7.329   4.796   3.759 -2.5511  2.0462  0.8416
   86SOPE   H8Y 8083   7.279   4.871   3.913 -0.5038 -0.1410 -0.3296
   86SOPE   C39 8084   7.316   4.669   3.940  0.4692 -0.4573  0.4214
   86SOPE   H9X 8085   7.411   4.623   3.977  0.9010 -1.9501 -2.2749
   86SOPE   H9Y 8086   7.276   4.594   3.869  3.4648 -3.4408  1.6071
   86SOPE  C310 8087   7.222   4.682   4.056 -0.3159 -0.5207  0.0929
   86SOPE  H10X 8088   7.140   4.755   4.037 -0.8777 -1.0009  0.6565
   86SOPE  H10Y 8089   7.276   4.737   4.136  0.7753  0.9528 -1.5663
   86SOPE  C311 8090   7.175   4.554   4.120 -0.8932  0.1896  0.4608
   86SOPE  H11X 8091   7.129   4.568   4.220  0.9897 -1.4844  1.6345
   86SOPE  H11Y 8092   7.273   4.505   4.140 -0.5683  0.5007 -0.3187
   86SOPE  C312 8093   7.094   4.453   4.045 -0.1257  0.2273 -0.0916
   86SOPE  H12X 8094   7.115   4.351   4.084 -0.4004  0.9619  2.1361
   86SOPE  H12Y 8095   7.134   4.453   3.942  0.4306  0.2777  0.1185
   86SOPE  C313 8096   6.940   4.470   4.050 -0.2221  0.0238 -1.1945
   86SOPE  H13X 8097   6.903   4.433   3.953 -0.8476  1.3515 -1.4813
   86SOPE  H13Y 8098   6.928   4.580   4.064 -2.2781 -0.2882 -0.1538
   86SOPE  C314 8099   6.872   4.393   4.169 -0.7793 -0.2655 -0.2783
   86SOPE  H14X 8100   6.920   4.420   4.265 -1.6705 -0.3432  0.2053
   86SOPE  H14Y 8101   6.903   4.287   4.160  2.7314  0.6739 -0.8795
   86SOPE  C315 8102   6.731   4.414   4.177  0.3367 -0.0738 -1.3094
   86SOPE  H15X 8103   6.720   4.525   4.181  1.5594  0.0421 -0.9502
   86SOPE  H15Y 8104   6.698   4.374   4.276  1.7020  0.0307 -0.7889
   86SOPE  C316 8105   6.655   4.352   4.065 -0.9526  0.4687  1.0243
   86SOPE  H16X 8106   6.678   4.244   4.056  0.2971  0.8326 -0.6052
   86SOPE  H16Y 8107   6.690   4.389   3.966  3.3900 -2.6257  1.1300
   86SOPE  C317 8108   6.508   4.380   4.069  0.0958  0.4751 -0.2540
   86SOPE  H17X 8109   6.475   4.486   4.067  0.8638  0.7261  0.0305
   86SOPE  H17Y 8110   6.476   4.346   4.169  0.0576  0.0412 -0.4092
   86SOPE  C318 8111   6.430   4.286   3.971  0.4794 -0.5449  0.6630
   86SOPE  H18X 8112   6.430   4.330   3.869  0.6435 -2.9280 -0.4365
   86SOPE  H18Y 8113   6.324   4.261   3.992  0.4183 -1.6097 -0.7447
   86SOPE  H18Z 8114   6.485   4.190   3.963  0.8411 -0.2345 -0.7778
   87SOPE     N 8115   2.125   3.057   2.182 -0.5369  0.0531 -0.2043
   87SOPE   HN1 8116   2.042   3.116   2.161 -0.1333 -0.2583 -3.0402
   87SOPE   HN2 8117   2.105   3.000   2.266 -2.0570  0.6451 -0.1386
   87SOPE   HN3 8118   2.199   3.128   2.204 -1.2529  1.0004 -0.7544
   87SOPE   C12 8119   2.164   2.968   2.075  0.2057 -0.0539  0.8763
   87SOPE  H12A 8120   2.225   3.020   1.998 -1.8562  0.4624 -0.4885
   87SOPE  H12B 8121   2.081   2.918   2.020  0.3663 -1.1058  1.5511
   87SOPE   C11 8122   2.246   2.849   2.130 -0.4046 -0.0794 -0.7439
   87SOPE  H11A 8123   2.338   2.887   2.180  0.4894 -3.4989  0.5021
   87SOPE  H11B 8124   2.294   2.787   2.051  2.2233  1.8572 -0.7979
   87SOPE     P 8125   2.142   2.628   2.209 -0.4942 -0.5924 -0.2182
   87SOPE   O13 8126   2.097   2.599   2.069 -0.3988 -0.5224  0.5843
   87SOPE   O14 8127   2.040   2.580   2.306 -0.0954  0.4453 -0.0231
   87SOPE   O12 8128   2.170   2.778   2.221  0.2270 -0.6972 -0.4272
   87SOPE   O11 8129   2.281   2.545   2.224 -0.9815  0.0126  0.7126
   87SOPE    C1 8130   2.369   2.569   2.333  1.1142  0.5583  0.0633
   87SOPE    HA 8131   2.393   2.676   2.352  0.6507  0.2317  3.0339
   87SOPE    HB 8132   2.466   2.524   2.304  0.6977 -1.1967  1.1878
   87SOPE    C2 8133   2.326   2.496   2.469  0.4301  0.0077 -0.4154
   87SOPE    HS 8134   2.279   2.397   2.447  1.3020 -0.7274  0.8784
   87SOPE   O21 8135   2.248   2.585   2.552  0.1409 -0.1066 -0.0272
   87SOPE   C21 8136   2.144   2.526   2.604 -0.0738  0.0160 -0.0932
   87SOPE   O22 8137   2.103   2.413   2.578  0.4275  0.7463  0.2285
   87SOPE   C22 8138   2.089   2.627   2.709 -0.4545 -0.1506  0.0031
   87SOPE   H2R 8139   2.017   2.694   2.656  0.4028 -0.7001 -1.9449
   87SOPE   H2S 8140   2.180   2.675   2.750  0.5391 -3.5919  2.2241
   87SOPE    C3 8141   2.444   2.450   2.557 -0.2937 -0.3313 -0.0931
   87SOPE    HX 8142   2.501   2.541   2.584 -0.9994  0.2059 -0.3915
   87SOPE    HY 8143   2.515   2.393   2.494 -0.0714  0.3771 -0.4855
   87SOPE   O31 8144   2.408   2.372   2.673 -0.7722 -0.1755  0.5098
   87SOPE   C31 8145   2.471   2.252   2.689  0.0471 -0.0664  0.3494
   87SOPE   O32 8146   2.560   2.205   2.618  0.1954  0.1574 -0.7028
   87SOPE   C32 8147   2.443   2.198   2.832 -0.4928  0.0386 -0.1778
   87SOPE   H2X 8148   2.423   2.089   2.822 -2.6662  0.1042  2.3687
   87SOPE   H2Y 8149   2.352   2.253   2.864 -0.1758  0.1238  0.5994
   87SOPE   C23 8150   2.017   2.563   2.830 -0.1904  0.8063 -0.4360
   87SOPE   H3R 8151   2.014   2.452   2.834  1.0387  0.7404 -0.6793
   87SOPE   H3S 8152   1.913   2.602   2.832 -0.5480 -0.1187  1.2552
   87SOPE   C24 8153   2.081   2.603   2.961  0.1156  0.0501 -0.6928
   87SOPE   H4R 8154   2.182   2.558   2.968  0.8019  1.6097 -0.1874
   87SOPE   H4S 8155   2.082   2.713   2.977  1.2390 -0.1748  0.9603
   87SOPE   C25 8156   2.010   2.536   3.084 -0.4310 -0.4715  0.1791
   87SOPE   H5R 8157   1.906   2.575   3.080  0.0194  0.7895  0.3712
   87SOPE   H5S 8158   2.008   2.426   3.068 -4.6149 -0.1398 -3.1314
   87SOPE   C26 8159   2.073   2.580   3.221  0.1134 -0.2706  0.2770
   87SOPE   H6R 8160   2.176   2.537   3.216 -0.3328 -1.2078 -1.5930
   87SOPE   H6S 8161   2.068   2.691   3.220  0.6914 -0.2343  0.6641
   87SOPE   C27 8162   1.990   2.518   3.333 -0.3751 -0.4528  0.2864
   87SOPE   H7R 8163   1.893   2.569   3.349 -1.1010 -1.4538 -0.7242
   87SOPE   H7S 8164   1.960   2.415   3.303 -1.4647 -0.0299 -0.0957
   87SOPE   C28 8165   2.079   2.501   3.458  0.4691  0.6177 -0.6860
   87SOPE   H8R 8166   2.161   2.433   3.425 -0.0451 -0.7618  0.7610
   87SOPE   H8S 8167   2.118   2.596   3.501  0.3165  0.4257 -0.1159
   87SOPE   C29 8168   2.015   2.418   3.571  0.7592  0.1547  1.0166
   87SOPE   H91 8169   2.019   2.308   3.560 -5.4170 -0.3886  0.7156
   87SOPE  C210 8170   1.992   2.461   3.694 -0.9973 -0.2895 -0.2702
   87SOPE  H101 8171   1.983   2.383   3.772 -0.2438 -1.3932 -1.2613
   87SOPE  C211 8172   1.990   2.601   3.761 -0.0048  0.0567 -0.2941
   87SOPE  H11R 8173   1.985   2.682   3.685  0.2435 -1.3142 -1.8251
   87SOPE  H11S 8174   2.074   2.620   3.831 -0.1537 -2.0819  0.5044
   87SOPE  C212 8175   1.876   2.602   3.866  0.3250 -0.8743  0.0088
   87SOPE  H12R 8176   1.887   2.531   3.951  0.9745 -0.6657  0.1105
   87SOPE  H12S 8177   1.781   2.575   3.815 -1.0380  0.1738  1.8709
   87SOPE  C213 8178   1.841   2.731   3.935  0.1460 -0.7422 -0.9476
   87SOPE  H13R 8179   1.803   2.808   3.865 -0.0814  0.7335  0.7119
   87SOPE  H13S 8180   1.934   2.764   3.987  0.6561 -3.3448 -0.0545
   87SOPE  C214 8181   1.730   2.708   4.045  0.1165 -0.0043  0.3510
   87SOPE  H14R 8182   1.753   2.611   4.094  1.2121 -0.4391 -0.9521
   87SOPE  H14S 8183   1.630   2.713   3.998 -0.3214 -3.7215  0.6275
   87SOPE  C215 8184   1.736   2.808   4.157  0.1690 -0.2788  0.6574
   87SOPE  H15R 8185   1.733   2.911   4.116  1.2994  0.2217  1.7610
   87SOPE  H15S 8186   1.831   2.805   4.213  1.8495 -1.0299 -2.0611
   87SOPE  C216 8187   1.616   2.784   4.248  0.0219 -0.5211  0.3446
   87SOPE  H16R 8188   1.605   2.675   4.270 -1.7184 -0.3732  0.3503
   87SOPE  H16S 8189   1.515   2.811   4.212 -0.9325  0.7069  3.5785
   87SOPE  C217 8190   1.650   2.845   4.378  0.6343 -0.4793 -0.6136
   87SOPE  H17R 8191   1.650   2.955   4.367 -0.8953 -0.4881 -0.9240
   87SOPE  H17S 8192   1.744   2.809   4.425  1.2759  0.1057 -1.4451
   87SOPE  C218 8193   1.541   2.820   4.485  0.2728 -0.0648  1.1254
   87SOPE  H18R 8194   1.441   2.856   4.453 -0.9821 -1.7445  2.9492
   87SOPE  H18S 8195   1.582   2.874   4.573  2.4476  0.5563 -0.1904
   87SOPE  H18T 8196   1.550   2.712   4.510  0.1208 -0.1528  0.8008
   87SOPE   C33 8197   2.562   2.232   2.923 -0.4819  0.3866 -0.2291
   87SOPE   H3X 8198   2.586   2.340   2.930  1.6336  0.1689 -2.6957
   87SOPE   H3Y 8199   2.664   2.191   2.906 -0.2108 -0.0945  2.2020
   87SOPE   C34 8200   2.543   2.198   3.075  0.4899  0.2265 -0.4109
   87SOPE   H4X 8201   2.520   2.090   3.083 -0.7448  0.4353 -0.9168
   87SOPE   H4Y 8202   2.459   2.264   3.106 -0.4537 -0.5834 -1.1883
   87SOPE   C35 8203   2.665   2.239   3.154 -0.3583 -0.2369  0.2160
   87SOPE   H5X 8204   2.676   2.349   3.145  0.0600 -0.4101 -2.3128
   87SOPE   H5Y 8205   2.754   2.197   3.101  1.9569  1.1480  2.7242
   87SOPE   C36 8206   2.675   2.202   3.303  0.0685 -0.4064 -0.1406
   87SOPE   H6X 8207   2.679   2.091   3.305 -0.2973 -0.4960 -2.1488
   87SOPE   H6Y 8208   2.581   2.243   3.346 -0.7591 -0.5490 -1.7320
   87SOPE   C37 8209   2.793   2.275   3.376 -0.0961 -0.1659  0.0131
   87SOPE   H7X 8210   2.765   2.381   3.392 -2.6026 -0.6908 -0.6090
   87SOPE   H7Y 8211   2.886   2.273   3.315 -0.5974 -1.1095 -0.7460
   87SOPE   C38 8212   2.841   2.196   3.501  0.8230 -0.5123  0.1184
   87SOPE   H8X 8213   2.885   2.098   3.472 -0.9316 -1.7197  1.2722
   87SOPE   H8Y 8214   2.752   2.180   3.566  0.7944 -1.1470 -0.0698
   87SOPE   C39 8215   2.929   2.292   3.580  0.0371  0.7548  0.0376
   87SOPE   H9X 8216   2.921   2.263   3.687  2.2078 -0.8300 -0.1687
   87SOPE   H9Y 8217   2.898   2.399   3.572  1.3782  1.1924  0.5261
   87SOPE  C310 8218   3.078   2.279   3.521  0.2262  0.1641  0.7887
   87SOPE  H10X 8219   3.082   2.317   3.416 -2.6595  0.2067  0.5924
   87SOPE  H10Y 8220   3.099   2.170   3.527  0.5594  0.0964 -0.9271
   87SOPE  C311 8221   3.180   2.350   3.608  0.2915  0.2164  0.6225
   87SOPE  H11X 8222   3.151   2.454   3.635 -0.8526 -0.0330  0.4189
   87SOPE  H11Y 8223   3.280   2.343   3.560  0.7156 -0.4878  1.5827
   87SOPE  C312 8224   3.203   2.280   3.745 -0.2417  0.7056 -0.5111
   87SOPE  H12X 8225   3.104   2.255   3.787 -0.0784 -1.9060 -1.4672
   87SOPE  H12Y 8226   3.257   2.346   3.816 -1.0457  0.0882  0.7103
   87SOPE  C313 8227   3.286   2.146   3.742 -0.6518  0.7107  0.5083
   87SOPE  H13X 8228   3.392   2.171   3.720 -0.9617  1.6902  0.0648
   87SOPE  H13Y 8229   3.250   2.075   3.665 -0.1656  1.8143 -0.7777
   87SOPE  C314 8230   3.279   2.085   3.882  0.1543 -0.7216 -0.7861
   87SOPE  H14X 8231   3.172   2.059   3.897 -0.2030  1.5918  1.3785
   87SOPE  H14Y 8232   3.301   2.160   3.961  0.1484 -1.8089  0.2940
   87SOPE  C315 8233   3.378   1.976   3.903  0.2020 -1.0915 -0.4208
   87SOPE  H15X 8234   3.478   2.021   3.887  0.4136 -0.6035  2.0062
   87SOPE  H15Y 8235   3.364   1.900   3.823  0.7694  0.7852 -2.3850
   87SOPE  C316 8236   3.368   1.901   4.038 -0.7945 -0.0502  0.1646
   87SOPE  H16X 8237   3.376   1.971   4.125 -0.0128 -2.7041  2.3791
   87SOPE  H16Y 8238   3.450   1.829   4.057 -0.5552 -0.3213 -1.7710
   87SOPE  C317 8239   3.231   1.835   4.062 -0.0630  0.0044 -0.0631
   87SOPE  H17X 8240   3.200   1.796   3.962  3.7487 -1.8036 -0.7040
   87SOPE  H17Y 8241   3.163   1.920   4.085 -0.3636  0.0345 -1.0125
   87SOPE  C318 8242   3.219   1.725   4.170  0.2094  0.4528  0.1954
   87SOPE  H18X 8243   3.122   1.672   4.177  0.0643  0.8920  1.9095
   87SOPE  H18Y 8244   3.234   1.768   4.271  2.0256  0.6118 -0.1106
   87SOPE  H18Z 8245   3.314   1.669   4.158  1.2453  1.9698  1.0947
   88SOPE     N 8246   2.474   5.503   1.855  0.4585  0.2035 -0.4639
   88SOPE   HN1 8247   2.427   5.505   1.762  1.8210  1.7396 -1.1795
   88SOPE   HN2 8248   2.488   5.405   1.886 -0.7660  0.3198  0.5242
   88SOPE   HN3 8249   2.419   5.555   1.926  1.5896 -0.5946  1.0470
   88SOPE   C12 8250   2.612   5.569   1.842 -0.4595  0.2930 -0.5807
   88SOPE  H12A 8251   2.597   5.671   1.802  0.6186  0.5785 -0.2776
   88SOPE  H12B 8252   2.664   5.509   1.765 -0.5145  1.4331 -1.5327
   88SOPE   C11 8253   2.685   5.555   1.981  0.9301  0.1773  0.4751
   88SOPE  H11A 8254   2.624   5.615   2.052  0.1098  0.1054 -0.1504
   88SOPE  H11B 8255   2.784   5.601   1.962  1.4963 -1.6545 -1.3520
   88SOPE     P 8256   2.797   5.387   2.147 -0.1084 -0.0201 -0.0146
   88SOPE   O13 8257   2.934   5.385   2.088  0.2347 -0.3169  0.3006
   88SOPE   O14 8258   2.755   5.258   2.207 -0.0562  0.0918  0.0736
   88SOPE   O12 8259   2.696   5.421   2.030 -0.4345 -0.9426 -0.5463
   88SOPE   O11 8260   2.785   5.504   2.251 -0.3849 -0.3459  0.7034
   88SOPE    C1 8261   2.795   5.468   2.393 -0.1602  0.9252 -0.1963
   88SOPE    HA 8262   2.872   5.534   2.438  2.4075 -0.0733 -2.8185
   88SOPE    HB 8263   2.843   5.368   2.407 -0.8122  0.6286 -0.0018
   88SOPE    C2 8264   2.655   5.468   2.469  0.3047 -0.3194  0.2355
   88SOPE    HS 8265   2.582   5.404   2.415 -0.2943  1.2176 -0.8774
   88SOPE   O21 8266   2.616   5.611   2.457 -0.9020  0.1439 -0.5215
   88SOPE   C21 8267   2.485   5.623   2.438 -0.3671  0.0214  0.8682
   88SOPE   O22 8268   2.398   5.537   2.458  0.3962 -0.0276  0.5980
   88SOPE   C22 8269   2.450   5.768   2.414  0.3594  0.0246  0.3042
   88SOPE   H2R 8270   2.345   5.766   2.377 -0.6627 -1.5035  2.9559
   88SOPE   H2S 8271   2.521   5.806   2.338  0.0062 -0.5948 -0.3504
   88SOPE    C3 8272   2.662   5.418   2.615 -0.1430 -0.2925 -0.1018
   88SOPE    HX 8273   2.720   5.493   2.673  0.1399  0.8887 -1.8429
   88SOPE    HY 8274   2.719   5.323   2.626 -0.6265 -0.3912  2.0565
   88SOPE   O31 8275   2.525   5.400   2.667 -0.2192 -0.4819 -0.3104
   88SOPE   C31 8276   2.460   5.289   2.643 -0.1282 -0.1087 -0.0175
   88SOPE   O32 8277   2.516   5.193   2.579 -0.7039  0.0135  0.2248
   88SOPE   C32 8278   2.314   5.303   2.680 -0.8010  0.0527  0.1099
   88SOPE   H2X 8279   2.257   5.222   2.629 -0.6738  0.2704 -0.3757
   88SOPE   H2Y 8280   2.275   5.393   2.629  3.6436 -0.0279 -4.0858
   88SOPE   C23 8281   2.452   5.852   2.547  0.0925 -0.2753 -0.0106
   88SOPE   H3R 8282   2.424   5.956   2.517  0.4996  0.3067  1.5427
   88SOPE   H3S 8283   2.556   5.865   2.582  0.5775 -0.1505 -1.4343
   88SOPE   C24 8284   2.353   5.806   2.658  0.6027  0.6443 -0.6593
   88SOPE   H4R 8285   2.254   5.793   2.608  1.2837  0.4497 -2.0245
   88SOPE   H4S 8286   2.387   5.705   2.689 -0.4412  0.5697  0.2890
   88SOPE   C25 8287   2.357   5.896   2.779 -0.1043 -0.1871 -0.0934
   88SOPE   H5R 8288   2.459   5.916   2.819 -0.7125 -0.9696  1.9703
   88SOPE   H5S 8289   2.295   5.987   2.763  2.2649  1.8293  1.3874
   88SOPE   C26 8290   2.285   5.815   2.895  0.0208  0.0283  0.1875
   88SOPE   H6R 8291   2.246   5.884   2.972  1.5158  0.2197  0.8082
   88SOPE   H6S 8292   2.193   5.768   2.854 -0.2303 -0.3735  1.1977
   88SOPE   C27 8293   2.368   5.698   2.964  0.1918  0.6920 -0.3054
   88SOPE   H7R 8294   2.300   5.645   3.034  0.1901 -1.2121 -1.6682
   88SOPE   H7S 8295   2.389   5.622   2.885  3.0346  1.7307 -0.6552
   88SOPE   C28 8296   2.505   5.740   3.031  0.1915  0.0232  0.6165
   88SOPE   H8R 8297   2.540   5.653   3.091  0.0979  0.5849  1.4902
   88SOPE   H8S 8298   2.579   5.762   2.950 -0.4937 -1.1641 -0.3665
   88SOPE   C29 8299   2.481   5.856   3.117 -0.1941 -0.0955 -0.1963
   88SOPE   H91 8300   2.501   5.952   3.066  2.1993  0.4429  1.5397
   88SOPE  C210 8301   2.462   5.856   3.246 -0.0789  0.2126 -0.6915
   88SOPE  H101 8302   2.455   5.953   3.298 -3.5125 -0.4752  0.3755
   88SOPE  C211 8303   2.434   5.733   3.333 -0.8526  0.2604 -0.2820
   88SOPE  H11R 8304   2.401   5.643   3.278 -1.6110 -0.2041  0.8854
   88SOPE  H11S 8305   2.350   5.745   3.405 -0.8175 -1.8242  0.1739
   88SOPE  C212 8306   2.558   5.702   3.424  0.0430 -0.1551 -1.3061
   88SOPE  H12R 8307   2.576   5.801   3.472  1.1149 -1.6258  1.5342
   88SOPE  H12S 8308   2.652   5.684   3.368 -0.4695 -0.5312 -2.0614
   88SOPE  C213 8309   2.532   5.595   3.529  0.2603 -0.4139  0.6168
   88SOPE  H13R 8310   2.541   5.497   3.478 -0.5826  0.2781 -0.9362
   88SOPE  H13S 8311   2.428   5.605   3.567  0.3798  4.3006  0.2556
   88SOPE  C214 8312   2.625   5.605   3.652 -0.1892  0.2626 -0.2557
   88SOPE  H14R 8313   2.613   5.705   3.700 -1.8255  0.4134 -0.9211
   88SOPE  H14S 8314   2.726   5.570   3.622 -0.0160 -0.0177  0.6536
   88SOPE  C215 8315   2.579   5.511   3.765  0.1030  0.0242  0.3244
   88SOPE  H15R 8316   2.585   5.409   3.722  2.0830 -0.4896  1.6522
   88SOPE  H15S 8317   2.476   5.549   3.781 -0.4974 -0.9809 -1.0433
   88SOPE  C216 8318   2.671   5.516   3.890  0.4060  0.1299 -0.1895
   88SOPE  H16R 8319   2.742   5.599   3.869  1.0202 -0.2808  0.2433
   88SOPE  H16S 8320   2.732   5.424   3.895  2.1510  1.2379 -0.0413
   88SOPE  C217 8321   2.595   5.538   4.015  0.5325 -0.2112 -0.7629
   88SOPE  H17R 8322   2.518   5.466   4.050 -0.7279  0.2989 -2.3779
   88SOPE  H17S 8323   2.539   5.633   4.006 -2.8559 -2.0885 -1.3062
   88SOPE  C218 8324   2.694   5.558   4.134 -0.0699 -0.1450 -0.4295
   88SOPE  H18R 8325   2.761   5.641   4.104 -1.9892  1.0619 -1.6194
   88SOPE  H18S 8326   2.757   5.467   4.138 -0.5399 -0.5036 -0.9331
   88SOPE  H18T 8327   2.645   5.578   4.232  1.1446 -0.4116  0.2499
   88SOPE   C33 8328   2.295   5.306   2.835  1.0726 -0.8064  0.1599
   88SOPE   H3X 8329   2.318   5.406   2.877 -1.3217 -0.6967  1.3835
   88SOPE   H3Y 8330   2.367   5.233   2.878  1.6565 -0.8325 -0.8277
   88SOPE   C34 8331   2.153   5.252   2.863 -0.1516 -0.3477  0.0794
   88SOPE   H4X 8332   2.119   5.172   2.794 -0.4628  1.1803 -1.6248
   88SOPE   H4Y 8333   2.074   5.330   2.856  3.3328  3.5179 -0.1070
   88SOPE   C35 8334   2.147   5.183   3.000 -0.1424  0.1044 -0.7689
   88SOPE   H5X 8335   2.218   5.098   3.000 -0.6402 -0.3196 -1.1368
   88SOPE   H5Y 8336   2.049   5.136   3.024  0.3604 -1.4264 -1.5424
   88SOPE   C36 8337   2.184   5.275   3.109 -0.6466 -0.3150  0.4145
   88SOPE   H6X 8338   2.120   5.365   3.117  1.0781  1.0656 -0.6676
   88SOPE   H6Y 8339   2.285   5.320   3.095 -0.6532 -0.5023 -0.2426
   88SOPE   C37 8340   2.188   5.210   3.248  0.1112  0.2940 -0.0332
   88SOPE   H7X 8341   2.245   5.116   3.240 -0.8300 -0.2347 -0.7657
   88SOPE   H7Y 8342   2.082   5.190   3.274  0.4623  0.3437  1.4971
   88SOPE   C38 8343   2.244   5.302   3.356 -0.1319  0.1435 -0.4101
   88SOPE   H8X 8344   2.193   5.400   3.352 -0.7383  0.0601  2.7079
   88SOPE   H8Y 8345   2.353   5.304   3.334 -0.1984  1.3593 -0.6829
   88SOPE   C39 8346   2.215   5.247   3.499 -0.2497  0.1632  0.0495
   88SOPE   H9X 8347   2.239   5.138   3.500  0.5607  0.3152  1.6368
   88SOPE   H9Y 8348   2.109   5.253   3.531  0.0659 -2.6198  2.0280
   88SOPE  C310 8349   2.306   5.299   3.617 -0.1796  0.1163 -0.1624
   88SOPE  H10X 8350   2.268   5.403   3.631  0.3070  0.2155  0.4684
   88SOPE  H10Y 8351   2.414   5.306   3.592  0.1409  0.8168  1.2801
   88SOPE  C311 8352   2.277   5.213   3.743  0.3809  0.4416 -0.1784
   88SOPE  H11X 8353   2.271   5.110   3.701 -1.9586  0.7177 -0.6135
   88SOPE  H11Y 8354   2.183   5.239   3.797  0.1469  0.5398 -0.6352
   88SOPE  C312 8355   2.383   5.192   3.857 -0.1264 -0.8793 -0.0181
   88SOPE  H12X 8356   2.475   5.254   3.846 -1.6452  1.6029  0.4971
   88SOPE  H12Y 8357   2.412   5.085   3.854 -0.0262 -0.9792  2.2235
   88SOPE  C313 8358   2.327   5.204   4.002 -0.5681  0.1492  0.6082
   88SOPE  H13X 8359   2.250   5.124   4.004 -0.9603  0.5286  0.7281
   88SOPE  H13Y 8360   2.271   5.297   4.024 -1.5253 -0.2451 -0.0533
   88SOPE  C314 8361   2.437   5.171   4.094 -0.3930  0.2436 -0.3776
   88SOPE  H14X 8362   2.513   5.251   4.079  0.3656 -0.6216 -1.3131
   88SOPE  H14Y 8363   2.489   5.080   4.057 -1.4676 -0.0033 -1.3341
   88SOPE  C315 8364   2.399   5.165   4.243 -0.3126 -0.1502 -0.4478
   88SOPE  H15X 8365   2.320   5.095   4.276 -1.3571  0.3755 -1.7548
   88SOPE  H15Y 8366   2.376   5.262   4.294  0.8080  0.3100 -0.7845
   88SOPE  C316 8367   2.516   5.121   4.333 -0.0097  0.0957  0.2700
   88SOPE  H16X 8368   2.489   5.141   4.439 -0.1133  0.6543  0.1430
   88SOPE  H16Y 8369   2.605   5.179   4.299 -3.6536  3.5320 -5.0511
   88SOPE  C317 8370   2.555   4.970   4.318  0.4295 -0.5412  0.4619
   88SOPE  H17X 8371   2.593   4.956   4.214  0.1578 -1.2519  0.4498
   88SOPE  H17Y 8372   2.465   4.906   4.332  0.2677 -0.1046  1.4654
   88SOPE  C318 8373   2.668   4.935   4.412  0.1561  0.6610  0.1103
   88SOPE  H18X 8374   2.756   4.991   4.373  0.9357 -0.7596 -0.2279
   88SOPE  H18Y 8375   2.698   4.828   4.413  1.0908  0.9190  0.8904
   88SOPE  H18Z 8376   2.641   4.966   4.515  0.3052  1.7089 -0.1562
   89SAPC     N 8377   0.229   2.809   7.102  0.1925 -0.3477 -0.6384
   89SAPC   C12 8378   0.115   2.876   7.026 -0.3380  0.1217  0.5241
   89SAPC  H12A 8379   0.094   2.979   7.050 -1.5218  0.5018 -1.8491
   89SAPC  H12B 8380   0.038   2.819   7.075  1.0665 -0.3845  2.2622
   89SAPC   C13 8381   0.361   2.888   7.092 -0.6135 -0.2202  0.3271
   89SAPC  H13A 8382   0.396   2.883   6.990  2.0851 -1.6537  1.2354
   89SAPC  H13B 8383   0.344   2.989   7.125 -1.9911  0.3178 -1.7959
   89SAPC  H13C 8384   0.435   2.849   7.160  2.4827  2.8013 -1.0434
   89SAPC   C14 8385   0.202   2.811   7.253 -0.6191  0.9226  0.0489
   89SAPC  H14A 8386   0.111   2.758   7.276 -0.6081  0.8378 -0.1027
   89SAPC  H14B 8387   0.290   2.766   7.297 -0.6555  0.5600 -0.2446
   89SAPC  H14C 8388   0.194   2.912   7.290  0.9779  1.3090 -0.5706
   89SAPC   C15 8389   0.248   2.670   7.061 -0.3564  0.0878  0.2722
   89SAPC  H15A 8390   0.287   2.663   6.960  0.5596  0.8778  0.5528
   89SAPC  H15B 8391   0.314   2.623   7.133 -0.1778  1.7468  1.2536
   89SAPC  H15C 8392   0.157   2.613   7.066  1.0959 -2.6486 -1.7314
   89SAPC   C11 8393   0.110   2.862   6.878 -0.3150 -0.0162  0.5987
   89SAPC  H11A 8394   0.016   2.904   6.838 -0.0006 -0.5944 -0.8048
   89SAPC  H11B 8395   0.098   2.756   6.847 -1.2818  0.2298  0.0978
   89SAPC     P 8396   0.220   3.077   6.778 -0.4758  0.2797  0.0822
   89SAPC   O13 8397   0.126   3.144   6.870  0.2466  0.3506 -0.1852
   89SAPC   O14 8398   0.357   3.125   6.778 -0.0634 -0.1700  0.1173
   89SAPC   O12 8399   0.222   2.924   6.821  0.1102 -0.1449 -0.1080
   89SAPC   O11 8400   0.152   3.075   6.636  0.5407  0.0312  0.4034
   89SAPC    C1 8401   0.177   2.977   6.534 -0.2279 -1.0856  0.1031
   89SAPC    HA 8402   0.281   2.999   6.503  0.4663 -0.1957  2.7483
   89SAPC    HB 8403   0.174   2.873   6.573  0.0184 -0.4969  1.8052
   89SAPC    C2 8404   0.066   2.992   6.430 -0.3647  0.3880 -0.1519
   89SAPC    HS 8405   0.057   3.095   6.390  0.1410  0.3132 -0.4675
   89SAPC   O21 8406  -0.060   2.939   6.476  0.4735 -0.1039 -0.2208
   89SAPC   C21 8407  -0.142   3.028   6.531  0.0981  0.3941  0.5958
   89SAPC   O22 8408  -0.106   3.138   6.575 -0.0072  0.0953 -0.2137
   89SAPC   C22 8409  -0.283   2.963   6.550  0.7163 -0.0476 -0.0909
   89SAPC   H2R 8410  -0.279   2.880   6.624 -3.1139  0.3239  0.7284
   89SAPC   H2S 8411  -0.352   3.037   6.595  0.7208 -1.3151  2.1473
   89SAPC    C3 8412   0.107   2.911   6.306  0.1931  0.2663  0.8154
   89SAPC    HX 8413   0.018   2.905   6.239  1.5612  1.2770 -1.2236
   89SAPC    HY 8414   0.128   2.809   6.343  1.2228  0.3459  0.4885
   89SAPC   O31 8415   0.221   2.977   6.243 -0.3568  0.0185 -0.8393
   89SAPC   C31 8416   0.192   3.052   6.144 -0.7871 -0.4575 -0.2367
   89SAPC   O32 8417   0.080   3.075   6.101  0.3219 -0.2625 -0.2827
   89SAPC   C32 8418   0.319   3.102   6.068 -0.1673  0.5008  0.1150
   89SAPC   H2X 8419   0.344   3.015   6.004  2.5071  3.3836 -3.1567
   89SAPC   H2Y 8420   0.403   3.104   6.141  0.6349 -1.9526 -0.6542
   89SAPC   C23 8421  -0.349   2.913   6.427 -0.2421 -0.7162 -0.1160
   89SAPC   H3R 8422  -0.336   2.993   6.351  0.2521 -0.8881 -0.2184
   89SAPC   H3S 8423  -0.459   2.897   6.440 -0.0498 -0.9227  1.4849
   89SAPC   C24 8424  -0.291   2.785   6.370  0.1939 -0.9216 -0.3554
   89SAPC   H4R 8425  -0.291   2.704   6.447  0.1230 -0.7486 -0.1728
   89SAPC   H4S 8426  -0.184   2.790   6.340  0.0600 -1.7716 -0.9999
   89SAPC   C25 8427  -0.362   2.728   6.251 -0.1323  0.1820 -0.4261
   89SAPC   H5R 8428  -0.468   2.749   6.235  0.0925  0.6597 -1.3539
   89SAPC   C26 8429  -0.298   2.659   6.154  1.5500  0.2217 -0.2432
   89SAPC   H6R 8430  -0.349   2.631   6.061  0.0818 -1.7460  1.0710
   89SAPC   C27 8431  -0.156   2.620   6.145 -0.2837  0.1152  0.4743
   89SAPC   H7R 8432  -0.129   2.524   6.195  2.5406  0.4276 -0.2744
   89SAPC   H7S 8433  -0.085   2.689   6.196  1.2339 -0.5410 -0.6580
   89SAPC   C28 8434  -0.121   2.613   5.990  0.8724  0.9476 -0.3172
   89SAPC   H8R 8435  -0.176   2.542   5.927 -1.3402  0.5940  1.8803
   89SAPC   C29 8436  -0.019   2.661   5.924 -1.2997 -0.1564  0.0354
   89SAPC   H9R 8437  -0.006   2.625   5.821 -0.8129 -0.6967  0.2782
   89SAPC  C210 8438   0.095   2.742   5.980 -0.3554 -0.3567  0.2651
   89SAPC  H10R 8439   0.181   2.689   6.027  0.6800  1.6204  0.7363
   89SAPC  H10S 8440   0.056   2.809   6.061 -1.3162 -2.4585  1.6203
   89SAPC  C211 8441   0.164   2.823   5.872 -0.1417  0.8672  0.0692
   89SAPC  H11R 8442   0.106   2.912   5.844 -0.3426  0.6112 -0.3458
   89SAPC  C212 8443   0.287   2.789   5.820 -0.2527 -0.3701  0.2876
   89SAPC  H12R 8444   0.336   2.864   5.756  0.0558 -0.1167  0.8150
   89SAPC  C213 8445   0.379   2.668   5.851 -0.2770 -0.3519 -0.4554
   89SAPC  H13R 8446   0.445   2.628   5.772  2.1842 -1.2877  1.9222
   89SAPC  H13S 8447   0.318   2.576   5.869  0.0205 -0.5722 -0.5718
   89SAPC  C214 8448   0.469   2.698   5.967 -0.1062 -0.4878 -0.4355
   89SAPC  H14R 8449   0.430   2.678   6.068  0.1366  2.0615  0.2357
   89SAPC  C215 8450   0.598   2.746   5.956  0.0069  0.2699  0.1878
   89SAPC  H15R 8451   0.659   2.742   6.048 -0.3509 -1.0151  0.3862
   89SAPC  C216 8452   0.674   2.768   5.824  0.4664 -1.2650 -0.3013
   89SAPC  H16R 8453   0.605   2.765   5.737 -0.1761 -0.0844  0.1391
   89SAPC  H16S 8454   0.759   2.699   5.810  0.1493 -1.2954 -2.4263
   89SAPC  C217 8455   0.740   2.911   5.814 -0.0570 -1.1071 -0.6524
   89SAPC  H17R 8456   0.804   2.942   5.899  0.3423  1.8052 -1.9127
   89SAPC  H17S 8457   0.654   2.980   5.825  1.9819  1.2277  1.8564
   89SAPC  C218 8458   0.824   2.920   5.692  1.0279 -0.6285  0.3812
   89SAPC  H18R 8459   0.763   2.883   5.607  1.2833 -0.1345 -0.0212
   89SAPC  H18S 8460   0.916   2.860   5.708  1.7936  0.2052 -0.7388
   89SAPC  C219 8461   0.870   3.060   5.648 -0.3008 -0.2678  0.2027
   89SAPC  H19R 8462   0.919   3.042   5.550 -1.1535  1.6340 -0.6228
   89SAPC  H19S 8463   0.938   3.098   5.726  0.0598  1.2300 -0.8022
   89SAPC  C220 8464   0.765   3.161   5.616  0.3143 -0.4076 -0.0186
   89SAPC  H20R 8465   0.808   3.241   5.552  0.8076  1.5850  2.6249
   89SAPC  H20S 8466   0.727   3.210   5.709  1.2727  0.4474 -0.0638
   89SAPC  H20T 8467   0.679   3.104   5.575 -1.1783 -0.3466  2.7560
   89SAPC   C33 8468   0.298   3.218   5.974 -0.1906  0.3432  0.7162
   89SAPC   H3X 8469   0.292   3.307   6.040  3.0539  0.6031  0.8075
   89SAPC   H3Y 8470   0.203   3.210   5.916  0.5732 -1.1409 -0.3978
   89SAPC   C34 8471   0.406   3.233   5.861 -0.0879  0.0833 -0.3553
   89SAPC   H4X 8472   0.436   3.134   5.821  3.6473  0.7697  0.3707
   89SAPC   H4Y 8473   0.495   3.276   5.912 -0.5531  0.5552  0.0689
   89SAPC   C35 8474   0.371   3.345   5.761  0.6518 -0.0542 -0.6838
   89SAPC   H5X 8475   0.382   3.448   5.801 -1.7232  0.3502 -0.9550
   89SAPC   H5Y 8476   0.262   3.341   5.741  0.5276  0.0423 -0.0417
   89SAPC   C36 8477   0.442   3.335   5.619 -0.1626 -0.9537  0.2770
   89SAPC   H6X 8478   0.550   3.340   5.642  0.1204 -2.9383 -0.3858
   89SAPC   H6Y 8479   0.415   3.418   5.551  2.0460  0.4133  0.9982
   89SAPC   C37 8480   0.410   3.196   5.540 -0.2777 -0.1264 -0.2638
   89SAPC   H7X 8481   0.416   3.113   5.614 -1.4855  2.7029  3.2726
   89SAPC   H7Y 8482   0.491   3.184   5.466  0.4595  2.6692 -0.0142
   89SAPC   C38 8483   0.272   3.204   5.480  1.1148 -0.5288  0.5712
   89SAPC   H8X 8484   0.254   3.310   5.452 -2.9787 -1.4970 -1.2221
   89SAPC   H8Y 8485   0.192   3.182   5.553  0.9885 -0.3810  0.4772
   89SAPC   C39 8486   0.249   3.108   5.368 -0.4797  0.2698  0.7811
   89SAPC   H9X 8487   0.220   3.005   5.399 -2.1109 -0.0699 -1.6367
   89SAPC   H9Y 8488   0.340   3.091   5.307  0.4238  1.1741  1.8380
   89SAPC  C310 8489   0.123   3.152   5.288 -0.2365 -0.8112 -0.1264
   89SAPC  H10X 8490   0.114   3.102   5.189 -2.1278  4.2642 -2.8423
   89SAPC  H10Y 8491   0.147   3.259   5.273  1.4374 -1.4111 -2.3631
   89SAPC  C311 8492  -0.008   3.140   5.364 -0.4073  0.3293 -0.2660
   89SAPC  H11X 8493  -0.010   3.197   5.460  2.0775  1.7157 -0.9543
   89SAPC  H11Y 8494  -0.018   3.033   5.393  0.4341  0.3466  0.1152
   89SAPC  C312 8495  -0.121   3.196   5.277  0.5252 -0.0076 -0.1869
   89SAPC  H12X 8496  -0.088   3.288   5.224 -0.0832 -0.4961 -1.4429
   89SAPC  H12Y 8497  -0.207   3.209   5.346  0.7214  0.0152  0.0588
   89SAPC  C313 8498  -0.172   3.092   5.178 -0.4848  0.3505  0.2347
   89SAPC  H13X 8499  -0.217   3.012   5.240  0.8465  1.1754  2.3703
   89SAPC  H13Y 8500  -0.088   3.036   5.131  0.0049  1.9008 -0.8307
   89SAPC  C314 8501  -0.263   3.130   5.065 -0.3596  0.5205 -0.8272
   89SAPC  H14X 8502  -0.211   3.199   4.996  1.3830 -0.5754 -0.6721
   89SAPC  H14Y 8503  -0.355   3.185   5.095  0.3193  1.9036 -1.2307
   89SAPC  C315 8504  -0.316   3.014   4.974  0.8804 -0.1288 -0.4313
   89SAPC  H15X 8505  -0.368   2.943   5.041 -0.3713 -0.3815 -1.6224
   89SAPC  H15Y 8506  -0.232   2.951   4.937  0.3510 -1.8314  1.1061
   89SAPC  C316 8507  -0.427   3.052   4.869  0.5225  0.2803  0.4297
   89SAPC  H16X 8508  -0.380   3.121   4.796  1.3595 -1.0259 -0.3108
   89SAPC  H16Y 8509  -0.507   3.103   4.926 -1.1870  1.2783 -2.5964
   89SAPC  C317 8510  -0.476   2.929   4.796 -0.2366  0.8238  0.1084
   89SAPC  H17X 8511  -0.481   2.848   4.872 -0.7326  1.0564  0.3285
   89SAPC  H17Y 8512  -0.398   2.897   4.724 -1.0081 -0.5870 -0.1315
   89SAPC  C318 8513  -0.609   2.932   4.723 -0.6837  0.5308 -0.0920
   89SAPC  H18X 8514  -0.629   2.834   4.674  0.4250 -0.0933  0.6650
   89SAPC  H18Y 8515  -0.598   3.006   4.641 -1.7878  0.5274 -0.2653
   89SAPC  H18Z 8516  -0.699   2.965   4.778 -1.3654 -1.1364 -0.1211
   90SAPC     N 8517   4.784   6.499   6.445  0.6709 -0.5263  0.8579
   90SAPC   C12 8518   4.799   6.639   6.497 -1.0245  0.0810  0.1736
   90SAPC  H12A 8519   4.834   6.637   6.599 -0.4195  0.0769 -0.0349
   90SAPC  H12B 8520   4.697   6.669   6.517 -1.4790 -1.7359  0.7170
   90SAPC   C13 8521   4.738   6.498   6.304  0.8647 -0.2416 -0.9424
   90SAPC  H13A 8522   4.733   6.399   6.263  0.9324 -0.1152 -1.2617
   90SAPC  H13B 8523   4.649   6.560   6.296 -0.1899 -1.3090  1.4028
   90SAPC  H13C 8524   4.808   6.555   6.246  0.0624  1.2204 -0.5352
   90SAPC   C14 8525   4.907   6.418   6.451  0.0350 -0.7558  0.3201
   90SAPC  H14A 8526   4.914   6.374   6.550  0.1152  0.6213  0.9396
   90SAPC  H14B 8527   4.921   6.341   6.376  1.5483 -0.1898 -0.0166
   90SAPC  H14C 8528   4.983   6.494   6.443 -0.2780 -0.3358  1.2222
   90SAPC   C15 8529   4.679   6.433   6.535 -0.0607 -0.5022 -0.0589
   90SAPC  H15A 8530   4.577   6.463   6.519 -0.1193 -0.2374  0.7828
   90SAPC  H15B 8531   4.676   6.327   6.517  1.5550 -0.9196  1.7763
   90SAPC  H15C 8532   4.703   6.445   6.640  2.3673 -0.3168 -0.5754
   90SAPC   C11 8533   4.876   6.743   6.412  0.3026 -0.1540  0.2220
   90SAPC  H11A 8534   4.849   6.845   6.449  1.1106  0.5888 -1.1413
   90SAPC  H11B 8535   4.847   6.733   6.305 -3.4077  0.6157  1.0387
   90SAPC     P 8536   5.115   6.833   6.373  0.0451 -0.3151 -0.2750
   90SAPC   O13 8537   5.036   6.952   6.330 -0.3842 -0.2240  0.3538
   90SAPC   O14 8538   5.214   6.859   6.479  0.0055 -0.0268 -0.1270
   90SAPC   O12 8539   5.017   6.715   6.419  0.3184  0.0702 -0.3123
   90SAPC   O11 8540   5.197   6.781   6.253  0.5348  0.5223  0.4357
   90SAPC    C1 8541   5.184   6.645   6.196 -0.3022 -0.5675  0.0390
   90SAPC    HA 8542   5.288   6.612   6.173 -0.2258 -0.3029 -0.0125
   90SAPC    HB 8543   5.147   6.571   6.269 -0.2422  0.5370  1.2371
   90SAPC    C2 8544   5.106   6.630   6.065 -0.4024  0.9714  0.8741
   90SAPC    HS 8545   5.179   6.663   5.988 -1.1249  2.3420  0.7432
   90SAPC   O21 8546   4.984   6.708   6.067  0.2736 -0.1188 -0.0513
   90SAPC   C21 8547   4.982   6.833   6.023  0.3470  0.1983 -0.5645
   90SAPC   O22 8548   5.068   6.887   5.959 -0.5121 -0.3586 -0.4791
   90SAPC   C22 8549   4.846   6.892   6.060  0.0544 -0.5378  0.5720
   90SAPC   H2R 8550   4.823   6.894   6.168  1.2721 -2.5462  0.9078
   90SAPC   H2S 8551   4.843   7.000   6.033  1.3771  0.0296  2.5167
   90SAPC    C3 8552   5.066   6.483   6.037  0.3948  0.4741  0.3479
   90SAPC    HX 8553   5.011   6.443   6.124 -2.5490  0.5162 -1.3386
   90SAPC    HY 8554   5.165   6.433   6.033  0.4587  0.5605  0.8098
   90SAPC   O31 8555   4.987   6.477   5.913 -0.8810 -0.7169  0.1853
   90SAPC   C31 8556   4.875   6.399   5.918 -0.4433 -0.4797  0.2290
   90SAPC   O32 8557   4.836   6.336   6.013  0.2902  0.0491  0.5544
   90SAPC   C32 8558   4.810   6.411   5.781  0.4959  0.3537 -0.0935
   90SAPC   H2X 8559   4.871   6.379   5.694  0.2845  2.2387 -1.0006
   90SAPC   H2Y 8560   4.793   6.521   5.772  0.5400  0.3193 -0.6290
   90SAPC   C23 8561   4.720   6.822   5.985 -0.1474  0.3619 -0.5088
   90SAPC   H3R 8562   4.634   6.840   6.052 -0.1495 -2.7669  0.4629
   90SAPC   H3S 8563   4.727   6.711   5.991  2.5374  0.5190  1.0095
   90SAPC   C24 8564   4.704   6.879   5.847 -0.3930  0.3408  0.2670
   90SAPC   H4R 8565   4.704   6.990   5.854 -0.4990  0.2560  1.9616
   90SAPC   H4S 8566   4.605   6.850   5.806 -0.5835  0.8024  0.3854
   90SAPC   C25 8567   4.816   6.831   5.753  0.0698 -0.1112  0.1786
   90SAPC   H5R 8568   4.888   6.760   5.797 -1.2031 -1.7102 -0.2102
   90SAPC   C26 8569   4.821   6.865   5.623 -0.2925  0.7306 -0.2664
   90SAPC   H6R 8570   4.905   6.822   5.566 -1.0203 -4.0197  1.7430
   90SAPC   C27 8571   4.725   6.951   5.549 -0.0173  0.1461  0.4961
   90SAPC   H7R 8572   4.787   7.025   5.493 -0.3114  0.6263  0.7963
   90SAPC   H7S 8573   4.664   7.020   5.611 -0.5388  1.9602 -1.8734
   90SAPC   C28 8574   4.633   6.872   5.463  0.3035  1.0308 -0.3887
   90SAPC   H8R 8575   4.545   6.836   5.518  1.1037  1.3367  1.1623
   90SAPC   C29 8576   4.641   6.840   5.332 -0.4677  0.0038  0.3313
   90SAPC   H9R 8577   4.551   6.793   5.288 -0.3080 -1.1130  1.1634
   90SAPC  C210 8578   4.744   6.888   5.228  0.0181  0.0845  0.3058
   90SAPC  H10R 8579   4.811   6.801   5.211  0.0376 -0.1654  1.5611
   90SAPC  H10S 8580   4.808   6.968   5.272  2.6379 -1.5770 -0.2817
   90SAPC  C211 8581   4.694   6.931   5.084 -0.8838 -0.2605  0.1404
   90SAPC  H11R 8582   4.617   6.864   5.043 -1.1913  0.0744  0.1666
   90SAPC  C212 8583   4.732   7.039   5.007  0.3605  0.5844  0.2064
   90SAPC  H12R 8584   4.687   7.045   4.907 -0.0305 -1.6788  0.1913
   90SAPC  C213 8585   4.827   7.145   5.055 -0.0625 -1.1419  0.1719
   90SAPC  H13R 8586   4.916   7.142   4.989  0.2912 -3.5238  0.6549
   90SAPC  H13S 8587   4.870   7.122   5.154 -0.8105 -0.5574  0.6432
   90SAPC  C214 8588   4.769   7.284   5.079  0.4022  0.0738  0.1168
   90SAPC  H14R 8589   4.767   7.319   5.183 -0.0339  1.0231 -0.2001
   90SAPC  C215 8590   4.682   7.353   4.993 -0.3394 -0.1333 -0.1072
   90SAPC  H15R 8591   4.638   7.449   5.025 -1.3110 -0.6656  0.2102
   90SAPC  C216 8592   4.651   7.325   4.847 -0.4037 -0.3651 -0.3344
   90SAPC  H16R 8593   4.542   7.307   4.838 -0.4749 -0.1384  0.0646
   90SAPC  H16S 8594   4.708   7.233   4.822 -4.4287 -3.6620  1.4437
   90SAPC  C217 8595   4.700   7.448   4.754 -0.3980  0.2809  0.1389
   90SAPC  H17R 8596   4.811   7.457   4.759 -0.0514 -2.2223 -1.4790
   90SAPC  H17S 8597   4.655   7.541   4.796  1.2758  0.7068  1.1128
   90SAPC  C218 8598   4.648   7.447   4.609  0.1353  0.1251 -0.3386
   90SAPC  H18R 8599   4.538   7.439   4.596  0.0137  0.6319  0.2818
   90SAPC  H18S 8600   4.699   7.358   4.567 -0.3606 -0.3536  0.0715
   90SAPC  C219 8601   4.688   7.574   4.532  0.7017 -0.4304  0.0502
   90SAPC  H19R 8602   4.799   7.570   4.539  0.6448 -4.4894  1.3544
   90SAPC  H19S 8603   4.642   7.663   4.580 -0.5019 -0.5828 -0.7777
   90SAPC  C220 8604   4.655   7.583   4.388  0.4132 -0.6908 -0.3806
   90SAPC  H20R 8605   4.549   7.557   4.369  0.5398 -1.0030 -0.6758
   90SAPC  H20S 8606   4.725   7.533   4.317  0.2744 -0.8192 -0.4258
   90SAPC  H20T 8607   4.670   7.689   4.357 -0.5783 -0.8483 -1.4394
   90SAPC   C33 8608   4.667   6.357   5.784 -0.0740  0.3173 -0.2177
   90SAPC   H3X 8609   4.597   6.409   5.853 -1.2532 -1.0527 -0.3241
   90SAPC   H3Y 8610   4.680   6.253   5.821  0.2500  1.0742  1.9866
   90SAPC   C34 8611   4.593   6.367   5.649 -0.0460  0.0452 -0.3643
   90SAPC   H4X 8612   4.497   6.317   5.676  1.4037 -3.2317 -0.7838
   90SAPC   H4Y 8613   4.640   6.304   5.570  2.1094 -2.1547  2.4564
   90SAPC   C35 8614   4.565   6.511   5.605 -0.4399 -0.1701  0.2686
   90SAPC   H5X 8615   4.659   6.570   5.606  0.8474 -2.1158  0.9499
   90SAPC   H5Y 8616   4.492   6.546   5.681 -2.5900 -2.0274 -0.8089
   90SAPC   C36 8617   4.503   6.536   5.465 -0.3644  0.3902  0.4635
   90SAPC   H6X 8618   4.587   6.539   5.392 -0.8666 -0.2129 -0.1360
   90SAPC   H6Y 8619   4.458   6.637   5.454 -2.3981 -0.4620  0.6449
   90SAPC   C37 8620   4.389   6.445   5.422 -0.4954  0.6666  0.6910
   90SAPC   H7X 8621   4.324   6.433   5.512  0.0181 -3.4313  0.7180
   90SAPC   H7Y 8622   4.429   6.344   5.399 -0.3360  0.4668  1.7734
   90SAPC   C38 8623   4.299   6.508   5.311 -0.4563 -0.1303 -0.1736
   90SAPC   H8X 8624   4.364   6.560   5.238 -0.1008  2.3836  1.7765
   90SAPC   H8Y 8625   4.244   6.590   5.362 -1.9782 -1.2579  0.0622
   90SAPC   C39 8626   4.214   6.413   5.224 -0.3930  0.2553  0.0504
   90SAPC   H9X 8627   4.132   6.373   5.288 -0.6985  0.9490  0.1012
   90SAPC   H9Y 8628   4.276   6.324   5.201 -0.9751 -0.6631  1.8444
   90SAPC  C310 8629   4.150   6.474   5.093 -0.4164  0.8259 -1.2995
   90SAPC  H10X 8630   4.108   6.391   5.033  1.6060 -1.1967 -0.0609
   90SAPC  H10Y 8631   4.229   6.521   5.030  1.4433 -0.1195  0.2294
   90SAPC  C311 8632   4.040   6.570   5.132  0.3764  0.4270 -0.9010
   90SAPC  H11X 8633   4.088   6.668   5.156  0.8980  0.4656 -2.0576
   90SAPC  H11Y 8634   3.978   6.538   5.219  3.1360 -0.6295  0.7914
   90SAPC  C312 8635   3.933   6.595   5.019 -0.5957 -0.6014  0.0372
   90SAPC  H12X 8636   3.985   6.640   4.933  0.9204 -2.7166 -0.2168
   90SAPC  H12Y 8637   3.859   6.668   5.059  2.5778  3.0053 -0.0869
   90SAPC  C313 8638   3.874   6.458   4.964 -0.1764 -0.4372  0.1454
   90SAPC  H13X 8639   3.865   6.382   5.044 -4.2648 -1.6859 -1.2502
   90SAPC  H13Y 8640   3.947   6.417   4.890 -1.1072  0.5590 -1.3852
   90SAPC  C314 8641   3.737   6.475   4.901  0.0021  0.5329 -0.3167
   90SAPC  H14X 8642   3.659   6.488   4.978 -0.6019 -3.2109 -0.1324
   90SAPC  H14Y 8643   3.705   6.374   4.868 -3.3854  1.0268  1.0641
   90SAPC  C315 8644   3.734   6.579   4.794 -0.3405 -0.5457 -0.2442
   90SAPC  H15X 8645   3.829   6.569   4.737 -0.2816  0.9557 -0.4381
   90SAPC  H15Y 8646   3.739   6.677   4.847 -0.7326 -0.2176 -0.8094
   90SAPC  C316 8647   3.621   6.578   4.697  0.0540 -0.4165  0.0624
   90SAPC  H16X 8648   3.632   6.676   4.646  2.3828 -0.9927 -0.6452
   90SAPC  H16Y 8649   3.531   6.576   4.762 -0.9570  0.8172 -1.2395
   90SAPC  C317 8650   3.627   6.474   4.590  0.3107  0.1756  0.3667
   90SAPC  H17X 8651   3.651   6.372   4.629 -0.3158  0.2781  1.0564
   90SAPC  H17Y 8652   3.711   6.497   4.521 -0.6105  0.7294 -0.5959
   90SAPC  C318 8653   3.501   6.462   4.505  0.2072 -0.1232 -0.9193
   90SAPC  H18X 8654   3.480   6.551   4.443 -1.7170 -0.3559 -0.6504
   90SAPC  H18Y 8655   3.419   6.439   4.576  0.8702 -0.6269 -0.3100
   90SAPC  H18Z 8656   3.509   6.377   4.434  0.9584  0.9338 -2.1487
   91SAPC     N 8657   0.492   6.622   6.462 -0.0616  0.3667  0.1850
   91SAPC   C12 8658   0.557   6.563   6.339 -0.8849  0.6929  1.1183
   91SAPC  H12A 8659   0.643   6.505   6.370 -0.0146  2.0844  1.3901
   91SAPC  H12B 8660   0.605   6.640   6.280 -0.9878 -1.2117 -1.6421
   91SAPC   C13 8661   0.595   6.681   6.550 -0.1702 -0.6750  0.5080
   91SAPC  H13A 8662   0.637   6.770   6.506 -0.2059 -0.5583  0.7078
   91SAPC  H13B 8663   0.561   6.718   6.646 -3.0632  2.7551 -1.5729
   91SAPC  H13C 8664   0.676   6.612   6.563  0.7231 -0.0020 -1.2363
   91SAPC   C14 8665   0.398   6.729   6.426  0.5852 -0.6934  0.1663
   91SAPC  H14A 8666   0.337   6.764   6.509 -2.1884 -2.6735 -0.8876
   91SAPC  H14B 8667   0.460   6.812   6.393 -0.8870  0.3381 -0.0984
   91SAPC  H14C 8668   0.337   6.703   6.341  0.5076  2.5537 -0.9112
   91SAPC   C15 8669   0.422   6.520   6.541  0.2335 -0.3671  0.1233
   91SAPC  H15A 8670   0.345   6.478   6.478 -0.0365  0.3466 -0.0327
   91SAPC  H15B 8671   0.486   6.437   6.569  0.5556  0.0077  0.5086
   91SAPC  H15C 8672   0.369   6.561   6.626 -2.0321  0.4384 -1.5833
   91SAPC   C11 8673   0.465   6.475   6.247 -0.1691 -0.1440 -0.2757
   91SAPC  H11A 8674   0.513   6.468   6.147  0.2419  1.9428 -0.2678
   91SAPC  H11B 8675   0.370   6.530   6.226  0.9794  1.0949 -2.6375
   91SAPC     P 8676   0.311   6.271   6.278  0.6740  0.4185 -0.5688
   91SAPC   O13 8677   0.319   6.134   6.336  0.4414  0.1020 -0.0647
   91SAPC   O14 8678   0.207   6.360   6.325 -0.0627  0.1541  0.0073
   91SAPC   O12 8679   0.447   6.338   6.302 -0.2587  0.2206  0.2139
   91SAPC   O11 8680   0.297   6.265   6.122  0.6366 -0.1833  0.3610
   91SAPC    C1 8681   0.326   6.138   6.056 -0.2484 -0.4730 -0.0804
   91SAPC    HA 8682   0.303   6.045   6.112 -3.0421 -1.6364 -2.8765
   91SAPC    HB 8683   0.264   6.123   5.965 -0.2997 -1.1566  0.0593
   91SAPC    C2 8684   0.478   6.125   6.018 -0.3688 -0.2881  0.0168
   91SAPC    HS 8685   0.513   6.139   6.123 -1.0896  1.3569  0.0718
   91SAPC   O21 8686   0.515   6.230   5.931 -0.0285  0.1896  0.4585
   91SAPC   C21 8687   0.640   6.268   5.959 -0.2548 -0.5005 -0.1640
   91SAPC   O22 8688   0.701   6.249   6.062  0.1281 -0.5509 -0.0655
   91SAPC   C22 8689   0.701   6.330   5.828 -0.1101  0.0360 -1.1805
   91SAPC   H2R 8690   0.726   6.249   5.757 -1.3289 -2.9747  1.6037
   91SAPC   H2S 8691   0.621   6.387   5.776 -0.6960 -1.9209 -2.5306
   91SAPC    C3 8692   0.520   5.984   5.974 -0.3299  0.0529  0.1327
   91SAPC    HX 8693   0.488   5.924   6.062 -2.4997  1.2708  0.2574
   91SAPC    HY 8694   0.631   5.982   5.967 -0.4285 -0.8100 -1.5546
   91SAPC   O31 8695   0.456   5.947   5.846 -0.4178 -0.1602  0.3277
   91SAPC   C31 8696   0.403   5.828   5.848  0.3283  0.8643  0.8572
   91SAPC   O32 8697   0.403   5.748   5.939 -0.0431 -0.0893  0.3781
   91SAPC   C32 8698   0.340   5.801   5.711 -0.0761  0.3467  0.6108
   91SAPC   H2X 8699   0.423   5.764   5.646 -1.2647 -1.5279  0.0933
   91SAPC   H2Y 8700   0.285   5.887   5.666 -0.7470  0.2674  1.2717
   91SAPC   C23 8701   0.827   6.422   5.850  0.5091 -0.1499 -0.1211
   91SAPC   H3R 8702   0.893   6.377   5.927 -0.5742  0.7188  1.3664
   91SAPC   H3S 8703   0.798   6.521   5.891  2.4540  0.7886 -0.8785
   91SAPC   C24 8704   0.917   6.435   5.722 -0.0025 -0.1191 -0.3067
   91SAPC   H4R 8705   0.985   6.517   5.753  1.4829 -1.6886  0.7913
   91SAPC   H4S 8706   0.857   6.477   5.638 -1.2733  0.1521  0.7085
   91SAPC   C25 8707   0.990   6.301   5.691 -0.5114 -0.6397  0.0507
   91SAPC   H5R 8708   1.021   6.247   5.782  2.8347  1.4613  0.3302
   91SAPC   C26 8709   1.030   6.267   5.564 -0.0605 -0.6764  0.0966
   91SAPC   H6R 8710   1.090   6.175   5.550  0.3739 -0.1702 -1.6931
   91SAPC   C27 8711   0.988   6.336   5.437  0.4081  0.0118 -0.0086
   91SAPC   H7R 8712   1.058   6.418   5.412  0.5261 -0.0909 -0.0111
   91SAPC   H7S 8713   0.887   6.382   5.441 -0.2516 -1.4190  0.4798
   91SAPC   C28 8714   0.984   6.242   5.323 -0.1113  0.0501  0.2934
   91SAPC   H8R 8715   0.929   6.149   5.345  0.1860 -0.3392 -0.5667
   91SAPC   C29 8716   1.023   6.251   5.192  0.4960 -0.2927 -1.2716
   91SAPC   H9R 8717   1.010   6.159   5.134  0.1481 -2.2089  1.6487
   91SAPC  C210 8718   1.108   6.363   5.132 -1.3822 -0.5475  0.6334
   91SAPC  H10R 8719   1.101   6.452   5.198  0.7113 -0.3892  0.6975
   91SAPC  H10S 8720   1.058   6.393   5.037  1.6794  0.2123 -0.8750
   91SAPC  C211 8721   1.262   6.333   5.129  0.0316 -0.1068  0.1527
   91SAPC  H11R 8722   1.308   6.342   5.229 -0.5321  1.8511  0.2881
   91SAPC  C212 8723   1.329   6.289   5.024 -0.2541  0.1944 -0.0135
   91SAPC  H12R 8724   1.439   6.288   5.030 -0.2627  0.0667  0.1313
   91SAPC  C213 8725   1.272   6.272   4.884 -0.2937 -0.0110  0.0139
   91SAPC  H13R 8726   1.179   6.331   4.874  0.7989  1.8193  0.2016
   91SAPC  H13S 8727   1.247   6.166   4.863 -0.9632  0.0642  0.4179
   91SAPC  C214 8728   1.367   6.319   4.777  0.4196  0.0033  0.7646
   91SAPC  H14R 8729   1.441   6.393   4.811  1.4223 -0.0511 -1.1733
   91SAPC  C215 8730   1.350   6.293   4.645 -0.2339 -0.3953 -0.2899
   91SAPC  H15R 8731   1.423   6.331   4.573 -2.0268  1.5270 -1.2102
   91SAPC  C216 8732   1.259   6.184   4.587 -0.0345  0.0147  0.0075
   91SAPC  H16R 8733   1.174   6.228   4.532 -1.8015 -1.9654  0.9976
   91SAPC  H16S 8734   1.213   6.114   4.660  0.7386 -2.2117 -1.4944
   91SAPC  C217 8735   1.334   6.093   4.492  0.2879 -0.0015  0.4540
   91SAPC  H17R 8736   1.285   5.996   4.470 -0.6533  0.3710  0.8852
   91SAPC  H17S 8737   1.443   6.078   4.511  0.4557 -1.5790 -1.4333
   91SAPC  C218 8738   1.366   6.160   4.352  0.7405  0.0765 -0.3741
   91SAPC  H18R 8739   1.422   6.255   4.364  1.0142 -0.1290  0.0058
   91SAPC  H18S 8740   1.267   6.183   4.306  0.3949  0.8261  0.7055
   91SAPC  C219 8741   1.454   6.067   4.269 -0.3263  0.5681  0.3233
   91SAPC  H19R 8742   1.380   5.990   4.237  1.2410 -0.4294 -1.0720
   91SAPC  H19S 8743   1.538   6.024   4.327  2.1249  2.7415 -1.3445
   91SAPC  C220 8744   1.517   6.134   4.140  0.3467  0.9440 -0.3020
   91SAPC  H20R 8745   1.562   6.233   4.165  3.6287 -0.4862 -0.0956
   91SAPC  H20S 8746   1.430   6.156   4.075 -0.1842  0.1025  0.1035
   91SAPC  H20T 8747   1.588   6.067   4.087 -0.1452  0.1756 -0.0129
   91SAPC   C33 8748   0.238   5.688   5.730  0.6898 -0.5437 -0.1587
   91SAPC   H3X 8749   0.167   5.718   5.810  2.4323  0.7327  1.0076
   91SAPC   H3Y 8750   0.286   5.592   5.758  0.0437 -0.9613 -0.4604
   91SAPC   C34 8751   0.160   5.657   5.602  0.2363  0.0476 -0.6529
   91SAPC   H4X 8752   0.105   5.753   5.586 -0.7231 -0.2879  0.4257
   91SAPC   H4Y 8753   0.085   5.576   5.618 -0.6278  0.9632  0.1460
   91SAPC   C35 8754   0.248   5.606   5.483 -0.3159  0.5460  0.2264
   91SAPC   H5X 8755   0.293   5.510   5.516  2.3659  1.3591 -0.8118
   91SAPC   H5Y 8756   0.336   5.672   5.470 -0.5135  0.6332 -0.7748
   91SAPC   C36 8757   0.181   5.579   5.352  0.6242 -0.2653 -0.5126
   91SAPC   H6X 8758   0.108   5.657   5.323  0.2477  0.1201  1.3148
   91SAPC   H6Y 8759   0.134   5.479   5.365 -0.7867  0.6277  2.0192
   91SAPC   C37 8760   0.268   5.569   5.230  0.6792  0.2333  0.6767
   91SAPC   H7X 8761   0.357   5.503   5.244  1.0421  0.4917 -0.3431
   91SAPC   H7Y 8762   0.315   5.669   5.214 -1.4271  1.5391  2.1537
   91SAPC   C38 8763   0.183   5.521   5.108  0.5582 -0.6572 -0.8439
   91SAPC   H8X 8764   0.107   5.598   5.080  1.2588  1.0038  1.5385
   91SAPC   H8Y 8765   0.116   5.434   5.122  1.5087 -1.4958 -1.3238
   91SAPC   C39 8766   0.265   5.477   4.992 -0.4368  0.2725  0.0993
   91SAPC   H9X 8767   0.323   5.384   5.011 -2.0667 -0.4292  2.0516
   91SAPC   H9Y 8768   0.337   5.559   4.972 -1.1906  0.7383 -0.7287
   91SAPC  C310 8769   0.198   5.444   4.853  0.3674  0.0199 -0.5963
   91SAPC  H10X 8770   0.138   5.351   4.865 -0.0574  0.3428 -0.1660
   91SAPC  H10Y 8771   0.274   5.426   4.775  1.7670 -1.8643  1.1024
   91SAPC  C311 8772   0.124   5.562   4.788  0.1729  0.5599  1.2034
   91SAPC  H11X 8773   0.193   5.649   4.796  0.8451  0.0952  0.5964
   91SAPC  H11Y 8774   0.039   5.605   4.845  0.2006 -1.4194  2.8590
   91SAPC  C312 8775   0.079   5.529   4.645 -0.1269  0.3354 -0.2801
   91SAPC  H12X 8776  -0.008   5.459   4.645 -0.0326  0.2104 -0.8482
   91SAPC  H12Y 8777   0.163   5.478   4.594 -0.9847 -1.1546 -0.2446
   91SAPC  C313 8778   0.057   5.663   4.566  0.0974 -0.0165  0.3657
   91SAPC  H13X 8779   0.148   5.725   4.577 -1.0797  1.5670  1.9868
   91SAPC  H13Y 8780  -0.020   5.721   4.622 -0.6642  1.4976 -2.1276
   91SAPC  C314 8781   0.018   5.638   4.418 -0.2803  0.6712  0.7439
   91SAPC  H14X 8782   0.079   5.563   4.364 -1.7301 -1.2499  1.6184
   91SAPC  H14Y 8783   0.033   5.735   4.367 -1.1689  0.1381 -0.5920
   91SAPC  C315 8784  -0.133   5.600   4.388 -0.1966 -0.2965  0.4411
   91SAPC  H15X 8785  -0.205   5.673   4.431  0.6070  0.7488  0.0485
   91SAPC  H15Y 8786  -0.161   5.504   4.436 -1.4598 -1.0295 -1.6288
   91SAPC  C316 8787  -0.186   5.574   4.245 -0.0089 -0.2109 -0.5801
   91SAPC  H16X 8788  -0.190   5.679   4.210  0.0697  0.3841  1.1155
   91SAPC  H16Y 8789  -0.291   5.537   4.245 -0.1351  0.1389 -0.5188
   91SAPC  C317 8790  -0.104   5.491   4.145  0.5104  0.8015  0.4713
   91SAPC  H17X 8791  -0.005   5.541   4.135 -0.1974  2.1350 -0.1542
   91SAPC  H17Y 8792  -0.155   5.509   4.048  1.9950 -2.8646 -1.2151
   91SAPC  C318 8793  -0.093   5.339   4.178  0.2652 -0.5567 -0.0305
   91SAPC  H18X 8794  -0.179   5.300   4.237  0.5857 -1.6270 -0.2541
   91SAPC  H18Y 8795   0.002   5.320   4.233  0.3748  1.7488  0.6856
   91SAPC  H18Z 8796  -0.097   5.283   4.082  1.3496 -0.3611 -0.2038
   92SAPC     N 8797   1.476   3.758   6.585 -0.1437 -0.8116  0.0876
   92SAPC   C12 8798   1.464   3.706   6.728 -0.2835  0.5573  0.1763
   92SAPC  H12A 8799   1.375   3.748   6.774 -1.3774 -1.5509  0.1567
   92SAPC  H12B 8800   1.551   3.750   6.775  0.1435  0.5079 -0.5583
   92SAPC   C13 8801   1.613   3.734   6.539 -0.3989  0.5102  0.4726
   92SAPC  H13A 8802   1.688   3.796   6.587  0.6703  0.7481 -1.4395
   92SAPC  H13B 8803   1.630   3.628   6.550 -0.0906  0.5338  0.2267
   92SAPC  H13C 8804   1.607   3.750   6.433 -0.7189 -0.2783  0.3652
   92SAPC   C14 8805   1.368   3.696   6.492 -0.2357 -0.4474 -0.6909
   92SAPC  H14A 8806   1.377   3.752   6.400  1.8210  1.4249  0.5413
   92SAPC  H14B 8807   1.376   3.589   6.484  1.9317 -0.3646 -0.1645
   92SAPC  H14C 8808   1.276   3.714   6.546  1.0038 -0.6459  1.5958
   92SAPC   C15 8809   1.453   3.908   6.590 -0.4683  0.4861 -0.1530
   92SAPC  H15A 8810   1.526   3.958   6.652 -2.5280  1.6058  1.4520
   92SAPC  H15B 8811   1.463   3.953   6.492  2.0771 -1.6029 -0.9764
   92SAPC  H15C 8812   1.359   3.939   6.632 -0.4600  1.1660 -0.6147
   92SAPC   C11 8813   1.456   3.549   6.745  0.2124 -0.2621  0.3934
   92SAPC  H11A 8814   1.360   3.521   6.696  1.2275 -1.2100 -1.1254
   92SAPC  H11B 8815   1.457   3.529   6.855 -1.2367 -0.9289  0.3082
   92SAPC     P 8816   1.577   3.353   6.613  0.4054  0.0809 -0.7059
   92SAPC   O13 8817   1.719   3.327   6.585 -0.2243  0.7888 -0.3753
   92SAPC   O14 8818   1.490   3.250   6.672 -0.0467  1.1215 -0.3555
   92SAPC   O12 8819   1.570   3.489   6.695  0.7834  0.1125 -0.2250
   92SAPC   O11 8820   1.521   3.396   6.472  0.1096 -0.2278  0.0311
   92SAPC    C1 8821   1.390   3.368   6.425 -0.1303  0.2047  0.7044
   92SAPC    HA 8822   1.319   3.378   6.511  1.4648  1.4412  1.9309
   92SAPC    HB 8823   1.364   3.440   6.345  0.5314  0.5815  0.8322
   92SAPC    C2 8824   1.371   3.216   6.377  0.1535 -0.7702 -0.0045
   92SAPC    HS 8825   1.387   3.157   6.470  1.7637 -1.6874 -0.8121
   92SAPC   O21 8826   1.478   3.178   6.286 -0.2739  0.1992  0.6597
   92SAPC   C21 8827   1.487   3.044   6.272  0.0591  0.2015 -0.7596
   92SAPC   O22 8828   1.432   2.964   6.347 -0.5293 -0.8859  0.1626
   92SAPC   C22 8829   1.589   3.012   6.154 -0.0843  0.4939  0.5512
   92SAPC   H2R 8830   1.519   3.000   6.068 -1.9244 -0.1967  2.0733
   92SAPC   H2S 8831   1.656   3.098   6.133  1.2565 -1.0368 -1.9658
   92SAPC    C3 8832   1.232   3.202   6.312  0.1740 -0.1561  0.4216
   92SAPC    HX 8833   1.158   3.230   6.390 -0.1269  2.6116 -0.7659
   92SAPC    HY 8834   1.196   3.098   6.292 -2.3923  0.7105  0.1200
   92SAPC   O31 8835   1.217   3.279   6.197  0.4628  0.5198  0.3722
   92SAPC   C31 8836   1.242   3.215   6.080 -0.7701 -0.4058  0.6331
   92SAPC   O32 8837   1.257   3.093   6.067  0.3226 -0.4014 -0.2368
   92SAPC   C32 8838   1.231   3.314   5.962 -0.1299 -0.0052  0.6054
   92SAPC   H2X 8839   1.280   3.411   5.987 -2.1375  1.0632  0.6353
   92SAPC   H2Y 8840   1.124   3.344   5.954  0.1195  0.4308 -1.9485
   92SAPC   C23 8841   1.672   2.882   6.167 -1.1095  0.2527 -1.1644
   92SAPC   H3R 8842   1.608   2.809   6.221 -1.5926  0.7622 -1.0337
   92SAPC   H3S 8843   1.773   2.905   6.207 -0.2661 -0.9056 -2.5394
   92SAPC   C24 8844   1.700   2.811   6.034  0.0857 -0.0421 -0.4004
   92SAPC   H4R 8845   1.599   2.812   5.985 -1.3491 -0.7497  2.3588
   92SAPC   H4S 8846   1.737   2.707   6.049  0.3698 -0.0371 -1.0017
   92SAPC   C25 8847   1.795   2.879   5.936 -0.4976 -0.5658  0.0230
   92SAPC   H5R 8848   1.870   2.946   5.979 -1.0021 -0.5100  0.8465
   92SAPC   C26 8849   1.791   2.870   5.799 -0.0500  0.1750 -0.3510
   92SAPC   H6R 8850   1.872   2.912   5.738 -0.8923 -0.3673 -1.9026
   92SAPC   C27 8851   1.685   2.801   5.724  0.2008 -0.1045  0.5238
   92SAPC   H7R 8852   1.589   2.858   5.730  0.0750 -0.0627 -1.3136
   92SAPC   H7S 8853   1.655   2.707   5.775  1.2093 -1.1084 -0.6766
   92SAPC   C28 8854   1.717   2.757   5.582  0.9403  0.2573  0.1495
   92SAPC   H8R 8855   1.771   2.664   5.560 -0.9290 -0.9482  0.4766
   92SAPC   C29 8856   1.697   2.832   5.474 -0.3223  0.2501  1.5358
   92SAPC   H9R 8857   1.724   2.783   5.379 -0.1103  1.5514  0.9018
   92SAPC  C210 8858   1.652   2.978   5.475 -0.4795 -0.3630  0.1842
   92SAPC  H10R 8859   1.705   3.026   5.560  1.3792 -0.5263 -0.8170
   92SAPC  H10S 8860   1.542   2.987   5.487 -0.5015  0.9090 -0.7628
   92SAPC  C211 8861   1.692   3.044   5.342  0.3947  0.3056  0.2362
   92SAPC  H11R 8862   1.639   3.007   5.253  1.1999  1.0105 -0.5471
   92SAPC  C212 8863   1.790   3.136   5.319 -0.7627  0.2083 -0.7156
   92SAPC  H12R 8864   1.808   3.168   5.216 -0.0737 -3.2296 -1.8139
   92SAPC  C213 8865   1.889   3.178   5.430  0.3714  0.3218 -0.2612
   92SAPC  H13R 8866   1.960   3.096   5.455 -0.3014 -0.1447  0.1570
   92SAPC  H13S 8867   1.833   3.211   5.520  0.0934  1.8512 -0.9592
   92SAPC  C214 8868   1.982   3.281   5.386 -0.3522  0.6714 -0.0092
   92SAPC  H14R 8869   2.000   3.288   5.277  2.3776 -2.1871  0.1002
   92SAPC  C215 8870   2.061   3.341   5.477 -0.4012  0.3199  0.0863
   92SAPC  H15R 8871   2.120   3.428   5.446 -1.1487  0.9018  0.2694
   92SAPC  C216 8872   2.066   3.320   5.629 -0.4563  0.1656 -0.1777
   92SAPC  H16R 8873   1.965   3.292   5.665  0.1398  0.7006  2.0268
   92SAPC  H16S 8874   2.075   3.417   5.682 -0.2803  0.2971 -0.4482
   92SAPC  C217 8875   2.166   3.217   5.683  0.3771  0.2067  0.2328
   92SAPC  H17R 8876   2.261   3.231   5.628  0.7093  1.2048  1.0218
   92SAPC  H17S 8877   2.115   3.122   5.659 -1.2089  1.1714 -0.3807
   92SAPC  C218 8878   2.190   3.228   5.835  0.2873 -0.7393  1.0432
   92SAPC  H18R 8879   2.227   3.331   5.852  2.2274 -1.4547  1.3465
   92SAPC  H18S 8880   2.260   3.150   5.872  1.2067  0.0479  0.9956
   92SAPC  C219 8881   2.061   3.210   5.922 -0.5623  0.1006 -0.0937
   92SAPC  H19R 8882   2.017   3.108   5.915  2.0131 -1.0625 -0.9703
   92SAPC  H19S 8883   1.985   3.287   5.898 -0.9173 -0.0836  0.4170
   92SAPC  C220 8884   2.104   3.228   6.066  0.2301 -1.1640  0.4362
   92SAPC  H20R 8885   2.122   3.336   6.083  0.1185 -0.8385 -1.3950
   92SAPC  H20S 8886   2.194   3.169   6.094  0.4677 -0.4970  1.1129
   92SAPC  H20T 8887   2.026   3.201   6.141  0.0671  0.2478  0.7930
   92SAPC   C33 8888   1.293   3.259   5.831 -0.5242  0.2283  0.3043
   92SAPC   H3X 8889   1.259   3.330   5.752  1.0311  0.2314 -0.3995
   92SAPC   H3Y 8890   1.252   3.159   5.807  0.2535 -0.1171  0.3798
   92SAPC   C34 8891   1.447   3.263   5.832 -0.0271  0.0888 -0.3147
   92SAPC   H4X 8892   1.476   3.216   5.736  0.2943  1.9752 -1.2051
   92SAPC   H4Y 8893   1.488   3.208   5.919  1.1509  3.0979  1.1824
   92SAPC   C35 8894   1.506   3.403   5.839 -0.2939 -0.0004  0.0574
   92SAPC   H5X 8895   1.524   3.430   5.945 -2.0226  0.2208  0.3214
   92SAPC   H5Y 8896   1.437   3.481   5.800  1.2458 -1.0065 -5.6342
   92SAPC   C36 8897   1.645   3.427   5.776  0.3391 -0.2420 -0.0402
   92SAPC   H6X 8898   1.726   3.377   5.834 -0.2320  0.1007  1.0983
   92SAPC   H6Y 8899   1.664   3.536   5.776  0.5436 -0.2780  0.2961
   92SAPC   C37 8900   1.660   3.376   5.629 -0.4249 -0.2005  0.2115
   92SAPC   H7X 8901   1.632   3.269   5.637 -2.5013  0.4122  2.1576
   92SAPC   H7Y 8902   1.765   3.395   5.596 -0.8789  0.7584 -0.7414
   92SAPC   C38 8903   1.563   3.447   5.533  0.2557  0.0598  0.5379
   92SAPC   H8X 8904   1.600   3.548   5.507 -1.0113  0.4920  0.3634
   92SAPC   H8Y 8905   1.464   3.446   5.585 -0.2639 -1.0999 -0.4166
   92SAPC   C39 8906   1.543   3.374   5.400 -0.4523 -0.5987 -0.1503
   92SAPC   H9X 8907   1.513   3.270   5.426 -2.0107  0.3170  1.9456
   92SAPC   H9Y 8908   1.628   3.354   5.331  0.8462 -0.5130  1.3552
   92SAPC  C310 8909   1.450   3.454   5.319  0.0534 -0.8145 -0.1899
   92SAPC  H10X 8910   1.484   3.560   5.320 -1.6824 -0.2181  1.1252
   92SAPC  H10Y 8911   1.349   3.454   5.364  1.1699 -0.3448  2.5474
   92SAPC  C311 8912   1.432   3.394   5.177  0.0232 -0.4850 -0.0176
   92SAPC  H11X 8913   1.525   3.394   5.116 -0.8202  0.3804 -1.3379
   92SAPC  H11Y 8914   1.378   3.465   5.111  1.3699  0.6689  0.0734
   92SAPC  C312 8915   1.368   3.252   5.170 -0.4031  0.1045 -0.4686
   92SAPC  H12X 8916   1.268   3.239   5.216  0.6363 -3.9392  1.1597
   92SAPC  H12Y 8917   1.435   3.197   5.240 -0.0704  1.5436  0.3818
   92SAPC  C313 8918   1.373   3.202   5.029  0.0718 -0.7356  0.2876
   92SAPC  H13X 8919   1.365   3.091   5.024 -0.4025 -0.6541 -1.0453
   92SAPC  H13Y 8920   1.472   3.235   4.991 -0.3948 -0.5936 -0.8549
   92SAPC  C314 8921   1.267   3.270   4.937  0.3103 -0.1165  0.1317
   92SAPC  H14X 8922   1.306   3.373   4.918 -0.2877 -0.5892 -5.1391
   92SAPC  H14Y 8923   1.163   3.266   4.976  0.1359  1.1559 -0.1595
   92SAPC  C315 8924   1.266   3.207   4.793  0.0418 -0.4063  0.6352
   92SAPC  H15X 8925   1.211   3.281   4.731  0.6081 -0.3718  0.1578
   92SAPC  H15Y 8926   1.216   3.109   4.782  0.6033 -0.7752  1.2944
   92SAPC  C316 8927   1.405   3.182   4.737  0.7169 -0.1297  0.3894
   92SAPC  H16X 8928   1.438   3.089   4.786  2.2688  1.5625  2.7386
   92SAPC  H16Y 8929   1.474   3.263   4.768  1.7628 -0.8239 -0.0690
   92SAPC  C317 8930   1.414   3.180   4.582  0.0955  0.3939 -0.5686
   92SAPC  H17X 8931   1.356   3.270   4.551 -3.1072 -1.4106 -0.1973
   92SAPC  H17Y 8932   1.363   3.087   4.548  0.8780 -0.7494  1.2555
   92SAPC  C318 8933   1.553   3.183   4.527  0.0529  0.3135 -0.3184
   92SAPC  H18X 8934   1.621   3.108   4.572  1.5941  2.4181  1.1027
   92SAPC  H18Y 8935   1.603   3.277   4.561  2.4578 -0.9742 -0.0768
   92SAPC  H18Z 8936   1.566   3.184   4.417  2.0781 -1.1914 -0.1491
   93SAPC     N 8937   5.607   5.748   6.701  0.4187  0.0360  0.4709
   93SAPC   C12 8938   5.566   5.634   6.607  0.9438 -0.3994 -0.4749
   93SAPC  H12A 8939   5.605   5.541   6.644  2.0722  0.2571  0.0445
   93SAPC  H12B 8940   5.609   5.655   6.510 -0.6096  0.2560 -1.0600
   93SAPC   C13 8941   5.553   5.875   6.648 -0.3902 -0.6708  0.1230
   93SAPC  H13A 8942   5.597   5.958   6.701  1.8287 -0.2320 -2.2108
   93SAPC  H13B 8943   5.582   5.885   6.545  2.0008 -0.0751  0.7792
   93SAPC  H13C 8944   5.447   5.877   6.667 -0.2532 -0.1998  0.8922
   93SAPC   C14 8945   5.555   5.728   6.841  0.4150 -0.3550  0.1489
   93SAPC  H14A 8946   5.448   5.711   6.843  0.5358 -1.2676 -0.5535
   93SAPC  H14B 8947   5.589   5.637   6.887 -1.9162 -0.9885  0.7856
   93SAPC  H14C 8948   5.576   5.816   6.900  0.0281 -0.1427 -0.0270
   93SAPC   C15 8949   5.756   5.743   6.711 -0.7683 -0.1463 -0.8314
   93SAPC  H15A 8950   5.785   5.693   6.802 -0.7115  1.6839  0.1991
   93SAPC  H15B 8951   5.802   5.703   6.622  0.6048  1.8369 -1.0683
   93SAPC  H15C 8952   5.802   5.840   6.720 -0.1578 -0.5909  1.8030
   93SAPC   C11 8953   5.411   5.616   6.585 -0.6499  0.1361 -0.7828
   93SAPC  H11A 8954   5.400   5.556   6.492  2.9651  1.5462 -2.3122
   93SAPC  H11B 8955   5.364   5.716   6.569 -0.3879  0.2713 -0.7171
   93SAPC     P 8956   5.186   5.562   6.697  0.0576 -0.1546 -0.0213
   93SAPC   O13 8957   5.138   5.518   6.829 -0.1718  0.5675 -0.3121
   93SAPC   O14 8958   5.137   5.691   6.651  0.2746  0.3676  0.2524
   93SAPC   O12 8959   5.341   5.562   6.696 -0.1682  0.0225 -0.4053
   93SAPC   O11 8960   5.152   5.449   6.595  0.3997 -0.1910 -0.0456
   93SAPC    C1 8961   5.147   5.451   6.448 -0.4029 -0.4079 -0.1498
   93SAPC    HA 8962   5.121   5.554   6.414  0.5240  0.7415  2.3492
   93SAPC    HB 8963   5.245   5.421   6.406  0.2416  1.0903  0.2276
   93SAPC    C2 8964   5.051   5.346   6.399  0.2390 -0.1618  0.2444
   93SAPC    HS 8965   5.104   5.250   6.378 -1.0364 -0.7218 -0.5701
   93SAPC   O21 8966   4.975   5.390   6.283 -1.3867  0.2245 -0.0071
   93SAPC   C21 8967   5.062   5.389   6.176  0.0464 -0.5593 -0.0011
   93SAPC   O22 8968   5.175   5.344   6.172  0.1448  0.2414 -0.4681
   93SAPC   C22 8969   4.998   5.470   6.060 -1.0714  0.4454  0.2101
   93SAPC   H2R 8970   4.887   5.471   6.061 -1.2080 -2.7994  1.8038
   93SAPC   H2S 8971   5.038   5.567   6.096 -1.1076 -0.2785  2.3816
   93SAPC    C3 8972   4.942   5.305   6.510 -0.8090 -0.8077  0.0088
   93SAPC    HX 8973   4.877   5.394   6.524 -1.1607 -1.0060 -0.3268
   93SAPC    HY 8974   4.993   5.288   6.607  0.0822 -0.5145 -0.3933
   93SAPC   O31 8975   4.852   5.201   6.455 -0.5248 -0.6086  0.0704
   93SAPC   C31 8976   4.903   5.078   6.482  0.2234  0.2266 -0.1316
   93SAPC   O32 8977   5.002   5.059   6.547  0.1674  0.1453 -0.0689
   93SAPC   C32 8978   4.816   4.973   6.410 -0.2530 -0.1557 -0.5194
   93SAPC   H2X 8979   4.730   5.023   6.360 -1.2106 -2.1134 -0.9427
   93SAPC   H2Y 8980   4.770   4.910   6.490  2.2921  0.9294  1.9411
   93SAPC   C23 8981   5.058   5.419   5.925  0.3111 -0.2161 -0.3113
   93SAPC   H3R 8982   5.168   5.417   5.936  0.2867 -0.3678 -0.0875
   93SAPC   H3S 8983   5.040   5.505   5.856 -0.6243  1.2665  1.6744
   93SAPC   C24 8984   4.986   5.297   5.866  0.0843 -0.2170  0.0194
   93SAPC   H4R 8985   4.980   5.222   5.948  1.3884 -0.4632 -0.0753
   93SAPC   H4S 8986   5.060   5.264   5.790 -0.7984 -0.6661 -0.6586
   93SAPC   C25 8987   4.850   5.323   5.816  0.7721  0.0074 -0.3201
   93SAPC   H5R 8988   4.768   5.322   5.889 -1.3058  0.5080 -2.5314
   93SAPC   C26 8989   4.819   5.352   5.690 -0.5056  0.1099 -0.4619
   93SAPC   H6R 8990   4.714   5.375   5.667 -0.5095 -0.3677 -0.9549
   93SAPC   C27 8991   4.916   5.367   5.581  0.4112 -0.1650 -0.3810
   93SAPC   H7R 8992   5.007   5.304   5.597  0.5846 -0.3222 -1.8234
   93SAPC   H7S 8993   4.958   5.469   5.573 -0.5331  0.1026 -2.6573
   93SAPC   C28 8994   4.854   5.342   5.439  0.1065 -0.2446 -0.1530
   93SAPC   H8R 8995   4.834   5.237   5.413  1.2120 -0.4006 -0.4230
   93SAPC   C29 8996   4.816   5.436   5.351 -0.9370 -0.6901 -0.8495
   93SAPC   H9R 8997   4.780   5.403   5.253 -0.4656 -0.4143 -1.1200
   93SAPC  C210 8998   4.824   5.584   5.373  0.4553 -0.6230 -0.4164
   93SAPC  H10R 8999   4.827   5.602   5.483  0.9310 -0.0372 -0.5211
   93SAPC  H10S 9000   4.722   5.613   5.340  0.2025  0.3122  1.0999
   93SAPC  C211 9001   4.933   5.663   5.307  0.3170  0.3512 -0.5982
   93SAPC  H11R 9002   5.029   5.660   5.362  1.1401 -0.6454 -2.0333
   93SAPC  C212 9003   4.938   5.719   5.183  0.7256  0.0274 -0.0938
   93SAPC  H12R 9004   5.027   5.766   5.137 -0.3172  1.7953 -0.3730
   93SAPC  C213 9005   4.830   5.702   5.084 -0.2245  0.0565  0.5011
   93SAPC  H13R 9006   4.746   5.771   5.109  1.2472  1.5369  1.5559
   93SAPC  H13S 9007   4.792   5.597   5.081 -1.9235  0.6590 -1.3169
   93SAPC  C214 9008   4.872   5.744   4.948 -0.1106  0.5985 -0.2847
   93SAPC  H14R 9009   4.970   5.792   4.934 -0.4700  1.2786 -0.4826
   93SAPC  C215 9010   4.777   5.743   4.848 -0.7616  0.1569  0.2295
   93SAPC  H15R 9011   4.809   5.781   4.750 -0.8391  1.9238  0.8560
   93SAPC  C216 9012   4.639   5.681   4.857  0.1575 -0.1394  0.4695
   93SAPC  H16R 9013   4.611   5.630   4.951 -2.5737  0.8158  0.2397
   93SAPC  H16S 9014   4.618   5.601   4.783 -0.5386  0.9620 -0.5556
   93SAPC  C217 9015   4.537   5.789   4.813 -0.3749  0.4351  0.1607
   93SAPC  H17R 9016   4.547   5.880   4.875 -1.7974 -0.3069  1.5363
   93SAPC  H17S 9017   4.437   5.755   4.845  0.4079 -0.6678  1.5821
   93SAPC  C218 9018   4.540   5.811   4.666  0.0369 -0.0820 -0.0418
   93SAPC  H18R 9019   4.512   5.718   4.611  0.8946 -1.3017  1.4923
   93SAPC  H18S 9020   4.645   5.828   4.635  1.2652 -2.7721  2.1623
   93SAPC  C219 9021   4.447   5.923   4.611 -0.1063  0.8375 -0.4086
   93SAPC  H19R 9022   4.486   5.958   4.513 -0.0735  0.8183 -0.4025
   93SAPC  H19S 9023   4.451   6.013   4.677  2.1077 -0.1694  0.9347
   93SAPC  C220 9024   4.311   5.866   4.580  0.0328 -0.7046 -0.3924
   93SAPC  H20R 9025   4.262   5.942   4.515  2.0372  1.1920  0.1795
   93SAPC  H20S 9026   4.256   5.850   4.674  0.6475 -0.0619  0.0909
   93SAPC  H20T 9027   4.304   5.776   4.515 -1.9048 -0.0405 -1.1799
   93SAPC   C33 9028   4.896   4.894   6.304 -0.1902 -0.1698  0.1910
   93SAPC   H3X 9029   4.985   4.850   6.356 -0.0896  1.0174  1.0759
   93SAPC   H3Y 9030   4.920   4.963   6.220 -1.9749 -1.0794 -1.1322
   93SAPC   C34 9031   4.815   4.771   6.262 -0.3313  0.3141  0.0311
   93SAPC   H4X 9032   4.708   4.802   6.267 -0.2459  0.5438  0.5588
   93SAPC   H4Y 9033   4.815   4.690   6.337 -0.2254 -2.6088 -2.9042
   93SAPC   C35 9034   4.845   4.702   6.120  0.1780 -0.2256 -0.6698
   93SAPC   H5X 9035   4.950   4.670   6.137  0.0444 -0.9990 -1.2513
   93SAPC   H5Y 9036   4.838   4.778   6.040  1.3968  0.3381 -0.2655
   93SAPC   C36 9037   4.749   4.583   6.106 -0.4460 -0.0542  0.0898
   93SAPC   H6X 9038   4.646   4.616   6.081  0.2270  2.1217 -0.0769
   93SAPC   H6Y 9039   4.737   4.522   6.197 -4.4899 -0.1390 -0.3421
   93SAPC   C37 9040   4.789   4.488   5.992  0.0512  0.9737 -0.1392
   93SAPC   H7X 9041   4.709   4.411   5.982  2.2343 -1.3618 -0.7240
   93SAPC   H7Y 9042   4.888   4.438   5.995 -0.8133 -1.0930 -2.6093
   93SAPC   C38 9043   4.793   4.559   5.859  0.5303 -0.1475 -0.0219
   93SAPC   H8X 9044   4.860   4.646   5.875 -1.5505  1.3772  0.8477
   93SAPC   H8Y 9045   4.692   4.591   5.826  1.2379  1.6097 -0.6355
   93SAPC   C39 9046   4.835   4.481   5.734 -0.3427  0.2100  0.0426
   93SAPC   H9X 9047   4.764   4.400   5.708  0.8245 -0.7694 -0.1276
   93SAPC   H9Y 9048   4.934   4.436   5.757 -1.0046 -1.5828 -0.4527
   93SAPC  C310 9049   4.847   4.577   5.613 -0.4432  0.3681 -0.0415
   93SAPC  H10X 9050   4.913   4.663   5.637 -1.6052  1.2258  0.1848
   93SAPC  H10Y 9051   4.744   4.616   5.599 -0.9631 -1.2066 -0.9090
   93SAPC  C311 9052   4.901   4.512   5.483  0.6616 -0.0161  0.6152
   93SAPC  H11X 9053   4.848   4.420   5.449 -2.1292  1.8423 -0.3905
   93SAPC  H11Y 9054   5.010   4.493   5.495  0.7830  1.0098  1.2514
   93SAPC  C312 9055   4.887   4.602   5.359  1.2609  0.6749 -0.0717
   93SAPC  H12X 9056   4.943   4.696   5.377 -1.1287  2.3007 -0.7130
   93SAPC  H12Y 9057   4.782   4.637   5.349  0.0026 -2.4146  1.0552
   93SAPC  C313 9058   4.936   4.534   5.235  0.2703  0.0387 -0.1548
   93SAPC  H13X 9059   4.876   4.441   5.228 -1.9052  1.2356  1.5344
   93SAPC  H13Y 9060   5.042   4.503   5.252  0.3095 -1.1086 -2.1315
   93SAPC  C314 9061   4.914   4.613   5.109 -0.2157  0.0209  0.7771
   93SAPC  H14X 9062   4.966   4.709   5.125 -0.3889  0.4964 -1.2164
   93SAPC  H14Y 9063   4.806   4.634   5.092  0.2081  1.4245 -0.4191
   93SAPC  C315 9064   4.973   4.548   4.980  0.2151  0.3457 -0.0211
   93SAPC  H15X 9065   4.954   4.439   4.977  1.1969  0.1297  0.8392
   93SAPC  H15Y 9066   5.083   4.555   4.999  0.2915  0.4340 -0.4940
   93SAPC  C316 9067   4.930   4.607   4.856  0.4085 -0.1035 -0.6415
   93SAPC  H16X 9068   4.969   4.708   4.832  0.7010 -0.5220 -2.0162
   93SAPC  H16Y 9069   4.819   4.608   4.856  0.3944 -1.0967 -0.5991
   93SAPC  C317 9070   4.964   4.515   4.743  0.8434 -0.2335 -0.2247
   93SAPC  H17X 9071   4.929   4.409   4.742  0.5895 -0.1529 -0.0884
   93SAPC  H17Y 9072   5.073   4.503   4.757  0.7843 -0.8388 -0.2415
   93SAPC  C318 9073   4.923   4.576   4.614 -0.3129 -0.7629  0.3471
   93SAPC  H18X 9074   4.971   4.519   4.531 -0.4348 -2.1268  1.1804
   93SAPC  H18Y 9075   4.970   4.675   4.596 -1.4364 -0.5290 -1.5569
   93SAPC  H18Z 9076   4.813   4.580   4.598 -0.6065 -2.4365  1.6434
   94SAPC     N 9077   0.518   2.356   6.643 -0.0877  0.0703 -0.1457
   94SAPC   C12 9078   0.634   2.421   6.714 -0.2662 -0.2786  0.5700
   94SAPC  H12A 9079   0.717   2.439   6.647 -0.2930  1.5824  0.9692
   94SAPC  H12B 9080   0.672   2.351   6.787  2.7388 -2.4467 -2.7933
   94SAPC   C13 9081   0.410   2.342   6.743 -1.0233  0.4677  0.0587
   94SAPC  H13A 9082   0.433   2.266   6.816  0.4243 -0.0527 -0.8983
   94SAPC  H13B 9083   0.383   2.435   6.790  0.5547  0.1530  1.7159
   94SAPC  H13C 9084   0.317   2.318   6.694 -0.5575 -0.5172 -0.3739
   94SAPC   C14 9085   0.475   2.427   6.520  0.0805 -0.3435  0.5348
   94SAPC  H14A 9086   0.447   2.525   6.555 -0.1778  0.0396 -0.7134
   94SAPC  H14B 9087   0.553   2.446   6.447  0.0465  0.6835  0.7565
   94SAPC  H14C 9088   0.396   2.374   6.468  0.5753 -0.5697  0.0035
   94SAPC   C15 9089   0.569   2.222   6.605  0.0399 -0.5305  0.1213
   94SAPC  H15A 9090   0.656   2.232   6.541 -0.4461 -3.0385 -1.0197
   94SAPC  H15B 9091   0.576   2.164   6.695 -0.0499 -0.2350  0.3222
   94SAPC  H15C 9092   0.498   2.172   6.541 -0.8496 -0.5259  1.0714
   94SAPC   C11 9093   0.604   2.565   6.774  0.3578 -0.3656 -0.7063
   94SAPC  H11A 9094   0.690   2.599   6.835 -2.1841  0.5845  2.6081
   94SAPC  H11B 9095   0.518   2.563   6.843  0.0518  1.1302 -1.0166
   94SAPC     P 9096   0.635   2.797   6.627  0.0582 -0.9679  0.0161
   94SAPC   O13 9097   0.550   2.872   6.529 -0.3696 -0.8531  0.2245
   94SAPC   O14 9098   0.657   2.865   6.754 -0.0583 -0.1052  0.0163
   94SAPC   O12 9099   0.570   2.658   6.669  0.4168 -0.2132  0.0158
   94SAPC   O11 9100   0.772   2.752   6.572  0.7990  0.2618 -0.0340
   94SAPC    C1 9101   0.778   2.669   6.455  0.4650 -0.6014 -0.0646
   94SAPC    HA 9102   0.829   2.572   6.472 -0.6866 -1.4158 -1.1797
   94SAPC    HB 9103   0.681   2.641   6.409  1.2798 -1.7045 -1.1843
   94SAPC    C2 9104   0.858   2.737   6.342  0.0409 -0.0407  0.5765
   94SAPC    HS 9105   0.952   2.777   6.385  1.5666 -2.6445 -0.1496
   94SAPC   O21 9106   0.763   2.829   6.283  0.0722 -0.0676 -0.0406
   94SAPC   C21 9107   0.783   2.956   6.305 -0.1861  0.1062  0.6764
   94SAPC   O22 9108   0.880   3.001   6.363  0.0736 -0.0102 -0.0996
   94SAPC   C22 9109   0.664   3.029   6.250 -0.4340 -0.5301 -0.5408
   94SAPC   H2R 9110   0.645   2.981   6.151  3.5481 -1.3134 -1.0720
   94SAPC   H2S 9111   0.576   3.021   6.318 -0.4282  1.2707 -0.2717
   94SAPC    C3 9112   0.907   2.628   6.234  0.2656  0.2754  0.5908
   94SAPC    HX 9113   0.819   2.574   6.193 -2.3945  2.8761  2.3882
   94SAPC    HY 9114   0.971   2.551   6.282 -0.5202 -2.6351 -2.6444
   94SAPC   O31 9115   0.969   2.686   6.129 -0.6867 -0.8263 -0.0686
   94SAPC   C31 9116   1.083   2.759   6.140 -0.3097 -0.7493  0.1116
   94SAPC   O32 9117   1.138   2.789   6.244  0.3935 -0.5759  0.3065
   94SAPC   C32 9118   1.123   2.803   5.997 -0.6392  0.2005 -0.3584
   94SAPC   H2X 9119   1.105   2.912   5.984 -0.8201  0.0633 -1.4070
   94SAPC   H2Y 9120   1.060   2.748   5.923 -0.4388  0.6006 -0.8318
   94SAPC   C23 9121   0.691   3.178   6.218 -0.0598  0.0455 -0.1379
   94SAPC   H3R 9122   0.719   3.224   6.315 -2.5253  2.0683 -0.3031
   94SAPC   H3S 9123   0.596   3.224   6.184 -0.9435 -0.9399  0.9376
   94SAPC   C24 9124   0.804   3.206   6.108 -0.9170 -0.1382 -0.3301
   94SAPC   H4R 9125   0.753   3.208   6.010 -1.7101 -1.2650  0.0328
   94SAPC   H4S 9126   0.879   3.126   6.095 -0.7290  0.3206 -2.4542
   94SAPC   C25 9127   0.879   3.336   6.137 -0.4014 -0.0101  0.1499
   94SAPC   H5R 9128   0.960   3.325   6.211  0.0857  1.7812 -0.0736
   94SAPC   C26 9129   0.847   3.461   6.093 -0.2360  0.0883  0.5394
   94SAPC   H6R 9130   0.910   3.540   6.135 -0.4239 -0.1576  1.3035
   94SAPC   C27 9131   0.734   3.498   6.001  0.1031 -0.1544  0.4602
   94SAPC   H7R 9132   0.652   3.535   6.067  1.1781 -0.5227  2.0660
   94SAPC   H7S 9133   0.695   3.410   5.946 -0.9510  1.6307 -1.8454
   94SAPC   C28 9134   0.782   3.599   5.903  0.2412  0.1459  0.7928
   94SAPC   H8R 9135   0.783   3.697   5.952  1.7242  0.7767 -0.4274
   94SAPC   C29 9136   0.834   3.588   5.780  0.7002  0.0276 -0.3829
   94SAPC   H9R 9137   0.859   3.677   5.721 -1.0105  0.5308 -0.4214
   94SAPC  C210 9138   0.856   3.460   5.713  0.0198  0.4268 -0.3088
   94SAPC  H10R 9139   0.788   3.445   5.627 -0.0467 -0.8127 -0.0613
   94SAPC  H10S 9140   0.833   3.376   5.783 -0.3120  1.2401  0.5834
   94SAPC  C211 9141   1.000   3.441   5.680  0.0153 -1.1687 -0.2459
   94SAPC  H11R 9142   1.058   3.456   5.773 -0.4186 -0.0869 -0.1316
   94SAPC  C212 9143   1.062   3.434   5.558  0.4677  0.5191  0.6244
   94SAPC  H12R 9144   1.170   3.410   5.554  0.1348 -1.0091 -1.9902
   94SAPC  C213 9145   0.991   3.435   5.423  0.0900  0.1306  0.0933
   94SAPC  H13R 9146   0.885   3.403   5.437 -0.6195  2.8478  1.7783
   94SAPC  H13S 9147   1.042   3.359   5.360  0.8800 -0.1925  1.0845
   94SAPC  C214 9148   0.995   3.566   5.349  0.1571  0.2824 -0.3563
   94SAPC  H14R 9149   0.971   3.655   5.409  3.3818 -0.2159  1.9897
   94SAPC  C215 9150   1.010   3.583   5.219  0.3963  0.5604  0.7707
   94SAPC  H15R 9151   0.994   3.684   5.178 -2.3789 -0.1885 -0.2413
   94SAPC  C216 9152   1.034   3.486   5.109 -0.3556  0.3974 -0.2768
   94SAPC  H16R 9153   0.962   3.402   5.105 -0.3850  0.4600 -1.4490
   94SAPC  H16S 9154   1.135   3.442   5.121 -0.0400  1.1590 -0.0831
   94SAPC  C217 9155   1.040   3.564   4.972  0.0818 -0.4425  0.3166
   94SAPC  H17R 9156   1.116   3.519   4.905  1.3300  1.0130  0.7107
   94SAPC  H17S 9157   1.084   3.665   4.983  1.0481 -0.7801 -0.3375
   94SAPC  C218 9158   0.901   3.580   4.910 -0.0566 -0.0556 -0.0610
   94SAPC  H18R 9159   0.843   3.643   4.980  1.7501 -0.2361  1.6821
   94SAPC  H18S 9160   0.846   3.487   4.886  0.4833 -0.8948  1.7713
   94SAPC  C219 9161   0.909   3.668   4.784  0.3241  0.5982  0.1651
   94SAPC  H19R 9162   0.953   3.606   4.702 -0.7487  1.6039 -1.2119
   94SAPC  H19S 9163   0.972   3.758   4.795  3.3244 -1.5607  2.2373
   94SAPC  C220 9164   0.764   3.689   4.729 -0.7456  0.5685  0.7459
   94SAPC  H20R 9165   0.759   3.744   4.633 -2.2902 -1.4894 -0.4170
   94SAPC  H20S 9166   0.717   3.756   4.805 -1.5023 -1.9679  2.6394
   94SAPC  H20T 9167   0.705   3.595   4.729  0.7855 -0.4284  1.4136
   94SAPC   C33 9168   1.262   2.774   5.948  0.0322  0.6451 -0.2891
   94SAPC   H3X 9169   1.290   2.675   5.990 -0.1155  0.1389 -1.3581
   94SAPC   H3Y 9170   1.330   2.845   6.000  0.0563 -0.8045  1.7671
   94SAPC   C34 9171   1.281   2.766   5.793  0.3168 -0.2087 -0.4712
   94SAPC   H4X 9172   1.210   2.690   5.753 -0.3614 -0.1767  0.6307
   94SAPC   H4Y 9173   1.384   2.733   5.772  0.3032 -1.3402  1.0772
   94SAPC   C35 9174   1.278   2.909   5.729 -0.6721  0.2463  0.0310
   94SAPC   H5X 9175   1.360   2.970   5.773 -1.1039  1.0413 -0.2590
   94SAPC   H5Y 9176   1.191   2.969   5.763  0.1101  0.3683  1.9366
   94SAPC   C36 9177   1.265   2.902   5.579  0.1608  0.2513 -0.0784
   94SAPC   H6X 9178   1.167   2.850   5.566  1.2139 -2.1774  0.9887
   94SAPC   H6Y 9179   1.334   2.828   5.534  2.4998  1.9724  0.5102
   94SAPC   C37 9180   1.249   3.035   5.511  0.0759 -0.3808 -0.1918
   94SAPC   H7X 9181   1.348   3.078   5.486 -0.2432 -0.0408 -0.8955
   94SAPC   H7Y 9182   1.207   3.103   5.589 -0.4466  0.2224 -0.9714
   94SAPC   C38 9183   1.158   3.040   5.388 -0.5145  0.0348 -0.0104
   94SAPC   H8X 9184   1.147   3.143   5.348  0.4056 -0.1980 -0.8934
   94SAPC   H8Y 9185   1.057   2.998   5.409 -0.6816 -0.0179 -0.8767
   94SAPC   C39 9186   1.212   2.960   5.268 -0.5535  0.1976  0.7992
   94SAPC   H9X 9187   1.255   2.865   5.308  0.3334  0.5479  0.6942
   94SAPC   H9Y 9188   1.304   3.014   5.238 -0.0296 -0.1405  1.7448
   94SAPC  C310 9189   1.128   2.937   5.144  0.5587  0.5288 -0.6441
   94SAPC  H10X 9190   1.179   2.860   5.082 -3.1591 -2.3725 -0.4921
   94SAPC  H10Y 9191   1.121   3.033   5.089 -0.5866  0.6721 -0.2598
   94SAPC  C311 9192   0.984   2.895   5.163  0.5160  0.4521  0.0496
   94SAPC  H11X 9193   0.970   2.812   5.236 -1.9381  0.8790  0.1524
   94SAPC  H11Y 9194   0.951   2.860   5.063  2.2787 -0.8314 -0.1363
   94SAPC  C312 9195   0.884   3.003   5.194  0.3508  0.2238  0.2637
   94SAPC  H12X 9196   0.894   3.078   5.113  2.9184 -0.3013 -0.0041
   94SAPC  H12Y 9197   0.902   3.051   5.292  3.3797 -2.0182  0.9387
   94SAPC  C313 9198   0.731   2.951   5.202  0.8028  0.3184 -0.5297
   94SAPC  H13X 9199   0.714   2.872   5.126 -0.8019 -3.0947  3.0321
   94SAPC  H13Y 9200   0.658   3.031   5.180 -1.4286 -1.2272  0.8121
   94SAPC  C314 9201   0.696   2.873   5.328  0.3420  0.7423 -0.3879
   94SAPC  H14X 9202   0.700   2.941   5.416 -0.7668  1.0206 -0.5397
   94SAPC  H14Y 9203   0.761   2.786   5.351 -0.3726  0.3613  0.2472
   94SAPC  C315 9204   0.546   2.834   5.323 -0.3242 -0.0475 -0.0828
   94SAPC  H15X 9205   0.525   2.761   5.242 -0.6830 -0.1583  0.1067
   94SAPC  H15Y 9206   0.484   2.925   5.308 -1.1590 -0.6390 -0.2636
   94SAPC  C316 9207   0.506   2.771   5.458  1.1610  1.1640 -0.2226
   94SAPC  H16X 9208   0.523   2.855   5.529 -0.6850  0.5605  1.0097
   94SAPC  H16Y 9209   0.571   2.685   5.483 -0.4631 -0.8123 -2.4187
   94SAPC  C317 9210   0.353   2.715   5.466 -0.1347  0.7088  0.1117
   94SAPC  H17X 9211   0.285   2.797   5.436 -2.1049 -0.8091  0.2843
   94SAPC  H17Y 9212   0.319   2.690   5.568 -0.8642  0.8507 -0.0899
   94SAPC  C318 9213   0.343   2.596   5.374 -0.2454 -0.3187  0.3739
   94SAPC  H18X 9214   0.242   2.550   5.365 -0.5143  0.0618  1.3058
   94SAPC  H18Y 9215   0.406   2.515   5.415 -1.6803 -0.8239  1.6616
   94SAPC  H18Z 9216   0.369   2.611   5.267 -3.2629 -1.0773 -0.5581
   95SAPC     N 9217   4.621   3.699   2.557 -0.4898  0.6412 -1.2130
   95SAPC   C12 9218   4.513   3.803   2.579 -0.0305  0.2357 -0.3459
   95SAPC  H12A 9219   4.547   3.905   2.576  0.4827  0.1121  0.6850
   95SAPC  H12B 9220   4.471   3.783   2.677  0.4353 -1.3582 -0.4465
   95SAPC   C13 9221   4.676   3.706   2.418 -0.2112 -0.5070 -0.1501
   95SAPC  H13A 9222   4.591   3.711   2.351  0.0003 -1.7522 -0.5339
   95SAPC  H13B 9223   4.734   3.796   2.404 -1.5933  0.8601  2.2597
   95SAPC  H13C 9224   4.739   3.622   2.393  0.8983  0.0425  0.6887
   95SAPC   C14 9225   4.732   3.736   2.656 -0.1249 -0.3582 -0.2196
   95SAPC  H14A 9226   4.818   3.675   2.631  1.3044  2.0029 -1.4013
   95SAPC  H14B 9227   4.759   3.839   2.640 -2.2845  0.1516 -0.8939
   95SAPC  H14C 9228   4.710   3.706   2.757 -0.3104 -0.5258 -0.3069
   95SAPC   C15 9229   4.573   3.563   2.588  0.4831 -0.3804 -0.0785
   95SAPC  H15A 9230   4.640   3.481   2.569  0.3075 -0.2931 -1.1255
   95SAPC  H15B 9231   4.563   3.551   2.695  2.1898  1.2083  0.3146
   95SAPC  H15C 9232   4.485   3.550   2.526  0.2152 -0.6667  0.3524
   95SAPC   C11 9233   4.390   3.792   2.485  0.1643  0.3371  0.5874
   95SAPC  H11A 9234   4.422   3.815   2.381  0.9234 -3.8364 -0.2838
   95SAPC  H11B 9235   4.314   3.869   2.511  0.6941  1.2220 -0.3867
   95SAPC     P 9236   4.199   3.625   2.521  0.2956 -0.4418  0.2288
   95SAPC   O13 9237   4.107   3.672   2.416 -0.5515 -0.5506 -0.1881
   95SAPC   O14 9238   4.195   3.481   2.551  0.4771 -0.8683 -0.1745
   95SAPC   O12 9239   4.344   3.661   2.471 -0.4504  0.4602  0.2765
   95SAPC   O11 9240   4.189   3.727   2.644  0.2210  0.8381 -0.5616
   95SAPC    C1 9241   4.084   3.702   2.740 -0.3345  0.3211  0.2759
   95SAPC    HA 9242   4.026   3.797   2.735 -1.3826 -0.3350 -0.5009
   95SAPC    HB 9243   4.017   3.616   2.718  1.7401 -1.4244  0.3533
   95SAPC    C2 9244   4.148   3.690   2.879  0.0550  0.0488  0.7752
   95SAPC    HS 9245   4.227   3.768   2.886 -0.1280  0.2137  0.9835
   95SAPC   O21 9246   4.197   3.560   2.900 -0.5785 -0.1312 -0.4646
   95SAPC   C21 9247   4.325   3.541   2.877  0.0922  0.2639 -0.6003
   95SAPC   O22 9248   4.408   3.623   2.840  0.3191  0.0717 -0.1185
   95SAPC   C22 9249   4.359   3.402   2.921 -0.0862  0.1901 -0.0885
   95SAPC   H2R 9250   4.267   3.339   2.920  0.4493 -0.5954 -0.6774
   95SAPC   H2S 9251   4.431   3.363   2.847 -1.1098  0.5494 -1.3118
   95SAPC    C3 9252   4.048   3.726   2.983 -0.5492  0.4447 -0.9284
   95SAPC    HX 9253   3.973   3.643   2.977  0.5729 -0.5644 -1.4806
   95SAPC    HY 9254   3.994   3.820   2.961 -1.2801  0.0454 -0.8924
   95SAPC   O31 9255   4.101   3.721   3.115  0.0284  0.0817 -0.4234
   95SAPC   C31 9256   4.139   3.829   3.173  0.3844 -0.9552 -0.3918
   95SAPC   O32 9257   4.155   3.936   3.110  0.1223  1.0332 -0.1687
   95SAPC   C32 9258   4.173   3.809   3.326 -0.2212 -0.1137 -0.1278
   95SAPC   H2X 9259   4.284   3.801   3.330 -0.2414 -0.0725  0.6789
   95SAPC   H2Y 9260   4.139   3.711   3.366 -0.4513 -0.1153 -0.3245
   95SAPC   C23 9261   4.426   3.401   3.062 -0.2622  0.2509 -0.6281
   95SAPC   H3R 9262   4.517   3.465   3.063 -0.3679  0.4855  2.1468
   95SAPC   H3S 9263   4.461   3.300   3.094  0.1592  0.2902 -0.9600
   95SAPC   C24 9264   4.325   3.448   3.177  0.1986 -0.4094 -0.0308
   95SAPC   H4R 9265   4.292   3.553   3.165 -0.9466 -0.7870 -0.3177
   95SAPC   H4S 9266   4.397   3.442   3.262 -1.0293 -1.0412  0.9909
   95SAPC   C25 9267   4.213   3.350   3.176 -0.5750 -0.6128  0.4548
   95SAPC   H5R 9268   4.168   3.312   3.083 -1.0851  0.4340  0.2672
   95SAPC   C26 9269   4.148   3.334   3.293  0.2757  0.1478  0.4380
   95SAPC   H6R 9270   4.065   3.262   3.299  0.6552 -0.3498 -0.2752
   95SAPC   C27 9271   4.177   3.408   3.421  0.2134 -0.4529  0.6243
   95SAPC   H7R 9272   4.081   3.430   3.474  0.4107 -0.9450  1.2026
   95SAPC   H7S 9273   4.245   3.494   3.404 -0.0972 -0.7723 -2.9084
   95SAPC   C28 9274   4.252   3.307   3.509 -0.3028 -0.0255 -0.0240
   95SAPC   H8R 9275   4.331   3.243   3.466 -0.4786 -1.2103  1.3445
   95SAPC   C29 9276   4.240   3.288   3.642  0.2397 -0.0613 -1.1562
   95SAPC   H9R 9277   4.309   3.212   3.683  0.3458  1.1052  0.9946
   95SAPC  C210 9278   4.139   3.365   3.723  0.2387  0.6345 -0.6850
   95SAPC  H10R 9279   4.039   3.317   3.719  1.0561 -1.2575  0.4184
   95SAPC  H10S 9280   4.125   3.466   3.679 -0.0265  0.7835 -0.2622
   95SAPC  C211 9281   4.181   3.376   3.869  0.1376 -0.2615 -0.2677
   95SAPC  H11R 9282   4.121   3.321   3.942  0.2756 -0.1167 -0.0466
   95SAPC  C212 9283   4.274   3.455   3.922  0.1512 -0.1411 -0.7567
   95SAPC  H12R 9284   4.280   3.457   4.031  0.5434  1.2503 -0.7853
   95SAPC  C213 9285   4.371   3.541   3.852 -0.4648 -0.0528 -0.7344
   95SAPC  H13R 9286   4.357   3.640   3.901 -1.0521 -0.0932 -0.8167
   95SAPC  H13S 9287   4.358   3.550   3.742 -1.0939 -3.2642 -1.0091
   95SAPC  C214 9288   4.515   3.497   3.869  0.2816  0.7137 -0.1004
   95SAPC  H14R 9289   4.548   3.408   3.813 -0.5156  0.2274  0.1860
   95SAPC  C215 9290   4.606   3.557   3.951  0.4224  0.3117 -0.3201
   95SAPC  H15R 9291   4.702   3.504   3.951  0.7866  0.9022 -1.8578
   95SAPC  C216 9292   4.588   3.675   4.043 -0.1626  0.0803  0.5056
   95SAPC  H16R 9293   4.639   3.644   4.137 -0.1344 -1.6395 -0.0418
   95SAPC  H16S 9294   4.480   3.689   4.066 -0.3474 -3.5083  2.6983
   95SAPC  C217 9295   4.648   3.811   3.999 -0.0280 -0.0936  0.2220
   95SAPC  H17R 9296   4.752   3.802   3.962 -0.7757  1.7487 -2.5978
   95SAPC  H17S 9297   4.651   3.886   4.081  2.2853  2.3176 -1.8810
   95SAPC  C218 9298   4.556   3.881   3.896 -0.0306 -0.3167 -0.1103
   95SAPC  H18R 9299   4.467   3.931   3.939  0.3951 -0.5635  1.0774
   95SAPC  H18S 9300   4.525   3.802   3.824  0.5850  0.9314 -1.8261
   95SAPC  C219 9301   4.641   3.976   3.808 -0.4153  0.1244  0.1105
   95SAPC  H19R 9302   4.617   3.944   3.704 -1.1374  1.7892 -0.2662
   95SAPC  H19S 9303   4.747   3.945   3.822  0.2303  0.4643 -3.2159
   95SAPC  C220 9304   4.621   4.127   3.825 -0.2193  0.0381  0.1026
   95SAPC  H20R 9305   4.689   4.175   3.751  1.4360 -2.9916 -0.5119
   95SAPC  H20S 9306   4.660   4.162   3.923  0.0563 -1.6783  0.6324
   95SAPC  H20T 9307   4.515   4.158   3.819 -0.5208 -1.1474 -1.3463
   95SAPC   C33 9308   4.120   3.929   3.409 -0.0402  0.3455  0.4782
   95SAPC   H3X 9309   4.011   3.916   3.399  0.0250  0.5267 -0.6405
   95SAPC   H3Y 9310   4.156   4.029   3.377 -0.4530  1.3528  2.9682
   95SAPC   C34 9311   4.160   3.894   3.548  0.1844 -0.1932 -0.9689
   95SAPC   H4X 9312   4.264   3.858   3.554 -0.1313 -0.8668  1.6019
   95SAPC   H4Y 9313   4.095   3.806   3.568  1.3325 -0.6382  1.0983
   95SAPC   C35 9314   4.128   4.009   3.651  0.1547  0.1630  0.8054
   95SAPC   H5X 9315   4.019   4.030   3.652  0.2253  0.5429  0.4705
   95SAPC   H5Y 9316   4.181   4.097   3.609 -1.8118  2.2534  2.4402
   95SAPC   C36 9317   4.194   3.991   3.792 -0.1080 -0.3315  1.0375
   95SAPC   H6X 9318   4.247   4.079   3.835  1.1633 -0.0000 -1.0682
   95SAPC   H6Y 9319   4.277   3.920   3.771 -0.5335 -0.3858 -0.5953
   95SAPC   C37 9320   4.094   3.927   3.889 -0.7238 -0.3389 -0.0902
   95SAPC   H7X 9321   4.144   3.849   3.950 -1.5331 -0.1269  0.8786
   95SAPC   H7Y 9322   4.018   3.877   3.825 -0.6976 -2.3318  1.3585
   95SAPC   C38 9323   4.025   4.039   3.978 -0.4050 -0.0597 -0.3163
   95SAPC   H8X 9324   3.975   4.112   3.911 -0.3565 -0.3756 -0.6999
   95SAPC   H8Y 9325   4.103   4.093   4.036  0.4307 -1.1050 -0.4303
   95SAPC   C39 9326   3.926   3.995   4.082 -0.1060  0.2391  0.2288
   95SAPC   H9X 9327   3.833   3.961   4.031  0.0341  1.2320 -0.7161
   95SAPC   H9Y 9328   3.887   4.086   4.132 -1.1251  0.2188 -0.4992
   95SAPC  C310 9329   3.968   3.889   4.181  0.3316  0.3765 -0.1452
   95SAPC  H10X 9330   4.060   3.922   4.233 -1.1978 -0.1654  3.1532
   95SAPC  H10Y 9331   3.994   3.793   4.132  2.5124  1.4290 -1.2149
   95SAPC  C311 9332   3.848   3.869   4.269 -0.8869 -0.4738 -0.1892
   95SAPC  H11X 9333   3.856   3.769   4.317 -0.0457 -0.1841  0.2777
   95SAPC  H11Y 9334   3.747   3.864   4.223 -1.1298 -0.8856  0.3821
   95SAPC  C312 9335   3.854   3.977   4.378 -0.2330 -0.0068 -0.1888
   95SAPC  H12X 9336   3.829   4.075   4.331 -0.5752 -0.0490 -0.0939
   95SAPC  H12Y 9337   3.961   3.974   4.408 -0.1956 -1.4465 -0.4309
   95SAPC  C313 9338   3.757   3.961   4.489  0.3771  0.0653 -0.1949
   95SAPC  H13X 9339   3.765   3.863   4.542  0.3371 -0.0518 -0.4063
   95SAPC  H13Y 9340   3.653   3.959   4.452 -0.4846 -1.8178  2.0415
   95SAPC  C314 9341   3.770   4.080   4.591  0.5890 -0.6251 -0.3896
   95SAPC  H14X 9342   3.729   4.173   4.547  1.3967  0.4052  0.9602
   95SAPC  H14Y 9343   3.875   4.098   4.623  0.2785 -3.3399  2.7116
   95SAPC  C315 9344   3.673   4.062   4.720  0.6203 -0.2651 -0.7720
   95SAPC  H15X 9345   3.685   4.164   4.764 -0.2875 -0.1852 -0.6897
   95SAPC  H15Y 9346   3.720   3.998   4.797  0.7897 -1.1452 -1.5901
   95SAPC  C316 9347   3.531   4.018   4.693 -0.6183 -0.6390  0.1900
   95SAPC  H16X 9348   3.540   3.908   4.678 -0.6959 -0.4526 -1.3770
   95SAPC  H16Y 9349   3.485   4.062   4.602  2.5702  0.9398 -0.7929
   95SAPC  C317 9350   3.434   4.033   4.813 -0.0984 -0.0331 -0.0874
   95SAPC  H17X 9351   3.466   4.124   4.869  0.1122  0.0969 -0.4160
   95SAPC  H17Y 9352   3.454   3.949   4.883 -1.3662  0.0439  0.3993
   95SAPC  C318 9353   3.286   4.031   4.770 -0.5386 -0.4065 -0.1315
   95SAPC  H18X 9354   3.254   4.116   4.705 -2.0024  0.1437  1.2369
   95SAPC  H18Y 9355   3.221   4.050   4.858  0.2497 -0.4925  0.4803
   95SAPC  H18Z 9356   3.252   3.938   4.721 -1.9877  0.6179 -1.1572
   96SAPC     N 9357   5.122   6.507   1.886 -0.4477  0.5288 -0.6380
   96SAPC   C12 9358   5.169   6.423   2.002 -0.8260 -0.0359  0.0455
   96SAPC  H12A 9359   5.267   6.385   1.978 -0.3070  0.9012  0.6437
   96SAPC  H12B 9360   5.100   6.340   2.017  0.7659 -1.2980  0.6237
   96SAPC   C13 9361   5.104   6.421   1.764 -0.6774  0.2934  0.5429
   96SAPC  H13A 9362   5.015   6.361   1.774 -0.4755 -0.2865 -0.8773
   96SAPC  H13B 9363   5.077   6.489   1.683  1.8635  0.1478 -0.5178
   96SAPC  H13C 9364   5.187   6.354   1.750 -2.3409 -1.9434  0.9316
   96SAPC   C14 9365   4.996   6.573   1.923  0.0740 -0.2831 -0.4614
   96SAPC  H14A 9366   4.942   6.611   1.837  0.4861  0.3534 -0.4535
   96SAPC  H14B 9367   4.931   6.506   1.977  0.4951 -0.4117 -0.1111
   96SAPC  H14C 9368   5.004   6.650   1.998  1.2171 -1.9193  1.1717
   96SAPC   C15 9369   5.222   6.617   1.858  0.6515 -0.1125  0.3192
   96SAPC  H15A 9370   5.317   6.577   1.826  1.4988  1.3798  0.8245
   96SAPC  H15B 9371   5.179   6.678   1.780 -0.4047 -3.1091 -1.6226
   96SAPC  H15C 9372   5.249   6.675   1.945  1.1782  2.3925 -1.3977
   96SAPC   C11 9373   5.185   6.488   2.150 -0.3091  0.5604  0.1421
   96SAPC  H11A 9374   5.240   6.581   2.123 -2.8945  1.8469 -1.1688
   96SAPC  H11B 9375   5.249   6.422   2.212 -3.3674 -1.1292  1.7449
   96SAPC     P 9376   4.980   6.404   2.276 -0.3817 -0.4488 -0.1256
   96SAPC   O13 9377   4.841   6.423   2.251  0.1317 -0.3629 -0.2769
   96SAPC   O14 9378   5.031   6.271   2.243  0.2540  0.3190  0.3248
   96SAPC   O12 9379   5.061   6.519   2.205 -0.3071  0.3288  0.3895
   96SAPC   O11 9380   5.001   6.435   2.433  0.3564  0.2134  0.6001
   96SAPC    C1 9381   5.030   6.564   2.474  0.3918 -0.6200  0.2329
   96SAPC    HA 9382   5.117   6.608   2.421 -0.3466 -0.8243 -1.1883
   96SAPC    HB 9383   4.938   6.623   2.456  1.9285  1.1991 -2.4671
   96SAPC    C2 9384   5.055   6.558   2.626 -0.0974  0.0676  0.4359
   96SAPC    HS 9385   5.147   6.498   2.639 -1.0668 -1.4863  0.3545
   96SAPC   O21 9386   4.932   6.516   2.688 -0.4552  0.8279  0.1263
   96SAPC   C21 9387   4.921   6.383   2.709  0.2717 -0.0291  0.1000
   96SAPC   O22 9388   5.007   6.299   2.687  0.3797 -0.4474 -0.0660
   96SAPC   C22 9389   4.791   6.359   2.774  0.0501  0.0160  0.3795
   96SAPC   H2R 9390   4.715   6.407   2.709  1.6226  1.9279 -0.1551
   96SAPC   H2S 9391   4.779   6.250   2.787 -1.3203  0.1991  0.8252
   96SAPC    C3 9392   5.097   6.702   2.688  0.6714  0.5240 -0.4328
   96SAPC    HX 9393   5.050   6.784   2.631 -0.0123 -0.5522 -1.4751
   96SAPC    HY 9394   5.207   6.717   2.679  0.7899  0.9177  1.4319
   96SAPC   O31 9395   5.058   6.723   2.827 -0.8045  0.1517  0.3989
   96SAPC   C31 9396   5.152   6.695   2.918  0.2392 -0.0637 -0.1923
   96SAPC   O32 9397   5.265   6.655   2.886  0.2108  0.7095 -0.0545
   96SAPC   C32 9398   5.101   6.729   3.056 -0.4397  0.3758  1.2027
   96SAPC   H2X 9399   4.990   6.721   3.054 -0.4567  0.6965  0.5474
   96SAPC   H2Y 9400   5.124   6.836   3.074 -0.0600  0.4788  0.1638
   96SAPC   C23 9401   4.793   6.409   2.918  0.4691  0.1080  0.5525
   96SAPC   H3R 9402   4.769   6.517   2.910 -0.8597 -0.1777  0.4286
   96SAPC   H3S 9403   4.894   6.397   2.962  1.0653 -3.1443 -1.3391
   96SAPC   C24 9404   4.684   6.350   3.002  0.5387 -0.2136  0.6932
   96SAPC   H4R 9405   4.700   6.240   3.011 -2.3776 -0.7149  0.5661
   96SAPC   H4S 9406   4.591   6.358   2.942  0.5100 -0.3827  0.7134
   96SAPC   C25 9407   4.663   6.421   3.132  0.0546 -0.1201  0.0306
   96SAPC   H5R 9408   4.625   6.524   3.125  1.4739  0.4706  0.7442
   96SAPC   C26 9409   4.687   6.363   3.252  0.0294 -0.5064  0.3276
   96SAPC   H6R 9410   4.677   6.429   3.339  3.3675  0.3480  0.1955
   96SAPC   C27 9411   4.739   6.225   3.282 -0.3653  0.5783 -0.2147
   96SAPC   H7R 9412   4.845   6.223   3.249 -0.4655  0.5596 -0.5456
   96SAPC   H7S 9413   4.691   6.151   3.214  1.0282 -1.6546  1.1096
   96SAPC   C28 9414   4.729   6.169   3.421 -0.5593 -0.9212 -0.2557
   96SAPC   H8R 9415   4.626   6.140   3.449 -0.0519 -0.7679  1.8806
   96SAPC   C29 9416   4.831   6.140   3.506  0.5182  0.2720 -0.1497
   96SAPC   H9R 9417   4.815   6.101   3.608 -1.2604 -0.6786 -0.7514
   96SAPC  C210 9418   4.982   6.155   3.482  0.6660  0.3312  0.0043
   96SAPC  H10R 9419   5.001   6.244   3.420  2.6703 -0.4355 -0.5598
   96SAPC  H10S 9420   5.015   6.064   3.426 -3.3377 -0.2295 -1.7757
   96SAPC  C211 9421   5.067   6.162   3.598 -0.8013  0.0170 -0.2972
   96SAPC  H11R 9422   5.034   6.236   3.672  1.3262  0.8415 -0.1250
   96SAPC  C212 9423   5.168   6.080   3.636 -0.7909  0.5043 -0.1916
   96SAPC  H12R 9424   5.232   6.109   3.720  0.5251  0.5316 -1.1716
   96SAPC  C213 9425   5.239   5.957   3.568  0.1708  0.4655  0.4430
   96SAPC  H13R 9426   5.348   5.976   3.570  0.1635  0.8237 -0.9609
   96SAPC  H13S 9427   5.199   5.926   3.469  0.0151 -2.8342  1.4185
   96SAPC  C214 9428   5.221   5.823   3.643  0.1697 -0.3032 -0.0766
   96SAPC  H14R 9429   5.149   5.752   3.600 -0.9168 -0.0233  1.2084
   96SAPC  C215 9430   5.265   5.786   3.770 -0.0671  0.6618  0.4666
   96SAPC  H15R 9431   5.238   5.688   3.813  0.4269 -1.0392 -2.8265
   96SAPC  C216 9432   5.350   5.872   3.851 -0.1201  0.2909  0.3787
   96SAPC  H16R 9433   5.306   5.966   3.891  2.1288  1.0236  1.2435
   96SAPC  H16S 9434   5.429   5.914   3.785 -0.0353 -1.4805 -0.7173
   96SAPC  C217 9435   5.427   5.799   3.961 -0.0536 -0.2160 -0.7485
   96SAPC  H17R 9436   5.487   5.717   3.916  2.3580  2.0179 -1.9040
   96SAPC  H17S 9437   5.364   5.756   4.043 -1.2579  3.9879  0.7838
   96SAPC  C218 9438   5.531   5.900   4.031  0.2511  0.5148 -0.2082
   96SAPC  H18R 9439   5.493   6.003   4.052  0.0318  0.0409  2.0343
   96SAPC  H18S 9440   5.620   5.900   3.965 -0.1149  3.3672 -0.8285
   96SAPC  C219 9441   5.590   5.829   4.154  0.3304  0.6074 -0.1839
   96SAPC  H19R 9442   5.645   5.741   4.118 -0.6498  0.2590 -0.8750
   96SAPC  H19S 9443   5.502   5.805   4.218 -0.4862  0.8735 -1.1879
   96SAPC  C220 9444   5.690   5.914   4.236 -0.1405 -0.2729  0.6277
   96SAPC  H20R 9445   5.790   5.899   4.189 -0.2880 -3.7288  1.1547
   96SAPC  H20S 9446   5.714   5.874   4.337  0.4008  1.5473  1.2628
   96SAPC  H20T 9447   5.666   6.023   4.234  1.0723  0.0313 -1.9447
   96SAPC   C33 9448   5.153   6.630   3.156 -0.1075  0.0349  0.3117
   96SAPC   H3X 9449   5.262   6.622   3.179  0.1500 -0.9471 -1.1335
   96SAPC   H3Y 9450   5.144   6.533   3.103 -1.8500  0.7422 -0.7855
   96SAPC   C34 9451   5.063   6.602   3.279  0.1512 -0.5474 -0.1700
   96SAPC   H4X 9452   5.127   6.541   3.347  0.0732 -2.0677 -1.3853
   96SAPC   H4Y 9453   4.975   6.550   3.234 -0.6008  1.5920 -1.2794
   96SAPC   C35 9454   5.010   6.726   3.355  0.1713  0.2722  0.4792
   96SAPC   H5X 9455   5.014   6.822   3.300  0.0296 -0.5537 -1.0112
   96SAPC   H5Y 9456   5.080   6.737   3.441  0.6010  0.5300  0.1014
   96SAPC   C36 9457   4.863   6.718   3.401  0.2518  0.3639  0.1499
   96SAPC   H6X 9458   4.817   6.686   3.305  2.3593 -2.2657 -0.1062
   96SAPC   H6Y 9459   4.828   6.819   3.430  0.9238  0.0989  2.0129
   96SAPC   C37 9460   4.838   6.612   3.509  0.3688 -0.1975  0.4636
   96SAPC   H7X 9461   4.918   6.536   3.493  0.2427 -0.1777 -0.2911
   96SAPC   H7Y 9462   4.747   6.550   3.493  1.0693 -0.3142 -4.9329
   96SAPC   C38 9463   4.836   6.676   3.648  0.1121  0.4243  0.1597
   96SAPC   H8X 9464   4.734   6.719   3.654 -1.1669 -2.2038 -0.7145
   96SAPC   H8Y 9465   4.913   6.754   3.660  0.4200  0.4996 -1.9666
   96SAPC   C39 9466   4.844   6.574   3.766  0.9497  0.9073  1.0921
   96SAPC   H9X 9467   4.943   6.524   3.760  1.3447  1.7895 -0.1025
   96SAPC   H9Y 9468   4.768   6.496   3.748  3.3026 -1.8929  2.4417
   96SAPC  C310 9469   4.841   6.633   3.902  0.5520 -0.1221  0.4023
   96SAPC  H10X 9470   4.775   6.722   3.916  0.9098  0.0228  1.1874
   96SAPC  H10Y 9471   4.941   6.669   3.933  0.3040 -0.0238  1.1112
   96SAPC  C311 9472   4.780   6.536   4.000  0.2809 -0.1117  0.7857
   96SAPC  H11X 9473   4.843   6.445   4.001 -0.8150 -0.9029  0.3869
   96SAPC  H11Y 9474   4.683   6.502   3.958  1.0436 -0.7433 -0.5516
   96SAPC  C312 9475   4.767   6.591   4.144  0.1462  0.0318 -0.1435
   96SAPC  H12X 9476   4.696   6.676   4.140  1.3419  1.0687 -0.1665
   96SAPC  H12Y 9477   4.860   6.645   4.173  0.9552 -2.1418  1.6261
   96SAPC  C313 9478   4.721   6.486   4.241  0.1291 -0.2782 -0.0170
   96SAPC  H13X 9479   4.806   6.416   4.255 -0.6752 -1.6202 -1.4470
   96SAPC  H13Y 9480   4.644   6.425   4.188 -0.0975 -0.0714  0.0738
   96SAPC  C314 9481   4.675   6.538   4.380  0.2033 -0.0860  0.3005
   96SAPC  H14X 9482   4.633   6.453   4.438  0.6665  0.1503  1.0058
   96SAPC  H14Y 9483   4.594   6.611   4.361 -0.0209 -0.6037 -0.7682
   96SAPC  C315 9484   4.796   6.599   4.453  0.2056  0.1226 -0.1682
   96SAPC  H15X 9485   4.833   6.697   4.416  0.7319  0.4377  1.1406
   96SAPC  H15Y 9486   4.872   6.519   4.440  0.8938  0.7486 -0.0252
   96SAPC  C316 9487   4.791   6.608   4.608 -0.2016 -0.2634  0.8266
   96SAPC  H16X 9488   4.782   6.506   4.651  1.6296 -0.2703  1.2779
   96SAPC  H16Y 9489   4.701   6.660   4.648 -0.4486  0.4344 -0.5706
   96SAPC  C317 9490   4.914   6.677   4.675 -0.3920 -0.2889  0.0251
   96SAPC  H17X 9491   4.919   6.786   4.653  0.7386 -0.4217 -0.4493
   96SAPC  H17Y 9492   5.010   6.638   4.633 -1.7620 -0.8707 -2.7875
   96SAPC  C318 9493   4.925   6.651   4.825 -0.5221 -0.7891  0.4447
   96SAPC  H18X 9494   4.959   6.547   4.843  1.0969 -0.1701  1.1853
   96SAPC  H18Y 9495   4.823   6.675   4.863 -1.6205 -0.7779 -2.2511
   96SAPC  H18Z 9496   4.996   6.727   4.864  0.4643 -0.8793 -1.0656
   97SAPC     N 9497   3.607   6.652   2.311  0.0345 -0.4526 -0.4994
   97SAPC   C12 9498   3.701   6.540   2.269  0.0650 -0.3363 -0.0237
   97SAPC  H12A 9499   3.697   6.469   2.350 -3.9620 -0.7421 -0.3818
   97SAPC  H12B 9500   3.804   6.572   2.266  0.8678 -2.7897 -1.5685
   97SAPC   C13 9501   3.472   6.601   2.348 -0.7850 -0.9007 -0.8262
   97SAPC  H13A 9502   3.399   6.676   2.376  1.6719  1.2228  0.2715
   97SAPC  H13B 9503   3.433   6.541   2.267 -0.7759 -0.5049 -1.1244
   97SAPC  H13C 9504   3.488   6.540   2.435  1.5193 -2.3532 -2.1537
   97SAPC   C14 9505   3.668   6.715   2.435 -0.1737 -0.5740 -0.0020
   97SAPC  H14A 9506   3.768   6.749   2.410 -0.4989  0.9380  0.6685
   97SAPC  H14B 9507   3.605   6.799   2.458 -1.0776 -0.3602 -2.8063
   97SAPC  H14C 9508   3.669   6.641   2.514 -0.7818 -0.4095  0.1645
   97SAPC   C15 9509   3.597   6.755   2.204 -0.0890 -0.3846 -0.5935
   97SAPC  H15A 9510   3.545   6.845   2.234  0.1868 -0.9371  1.6812
   97SAPC  H15B 9511   3.701   6.779   2.185  0.3050 -1.8495 -0.4671
   97SAPC  H15C 9512   3.546   6.715   2.118 -2.1418  1.6993 -0.4412
   97SAPC   C11 9513   3.650   6.467   2.138 -0.1752 -0.1653 -0.1729
   97SAPC  H11A 9514   3.657   6.534   2.050  0.7686  0.1102  0.1030
   97SAPC  H11B 9515   3.546   6.437   2.164 -0.5465  2.2661  1.4529
   97SAPC     P 9516   3.757   6.232   2.201 -0.2905 -0.0865 -0.5515
   97SAPC   O13 9517   3.738   6.120   2.103  0.1208  1.0185  0.4912
   97SAPC   O14 9518   3.887   6.227   2.268  0.4025  0.1811 -0.1034
   97SAPC   O12 9519   3.746   6.362   2.123  0.5256 -0.0491  0.1068
   97SAPC   O11 9520   3.644   6.246   2.305 -0.3392  0.4581  0.7618
   97SAPC    C1 9521   3.570   6.139   2.369 -0.0772  0.8929  0.1304
   97SAPC    HA 9522   3.483   6.105   2.308  0.2406 -3.9631  1.9050
   97SAPC    HB 9523   3.620   6.039   2.368 -1.0964  0.3431  1.0798
   97SAPC    C2 9524   3.533   6.164   2.513 -0.2507 -0.2589 -0.0269
   97SAPC    HS 9525   3.472   6.257   2.514 -1.6718 -1.1638  0.7041
   97SAPC   O21 9526   3.653   6.185   2.584 -0.1025  0.5952  0.0785
   97SAPC   C21 9527   3.702   6.299   2.581 -0.1914  0.1328  0.0129
   97SAPC   O22 9528   3.646   6.404   2.546  0.1459  0.1333 -0.5020
   97SAPC   C22 9529   3.845   6.300   2.631 -0.3616 -0.6601  0.2498
   97SAPC   H2R 9530   3.881   6.198   2.658  1.0750 -0.2066  0.1357
   97SAPC   H2S 9531   3.908   6.333   2.545 -0.6532  0.5952  0.5083
   97SAPC    C3 9532   3.447   6.054   2.574  0.2673 -0.3844  0.2287
   97SAPC    HX 9533   3.511   5.963   2.577  1.1088  0.2077  0.6246
   97SAPC    HY 9534   3.365   6.052   2.500  1.0473 -2.8490 -0.6516
   97SAPC   O31 9535   3.404   6.086   2.702 -1.0629  0.7203 -0.0832
   97SAPC   C31 9536   3.318   6.183   2.719  0.3718 -0.3773  0.3083
   97SAPC   O32 9537   3.263   6.243   2.628 -0.0599 -0.5164 -0.4443
   97SAPC   C32 9538   3.288   6.203   2.868  0.2420  0.3102 -0.3022
   97SAPC   H2X 9539   3.366   6.271   2.908 -1.2836  1.5750  0.6864
   97SAPC   H2Y 9540   3.292   6.105   2.920 -0.1482  1.0786  1.2306
   97SAPC   C23 9541   3.873   6.397   2.747  0.0770 -0.4644 -0.1089
   97SAPC   H3R 9542   3.818   6.491   2.725 -2.0505 -1.5259  0.3905
   97SAPC   H3S 9543   3.980   6.426   2.749 -0.3419  1.5034 -2.3063
   97SAPC   C24 9544   3.815   6.351   2.882  0.0246  0.2193  0.3595
   97SAPC   H4R 9545   3.708   6.326   2.864  0.3476 -1.1104  0.1602
   97SAPC   H4S 9546   3.831   6.434   2.954  2.4612  0.2426 -0.1232
   97SAPC   C25 9547   3.885   6.234   2.929 -0.7532  0.1904 -1.5555
   97SAPC   H5R 9548   3.895   6.152   2.856  0.2572 -0.7754 -0.3819
   97SAPC   C26 9549   3.943   6.210   3.051  0.0356  0.1425 -0.3544
   97SAPC   H6R 9550   4.005   6.120   3.065  1.0330  1.1137  2.0036
   97SAPC   C27 9551   3.930   6.306   3.171 -0.5282  0.4988  0.2414
   97SAPC   H7R 9552   3.938   6.410   3.131 -2.9728 -0.1873 -2.3708
   97SAPC   H7S 9553   4.022   6.272   3.223  0.4332 -1.7373 -2.6239
   97SAPC   C28 9554   3.812   6.300   3.259 -0.0947 -0.0182  0.1667
   97SAPC   H8R 9555   3.722   6.349   3.220  0.7005  0.9811 -0.4585
   97SAPC   C29 9556   3.796   6.239   3.376 -0.5323  0.7051 -0.1379
   97SAPC   H9R 9557   3.696   6.245   3.423 -0.5972  0.7411 -0.2783
   97SAPC  C210 9558   3.904   6.158   3.451  0.3460 -0.5336  0.5905
   97SAPC  H10R 9559   3.974   6.131   3.369  3.7073  2.4231  2.1933
   97SAPC  H10S 9560   3.854   6.063   3.478 -0.9014 -0.6967 -1.9589
   97SAPC  C211 9561   3.984   6.229   3.556 -0.3069  0.0219  0.0534
   97SAPC  H11R 9562   4.084   6.266   3.529 -0.3398  0.9306  1.1164
   97SAPC  C212 9563   3.958   6.230   3.688  1.1524  0.3473  0.0039
   97SAPC  H12R 9564   4.016   6.294   3.757 -0.4861  1.7409  0.1493
   97SAPC  C213 9565   3.848   6.168   3.765 -0.3846  0.2646 -0.0268
   97SAPC  H13R 9566   3.890   6.094   3.836 -4.2778 -4.0949 -1.7174
   97SAPC  H13S 9567   3.785   6.111   3.693  1.7287 -0.5817 -1.2874
   97SAPC  C214 9568   3.754   6.271   3.824 -0.2931  0.6066  0.9397
   97SAPC  H14R 9569   3.651   6.268   3.785  0.0604  2.3535 -0.2669
   97SAPC  C215 9570   3.776   6.343   3.940 -0.2396 -0.0861  0.1169
   97SAPC  H15R 9571   3.705   6.422   3.970  1.3559  0.1927  3.7375
   97SAPC  C216 9572   3.911   6.364   4.016 -0.7529 -0.0634 -0.4538
   97SAPC  H16R 9573   3.946   6.469   4.012  1.5293 -0.8044 -2.0003
   97SAPC  H16S 9574   3.984   6.302   3.961  0.2142 -0.9194  1.6925
   97SAPC  C217 9575   3.900   6.323   4.168  0.7032  0.3296  0.0970
   97SAPC  H17R 9576   3.850   6.408   4.219  2.1058  0.8685  0.6333
   97SAPC  H17S 9577   4.003   6.312   4.210  1.0881  0.2977 -0.8416
   97SAPC  C218 9578   3.824   6.188   4.206 -0.2430 -0.4183  0.6162
   97SAPC  H18R 9579   3.865   6.101   4.151 -1.6005 -0.8128  0.1820
   97SAPC  H18S 9580   3.717   6.206   4.182  0.1002  1.3695  0.2653
   97SAPC  C219 9581   3.847   6.158   4.355  0.1417 -0.5083  0.7220
   97SAPC  H19R 9582   3.825   6.252   4.410 -0.3885 -0.1552 -0.0794
   97SAPC  H19S 9583   3.949   6.128   4.387  0.2747  0.8588  1.7001
   97SAPC  C220 9584   3.733   6.058   4.395  0.4615 -0.4661  0.1605
   97SAPC  H20R 9585   3.717   6.064   4.505 -2.1227 -1.8971 -0.0619
   97SAPC  H20S 9586   3.772   5.959   4.363  3.1234  0.2625  0.8620
   97SAPC  H20T 9587   3.643   6.091   4.338  1.9423  0.9734 -1.4620
   97SAPC   C33 9588   3.152   6.284   2.883 -0.2230  0.7102 -0.6250
   97SAPC   H3X 9589   3.076   6.233   2.820  1.0530 -2.8222  0.4285
   97SAPC   H3Y 9590   3.162   6.389   2.849 -1.0824  0.6055 -1.2413
   97SAPC   C34 9591   3.097   6.287   3.025 -0.5512 -0.5169 -0.3534
   97SAPC   H4X 9592   3.002   6.234   3.047 -0.7278  0.2281  0.7319
   97SAPC   H4Y 9593   3.080   6.396   3.043 -0.5169 -0.2789 -1.6460
   97SAPC   C35 9594   3.194   6.237   3.141  0.1036  0.7271  0.5966
   97SAPC   H5X 9595   3.287   6.296   3.131  1.3053 -1.0325  0.8715
   97SAPC   H5Y 9596   3.227   6.131   3.137 -0.0377  0.7198 -1.3494
   97SAPC   C36 9597   3.146   6.281   3.277  0.2848 -0.2435 -0.0136
   97SAPC   H6X 9598   3.055   6.223   3.301 -0.4923  0.4491 -1.1853
   97SAPC   H6Y 9599   3.108   6.385   3.272 -0.3648 -0.4675  0.1730
   97SAPC   C37 9600   3.247   6.265   3.388  0.4325  0.7464  0.7086
   97SAPC   H7X 9601   3.340   6.316   3.355  1.8133 -2.2019 -0.3191
   97SAPC   H7Y 9602   3.268   6.156   3.394 -0.0755  0.4991 -1.3770
   97SAPC   C38 9603   3.206   6.306   3.533 -0.7831  0.7351  0.7167
   97SAPC   H8X 9604   3.159   6.407   3.533  0.4840  1.3491  0.5128
   97SAPC   H8Y 9605   3.302   6.315   3.589  0.1905  2.2876 -1.0798
   97SAPC   C39 9606   3.121   6.208   3.604  0.4607 -0.1320 -0.2736
   97SAPC   H9X 9607   3.179   6.117   3.630  1.0260 -0.1813 -1.6583
   97SAPC   H9Y 9608   3.037   6.176   3.539  0.8314 -0.2614 -0.6900
   97SAPC  C310 9609   3.076   6.259   3.748  0.9198 -0.3295 -0.1952
   97SAPC  H10X 9610   3.020   6.351   3.720 -0.1378 -0.7510  0.4561
   97SAPC  H10Y 9611   3.158   6.285   3.818  1.6244  1.1303 -1.5160
   97SAPC  C311 9612   2.976   6.174   3.833 -0.4950  0.9790 -0.8596
   97SAPC  H11X 9613   3.017   6.071   3.839  0.1614  1.3003  0.6472
   97SAPC  H11Y 9614   2.875   6.183   3.787 -0.4848  1.8236 -0.7380
   97SAPC  C312 9615   2.975   6.219   3.985  0.5971 -0.2203  0.3015
   97SAPC  H12X 9616   3.072   6.251   4.028 -0.2334  1.8852  0.7652
   97SAPC  H12Y 9617   2.937   6.135   4.046  0.8405 -2.2651 -2.1805
   97SAPC  C313 9618   2.878   6.333   4.004 -0.0897 -0.4108 -0.1458
   97SAPC  H13X 9619   2.776   6.290   4.009 -0.6183  0.8426  3.8036
   97SAPC  H13Y 9620   2.877   6.406   3.920 -2.6575  1.5691  1.4114
   97SAPC  C314 9621   2.916   6.406   4.137  0.8485  0.1458 -0.4260
   97SAPC  H14X 9622   3.003   6.475   4.127  1.0892 -0.1081 -0.1035
   97SAPC  H14Y 9623   2.927   6.334   4.221 -0.3176 -0.6136 -0.9010
   97SAPC  C315 9624   2.795   6.497   4.174 -0.6778 -0.0880 -0.2608
   97SAPC  H15X 9625   2.705   6.431   4.178 -0.7951  0.1138  0.6531
   97SAPC  H15Y 9626   2.783   6.573   4.094 -0.3920  1.3866  1.0465
   97SAPC  C316 9627   2.808   6.551   4.316 -0.0319  0.3124  0.7726
   97SAPC  H16X 9628   2.812   6.466   4.387  0.6386 -1.2701 -1.0661
   97SAPC  H16Y 9629   2.714   6.603   4.346 -0.6895 -1.4166  1.8833
   97SAPC  C317 9630   2.916   6.663   4.335  0.2158  0.1295  0.0473
   97SAPC  H17X 9631   3.015   6.617   4.314  0.5484  0.1889  1.3862
   97SAPC  H17Y 9632   2.902   6.682   4.444 -1.6227  1.0490 -0.3159
   97SAPC  C318 9633   2.891   6.790   4.251 -0.1093 -0.0600 -0.5773
   97SAPC  H18X 9634   2.968   6.869   4.239 -1.1995  1.1992  0.3422
   97SAPC  H18Y 9635   2.798   6.833   4.295 -0.9135 -0.4990 -1.7959
   97SAPC  H18Z 9636   2.874   6.762   4.145  0.8923  0.7115 -0.9522
   98SAPC     N 9637   1.115   5.699   1.649 -0.1298  0.0314  0.3432
   98SAPC   C12 9638   1.233   5.742   1.733 -0.1873  0.3217 -0.2467
   98SAPC  H12A 9639   1.303   5.793   1.670 -1.1642 -0.6564 -2.1951
   98SAPC  H12B 9640   1.275   5.659   1.788  0.7221  0.5736 -0.5457
   98SAPC   C13 9641   1.017   5.624   1.730 -0.6344 -1.1552 -0.5624
   98SAPC  H13A 9642   1.061   5.531   1.762  0.0915 -1.2988 -1.8969
   98SAPC  H13B 9643   0.981   5.680   1.815 -0.6714  0.9683 -1.9044
   98SAPC  H13C 9644   0.939   5.596   1.661  0.8411 -0.3135 -2.6746
   98SAPC   C14 9645   1.052   5.815   1.576  0.3893 -0.1995  0.1914
   98SAPC  H14A 9646   1.063   5.913   1.621  1.5592 -1.0913  1.9624
   98SAPC  H14B 9647   1.080   5.819   1.472  1.5041 -0.5957  0.4585
   98SAPC  H14C 9648   0.945   5.800   1.574  0.2307  0.1630  2.4756
   98SAPC   C15 9649   1.176   5.609   1.545  0.0419 -0.0339  0.8206
   98SAPC  H15A 9650   1.188   5.508   1.579  1.3770  0.6635  2.6093
   98SAPC  H15B 9651   1.122   5.621   1.452  0.3330 -0.3266  0.6137
   98SAPC  H15C 9652   1.274   5.646   1.519  0.3572 -0.4085  1.4557
   98SAPC   C11 9653   1.187   5.837   1.841 -0.7089 -0.3050  0.5390
   98SAPC  H11A 9654   1.125   5.797   1.924  1.5607 -0.1645  2.4116
   98SAPC  H11B 9655   1.125   5.920   1.801 -1.4563 -1.8594 -1.6812
   98SAPC     P 9656   1.404   5.842   2.006  0.3644  0.3315 -0.4011
   98SAPC   O13 9657   1.480   5.724   1.958 -0.7208 -0.2152  0.0261
   98SAPC   O14 9658   1.480   5.954   2.063  0.3805 -0.1286  0.0233
   98SAPC   O12 9659   1.304   5.897   1.897 -0.0623 -0.3177 -0.2691
   98SAPC   O11 9660   1.306   5.793   2.120  0.0994 -0.1158  0.2173
   98SAPC    C1 9661   1.230   5.872   2.214 -0.3545 -0.4480  0.5769
   98SAPC    HA 9662   1.225   5.977   2.179  0.9377 -0.0108  1.6109
   98SAPC    HB 9663   1.124   5.839   2.219 -0.4386  0.0154  2.2516
   98SAPC    C2 9664   1.303   5.881   2.355 -0.3128 -0.1642  0.4832
   98SAPC    HS 9665   1.393   5.940   2.328 -1.3202  0.6510 -1.3004
   98SAPC   O21 9666   1.333   5.746   2.402 -0.3231 -0.3865 -0.1089
   98SAPC   C21 9667   1.433   5.746   2.494 -0.8354 -0.5600  0.2048
   98SAPC   O22 9668   1.510   5.837   2.518  0.1789  0.7437 -0.1396
   98SAPC   C22 9669   1.429   5.624   2.580  1.1528 -0.6560  0.4942
   98SAPC   H2R 9670   1.460   5.528   2.533 -0.4306 -1.0418  0.2091
   98SAPC   H2S 9671   1.500   5.651   2.662 -0.4087 -0.7508  1.9350
   98SAPC    C3 9672   1.214   5.953   2.459 -0.0326 -0.1417  0.8694
   98SAPC    HX 9673   1.130   5.882   2.468 -0.3642  0.4195  2.6286
   98SAPC    HY 9674   1.172   6.047   2.417 -0.1797 -1.2499 -1.5735
   98SAPC   O31 9675   1.283   5.964   2.585  0.4649  0.0928 -0.4712
   98SAPC   C31 9676   1.328   6.081   2.630  0.5481  0.6392 -0.1325
   98SAPC   O32 9677   1.291   6.191   2.589 -0.0502  0.0937  0.3220
   98SAPC   C32 9678   1.415   6.056   2.751  0.5312  0.0694  0.9522
   98SAPC   H2X 9679   1.463   6.155   2.767  0.7148 -0.0303  1.0271
   98SAPC   H2Y 9680   1.486   5.976   2.720  0.4081  0.0371  0.7530
   98SAPC   C23 9681   1.287   5.612   2.638  0.1788  0.0197 -0.5493
   98SAPC   H3R 9682   1.214   5.576   2.562 -1.0509 -2.1221  1.4971
   98SAPC   H3S 9683   1.262   5.713   2.678  0.6860  0.0859 -0.3943
   98SAPC   C24 9684   1.268   5.518   2.759  0.4021 -0.1939  0.5843
   98SAPC   H4R 9685   1.282   5.413   2.724 -2.7201 -0.5623  0.1560
   98SAPC   H4S 9686   1.161   5.522   2.788  0.3389 -1.0613  0.5094
   98SAPC   C25 9687   1.376   5.546   2.863  0.1320 -0.2418 -0.3080
   98SAPC   H5R 9688   1.479   5.545   2.825  0.1536 -1.0901 -0.2494
   98SAPC   C26 9689   1.355   5.561   2.995  0.2207  0.1551 -0.6157
   98SAPC   H6R 9690   1.438   5.572   3.067  0.9074 -1.1606 -1.1731
   98SAPC   C27 9691   1.221   5.566   3.063 -0.0543 -0.0324 -0.4234
   98SAPC   H7R 9692   1.209   5.469   3.117 -1.8348  0.4689  0.1539
   98SAPC   H7S 9693   1.141   5.571   2.986 -0.8673 -1.2466  0.2909
   98SAPC   C28 9694   1.196   5.673   3.164 -0.0006 -0.0060  0.1274
   98SAPC   H8R 9695   1.128   5.755   3.140 -2.8845 -2.4858 -0.8062
   98SAPC   C29 9696   1.257   5.673   3.287  0.3449  0.3052 -0.4980
   98SAPC   H9R 9697   1.227   5.761   3.348 -2.2532  0.5143 -1.9080
   98SAPC  C210 9698   1.330   5.570   3.360  0.1355  0.1646 -0.5467
   98SAPC  H10R 9699   1.375   5.616   3.451  0.6568  0.4084 -0.9259
   98SAPC  H10S 9700   1.416   5.540   3.296  0.8573  0.8715  0.0567
   98SAPC  C211 9701   1.246   5.439   3.379 -0.9428  0.5846  0.2704
   98SAPC  H11R 9702   1.175   5.407   3.301 -0.7735  2.1375 -0.5602
   98SAPC  C212 9703   1.249   5.362   3.495  0.1267  0.0772  0.2700
   98SAPC  H12R 9704   1.206   5.261   3.493  1.1794 -0.4320  1.3086
   98SAPC  C213 9705   1.328   5.398   3.621  0.2804 -0.6438  0.9408
   98SAPC  H13R 9706   1.282   5.492   3.659  0.9386  0.7493 -1.4959
   98SAPC  H13S 9707   1.428   5.443   3.602  0.3743 -0.9248  0.7767
   98SAPC  C214 9708   1.324   5.287   3.717  1.3609  0.4209  0.1816
   98SAPC  H14R 9709   1.401   5.210   3.699  1.5674  0.8813 -1.0182
   98SAPC  C215 9710   1.255   5.285   3.830 -0.5242  0.1022  0.0133
   98SAPC  H15R 9711   1.255   5.196   3.896 -0.9296 -0.0842 -0.2359
   98SAPC  C216 9712   1.182   5.400   3.893 -0.7924 -0.6139  0.9223
   98SAPC  H16R 9713   1.089   5.360   3.937 -0.9791 -0.3439  0.7750
   98SAPC  H16S 9714   1.148   5.473   3.817 -0.1244 -1.9253 -0.7106
   98SAPC  C217 9715   1.251   5.463   4.021 -0.0745 -0.5938 -0.1664
   98SAPC  H17R 9716   1.260   5.376   4.090  2.4184 -0.1600  0.1630
   98SAPC  H17S 9717   1.170   5.530   4.056  0.3699  0.7740 -1.6531
   98SAPC  C218 9718   1.388   5.523   3.990  0.0968 -0.0217 -0.2291
   98SAPC  H18R 9719   1.398   5.579   3.894  3.7744  0.2615  0.1773
   98SAPC  H18S 9720   1.459   5.439   3.982 -0.8917 -0.7800 -1.2467
   98SAPC  C219 9721   1.428   5.621   4.099 -0.6496  0.3216 -0.6777
   98SAPC  H19R 9722   1.458   5.558   4.185 -2.3451  1.0961  0.5341
   98SAPC  H19S 9723   1.336   5.677   4.125  0.2643  2.2690 -1.4490
   98SAPC  C220 9724   1.535   5.717   4.055 -0.3049 -0.4907 -0.1344
   98SAPC  H20R 9725   1.603   5.644   4.007  0.5333 -2.0064  3.1280
   98SAPC  H20S 9726   1.597   5.756   4.138  0.7870 -2.0710 -0.1641
   98SAPC  H20T 9727   1.494   5.794   3.985  2.0659  1.5398  0.5600
   98SAPC   C33 9728   1.340   5.995   2.873  0.4433  0.8365  0.1260
   98SAPC   H3X 9729   1.411   5.981   2.957  1.8752  2.2252 -0.8244
   98SAPC   H3Y 9730   1.292   5.896   2.855  0.2381  1.2530 -1.7786
   98SAPC   C34 9731   1.228   6.083   2.927  0.4549 -0.7206 -0.1472
   98SAPC   H4X 9732   1.142   6.104   2.860 -2.6143 -1.1360  3.2911
   98SAPC   H4Y 9733   1.266   6.184   2.953  3.1739 -2.0095  1.2990
   98SAPC   C35 9734   1.166   6.026   3.057  0.5136  0.3743 -0.2080
   98SAPC   H5X 9735   1.241   6.012   3.137  0.3673  0.0243 -0.1281
   98SAPC   H5Y 9736   1.120   5.929   3.026 -1.8555  0.5960  2.2662
   98SAPC   C36 9737   1.056   6.125   3.114 -0.3718 -0.1056  0.2948
   98SAPC   H6X 9738   1.011   6.170   3.023 -0.4713 -1.5201 -0.3886
   98SAPC   H6Y 9739   1.104   6.201   3.179 -2.2290  0.2506  1.3301
   98SAPC   C37 9740   0.952   6.049   3.201 -0.0615 -0.0514  1.1016
   98SAPC   H7X 9741   1.006   5.976   3.265  2.4370  0.2846 -0.4928
   98SAPC   H7Y 9742   0.900   5.988   3.123  0.0929  1.9957 -0.6916
   98SAPC   C38 9743   0.864   6.136   3.285  0.1334  0.4624 -0.3639
   98SAPC   H8X 9744   0.929   6.191   3.357 -0.1114 -1.8063  1.7221
   98SAPC   H8Y 9745   0.796   6.068   3.341  0.4635  0.7206  0.3724
   98SAPC   C39 9746   0.782   6.232   3.206 -0.0791  0.4660  0.3022
   98SAPC   H9X 9747   0.706   6.169   3.154 -1.2215  1.0651  1.1836
   98SAPC   H9Y 9748   0.834   6.283   3.123 -1.0923 -0.4706 -0.9497
   98SAPC  C310 9749   0.709   6.335   3.296 -0.5346  0.2070  0.5919
   98SAPC  H10X 9750   0.654   6.405   3.230 -0.7580  0.0646  0.6252
   98SAPC  H10Y 9751   0.789   6.376   3.361  0.8404  0.7777 -1.3823
   98SAPC  C311 9752   0.622   6.263   3.395 -0.1763  0.7668  0.6967
   98SAPC  H11X 9753   0.676   6.205   3.474  0.2122 -0.4647 -0.4239
   98SAPC  H11Y 9754   0.573   6.181   3.338  0.9152  0.0872  0.6883
   98SAPC  C312 9755   0.509   6.346   3.459 -0.3242  0.3846  0.2988
   98SAPC  H12X 9756   0.452   6.393   3.376  0.1232 -0.9747 -0.8292
   98SAPC  H12Y 9757   0.563   6.419   3.522  0.7566 -1.9364  2.2173
   98SAPC  C313 9758   0.413   6.257   3.538 -0.1181  0.3384  0.5069
   98SAPC  H13X 9759   0.431   6.150   3.518  2.2996  0.6769  0.6415
   98SAPC  H13Y 9760   0.308   6.286   3.515 -0.2225  0.3507  0.9878
   98SAPC  C314 9761   0.443   6.265   3.690  1.2178  0.0701  0.4664
   98SAPC  H14X 9762   0.398   6.364   3.715  2.4648  1.6112 -2.8348
   98SAPC  H14Y 9763   0.553   6.275   3.707  1.0900  1.2247  0.7003
   98SAPC  C315 9764   0.387   6.159   3.775  0.6588 -0.5525 -0.8990
   98SAPC  H15X 9765   0.437   6.064   3.747  0.1581 -0.7813 -1.0343
   98SAPC  H15Y 9766   0.277   6.149   3.765  0.4830 -0.1156  0.3924
   98SAPC  C316 9767   0.398   6.204   3.924  0.6236 -0.2171 -0.1095
   98SAPC  H16X 9768   0.343   6.130   3.986  0.9675 -0.4211 -0.0422
   98SAPC  H16Y 9769   0.347   6.298   3.954 -1.3183 -1.8740  2.0588
   98SAPC  C317 9770   0.538   6.202   3.993  0.6824 -0.7278 -0.3792
   98SAPC  H17X 9771   0.523   6.200   4.103  2.8516 -3.3514 -0.0489
   98SAPC  H17Y 9772   0.594   6.294   3.967 -2.5127  1.6647  0.4753
   98SAPC  C318 9773   0.623   6.081   3.964  0.1899 -0.1632 -0.0084
   98SAPC  H18X 9774   0.569   5.988   3.993 -0.3696 -0.5277 -2.0542
   98SAPC  H18Y 9775   0.717   6.085   4.022 -0.1993 -0.5558  0.6615
   98SAPC  H18Z 9776   0.639   6.081   3.854  0.9694  2.6746  0.0315
   99SAPC     N 9777   6.621   3.377   1.932  0.0424 -0.0349  0.3057
   99SAPC   C12 9778   6.591   3.524   1.956 -0.1612  0.0617  0.8159
   99SAPC  H12A 9779   6.562   3.571   1.863 -0.6896 -2.3346 -0.3047
   99SAPC  H12B 9780   6.684   3.575   1.976  1.7471 -2.8878  0.0730
   99SAPC   C13 9781   6.490   3.306   1.903  0.0635  0.1062  0.1091
   99SAPC  H13A 9782   6.414   3.323   1.978  0.2223 -3.6845  1.3124
   99SAPC  H13B 9783   6.450   3.340   1.808  0.2212 -2.7139 -1.0548
   99SAPC  H13C 9784   6.508   3.202   1.883 -1.1544  0.2024 -1.7431
   99SAPC   C14 9785   6.710   3.357   1.812 -0.3730 -0.0837 -0.7233
   99SAPC  H14A 9786   6.799   3.418   1.816 -0.5444  0.0977  0.9792
   99SAPC  H14B 9787   6.737   3.253   1.810 -1.7240 -0.4532 -0.9235
   99SAPC  H14C 9788   6.663   3.378   1.716  1.2709 -1.1907 -1.8206
   99SAPC   C15 9789   6.690   3.315   2.052  0.2451 -0.3199  0.1934
   99SAPC  H15A 9790   6.797   3.330   2.048  0.3095 -0.8208 -0.0617
   99SAPC  H15B 9791   6.655   3.352   2.147 -1.2195 -1.3659  0.0972
   99SAPC  H15C 9792   6.691   3.207   2.050  4.5094 -0.4865  1.8842
   99SAPC   C11 9793   6.489   3.552   2.064 -0.2467  0.2548 -0.1651
   99SAPC  H11A 9794   6.387   3.514   2.045 -1.0831  0.7184  2.8967
   99SAPC  H11B 9795   6.471   3.661   2.065  0.0158  0.3880 -2.5965
   99SAPC     P 9796   6.615   3.594   2.287 -0.1977 -0.0975  0.2879
   99SAPC   O13 9797   6.706   3.678   2.208 -0.6499  0.0923  0.8800
   99SAPC   O14 9798   6.527   3.660   2.385 -0.2291  0.0223  0.2158
   99SAPC   O12 9799   6.534   3.501   2.188  0.1412  0.0554 -0.1437
   99SAPC   O11 9800   6.703   3.468   2.356 -0.7876  0.5411  0.3065
   99SAPC    C1 9801   6.632   3.363   2.419  0.0542 -0.3958 -0.0042
   99SAPC    HA 9802   6.577   3.308   2.340  0.8975  2.2262 -2.5941
   99SAPC    HB 9803   6.711   3.296   2.458  1.2347  0.0872 -1.5025
   99SAPC    C2 9804   6.562   3.405   2.551 -0.4434 -0.0083  0.6620
   99SAPC    HS 9805   6.490   3.488   2.531 -0.8829 -0.1400  1.6659
   99SAPC   O21 9806   6.675   3.438   2.638 -0.0010  0.6163  0.7475
   99SAPC   C21 9807   6.629   3.507   2.737  0.3826  0.2960  0.2825
   99SAPC   O22 9808   6.525   3.570   2.744  0.4011  0.1203 -0.4832
   99SAPC   C22 9809   6.726   3.486   2.853 -0.8003 -0.4926 -1.0651
   99SAPC   H2R 9810   6.738   3.376   2.864  3.6116 -0.3522 -2.4374
   99SAPC   H2S 9811   6.822   3.532   2.819  0.1853 -2.2391 -0.7399
   99SAPC    C3 9812   6.479   3.287   2.609  0.4848 -0.3130  0.3805
   99SAPC    HX 9813   6.556   3.206   2.618 -0.0572 -0.7216  1.6275
   99SAPC    HY 9814   6.405   3.249   2.536  0.1176 -2.5017  1.7634
   99SAPC   O31 9815   6.426   3.294   2.745 -0.0304  0.1967 -0.3744
   99SAPC   C31 9816   6.297   3.321   2.761 -1.3600 -0.5240  0.9354
   99SAPC   O32 9817   6.216   3.344   2.674  0.2312  0.1523 -0.5338
   99SAPC   C32 9818   6.259   3.314   2.909  0.2396 -0.3049 -0.4349
   99SAPC   H2X 9819   6.148   3.315   2.904  0.1092  2.6362  1.1298
   99SAPC   H2Y 9820   6.299   3.404   2.958  1.0541  0.6178 -2.6608
   99SAPC   C23 9821   6.677   3.547   2.989  0.4962  0.1344  0.3531
   99SAPC   H3R 9822   6.608   3.631   2.971  0.2516  0.1834  1.4483
   99SAPC   H3S 9823   6.758   3.601   3.043  0.5013  1.7641 -1.2134
   99SAPC   C24 9824   6.622   3.444   3.090  1.1202  0.1255  0.3799
   99SAPC   H4R 9825   6.700   3.381   3.137  2.5242  1.3643 -0.1996
   99SAPC   H4S 9826   6.575   3.363   3.030 -0.7793  2.0650 -0.9482
   99SAPC   C25 9827   6.519   3.509   3.184 -0.5237  0.4716 -0.1943
   99SAPC   H5R 9828   6.427   3.540   3.133 -1.0037 -1.4237 -0.5590
   99SAPC   C26 9829   6.528   3.514   3.318 -0.2597 -0.3426  0.1710
   99SAPC   H6R 9830   6.443   3.566   3.365  0.5379  1.1420  0.0247
   99SAPC   C27 9831   6.640   3.460   3.410  0.2228 -0.5731  0.3808
   99SAPC   H7R 9832   6.671   3.375   3.347 -1.6183 -0.8641 -0.1841
   99SAPC   H7S 9833   6.588   3.416   3.498 -0.6183  0.3285  0.3577
   99SAPC   C28 9834   6.748   3.560   3.439 -0.2996  0.3916  0.7423
   99SAPC   H8R 9835   6.810   3.590   3.353 -2.3034 -0.0369 -0.9347
   99SAPC   C29 9836   6.761   3.629   3.555 -0.4343 -0.4423 -0.1626
   99SAPC   H9R 9837   6.847   3.698   3.563  1.2837 -2.4318 -0.5121
   99SAPC  C210 9838   6.677   3.615   3.675 -0.1026  0.4820  0.1438
   99SAPC  H10R 9839   6.749   3.617   3.760 -0.1871  0.8314  0.2070
   99SAPC  H10S 9840   6.628   3.515   3.671  1.3118 -0.1927 -1.4246
   99SAPC  C211 9841   6.568   3.712   3.696 -0.0071  0.1198 -0.9481
   99SAPC  H11R 9842   6.488   3.708   3.621 -1.3153  1.4543  0.3310
   99SAPC  C212 9843   6.555   3.795   3.799  0.7110  0.1824 -0.3350
   99SAPC  H12R 9844   6.469   3.863   3.803  0.0793 -0.6467  2.3300
   99SAPC  C213 9845   6.661   3.806   3.908  0.0919 -0.8474  0.2996
   99SAPC  H13R 9846   6.760   3.813   3.859  0.6504 -3.0413  0.9698
   99SAPC  H13S 9847   6.658   3.714   3.970 -1.5450  0.0730  1.6719
   99SAPC  C214 9848   6.649   3.934   3.985 -0.0215  0.3002 -0.1928
   99SAPC  H14R 9849   6.631   4.016   3.914 -0.0686  0.1447 -0.3633
   99SAPC  C215 9850   6.625   3.943   4.116 -0.6990  0.1694  0.7609
   99SAPC  H15R 9851   6.621   4.046   4.155  0.8425 -0.2423  2.1368
   99SAPC  C216 9852   6.626   3.833   4.215  0.1131  0.1589 -0.1325
   99SAPC  H16R 9853   6.589   3.736   4.176  3.4825 -0.7575 -1.3881
   99SAPC  H16S 9854   6.553   3.863   4.293  0.7673  0.9691  0.1829
   99SAPC  C217 9855   6.758   3.806   4.293 -0.6113  0.0796 -0.1682
   99SAPC  H17R 9856   6.847   3.804   4.227 -0.4860  0.3546 -0.0088
   99SAPC  H17S 9857   6.756   3.705   4.339 -0.2421  0.3250  0.4086
   99SAPC  C218 9858   6.773   3.907   4.408 -0.1984 -0.3241 -0.9085
   99SAPC  H18R 9859   6.691   3.901   4.483  3.1929 -1.3934  3.1439
   99SAPC  H18S 9860   6.773   4.008   4.362  2.5007  0.3799  0.4265
   99SAPC  C219 9861   6.906   3.889   4.487  0.0456 -0.9473  0.0566
   99SAPC  H19R 9862   6.991   3.900   4.416 -1.0741  1.0645 -1.0704
   99SAPC  H19S 9863   6.912   3.785   4.527 -0.3963 -0.2621  2.0081
   99SAPC  C220 9864   6.929   3.999   4.592  0.9191 -0.3730 -0.6339
   99SAPC  H20R 9865   6.852   3.984   4.671  1.0649 -1.5155 -0.6912
   99SAPC  H20S 9866   6.913   4.096   4.540 -0.1706 -0.7058 -0.9487
   99SAPC  H20T 9867   7.035   4.004   4.622  0.5037  0.6482  0.7713
   99SAPC   C33 9868   6.324   3.190   2.983  0.8308  0.0451  0.3203
   99SAPC   H3X 9869   6.430   3.184   2.952  0.8229  2.3806 -0.3666
   99SAPC   H3Y 9870   6.267   3.099   2.953 -1.9643  1.3765  1.2103
   99SAPC   C34 9871   6.326   3.202   3.135  0.2582  0.0518  0.3474
   99SAPC   H4X 9872   6.413   3.260   3.171 -0.3036  3.3959 -3.0679
   99SAPC   H4Y 9873   6.348   3.102   3.179 -2.5990 -0.5885  0.5559
   99SAPC   C35 9874   6.202   3.261   3.198 -0.2321  0.6895  0.0943
   99SAPC   H5X 9875   6.111   3.207   3.165  0.8372 -1.8463  1.0928
   99SAPC   H5Y 9876   6.186   3.363   3.156 -1.8751  0.8066  0.9047
   99SAPC   C36 9877   6.198   3.254   3.350 -0.1207 -0.5822  0.1841
   99SAPC   H6X 9878   6.287   3.314   3.382  0.4476 -1.1341 -0.3287
   99SAPC   H6Y 9879   6.210   3.146   3.372 -0.4752 -1.4547 -3.2309
   99SAPC   C37 9880   6.068   3.319   3.412  0.1183  0.0952  0.3120
   99SAPC   H7X 9881   6.061   3.283   3.517 -2.3949  0.4508  0.3410
   99SAPC   H7Y 9882   5.980   3.267   3.367  2.0476 -1.3258 -2.0990
   99SAPC   C38 9883   6.050   3.473   3.401 -0.6406 -0.1249 -0.0403
   99SAPC   H8X 9884   5.973   3.483   3.321 -1.1648 -0.4575  0.4204
   99SAPC   H8Y 9885   6.139   3.532   3.370  2.1088 -3.3308  1.1297
   99SAPC   C39 9886   6.010   3.545   3.537  0.3038  0.5103  0.5259
   99SAPC   H9X 9887   5.916   3.493   3.568  0.0397 -0.5216 -1.8258
   99SAPC   H9Y 9888   5.976   3.647   3.507  2.1209  0.4068 -2.2427
   99SAPC  C310 9889   6.111   3.566   3.645  0.4681 -0.0934  0.2163
   99SAPC  H10X 9890   6.196   3.617   3.595 -1.7260  2.5063 -1.1377
   99SAPC  H10Y 9891   6.141   3.465   3.680 -0.7873 -0.9397 -0.9921
   99SAPC  C311 9892   6.054   3.659   3.760  0.5800  0.2007 -0.2095
   99SAPC  H11X 9893   5.961   3.614   3.801  0.5139 -0.7546 -1.3451
   99SAPC  H11Y 9894   6.007   3.750   3.718  0.6319  0.7119  0.8199
   99SAPC  C312 9895   6.158   3.671   3.879  0.5407 -0.2510 -0.2088
   99SAPC  H12X 9896   6.261   3.668   3.838  0.0925  0.8609 -1.5012
   99SAPC  H12Y 9897   6.150   3.573   3.931 -0.0833  1.0824  2.3588
   99SAPC  C313 9898   6.134   3.780   3.974 -0.4715  0.6615  0.0145
   99SAPC  H13X 9899   6.026   3.782   4.003 -0.7843 -1.0919 -0.8431
   99SAPC  H13Y 9900   6.162   3.879   3.933 -0.2479  0.1465 -1.1330
   99SAPC  C314 9901   6.205   3.763   4.117  0.0171 -0.5444  1.4267
   99SAPC  H14X 9902   6.199   3.858   4.175 -0.0094 -0.9718  2.1292
   99SAPC  H14Y 9903   6.313   3.761   4.089 -0.2204 -0.8896  0.5003
   99SAPC  C315 9904   6.157   3.655   4.203  0.1934  0.2044  0.0386
   99SAPC  H15X 9905   6.145   3.553   4.161  1.0696 -0.3224  1.0402
   99SAPC  H15Y 9906   6.057   3.688   4.240 -0.3572 -0.4995 -0.8025
   99SAPC  C316 9907   6.243   3.641   4.326  0.0700  0.6652 -0.6603
   99SAPC  H16X 9908   6.243   3.731   4.392 -0.5829  1.9896 -2.3859
   99SAPC  H16Y 9909   6.348   3.632   4.291  0.0589 -1.7473 -0.1893
   99SAPC  C317 9910   6.206   3.520   4.417 -0.1988  0.6600  0.9220
   99SAPC  H17X 9911   6.097   3.511   4.431 -0.0636  0.0635  1.6667
   99SAPC  H17Y 9912   6.254   3.530   4.517 -3.2653 -2.2416  2.8851
   99SAPC  C318 9913   6.247   3.379   4.363 -0.3032  0.0557 -0.1031
   99SAPC  H18X 9914   6.236   3.372   4.253 -1.3918 -1.8449  0.0810
   99SAPC  H18Y 9915   6.196   3.297   4.418  0.4026 -1.0754 -1.1036
   99SAPC  H18Z 9916   6.353   3.357   4.389 -0.3159  1.1771  1.0234
  100SAPC     N 9917   0.244   1.281   2.150  0.2002  1.2925  0.6422
  100SAPC   C12 9918   0.376   1.289   2.216 -0.2284 -0.2302 -0.3817
  100SAPC  H12A 9919   0.403   1.394   2.214 -0.6359 -0.1023  0.4719
  100SAPC  H12B 9920   0.449   1.242   2.152 -0.6888  1.7263 -2.4636
  100SAPC   C13 9921   0.185   1.140   2.168 -0.3556 -0.0531  0.0904
  100SAPC  H13A 9922   0.189   1.118   2.273  1.0662 -0.2561  0.0229
  100SAPC  H13B 9923   0.084   1.135   2.129 -0.1175 -1.0824 -0.4570
  100SAPC  H13C 9924   0.235   1.064   2.108 -0.5884 -0.5177  0.4790
  100SAPC   C14 9925   0.142   1.361   2.217  0.4117 -1.4303 -0.4883
  100SAPC  H14A 9926   0.039   1.349   2.188  0.5831 -3.3072 -0.4187
  100SAPC  H14B 9927   0.149   1.347   2.324 -2.9506 -0.3230 -0.0096
  100SAPC  H14C 9928   0.165   1.465   2.201  2.1096 -1.6964 -0.0506
  100SAPC   C15 9929   0.258   1.309   2.008 -0.8430 -0.4150  0.5402
  100SAPC  H15A 9930   0.324   1.243   1.954 -0.1016  0.4174  0.3858
  100SAPC  H15B 9931   0.161   1.293   1.964 -1.1387 -2.3870  1.7892
  100SAPC  H15C 9932   0.284   1.412   1.987  1.1468 -0.7778  1.0067
  100SAPC   C11 9933   0.382   1.236   2.365  0.4030 -0.0367  0.5920
  100SAPC  H11A 9934   0.307   1.290   2.426 -0.4112  0.3836 -0.7517
  100SAPC  H11B 9935   0.471   1.266   2.423  1.1558 -0.7968 -0.1351
  100SAPC     P 9936   0.497   1.002   2.340  0.5885 -0.2985 -0.4100
  100SAPC   O13 9937   0.444   0.870   2.326  0.5804 -0.4269 -0.0658
  100SAPC   O14 9938   0.571   1.065   2.231 -0.2933 -0.2998  0.1963
  100SAPC   O12 9939   0.372   1.095   2.383 -0.0498 -0.3100 -0.4557
  100SAPC   O11 9940   0.590   1.003   2.463  0.4726  0.4568 -0.3542
  100SAPC    C1 9941   0.538   1.035   2.596 -0.6754 -0.0892  0.3106
  100SAPC    HA 9942   0.466   1.120   2.595  0.3564  0.8761 -2.4738
  100SAPC    HB 9943   0.510   0.940   2.646  0.1585 -0.0274  0.9025
  100SAPC    C2 9944   0.652   1.101   2.687 -0.0670 -0.0030 -0.3341
  100SAPC    HS 9945   0.655   1.206   2.652 -2.1013  0.2986  0.2274
  100SAPC   O21 9946   0.772   1.036   2.651  0.3514 -0.7728  0.1895
  100SAPC   C21 9947   0.880   1.100   2.683 -0.7178 -0.4183  1.1002
  100SAPC   O22 9948   0.886   1.199   2.750  0.2000  0.1939  0.1657
  100SAPC   C22 9949   0.993   1.033   2.598  0.9964  0.3160 -0.2929
  100SAPC   H2R 9950   0.983   0.922   2.600  3.3653  0.0407 -0.2243
  100SAPC   H2S 9951   0.971   1.070   2.495 -3.8276 -0.8505  0.0917
  100SAPC    C3 9952   0.618   1.096   2.841 -0.4370  0.2542 -0.7897
  100SAPC    HX 9953   0.707   1.132   2.897  1.7303 -1.8258 -2.6544
  100SAPC    HY 9954   0.613   0.989   2.870 -1.9963  0.7781  1.0629
  100SAPC   O31 9955   0.502   1.174   2.868  0.1952  0.2881  0.1252
  100SAPC   C31 9956   0.388   1.106   2.898 -0.5720  0.4014  0.3644
  100SAPC   O32 9957   0.389   0.983   2.901  0.2300  0.7294  0.1184
  100SAPC   C32 9958   0.270   1.204   2.930 -0.1217  0.2009 -0.3569
  100SAPC   H2X 9959   0.178   1.150   2.901  0.0004 -0.2215  0.0379
  100SAPC   H2Y 9960   0.283   1.292   2.863  0.4944  0.0021 -0.5031
  100SAPC   C23 9961   1.134   1.077   2.640  0.0594  0.1674  0.3399
  100SAPC   H3R 9962   1.139   1.188   2.638 -1.9511  0.2786 -1.4643
  100SAPC   H3S 9963   1.207   1.042   2.564  0.9371  2.4829  0.0537
  100SAPC   C24 9964   1.174   1.029   2.769  0.0143  0.0662 -0.0132
  100SAPC   H4R 9965   1.155   0.922   2.791  1.0714 -0.0090  0.6565
  100SAPC   H4S 9966   1.119   1.087   2.846  0.7406  0.7782 -0.0120
  100SAPC   C25 9967   1.326   1.045   2.796 -0.1082 -0.1779 -0.6862
  100SAPC   H5R 9968   1.381   1.047   2.701 -0.0019  0.4460 -0.6185
  100SAPC   C26 9969   1.392   1.035   2.914  0.0551 -0.0540 -0.2176
  100SAPC   H6R 9970   1.500   1.052   2.922  0.1638 -0.1092 -1.3977
  100SAPC   C27 9971   1.319   1.012   3.047 -0.3129  0.0655 -0.4720
  100SAPC   H7R 9972   1.290   0.905   3.041  1.6700 -0.5424 -0.0657
  100SAPC   H7S 9973   1.228   1.074   3.058  0.5732  1.5685 -1.2581
  100SAPC   C28 9974   1.414   1.027   3.166  0.3731  1.0038  1.0233
  100SAPC   H8R 9975   1.520   1.012   3.141  0.0958  0.5240  0.0831
  100SAPC   C29 9976   1.374   1.056   3.291 -0.6493  0.5098 -0.3060
  100SAPC   H9R 9977   1.440   1.060   3.379 -2.1391 -1.9454  1.0725
  100SAPC  C210 9978   1.231   1.068   3.338 -0.9914  0.2588  0.6256
  100SAPC  H10R 9979   1.163   1.087   3.253 -1.1487 -1.4983  0.3268
  100SAPC  H10S 9980   1.225   1.168   3.387 -0.0607  1.2748 -1.2261
  100SAPC  C211 9981   1.182   0.947   3.425  0.1093 -0.3146  0.2108
  100SAPC  H11R 9982   1.137   0.862   3.372  0.5615 -0.9581  0.8369
  100SAPC  C212 9983   1.158   0.949   3.552  0.8137 -0.4953  0.1587
  100SAPC  H12R 9984   1.133   0.860   3.611  1.1372 -0.6931 -0.0020
  100SAPC  C213 9985   1.186   1.056   3.652  1.0572  0.2985  0.9250
  100SAPC  H13R 9986   1.141   1.034   3.750  1.3323 -0.6696  0.8400
  100SAPC  H13S 9987   1.136   1.145   3.608 -0.5884 -1.2985 -0.6036
  100SAPC  C214 9988   1.333   1.092   3.668  1.1433 -0.4375 -0.6539
  100SAPC  H14R 9989   1.397   1.065   3.583  0.5803  0.4915 -1.3779
  100SAPC  C215 9990   1.402   1.128   3.778  0.4973  0.2520 -0.4121
  100SAPC  H15R 9991   1.509   1.149   3.763 -0.4292  4.4197 -2.6406
  100SAPC  C216 9992   1.343   1.155   3.916 -0.3441 -0.0706  0.4983
  100SAPC  H16R 9993   1.233   1.141   3.925 -0.7308  2.4564  0.3267
  100SAPC  H16S 9994   1.353   1.265   3.923  3.8902 -0.3237  1.0924
  100SAPC  C217 9995   1.422   1.094   4.032 -0.3869  0.1821 -0.3842
  100SAPC  H17R 9996   1.529   1.118   4.015 -0.2024 -1.1899 -1.3323
  100SAPC  H17S 9997   1.412   0.984   4.020  1.1383 -0.0906  0.6403
  100SAPC  C218 9998   1.383   1.141   4.174  0.0917 -0.4164  0.0589
  100SAPC  H18R 9999   1.272   1.145   4.178  0.0953 -0.1340 -0.1596
  100SAPC  H18S10000   1.427   1.239   4.203  0.3124  0.4880 -3.0041
  100SAPC  C21910001   1.431   1.047   4.286  0.1070  0.3589 -0.5248
  100SAPC  H19R10002   1.386   0.945   4.292  1.1677 -0.0467  1.6251
  100SAPC  H19S10003   1.390   1.099   4.375  1.0119  2.5454 -1.3203
  100SAPC  C22010004   1.581   1.024   4.294  0.1275  0.1507 -0.7650
  100SAPC  H20R10005   1.633   1.121   4.305  2.6183 -0.9122 -2.2588
  100SAPC  H20S10006   1.626   0.972   4.207 -2.7507 -0.8020 -1.7993
  100SAPC  H20T10007   1.612   0.971   4.387  0.1658  1.2047 -0.1608
  100SAPC   C3310008   0.267   1.243   3.078 -0.5581 -0.1429  1.0130
  100SAPC   H3X10009   0.175   1.303   3.090 -0.8697 -0.5567  0.7198
  100SAPC   H3Y10010   0.352   1.311   3.102 -0.3604  0.0561 -0.1977
  100SAPC   C3410011   0.262   1.142   3.192  0.5012 -0.2163  0.4707
  100SAPC   H4X10012   0.334   1.058   3.191 -0.4390 -1.1139 -2.5045
  100SAPC   H4Y10013   0.165   1.088   3.183 -0.7172  1.9235 -0.0440
  100SAPC   C3510014   0.259   1.221   3.327  1.0805  0.5065  0.1270
  100SAPC   H5X10015   0.183   1.303   3.325  0.9269  0.3845  0.7669
  100SAPC   H5Y10016   0.353   1.280   3.333  0.6525  1.1656  0.5955
  100SAPC   C3610017   0.221   1.133   3.449 -0.0378  0.2367  0.1115
  100SAPC   H6X10018   0.294   1.050   3.465 -2.0488 -1.5192  0.5146
  100SAPC   H6Y10019   0.124   1.086   3.421 -1.0354  1.8607  0.7347
  100SAPC   C3710020   0.196   1.206   3.577 -0.2240 -0.0197  0.3018
  100SAPC   H7X10021   0.107   1.270   3.561 -0.5958 -0.4507  0.6083
  100SAPC   H7Y10022   0.280   1.275   3.599  0.1146 -0.4759  0.4650
  100SAPC   C3810023   0.161   1.114   3.703  0.0741 -0.4889 -0.1328
  100SAPC   H8X10024   0.253   1.053   3.715  1.3708  1.6238  1.4139
  100SAPC   H8Y10025   0.072   1.055   3.675  0.1511 -1.0980  0.8704
  100SAPC   C3910026   0.133   1.201   3.824  0.1344 -0.4893 -0.2363
  100SAPC   H9X10027   0.031   1.240   3.801  0.4657 -0.1354 -1.1325
  100SAPC   H9Y10028   0.199   1.290   3.827  0.2652 -0.5909 -0.1363
  100SAPC  C31010029   0.134   1.124   3.957 -0.1154  0.1382  0.3657
  100SAPC  H10X10030   0.209   1.042   3.958 -1.1869 -0.8784 -0.7458
  100SAPC  H10Y10031   0.031   1.084   3.961  0.3384 -1.1113 -0.0454
  100SAPC  C31110032   0.161   1.219   4.071 -0.2221  0.1779  0.5019
  100SAPC  H11X10033   0.116   1.171   4.160  0.7961  1.1634  1.6007
  100SAPC  H11Y10034   0.114   1.318   4.050 -2.4627 -0.9148  0.1900
  100SAPC  C31210035   0.310   1.238   4.104  0.8730  0.6966 -0.1143
  100SAPC  H12X10036   0.333   1.336   4.150 -1.5060  0.8183  0.9220
  100SAPC  H12Y10037   0.371   1.244   4.011  0.3741 -1.0170 -0.6004
  100SAPC  C31310038   0.366   1.119   4.182 -0.0430 -0.1016  0.8841
  100SAPC  H13X10039   0.380   1.028   4.119  0.1423 -1.2395  2.5045
  100SAPC  H13Y10040   0.285   1.097   4.255 -1.7107  0.8676 -0.5805
  100SAPC  C31410041   0.499   1.164   4.257  0.0367 -0.4664  0.1726
  100SAPC  H14X10042   0.477   1.248   4.326 -0.7105  0.7965 -1.5152
  100SAPC  H14Y10043   0.580   1.192   4.186  0.3682 -1.6415  0.0707
  100SAPC  C31510044   0.572   1.052   4.326  0.3537  0.2559 -0.9846
  100SAPC  H15X10045   0.671   1.080   4.369 -0.0055  2.4710 -1.4589
  100SAPC  H15Y10046   0.587   0.968   4.255 -2.1791 -0.0622 -1.2251
  100SAPC  C31610047   0.497   1.009   4.458 -0.7627  0.0858  0.2533
  100SAPC  H16X10048   0.403   0.955   4.433  0.8740 -2.9938  0.2635
  100SAPC  H16Y10049   0.461   1.095   4.518 -0.0801  1.2970 -1.0101
  100SAPC  C31710050   0.565   0.907   4.545  0.2905 -0.4830  0.0017
  100SAPC  H17X10051   0.492   0.863   4.617 -0.2413 -0.4553 -0.5092
  100SAPC  H17Y10052   0.651   0.952   4.598  1.7314 -1.1257 -1.6881
  100SAPC  C31810053   0.629   0.787   4.475  0.6613  0.5891 -0.4563
  100SAPC  H18X10054   0.548   0.719   4.441  1.8861 -1.0351 -0.2191
  100SAPC  H18Y10055   0.689   0.723   4.543 -1.1305 -1.2612 -0.5112
  100SAPC  H18Z10056   0.699   0.820   4.395  0.9317  1.5185  0.1469
  101OSM      N10057   6.196   6.733   5.249  0.7794  0.7512  0.5837
  101OSM    C1510058   6.101   6.628   5.302  0.6444 -0.2492  0.8945
  101OSM   H15A10059   6.048   6.565   5.233  0.8630 -3.0036  3.0741
  101OSM   H15B10060   6.026   6.684   5.357  0.1748  0.1387 -0.1182
  101OSM   H15C10061   6.148   6.558   5.370 -1.6818 -3.3637 -0.4631
  101OSM    C1410062   6.308   6.672   5.178 -0.9270  0.5082  0.4774
  101OSM   H14A10063   6.286   6.599   5.101  1.0059 -0.9202  1.1872
  101OSM   H14B10064   6.371   6.619   5.249 -0.1920  0.3696 -0.2601
  101OSM   H14C10065   6.370   6.750   5.136  3.1888 -3.5057 -1.8095
  101OSM    C1310066   6.117   6.814   5.153 -0.1534 -0.2710  0.3404
  101OSM   H13A10067   6.178   6.901   5.133 -0.0876 -0.3282  0.2936
  101OSM   H13B10068   6.027   6.859   5.193  0.7745  2.7789 -0.7056
  101OSM   H13C10069   6.083   6.764   5.063 -3.8337 -0.2927  1.5500
  101OSM    C1210070   6.242   6.823   5.368  0.1758 -0.0514 -0.0931
  101OSM   H12A10071   6.286   6.751   5.436  2.1545 -0.3459 -1.5662
  101OSM   H12B10072   6.154   6.856   5.421  0.1558 -1.3362  0.7237
  101OSM    C1110073   6.341   6.941   5.350 -0.1109 -0.7378 -0.0040
  101OSM   H11A10074   6.347   6.982   5.453 -0.4699  0.1678 -0.3330
  101OSM   H11B10075   6.302   7.019   5.280  1.0745 -1.8486 -2.0076
  101OSM      P10076   6.575   6.843   5.380 -0.0929 -0.0182  0.2070
  101OSM    O1310077   6.509   6.755   5.480 -0.2980  0.0708  0.0817
  101OSM    O1410078   6.675   6.787   5.291 -0.1748  0.2315 -0.4244
  101OSM    O1110079   6.625   6.970   5.458 -0.0984 -0.3673  0.1461
  101OSM    O1210080   6.468   6.904   5.293  0.2910 -0.4603 -0.2286
  101OSM    C1S10081   6.653   7.103   5.407 -0.3535 -0.7817  0.2466
  101OSM    H1S10082   6.681   7.090   5.300 -2.5544  0.6551 -0.5556
  101OSM    H1T10083   6.749   7.136   5.454 -0.8012  0.1506  0.5174
  101OSM     NF10084   6.583   7.321   5.340  0.6882  0.9820  0.0599
  101OSM    HNF10085   6.600   7.400   5.400 -0.8212  0.4264  1.2928
  101OSM    C2S10086   6.544   7.206   5.419  0.1943 -0.3538 -0.9711
  101OSM    H2S10087   6.452   7.159   5.379 -0.3928 -1.2343  1.2926
  101OSM    C3S10088   6.521   7.236   5.568  0.7285 -0.9680 -0.9989
  101OSM    H3S10089   6.607   7.291   5.612  0.3133 -2.4107  1.8457
  101OSM     O310090   6.518   7.113   5.647 -0.7796  0.0596  0.7591
  101OSM    HO310091   6.535   7.047   5.579 -1.0391 -0.7563  1.4735
  101OSM    C4S10092   6.390   7.310   5.590 -0.2849  0.0666 -0.2076
  101OSM    H4S10093   6.300   7.247   5.582  0.1548 -0.3321 -2.9361
  101OSM    C5S10094   6.370   7.431   5.648  0.0158  0.2019  0.4005
  101OSM    H5S10095   6.461   7.480   5.685  0.2916  0.8589 -1.0386
  101OSM    C6S10096   6.246   7.494   5.710 -0.1378  0.1380  0.4702
  101OSM    H6S10097   6.277   7.595   5.744  4.3525 -0.5384 -0.9983
  101OSM    H6T10098   6.226   7.437   5.803 -1.3103 -0.2097  0.0222
  101OSM    C7S10099   6.123   7.514   5.611 -0.2316 -0.2785 -0.2423
  101OSM    H7S10100   6.079   7.430   5.554 -0.1777  0.1356 -0.8959
  101OSM    H7T10101   6.150   7.571   5.520 -0.6491 -1.9253 -1.4440
  101OSM    C8S10102   6.009   7.575   5.693  0.4246 -0.1330  0.2457
  101OSM    H8S10103   6.052   7.658   5.753 -0.6880  0.2516  0.5416
  101OSM    H8T10104   5.963   7.504   5.765 -1.2231  1.0442  0.4038
  101OSM    C9S10105   5.890   7.612   5.604 -0.3534 -0.0296 -0.8699
  101OSM    H9S10106   5.802   7.600   5.671 -0.6508  0.0592 -1.2395
  101OSM    H9T10107   5.865   7.538   5.525  0.0880 -1.5864  0.3741
  101OSM   C10S10108   5.898   7.753   5.546  0.1161  0.1755 -0.0699
  101OSM   H10S10109   5.932   7.831   5.617 -0.1543  0.4546 -0.2418
  101OSM   H10T10110   5.796   7.779   5.510  0.4343  0.7810 -0.5499
  101OSM   C11S10111   5.975   7.779   5.424  0.2832 -0.2509 -0.5128
  101OSM   H11S10112   5.967   7.688   5.361  0.1919 -0.6982  0.1447
  101OSM   H11T10113   6.083   7.794   5.444  0.1968 -0.7229  0.3372
  101OSM   C12S10114   5.932   7.896   5.337 -0.5478 -0.1511 -0.5382
  101OSM   H12S10115   5.924   7.985   5.404 -0.6588 -3.3328  4.0934
  101OSM   H12T10116   5.828   7.884   5.301 -1.1083 -0.8194  1.2375
  101OSM   C13S10117   6.019   7.924   5.219  0.0323  0.0821 -0.6572
  101OSM   H13S10118   6.066   7.827   5.190  0.3634 -1.0314  3.0869
  101OSM   H13T10119   6.105   7.989   5.246  0.7998 -0.0091 -2.7138
  101OSM   C14S10120   5.931   7.992   5.114  0.3104  0.1773 -0.4901
  101OSM   H14S10121   5.905   8.097   5.140  0.3687  0.4113 -1.3547
  101OSM   H14T10122   5.842   7.927   5.099  0.0420  0.3955  0.0971
  101OSM   C15S10123   6.000   7.994   4.969 -0.0553  0.5165  0.2050
  101OSM   H15S10124   6.004   7.889   4.934 -1.1633  0.3513  0.5364
  101OSM   H15T10125   6.105   8.027   4.987 -0.3378  3.1001 -2.2652
  101OSM   C16S10126   5.938   8.096   4.872  0.3526 -0.4943  0.5993
  101OSM   H16S10127   5.955   8.199   4.910  0.8686 -0.0659 -0.7148
  101OSM   H16T10128   5.828   8.083   4.864  0.3029 -0.9530  1.8615
  101OSM   C17S10129   6.007   8.096   4.740 -0.2867 -0.2356  0.0761
  101OSM   H17S10130   5.990   7.995   4.698 -0.1008  0.4415 -1.7247
  101OSM   H17T10131   6.117   8.100   4.757 -0.0582  2.4146 -1.3708
  101OSM   C18S10132   5.960   8.192   4.630 -0.3597 -0.5674  0.1228
  101OSM   H18S10133   5.999   8.295   4.646  0.2175 -0.8479  0.5648
  101OSM   H18T10134   5.849   8.185   4.627 -0.5065  1.2661  0.0355
  101OSM   H18U10135   5.981   8.156   4.527 -0.5756 -1.0634  0.2521
  101OSM    C1F10136   6.600   7.328   5.208 -0.2081 -0.4266  0.5886
  101OSM     OF10137   6.569   7.238   5.131 -0.0768  0.2804  0.8341
  101OSM    C2F10138   6.665   7.456   5.151  0.5996 -0.0909  0.5455
  101OSM    H2F10139   6.770   7.454   5.188  0.0968 -0.1019  2.0287
  101OSM    H2G10140   6.605   7.534   5.201 -1.4575 -1.1096 -0.2086
  101OSM    C3F10141   6.670   7.466   5.002  0.1645  0.0742 -0.0855
  101OSM    H3F10142   6.570   7.461   4.954  0.6004 -0.8474 -0.9350
  101OSM    H3G10143   6.722   7.377   4.960 -1.9620 -0.8664 -0.8802
  101OSM    C4F10144   6.749   7.583   4.945  0.1754 -0.1835  0.3389
  101OSM    H4F10145   6.860   7.574   4.943  0.6673  4.0845 -0.1537
  101OSM    H4G10146   6.730   7.674   5.005  1.3427  0.1484  0.2439
  101OSM    C5F10147   6.718   7.605   4.794  0.2593  0.4855 -0.3125
  101OSM    H5F10148   6.630   7.673   4.795  0.4194  0.6927  0.0562
  101OSM    H5G10149   6.687   7.508   4.750 -2.1310  0.4778  1.2159
  101OSM    C6F10150   6.835   7.661   4.715 -0.1202 -0.6953 -0.0966
  101OSM    H6F10151   6.921   7.591   4.704  0.5945  0.1784 -0.1607
  101OSM    H6G10152   6.871   7.754   4.765  0.4093 -2.2808  2.6697
  101OSM    C7F10153   6.777   7.684   4.576 -0.2407 -0.3037  0.0160
  101OSM    H7F10154   6.675   7.729   4.578  0.0938  0.7921 -3.0652
  101OSM    H7G10155   6.770   7.583   4.532  0.8144 -0.0584 -0.7338
  101OSM    C8F10156   6.864   7.780   4.498 -0.6655 -0.7136  0.8082
  101OSM    H8F10157   6.964   7.733   4.502  0.1746  1.0391  1.2832
  101OSM    H8G10158   6.863   7.869   4.565 -0.6292  0.5906 -0.8482
  101OSM    C9F10159   6.819   7.801   4.355 -0.1800  0.0462  0.1388
  101OSM    H9F10160   6.795   7.706   4.305  2.0102 -1.0886  1.1123
  101OSM   C10F10161   6.833   7.916   4.284 -0.2230  0.1647  0.1936
  101OSM   H10F10162   6.803   7.923   4.179  0.3248  1.8399  0.1327
  101OSM   C11F10163   6.868   8.048   4.333  0.3744 -0.5336  0.7391
  101OSM   H11F10164   6.967   8.075   4.290 -0.6434  2.2033 -0.1062
  101OSM   H11G10165   6.868   8.037   4.443 -1.6181 -2.5914  0.5937
  101OSM   C12F10166   6.756   8.142   4.288 -0.5222 -0.3312 -0.0247
  101OSM   H12F10167   6.757   8.232   4.353 -1.2124  0.0472 -0.5301
  101OSM   H12G10168   6.653   8.108   4.308 -0.7553  0.6263  0.4447
  101OSM   C13F10169   6.774   8.191   4.143 -0.1030 -0.1659  0.1093
  101OSM   H13F10170   6.714   8.125   4.077 -1.0154  0.1613  0.5924
  101OSM   H13G10171   6.880   8.194   4.111  0.3652 -0.2534  1.5452
  101OSM   C14F10172   6.712   8.332   4.149 -0.3849 -0.8311 -0.5115
  101OSM   H14F10173   6.794   8.396   4.187 -0.1322  0.4151 -2.9090
  101OSM   H14G10174   6.616   8.336   4.205 -0.0176 -0.5324  0.0998
  101OSM   C15F10175   6.692   8.406   4.019  0.2938 -0.4414  0.0307
  101OSM   H15F10176   6.669   8.514   4.031  0.9800 -0.2828 -0.0445
  101OSM   H15G10177   6.595   8.363   3.984  1.0695 -0.5551 -2.1431
  101OSM   C16F10178   6.801   8.396   3.914 -0.0595  0.9886 -0.4935
  101OSM   H16F10179   6.819   8.289   3.888  0.4680  0.4044  2.0106
  101OSM   H16G10180   6.890   8.442   3.962 -1.0237  0.7687  1.5943
  101OSM   C17F10181   6.791   8.474   3.782 -0.6233  0.7423  0.4899
  101OSM   H17F10182   6.790   8.583   3.805  1.1261  0.6928  0.9311
  101OSM   H17G10183   6.690   8.458   3.737  0.8976  0.1978 -3.0720
  101OSM   C18F10184   6.903   8.441   3.685  0.0581 -0.1201 -0.6995
  101OSM   H18F10185   6.985   8.512   3.710 -0.0638 -1.3732  4.2326
  101OSM   H18G10186   6.864   8.464   3.584 -0.4427  0.9123 -0.2804
  101OSM   H18H10187   6.927   8.334   3.668  0.5459 -0.2774  0.8287
  102OSM      N10188   0.047   1.221   6.653  0.5749 -0.4219  0.4312
  102OSM    C1510189   0.062   1.347   6.724  0.1302 -0.0889 -0.3381
  102OSM   H15A10190  -0.010   1.418   6.687 -1.3487 -0.4594  1.6754
  102OSM   H15B10191   0.166   1.376   6.726 -0.0724  0.6243  0.8615
  102OSM   H15C10192   0.042   1.341   6.830  2.1142  0.1487  0.0802
  102OSM    C1410193   0.143   1.125   6.715 -0.4310 -0.4849  0.4230
  102OSM   H14A10194   0.146   1.025   6.675 -0.4948 -0.3474  0.0721
  102OSM   H14B10195   0.120   1.109   6.819 -0.1867  1.1901  0.7647
  102OSM   H14C10196   0.244   1.164   6.704  0.1169 -1.7810  0.7338
  102OSM    C1310197  -0.088   1.163   6.681 -0.5961 -0.0105  0.3898
  102OSM   H13A10198  -0.129   1.167   6.781 -1.1457 -1.7273  0.2676
  102OSM   H13B10199  -0.095   1.061   6.647  0.1067  0.4898 -1.3285
  102OSM   H13C10200  -0.161   1.220   6.625  1.3203  2.7303  0.4535
  102OSM    C1210201   0.080   1.246   6.508 -0.2239 -0.5777  0.1862
  102OSM   H12A10202   0.058   1.153   6.457 -0.2023  0.3863 -1.6543
  102OSM   H12B10203   0.187   1.256   6.499 -0.1246 -0.5949  1.2309
  102OSM    C1110204   0.004   1.352   6.426  0.1472 -0.1852  0.1345
  102OSM   H11A10205   0.054   1.359   6.327 -0.5816 -0.5584 -0.2691
  102OSM   H11B10206   0.013   1.450   6.477  1.1342 -1.1949  1.9903
  102OSM      P10207  -0.257   1.407   6.384 -0.2995 -0.3588 -0.4493
  102OSM    O1310208  -0.375   1.326   6.421  0.6789 -0.5756  0.0038
  102OSM    O1410209  -0.240   1.545   6.441  0.3263  0.2493 -0.3887
  102OSM    O1110210  -0.268   1.406   6.231 -0.1734 -0.6020 -0.6088
  102OSM    O1210211  -0.133   1.312   6.408  0.0312  0.0252 -0.5112
  102OSM    C1S10212  -0.215   1.296   6.153  0.4053 -0.0240 -0.8634
  102OSM    H1S10213  -0.259   1.202   6.192  3.4007 -0.8669  0.8336
  102OSM    H1T10214  -0.104   1.292   6.157  0.4320 -0.6990 -1.7895
  102OSM     NF10215  -0.210   1.181   5.940  0.4888 -0.0693  0.2331
  102OSM    HNF10216  -0.129   1.186   5.882  1.1380  0.0062  1.1131
  102OSM    C2S10217  -0.248   1.311   6.006 -0.0018 -0.3137  0.1981
  102OSM    H2S10218  -0.356   1.335   5.996  0.1530  0.0707 -0.5866
  102OSM    C3S10219  -0.172   1.434   5.969 -0.7836 -0.1540 -0.3862
  102OSM    H3S10220  -0.067   1.400   5.984 -0.9697 -0.3549  0.5000
  102OSM     O310221  -0.183   1.558   6.037 -0.8498 -0.2042 -0.0324
  102OSM    HO310222  -0.209   1.536   6.127 -0.1748  0.1004  0.2477
  102OSM    C4S10223  -0.193   1.456   5.819  0.2495 -0.9396  0.1651
  102OSM    H4S10224  -0.300   1.457   5.793  0.1357  0.6503  0.6358
  102OSM    C5S10225  -0.100   1.477   5.729  0.8815 -0.1121 -0.3159
  102OSM    H5S10226   0.006   1.469   5.757  0.5893 -1.0724  0.6023
  102OSM    C6S10227  -0.121   1.496   5.577  0.4636 -0.7757 -0.1933
  102OSM    H6S10228  -0.082   1.594   5.543  1.1643 -0.8563  0.3358
  102OSM    H6T10229  -0.227   1.497   5.546  0.3721 -0.2026  0.1205
  102OSM    C7S10230  -0.054   1.382   5.500  0.6322 -0.8386 -0.7086
  102OSM    H7S10231  -0.090   1.287   5.546 -0.2163 -0.1540  0.0938
  102OSM    H7T10232   0.055   1.396   5.516  0.1522  1.8284  0.8713
  102OSM    C8S10233  -0.079   1.399   5.358 -0.0238 -0.4934  0.0478
  102OSM    H8S10234  -0.043   1.500   5.332  1.0032 -0.4508  1.5535
  102OSM    H8T10235  -0.189   1.398   5.337 -0.1911 -2.5170  0.7702
  102OSM    C9S10236   0.006   1.296   5.271  0.0880  0.5193 -0.4913
  102OSM    H9S10237  -0.037   1.198   5.299  1.5347  0.0474  0.1813
  102OSM    H9T10238   0.112   1.303   5.303  0.0280  0.5148 -0.2935
  102OSM   C10S10239  -0.017   1.308   5.117  0.1283 -0.1593 -0.5412
  102OSM   H10S10240  -0.126   1.304   5.095 -0.0739  2.0297 -0.0887
  102OSM   H10T10241   0.025   1.219   5.066 -0.3580 -1.9071  1.9129
  102OSM   C11S10242   0.038   1.432   5.047  0.3357  0.2375 -0.5531
  102OSM   H11S10243   0.144   1.457   5.071  0.1753 -0.4044  0.9209
  102OSM   H11T10244  -0.020   1.523   5.069 -1.0881  0.3744 -4.1242
  102OSM   C12S10245   0.033   1.420   4.896  0.3828  0.1012  0.3889
  102OSM   H12S10246  -0.075   1.417   4.873 -0.1283 -0.1435  2.5941
  102OSM   H12T10247   0.086   1.325   4.870 -0.0229  0.2138 -0.9278
  102OSM   C13S10248   0.109   1.534   4.823  0.2793  1.0824 -0.4595
  102OSM   H13S10249   0.216   1.513   4.843  0.1087  0.5128 -0.1078
  102OSM   H13T10250   0.080   1.635   4.860 -0.4662  0.3528  1.0375
  102OSM   C14S10251   0.093   1.524   4.666 -0.3112 -0.1738 -0.4579
  102OSM   H14S10252  -0.010   1.563   4.648 -0.2257  0.8715  1.1384
  102OSM   H14T10253   0.099   1.418   4.633  0.3931 -0.0475 -0.7628
  102OSM   C15S10254   0.187   1.611   4.590 -0.5759  0.4450  0.2369
  102OSM   H15S10255   0.221   1.696   4.653 -0.6665  0.7191 -0.0777
  102OSM   H15T10256   0.149   1.655   4.495 -2.0489  0.7445  0.9305
  102OSM   C16S10257   0.311   1.534   4.540 -0.8949 -0.0062 -0.5571
  102OSM   H16S10258   0.378   1.613   4.500  0.4941 -1.4278 -1.1913
  102OSM   H16T10259   0.273   1.463   4.463 -1.2238 -0.3793 -0.0614
  102OSM   C17S10260   0.393   1.461   4.652  0.2043  0.2241  0.0367
  102OSM   H17S10261   0.335   1.382   4.705  1.4504 -0.2804  0.6984
  102OSM   H17T10262   0.420   1.527   4.737  0.2408 -1.0141  1.0212
  102OSM   C18S10263   0.510   1.387   4.594  0.3891  0.0865 -0.4609
  102OSM   H18S10264   0.582   1.354   4.672  1.7640  1.1135 -1.2500
  102OSM   H18T10265   0.565   1.442   4.515  0.4684 -2.5051 -2.3280
  102OSM   H18U10266   0.483   1.297   4.536  0.4932 -0.4632  0.3222
  102OSM    C1F10267  -0.285   1.071   5.950  0.2211  0.1935  0.0019
  102OSM     OF10268  -0.381   1.075   6.027  0.2714  0.1977  0.2718
  102OSM    C2F10269  -0.253   0.949   5.875 -0.1337 -0.6461 -0.1924
  102OSM    H2F10270  -0.299   0.865   5.931 -2.4445  1.6143  1.5541
  102OSM    H2G10271  -0.142   0.946   5.876  0.1417  3.7030  0.0088
  102OSM    C3F10272  -0.302   0.966   5.729 -0.2896 -0.8632 -0.3614
  102OSM    H3F10273  -0.413   0.974   5.731 -0.2525  0.0211  2.5175
  102OSM    H3G10274  -0.279   0.884   5.657  2.6482  0.6594 -1.3184
  102OSM    C4F10275  -0.256   1.092   5.654  0.0748  0.6057 -0.1976
  102OSM    H4F10276  -0.148   1.114   5.668  0.5615 -0.9506 -1.1995
  102OSM    H4G10277  -0.304   1.172   5.713  0.8875  0.8743  0.1049
  102OSM    C5F10278  -0.312   1.115   5.505 -0.3835 -0.1299 -0.4993
  102OSM    H5F10279  -0.242   1.065   5.436 -0.2327 -0.6050 -0.0066
  102OSM    H5G10280  -0.302   1.225   5.488  2.2444  0.1779  2.1458
  102OSM    C6F10281  -0.453   1.064   5.475  0.4883 -0.5907 -0.2484
  102OSM    H6F10282  -0.522   1.124   5.538 -1.0425 -0.1696 -2.2657
  102OSM    H6G10283  -0.461   0.954   5.491 -0.0625 -0.3320  1.5401
  102OSM    C7F10284  -0.500   1.085   5.324  0.2074  0.0784 -0.1781
  102OSM    H7F10285  -0.597   1.031   5.321 -0.0337  0.4842  0.1203
  102OSM    H7G10286  -0.426   1.039   5.255 -0.3310  1.8986 -2.0378
  102OSM    C8F10287  -0.514   1.235   5.295  0.1348  0.1369  0.2581
  102OSM    H8F10288  -0.418   1.288   5.313  0.9188 -0.7809 -1.0399
  102OSM    H8G10289  -0.585   1.276   5.370  1.3039  3.4075 -0.2453
  102OSM    C9F10290  -0.564   1.262   5.155  0.5962  0.0932  0.3256
  102OSM    H9F10291  -0.633   1.187   5.115  1.2571 -1.6841  2.3547
  102OSM   C10F10292  -0.522   1.357   5.068 -0.1609 -0.5407 -0.3033
  102OSM   H10F10293  -0.564   1.362   4.966 -0.5034  2.7370 -0.0885
  102OSM   C11F10294  -0.407   1.453   5.084  0.4762 -0.6159 -0.6501
  102OSM   H11F10295  -0.332   1.423   5.008 -0.5286 -2.7642 -0.8608
  102OSM   H11G10296  -0.366   1.448   5.187 -2.9611  1.2107  0.9707
  102OSM   C12F10297  -0.447   1.606   5.071 -0.1083  1.2846  0.0181
  102OSM   H12F10298  -0.493   1.625   4.972  0.0937  1.7213  0.0077
  102OSM   H12G10299  -0.358   1.671   5.061  0.5537  0.2602 -1.0294
  102OSM   C13F10300  -0.551   1.667   5.158  0.5802  0.1838 -1.0555
  102OSM   H13F10301  -0.516   1.760   5.207 -0.1161  0.5073 -1.1579
  102OSM   H13G10302  -0.592   1.591   5.229 -1.8807  1.1396 -1.3614
  102OSM   C14F10303  -0.676   1.713   5.076  0.2177  0.2169  0.5029
  102OSM   H14F10304  -0.701   1.645   4.993 -0.0741  0.8917  0.0311
  102OSM   H14G10305  -0.645   1.813   5.038 -0.0022 -0.2672 -1.0077
  102OSM   C15F10306  -0.796   1.734   5.163 -0.4039  0.1485  0.1002
  102OSM   H15F10307  -0.753   1.807   5.235  1.5729  1.6852 -2.4616
  102OSM   H15G10308  -0.832   1.641   5.210 -1.3740  0.8631  0.8049
  102OSM   C16F10309  -0.912   1.811   5.089  0.2156  0.3306 -0.5601
  102OSM   H16F10310  -0.941   1.757   4.996 -0.5792  0.0028 -0.1325
  102OSM   H16G10311  -0.860   1.903   5.056 -2.4186  1.9387 -0.4452
  102OSM   C17F10312  -1.029   1.854   5.175  0.4036  0.8511  0.4682
  102OSM   H17F10313  -1.101   1.919   5.120  0.1600  1.3496  1.3521
  102OSM   H17G10314  -0.993   1.926   5.251 -1.2464  2.7571 -0.4526
  102OSM   C18F10315  -1.101   1.737   5.250  0.6550 -0.2460 -0.6243
  102OSM   H18F10316  -1.128   1.655   5.180 -1.4233 -0.3411  0.1965
  102OSM   H18G10317  -1.190   1.767   5.310  0.3851 -1.8339 -0.1603
  102OSM   H18H10318  -1.035   1.695   5.329 -2.9322 -0.3267  2.6097
  103OSM      N10319   6.099   3.397   6.647 -0.0174  0.5501  0.2842
  103OSM    C1510320   5.979   3.484   6.649 -0.0263 -0.0141  0.2906
  103OSM   H15A10321   5.890   3.461   6.592  1.0962 -2.6073 -0.6005
  103OSM   H15B10322   6.012   3.582   6.617  1.3660 -0.8300 -0.9376
  103OSM   H15C10323   5.942   3.498   6.749 -2.1741  1.0380 -0.5940
  103OSM    C1410324   6.151   3.403   6.507  0.5090  1.1415 -0.3090
  103OSM   H14A10325   6.092   3.335   6.447  0.0577 -0.1138  1.4909
  103OSM   H14B10326   6.252   3.364   6.508  0.5544  1.0750 -2.5347
  103OSM   H14C10327   6.134   3.499   6.461 -4.0378  1.6204  1.8941
  103OSM    C1310328   6.203   3.457   6.735  0.0801 -0.2051 -0.6521
  103OSM   H13A10329   6.229   3.558   6.708  2.0845 -0.4643  0.0999
  103OSM   H13B10330   6.294   3.399   6.726 -0.3749 -0.9562 -0.5629
  103OSM   H13C10331   6.170   3.462   6.838 -0.4291 -1.0736 -0.7649
  103OSM    C1210332   6.057   3.258   6.691 -0.8321 -0.4824  0.5153
  103OSM   H12A10333   5.987   3.230   6.613  0.6771 -1.3313 -0.5973
  103OSM   H12B10334   6.010   3.268   6.787  0.1951  2.7128  0.7942
  103OSM    C1110335   6.165   3.150   6.703  0.3575  0.5733  0.1171
  103OSM   H11A10336   6.115   3.066   6.756  0.9062  0.7137  0.8655
  103OSM   H11B10337   6.250   3.182   6.766 -1.7138 -1.0645  4.0997
  103OSM      P10338   6.333   3.058   6.524  0.1351  0.2110  0.0741
  103OSM    O1310339   6.404   3.187   6.523 -0.4681  0.3835 -0.5301
  103OSM    O1410340   6.393   2.948   6.605  0.2997 -0.1122 -0.4521
  103OSM    O1110341   6.312   3.004   6.373  0.1843 -0.0339 -0.2802
  103OSM    O1210342   6.191   3.091   6.577 -0.0729  0.0043  0.1717
  103OSM    C1S10343   6.193   2.929   6.348  0.0013 -0.0860 -0.2731
  103OSM    H1S10344   6.102   2.990   6.361 -0.8491 -1.6749  1.8138
  103OSM    H1T10345   6.187   2.842   6.417 -0.9539  3.5773  4.7799
  103OSM     NF10346   6.055   2.835   6.165  0.1533  0.5146  0.8204
  103OSM    HNF10347   6.040   2.741   6.136  0.2447  0.6367  0.3755
  103OSM    C2S10348   6.193   2.861   6.207  0.2540  0.0147 -0.5919
  103OSM    H2S10349   6.240   2.927   6.131  1.1036  0.4988  0.3286
  103OSM    C3S10350   6.293   2.740   6.200  0.1102 -0.0275 -0.8011
  103OSM    H3S10351   6.255   2.657   6.262 -0.4964 -1.2518 -2.7087
  103OSM     O310352   6.422   2.778   6.249 -0.0240  0.1918  0.7408
  103OSM    HO310353   6.404   2.869   6.274 -2.3513 -0.6224  2.3552
  103OSM    C4S10354   6.307   2.697   6.063 -0.2870  0.4361 -0.2314
  103OSM    H4S10355   6.392   2.747   6.014  0.7053  1.1081  2.0870
  103OSM    C5S10356   6.255   2.585   6.008 -0.2903  0.4127  0.5323
  103OSM    H5S10357   6.195   2.512   6.063 -3.0229 -0.7999 -3.5776
  103OSM    C6S10358   6.297   2.537   5.870  0.5000 -0.8409  1.3694
  103OSM    H6S10359   6.325   2.430   5.865  0.9717 -0.6651 -2.0509
  103OSM    H6T10360   6.384   2.592   5.829 -0.2783 -1.6598 -1.6259
  103OSM    C7S10361   6.195   2.540   5.745 -0.3881  0.0076 -0.2383
  103OSM    H7S10362   6.146   2.633   5.710 -0.1269 -0.6664 -2.5395
  103OSM    H7T10363   6.104   2.484   5.775 -1.6929  1.9201 -0.4591
  103OSM    C8S10364   6.258   2.460   5.623 -0.3409 -0.8948  0.0410
  103OSM    H8S10365   6.293   2.362   5.659  0.3800 -0.5031  0.4218
  103OSM    H8T10366   6.342   2.522   5.586 -1.0701  0.2822  0.2900
  103OSM    C9S10367   6.162   2.439   5.507 -0.9129  0.1809  0.1469
  103OSM    H9S10368   6.149   2.541   5.465 -0.0742  0.9000  1.5413
  103OSM    H9T10369   6.059   2.409   5.535  0.1174 -1.7344  2.1745
  103OSM   C10S10370   6.208   2.334   5.406  0.0581  0.9304 -0.0388
  103OSM   H10S10371   6.246   2.241   5.453 -0.8867  0.3641 -0.3635
  103OSM   H10T10372   6.294   2.376   5.350  1.1323  0.7887  1.4261
  103OSM   C11S10373   6.092   2.282   5.314  0.1080 -0.2495 -0.0498
  103OSM   H11S10374   5.990   2.282   5.359 -0.1337  2.3531 -0.4482
  103OSM   H11T10375   6.116   2.183   5.271  1.9343  0.0918  0.0898
  103OSM   C12S10376   6.086   2.365   5.187  0.1991 -0.5597 -0.3962
  103OSM   H12S10377   6.189   2.369   5.147  0.4260 -1.2383  0.0960
  103OSM   H12T10378   6.054   2.465   5.224  0.3399 -1.0518  1.1581
  103OSM   C13S10379   5.990   2.313   5.083  0.3847  0.6445  0.0083
  103OSM   H13S10380   5.888   2.307   5.127  0.7679 -0.4141  0.7945
  103OSM   H13T10381   6.018   2.207   5.064  2.2118  0.6072  2.4885
  103OSM   C14S10382   5.993   2.390   4.951  0.0998  0.2906  0.0361
  103OSM   H14S10383   6.103   2.399   4.938  0.4444 -1.1148  1.6587
  103OSM   H14T10384   5.946   2.489   4.971  0.2217 -0.1141  2.5296
  103OSM   C15S10385   5.940   2.323   4.828  0.0802  0.1203  0.3778
  103OSM   H15S10386   5.948   2.407   4.756  1.2324 -2.4044 -2.6552
  103OSM   H15T10387   5.830   2.313   4.841 -0.3656  1.2360 -2.0129
  103OSM   C16S10388   6.014   2.198   4.770  0.9099 -1.1351  0.1015
  103OSM   H16S10389   5.983   2.106   4.823 -3.6135 -0.8725 -1.5946
  103OSM   H16T10390   6.124   2.208   4.756  0.9932 -0.2533  1.2535
  103OSM   C17S10391   5.964   2.177   4.623 -0.7020  0.1353 -0.2918
  103OSM   H17S10392   6.017   2.096   4.568  0.7677  1.5288 -1.0240
  103OSM   H17T10393   5.987   2.268   4.562 -0.3886 -0.8923 -1.7535
  103OSM   C18S10394   5.811   2.146   4.607 -0.2303  0.3544 -0.7901
  103OSM   H18S10395   5.755   2.238   4.635 -2.1631 -1.0346  0.0901
  103OSM   H18T10396   5.776   2.058   4.665 -0.9145  0.9042 -0.3586
  103OSM   H18U10397   5.788   2.121   4.501 -0.4480 -0.2026 -0.6119
  103OSM    C1F10398   5.961   2.925   6.136  0.6054  0.6070 -0.4414
  103OSM     OF10399   5.971   3.047   6.144 -0.2080  0.5051 -0.3087
  103OSM    C2F10400   5.828   2.876   6.092 -0.3883  0.2862  0.7876
  103OSM    H2F10401   5.763   2.883   6.181  0.5161  1.6696  1.3610
  103OSM    H2G10402   5.862   2.771   6.075 -1.6658 -0.4807  2.6800
  103OSM    C3F10403   5.766   2.952   5.965  0.7477 -0.0456 -0.4435
  103OSM    H3F10404   5.725   3.044   6.011  2.2904 -0.3221  1.5896
  103OSM    H3G10405   5.672   2.896   5.944  0.8510 -0.7894  0.9896
  103OSM    C4F10406   5.859   2.974   5.845 -0.5057  0.4330 -0.3827
  103OSM    H4F10407   5.941   3.044   5.873 -1.0944  1.2495 -0.6686
  103OSM    H4G10408   5.807   3.032   5.766  0.0612 -0.3562 -1.3574
  103OSM    C5F10409   5.908   2.848   5.769  0.2186  0.1941  0.2653
  103OSM    H5F10410   5.824   2.778   5.750 -0.6983  0.8079  1.8500
  103OSM    H5G10411   5.985   2.793   5.827  1.6809  0.7515 -1.0640
  103OSM    C6F10412   5.968   2.864   5.630  0.4164 -0.4433 -0.2778
  103OSM    H6F10413   6.079   2.864   5.635  0.3552  0.0577  2.4751
  103OSM    H6G10414   5.941   2.967   5.599 -0.5285 -0.3171  0.8804
  103OSM    C7F10415   5.915   2.765   5.517  0.7242 -0.0105 -0.1670
  103OSM    H7F10416   5.804   2.765   5.521  0.7058 -2.0919  0.2843
  103OSM    H7G10417   5.939   2.659   5.537 -2.9454 -0.7176  1.3735
  103OSM    C8F10418   5.970   2.801   5.383 -0.1362  0.0087  0.1691
  103OSM    H8F10419   6.075   2.766   5.374 -0.4430 -0.8368 -0.1211
  103OSM    H8G10420   5.971   2.909   5.356 -0.3050 -0.7976 -3.6534
  103OSM    C9F10421   5.904   2.740   5.265  0.2775 -0.0765 -0.8496
  103OSM    H9F10422   5.924   2.632   5.270 -1.7270 -0.4460  1.4153
  103OSM   C10F10423   5.851   2.798   5.152  0.1719  0.2696  0.5732
  103OSM   H10F10424   5.809   2.731   5.075 -0.3602 -0.8738  1.8119
  103OSM   C11F10425   5.827   2.944   5.127  0.5012  0.2416  0.7284
  103OSM   H11F10426   5.918   2.980   5.074 -0.1314  0.7164 -0.0693
  103OSM   H11G10427   5.821   2.999   5.224  0.0413  1.7727 -0.1228
  103OSM   C12F10428   5.693   2.978   5.057  0.0366  0.1022  0.1205
  103OSM   H12F10429   5.684   3.088   5.044  2.1618  0.2284 -0.5627
  103OSM   H12G10430   5.602   2.947   5.114  0.3945 -2.4103 -0.5584
  103OSM   C13F10431   5.680   2.922   4.916  0.6528  0.6585 -0.5005
  103OSM   H13F10432   5.581   2.958   4.880 -1.0144 -1.2131  1.9204
  103OSM   H13G10433   5.676   2.812   4.901  0.9590  0.3815  1.2425
  103OSM   C14F10434   5.794   2.966   4.821 -0.0326 -1.7811 -0.0144
  103OSM   H14F10435   5.896   2.930   4.846  0.7558  0.3475  0.1043
  103OSM   H14G10436   5.797   3.073   4.854 -0.9648 -1.3679 -1.2138
  103OSM   C15F10437   5.748   2.979   4.678 -0.6396  0.5091  0.6100
  103OSM   H15F10438   5.677   3.064   4.681 -0.4300  0.6592  1.8493
  103OSM   H15G10439   5.696   2.885   4.648  2.3777 -0.5401 -1.8420
  103OSM   C16F10440   5.863   3.008   4.579  0.2396  0.1396 -0.3408
  103OSM   H16F10441   5.928   2.918   4.573  0.2940  0.1691 -0.1888
  103OSM   H16G10442   5.922   3.096   4.611 -0.7577  0.5443  0.4376
  103OSM   C17F10443   5.801   3.050   4.442  0.0526  0.9375 -0.2544
  103OSM   H17F10444   5.716   3.119   4.460 -0.2710 -0.0216  2.4410
  103OSM   H17G10445   5.753   2.967   4.387  1.4066  0.9079 -1.4376
  103OSM   C18F10446   5.909   3.103   4.355  0.4097  0.4995 -0.2242
  103OSM   H18F10447   5.864   3.107   4.253 -3.2926  1.4625  1.2837
  103OSM   H18G10448   5.994   3.032   4.359 -1.3216 -1.6459  0.3254
  103OSM   H18H10449   5.953   3.201   4.386  3.7838 -1.4555  1.7209
  104OSM      N10450   1.127   2.935   6.635 -0.5757 -0.4708  0.8811
  104OSM    C1510451   1.078   3.066   6.587 -0.9502  0.3856 -0.1799
  104OSM   H15A10452   1.017   3.119   6.659  1.7648  1.2132  1.6709
  104OSM   H15B10453   1.017   3.042   6.501 -1.5384  1.2270 -0.0123
  104OSM   H15C10454   1.158   3.137   6.571  2.0160 -2.3904  1.1380
  104OSM    C1410455   1.216   2.955   6.752 -0.1121  0.1424  0.1842
  104OSM   H14A10456   1.187   3.025   6.828  0.4787  1.7057 -0.9829
  104OSM   H14B10457   1.313   2.994   6.724 -0.0359 -1.0312 -1.3431
  104OSM   H14C10458   1.231   2.865   6.810  0.1125  1.9458  3.0758
  104OSM    C1310459   1.006   2.860   6.682  0.3517  0.6124  0.1058
  104OSM   H13A10460   0.939   2.840   6.599 -0.8904 -3.0841  1.7942
  104OSM   H13B10461   0.959   2.923   6.756 -1.9134  2.1203 -2.3894
  104OSM   H13C10462   1.033   2.766   6.725 -0.7817  0.2902  0.1495
  104OSM    C1210463   1.196   2.856   6.521  0.1902 -0.1461 -0.2778
  104OSM   H12A10464   1.289   2.904   6.494  0.8046  1.0429  3.2815
  104OSM   H12B10465   1.131   2.844   6.436 -1.3772  1.2576  0.6606
  104OSM    C1110466   1.243   2.708   6.564 -0.3050 -0.0232  0.5738
  104OSM   H11A10467   1.298   2.717   6.660 -3.7751 -0.7484  2.8066
  104OSM   H11B10468   1.318   2.669   6.493 -0.3213 -0.4777  0.8029
  104OSM      P10469   1.155   2.481   6.650 -0.3431 -0.0773  0.3619
  104OSM    O1310470   1.229   2.494   6.776 -0.3764 -0.0422  0.0305
  104OSM    O1410471   1.027   2.410   6.662 -0.2752 -0.0715  0.3418
  104OSM    O1110472   1.243   2.401   6.547 -0.1621 -0.2744  0.1126
  104OSM    O1210473   1.134   2.621   6.584 -0.7378  0.1688  0.1542
  104OSM    C1S10474   1.185   2.395   6.412  0.0966 -0.1688  0.2667
  104OSM    H1S10475   1.221   2.489   6.365  0.9029 -0.7404 -0.2860
  104OSM    H1T10476   1.074   2.402   6.411  0.1230  2.0272  2.8898
  104OSM     NF10477   1.184   2.264   6.215  0.1867 -0.0123 -0.7681
  104OSM    HNF10478   1.106   2.205   6.194 -1.3418  2.0532 -1.1370
  104OSM    C2S10479   1.239   2.264   6.345 -0.3457 -0.7840  0.6490
  104OSM    H2S10480   1.348   2.276   6.330 -0.4920  2.7626  1.4154
  104OSM    C3S10481   1.214   2.144   6.439  0.4923  0.5783  0.4384
  104OSM    H3S10482   1.107   2.130   6.468  0.7471 -0.4248  0.9165
  104OSM     O310483   1.285   2.152   6.559 -0.3946  0.3032  0.1753
  104OSM    HO310484   1.281   2.247   6.568  0.1163  0.3159  0.2850
  104OSM    C4S10485   1.259   2.019   6.367  0.0887  0.5929  0.6526
  104OSM    H4S10486   1.357   2.022   6.317 -0.5543 -3.7169 -1.3393
  104OSM    C5S10487   1.178   1.909   6.349  0.3865 -0.2913  0.0977
  104OSM    H5S10488   1.076   1.914   6.391  0.6557 -0.2464  0.7670
  104OSM    C6S10489   1.199   1.781   6.275 -0.0548  0.2528 -0.8425
  104OSM    H6S10490   1.177   1.702   6.349  0.7674 -0.0092 -0.8596
  104OSM    H6T10491   1.306   1.769   6.247  0.6512  0.0317  1.7183
  104OSM    C7S10492   1.111   1.746   6.153  0.0075  0.2769 -0.0377
  104OSM    H7S10493   1.013   1.735   6.205  0.2031  1.4046  0.6250
  104OSM    H7T10494   1.140   1.650   6.106  0.8497 -0.6589  2.2377
  104OSM    C8S10495   1.106   1.856   6.042  0.4289 -0.1287 -0.4786
  104OSM    H8S10496   1.051   1.943   6.084 -0.9982 -1.2780  0.1159
  104OSM    H8T10497   1.044   1.821   5.956 -0.9099 -0.9692  0.7819
  104OSM    C9S10498   1.243   1.898   5.981 -0.4039  0.5639 -0.0980
  104OSM    H9S10499   1.311   1.813   5.963  0.5831  1.3659 -0.2301
  104OSM    H9T10500   1.286   1.956   6.066  1.1083 -1.2081  0.3981
  104OSM   C10S10501   1.223   1.988   5.857 -0.0845  0.1980  0.2712
  104OSM   H10S10502   1.312   2.053   5.847  1.1105 -1.4826 -0.5217
  104OSM   H10T10503   1.133   2.050   5.875 -1.4998 -1.4314 -0.8779
  104OSM   C11S10504   1.205   1.905   5.729 -0.9194  0.7845  0.6155
  104OSM   H11S10505   1.122   1.832   5.732  0.8669 -1.3438  1.0014
  104OSM   H11T10506   1.298   1.845   5.718 -1.8005 -0.7504  1.3244
  104OSM   C12S10507   1.216   1.994   5.603  0.2513 -0.2895  0.1163
  104OSM   H12S10508   1.301   2.064   5.607 -0.0112  0.0225  0.2546
  104OSM   H12T10509   1.133   2.067   5.597  1.0682  0.5339 -1.9381
  104OSM   C13S10510   1.226   1.909   5.473  0.5970  0.2627  0.9791
  104OSM   H13S10511   1.161   1.819   5.485 -0.5822  0.9667  0.0441
  104OSM   H13T10512   1.333   1.877   5.468  1.3716  2.8283 -1.4675
  104OSM   C14S10513   1.203   1.991   5.350 -0.0280 -0.8301  0.5838
  104OSM   H14S10514   1.279   2.066   5.321  2.0985 -3.3283 -0.6993
  104OSM   H14T10515   1.117   2.061   5.364  0.8246  0.6436 -1.1836
  104OSM   C15S10516   1.173   1.906   5.220 -0.2117 -0.9286  0.4768
  104OSM   H15S10517   1.076   1.854   5.238 -1.7167  1.4495 -0.2773
  104OSM   H15T10518   1.253   1.831   5.205  0.2154 -0.2334 -0.8792
  104OSM   C16S10519   1.157   1.994   5.096 -0.1974  0.1332  0.1219
  104OSM   H16S10520   1.255   2.040   5.071 -0.5092  0.1409 -1.1265
  104OSM   H16T10521   1.087   2.079   5.111 -0.2534 -0.3100  2.9794
  104OSM   C17S10522   1.115   1.919   4.973  0.0467  0.3750  0.4055
  104OSM   H17S10523   1.008   1.888   4.980  0.1491  0.0935  0.7633
  104OSM   H17T10524   1.180   1.829   4.965 -2.2806 -1.3298 -0.9107
  104OSM   C18S10525   1.142   2.003   4.847  0.2867 -0.4344  0.3169
  104OSM   H18S10526   1.079   2.095   4.858  1.1125  0.2890 -0.7893
  104OSM   H18T10527   1.111   1.941   4.761  0.9045  0.0787 -0.2813
  104OSM   H18U10528   1.247   2.037   4.836  0.4367 -0.9654  0.1156
  104OSM    C1F10529   1.217   2.351   6.122 -0.6880 -0.2346  0.4069
  104OSM     OF10530   1.324   2.419   6.141 -0.2085  0.0951  0.4299
  104OSM    C2F10531   1.139   2.359   5.996 -0.2780  0.2343 -0.0359
  104OSM    H2F10532   1.082   2.454   5.994 -0.1239  0.3330 -2.4777
  104OSM    H2G10533   1.080   2.265   5.989  0.4725 -0.2364 -0.1927
  104OSM    C3F10534   1.240   2.375   5.880  0.6571  0.5066  0.0635
  104OSM    H3F10535   1.302   2.282   5.880  1.1181  0.7573  2.1873
  104OSM    H3G10536   1.290   2.474   5.888 -1.9773  2.2272 -2.7869
  104OSM    C4F10537   1.170   2.383   5.752  1.0450 -0.4915 -0.1822
  104OSM    H4F10538   1.095   2.465   5.755  2.3924  0.7786 -0.0792
  104OSM    H4G10539   1.119   2.289   5.725 -1.2948  0.0272  2.0145
  104OSM    C5F10540   1.258   2.435   5.632 -0.4119  0.4678 -0.3943
  104OSM    H5F10541   1.340   2.501   5.666 -0.5759  0.9563 -0.9190
  104OSM    H5G10542   1.186   2.486   5.565 -0.9810  0.0263 -0.1286
  104OSM    C6F10543   1.324   2.326   5.544  0.0393 -0.0848  0.2952
  104OSM    H6F10544   1.238   2.272   5.499 -0.8848  0.9900  0.7426
  104OSM    H6G10545   1.387   2.256   5.603  2.0807  0.0149 -1.6090
  104OSM    C7F10546   1.408   2.392   5.427  0.2800  0.2898  0.4158
  104OSM    H7F10547   1.492   2.456   5.462  1.7487 -0.6679 -1.1851
  104OSM    H7G10548   1.340   2.468   5.383  0.5404 -0.0359 -0.5934
  104OSM    C8F10549   1.455   2.283   5.330 -0.8175 -0.3016  0.2429
  104OSM    H8F10550   1.365   2.233   5.289  0.4512 -2.5173  0.0202
  104OSM    H8G10551   1.521   2.211   5.383 -2.4342 -1.1818  1.1224
  104OSM    C9F10552   1.532   2.345   5.222  0.7827  0.4350 -0.1941
  104OSM    H9F10553   1.586   2.435   5.256 -1.4651  2.1170 -0.8791
  104OSM   C10F10554   1.547   2.297   5.092  0.7201 -0.2524 -0.2010
  104OSM   H10F10555   1.605   2.359   5.023 -0.5012  3.1087  1.5424
  104OSM   C11F10556   1.499   2.173   5.024 -0.3069 -0.7110  0.0381
  104OSM   H11F10557   1.395   2.187   4.987 -0.6168 -0.7981  0.8615
  104OSM   H11G10558   1.474   2.094   5.098 -1.6830 -0.9869 -0.6850
  104OSM   C12F10559   1.590   2.121   4.910 -0.4566  0.4914 -0.0748
  104OSM   H12F10560   1.679   2.080   4.962 -0.1572  0.6856 -0.4349
  104OSM   H12G10561   1.629   2.203   4.846 -0.7955  1.4793  0.9572
  104OSM   C13F10562   1.514   2.030   4.813 -0.0457  0.3478  1.1875
  104OSM   H13F10563   1.450   2.092   4.747 -0.1259 -0.1918  0.7515
  104OSM   H13G10564   1.450   1.957   4.868  1.2434 -0.9174  1.0915
  104OSM   C14F10565   1.610   1.959   4.715 -0.0067  0.0453  0.4923
  104OSM   H14F10566   1.549   1.876   4.673  1.5275 -0.7360 -0.2803
  104OSM   H14G10567   1.702   1.924   4.766  1.6086  1.0515 -1.5589
  104OSM   C15F10568   1.652   2.050   4.602  0.5823  0.0333  0.4552
  104OSM   H15F10569   1.587   2.140   4.589  0.9703  0.4021  1.0027
  104OSM   H15G10570   1.655   1.999   4.503  2.6138  0.1821  0.4069
  104OSM   C16F10571   1.790   2.116   4.614  0.2106  0.1312  0.6079
  104OSM   H16F10572   1.785   2.149   4.720 -0.2413 -2.8243  1.5811
  104OSM   H16G10573   1.806   2.205   4.549  3.8230  0.3074  1.5291
  104OSM   C17F10574   1.906   2.020   4.597 -0.7242  1.1921 -0.4083
  104OSM   H17F10575   1.918   1.974   4.496  1.3099  0.4893  0.1018
  104OSM   H17G10576   1.879   1.931   4.657 -0.3832  2.8143  2.2897
  104OSM   C18F10577   2.032   2.088   4.645  0.7553  0.9853 -0.7108
  104OSM   H18F10578   2.037   2.118   4.752 -1.7980 -2.0780  0.4186
  104OSM   H18G10579   2.056   2.164   4.568 -1.3527  1.9074 -0.5100
  104OSM   H18H10580   2.107   2.006   4.640  0.3365  0.6970 -3.6183
  105OSM      N10581   6.989   1.913   6.878  0.9772  0.2924  0.1492
  105OSM    C1510582   7.118   1.846   6.831  0.2109 -0.4332 -0.2070
  105OSM   H15A10583   7.100   1.748   6.788  1.5529  0.3175 -2.6508
  105OSM   H15B10584   7.190   1.833   6.910 -1.2267 -0.2656  1.1936
  105OSM   H15C10585   7.164   1.913   6.761  0.6103  0.9066  1.2868
  105OSM    C1410586   6.898   1.808   6.943  0.4334  0.4342 -0.1039
  105OSM   H14A10587   6.942   1.792   7.040 -2.3105  1.5292  1.4130
  105OSM   H14B10588   6.884   1.721   6.880 -0.4955  0.9314 -0.5903
  105OSM   H14C10589   6.803   1.856   6.957  0.7197  1.1277 -0.5282
  105OSM    C1310590   7.017   2.021   6.974 -0.0647  0.5147  0.7237
  105OSM   H13A10591   7.068   1.984   7.061 -0.7584  0.4736  1.1182
  105OSM   H13B10592   6.925   2.068   7.007  0.4074  1.9051  0.1357
  105OSM   H13C10593   7.078   2.097   6.928  1.6535 -0.7594  0.7927
  105OSM    C1210594   6.913   1.967   6.758  0.5874  0.5838 -0.0937
  105OSM   H12A10595   6.822   2.018   6.785 -0.5154 -0.5150 -1.5524
  105OSM   H12B10596   6.887   1.882   6.696  0.0517  1.4823 -1.1333
  105OSM    C1110597   6.992   2.054   6.650  0.1296 -0.4224  0.1918
  105OSM   H11A10598   6.919   2.092   6.575 -1.5271 -2.2752  0.7775
  105OSM   H11B10599   7.068   1.990   6.601 -0.8292  0.1652 -2.1789
  105OSM      P10600   7.191   2.217   6.679  0.3716  0.4208  0.2397
  105OSM    O1310601   7.194   2.368   6.691  0.2956  0.0451 -0.3987
  105OSM    O1410602   7.288   2.144   6.759 -0.0128  0.4023  0.7747
  105OSM    O1110603   7.195   2.170   6.528 -0.4758 -0.1378  0.4923
  105OSM    O1210604   7.042   2.172   6.714 -0.2232 -0.4752 -0.0883
  105OSM    C1S10605   7.313   2.211   6.452 -0.0921 -0.4778  0.1130
  105OSM    H1S10606   7.399   2.147   6.481 -0.0954 -0.2550  0.6265
  105OSM    H1T10607   7.342   2.317   6.465 -2.0947  0.4989 -2.4989
  105OSM     NF10608   7.447   2.214   6.240  0.0607  0.0284  0.0359
  105OSM    HNF10609   7.451   2.297   6.185 -0.5442  1.5480  2.1446
  105OSM    C2S10610   7.312   2.178   6.296  0.1103  0.1186 -0.6931
  105OSM    H2S10611   7.305   2.067   6.289  0.3623  0.0604 -0.0735
  105OSM    C3S10612   7.189   2.231   6.225 -0.1747  0.6020  0.6792
  105OSM    H3S10613   7.189   2.342   6.230 -0.8276  0.5946  0.9388
  105OSM     O310614   7.061   2.182   6.258  0.4278 -0.9040 -0.1135
  105OSM    HO310615   7.085   2.122   6.330 -1.4840  0.5875  1.8923
  105OSM    C4S10616   7.211   2.196   6.076 -0.3557 -0.1348 -0.0306
  105OSM    H4S10617   7.239   2.090   6.062  0.5480 -0.2111  2.0132
  105OSM    C5S10618   7.208   2.286   5.974  0.5804  0.3881 -0.0658
  105OSM    H5S10619   7.170   2.387   5.996  0.4887  0.5683 -0.9867
  105OSM    C6S10620   7.245   2.265   5.829 -0.5459 -0.4360 -0.6915
  105OSM    H6S10621   7.288   2.165   5.808 -2.7103 -1.1998 -1.8010
  105OSM    H6T10622   7.325   2.341   5.815  0.1483 -0.8351  0.8810
  105OSM    C7S10623   7.138   2.296   5.727 -0.2208 -0.1209 -0.4031
  105OSM    H7S10624   7.044   2.341   5.767 -0.1699  0.4494 -0.9265
  105OSM    H7T10625   7.100   2.205   5.675 -0.7811  1.0495 -2.1117
  105OSM    C8S10626   7.197   2.395   5.618 -0.1859  0.3711 -0.4580
  105OSM    H8S10627   7.279   2.336   5.572 -0.0495 -0.8167  1.2323
  105OSM    H8T10628   7.243   2.483   5.668 -1.0536  0.3150  0.4606
  105OSM    C9S10629   7.092   2.434   5.524  0.6834  0.1139 -0.6802
  105OSM    H9S10630   7.011   2.488   5.578 -0.0704  0.8205 -2.4227
  105OSM    H9T10631   7.048   2.344   5.475 -0.9630 -0.9657  2.4864
  105OSM   C10S10632   7.141   2.528   5.415  0.2236 -0.2223  0.0175
  105OSM   H10S10633   7.216   2.473   5.355 -0.9356 -1.1490 -0.6208
  105OSM   H10T10634   7.184   2.617   5.464  0.6190 -1.1506  1.4185
  105OSM   C11S10635   7.026   2.574   5.321 -0.5327  0.1888 -0.3363
  105OSM   H11S10636   6.963   2.644   5.380 -0.9440  0.1560 -0.7290
  105OSM   H11T10637   6.953   2.493   5.301 -0.5752  0.2672 -0.5019
  105OSM   C12S10638   7.080   2.634   5.187 -0.1018  0.0632 -0.1821
  105OSM   H12S10639   6.993   2.684   5.139 -2.8661 -1.1349  3.1525
  105OSM   H12T10640   7.135   2.557   5.130  1.5443 -0.2551  1.7157
  105OSM   C13S10641   7.177   2.751   5.216 -0.3479  0.0434  0.4758
  105OSM   H13S10642   7.265   2.707   5.268 -0.8062  1.2493  2.3869
  105OSM   H13T10643   7.137   2.826   5.287  1.4036  0.3845  1.1605
  105OSM   C14S10644   7.224   2.817   5.087 -0.2451 -0.1305  0.0473
  105OSM   H14S10645   7.283   2.901   5.130  0.5353  0.0709 -1.3526
  105OSM   H14T10646   7.139   2.852   5.024 -1.1761 -0.0876  1.2827
  105OSM   C15S10647   7.316   2.731   5.008  0.2910 -0.1527 -0.5463
  105OSM   H15S10648   7.273   2.630   4.988 -1.8827  0.7168 -0.5210
  105OSM   H15T10649   7.410   2.721   5.066 -0.2060  0.7218  0.4408
  105OSM   C16S10650   7.363   2.786   4.869 -0.1129  0.4862  0.1903
  105OSM   H16S10651   7.276   2.796   4.801 -1.2351 -0.7711  1.3753
  105OSM   H16T10652   7.437   2.729   4.810  1.3841  0.9736  1.5015
  105OSM   C17S10653   7.421   2.930   4.883  0.1331  0.3489  0.5240
  105OSM   H17S10654   7.347   2.997   4.932 -1.5622 -1.5360  0.6854
  105OSM   H17T10655   7.427   2.967   4.778 -2.5187 -0.2398  0.0848
  105OSM   C18S10656   7.555   2.950   4.952  0.3848 -0.0201 -0.4046
  105OSM   H18S10657   7.628   2.870   4.930 -0.0178 -0.6547  0.5135
  105OSM   H18T10658   7.525   2.936   5.058 -2.8606 -2.5813 -1.4812
  105OSM   H18U10659   7.591   3.053   4.929 -0.1066  0.0423 -0.9166
  105OSM    C1F10660   7.570   2.168   6.257  0.6305  0.0438  0.1682
  105OSM     OF10661   7.582   2.078   6.342 -0.6000 -0.1754 -0.4629
  105OSM    C2F10662   7.686   2.220   6.180  0.8053  0.5241 -0.4318
  105OSM    H2F10663   7.775   2.154   6.180 -0.5802 -1.4516  0.3884
  105OSM    H2G10664   7.727   2.302   6.243  1.5499  0.4280 -0.7935
  105OSM    C3F10665   7.654   2.259   6.032 -0.3756  0.9527  0.5846
  105OSM    H3F10666   7.582   2.344   6.029 -1.2462  0.2767  1.5687
  105OSM    H3G10667   7.610   2.171   5.982  1.5881 -0.2880  0.9464
  105OSM    C4F10668   7.783   2.302   5.952  0.4418  0.4658 -0.5183
  105OSM    H4F10669   7.851   2.214   5.946 -2.3317 -1.7698 -1.6398
  105OSM    H4G10670   7.839   2.386   5.999 -0.6117  1.3249 -0.7720
  105OSM    C5F10671   7.747   2.343   5.805 -0.2009 -0.0731  0.4804
  105OSM    H5F10672   7.691   2.438   5.806 -2.5373 -1.3348 -1.1631
  105OSM    H5G10673   7.682   2.265   5.759 -1.5109  1.6508 -0.6930
  105OSM    C6F10674   7.875   2.351   5.718  0.3505  0.3867  0.4398
  105OSM    H6F10675   7.912   2.248   5.695  0.0866  0.5522 -0.7855
  105OSM    H6G10676   7.945   2.411   5.779  0.4750  0.4897  0.1970
  105OSM    C7F10677   7.853   2.432   5.592  0.1136 -0.9470  0.2766
  105OSM    H7F10678   7.805   2.526   5.625  0.4113 -0.5822 -0.3226
  105OSM    H7G10679   7.779   2.378   5.530 -2.2254 -0.4623  2.4658
  105OSM    C8F10680   7.979   2.481   5.515  0.4073  0.3292 -0.1157
  105OSM    H8F10681   8.042   2.544   5.582  0.6166 -0.2087  0.2014
  105OSM    H8G10682   7.941   2.546   5.434  1.2171  0.9309 -0.0226
  105OSM    C9F10683   8.064   2.363   5.470 -0.1326  0.1862 -0.1541
  105OSM    H9F10684   8.072   2.291   5.553 -3.1166  0.4816  0.5083
  105OSM   C10F10685   8.131   2.352   5.357  0.3956  0.0519  0.9860
  105OSM   H10F10686   8.199   2.267   5.341  4.0123  2.9613 -0.7106
  105OSM   C11F10687   8.151   2.455   5.255 -0.8932  0.6193 -0.1038
  105OSM   H11F10688   8.180   2.550   5.305 -1.6387  0.2640  1.0489
  105OSM   H11G10689   8.068   2.467   5.183 -0.1028 -1.0693 -1.3830
  105OSM   C12F10690   8.276   2.430   5.163 -0.3039  0.4985  0.2033
  105OSM   H12F10691   8.253   2.332   5.115  0.2875  0.3127  0.2857
  105OSM   H12G10692   8.371   2.424   5.222  0.3647 -2.3156 -1.0105
  105OSM   C13F10693   8.275   2.529   5.039  0.2241 -0.5131 -0.1908
  105OSM   H13F10694   8.270   2.629   5.087  0.3356  0.1155 -1.4545
  105OSM   H13G10695   8.187   2.522   4.972  0.6351  0.8378 -0.9114
  105OSM   C14F10696   8.404   2.519   4.960  0.1124 -0.2543  0.0210
  105OSM   H14F10697   8.474   2.467   5.028  1.7376 -0.4191 -1.7153
  105OSM   H14G10698   8.445   2.621   4.948 -2.9189  1.3731  2.0081
  105OSM   C15F10699   8.401   2.430   4.837  1.0117 -0.1962  0.1900
  105OSM   H15F10700   8.301   2.441   4.791  1.2993  2.3024  0.0007
  105OSM   H15G10701   8.418   2.324   4.864  1.1021 -1.4472 -4.0225
  105OSM   C16F10702   8.497   2.469   4.736 -0.4839  0.4950  0.3801
  105OSM   H16F10703   8.599   2.473   4.780 -0.0547  3.3386 -0.6906
  105OSM   H16G10704   8.474   2.573   4.706 -2.4563 -0.0503 -0.1225
  105OSM   C17F10705   8.505   2.371   4.615 -0.0249 -0.0416  0.0551
  105OSM   H17F10706   8.411   2.371   4.555 -0.3880  0.9739  0.6033
  105OSM   H17G10707   8.515   2.269   4.657  3.3176  0.0538 -0.2017
  105OSM   C18F10708   8.628   2.389   4.533  0.2858 -0.2006  0.0140
  105OSM   H18F10709   8.630   2.333   4.437 -0.7771 -1.6368  0.7779
  105OSM   H18G10710   8.717   2.357   4.592  0.1119  1.0625  1.0106
  105OSM   H18H10711   8.655   2.492   4.505 -1.9294  0.1321 -1.1755
  106OSM      N10712   6.564   6.537   6.399  0.1092 -0.5887 -0.3663
  106OSM    C1510713   6.429   6.604   6.401  0.3769  0.0405  0.2558
  106OSM   H15A10714   6.434   6.698   6.454  0.6277 -0.1833  0.6277
  106OSM   H15B10715   6.343   6.561   6.450 -1.3649  2.9689  0.0196
  106OSM   H15C10716   6.407   6.628   6.298 -0.3441  0.8048  0.5721
  106OSM    C1410717   6.666   6.634   6.343 -0.0188  0.9726 -0.3397
  106OSM   H14A10718   6.660   6.655   6.237 -0.6360 -1.2324 -0.7985
  106OSM   H14B10719   6.767   6.596   6.350 -0.0288  1.1729  1.4856
  106OSM   H14C10720   6.655   6.730   6.391 -2.8956 -0.7216  2.7803
  106OSM    C1310721   6.611   6.508   6.540 -0.1369 -0.3920  0.6440
  106OSM   H13A10722   6.529   6.454   6.585 -1.1434  1.0032  0.5671
  106OSM   H13B10723   6.642   6.599   6.589  1.9616 -0.5178 -0.3431
  106OSM   H13C10724   6.701   6.450   6.530  0.1640  0.1223  0.3079
  106OSM    C1210725   6.563   6.404   6.331 -0.9633  0.0992  1.0101
  106OSM   H12A10726   6.507   6.328   6.385 -1.3629  0.5272  1.2046
  106OSM   H12B10727   6.667   6.374   6.335 -0.1241  1.8393 -3.0202
  106OSM    C1110728   6.537   6.401   6.175 -0.0750 -0.3239  0.0924
  106OSM   H11A10729   6.568   6.301   6.136 -0.6437  0.8890 -3.9935
  106OSM   H11B10730   6.600   6.480   6.130  1.1948 -1.0136  0.6114
  106OSM      P10731   6.295   6.316   6.173  0.3187  0.0475 -0.4457
  106OSM    O1310732   6.330   6.233   6.293 -0.5258  0.0546  0.1179
  106OSM    O1410733   6.161   6.386   6.197  0.2013  0.1549  1.0132
  106OSM    O1110734   6.288   6.235   6.032 -0.0348  0.2149 -0.0634
  106OSM    O1210735   6.398   6.428   6.152 -0.3064 -0.3831 -0.5027
  106OSM    C1S10736   6.348   6.291   5.912 -0.6269  0.2587 -0.0301
  106OSM    H1S10737   6.459   6.287   5.921 -0.6206  3.0451  2.7096
  106OSM    H1T10738   6.327   6.396   5.880 -0.9769 -0.3161 -1.7957
  106OSM     NF10739   6.402   6.213   5.679 -0.2407 -0.8913  0.3328
  106OSM    HNF10740   6.391   6.276   5.602  1.4255 -0.9610 -0.0121
  106OSM    C2S10741   6.305   6.206   5.787  0.2728  0.4575  0.2269
  106OSM    H2S10742   6.306   6.098   5.815  0.6944  0.9119  2.1242
  106OSM    C3S10743   6.155   6.234   5.755 -0.8298  1.0782 -0.3327
  106OSM    H3S10744   6.136   6.341   5.735  0.4307  1.4598  0.3900
  106OSM     O310745   6.064   6.203   5.861 -0.2802  0.0491 -0.1581
  106OSM    HO310746   6.125   6.170   5.927 -1.3167 -1.5418  0.0502
  106OSM    C4S10747   6.131   6.151   5.639  0.1292  0.1400  0.2172
  106OSM    H4S10748   6.118   6.042   5.647  0.6663  0.0227 -0.4361
  106OSM    C5S10749   6.078   6.201   5.525  0.0803  0.5576 -0.3901
  106OSM    H5S10750   6.059   6.308   5.505 -1.5634  0.0031 -2.0898
  106OSM    C6S10751   6.013   6.107   5.419  0.7874 -0.0507 -0.2045
  106OSM    H6S10752   5.902   6.111   5.421  0.7141 -1.7899  0.5418
  106OSM    H6T10753   6.031   5.999   5.433  2.3539 -0.2063 -2.6880
  106OSM    C7S10754   6.060   6.152   5.280 -0.6233 -0.5229  0.8478
  106OSM    H7S10755   6.170   6.149   5.270 -0.7195  1.4285 -1.9872
  106OSM    H7T10756   6.044   6.259   5.256  4.0940 -0.5005 -4.1140
  106OSM    C8S10757   5.990   6.076   5.168  0.0063 -0.1025 -0.3467
  106OSM    H8S10758   5.886   6.113   5.156  0.1556  0.0995 -1.0853
  106OSM    H8T10759   5.985   5.968   5.193 -0.1833 -0.1427 -0.5525
  106OSM    C9S10760   6.052   6.106   5.028 -0.4223 -0.2278  0.1657
  106OSM    H9S10761   6.158   6.072   5.027 -1.2160 -2.9150 -0.1927
  106OSM    H9T10762   6.059   6.214   5.003  1.8542 -0.4407 -0.3921
  106OSM   C10S10763   5.995   6.021   4.903  0.1163 -0.1918 -0.4125
  106OSM   H10S10764   5.982   5.917   4.939 -1.8845 -0.2824 -1.2540
  106OSM   H10T10765   6.075   6.023   4.825  0.4528 -3.9410 -0.3596
  106OSM   C11S10766   5.867   6.086   4.850 -0.5392  0.2781 -0.4775
  106OSM   H11S10767   5.886   6.194   4.872  0.9451  0.0738 -0.5949
  106OSM   H11T10768   5.783   6.056   4.915 -0.4388  0.1626 -0.4007
  106OSM   C12S10769   5.826   6.057   4.707  0.3696  0.4211  0.0745
  106OSM   H12S10770   5.827   5.947   4.690 -3.0288 -0.1690  2.6962
  106OSM   H12T10771   5.900   6.101   4.637  0.7481 -0.7554 -0.2897
  106OSM   C13S10772   5.678   6.117   4.687  0.2689 -0.6131  0.1482
  106OSM   H13S10773   5.676   6.228   4.696  1.8351 -0.5554  0.0797
  106OSM   H13T10774   5.617   6.082   4.772  1.8349  1.3047  2.1712
  106OSM   C14S10775   5.631   6.064   4.550  0.7385  0.1178  0.4460
  106OSM   H14S10776   5.657   5.956   4.547  1.0590  0.1331  2.0901
  106OSM   H14T10777   5.683   6.119   4.469 -1.2632  0.4900 -0.6615
  106OSM   C15S10778   5.483   6.056   4.522  0.4065  0.1612  0.2833
  106OSM   H15S10779   5.425   5.984   4.584  0.1074  1.5035  1.5979
  106OSM   H15T10780   5.469   6.036   4.413  0.9093  0.4971  0.1564
  106OSM   C16S10781   5.416   6.198   4.559 -0.5981 -0.5570  0.0538
  106OSM   H16S10782   5.470   6.282   4.509  0.0224 -1.7583 -1.3820
  106OSM   H16T10783   5.432   6.216   4.668 -2.8075  0.0704  0.3257
  106OSM   C17S10784   5.271   6.209   4.539 -0.7893  0.1864  0.0819
  106OSM   H17S10785   5.225   6.148   4.620  1.0998  0.2667  1.2664
  106OSM   H17T10786   5.239   6.170   4.440 -0.1513  0.9423 -0.4206
  106OSM   C18S10787   5.211   6.347   4.546 -0.4845 -0.3891 -0.2699
  106OSM   H18S10788   5.204   6.388   4.649  1.0160  0.8926 -0.6393
  106OSM   H18T10789   5.114   6.355   4.492  0.7262  2.3002 -2.2495
  106OSM   H18U10790   5.269   6.415   4.481  1.3402 -1.6407 -0.0366
  106OSM    C1F10791   6.522   6.153   5.681 -0.5589 -0.6404  0.5232
  106OSM     OF10792   6.554   6.083   5.773 -0.6042  0.1714  0.2061
  106OSM    C2F10793   6.619   6.191   5.573  0.0142  0.1617  0.6683
  106OSM    H2F10794   6.634   6.301   5.579 -4.3100  0.8541  1.7917
  106OSM    H2G10795   6.581   6.158   5.473  0.5731 -1.0692  0.8409
  106OSM    C3F10796   6.748   6.108   5.587 -0.7996 -0.0178  0.4499
  106OSM    H3F10797   6.725   6.000   5.571 -1.7295 -0.0568  1.8913
  106OSM    H3G10798   6.782   6.130   5.691  0.4158  1.9721 -0.3132
  106OSM    C4F10799   6.855   6.172   5.502 -0.1582  0.2301 -0.6497
  106OSM    H4F10800   6.955   6.131   5.526 -1.0861 -0.4227  2.6931
  106OSM    H4G10801   6.855   6.277   5.539 -0.4899 -0.3772  1.1815
  106OSM    C5F10802   6.837   6.185   5.349  0.1603  0.2777 -0.3974
  106OSM    H5F10803   6.728   6.199   5.328  0.3023  0.9126 -0.7382
  106OSM    H5G10804   6.859   6.088   5.299  1.1208  1.3703 -2.1791
  106OSM    C6F10805   6.924   6.299   5.281 -0.3983 -0.2642 -0.3337
  106OSM    H6F10806   7.029   6.293   5.316 -0.9463 -2.1535  1.2142
  106OSM    H6G10807   6.887   6.397   5.316  0.4571 -0.0962  0.1367
  106OSM    C7F10808   6.929   6.285   5.124  1.0415 -0.6482 -0.1936
  106OSM    H7F10809   6.828   6.313   5.089  0.8588  1.8109  1.9621
  106OSM    H7G10810   6.953   6.180   5.098 -1.0985 -0.6756 -2.5035
  106OSM    C8F10811   7.041   6.370   5.056  0.2629 -0.2942 -1.4786
  106OSM    H8F10812   7.141   6.328   5.081 -0.9748 -1.6416  1.7232
  106OSM    H8G10813   7.039   6.475   5.092  0.3845 -0.9244  0.4901
  106OSM    C9F10814   7.023   6.366   4.911 -0.6447  0.3898 -0.2352
  106OSM    H9F10815   7.075   6.279   4.867  2.4785  0.8849  2.1471
  106OSM   C10F10816   6.988   6.465   4.831 -0.0181  0.1981  0.0553
  106OSM   H10F10817   6.974   6.448   4.723 -1.1673 -1.3712  0.4126
  106OSM   C11F10818   6.929   6.594   4.875 -0.1488 -0.0046  0.6063
  106OSM   H11F10819   6.881   6.584   4.974 -0.5356 -0.0445  0.4172
  106OSM   H11G10820   6.838   6.601   4.811 -0.8400 -1.1263  1.4425
  106OSM   C12F10821   7.029   6.714   4.883 -1.3649  0.0646  0.3455
  106OSM   H12F10822   7.124   6.678   4.928 -1.2439 -1.6182 -1.1111
  106OSM   H12G10823   6.978   6.787   4.949 -2.5351  0.6814 -1.1734
  106OSM   C13F10824   7.068   6.775   4.745 -0.2214 -0.3420  0.2329
  106OSM   H13F10825   6.975   6.777   4.684  0.0323  2.2411 -0.1894
  106OSM   H13G10826   7.148   6.729   4.683  1.6369  0.2456  2.0803
  106OSM   C14F10827   7.105   6.923   4.742  0.0428  0.2966  0.2561
  106OSM   H14F10828   7.143   6.951   4.641  2.5396 -0.2110  0.9982
  106OSM   H14G10829   7.197   6.936   4.802 -0.3598  2.7232  0.4431
  106OSM   C15F10830   7.016   7.022   4.806  0.0951 -0.1214  0.1393
  106OSM   H15F10831   7.066   7.122   4.807  2.3335 -1.1620 -1.1908
  106OSM   H15G10832   7.001   7.001   4.914 -3.8883 -1.5965 -0.5305
  106OSM   C16F10833   6.879   7.028   4.733 -0.1531 -0.3786  0.1158
  106OSM   H16F10834   6.836   6.928   4.712 -0.6731  0.1461 -1.5310
  106OSM   H16G10835   6.900   7.079   4.636  2.4525 -0.7302  0.4389
  106OSM   C17F10836   6.764   7.107   4.803 -0.0177  0.4805 -0.8763
  106OSM   H17F10837   6.787   7.215   4.813 -1.0843  0.6242  0.3547
  106OSM   H17G10838   6.752   7.060   4.903 -0.2219 -0.4500 -1.3289
  106OSM   C18F10839   6.633   7.097   4.729  0.0464 -0.4607  0.2167
  106OSM   H18F10840   6.605   6.991   4.714  0.2193 -0.7135  1.5650
  106OSM   H18G10841   6.644   7.129   4.623 -1.7984 -2.5409 -0.6749
  106OSM   H18H10842   6.545   7.146   4.776 -0.3265 -0.0335 -0.9067
  107OSM      N10843   3.501   1.529   6.702  0.2131 -0.5176  0.4246
  107OSM    C1510844   3.548   1.449   6.808  0.2267 -0.0474  0.3767
  107OSM   H15A10845   3.571   1.513   6.891 -2.0186  0.8288  0.3912
  107OSM   H15B10846   3.631   1.385   6.784  0.0441 -0.4249  0.7464
  107OSM   H15C10847   3.477   1.376   6.845 -1.5251  1.1066 -0.5331
  107OSM    C1410848   3.453   1.419   6.602  0.1792 -0.7736 -0.7102
  107OSM   H14A10849   3.417   1.334   6.658 -0.8097  1.4341  2.2786
  107OSM   H14B10850   3.532   1.374   6.543 -0.7924 -2.0965 -1.0636
  107OSM   H14C10851   3.375   1.455   6.538  0.2381 -1.5897 -1.2602
  107OSM    C1310852   3.383   1.614   6.744 -0.3232 -0.2801 -0.1860
  107OSM   H13A10853   3.419   1.676   6.825  1.5807 -0.4673 -0.8434
  107OSM   H13B10854   3.302   1.550   6.778  1.7634 -2.8754  0.2001
  107OSM   H13C10855   3.356   1.676   6.660  1.0585 -0.0442 -0.4757
  107OSM    C1210856   3.610   1.607   6.643 -0.0174  0.1264 -0.4939
  107OSM   H12A10857   3.692   1.540   6.621  2.2273  2.4734  0.2815
  107OSM   H12B10858   3.651   1.666   6.723  0.7607  0.1450 -0.8908
  107OSM    C1110859   3.580   1.685   6.518  0.1702 -0.8919  0.4848
  107OSM   H11A10860   3.529   1.623   6.442  2.3604 -2.0408 -0.1485
  107OSM   H11B10861   3.681   1.699   6.474  0.9845 -2.4021  1.7466
  107OSM      P10862   3.388   1.859   6.483  0.0309  0.5354 -0.4232
  107OSM    O1310863   3.294   1.746   6.461 -0.1065 -0.1734 -0.0668
  107OSM    O1410864   3.346   1.974   6.559 -0.1953  0.7635  0.2584
  107OSM    O1110865   3.430   1.907   6.345 -0.2510 -0.7547  0.4689
  107OSM    O1210866   3.526   1.813   6.549  0.2797 -0.5219 -0.1592
  107OSM    C1S10867   3.562   1.964   6.308  0.3865 -0.3206 -0.1634
  107OSM    H1S10868   3.640   1.889   6.332 -0.5928 -1.0710  0.8155
  107OSM    H1T10869   3.591   2.053   6.368 -1.0688  0.1519 -0.1158
  107OSM     NF10870   3.698   2.012   6.130 -0.2609 -0.0658 -0.1922
  107OSM    HNF10871   3.742   2.101   6.139 -1.6352  0.6222  0.0114
  107OSM    C2S10872   3.558   2.006   6.162  0.0608 -0.1953 -0.2824
  107OSM    H2S10873   3.511   1.928   6.098 -0.3353  0.1601 -0.4298
  107OSM    C3S10874   3.479   2.134   6.154 -0.0580  0.2421  0.3773
  107OSM    H3S10875   3.517   2.219   6.214  3.6707  1.3541 -3.1049
  107OSM     O310876   3.338   2.118   6.196 -0.4785 -0.0220  0.0064
  107OSM    HO310877   3.345   2.036   6.246  0.5349 -0.3303 -0.6095
  107OSM    C4S10878   3.495   2.173   6.010 -0.6363 -0.2800  0.4239
  107OSM    H4S10879   3.564   2.256   5.989  0.5180 -1.5345 -0.9580
  107OSM    C5S10880   3.426   2.121   5.900  0.4561 -0.0333  0.6054
  107OSM    H5S10881   3.360   2.034   5.910  2.8486 -2.1803 -1.1478
  107OSM    C6S10882   3.432   2.177   5.763  0.4481 -0.1679  0.3890
  107OSM    H6S10883   3.506   2.260   5.758 -0.1905  0.3549 -1.3318
  107OSM    H6T10884   3.340   2.221   5.718  1.1619  2.2824  1.1469
  107OSM    C7S10885   3.497   2.070   5.666  0.4892 -0.2524  0.0778
  107OSM    H7S10886   3.424   1.989   5.641  1.0081 -0.5993 -0.3275
  107OSM    H7T10887   3.584   2.014   5.705  0.4295 -0.4390 -0.0540
  107OSM    C8S10888   3.551   2.135   5.531 -0.1872 -0.2626 -0.2961
  107OSM    H8S10889   3.629   2.207   5.561 -0.1191 -0.3520 -0.2588
  107OSM    H8T10890   3.462   2.185   5.485 -0.2216  0.0143  0.0699
  107OSM    C9S10891   3.598   2.026   5.430 -0.5284  0.5304 -0.4559
  107OSM    H9S10892   3.529   1.941   5.448 -1.9821  2.2438  2.8664
  107OSM    H9T10893   3.702   1.990   5.447 -0.1973 -0.5203 -3.9253
  107OSM   C10S10894   3.598   2.092   5.296  0.2419 -0.4926  0.4496
  107OSM   H10S10895   3.684   2.162   5.295  1.6112 -2.0117  3.0709
  107OSM   H10T10896   3.506   2.154   5.291  1.0036  1.0138  3.1466
  107OSM   C11S10897   3.612   1.997   5.182 -0.0885 -0.3354  0.6965
  107OSM   H11S10898   3.541   1.912   5.189 -0.0110 -0.4445  0.1957
  107OSM   H11T10899   3.717   1.963   5.189 -0.9319 -3.1172  1.0922
  107OSM   C12S10900   3.589   2.072   5.049  0.0988  0.4685 -0.1637
  107OSM   H12S10901   3.637   2.001   4.979 -1.2206 -1.0291  0.3770
  107OSM   H12T10902   3.641   2.170   5.042 -0.9310  1.0753  0.3588
  107OSM   C13S10903   3.440   2.078   5.007 -0.8285  0.0722 -0.7925
  107OSM   H13S10904   3.395   2.168   5.056 -0.0823 -1.1854  2.4440
  107OSM   H13T10905   3.385   1.993   5.052 -1.1760  1.0560  0.7593
  107OSM   C14S10906   3.416   2.062   4.854 -0.2198  0.6028 -0.2196
  107OSM   H14S10907   3.308   2.085   4.843  0.4647  3.6525 -1.3673
  107OSM   H14T10908   3.437   1.957   4.823 -2.2262  0.7059 -2.1798
  107OSM   C15S10909   3.495   2.157   4.767  0.2844  0.2440 -0.4172
  107OSM   H15S10910   3.604   2.141   4.784  0.5797  1.5571 -0.9637
  107OSM   H15T10911   3.482   2.263   4.797  2.3168  1.2660 -2.7355
  107OSM   C16S10912   3.475   2.151   4.623  0.3499 -0.2152 -0.6907
  107OSM   H16S10913   3.515   2.248   4.586  1.4511 -0.9509 -1.5077
  107OSM   H16T10914   3.369   2.145   4.593  0.1223  1.8147 -0.4843
  107OSM   C17S10915   3.553   2.041   4.550  0.2838 -0.1664 -0.4558
  107OSM   H17S10916   3.526   1.942   4.593  1.0950 -0.1891  0.0409
  107OSM   H17T10917   3.664   2.047   4.564  0.0022 -0.4052  2.6958
  107OSM   C18S10918   3.538   2.035   4.401  0.6214  0.0704 -0.5581
  107OSM   H18S10919   3.534   2.134   4.351  1.7942  0.3120 -0.2169
  107OSM   H18T10920   3.446   1.984   4.367  1.5846 -0.8235 -1.9184
  107OSM   H18U10921   3.629   1.985   4.361  2.1968  1.7583  0.7168
  107OSM    C1F10922   3.774   1.907   6.109 -0.5181  0.0546 -0.3739
  107OSM     OF10923   3.735   1.789   6.121 -0.3349  0.1891 -0.0629
  107OSM    C2F10924   3.916   1.935   6.066  0.0553 -0.0150 -0.1846
  107OSM    H2F10925   3.966   1.978   6.156 -1.7635 -0.3716  1.0432
  107OSM    H2G10926   3.907   2.013   5.987 -0.1818  1.7231  1.4699
  107OSM    C3F10927   3.996   1.825   5.985  0.1315  0.5145 -0.8634
  107OSM    H3F10928   3.955   1.810   5.883 -1.6015  2.2113 -0.4647
  107OSM    H3G10929   3.987   1.722   6.027  0.8804 -0.2999 -2.6084
  107OSM    C4F10930   4.149   1.851   5.994  0.2493 -0.3430 -0.8835
  107OSM    H4F10931   4.204   1.759   5.966  1.3940  0.2207 -0.5495
  107OSM    H4G10932   4.162   1.877   6.101  1.6080 -2.7356 -0.3868
  107OSM    C5F10933   4.203   1.970   5.909 -0.0448  0.1648 -0.7404
  107OSM    H5F10934   4.312   1.982   5.921  0.1942  0.2877 -2.7101
  107OSM    H5G10935   4.158   2.067   5.939 -0.7991 -0.1415 -0.8473
  107OSM    C6F10936   4.156   1.969   5.765  0.0716 -0.1392  0.1801
  107OSM    H6F10937   4.187   2.068   5.726  3.3459 -0.6002  1.2858
  107OSM    H6G10938   4.047   1.953   5.754 -0.5763  1.3903  3.4493
  107OSM    C7F10939   4.234   1.864   5.682 -0.5185  0.0485  0.0702
  107OSM    H7F10940   4.248   1.767   5.735  2.7088  1.1464  1.4791
  107OSM    H7G10941   4.343   1.888   5.682  0.0431 -2.2728  0.2311
  107OSM    C8F10942   4.208   1.848   5.534  0.3039 -0.0816  0.0672
  107OSM    H8F10943   4.288   1.783   5.493 -0.2484 -0.7470  0.0393
  107OSM    H8G10944   4.224   1.948   5.488  1.2351  0.3877  1.3337
  107OSM    C9F10945   4.078   1.780   5.503 -0.1925 -1.0357  0.0616
  107OSM    H9F10946   4.050   1.699   5.572 -0.1414 -1.3646 -0.2963
  107OSM   C10F10947   3.994   1.808   5.400 -0.4087 -0.0343 -0.2254
  107OSM   H10F10948   3.902   1.749   5.389 -0.0013 -0.5927 -0.7175
  107OSM   C11F10949   4.025   1.920   5.302  0.8684 -0.1785 -0.0038
  107OSM   H11F10950   4.094   1.998   5.341 -0.4473  0.5479  0.9989
  107OSM   H11G10951   3.930   1.973   5.280  1.6355  0.5642 -1.6737
  107OSM   C12F10952   4.083   1.864   5.169 -0.0084  0.1086  0.2574
  107OSM   H12F10953   4.184   1.818   5.168 -0.6229 -1.3585  1.6389
  107OSM   H12G10954   4.098   1.961   5.117 -0.0394  1.1205  2.0644
  107OSM   C13F10955   3.987   1.778   5.079 -0.5267 -0.0481 -0.2844
  107OSM   H13F10956   3.884   1.810   5.106 -0.7386 -2.3895  2.2019
  107OSM   H13G10957   4.001   1.671   5.106  3.0504  0.1889 -0.7551
  107OSM   C14F10958   4.020   1.805   4.929 -0.1431  0.5125  0.5569
  107OSM   H14F10959   4.066   1.713   4.888 -1.2628  0.4750 -0.6746
  107OSM   H14G10960   4.094   1.888   4.919  1.6250 -0.9779  0.8680
  107OSM   C15F10961   3.898   1.848   4.845  0.1911 -0.0549 -0.3306
  107OSM   H15F10962   3.857   1.938   4.896 -0.0027 -0.8010  0.8521
  107OSM   H15G10963   3.825   1.765   4.852  0.1897 -0.2141 -1.8657
  107OSM   C16F10964   3.913   1.879   4.692  0.1299 -0.1098 -0.2272
  107OSM   H16F10965   3.958   1.980   4.691  0.0108 -0.0495 -1.8748
  107OSM   H16G10966   3.811   1.901   4.654 -1.0641 -0.3318  2.5748
  107OSM   C17F10967   3.982   1.780   4.598 -0.2165  0.0623 -0.2726
  107OSM   H17F10968   3.928   1.683   4.607  0.7284 -0.4534 -0.0490
  107OSM   H17G10969   4.084   1.753   4.633  0.5801  2.7209 -0.3687
  107OSM   C18F10970   3.983   1.826   4.446 -0.4782  0.5730 -0.1152
  107OSM   H18F10971   3.888   1.815   4.389 -1.8739 -2.7034  2.4782
  107OSM   H18G10972   4.051   1.767   4.380 -1.0960  2.7386 -2.8974
  107OSM   H18H10973   4.027   1.927   4.430 -1.2638  0.9907  0.3237
  108OSM      N10974   0.541   3.877   6.367 -0.1752 -0.3027  0.0744
  108OSM    C1510975   0.565   3.763   6.460  0.4067  0.0331 -0.5933
  108OSM   H15A10976   0.499   3.683   6.430  0.1649  0.4879 -1.3151
  108OSM   H15B10977   0.539   3.787   6.562 -0.9647 -0.9938 -0.6738
  108OSM   H15C10978   0.669   3.734   6.448  0.0463 -1.5330 -0.1104
  108OSM    C1410979   0.553   3.837   6.232 -0.2549 -0.5602 -0.0670
  108OSM   H14A10980   0.522   3.919   6.168  0.6478 -1.7155 -2.1025
  108OSM   H14B10981   0.496   3.749   6.205  0.0536 -0.4332 -1.2043
  108OSM   H14C10982   0.658   3.815   6.218  0.1713 -1.1319  3.3264
  108OSM    C1310983   0.404   3.937   6.389 -0.2024 -0.2104  0.5538
  108OSM   H13A10984   0.379   4.008   6.311 -0.8961  0.4698  1.3789
  108OSM   H13B10985   0.401   3.985   6.485 -1.9163  1.3200 -0.1898
  108OSM   H13C10986   0.331   3.858   6.395  0.4565 -0.8145  0.7692
  108OSM    C1210987   0.651   3.989   6.394  0.7261  0.0494  0.7028
  108OSM   H12A10988   0.743   3.936   6.373  0.7265 -0.0443  0.9345
  108OSM   H12B10989   0.666   4.010   6.499  1.7160  1.4556  0.3093
  108OSM    C1110990   0.656   4.123   6.316 -0.8143  0.1399 -0.3100
  108OSM   H11A10991   0.559   4.175   6.336 -0.4866  0.2275  1.2236
  108OSM   H11B10992   0.668   4.112   6.207 -1.0716  0.4031 -0.3656
  108OSM      P10993   0.756   4.293   6.489  0.1860  0.1764  0.1902
  108OSM    O1310994   0.657   4.248   6.588  0.2850 -0.0189  0.1989
  108OSM    O1410995   0.895   4.315   6.537  0.5255 -0.7704 -0.0934
  108OSM    O1110996   0.701   4.419   6.410 -0.0242 -0.1376 -0.3960
  108OSM    O1210997   0.763   4.199   6.362 -0.4619 -0.2983  0.4773
  108OSM    C1S10998   0.736   4.443   6.274 -0.0994 -0.3756  0.4146
  108OSM    H1S10999   0.674   4.379   6.208  0.0655  1.3028 -1.4605
  108OSM    H1T11000   0.841   4.412   6.257 -0.1987  0.4113 -1.9232
  108OSM     NF11001   0.774   4.611   6.094 -0.0713 -0.6732 -0.3587
  108OSM    HNF11002   0.861   4.659   6.091 -0.7690  0.6660 -0.0525
  108OSM    C2S11003   0.714   4.593   6.228  0.3897 -0.0822 -0.0298
  108OSM    H2S11004   0.604   4.606   6.218  0.2997 -0.5479  0.3250
  108OSM    C3S11005   0.754   4.696   6.341  0.1198 -0.9737  0.1330
  108OSM    H3S11006   0.864   4.709   6.347  0.0496 -0.7470  1.0164
  108OSM     O311007   0.689   4.671   6.466 -1.1135  0.0035  0.4897
  108OSM    HO311008   0.687   4.575   6.469 -0.5991 -0.0004  1.0375
  108OSM    C4S11009   0.715   4.835   6.284 -0.0495 -0.4624  0.0653
  108OSM    H4S11010   0.778   4.884   6.208  1.6575 -0.8110  1.1959
  108OSM    C5S11011   0.594   4.897   6.292  0.4798 -0.5287  0.0288
  108OSM    H5S11012   0.506   4.848   6.334 -0.0871  0.3894 -0.0510
  108OSM    C6S11013   0.559   5.025   6.228  0.8224 -0.2710  0.3087
  108OSM    H6S11014   0.652   5.078   6.199 -0.0107  1.8764  1.3215
  108OSM    H6T11015   0.511   5.082   6.311  2.3508  1.2053  0.2363
  108OSM    C7S11016   0.466   5.014   6.111  0.6501 -0.1049  0.6393
  108OSM    H7S11017   0.445   5.117   6.075 -1.8228 -0.8414 -0.2002
  108OSM    H7T11018   0.368   4.977   6.147 -0.3820  0.8027 -1.0615
  108OSM    C8S11019   0.522   4.927   5.994  0.0959  0.0263 -0.1580
  108OSM    H8S11020   0.564   4.829   6.024  0.4100  0.1265 -0.2700
  108OSM    H8T11021   0.609   4.987   5.962 -0.3190  0.7266  0.0068
  108OSM    C9S11022   0.421   4.918   5.873 -0.1205  0.4650 -0.0796
  108OSM    H9S11023   0.395   5.023   5.847  2.5279  0.6791 -2.3066
  108OSM    H9T11024   0.328   4.867   5.907 -0.5036  1.3884  0.2890
  108OSM   C10S11025   0.485   4.843   5.750 -0.6159  0.0258 -0.3253
  108OSM   H10S11026   0.521   4.745   5.789  1.9571 -0.2067 -2.9527
  108OSM   H10T11027   0.572   4.909   5.735  0.2923 -1.0093  0.2561
  108OSM   C11S11028   0.394   4.832   5.634 -0.6514  0.5855 -0.0944
  108OSM   H11S11029   0.370   4.935   5.600  0.2057 -0.0647 -2.9028
  108OSM   H11T11030   0.292   4.795   5.658 -0.4662  0.4254  0.4451
  108OSM   C12S11031   0.454   4.749   5.523 -0.1462  0.3227 -0.3622
  108OSM   H12S11032   0.457   4.645   5.562  0.7410  1.5383  3.1181
  108OSM   H12T11033   0.558   4.779   5.497 -0.7506  1.9237 -1.0454
  108OSM   C13S11034   0.360   4.754   5.394 -0.1265 -0.1917  0.1318
  108OSM   H13S11035   0.372   4.857   5.353  1.0626  0.1885  1.3500
  108OSM   H13T11036   0.255   4.744   5.428 -0.0439 -0.0252  0.4423
  108OSM   C14S11037   0.395   4.646   5.293  0.0120  0.2906 -0.6972
  108OSM   H14S11038   0.369   4.548   5.339  0.2960  0.6596  0.2822
  108OSM   H14T11039   0.506   4.650   5.287  0.1649  0.1269  1.3012
  108OSM   C15S11040   0.349   4.678   5.149  0.2557 -0.3009 -0.0124
  108OSM   H15S11041   0.399   4.772   5.120 -1.7056  0.9353  0.3661
  108OSM   H15T11042   0.238   4.691   5.146  0.1517 -1.2870 -1.3019
  108OSM   C16S11043   0.360   4.561   5.048  0.2371  0.1357 -0.2833
  108OSM   H16S11044   0.297   4.474   5.076  1.1938 -0.6643 -0.5679
  108OSM   H16T11045   0.463   4.520   5.050 -0.5078 -1.8677 -0.4636
  108OSM   C17S11046   0.330   4.597   4.902  0.5735  0.4959  0.5278
  108OSM   H17S11047   0.222   4.621   4.893  0.3055 -0.6110  0.7477
  108OSM   H17T11048   0.352   4.511   4.835  1.4485  0.5350  0.7528
  108OSM   C18S11049   0.411   4.716   4.850  0.1266 -0.3851  0.5613
  108OSM   H18S11050   0.375   4.760   4.755  0.9661 -1.1892 -0.1545
  108OSM   H18T11051   0.517   4.680   4.848  1.0422  2.0309  2.1069
  108OSM   H18U11052   0.410   4.802   4.920  0.2414 -0.1118  0.2306
  108OSM    C1F11053   0.711   4.566   5.987 -0.3543 -0.0831  0.4163
  108OSM     OF11054   0.621   4.488   6.000 -0.2194  0.3338  0.5165
  108OSM    C2F11055   0.759   4.613   5.854  0.1367 -0.3844 -0.3423
  108OSM    H2F11056   0.870   4.611   5.855  0.1379 -1.7896 -1.1378
  108OSM    H2G11057   0.731   4.719   5.841  0.4646 -0.3349 -0.6417
  108OSM    C3F11058   0.701   4.526   5.741  0.1643  0.4044 -0.5796
  108OSM    H3F11059   0.594   4.553   5.726  1.0997  3.0118 -3.6748
  108OSM    H3G11060   0.711   4.423   5.781 -1.3073 -0.5041 -2.3544
  108OSM    C4F11061   0.779   4.531   5.614  0.1384  0.7309  0.3368
  108OSM    H4F11062   0.887   4.509   5.629 -0.0610  0.4746  1.4630
  108OSM    H4G11063   0.765   4.625   5.556 -2.4880 -0.2530 -0.7813
  108OSM    C5F11064   0.722   4.425   5.516  0.2199 -0.3367  0.2248
  108OSM    H5F11065   0.613   4.444   5.517  0.3585  0.4922  1.3205
  108OSM    H5G11066   0.737   4.326   5.565  0.8681  1.0883  3.0708
  108OSM    C6F11067   0.762   4.436   5.369 -0.0935  0.2715  0.1167
  108OSM    H6F11068   0.714   4.523   5.320  0.9109  0.7544 -0.0201
  108OSM    H6G11069   0.731   4.341   5.320  0.6451  1.1361 -2.1158
  108OSM    C7F11070   0.915   4.453   5.340  0.4979  0.3239 -0.3038
  108OSM    H7F11071   0.974   4.376   5.394  1.7343  0.2810 -1.6526
  108OSM    H7G11072   0.949   4.549   5.385  1.5236 -0.3639  0.4438
  108OSM    C8F11073   0.955   4.453   5.195  0.3798 -0.9869  0.0409
  108OSM    H8F11074   0.969   4.349   5.158 -0.2947 -2.3651  3.3780
  108OSM    H8G11075   1.059   4.491   5.201 -0.3504  1.0446  0.5978
  108OSM    C9F11076   0.871   4.538   5.104  0.2692  0.7281  0.0222
  108OSM    H9F11077   0.846   4.629   5.161 -0.6745 -0.1971  1.1560
  108OSM   C10F11078   0.827   4.509   4.976  0.5044 -0.1096 -0.1208
  108OSM   H10F11079   0.773   4.588   4.922  2.9003  0.9015 -1.1801
  108OSM   C11F11080   0.853   4.383   4.890  0.1075 -0.5299  0.3824
  108OSM   H11F11081   0.929   4.313   4.930  0.0528 -2.4352 -2.5059
  108OSM   H11G11082   0.885   4.408   4.786 -2.1169 -2.0515 -0.7379
  108OSM   C12F11083   0.732   4.294   4.882  1.0660  0.2392 -0.1369
  108OSM   H12F11084   0.709   4.275   4.989  2.3294  3.8355  0.9293
  108OSM   H12G11085   0.763   4.202   4.828 -0.3707 -0.0290 -0.5572
  108OSM   C13F11086   0.601   4.353   4.820  0.8761 -0.6906  0.7986
  108OSM   H13F11087   0.568   4.448   4.867  0.8270 -0.3388  0.0645
  108OSM   H13G11088   0.522   4.276   4.833 -0.2582  0.0101 -1.3698
  108OSM   C14F11089   0.614   4.385   4.674  0.1275 -0.0051 -0.1874
  108OSM   H14F11090   0.641   4.293   4.620  1.0725  0.5080 -0.6097
  108OSM   H14G11091   0.688   4.463   4.647 -0.8549  0.5902 -1.2730
  108OSM   C15F11092   0.493   4.451   4.610 -0.3408  0.1333 -0.6118
  108OSM   H15F11093   0.488   4.558   4.639 -0.7538  0.5555 -2.1565
  108OSM   H15G11094   0.395   4.407   4.636 -0.3988  0.4786 -0.2488
  108OSM   C16F11095   0.501   4.436   4.449  0.4741  0.2703  0.3862
  108OSM   H16F11096   0.502   4.329   4.419  0.9399  0.5834 -0.7483
  108OSM   H16G11097   0.595   4.489   4.422  0.8135  0.9829  2.6811
  108OSM   C17F11098   0.383   4.512   4.381  0.3642  0.0008 -0.2200
  108OSM   H17F11099   0.361   4.601   4.445 -2.3563 -1.0979  0.4954
  108OSM   H17G11100   0.285   4.461   4.372  0.7239 -0.6750 -0.3186
  108OSM   C18F11101   0.427   4.543   4.236  0.3868  0.0762 -0.4752
  108OSM   H18F11102   0.452   4.451   4.179  2.9780  0.1641  0.3939
  108OSM   H18G11103   0.514   4.610   4.249  1.0745 -1.0990  1.5305
  108OSM   H18H11104   0.341   4.596   4.190 -0.8826 -0.0089  1.6617
  109OSM      N11105   5.458   6.975   6.120 -0.2048  0.0184  0.7837
  109OSM    C1511106   5.580   7.012   6.051  0.0255  0.0483 -0.2773
  109OSM   H15A11107   5.643   7.069   6.118 -0.4380 -0.2217  0.4067
  109OSM   H15B11108   5.556   7.059   5.957 -0.5764 -0.1268 -0.2143
  109OSM   H15C11109   5.627   6.921   6.018  0.0965  0.6190 -1.8152
  109OSM    C1411110   5.405   7.097   6.183  0.7272 -0.6293  0.7908
  109OSM   H14A11111   5.400   7.181   6.115  2.0805 -1.2382 -0.1011
  109OSM   H14B11112   5.463   7.128   6.268 -2.1948  3.9685  1.5119
  109OSM   H14C11113   5.306   7.081   6.225  0.6687  2.5443  2.1913
  109OSM    C1311114   5.357   6.937   6.011 -0.1165 -0.0213 -0.3723
  109OSM   H13A11115   5.386   6.840   5.973 -0.5842 -0.8230  1.2278
  109OSM   H13B11116   5.350   7.013   5.935 -2.8616 -0.8430 -1.0442
  109OSM   H13C11117   5.260   6.914   6.052 -0.7013  2.6853 -0.0563
  109OSM    C1211118   5.476   6.871   6.220  0.3010  0.0782 -0.3077
  109OSM   H12A11119   5.379   6.854   6.264 -0.7033 -0.0263 -2.4446
  109OSM   H12B11120   5.549   6.903   6.293  1.6180 -1.6310 -0.7873
  109OSM    C1111121   5.517   6.730   6.173  0.1692 -0.4621  0.1350
  109OSM   H11A11122   5.438   6.701   6.100  0.9574 -0.6491 -0.6701
  109OSM   H11B11123   5.513   6.666   6.264 -1.8030 -0.6909 -0.0828
  109OSM      P11124   5.727   6.612   6.054  0.1653  0.0468 -0.0795
  109OSM    O1311125   5.868   6.651   6.031 -0.0550  0.0778  0.4179
  109OSM    O1411126   5.715   6.496   6.146 -0.4912 -0.0231  0.4749
  109OSM    O1111127   5.644   6.592   5.922  0.4077  0.9040  0.3272
  109OSM    O1211128   5.650   6.738   6.120  0.1803  0.1105 -0.4819
  109OSM    C1S11129   5.640   6.667   5.804  0.5621 -0.4855 -0.0841
  109OSM    H1S11130   5.736   6.671   5.748  0.6738 -0.6747  0.0942
  109OSM    H1T11131   5.610   6.770   5.834 -0.0283 -0.9391  0.9078
  109OSM     NF11132   5.547   6.740   5.594  0.0246 -0.5947 -0.1455
  109OSM    HNF11133   5.487   6.820   5.593 -0.0553 -0.6531 -0.0491
  109OSM    C2S11134   5.527   6.643   5.701  0.0837 -0.2462 -0.5640
  109OSM    H2S11135   5.537   6.542   5.657 -1.3447 -0.4784 -0.4207
  109OSM    C3S11136   5.387   6.638   5.764 -0.1229 -0.2396 -0.2626
  109OSM    H3S11137   5.369   6.738   5.809  1.6030  0.6722 -1.4577
  109OSM     O311138   5.377   6.552   5.875 -0.0608 -0.2015  0.2152
  109OSM    HO311139   5.469   6.547   5.903 -0.2739  2.1796  1.6471
  109OSM    C4S11140   5.297   6.608   5.649  0.6513  0.3172  0.0180
  109OSM    H4S11141   5.278   6.692   5.581  1.5143  0.2358 -0.3428
  109OSM    C5S11142   5.243   6.485   5.614  0.4397  0.6205  0.4211
  109OSM    H5S11143   5.259   6.401   5.683  0.1012 -0.2705 -0.5546
  109OSM    C6S11144   5.140   6.457   5.496 -0.7250  0.7712 -0.7203
  109OSM    H6S11145   5.058   6.387   5.521 -0.7037  1.3660  1.2005
  109OSM    H6T11146   5.199   6.403   5.419  0.5958 -0.0096  0.7706
  109OSM    C7S11147   5.079   6.579   5.431  0.1547  0.1185 -0.7134
  109OSM    H7S11148   5.154   6.643   5.379  0.3124 -1.1576 -2.1390
  109OSM    H7T11149   5.047   6.644   5.515  1.0518 -0.7142  0.3014
  109OSM    C8S11150   4.947   6.560   5.347  0.0262 -0.5645 -0.5509
  109OSM    H8S11151   4.895   6.658   5.345  0.8461 -0.1014  0.2788
  109OSM    H8T11152   4.884   6.484   5.398  0.1711 -0.5632 -0.3703
  109OSM    C9S11153   4.966   6.512   5.198  0.1286 -0.2898 -0.3972
  109OSM    H9S11154   4.995   6.598   5.134  1.0360  0.2074  0.6472
  109OSM    H9T11155   4.870   6.469   5.162 -1.7292  3.3781 -0.3101
  109OSM   C10S11156   5.079   6.410   5.179  0.0128  0.4363 -0.4532
  109OSM   H10S11157   5.055   6.319   5.237  1.2226 -0.4559 -1.2915
  109OSM   H10T11158   5.174   6.452   5.219  0.1569 -0.0255 -0.3052
  109OSM   C11S11159   5.101   6.371   5.034 -0.1248 -0.3376 -0.0226
  109OSM   H11S11160   5.206   6.336   5.024  0.9680  2.3582  1.0281
  109OSM   H11T11161   5.093   6.463   4.972 -3.2242  1.0313  2.0901
  109OSM   C12S11162   5.004   6.265   4.988 -0.1238  0.3327 -0.0928
  109OSM   H12S11163   4.900   6.294   5.016 -0.3169 -0.8450  0.4500
  109OSM   H12T11164   5.021   6.182   5.060  3.0498  0.9187 -0.0319
  109OSM   C13S11165   5.021   6.236   4.843  0.4451  0.2630  0.2457
  109OSM   H13S11166   5.127   6.224   4.811  0.6134  1.4453  0.3240
  109OSM   H13T11167   5.007   6.333   4.791 -1.3361 -0.2807 -0.3722
  109OSM   C14S11168   4.934   6.121   4.787  0.1882 -0.9072  0.7368
  109OSM   H14S11169   4.827   6.139   4.806 -0.2327  0.3982 -2.2711
  109OSM   H14T11170   4.957   6.022   4.832  0.1193 -0.0401  2.7871
  109OSM   C15S11171   4.945   6.130   4.631 -0.2151 -0.0035 -0.5138
  109OSM   H15S11172   5.023   6.065   4.586  1.0214 -0.7021  2.4093
  109OSM   H15T11173   4.967   6.237   4.611 -2.0828  0.9618  2.0074
  109OSM   C16S11174   4.816   6.109   4.561  0.5849 -0.0830  0.5786
  109OSM   H16S11175   4.726   6.157   4.605  0.3359  1.0569 -1.0897
  109OSM   H16T11176   4.792   6.001   4.568 -2.5847  0.5037  0.1861
  109OSM   C17S11177   4.834   6.146   4.420  0.6833 -0.1924 -0.1127
  109OSM   H17S11178   4.930   6.101   4.387 -0.1917 -0.4077 -2.5968
  109OSM   H17T11179   4.840   6.256   4.411 -2.7694  0.1311 -0.1292
  109OSM   C18S11180   4.716   6.101   4.332 -0.0794  0.4684  0.2907
  109OSM   H18S11181   4.730   6.126   4.225  0.1174 -0.6782  0.0306
  109OSM   H18T11182   4.622   6.149   4.367 -0.0303  1.3484 -0.7523
  109OSM   H18U11183   4.701   5.991   4.326 -0.2851  0.4656  0.7716
  109OSM    C1F11184   5.649   6.724   5.508  0.1283  0.2743  0.7636
  109OSM     OF11185   5.702   6.613   5.506 -0.7342  0.3610 -0.4234
  109OSM    C2F11186   5.699   6.828   5.418  0.1744 -0.1814 -0.7077
  109OSM    H2F11187   5.809   6.837   5.429  0.1764 -1.0126  0.1346
  109OSM    H2G11188   5.644   6.922   5.439 -1.0010 -1.4333  2.5608
  109OSM    C3F11189   5.674   6.782   5.270  0.4441  0.3041 -0.7553
  109OSM    H3F11190   5.743   6.695   5.263  1.5651  1.0701  0.3662
  109OSM    H3G11191   5.710   6.872   5.216  0.2565  1.2459  0.6325
  109OSM    C4F11192   5.531   6.738   5.237  0.8733 -0.0286  0.0123
  109OSM    H4F11193   5.454   6.817   5.247 -1.0747 -1.6699 -1.2756
  109OSM    H4G11194   5.503   6.652   5.301 -1.0058  0.3818 -0.1942
  109OSM    C5F11195   5.530   6.693   5.088  1.5311  0.2343  0.1420
  109OSM    H5F11196   5.562   6.587   5.096  0.8613  0.0307  0.2289
  109OSM    H5G11197   5.606   6.740   5.021  0.5743 -0.9145 -1.8522
  109OSM    C6F11198   5.387   6.693   5.024  0.4269 -0.6895 -0.4685
  109OSM    H6F11199   5.358   6.800   5.011  1.2841 -0.4643 -0.6020
  109OSM    H6G11200   5.318   6.665   5.107 -0.5047  0.6549 -0.7360
  109OSM    C7F11201   5.378   6.624   4.887  0.2027  0.7004  0.1297
  109OSM    H7F11202   5.271   6.612   4.859  0.3228 -2.2335  0.6685
  109OSM    H7G11203   5.424   6.523   4.887  1.5160  1.2775  0.4576
  109OSM    C8F11204   5.447   6.707   4.772 -0.7640 -0.6428 -0.0421
  109OSM    H8F11205   5.557   6.702   4.789 -0.2430 -0.6426 -2.9193
  109OSM    H8G11206   5.408   6.806   4.803  0.6832 -0.9449  3.1479
  109OSM    C9F11207   5.420   6.667   4.628  0.3666  0.2936  0.5964
  109OSM    H9F11208   5.446   6.562   4.607 -4.0778 -1.3556  2.2207
  109OSM   C10F11209   5.363   6.734   4.529  0.1499  0.1214  0.4386
  109OSM   H10F11210   5.374   6.689   4.429 -0.4214  0.5316  0.1800
  109OSM   C11F11211   5.330   6.880   4.544  0.0119 -0.6379 -0.3683
  109OSM   H11F11212   5.362   6.946   4.460  1.1012  0.5047  0.8996
  109OSM   H11G11213   5.392   6.916   4.629 -0.3993 -2.3591  0.7119
  109OSM   C12F11214   5.181   6.912   4.584  0.2557 -0.0672  0.4452
  109OSM   H12F11215   5.147   6.846   4.667  0.6614 -1.0626 -0.1504
  109OSM   H12G11216   5.125   6.871   4.497 -1.9784  1.0498  1.2843
  109OSM   C13F11217   5.152   7.060   4.598 -0.1300  0.1850  0.1527
  109OSM   H13F11218   5.126   7.101   4.499 -1.3020  0.6664  0.6374
  109OSM   H13G11219   5.248   7.108   4.628  1.1122  0.1990 -3.4244
  109OSM   C14F11220   5.051   7.096   4.706  0.0726  0.0501 -0.3875
  109OSM   H14F11221   5.077   7.055   4.805 -1.7317 -0.0195  0.0891
  109OSM   H14G11222   4.956   7.043   4.684  0.5597 -0.5567 -1.0803
  109OSM   C15F11223   5.030   7.251   4.711  0.8241 -0.6034  0.2582
  109OSM   H15F11224   4.934   7.255   4.767  1.0242  1.1893  0.5145
  109OSM   H15G11225   5.002   7.284   4.609 -0.1193  0.8845  0.9678
  109OSM   C16F11226   5.149   7.333   4.759 -0.1938  0.0898  0.0276
  109OSM   H16F11227   5.207   7.345   4.665 -0.0264  1.8903  0.3194
  109OSM   H16G11228   5.216   7.275   4.825 -0.3510 -2.1770 -1.6874
  109OSM   C17F11229   5.126   7.472   4.818  0.1868  0.3237 -0.1828
  109OSM   H17F11230   5.052   7.460   4.899  0.7225  2.2794  0.6688
  109OSM   H17G11231   5.082   7.543   4.744  1.6905  0.5764 -0.8841
  109OSM   C18F11232   5.250   7.546   4.868  0.6252 -0.7808  0.7270
  109OSM   H18F11233   5.295   7.486   4.950  0.8091  0.2122  1.3627
  109OSM   H18G11234   5.225   7.647   4.908  1.7663 -1.0119  2.1006
  109OSM   H18H11235   5.329   7.553   4.790  0.6134 -0.6575  0.7264
  110OSM      N11236   0.448   4.643   6.926 -0.3401 -0.3856  0.0214
  110OSM    C1511237   0.302   4.681   6.917  0.5462 -0.4018 -0.0196
  110OSM   H15A11238   0.229   4.601   6.918  0.5681 -0.4236  0.8229
  110OSM   H15B11239   0.283   4.722   6.819  1.6651 -0.0404 -0.0982
  110OSM   H15C11240   0.267   4.753   6.990 -1.5950  0.4051 -1.7347
  110OSM    C1411241   0.537   4.760   6.906  0.2254 -0.4771 -0.5590
  110OSM   H14A11242   0.562   4.831   6.983  0.4240  0.4594 -1.4591
  110OSM   H14B11243   0.509   4.819   6.820 -0.7004 -1.5798 -1.0406
  110OSM   H14C11244   0.631   4.714   6.876 -0.2237 -1.9000  0.0984
  110OSM    C1311245   0.472   4.598   7.071  0.1316  0.5472  0.1163
  110OSM   H13A11246   0.430   4.502   7.095  2.5236 -0.9568 -1.2393
  110OSM   H13B11247   0.421   4.665   7.138 -1.6754 -0.3987 -0.2538
  110OSM   H13C11248   0.576   4.612   7.096 -0.0696  1.3577  0.5168
  110OSM    C1211249   0.482   4.536   6.836  0.6164 -0.6039  0.0952
  110OSM   H12A11250   0.408   4.461   6.858 -2.1863  2.5031  2.0652
  110OSM   H12B11251   0.568   4.480   6.871  0.7813 -0.2195  0.3184
  110OSM    C1111252   0.483   4.549   6.679 -0.3342 -0.4173  0.1124
  110OSM   H11A11253   0.522   4.457   6.631 -1.7865 -1.3859  0.7160
  110OSM   H11B11254   0.556   4.630   6.658  1.0839 -1.5406  0.6062
  110OSM      P11255   0.245   4.490   6.596 -0.0207 -0.5434  0.0230
  110OSM    O1311256   0.266   4.363   6.666 -0.0842 -0.3933 -0.0603
  110OSM    O1411257   0.121   4.565   6.633  0.2053 -0.2359 -0.1227
  110OSM    O1111258   0.243   4.469   6.439 -0.1679  0.9505 -0.3381
  110OSM    O1211259   0.358   4.589   6.629 -0.3101 -0.3982 -0.3007
  110OSM    C1S11260   0.352   4.440   6.348  0.3957 -0.1104 -0.2708
  110OSM    H1S11261   0.383   4.335   6.367 -2.3676 -0.7396  1.4116
  110OSM    H1T11262   0.434   4.514   6.353  0.2329 -0.0006  1.4688
  110OSM     NF11263   0.398   4.369   6.122  0.1549  0.0181 -0.2566
  110OSM    HNF11264   0.469   4.420   6.074  1.4458 -1.7894 -0.3508
  110OSM    C2S11265   0.306   4.445   6.201  0.3270 -0.2093 -0.0156
  110OSM    H2S11266   0.209   4.390   6.198  0.2230 -0.0028 -1.2713
  110OSM    C3S11267   0.289   4.593   6.145 -0.5518  0.1358 -0.6187
  110OSM    H3S11268   0.392   4.635   6.139 -0.6725  0.5162 -0.0667
  110OSM     O311269   0.213   4.682   6.226  0.2224 -0.2943 -0.1691
  110OSM    HO311270   0.185   4.630   6.302 -3.0463 -1.4886 -1.9683
  110OSM    C4S11271   0.239   4.608   6.001  0.0513 -0.7628  0.5861
  110OSM    H4S11272   0.325   4.595   5.933  0.2194  0.7937  0.4781
  110OSM    C5S11273   0.114   4.637   5.959 -0.4665 -1.0151 -0.2838
  110OSM    H5S11274   0.030   4.654   6.029 -0.1974  0.4767 -0.2890
  110OSM    C6S11275   0.071   4.653   5.816  0.1020  0.0488  0.1966
  110OSM    H6S11276  -0.001   4.578   5.777 -0.6549  1.0436 -0.3692
  110OSM    H6T11277   0.151   4.639   5.740 -0.9711  1.0730 -1.1737
  110OSM    C7S11278   0.018   4.787   5.782  0.2638 -0.3449  0.4330
  110OSM    H7S11279   0.107   4.853   5.781  1.1060 -1.4436  0.7189
  110OSM    H7T11280  -0.057   4.820   5.858 -0.4450 -0.3582 -0.2516
  110OSM    C8S11281  -0.066   4.803   5.653  0.3170  0.2754 -0.4229
  110OSM    H8S11282  -0.070   4.909   5.618 -2.5115 -0.4860 -2.8574
  110OSM    H8T11283  -0.175   4.785   5.664  0.5961 -2.1992 -1.1558
  110OSM    C9S11284  -0.042   4.710   5.532 -0.2605 -0.1370 -0.0807
  110OSM    H9S11285  -0.084   4.608   5.541 -1.7805  0.3607 -1.0085
  110OSM    H9T11286   0.068   4.704   5.521  0.0132  1.3059  1.3149
  110OSM   C10S11287  -0.104   4.776   5.405 -0.1446  0.4824  1.0546
  110OSM   H10S11288  -0.038   4.862   5.384  2.1818 -1.6874 -1.1441
  110OSM   H10T11289  -0.207   4.805   5.435  0.3703  0.2697  3.2227
  110OSM   C11S11290  -0.109   4.678   5.283 -0.1244 -0.8891 -0.0805
  110OSM   H11S11291  -0.161   4.583   5.308 -1.0851  0.4242  3.5410
  110OSM   H11T11292  -0.005   4.644   5.264 -0.2434 -1.2644 -0.0724
  110OSM   C12S11293  -0.172   4.738   5.165 -0.0744 -0.1442  0.5143
  110OSM   H12S11294  -0.117   4.832   5.145 -0.6083  0.1117  0.2552
  110OSM   H12T11295  -0.278   4.754   5.192 -0.3011  2.0772 -1.4750
  110OSM   C13S11296  -0.162   4.642   5.040  0.1655 -0.1529 -0.0218
  110OSM   H13S11297  -0.206   4.545   5.069  1.4247 -0.3540  1.2849
  110OSM   H13T11298  -0.058   4.619   5.009 -0.2229  1.5232 -3.0768
  110OSM   C14S11299  -0.242   4.684   4.914 -0.0704 -0.0793 -0.0848
  110OSM   H14S11300  -0.242   4.793   4.895 -0.4565 -0.4154 -2.3904
  110OSM   H14T11301  -0.350   4.663   4.925  0.1126 -0.3469  1.3209
  110OSM   C15S11302  -0.196   4.621   4.781  0.3009  0.1833  0.1865
  110OSM   H15S11303  -0.261   4.639   4.693 -0.8820  0.1122  1.0297
  110OSM   H15T11304  -0.212   4.511   4.786  0.6089  0.1146 -0.2598
  110OSM   C16S11305  -0.057   4.655   4.740 -0.7339 -0.0837 -0.2418
  110OSM   H16S11306   0.010   4.596   4.807 -0.1249  1.6990  0.7973
  110OSM   H16T11307  -0.037   4.762   4.761 -0.1099 -0.2619  0.1118
  110OSM   C17S11308  -0.020   4.633   4.588 -0.3009  0.0565 -0.6703
  110OSM   H17S11309  -0.103   4.681   4.531 -0.0762 -0.2396 -1.2436
  110OSM   H17T11310  -0.012   4.525   4.567  1.4267  0.1260 -0.4685
  110OSM   C18S11311   0.112   4.706   4.551  0.3619 -0.3580 -0.8942
  110OSM   H18S11312   0.155   4.687   4.450 -0.7742 -0.9322 -1.2847
  110OSM   H18T11313   0.185   4.674   4.629 -0.0208  1.7815  0.4168
  110OSM   H18U11314   0.103   4.814   4.575  2.6746 -0.2576 -0.1617
  110OSM    C1F11315   0.391   4.234   6.119 -0.7775 -0.0885  0.4496
  110OSM     OF11316   0.323   4.167   6.198  0.0309 -0.6291  0.0048
  110OSM    C2F11317   0.472   4.176   6.009 -0.0056  0.6596  0.3353
  110OSM    H2F11318   0.576   4.157   6.042 -0.8837 -3.4534  1.3282
  110OSM    H2G11319   0.471   4.251   5.927  0.9003  0.3084  0.0003
  110OSM    C3F11320   0.409   4.054   5.954  0.1027 -0.1411  0.0614
  110OSM    H3F11321   0.304   4.072   5.925 -0.1090 -0.2136  0.7726
  110OSM    H3G11322   0.403   3.976   6.032  0.6634 -2.0078 -1.6628
  110OSM    C4F11323   0.488   3.987   5.840  0.3387  0.0903 -0.3861
  110OSM    H4F11324   0.500   3.879   5.863 -0.7300  0.3049  1.3286
  110OSM    H4G11325   0.583   4.044   5.834  0.1336  0.3151 -1.8366
  110OSM    C5F11326   0.415   4.011   5.708 -0.1091 -0.0075  0.2230
  110OSM    H5F11327   0.403   4.122   5.705 -0.4499 -0.0090  1.2153
  110OSM    H5G11328   0.320   3.953   5.710 -1.0919  1.4379 -1.5784
  110OSM    C6F11329   0.485   3.959   5.580  0.0726 -0.0984 -0.2585
  110OSM    H6F11330   0.560   4.029   5.538 -0.8868  1.1281  0.0059
  110OSM    H6G11331   0.405   3.955   5.504  0.1149 -0.1690 -0.2990
  110OSM    C7F11332   0.547   3.815   5.591  0.0533  0.0202  0.1545
  110OSM    H7F11333   0.468   3.746   5.628  0.3647  0.1283  1.0541
  110OSM    H7G11334   0.623   3.797   5.670 -0.5690  0.9356  0.9924
  110OSM    C8F11335   0.594   3.760   5.460 -0.3891 -0.6727  0.5201
  110OSM    H8F11336   0.671   3.823   5.411 -3.0740  3.0312  0.6173
  110OSM    H8G11337   0.503   3.757   5.397 -0.0735  1.3014 -0.0967
  110OSM    C9F11338   0.649   3.626   5.462 -0.5944 -0.4687  0.4731
  110OSM    H9F11339   0.722   3.615   5.544 -0.5392  0.9683  0.6417
  110OSM   C10F11340   0.632   3.532   5.368  0.0969 -0.3196 -0.3690
  110OSM   H10F11341   0.655   3.425   5.378  1.8578 -0.2462 -2.8705
  110OSM   C11F11342   0.530   3.541   5.254  0.8185 -0.5829 -0.0734
  110OSM   H11F11343   0.551   3.622   5.181  0.1020  1.6277  2.0314
  110OSM   H11G11344   0.430   3.578   5.286 -0.3732 -2.0419 -1.9642
  110OSM   C12F11345   0.514   3.405   5.190  0.1450  0.5545  0.5678
  110OSM   H12F11346   0.465   3.338   5.264  1.1404  0.8458  1.5126
  110OSM   H12G11347   0.606   3.350   5.163 -1.5032 -2.2900  0.3249
  110OSM   C13F11348   0.412   3.401   5.076 -0.6781 -0.5644  0.6438
  110OSM   H13F11349   0.315   3.411   5.128 -0.7171 -0.1569  0.4883
  110OSM   H13G11350   0.416   3.295   5.042  0.9069 -0.3756  0.1364
  110OSM   C14F11351   0.447   3.494   4.953 -0.4451 -0.1805 -0.4349
  110OSM   H14F11352   0.550   3.482   4.912 -0.8973  0.6423 -1.8659
  110OSM   H14G11353   0.443   3.600   4.983 -0.6436  0.0057 -1.1061
  110OSM   C15F11354   0.347   3.476   4.835 -0.2840  0.1925  0.1417
  110OSM   H15F11355   0.246   3.500   4.873 -0.2979 -0.8047  0.7635
  110OSM   H15G11356   0.357   3.373   4.795  0.6795 -0.2906  1.5445
  110OSM   C16F11357   0.393   3.567   4.724  0.0939 -0.5516  0.4958
  110OSM   H16F11358   0.480   3.534   4.663 -0.1389  0.6368 -0.5311
  110OSM   H16G11359   0.418   3.663   4.774 -1.8732 -0.7762  2.0619
  110OSM   C17F11360   0.281   3.615   4.632  0.8476 -0.5649 -0.6155
  110OSM   H17F11361   0.187   3.615   4.691  1.2330 -0.8645  0.0166
  110OSM   H17G11362   0.259   3.546   4.548 -3.1253 -1.6945  1.1182
  110OSM   C18F11363   0.310   3.754   4.575 -0.1997 -0.0512 -0.1106
  110OSM   H18F11364   0.316   3.836   4.650 -1.9263  1.5776 -1.6665
  110OSM   H18G11365   0.243   3.787   4.492 -0.0658  2.7401  0.7842
  110OSM   H18H11366   0.412   3.739   4.533 -0.2582  0.4403 -0.4304
  111OSM      N11367   2.589   1.513   6.842 -0.5423 -0.4512 -0.2696
  111OSM    C1511368   2.495   1.402   6.870  0.6732  0.6618  0.2846
  111OSM   H15A11369   2.398   1.442   6.844  0.7214  0.4542 -0.2232
  111OSM   H15B11370   2.476   1.384   6.975  0.1709 -0.6467 -0.0133
  111OSM   H15C11371   2.507   1.310   6.816  0.7855  1.8596 -1.8597
  111OSM    C1411372   2.555   1.632   6.929  0.3843  0.2850 -0.1768
  111OSM   H14A11373   2.605   1.719   6.888  1.3679 -0.2368 -0.1264
  111OSM   H14B11374   2.584   1.631   7.033 -1.5895  1.3083  0.4227
  111OSM   H14C11375   2.449   1.647   6.920  0.0449 -0.9404  1.3674
  111OSM    C1311376   2.732   1.469   6.885  0.5515  0.5929  0.4684
  111OSM   H13A11377   2.750   1.455   6.990 -0.3586 -1.4313  0.4127
  111OSM   H13B11378   2.807   1.536   6.847 -0.2467  0.0591 -2.3314
  111OSM   H13C11379   2.747   1.382   6.822 -0.9009  0.4765  0.2399
  111OSM    C1211380   2.594   1.548   6.701 -0.4444  0.1990  0.0320
  111OSM   H12A11381   2.493   1.579   6.677 -0.1943  0.1611 -1.1591
  111OSM   H12B11382   2.602   1.462   6.636 -0.1515 -0.0231  0.3592
  111OSM    C1111383   2.692   1.661   6.647 -0.4004  0.1448 -0.4558
  111OSM   H11A11384   2.686   1.665   6.536  1.2018  1.4653 -0.5349
  111OSM   H11B11385   2.797   1.633   6.670 -0.2646 -0.5796 -1.8510
  111OSM      P11386   2.560   1.896   6.663  0.0753 -0.1081  0.0558
  111OSM    O1311387   2.464   1.825   6.578  0.5904 -0.1020  0.0411
  111OSM    O1411388   2.513   1.966   6.785  0.0430  0.3586 -0.3964
  111OSM    O1111389   2.632   2.000   6.564  0.1486  0.1386 -0.1626
  111OSM    O1211390   2.674   1.792   6.698 -1.2749  0.4084 -0.4893
  111OSM    C1S11391   2.761   1.976   6.502  0.1930  0.9427 -0.2572
  111OSM    H1S11392   2.800   1.873   6.511  0.9559  1.2488 -0.0031
  111OSM    H1T11393   2.830   2.043   6.558 -0.2154  1.2454 -0.1047
  111OSM     NF11394   2.884   1.977   6.290 -0.1221  0.0513  0.0787
  111OSM    HNF11395   2.957   2.045   6.283  0.3616 -0.4668  0.0427
  111OSM    C2S11396   2.761   2.013   6.356 -0.0857 -0.6543  0.5605
  111OSM    H2S11397   2.671   1.975   6.303 -0.3875  0.5324  0.1856
  111OSM    C3S11398   2.723   2.158   6.345 -0.1483 -0.9240  0.2092
  111OSM    H3S11399   2.797   2.223   6.397 -2.7639  0.5585  2.2785
  111OSM     O311400   2.604   2.199   6.416  0.5256 -0.2432 -0.8762
  111OSM    HO311401   2.603   2.141   6.492 -1.2447  1.4451  0.4814
  111OSM    C4S11402   2.702   2.207   6.205 -0.7616 -0.2713  0.0598
  111OSM    H4S11403   2.777   2.274   6.160  1.4409 -2.0025  0.9430
  111OSM    C5S11404   2.598   2.172   6.129 -0.3275 -0.0155  0.0041
  111OSM    H5S11405   2.545   2.084   6.168  0.8946 -1.5858 -1.6860
  111OSM    C6S11406   2.584   2.216   5.987 -0.2269  0.5515  0.7365
  111OSM    H6S11407   2.613   2.323   5.978  1.2624 -0.0373 -3.4019
  111OSM    H6T11408   2.476   2.198   5.967 -0.1185  1.1415 -0.4340
  111OSM    C7S11409   2.655   2.122   5.880 -0.1720 -0.0421 -0.1164
  111OSM    H7S11410   2.600   2.027   5.899  0.9387 -0.1659  3.0132
  111OSM    H7T11411   2.763   2.106   5.900  0.1540 -0.3079 -1.9404
  111OSM    C8S11412   2.617   2.169   5.737 -0.0286  0.0821  0.0873
  111OSM    H8S11413   2.683   2.258   5.727  0.0624  0.3928  2.7396
  111OSM    H8T11414   2.513   2.209   5.737 -0.0406  0.0487 -0.0835
  111OSM    C9S11415   2.632   2.068   5.630  0.5483  0.7919  0.3149
  111OSM    H9S11416   2.557   1.990   5.655  0.6796  0.3625 -0.6084
  111OSM    H9T11417   2.733   2.021   5.625  0.7654  1.3385 -3.2404
  111OSM   C10S11418   2.600   2.120   5.487  0.2378  0.5484  0.1663
  111OSM   H10S11419   2.677   2.197   5.467  2.5287 -1.9562 -1.4315
  111OSM   H10T11420   2.498   2.164   5.489 -1.7270 -3.4830  2.5022
  111OSM   C11S11421   2.607   2.017   5.373 -0.4322  0.0708 -0.4865
  111OSM   H11S11422   2.521   1.948   5.386 -1.1750  0.9908 -0.4901
  111OSM   H11T11423   2.700   1.956   5.375 -1.4856 -1.6840  2.5728
  111OSM   C12S11424   2.593   2.093   5.236 -0.4693 -0.0876  0.8236
  111OSM   H12S11425   2.577   2.015   5.158  0.0909 -0.4878  1.1011
  111OSM   H12T11426   2.689   2.141   5.209 -0.7981 -0.5226 -1.2928
  111OSM   C13S11427   2.477   2.197   5.225 -0.4494  0.0741 -0.5346
  111OSM   H13S11428   2.508   2.274   5.300 -1.1173  0.5914 -0.7729
  111OSM   H13T11429   2.385   2.153   5.269  2.0472 -2.3359  2.8392
  111OSM   C14S11430   2.451   2.260   5.088 -0.0477 -0.5249  0.3324
  111OSM   H14S11431   2.386   2.350   5.098 -0.7892 -0.9361 -0.5548
  111OSM   H14T11432   2.383   2.191   5.031  0.2311  0.1429 -0.8400
  111OSM   C15S11433   2.574   2.291   4.997 -0.1257  0.2624 -0.5105
  111OSM   H15S11434   2.639   2.202   4.986  0.5185  0.8566 -1.7616
  111OSM   H15T11435   2.650   2.359   5.042 -0.3473 -0.3357  0.8070
  111OSM   C16S11436   2.547   2.367   4.868  0.4217  0.1009  0.9207
  111OSM   H16S11437   2.649   2.397   4.837  0.0840 -0.0353 -0.3994
  111OSM   H16T11438   2.490   2.462   4.878 -0.9355 -0.7151  1.1949
  111OSM   C17S11439   2.480   2.285   4.756  0.8348 -0.0604  0.0975
  111OSM   H17S11440   2.535   2.189   4.762 -1.1702 -1.5580 -3.1132
  111OSM   H17T11441   2.499   2.337   4.660 -3.9834  0.1230 -0.9918
  111OSM   C18S11442   2.330   2.276   4.760 -0.0858  0.2046  0.6700
  111OSM   H18S11443   2.302   2.184   4.817  0.2574 -1.0688 -1.1604
  111OSM   H18T11444   2.271   2.258   4.668  2.4363 -0.8661 -0.8065
  111OSM   H18U11445   2.280   2.365   4.806 -1.0099  1.0630 -1.8388
  111OSM    C1F11446   2.927   1.855   6.261  0.2374 -0.2381  0.5097
  111OSM     OF11447   2.854   1.761   6.251  1.2812  0.1430 -0.3615
  111OSM    C2F11448   3.079   1.836   6.234  0.1974  0.3486  0.1091
  111OSM    H2F11449   3.107   1.779   6.325 -0.8805  0.3529  0.4630
  111OSM    H2G11450   3.136   1.931   6.242 -0.2137  0.7637 -1.5733
  111OSM    C3F11451   3.102   1.762   6.102  0.2239 -0.2186 -0.6082
  111OSM    H3F11452   3.035   1.677   6.078  0.9049 -0.4676 -1.7138
  111OSM    H3G11453   3.203   1.715   6.111  0.7810  1.0976  0.1605
  111OSM    C4F11454   3.087   1.859   5.982 -0.5584  0.1430 -0.4065
  111OSM    H4F11455   3.147   1.952   5.987  0.5400 -0.6063  0.8853
  111OSM    H4G11456   2.985   1.903   5.981 -0.0663  1.4072  1.2110
  111OSM    C5F11457   3.114   1.789   5.849  0.2941  0.4025  0.1547
  111OSM    H5F11458   3.033   1.717   5.829  0.4620  0.7601 -2.0416
  111OSM    H5G11459   3.212   1.737   5.855  1.1077  1.7317 -0.9310
  111OSM    C6F11460   3.117   1.886   5.732 -0.5015 -0.1792 -0.9489
  111OSM    H6F11461   3.189   1.969   5.749  0.0283 -1.0605  1.4112
  111OSM    H6G11462   3.015   1.925   5.713 -0.8535  0.6972  2.2663
  111OSM    C7F11463   3.171   1.813   5.609  0.1130  0.2745  0.6651
  111OSM    H7F11464   3.118   1.716   5.596  1.2316 -0.7054  2.8366
  111OSM    H7G11465   3.274   1.780   5.635 -0.5682 -0.5020  2.5652
  111OSM    C8F11466   3.165   1.898   5.481 -1.0286  0.2350 -0.4768
  111OSM    H8F11467   3.215   1.996   5.495 -2.6640  1.6006 -3.2208
  111OSM    H8G11468   3.057   1.906   5.457 -1.2881 -0.4824  0.4082
  111OSM    C9F11469   3.239   1.830   5.365 -0.0093  0.3322 -0.0998
  111OSM    H9F11470   3.343   1.801   5.384 -0.4621 -0.0873  1.9139
  111OSM   C10F11471   3.184   1.776   5.253  0.4993  0.2089  0.3424
  111OSM   H10F11472   3.237   1.717   5.177  2.4561  5.0128 -2.5335
  111OSM   C11F11473   3.036   1.783   5.213 -0.8135 -0.5483  0.8936
  111OSM   H11F11474   2.986   1.863   5.272 -1.2058 -0.8555  0.9806
  111OSM   H11G11475   2.980   1.688   5.219  0.7379 -1.5994 -0.3286
  111OSM   C12F11476   3.026   1.827   5.064  0.1847  0.3574 -1.0698
  111OSM   H12F11477   3.090   1.757   5.006  1.1939  0.9580 -0.6995
  111OSM   H12G11478   3.059   1.933   5.057  0.9038  0.4656  2.4649
  111OSM   C13F11479   2.892   1.804   4.992  0.6116 -0.2506  0.2959
  111OSM   H13F11480   2.816   1.865   5.045 -3.2841 -2.9258 -1.7112
  111OSM   H13G11481   2.861   1.697   4.992 -0.5324  0.0528  1.5709
  111OSM   C14F11482   2.896   1.847   4.841 -0.0913  0.0635 -0.0158
  111OSM   H14F11483   2.966   1.780   4.788 -0.7639 -1.4419  0.9309
  111OSM   H14G11484   2.924   1.953   4.823 -0.7271 -0.1462 -2.7927
  111OSM   C15F11485   2.764   1.831   4.762  0.2732  0.1437 -0.3577
  111OSM   H15F11486   2.724   1.731   4.790 -2.2828  0.5138 -2.3768
  111OSM   H15G11487   2.781   1.835   4.653 -0.6904  0.1655 -0.5109
  111OSM   C16F11488   2.649   1.931   4.784 -0.2694  0.8381  0.3062
  111OSM   H16F11489   2.663   2.018   4.715 -1.0796  1.0386  0.3909
  111OSM   H16G11490   2.652   1.961   4.891  0.0145  0.9994  0.2564
  111OSM   C17F11491   2.510   1.881   4.751  0.8605 -0.0158  0.0378
  111OSM   H17F11492   2.437   1.953   4.794  0.2483 -0.1746 -0.7143
  111OSM   H17G11493   2.486   1.782   4.796 -0.6272  0.2735 -0.0494
  111OSM   C18F11494   2.474   1.876   4.601 -0.0047  0.2078 -0.3948
  111OSM   H18F11495   2.368   1.844   4.585 -0.3395  1.3456 -0.5822
  111OSM   H18G11496   2.537   1.807   4.542  1.9153  0.3538  1.3661
  111OSM   H18H11497   2.486   1.977   4.557 -1.8865  0.0337 -1.4188
  112OSM      N11498   0.014   5.693   6.319  0.3673  0.4055 -0.7709
  112OSM    C1511499  -0.020   5.597   6.430  0.5357 -0.3852  0.3259
  112OSM   H15A11500  -0.115   5.625   6.474 -0.1861  0.9125 -1.9354
  112OSM   H15B11501   0.044   5.603   6.517  1.0715  2.8537 -0.1764
  112OSM   H15C11502  -0.018   5.497   6.390 -3.4527 -0.4662 -0.0384
  112OSM    C1411503   0.156   5.672   6.268  0.0937  0.9661 -0.2686
  112OSM   H14A11504   0.161   5.574   6.223  0.0239  0.6479  0.4039
  112OSM   H14B11505   0.237   5.685   6.339  1.4415 -0.8281 -1.3721
  112OSM   H14C11506   0.170   5.735   6.182 -0.1135 -0.2873 -1.2581
  112OSM    C1311507  -0.088   5.655   6.212 -0.7108 -0.6049 -0.1392
  112OSM   H13A11508  -0.077   5.548   6.200  2.3221 -0.4289  0.3950
  112OSM   H13B11509  -0.082   5.711   6.120  0.2913 -0.4245  0.0204
  112OSM   H13C11510  -0.185   5.671   6.256 -1.2693 -0.0538 -1.5446
  112OSM    C1211511  -0.005   5.838   6.376 -0.0637  0.0921 -0.1040
  112OSM   H12A11512   0.066   5.861   6.454  0.6374  0.9396 -0.9524
  112OSM   H12B11513  -0.102   5.851   6.420  0.0553  2.0231 -0.3455
  112OSM    C1111514   0.019   5.956   6.278 -0.1675  0.0943 -0.4379
  112OSM   H11A11515   0.126   5.960   6.247 -0.3337  0.2022 -1.0043
  112OSM   H11B11516   0.003   6.056   6.324 -0.9498  0.0142 -0.5227
  112OSM      P11517  -0.207   6.014   6.160 -0.3306  0.2576 -0.5960
  112OSM    O1311518  -0.282   5.962   6.039 -0.2548  1.1091  0.2218
  112OSM    O1411519  -0.273   5.996   6.291 -0.4826 -0.0180  0.4565
  112OSM    O1111520  -0.167   6.167   6.143  0.3038 -0.6235  0.4579
  112OSM    O1211521  -0.065   5.953   6.167 -0.2534  0.5549  0.0375
  112OSM    C1S11522  -0.059   6.204   6.054  0.4468  0.2744  0.1726
  112OSM    H1S11523   0.007   6.119   6.026 -2.0100 -2.2181  1.3651
  112OSM    H1T11524   0.001   6.286   6.098  1.7529 -1.4082  1.6945
  112OSM     NF11525  -0.022   6.257   5.814 -0.4176  0.4785 -0.6277
  112OSM    HNF11526   0.022   6.345   5.796  0.5871  0.8588  2.8231
  112OSM    C2S11527  -0.120   6.254   5.918 -0.2383 -0.3064 -0.2157
  112OSM    H2S11528  -0.199   6.183   5.887 -0.1845 -1.4567  2.0598
  112OSM    C3S11529  -0.201   6.387   5.951 -0.1978 -0.4500 -0.0687
  112OSM    H3S11530  -0.119   6.458   5.974 -0.1731 -0.6397  0.4273
  112OSM     O311531  -0.282   6.393   6.067 -0.1585 -0.2366 -0.4468
  112OSM    HO311532  -0.250   6.328   6.129  2.1887  1.2685  0.0572
  112OSM    C4S11533  -0.268   6.440   5.825 -0.0924 -0.4260 -0.3828
  112OSM    H4S11534  -0.327   6.368   5.768 -2.3278  1.9677 -1.2824
  112OSM    C5S11535  -0.259   6.567   5.778  0.2097  0.1228 -0.3804
  112OSM    H5S11536  -0.184   6.633   5.822 -0.0746  0.4017 -0.3104
  112OSM    C6S11537  -0.323   6.615   5.649  0.7453  0.0325 -0.3947
  112OSM    H6S11538  -0.330   6.726   5.653 -0.5871 -0.0065 -1.3095
  112OSM    H6T11539  -0.428   6.582   5.633 -0.8705  3.1524  2.4320
  112OSM    C7S11540  -0.239   6.580   5.529  0.3001  0.5177 -1.0644
  112OSM    H7S11541  -0.305   6.583   5.440 -0.0425  1.3251 -0.7920
  112OSM    H7T11542  -0.209   6.474   5.542 -1.2267  0.2263  0.2166
  112OSM    C8S11543  -0.120   6.677   5.510  0.7848 -0.6231  0.1973
  112OSM    H8S11544  -0.051   6.686   5.596  0.4589 -0.6729  0.4680
  112OSM    H8T11545  -0.160   6.779   5.489  2.3706 -0.3462 -1.7772
  112OSM    C9S11546  -0.042   6.625   5.388 -0.0036  1.0686  0.2315
  112OSM    H9S11547  -0.112   6.592   5.308 -0.8597 -0.6525  1.6053
  112OSM    H9T11548   0.001   6.530   5.426 -0.0725  0.9967  0.1305
  112OSM   C10S11549   0.065   6.709   5.334  0.0917  0.1621  0.1837
  112OSM   H10S11550   0.135   6.745   5.413 -0.1021  2.0992 -0.4716
  112OSM   H10T11551   0.017   6.800   5.291 -0.9944 -1.0663 -1.3116
  112OSM   C11S11552   0.147   6.645   5.216  0.2275  0.2945 -0.2916
  112OSM   H11S11553   0.063   6.630   5.144  0.1143 -1.9907  0.2490
  112OSM   H11T11554   0.190   6.547   5.242 -1.2322 -0.6630 -1.3017
  112OSM   C12S11555   0.242   6.745   5.151  0.3436 -0.1849  0.3532
  112OSM   H12S11556   0.273   6.799   5.243  0.8279  0.8826 -0.4180
  112OSM   H12T11557   0.188   6.817   5.086  0.8025 -0.7706 -0.7044
  112OSM   C13S11558   0.359   6.690   5.075  0.1392  0.5533 -0.2641
  112OSM   H13S11559   0.420   6.624   5.141 -1.6673 -2.2751 -1.2286
  112OSM   H13T11560   0.421   6.778   5.046  0.0393  0.2295 -1.5360
  112OSM   C14S11561   0.316   6.607   4.954  0.3615  0.4939 -1.2500
  112OSM   H14S11562   0.255   6.669   4.885 -3.4545 -0.5375  0.8535
  112OSM   H14T11563   0.249   6.523   4.981 -0.8971  2.3795  2.2092
  112OSM   C15S11564   0.447   6.556   4.889  0.1627 -0.1698  0.5508
  112OSM   H15S11565   0.515   6.515   4.967  0.8267 -0.6881 -0.2776
  112OSM   H15T11566   0.499   6.647   4.853 -0.8707 -0.0507 -0.7041
  112OSM   C16S11567   0.427   6.459   4.773 -0.3836  0.3843 -0.4530
  112OSM   H16S11568   0.389   6.367   4.823 -2.4924 -0.2762 -3.0262
  112OSM   H16T11569   0.520   6.438   4.716  0.4774  1.6276  0.4376
  112OSM   C17S11570   0.338   6.513   4.660  0.4876  0.6215 -0.3294
  112OSM   H17S11571   0.379   6.610   4.625 -0.9345  0.4366 -2.6801
  112OSM   H17T11572   0.232   6.528   4.691  0.6860 -0.0554  0.7176
  112OSM   C18S11573   0.346   6.427   4.537 -0.5597  0.0865  0.1334
  112OSM   H18S11574   0.318   6.320   4.550 -0.1041 -0.2732 -1.6215
  112OSM   H18T11575   0.442   6.447   4.485 -1.4767 -1.7780 -2.4259
  112OSM   H18U11576   0.278   6.484   4.470 -0.5941  0.8031  0.7660
  112OSM    C1F11577   0.041   6.148   5.771 -0.1873 -0.4633 -0.2474
  112OSM     OF11578   0.004   6.033   5.797  0.8483 -0.0086  0.1660
  112OSM    C2F11579   0.169   6.169   5.689  0.2218 -0.1747  0.0906
  112OSM    H2F11580   0.248   6.117   5.747 -1.3984 -1.3506  1.3694
  112OSM    H2G11581   0.199   6.275   5.686  0.8391 -0.2365  2.2987
  112OSM    C3F11582   0.149   6.120   5.550 -0.1100 -0.3197  0.1467
  112OSM    H3F11583   0.064   6.166   5.497  1.0663  0.5895 -1.0177
  112OSM    H3G11584   0.118   6.013   5.551  1.2978 -0.7645  1.9341
  112OSM    C4F11585   0.283   6.121   5.467  0.3627 -0.1330 -0.1927
  112OSM    H4F11586   0.363   6.060   5.515 -0.1760 -0.4422  0.3232
  112OSM    H4G11587   0.303   6.230   5.458 -1.1534  0.0771 -1.5747
  112OSM    C5F11588   0.246   6.092   5.320  0.3312 -0.5113  0.4235
  112OSM    H5F11589   0.340   6.102   5.262  0.0991  0.3935  0.1994
  112OSM    H5G11590   0.173   6.171   5.296  0.0836  0.1669  3.0768
  112OSM    C6F11591   0.171   5.956   5.304  0.1291  0.1567  0.6166
  112OSM    H6F11592   0.072   5.968   5.354  0.8934  0.8910  2.0225
  112OSM    H6G11593   0.226   5.877   5.360  1.0701  0.1496 -0.2871
  112OSM    C7F11594   0.141   5.916   5.161  0.3833  0.2269  1.1161
  112OSM    H7F11595   0.091   5.818   5.150 -0.4850  0.6920  0.7874
  112OSM    H7G11596   0.233   5.906   5.100 -1.6819  2.4630 -2.7437
  112OSM    C8F11597   0.063   6.021   5.087  0.5557 -0.5794  0.3143
  112OSM    H8F11598   0.125   6.113   5.086  0.1345 -0.2401  2.0181
  112OSM    H8G11599  -0.028   6.050   5.144  0.4223 -1.6653  0.6786
  112OSM    C9F11600   0.031   5.995   4.951 -0.2397  0.3185  0.2248
  112OSM    H9F11601  -0.046   5.919   4.929  0.4200  0.4334 -3.0393
  112OSM   C10F11602   0.107   6.030   4.839  0.3988  0.4625 -0.0393
  112OSM   H10F11603   0.093   5.970   4.748 -0.3224  0.8592 -0.1976
  112OSM   C11F11604   0.237   6.104   4.829 -0.1213 -0.2534  0.2102
  112OSM   H11F11605   0.292   6.108   4.925 -0.8000 -1.2380  0.6543
  112OSM   H11G11606   0.209   6.208   4.799 -1.7557 -0.2304  1.6728
  112OSM   C12F11607   0.327   6.049   4.719  0.2652  0.4496  0.0586
  112OSM   H12F11608   0.410   6.122   4.706  0.6425 -0.0444 -0.3663
  112OSM   H12G11609   0.269   6.030   4.626  0.8016 -2.6414  0.2718
  112OSM   C13F11610   0.402   5.913   4.755  0.9314 -0.1653 -0.0354
  112OSM   H13F11611   0.333   5.828   4.737 -1.8677  1.8991  0.2278
  112OSM   H13G11612   0.426   5.910   4.864 -0.5415 -0.2726  0.3168
  112OSM   C14F11613   0.537   5.905   4.678  0.4289  0.1391  0.4096
  112OSM   H14F11614   0.589   5.808   4.689  1.1768 -0.0788 -3.4613
  112OSM   H14G11615   0.603   5.989   4.707  1.7760 -0.2743 -1.2862
  112OSM   C15F11616   0.526   5.911   4.526  0.9502 -0.1528 -0.0108
  112OSM   H15F11617   0.626   5.902   4.477  0.4829 -0.0761 -1.0064
  112OSM   H15G11618   0.476   6.007   4.503 -3.0645 -2.6359 -3.1641
  112OSM   C16F11619   0.434   5.800   4.460 -0.4533  0.0271 -0.4115
  112OSM   H16F11620   0.417   5.818   4.352  1.6461  1.6161 -0.5523
  112OSM   H16G11621   0.334   5.804   4.508 -0.3234  0.2780 -0.1607
  112OSM   C17F11622   0.506   5.661   4.471 -0.5366 -0.6464  0.5761
  112OSM   H17F11623   0.500   5.618   4.573  1.9965 -2.0826  0.2052
  112OSM   H17G11624   0.616   5.670   4.458 -0.7428 -0.2287 -1.1236
  112OSM   C18F11625   0.451   5.561   4.366 -0.2010 -0.3021 -0.2473
  112OSM   H18F11626   0.342   5.548   4.384 -0.8805  2.6841 -1.6121
  112OSM   H18G11627   0.510   5.467   4.361 -0.4091 -0.4131 -0.6372
  112OSM   H18H11628   0.463   5.609   4.267 -1.0862 -1.6199 -1.0221
  113OSM      N11629   4.207   6.134   6.923 -0.3636  0.5558  0.0660
  113OSM    C1511630   4.137   6.009   6.884  0.7767  0.4404  0.1453
  113OSM   H15A11631   4.069   5.960   6.952 -0.0701  0.1491 -0.8791
  113OSM   H15B11632   4.213   5.934   6.869  0.2002 -0.5924  2.0488
  113OSM   H15C11633   4.083   6.017   6.791  1.5696 -0.7534 -0.4517
  113OSM    C1411634   4.106   6.230   6.978 -0.3157 -0.0668  0.7234
  113OSM   H14A11635   4.055   6.195   7.066 -0.6009 -0.5812  0.3585
  113OSM   H14B11636   4.037   6.250   6.897  0.1437  0.1851  0.3855
  113OSM   H14C11637   4.153   6.322   7.009  0.7428 -0.2299 -0.3354
  113OSM    C1311638   4.305   6.106   7.031  0.0291  0.0334 -0.3183
  113OSM   H13A11639   4.261   6.091   7.129  0.4288  0.6246 -0.0377
  113OSM   H13B11640   4.368   6.194   7.042  1.3608 -0.8106 -0.9689
  113OSM   H13C11641   4.363   6.017   7.014 -0.4810 -0.0721 -1.6129
  113OSM    C1211642   4.281   6.195   6.809 -0.8480 -0.5600  0.1577
  113OSM   H12A11643   4.350   6.120   6.774 -0.0270  0.8931 -1.4789
  113OSM   H12B11644   4.355   6.271   6.830 -0.3986 -1.2905  1.3069
  113OSM    C1111645   4.201   6.248   6.681 -0.0930 -0.2860 -0.0725
  113OSM   H11A11646   4.144   6.163   6.637  0.4062 -0.1350 -1.0319
  113OSM   H11B11647   4.269   6.273   6.598 -0.4494 -0.2823 -0.3694
  113OSM      P11648   3.969   6.373   6.677 -0.1750 -0.0616  0.3637
  113OSM    O1311649   3.896   6.354   6.803 -0.3973  0.3324  0.3634
  113OSM    O1411650   3.935   6.502   6.603 -0.1079 -0.1003  0.1350
  113OSM    O1111651   3.955   6.253   6.573  0.2692  0.1811 -0.3518
  113OSM    O1211652   4.123   6.365   6.709 -0.0425  0.1483 -0.6615
  113OSM    C1S11653   3.850   6.266   6.472 -0.0541  0.3503 -0.1174
  113OSM    H1S11654   3.871   6.360   6.417 -0.7275  0.2134 -0.6191
  113OSM    H1T11655   3.750   6.275   6.519  0.5502 -1.7534  1.7290
  113OSM     NF11656   3.736   6.159   6.269  0.2814 -0.1550 -0.1069
  113OSM    HNF11657   3.658   6.103   6.294  0.9073 -0.3552  1.4772
  113OSM    C2S11658   3.850   6.155   6.363 -0.8724 -0.0824 -0.4457
  113OSM    H2S11659   3.942   6.166   6.302 -0.9923  1.6226 -0.3627
  113OSM    C3S11660   3.866   6.011   6.429 -0.0417  0.3047 -0.0284
  113OSM    H3S11661   3.774   5.976   6.480  0.7138 -1.0453  0.4541
  113OSM     O311662   3.951   5.992   6.545 -0.3045 -0.3274  0.5828
  113OSM    HO311663   3.990   6.079   6.552 -0.2298 -0.4740  2.5195
  113OSM    C4S11664   3.899   5.913   6.323 -0.4833 -0.6740  0.4398
  113OSM    H4S11665   3.809   5.870   6.276 -2.3214  1.4846  1.7492
  113OSM    C5S11666   4.024   5.878   6.280  0.5167 -0.3191  0.1414
  113OSM    H5S11667   4.111   5.942   6.303 -0.0430  0.8417 -0.8577
  113OSM    C6S11668   4.051   5.781   6.170 -0.6128  0.1608 -0.8041
  113OSM    H6S11669   3.980   5.698   6.191  0.9470 -0.6049  1.8328
  113OSM    H6T11670   4.144   5.719   6.170 -1.0313 -0.5369  1.3489
  113OSM    C7S11671   4.031   5.841   6.030 -0.5717 -0.7744 -0.6395
  113OSM    H7S11672   4.097   5.930   6.034  1.3306 -2.1048 -1.1596
  113OSM    H7T11673   3.926   5.876   6.029 -0.3717 -0.1637 -0.9666
  113OSM    C8S11674   4.050   5.749   5.907 -0.1856  0.6931 -0.5372
  113OSM    H8S11675   3.991   5.656   5.921 -1.0436  0.8088 -2.9256
  113OSM    H8T11676   4.158   5.723   5.904 -0.1935  0.6096 -0.1916
  113OSM    C9S11677   4.007   5.821   5.780  0.0171  0.2073 -0.1190
  113OSM    H9S11678   4.089   5.837   5.708 -1.5550 -0.2217 -2.0948
  113OSM    H9T11679   3.959   5.920   5.798  0.8049  0.9101 -1.6764
  113OSM   C10S11680   3.903   5.748   5.696  0.8892 -0.5296  0.0656
  113OSM   H10S11681   3.826   5.682   5.741 -0.1113  1.3094  1.1565
  113OSM   H10T11682   3.952   5.681   5.622 -2.5459 -2.7048 -0.5015
  113OSM   C11S11683   3.821   5.852   5.618  0.1852  0.7348  0.1037
  113OSM   H11S11684   3.796   5.817   5.516 -0.0232 -1.2983  0.7977
  113OSM   H11T11685   3.893   5.935   5.605  3.7615 -2.1800 -0.4921
  113OSM   C12S11686   3.686   5.894   5.678  0.7635 -0.3249  0.7390
  113OSM   H12S11687   3.628   5.801   5.661 -2.5047  1.8889 -1.5449
  113OSM   H12T11688   3.641   5.982   5.626 -1.9456 -1.9000  0.2581
  113OSM   C13S11689   3.694   5.922   5.833 -0.1785 -0.1749 -0.0274
  113OSM   H13S11690   3.746   6.016   5.863 -2.3566  0.5553  1.7777
  113OSM   H13T11691   3.756   5.845   5.883  1.4067  0.8243 -0.3671
  113OSM   C14S11692   3.554   5.915   5.895  0.3923  0.7125 -0.0792
  113OSM   H14S11693   3.486   5.879   5.815  0.1854  0.0606  0.3813
  113OSM   H14T11694   3.519   6.019   5.912  2.9885  1.6392  0.0788
  113OSM   C15S11695   3.544   5.844   6.035 -0.4416 -0.8562  0.3279
  113OSM   H15S11696   3.592   5.914   6.107  0.9868 -0.2868 -1.1363
  113OSM   H15T11697   3.602   5.750   6.021 -0.2669 -0.4251 -2.2933
  113OSM   C16S11698   3.406   5.800   6.077 -0.1014 -0.2832 -0.2851
  113OSM   H16S11699   3.335   5.885   6.074  1.3085  1.0714  2.0058
  113OSM   H16T11700   3.404   5.781   6.186 -1.0179 -1.0675 -0.4218
  113OSM   C17S11701   3.350   5.683   5.994 -0.2561 -0.5310 -0.1671
  113OSM   H17S11702   3.422   5.602   6.019 -0.5103 -0.9414 -0.7309
  113OSM   H17T11703   3.363   5.710   5.887  0.4824 -1.6172 -0.3706
  113OSM   C18S11704   3.208   5.646   6.017  0.2070  0.4103 -0.5076
  113OSM   H18S11705   3.145   5.737   6.004 -0.0773  0.1210 -1.2163
  113OSM   H18T11706   3.194   5.602   6.118  1.8700  3.0096  0.9553
  113OSM   H18U11707   3.171   5.574   5.941 -2.0673 -0.5824  1.3889
  113OSM    C1F11708   3.697   6.267   6.199 -0.5266 -0.4903  0.0679
  113OSM     OF11709   3.764   6.371   6.203  0.6336 -0.1213  0.1305
  113OSM    C2F11710   3.574   6.245   6.115  0.4006 -0.6992 -0.3183
  113OSM    H2F11711   3.479   6.259   6.171 -0.7182 -0.0384 -2.2623
  113OSM    H2G11712   3.566   6.140   6.080  4.0303 -1.6934  1.3742
  113OSM    C3F11713   3.570   6.334   5.985  0.2831  0.5302 -1.0391
  113OSM    H3F11714   3.667   6.300   5.942 -0.0777 -3.1689  0.7128
  113OSM    H3G11715   3.570   6.440   6.017  2.2319  0.2985 -0.1087
  113OSM    C4F11716   3.451   6.306   5.891 -0.7980 -0.2248  0.0708
  113OSM    H4F11717   3.345   6.303   5.924 -0.8528  1.1866  0.0879
  113OSM    H4G11718   3.459   6.205   5.846 -0.5744 -0.2214  0.1043
  113OSM    C5F11719   3.460   6.394   5.768  0.2450 -0.4443  0.6118
  113OSM    H5F11720   3.556   6.392   5.713 -0.6697  1.4007 -1.2163
  113OSM    H5G11721   3.456   6.498   5.809  2.6933  0.2167 -0.6302
  113OSM    C6F11722   3.343   6.369   5.667  0.7655 -0.2246  0.1789
  113OSM    H6F11723   3.248   6.363   5.724 -0.2377 -1.9703 -1.5169
  113OSM    H6G11724   3.344   6.267   5.622  1.6912  0.1008 -0.5723
  113OSM    C7F11725   3.337   6.463   5.546 -0.1011 -0.0705  0.1135
  113OSM    H7F11726   3.434   6.470   5.493  0.4298 -0.7262  0.9693
  113OSM    H7G11727   3.295   6.559   5.583 -0.2511  0.0212 -0.2905
  113OSM    C8F11728   3.230   6.419   5.441  0.6409  0.4939 -0.3622
  113OSM    H8F11729   3.210   6.507   5.376 -2.1072 -0.1775 -0.5212
  113OSM    H8G11730   3.132   6.404   5.491  0.0711 -1.8905 -2.0275
  113OSM    C9F11731   3.263   6.291   5.368  0.3269 -0.1076  0.1676
  113OSM    H9F11732   3.254   6.203   5.433 -1.4844 -0.5786 -0.6454
  113OSM   C10F11733   3.294   6.276   5.237 -0.0130  0.0916  0.4042
  113OSM   H10F11734   3.317   6.174   5.201 -2.8421 -0.6710  0.4691
  113OSM   C11F11735   3.311   6.388   5.135  0.3835 -0.1029 -0.0599
  113OSM   H11F11736   3.415   6.427   5.143  0.3761 -0.2404  0.8143
  113OSM   H11G11737   3.244   6.477   5.147  0.3255 -0.0276 -0.8695
  113OSM   C12F11738   3.290   6.346   4.992  0.0969 -0.3987  0.3230
  113OSM   H12F11739   3.261   6.425   4.918 -0.2550 -1.6976 -0.9735
  113OSM   H12G11740   3.200   6.281   4.984 -0.8462  1.0663 -3.6355
  113OSM   C13F11741   3.412   6.274   4.941  0.6375  0.2688  0.0319
  113OSM   H13F11742   3.428   6.190   5.011 -2.4639  0.1740  0.7824
  113OSM   H13G11743   3.486   6.355   4.958 -1.8886  2.4104  1.6669
  113OSM   C14F11744   3.404   6.222   4.796  0.3619  0.0724  1.4859
  113OSM   H14F11745   3.451   6.298   4.731  0.9157 -1.4360  0.0675
  113OSM   H14G11746   3.298   6.216   4.764  1.0656  0.0051 -1.0045
  113OSM   C15F11747   3.465   6.079   4.771 -0.5393  0.4900  0.0027
  113OSM   H15F11748   3.446   6.049   4.666 -0.2806  3.9671 -1.1546
  113OSM   H15G11749   3.411   6.008   4.837 -1.1892  1.2062  0.2560
  113OSM   C16F11750   3.618   6.073   4.813 -0.5974 -0.6191  0.7288
  113OSM   H16F11751   3.617   6.108   4.919 -0.5518  1.4078  0.1111
  113OSM   H16G11752   3.668   6.151   4.750 -2.1031 -0.3815 -0.2208
  113OSM   C17F11753   3.667   5.932   4.794  0.1201  0.1449 -0.0677
  113OSM   H17F11754   3.614   5.892   4.704  1.0352  3.0920 -2.0819
  113OSM   H17G11755   3.633   5.871   4.880  0.1721 -1.6315 -1.2495
  113OSM   C18F11756   3.819   5.920   4.780  0.4374 -0.5663  0.0721
  113OSM   H18F11757   3.839   5.811   4.774 -3.1575 -1.3583  0.1995
  113OSM   H18G11758   3.859   5.961   4.875  1.4273  1.9947 -1.3680
  113OSM   H18H11759   3.858   5.977   4.693 -0.1993 -1.4809 -0.8439
  114OSM      N11760   1.787   3.463   6.999 -0.7656  0.5548 -0.1489
  114OSM    C1511761   1.915   3.379   6.999  0.0834 -0.2428 -0.5677
  114OSM   H15A11762   1.911   3.293   7.064 -0.7566  0.5416  0.4567
  114OSM   H15B11763   2.007   3.421   7.038 -0.2831 -1.4278  1.7432
  114OSM   H15C11764   1.928   3.327   6.905  0.5645 -0.5533 -0.3323
  114OSM    C1411765   1.676   3.366   6.994 -0.8250 -1.0091 -0.4861
  114OSM   H14A11766   1.580   3.414   7.004 -0.2558  0.5057 -1.8876
  114OSM   H14B11767   1.680   3.288   7.068 -0.0074  0.4534  1.0972
  114OSM   H14C11768   1.680   3.316   6.898 -0.2970 -1.0826 -0.4262
  114OSM    C1311769   1.774   3.541   7.125  0.1813  0.5104  0.0507
  114OSM   H13A11770   1.681   3.596   7.128  0.3510  0.7855  2.9537
  114OSM   H13B11771   1.859   3.605   7.141  0.4227  0.3925 -0.6957
  114OSM   H13C11772   1.770   3.479   7.213  2.0471  1.0774  0.5753
  114OSM    C1211773   1.777   3.554   6.874 -0.2034 -0.2490 -0.0350
  114OSM   H12A11774   1.685   3.608   6.892 -2.0845 -2.7312 -1.5855
  114OSM   H12B11775   1.751   3.494   6.789 -1.6444 -1.4435  1.1863
  114OSM    C1111776   1.892   3.656   6.856  0.0695  0.5352 -0.4498
  114OSM   H11A11777   1.975   3.601   6.807  0.3795  1.1426 -0.6074
  114OSM   H11B11778   1.923   3.688   6.957  0.3137 -1.3532  0.1068
  114OSM      P11779   1.925   3.860   6.706  0.0015  0.4312 -0.1794
  114OSM    O1311780   1.842   3.938   6.608  0.5575  0.3072  0.4661
  114OSM    O1411781   2.009   3.923   6.807  0.4873 -0.6205 -0.3822
  114OSM    O1111782   2.027   3.776   6.628 -0.8736  0.7362  0.3271
  114OSM    O1211783   1.833   3.761   6.779  0.5048 -0.0117 -0.7424
  114OSM    C1S11784   2.005   3.722   6.492  0.7994  0.2071 -0.4919
  114OSM    H1S11785   1.902   3.748   6.460 -0.1604  1.4309  3.0806
  114OSM    H1T11786   2.020   3.612   6.496 -1.9189 -0.3170 -2.2399
  114OSM     NF11787   2.093   3.729   6.267 -0.1129  0.1417  0.9264
  114OSM    HNF11788   2.139   3.641   6.258  3.4683  1.8115  1.1498
  114OSM    C2S11789   2.115   3.783   6.401  0.3740  0.4143  0.3037
  114OSM    H2S11790   2.111   3.893   6.388 -1.2157  0.5804  1.9080
  114OSM    C3S11791   2.260   3.751   6.454 -0.3523  0.2900 -0.0077
  114OSM    H3S11792   2.267   3.645   6.485 -1.1985  0.5470  1.1352
  114OSM     O311793   2.315   3.821   6.566 -0.5456 -0.0403 -0.0263
  114OSM    HO311794   2.242   3.876   6.596  0.0445  0.2813  0.8430
  114OSM    C4S11795   2.358   3.769   6.343 -0.0534 -0.0415 -0.2226
  114OSM    H4S11796   2.388   3.870   6.312 -0.4835  0.3068  0.4770
  114OSM    C5S11797   2.426   3.676   6.276  0.3656  0.4341 -0.4675
  114OSM    H5S11798   2.419   3.570   6.304 -0.3918  0.5987  0.0051
  114OSM    C6S11799   2.523   3.715   6.169  0.5607 -0.4664  0.0466
  114OSM    H6S11800   2.613   3.649   6.173  1.7206  0.9755 -0.9108
  114OSM    H6T11801   2.550   3.823   6.170 -4.1916  0.9744 -1.7993
  114OSM    C7S11802   2.444   3.701   6.038  0.5131  0.4540 -0.1688
  114OSM    H7S11803   2.359   3.772   6.033 -0.9997 -1.3808 -1.7258
  114OSM    H7T11804   2.396   3.601   6.048 -1.3797  1.4108  0.9406
  114OSM    C8S11805   2.542   3.715   5.919  0.0488  0.0924  0.4195
  114OSM    H8S11806   2.618   3.634   5.913  1.5166  1.5204 -1.7401
  114OSM    H8T11807   2.584   3.816   5.939  1.3200 -0.5724  1.2309
  114OSM    C9S11808   2.469   3.708   5.788 -0.6651  0.3342 -0.4796
  114OSM    H9S11809   2.394   3.789   5.781 -1.3974 -0.3473 -0.6334
  114OSM    H9T11810   2.410   3.614   5.790 -0.2131  0.0546  0.0260
  114OSM   C10S11811   2.561   3.701   5.664  0.2948  0.1815 -0.0064
  114OSM   H10S11812   2.635   3.621   5.687  0.8358  1.4811  3.4298
  114OSM   H10T11813   2.605   3.802   5.652 -4.1316  2.2856 -0.3821
  114OSM   C11S11814   2.483   3.664   5.534  0.2281  0.3422 -0.4486
  114OSM   H11S11815   2.410   3.747   5.524  1.7738  1.7097 -0.7793
  114OSM   H11T11816   2.433   3.568   5.559  0.0747  0.3961 -0.5456
  114OSM   C12S11817   2.574   3.659   5.414  0.6507 -0.2332 -0.2594
  114OSM   H12S11818   2.638   3.572   5.442 -0.6881 -1.1783 -0.0616
  114OSM   H12T11819   2.634   3.751   5.398 -0.2016  0.3069 -0.4047
  114OSM   C13S11820   2.501   3.624   5.284 -0.5091 -0.4340 -0.1505
  114OSM   H13S11821   2.427   3.547   5.317 -1.4681  0.5818  0.1279
  114OSM   H13T11822   2.573   3.574   5.216  0.6561 -0.8704  1.3557
  114OSM   C14S11823   2.427   3.743   5.213 -0.5937  0.0199  0.3486
  114OSM   H14S11824   2.502   3.812   5.169 -0.0613 -1.5502 -1.3521
  114OSM   H14T11825   2.361   3.790   5.288 -0.0204  0.6243  0.4825
  114OSM   C15S11826   2.328   3.683   5.109 -0.0044 -0.5970 -0.3624
  114OSM   H15S11827   2.307   3.576   5.129  0.5107 -0.6844 -0.2922
  114OSM   H15T11828   2.382   3.665   5.014  0.8532 -1.4111  0.2654
  114OSM   C16S11829   2.203   3.762   5.096 -0.3764  0.2815  0.2951
  114OSM   H16S11830   2.206   3.871   5.072 -3.0365  0.6239  1.0979
  114OSM   H16T11831   2.145   3.767   5.191 -2.3396 -1.1184 -0.7463
  114OSM   C17S11832   2.112   3.704   4.993 -0.1198  0.0533 -0.0639
  114OSM   H17S11833   2.018   3.761   5.006  0.4181  0.6483  1.3663
  114OSM   H17T11834   2.089   3.596   5.009 -1.3287  0.1780 -0.7861
  114OSM   C18S11835   2.174   3.722   4.851 -0.2241  0.2748 -0.2871
  114OSM   H18S11836   2.198   3.827   4.825  0.3470 -0.1066 -1.3706
  114OSM   H18T11837   2.099   3.683   4.780 -0.6743  2.1338 -0.8784
  114OSM   H18U11838   2.262   3.654   4.842 -1.5579 -1.4504 -0.8146
  114OSM    C1F11839   1.993   3.766   6.184 -0.2956  0.1142 -0.1905
  114OSM     OF11840   1.908   3.847   6.229  0.0472 -0.4534 -0.0332
  114OSM    C2F11841   1.992   3.694   6.047  0.5086  0.0915  0.0898
  114OSM    H2F11842   1.960   3.589   6.063  1.7720 -0.4440 -0.6901
  114OSM    H2G11843   2.099   3.699   6.016  1.1242 -1.0031  1.8704
  114OSM    C3F11844   1.896   3.777   5.955  0.2852 -0.0337  0.5094
  114OSM    H3F11845   1.920   3.886   5.954 -1.4945  0.3811  0.7288
  114OSM    H3G11846   1.789   3.765   5.983  0.5259 -1.3963  0.9163
  114OSM    C4F11847   1.914   3.723   5.808 -0.0727 -0.0976  0.2969
  114OSM    H4F11848   1.901   3.613   5.806  1.5734 -0.3335  0.8648
  114OSM    H4G11849   2.013   3.752   5.768 -0.2746  0.8359  0.4594
  114OSM    C5F11850   1.810   3.793   5.725 -0.1199 -0.2007 -0.3840
  114OSM    H5F11851   1.838   3.900   5.708 -0.6966  0.0538  0.2235
  114OSM    H5G11852   1.714   3.784   5.779  0.9646 -2.8125  1.2856
  114OSM    C6F11853   1.794   3.727   5.586 -0.8795  0.1989  0.4173
  114OSM    H6F11854   1.688   3.739   5.555 -1.0475  1.3580  1.3615
  114OSM    H6G11855   1.816   3.620   5.603 -1.6431  0.1336  1.0322
  114OSM    C7F11856   1.885   3.787   5.478  0.1975 -0.1217 -0.5205
  114OSM    H7F11857   1.967   3.717   5.450  1.6988  1.9481 -1.5600
  114OSM    H7G11858   1.925   3.885   5.512  2.1529 -0.5686 -1.3352
  114OSM    C8F11859   1.808   3.825   5.353 -0.6112 -0.2875 -0.5105
  114OSM    H8F11860   1.868   3.888   5.284 -0.0111  0.5289  0.7157
  114OSM    H8G11861   1.712   3.881   5.359 -0.2043  0.7734 -2.7340
  114OSM    C9F11862   1.773   3.694   5.277 -0.1203  0.3923  0.3242
  114OSM    H9F11863   1.836   3.613   5.316 -0.8138 -0.7884 -0.9446
  114OSM   C10F11864   1.705   3.675   5.163  0.3192  0.6386  0.0029
  114OSM   H10F11865   1.690   3.573   5.125 -0.5337  0.3060  1.1939
  114OSM   C11F11866   1.623   3.772   5.090 -0.7786 -0.2805  0.5903
  114OSM   H11F11867   1.636   3.873   5.136  0.2916 -0.1799  0.1105
  114OSM   H11G11868   1.513   3.761   5.082 -0.6113 -1.0206 -0.8268
  114OSM   C12F11869   1.671   3.785   4.945  0.2323  0.2149 -0.3770
  114OSM   H12F11870   1.780   3.808   4.949  0.6752 -1.8776  1.3149
  114OSM   H12G11871   1.623   3.868   4.889 -1.3027 -0.7543 -0.5309
  114OSM   C13F11872   1.652   3.659   4.853  0.5876 -0.2855 -0.2779
  114OSM   H13F11873   1.544   3.658   4.824 -0.3394  3.0997  2.3975
  114OSM   H13G11874   1.695   3.566   4.895  1.2298 -0.1058 -0.5373
  114OSM   C14F11875   1.724   3.685   4.723 -0.9053 -0.4696  0.2079
  114OSM   H14F11876   1.830   3.682   4.754 -0.4420 -3.1602 -1.2611
  114OSM   H14G11877   1.688   3.786   4.694 -2.2338 -0.7054  0.9535
  114OSM   C15F11878   1.691   3.589   4.610  0.1152  0.9659 -0.7611
  114OSM   H15F11879   1.639   3.648   4.532 -1.6487 -1.3624 -1.4772
  114OSM   H15G11880   1.609   3.529   4.655  0.7661  1.0852  0.6524
  114OSM   C16F11881   1.808   3.504   4.569 -0.6284 -0.3562 -0.5813
  114OSM   H16F11882   1.787   3.418   4.501  0.7592 -1.4299  0.2991
  114OSM   H16G11883   1.860   3.450   4.650  0.6464  0.3522 -0.9083
  114OSM   C17F11884   1.916   3.580   4.502 -0.4837  0.0531 -0.2934
  114OSM   H17F11885   1.934   3.684   4.535  1.1402  0.6610 -2.7836
  114OSM   H17G11886   1.883   3.601   4.398 -0.5514  0.2889 -0.2255
  114OSM   C18F11887   2.055   3.509   4.499  0.0209  0.3474  0.2156
  114OSM   H18F11888   2.079   3.491   4.606 -1.1104 -1.4686  0.2225
  114OSM   H18G11889   2.135   3.566   4.447  2.2751 -1.0825  1.8905
  114OSM   H18H11890   2.047   3.414   4.441  1.9144 -0.4521  1.1548
  115OSM      N11891   1.675   0.522   6.722 -0.3463  0.1623 -0.3006
  115OSM    C1511892   1.549   0.601   6.728  1.2275  0.1427 -0.1609
  115OSM   H15A11893   1.529   0.660   6.640 -0.9116  0.3174  0.3819
  115OSM   H15B11894   1.551   0.667   6.813  1.5015 -1.9518  1.5556
  115OSM   H15C11895   1.458   0.543   6.724 -0.0592  2.1248 -0.8597
  115OSM    C1411896   1.688   0.453   6.855 -0.1444 -0.0866  0.1139
  115OSM   H14A11897   1.776   0.392   6.859  0.4743  0.8407  1.2895
  115OSM   H14B11898   1.602   0.391   6.875 -0.2087  0.1457  0.5680
  115OSM   H14C11899   1.705   0.526   6.933  2.5723  0.2484 -0.7154
  115OSM    C1311900   1.662   0.413   6.620 -0.0322  0.5331  1.1341
  115OSM   H13A11901   1.748   0.347   6.621  1.4764  1.9537 -4.0615
  115OSM   H13B11902   1.662   0.444   6.516 -2.3520  0.3133  1.0178
  115OSM   H13C11903   1.574   0.354   6.641 -0.6668  0.9346 -0.2526
  115OSM    C1211904   1.789   0.612   6.698 -0.1299  0.6800 -0.7022
  115OSM   H12A11905   1.874   0.545   6.697 -1.2767 -0.9554  1.7041
  115OSM   H12B11906   1.804   0.684   6.776  1.2831  0.5356 -0.8243
  115OSM    C1111907   1.799   0.684   6.567 -0.2410 -0.0782 -0.3622
  115OSM   H11A11908   1.708   0.748   6.560 -1.3237 -1.4170  0.8550
  115OSM   H11B11909   1.796   0.617   6.478 -0.7086  0.4508 -0.7558
  115OSM      P11910   1.937   0.895   6.645 -0.0459 -0.2556  0.3218
  115OSM    O1311911   1.913   0.861   6.786  0.2199 -0.3854 -0.2191
  115OSM    O1411912   2.071   0.944   6.617 -0.5334 -0.0609  1.1377
  115OSM    O1111913   1.829   0.994   6.606 -0.5966 -0.1124 -0.1109
  115OSM    O1211914   1.916   0.761   6.559  0.5476  0.0405 -0.2126
  115OSM    C1S11915   1.846   1.070   6.480 -0.2121 -1.0079  0.0271
  115OSM    H1S11916   1.833   1.010   6.388  0.8080  0.3889 -1.0733
  115OSM    H1T11917   1.942   1.127   6.477  0.5486 -2.2609 -0.0901
  115OSM     NF11918   1.752   1.250   6.333  0.3341 -0.1334  0.2491
  115OSM    HNF11919   1.783   1.345   6.330  1.3248 -0.4542 -0.1398
  115OSM    C2S11920   1.740   1.186   6.458 -0.0740 -0.2506 -0.1482
  115OSM    H2S11921   1.641   1.136   6.453  0.2007 -0.7795 -5.0545
  115OSM    C3S11922   1.748   1.287   6.584  0.6144  0.0078  0.4837
  115OSM    H3S11923   1.852   1.326   6.577  1.2420 -1.7496 -0.8870
  115OSM     O311924   1.718   1.234   6.710 -0.1797  0.3409 -0.3016
  115OSM    HO311925   1.707   1.139   6.701  3.5303 -0.3788  0.7623
  115OSM    C4S11926   1.648   1.399   6.547 -0.9296 -0.1405  0.0236
  115OSM    H4S11927   1.705   1.464   6.479 -0.7647 -1.6334 -1.3378
  115OSM    C5S11928   1.517   1.422   6.571  0.2432  0.2430 -0.5222
  115OSM    H5S11929   1.460   1.356   6.639 -0.9033  0.9548 -0.7617
  115OSM    C6S11930   1.436   1.530   6.517  0.4092  0.0569  0.4193
  115OSM    H6S11931   1.395   1.586   6.604  1.0109 -1.0038  1.4188
  115OSM    H6T11932   1.348   1.486   6.466  0.1333 -0.2190  1.1228
  115OSM    C7S11933   1.496   1.633   6.416  0.0952  0.0857  0.7800
  115OSM    H7S11934   1.594   1.669   6.455 -1.6140  3.9984  1.9602
  115OSM    H7T11935   1.425   1.718   6.420  0.8739  0.7125  2.1275
  115OSM    C8S11936   1.513   1.572   6.283  0.6116  0.0765 -0.7051
  115OSM    H8S11937   1.417   1.525   6.252  0.0922  1.7471 -1.7545
  115OSM    H8T11938   1.585   1.487   6.283  0.0213 -0.4345 -0.0811
  115OSM    C9S11939   1.559   1.670   6.176 -0.3278 -0.1335 -0.8596
  115OSM    H9S11940   1.662   1.694   6.208 -0.3218 -0.7659 -0.3865
  115OSM    H9T11941   1.507   1.768   6.184 -0.9136 -0.5733  1.2395
  115OSM   C10S11942   1.554   1.613   6.036  0.3552 -0.4481  0.1569
  115OSM   H10S11943   1.452   1.593   5.998  0.3683 -2.4573  1.0647
  115OSM   H10T11944   1.618   1.523   6.034  0.0195 -0.6735 -0.5042
  115OSM   C11S11945   1.613   1.709   5.934 -0.2633  0.1267  0.8208
  115OSM   H11S11946   1.719   1.735   5.955 -0.3111  1.3170 -0.2341
  115OSM   H11T11947   1.547   1.799   5.926 -1.3642 -0.5543  1.9023
  115OSM   C12S11948   1.603   1.661   5.791 -0.3939  0.6030  0.1896
  115OSM   H12S11949   1.502   1.620   5.772 -0.2014 -0.0619  0.5645
  115OSM   H12T11950   1.686   1.591   5.770  0.3305  0.7110  2.4186
  115OSM   C13S11951   1.620   1.785   5.689  0.0278 -0.3641  0.1158
  115OSM   H13S11952   1.718   1.835   5.703 -0.1976  0.1774 -0.2129
  115OSM   H13T11953   1.541   1.860   5.708 -2.0987 -2.5071  0.0996
  115OSM   C14S11954   1.615   1.728   5.553 -0.4234 -1.0925 -0.0887
  115OSM   H14S11955   1.507   1.703   5.540 -0.9776  0.7423  0.6072
  115OSM   H14T11956   1.673   1.634   5.543  5.0909  1.6954  1.7010
  115OSM   C15S11957   1.660   1.817   5.440 -0.7309  0.0362 -1.3329
  115OSM   H15S11958   1.757   1.865   5.463 -1.0993 -0.4848  1.8215
  115OSM   H15T11959   1.579   1.892   5.432 -0.8812  0.4665  2.2477
  115OSM   C16S11960   1.680   1.744   5.308 -0.4394  0.3344  0.2282
  115OSM   H16S11961   1.628   1.645   5.311  1.6772 -0.8247  0.3216
  115OSM   H16T11962   1.787   1.729   5.286 -1.0050 -1.1917 -1.7580
  115OSM   C17S11963   1.608   1.827   5.198 -0.3507  0.2415  0.6370
  115OSM   H17S11964   1.648   1.930   5.199 -0.2211  0.2080  2.6913
  115OSM   H17T11965   1.501   1.835   5.228 -0.3492 -0.7223  0.9602
  115OSM   C18S11966   1.642   1.779   5.060  0.1178  0.5695  0.2920
  115OSM   H18S11967   1.751   1.762   5.051  0.5924  3.6340 -1.0986
  115OSM   H18T11968   1.616   1.852   4.980  0.1697 -0.0761 -0.3214
  115OSM   H18U11969   1.590   1.684   5.035  0.0159  0.7812 -0.3121
  115OSM    C1F11970   1.715   1.175   6.225  0.4226 -0.3952 -0.5351
  115OSM     OF11971   1.648   1.072   6.238  0.0625 -0.3311  0.3375
  115OSM    C2F11972   1.743   1.229   6.090 -0.1335 -0.9270 -0.4788
  115OSM    H2F11973   1.842   1.185   6.063  1.1700  2.4776 -1.8049
  115OSM    H2G11974   1.752   1.339   6.079  2.2470 -1.1628 -1.4960
  115OSM    C3F11975   1.645   1.183   5.977 -0.1717 -0.0611 -1.3037
  115OSM    H3F11976   1.541   1.205   6.009  0.0135 -1.7914  0.7227
  115OSM    H3G11977   1.654   1.072   5.967  1.5563 -0.1123  0.2313
  115OSM    C4F11978   1.648   1.259   5.840 -0.2090  0.0682  0.1734
  115OSM    H4F11979   1.733   1.223   5.778 -1.2214  1.8902 -2.4049
  115OSM    H4G11980   1.657   1.368   5.857 -0.5671  0.7146 -3.2271
  115OSM    C5F11981   1.524   1.225   5.752  0.2227  0.2842  0.4423
  115OSM    H5F11982   1.435   1.265   5.806 -0.1666 -0.2124  0.1727
  115OSM    H5G11983   1.512   1.116   5.763 -1.2177  0.3416 -0.3617
  115OSM    C6F11984   1.542   1.272   5.607 -0.3348 -0.8733  0.4832
  115OSM    H6F11985   1.641   1.235   5.575  0.2106 -0.6133  1.8374
  115OSM    H6G11986   1.546   1.383   5.607 -1.4502 -0.7617 -1.8467
  115OSM    C7F11987   1.430   1.236   5.507 -0.0999 -0.6383  0.3700
  115OSM    H7F11988   1.330   1.268   5.542 -0.1075 -0.5953  0.3086
  115OSM    H7G11989   1.432   1.127   5.486  0.6709 -0.4226 -0.7501
  115OSM    C8F11990   1.444   1.299   5.362  0.2735  0.2007 -0.5572
  115OSM    H8F11991   1.373   1.244   5.297 -1.5110  0.3951  1.1507
  115OSM    H8G11992   1.550   1.273   5.340  0.5081 -0.8467  1.5364
  115OSM    C9F11993   1.416   1.449   5.357 -0.5784  1.0065  0.1359
  115OSM    H9F11994   1.482   1.511   5.419 -1.0143  0.7389  0.8888
  115OSM   C10F11995   1.323   1.517   5.294  0.0472  0.0589  0.0731
  115OSM   H10F11996   1.330   1.627   5.293  0.0931  0.1106  2.2458
  115OSM   C11F11997   1.223   1.466   5.197 -0.5017  0.2785 -0.6909
  115OSM   H11F11998   1.135   1.532   5.182 -2.9178 -1.4035  4.0640
  115OSM   H11G11999   1.178   1.371   5.234  0.7728  0.2330  0.8074
  115OSM   C12F12000   1.299   1.433   5.063  0.6799  0.7498  0.0948
  115OSM   H12F12001   1.223   1.368   5.016  0.3435  2.2109 -1.4763
  115OSM   H12G12002   1.380   1.358   5.073  0.2753  0.3814  0.6647
  115OSM   C13F12003   1.329   1.548   4.972  0.4850 -0.4306  0.0666
  115OSM   H13F12004   1.381   1.627   5.030  1.1845 -1.0955  0.3581
  115OSM   H13G12005   1.237   1.599   4.937  1.3097 -0.1118 -1.8078
  115OSM   C14F12006   1.432   1.524   4.859  0.0150  0.6199 -0.2340
  115OSM   H14F12007   1.412   1.422   4.820  0.6088  0.7487 -0.8995
  115OSM   H14G12008   1.531   1.510   4.907 -0.1367 -0.5894 -0.2503
  115OSM   C15F12009   1.442   1.616   4.743 -0.0451 -0.3187  0.2060
  115OSM   H15F12010   1.510   1.576   4.665  0.5833  2.3924 -0.7644
  115OSM   H15G12011   1.479   1.716   4.776 -0.1553 -0.4509  0.7387
  115OSM   C16F12012   1.301   1.610   4.665 -0.0564 -0.1245  0.2113
  115OSM   H16F12013   1.309   1.680   4.579 -1.1949 -1.9041 -1.4143
  115OSM   H16G12014   1.221   1.641   4.735 -0.4044  1.4944 -0.8502
  115OSM   C17F12015   1.270   1.475   4.595  1.1062  0.3863  0.7488
  115OSM   H17F12016   1.161   1.479   4.574  1.1004 -1.0686  0.4363
  115OSM   H17G12017   1.282   1.385   4.658 -2.6393 -0.7217  0.0961
  115OSM   C18F12018   1.332   1.450   4.456  0.2173 -0.8318  0.8239
  115OSM   H18F12019   1.308   1.531   4.384 -1.8195 -1.6075  0.5560
  115OSM   H18G12020   1.294   1.354   4.414 -0.9197 -0.7112  1.5297
  115OSM   H18H12021   1.443   1.439   4.458  0.3607 -0.0399 -0.8837
  116OSM      N12022   6.139   5.406   6.615  0.0878  0.2320 -0.1869
  116OSM    C1512023   6.207   5.495   6.523  0.2907 -0.0863  0.6307
  116OSM   H15A12024   6.262   5.431   6.456 -1.2096  0.1959 -0.9512
  116OSM   H15B12025   6.271   5.565   6.575 -1.5786  0.8091  1.8328
  116OSM   H15C12026   6.140   5.555   6.463 -0.2065 -0.7276  0.5364
  116OSM    C1412027   6.246   5.357   6.706  0.3530  0.1839 -1.0658
  116OSM   H14A12028   6.204   5.313   6.795 -0.6807  0.9704 -1.1381
  116OSM   H14B12029   6.318   5.433   6.731  0.5956  0.0201 -1.2651
  116OSM   H14C12030   6.300   5.274   6.663  0.5273  0.3532 -1.1733
  116OSM    C1312031   6.032   5.475   6.694  0.5708  0.1142  0.1922
  116OSM   H13A12032   5.960   5.518   6.626 -1.0989  0.5293  2.1342
  116OSM   H13B12033   6.074   5.556   6.751 -0.7323  0.5834  0.5128
  116OSM   H13C12034   5.978   5.412   6.764  0.2731 -0.5404 -0.6053
  116OSM    C1212035   6.074   5.286   6.545  0.3232  0.6920  0.1116
  116OSM   H12A12036   6.032   5.216   6.616  1.1511  1.1383  1.0787
  116OSM   H12B12037   6.159   5.245   6.492  0.9042  2.5726 -0.4854
  116OSM    C1112038   5.956   5.315   6.447  0.0207 -0.0769 -0.7229
  116OSM   H11A12039   5.938   5.223   6.387  4.2240 -0.3891 -1.8257
  116OSM   H11B12040   5.981   5.404   6.386  2.9962 -0.9408 -0.9207
  116OSM      P12041   5.747   5.265   6.598 -0.6382 -0.2591  0.0880
  116OSM    O1312042   5.820   5.159   6.668 -0.2230 -0.0761  0.6661
  116OSM    O1412043   5.654   5.351   6.671 -0.0228 -0.5215  0.1024
  116OSM    O1112044   5.674   5.207   6.474 -0.2195  0.0702  0.7016
  116OSM    O1212045   5.853   5.360   6.524 -0.2110 -0.2813  0.5774
  116OSM    C1S12046   5.587   5.294   6.396 -0.2666 -0.2625  0.2635
  116OSM    H1S12047   5.650   5.374   6.352  0.9341 -0.8796  0.8114
  116OSM    H1T12048   5.507   5.338   6.460  0.0016  0.9330 -0.1922
  116OSM     NF12049   5.474   5.314   6.175  0.3134  0.2081 -0.3884
  116OSM    HNF12050   5.381   5.346   6.193  0.4887 -0.2621  1.5348
  116OSM    C2S12051   5.520   5.220   6.274  0.3348 -0.6575  0.0560
  116OSM    H2S12052   5.603   5.157   6.235  1.0663 -1.0506  2.1285
  116OSM    C3S12053   5.405   5.126   6.323  0.0735 -0.1605 -0.3222
  116OSM    H3S12054   5.321   5.188   6.360  0.8654  1.2116 -0.7570
  116OSM     O312055   5.438   5.032   6.428  0.3980 -0.2267 -0.2533
  116OSM    HO312056   5.513   5.076   6.468 -0.2715  1.3467 -0.6472
  116OSM    C4S12057   5.375   5.032   6.204  0.6935 -0.6003  0.6038
  116OSM    H4S12058   5.462   4.993   6.149  1.7085  0.8052  1.1210
  116OSM    C5S12059   5.248   5.009   6.159 -0.6680  0.0643 -0.0751
  116OSM    H5S12060   5.159   5.058   6.200  0.1589  2.4725 -1.0283
  116OSM    C6S12061   5.234   4.932   6.030  0.4017  0.2299  0.3339
  116OSM    H6S12062   5.153   4.856   6.042 -0.8466  1.1846 -1.4828
  116OSM    H6T12063   5.325   4.881   5.993 -0.8943 -1.8217 -0.1609
  116OSM    C7S12064   5.204   5.013   5.903  0.0577  0.6028 -0.5139
  116OSM    H7S12065   5.297   5.067   5.873  1.7854 -2.6208 -1.3563
  116OSM    H7T12066   5.114   5.078   5.908 -0.5592 -0.2221 -0.7365
  116OSM    C8S12067   5.191   4.924   5.775 -0.0014  0.3923  0.3340
  116OSM    H8S12068   5.090   4.878   5.770  0.7769 -1.8153  2.9003
  116OSM    H8T12069   5.253   4.832   5.772  0.1168  0.4825  0.0076
  116OSM    C9S12070   5.220   5.009   5.652  0.0472 -0.1726 -0.5749
  116OSM    H9S12071   5.321   5.052   5.661  1.0710 -2.4476 -0.4949
  116OSM    H9T12072   5.137   5.083   5.650 -0.9486 -0.9716  3.2766
  116OSM   C10S12073   5.234   4.922   5.528  0.1614 -0.0009  0.1823
  116OSM   H10S12074   5.152   4.848   5.533  0.2215  0.0191  2.6320
  116OSM   H10T12075   5.329   4.865   5.536 -0.8432 -2.1125 -1.8421
  116OSM   C11S12076   5.231   5.011   5.406  0.5673 -0.5294 -1.4093
  116OSM   H11S12077   5.311   5.088   5.410  1.1943 -1.2160  2.3278
  116OSM   H11T12078   5.146   5.083   5.405  0.9096 -0.1138 -1.0864
  116OSM   C12S12079   5.227   4.935   5.273 -0.3137 -0.6766 -0.5719
  116OSM   H12S12080   5.130   4.882   5.268 -0.1443 -1.0797  0.2180
  116OSM   H12T12081   5.306   4.857   5.266  1.2762  0.8633 -0.5510
  116OSM   C13S12082   5.240   5.024   5.151 -1.3863 -0.1176 -0.7649
  116OSM   H13S12083   5.334   5.080   5.166 -0.5457 -1.5909 -0.2766
  116OSM   H13T12084   5.155   5.096   5.151 -1.3558  0.0276  2.0710
  116OSM   C14S12085   5.228   4.941   5.024  0.2498  0.6360 -1.2001
  116OSM   H14S12086   5.129   4.891   5.032  0.5820 -0.0016 -0.9677
  116OSM   H14T12087   5.305   4.862   5.009 -2.1922 -2.1175 -0.3417
  116OSM   C15S12088   5.229   5.031   4.901 -0.1510 -0.0358  1.0365
  116OSM   H15S12089   5.316   5.101   4.907  0.2774 -0.6562  2.4599
  116OSM   H15T12090   5.131   5.084   4.903 -1.2409 -1.9729  2.5288
  116OSM   C16S12091   5.235   4.944   4.770 -0.4361  0.3131  0.4164
  116OSM   H16S12092   5.152   4.871   4.780 -0.4811  0.6259  3.3112
  116OSM   H16T12093   5.326   4.881   4.772  0.3244  1.2172 -1.8246
  116OSM   C17S12094   5.226   5.024   4.639  0.4831 -0.1503 -0.2273
  116OSM   H17S12095   5.311   5.092   4.619  0.7232 -0.3138  0.2243
  116OSM   H17T12096   5.139   5.091   4.657  0.7751  0.2405 -0.2726
  116OSM   C18S12097   5.201   4.933   4.521  0.3858  0.2122 -1.3388
  116OSM   H18S12098   5.201   4.999   4.432 -2.5575 -1.0674 -2.3845
  116OSM   H18T12099   5.099   4.891   4.529 -0.1465  1.7783  2.0728
  116OSM   H18U12100   5.284   4.859   4.522  0.6195  0.4621 -0.5586
  116OSM    C1F12101   5.544   5.388   6.096 -0.6216 -0.0821 -0.4895
  116OSM     OF12102   5.665   5.383   6.089  0.0281  0.1451 -0.1495
  116OSM    C2F12103   5.452   5.475   6.001 -0.1806  0.0462 -0.1839
  116OSM    H2F12104   5.488   5.580   5.998 -0.2103  0.1258  1.4050
  116OSM    H2G12105   5.350   5.489   6.042  0.5411  1.2886  1.2795
  116OSM    C3F12106   5.450   5.414   5.864 -0.1873  0.0517  0.0948
  116OSM    H3F12107   5.392   5.319   5.868 -1.5522  0.8683  0.4124
  116OSM    H3G12108   5.551   5.390   5.824  0.3664  2.2229  0.0612
  116OSM    C4F12109   5.372   5.496   5.760  0.6448  0.9153 -0.2333
  116OSM    H4F12110   5.418   5.596   5.747  0.1327  0.9364 -2.2488
  116OSM    H4G12111   5.265   5.503   5.786  0.5809 -2.0430  0.6388
  116OSM    C5F12112   5.380   5.437   5.617 -0.3688  0.5981  0.0400
  116OSM    H5F12113   5.329   5.339   5.623  2.1825 -1.1341 -3.5571
  116OSM    H5G12114   5.488   5.410   5.613 -0.3251  0.5738  1.0723
  116OSM    C6F12115   5.339   5.533   5.509 -0.4113  0.1522  0.4928
  116OSM    H6F12116   5.394   5.629   5.515 -1.4786  0.8988 -1.1799
  116OSM    H6G12117   5.230   5.548   5.521 -1.1946 -1.7193 -3.0677
  116OSM    C7F12118   5.371   5.467   5.371  0.4754 -0.1553  0.6947
  116OSM    H7F12119   5.346   5.360   5.379 -0.9020  0.0312 -0.7932
  116OSM    H7G12120   5.481   5.483   5.361  0.4373 -1.0928 -2.0932
  116OSM    C8F12121   5.305   5.541   5.254  0.0464 -0.1980 -0.3551
  116OSM    H8F12122   5.345   5.644   5.261 -0.6481 -0.0019  1.1814
  116OSM    H8G12123   5.196   5.523   5.265 -0.0858  0.0961 -1.1448
  116OSM    C9F12124   5.341   5.473   5.125 -0.1136 -0.3756  0.3635
  116OSM    H9F12125   5.448   5.484   5.099  0.5146 -1.3170  2.3709
  116OSM   C10F12126   5.271   5.414   5.029 -0.1760  0.2828  0.6837
  116OSM   H10F12127   5.324   5.377   4.940 -0.8474  1.2081 -0.1265
  116OSM   C11F12128   5.127   5.367   5.045 -0.2432 -0.7978  0.6679
  116OSM   H11F12129   5.084   5.382   5.147 -0.3472 -1.4009  0.7180
  116OSM   H11G12130   5.128   5.258   5.021  0.7774 -0.3192 -1.6898
  116OSM   C12F12131   5.024   5.437   4.956  0.0689  0.2814  0.4563
  116OSM   H12F12132   5.024   5.545   4.981 -1.1659  0.2939  0.4687
  116OSM   H12G12133   4.925   5.392   4.980  0.9649 -3.7647 -2.2871
  116OSM   C13F12134   5.040   5.415   4.804  0.4188 -0.3391 -0.6529
  116OSM   H13F12135   5.069   5.309   4.787  0.9044 -0.4562  0.7117
  116OSM   H13G12136   5.135   5.463   4.769  1.3020 -1.4470  0.1353
  116OSM   C14F12137   4.927   5.441   4.707  0.2555  0.1237 -0.3119
  116OSM   H14F12138   4.899   5.548   4.695  0.3553  0.1398 -0.4059
  116OSM   H14G12139   4.843   5.386   4.753  1.1032  0.6061  1.9619
  116OSM   C15F12140   4.942   5.388   4.560 -0.5148  0.5484 -0.0816
  116OSM   H15F12141   4.954   5.278   4.571  1.9439  0.8350  0.6162
  116OSM   H15G12142   5.030   5.446   4.526  0.0502 -0.5175 -0.4691
  116OSM   C16F12143   4.830   5.426   4.463 -0.2662  0.4494 -0.3458
  116OSM   H16F12144   4.743   5.365   4.493  0.0752 -0.2134 -0.6853
  116OSM   H16G12145   4.869   5.404   4.362  0.3845  2.9022 -0.6946
  116OSM   C17F12146   4.775   5.571   4.474 -0.5056  0.2002 -0.5333
  116OSM   H17F12147   4.861   5.640   4.468 -1.7664  1.7379 -2.4348
  116OSM   H17G12148   4.719   5.580   4.569 -0.1916 -1.3754 -0.1811
  116OSM   C18F12149   4.677   5.597   4.358 -0.1191 -0.8155 -0.2194
  116OSM   H18F12150   4.733   5.635   4.270 -1.1763  1.5390  0.0426
  116OSM   H18G12151   4.604   5.676   4.384  1.3915  0.3058  0.7605
  116OSM   H18H12152   4.616   5.508   4.330  0.7222 -1.2825 -0.6319
  117OSM      N12153   2.655   2.440   6.668  0.0056 -0.2407  0.6442
  117OSM    C1512154   2.560   2.328   6.699  0.1110  0.1998  0.2238
  117OSM   H15A12155   2.466   2.379   6.687 -0.0757 -0.5007 -1.5686
  117OSM   H15B12156   2.570   2.276   6.794  0.0800  0.1417  0.1953
  117OSM   H15C12157   2.569   2.255   6.620 -0.1801 -2.6020  2.5720
  117OSM    C1412158   2.632   2.544   6.767  0.2194  0.2356 -0.2495
  117OSM   H14A12159   2.658   2.509   6.865 -0.2907  0.5923  0.0197
  117OSM   H14B12160   2.533   2.587   6.758 -1.2588 -2.7017  0.8354
  117OSM   H14C12161   2.707   2.619   6.747  0.2654  0.2459 -0.0381
  117OSM    C1312162   2.801   2.404   6.682  0.0828 -0.2578  0.3625
  117OSM   H13A12163   2.853   2.499   6.684 -1.6618  0.7264  1.5842
  117OSM   H13B12164   2.826   2.346   6.595 -0.7731 -2.2221  1.3517
  117OSM   H13C12165   2.825   2.335   6.762  2.8170 -2.4167 -2.0721
  117OSM    C1212166   2.630   2.494   6.529  0.2632  0.0247  0.0298
  117OSM   H12A12167   2.640   2.413   6.458  1.0733  0.0111  0.1497
  117OSM   H12B12168   2.704   2.568   6.504 -0.0741  0.3373 -0.0459
  117OSM    C1112169   2.495   2.571   6.509  0.4345  0.7160 -0.2581
  117OSM   H11A12170   2.411   2.502   6.527 -0.6316  0.9899 -3.4868
  117OSM   H11B12171   2.491   2.585   6.398 -1.7901 -1.5763 -0.5516
  117OSM      P12172   2.359   2.790   6.579 -0.0568  0.1277  0.0282
  117OSM    O1312173   2.253   2.731   6.499  0.2607 -0.4284  0.4933
  117OSM    O1412174   2.318   2.835   6.713 -0.0861 -0.1350  0.1365
  117OSM    O1112175   2.408   2.916   6.504  0.1882  0.5600 -0.0874
  117OSM    O1212176   2.487   2.696   6.583  0.0665 -0.4293  0.3309
  117OSM    C1S12177   2.514   2.921   6.397  1.0204 -0.3588 -0.3784
  117OSM    H1S12178   2.607   2.867   6.425  2.2344  1.2734 -1.1493
  117OSM    H1T12179   2.552   3.025   6.396 -1.7020  0.7102  0.4231
  117OSM     NF12180   2.586   2.887   6.155 -0.8735 -0.0303  0.0547
  117OSM    HNF12181   2.578   2.944   6.074  0.5170  2.2743  1.4165
  117OSM    C2S12182   2.476   2.877   6.253  0.3355 -0.0493 -0.4356
  117OSM    H2S12183   2.441   2.772   6.261 -0.7445  0.3511  0.3254
  117OSM    C3S12184   2.348   2.957   6.204 -0.5082  0.3060  0.1454
  117OSM    H3S12185   2.378   3.064   6.197 -0.8438  0.6724  3.0733
  117OSM     O312186   2.236   2.963   6.289 -0.2529  0.2131 -0.3552
  117OSM    HO312187   2.270   2.943   6.376  0.3305 -0.5509 -0.7406
  117OSM    C4S12188   2.312   2.898   6.065  0.2793  0.5625 -0.0360
  117OSM    H4S12189   2.359   2.942   5.976  1.4444 -1.9497 -0.7572
  117OSM    C5S12190   2.225   2.797   6.041 -0.2204 -0.2606 -0.0098
  117OSM    H5S12191   2.175   2.741   6.122  1.0916 -0.4115  0.7203
  117OSM    C6S12192   2.207   2.748   5.906  0.1139  0.3288  0.7578
  117OSM    H6S12193   2.127   2.674   5.880  1.3389 -0.9222  0.4530
  117OSM    H6T12194   2.302   2.699   5.875 -0.0603 -0.0949  0.8871
  117OSM    C7S12195   2.182   2.846   5.795 -0.3208  0.3593  0.0544
  117OSM    H7S12196   2.257   2.927   5.798  0.9428 -0.7790  0.2781
  117OSM    H7T12197   2.080   2.886   5.814  0.8047  3.6667 -0.2714
  117OSM    C8S12198   2.177   2.783   5.648  0.1311  0.2340 -0.2624
  117OSM    H8S12199   2.139   2.679   5.657  1.3883 -0.3004 -0.9221
  117OSM    H8T12200   2.278   2.782   5.603  0.2568  0.3091  0.0160
  117OSM    C9S12201   2.094   2.861   5.542  0.0953  0.4373  0.1032
  117OSM    H9S12202   2.143   2.959   5.523 -1.3891  0.7075 -2.8918
  117OSM    H9T12203   1.988   2.883   5.566  0.3044 -0.1828  1.7102
  117OSM   C10S12204   2.106   2.785   5.404 -0.7692  0.1414  0.2561
  117OSM   H10S12205   2.038   2.699   5.386  1.1391 -1.1706 -1.0848
  117OSM   H10T12206   2.207   2.739   5.401 -1.1496 -0.8364  1.8203
  117OSM   C11S12207   2.082   2.882   5.286 -0.2354  0.0215 -0.0606
  117OSM   H11S12208   2.114   2.988   5.296 -1.2398  0.1559  3.2049
  117OSM   H11T12209   1.972   2.895   5.281 -0.2183 -0.3318 -3.4326
  117OSM   C12S12210   2.122   2.820   5.159 -0.2324  0.9112  0.2958
  117OSM   H12S12211   2.072   2.866   5.072 -0.7901 -1.8732 -0.9749
  117OSM   H12T12212   2.077   2.719   5.150 -1.5711  1.1635  3.0117
  117OSM   C13S12213   2.270   2.805   5.136  0.6918 -0.2691 -0.8467
  117OSM   H13S12214   2.299   2.705   5.174 -0.3515 -0.5397 -0.7439
  117OSM   H13T12215   2.321   2.892   5.183 -0.7304  0.1557 -0.0350
  117OSM   C14S12216   2.299   2.831   4.991 -0.3952 -0.4824 -0.3263
  117OSM   H14S12217   2.236   2.918   4.961 -0.7266 -0.6246 -0.0533
  117OSM   H14T12218   2.262   2.742   4.937 -2.4116  1.4051 -2.2906
  117OSM   C15S12219   2.446   2.875   4.959  1.1138  0.6855 -0.5161
  117OSM   H15S12220   2.503   2.781   4.971 -0.0757 -0.0634 -0.4832
  117OSM   H15T12221   2.492   2.938   5.038  0.8005 -0.5114  0.6586
  117OSM   C16S12222   2.469   2.941   4.829 -0.6905 -0.4754 -0.0427
  117OSM   H16S12223   2.578   2.951   4.813 -0.4129  0.2028  1.8846
  117OSM   H16T12224   2.429   3.045   4.832  3.1194  1.1357 -0.3525
  117OSM   C17S12225   2.412   2.866   4.704  0.6124  0.0167 -0.5959
  117OSM   H17S12226   2.453   2.912   4.612 -0.2185  1.7617 -0.1326
  117OSM   H17T12227   2.305   2.892   4.696  0.4642  0.1850  1.3136
  117OSM   C18S12228   2.425   2.713   4.707  0.4372 -0.7630 -0.4612
  117OSM   H18S12229   2.410   2.666   4.806 -0.8098  1.4112  0.4261
  117OSM   H18T12230   2.529   2.680   4.685  1.0267 -0.8679  2.1213
  117OSM   H18U12231   2.356   2.663   4.636 -1.5260 -0.5015  1.1767
  117OSM    C1F12232   2.698   2.817   6.166  0.6474 -0.1650  0.2103
  117OSM     OF12233   2.712   2.721   6.243  0.6888  0.0324  0.3044
  117OSM    C2F12234   2.807   2.865   6.072  0.2698  0.5090 -0.0707
  117OSM    H2F12235   2.892   2.893   6.138  1.0733  1.1940 -1.3584
  117OSM    H2G12236   2.777   2.960   6.024  2.4526  0.3370 -1.9572
  117OSM    C3F12237   2.839   2.758   5.967 -0.4980  0.8241  0.8175
  117OSM    H3F12238   2.865   2.662   6.016  0.9878  1.3721  1.1556
  117OSM    H3G12239   2.931   2.797   5.919  1.5424 -0.2530  3.5871
  117OSM    C4F12240   2.743   2.741   5.848 -0.4029  0.8116 -0.7746
  117OSM    H4F12241   2.799   2.736   5.753  1.2044  1.1151  0.1223
  117OSM    H4G12242   2.678   2.831   5.857  0.3452  1.2770  0.1401
  117OSM    C5F12243   2.667   2.613   5.840  0.0236 -0.3136 -0.2220
  117OSM    H5F12244   2.610   2.583   5.930 -4.1175 -0.0449 -2.5040
  117OSM    H5G12245   2.741   2.530   5.836  1.5486  1.0441 -1.2842
  117OSM    C6F12246   2.571   2.596   5.715 -0.7216  0.5162 -0.3242
  117OSM    H6F12247   2.513   2.690   5.713 -0.6212  0.5679 -1.6756
  117OSM    H6G12248   2.505   2.509   5.737 -0.9072  0.2582 -1.8239
  117OSM    C7F12249   2.649   2.556   5.589 -0.4154 -0.0483 -0.9342
  117OSM    H7F12250   2.680   2.452   5.612  0.3664  0.8669  2.9189
  117OSM    H7G12251   2.743   2.614   5.598 -0.6836  0.2568 -0.0203
  117OSM    C8F12252   2.574   2.556   5.460 -0.1747 -0.5365  0.4108
  117OSM    H8F12253   2.472   2.514   5.472 -0.9197  1.1049  0.0893
  117OSM    H8G12254   2.619   2.488   5.385 -3.4861 -1.5030 -0.8953
  117OSM    C9F12255   2.554   2.691   5.408 -0.0091 -0.0479 -0.3018
  117OSM    H9F12256   2.475   2.750   5.457 -0.9441 -0.3479 -1.4051
  117OSM   C10F12257   2.605   2.748   5.302 -0.9710  0.3452  0.1324
  117OSM   H10F12258   2.577   2.847   5.262 -2.0332  0.1086  0.2805
  117OSM   C11F12259   2.711   2.688   5.213 -0.9939  0.2981 -0.8015
  117OSM   H11F12260   2.680   2.670   5.108 -0.0030 -2.6220 -0.6748
  117OSM   H11G12261   2.752   2.593   5.252  1.5069  1.4620 -0.4159
  117OSM   C12F12262   2.840   2.775   5.223  0.4848 -0.2215 -0.1290
  117OSM   H12F12263   2.926   2.724   5.176  1.4071 -0.1636  1.4369
  117OSM   H12G12264   2.859   2.796   5.330 -1.5569 -1.1563  0.4859
  117OSM   C13F12265   2.813   2.914   5.160  1.2323 -0.1257  0.0739
  117OSM   H13F12266   2.905   2.976   5.157  1.8085 -0.8174  2.1593
  117OSM   H13G12267   2.731   2.972   5.206  1.8065  0.8736 -0.1376
  117OSM   C14F12268   2.791   2.907   5.005  0.1798 -0.5094  0.6085
  117OSM   H14F12269   2.716   2.987   4.985 -0.2502 -0.7441  1.2594
  117OSM   H14G12270   2.748   2.810   4.974 -1.6139  1.0181 -2.0770
  117OSM   C15F12271   2.916   2.932   4.926  1.1483 -0.0223  0.3437
  117OSM   H15F12272   2.984   2.848   4.953 -1.6877 -2.3316  0.6823
  117OSM   H15G12273   2.951   3.030   4.965 -1.9939  1.4144 -0.2025
  117OSM   C16F12274   2.898   2.941   4.778  0.3927 -0.1647  0.7269
  117OSM   H16F12275   2.999   2.975   4.745  0.6451 -0.4933  1.1571
  117OSM   H16G12276   2.831   3.026   4.752  1.4963  0.4488 -0.1850
  117OSM   C17F12277   2.848   2.811   4.712  0.1910  0.4075 -0.2760
  117OSM   H17F12278   2.848   2.835   4.603  1.7422 -1.0367 -0.6419
  117OSM   H17G12279   2.743   2.780   4.734 -1.0771  4.5360  0.1843
  117OSM   C18F12280   2.947   2.698   4.722 -0.1271  0.4753 -0.3883
  117OSM   H18F12281   2.939   2.657   4.825 -0.9347 -0.0915 -0.6669
  117OSM   H18G12282   3.051   2.736   4.710  0.6423 -1.4300 -0.0638
  117OSM   H18H12283   2.923   2.615   4.653  0.4170 -0.1756  0.1948
  118OSM      N12284   1.688   2.246   6.632  0.0848  0.3609  0.0780
  118OSM    C1512285   1.682   2.198   6.776  0.1936 -0.1901 -0.6782
  118OSM   H15A12286   1.650   2.276   6.844  2.6375  1.3533 -1.1583
  118OSM   H15B12287   1.781   2.175   6.813  0.8825  2.0313 -0.9542
  118OSM   H15C12288   1.618   2.111   6.779  1.2893 -1.0350  2.2399
  118OSM    C1412289   1.550   2.290   6.605  0.6200 -0.3985 -0.1616
  118OSM   H14A12290   1.487   2.204   6.620 -0.1885  0.2666  0.3229
  118OSM   H14B12291   1.543   2.320   6.501 -0.3091  0.9218  0.2684
  118OSM   H14C12292   1.526   2.378   6.662 -1.8998 -2.9016  3.0101
  118OSM    C1312293   1.775   2.361   6.614 -0.5279 -0.9127 -0.2920
  118OSM   H13A12294   1.743   2.445   6.675 -0.2846 -0.0707 -1.2912
  118OSM   H13B12295   1.775   2.402   6.514  1.3150  2.1287  0.8256
  118OSM   H13C12296   1.874   2.337   6.648 -1.3923 -0.4794  2.8533
  118OSM    C1212297   1.723   2.122   6.543 -0.2470 -0.6929 -0.2461
  118OSM   H12A12298   1.823   2.088   6.563  0.5875  1.2927 -0.7769
  118OSM   H12B12299   1.738   2.168   6.446 -0.7110  1.3572  0.5951
  118OSM    C1112300   1.630   2.003   6.530  0.5250  0.1771 -0.2515
  118OSM   H11A12301   1.639   1.940   6.440 -2.1185 -1.1023  0.2645
  118OSM   H11B12302   1.530   2.050   6.515  0.6278 -0.0215 -1.6227
  118OSM      P12303   1.763   1.820   6.658  0.1221  0.0464  0.0185
  118OSM    O1312304   1.865   1.873   6.756  0.3057 -0.2721 -0.4432
  118OSM    O1412305   1.711   1.683   6.677  0.5048 -0.2105 -0.5686
  118OSM    O1112306   1.828   1.837   6.513  0.2450  0.2309 -0.5915
  118OSM    O1212307   1.639   1.918   6.648  0.7636  0.1683  1.3288
  118OSM    C1S12308   1.928   1.738   6.477  0.2619  0.0443 -0.9103
  118OSM    H1S12309   1.892   1.635   6.497  0.2662 -0.0179 -1.2141
  118OSM    H1T12310   2.012   1.757   6.547  1.5692 -0.7044 -2.2267
  118OSM     NF12311   2.071   1.656   6.298 -1.2392  0.1807 -0.3081
  118OSM    HNF12312   2.168   1.680   6.300 -1.2812  0.3208  0.4589
  118OSM    C2S12313   1.986   1.769   6.333 -0.2324 -0.1505  0.6088
  118OSM    H2S12314   1.899   1.762   6.265  0.9074  0.0221 -0.9265
  118OSM    C3S12315   2.046   1.915   6.319 -0.0626  0.0753  0.2611
  118OSM    H3S12316   2.125   1.933   6.395 -0.9929 -2.4618  2.0055
  118OSM     O312317   1.938   2.011   6.342 -0.2412 -0.1647 -0.1921
  118OSM    HO312318   1.868   1.956   6.379  0.0825 -0.7503 -0.4285
  118OSM    C4S12319   2.089   1.927   6.174  0.1541  0.5464  0.2551
  118OSM    H4S12320   2.013   1.904   6.098 -0.1160  0.5751  0.5139
  118OSM    C5S12321   2.211   1.972   6.140  0.0320  0.0733  0.4065
  118OSM    H5S12322   2.281   1.979   6.224  2.1796 -1.1074 -1.1811
  118OSM    C6S12323   2.281   1.983   6.005 -0.3265  0.1996  0.3459
  118OSM    H6S12324   2.371   1.918   5.997  0.0005  0.5626  1.0714
  118OSM    H6T12325   2.314   2.084   5.975  1.4051 -1.0054 -2.2125
  118OSM    C7S12326   2.191   1.929   5.884  0.4391  0.4090  0.5439
  118OSM    H7S12327   2.100   1.991   5.871 -0.4761 -0.4536  2.4882
  118OSM    H7T12328   2.171   1.823   5.910 -1.7721  0.1759 -1.7302
  118OSM    C8S12329   2.267   1.937   5.747 -0.1637 -0.0130 -0.2626
  118OSM    H8S12330   2.367   1.893   5.764  0.6548  1.0775 -1.9800
  118OSM    H8T12331   2.278   2.045   5.721  2.4206  0.3636  1.9131
  118OSM    C9S12332   2.181   1.877   5.633 -0.0797  0.0068  0.3143
  118OSM    H9S12333   2.079   1.921   5.642  0.7662  1.6806  3.0111
  118OSM    H9T12334   2.173   1.769   5.657 -1.0783 -0.5685 -2.3054
  118OSM   C10S12335   2.239   1.909   5.500 -0.1839 -0.6562 -0.1414
  118OSM   H10S12336   2.330   1.845   5.492  1.0457  1.1584 -1.7142
  118OSM   H10T12337   2.264   2.015   5.480  1.2793 -1.1686 -1.2356
  118OSM   C11S12338   2.156   1.841   5.388 -0.1054  0.5780  0.0861
  118OSM   H11S12339   2.051   1.876   5.401 -0.0582  0.4018  0.9965
  118OSM   H11T12340   2.157   1.731   5.401 -2.0429  0.4116 -0.8438
  118OSM   C12S12341   2.218   1.854   5.247 -0.1931  0.9615  1.3636
  118OSM   H12S12342   2.321   1.814   5.253 -1.3082 -2.7920 -1.2239
  118OSM   H12T12343   2.221   1.961   5.217  2.7834  0.5990  0.0328
  118OSM   C13S12344   2.132   1.781   5.136 -0.4701  0.1812 -0.1847
  118OSM   H13S12345   2.029   1.822   5.144 -1.3495 -2.0293  0.6121
  118OSM   H13T12346   2.116   1.673   5.158 -0.1448  0.1499 -0.0849
  118OSM   C14S12347   2.193   1.807   4.996 -0.3467 -0.1862 -0.4175
  118OSM   H14S12348   2.294   1.762   4.992  0.3306  1.0845  1.1027
  118OSM   H14T12349   2.211   1.917   4.995  1.6695 -0.4555 -2.5958
  118OSM   C15S12350   2.105   1.784   4.878 -0.6578 -0.2789  0.3209
  118OSM   H15S12351   2.167   1.810   4.790  0.8859 -1.2732  1.0828
  118OSM   H15T12352   2.015   1.848   4.893 -0.4586 -0.3994  2.3333
  118OSM   C16S12353   2.080   1.636   4.851  0.0443 -0.5231  0.3922
  118OSM   H16S12354   2.001   1.600   4.920 -0.6634 -2.1488 -1.1920
  118OSM   H16T12355   2.172   1.578   4.874  0.8754  0.2434 -0.8629
  118OSM   C17S12356   2.033   1.608   4.709  0.3706  0.5084  0.1139
  118OSM   H17S12357   2.113   1.609   4.632  0.2955  1.1046  0.0410
  118OSM   H17T12358   1.947   1.674   4.688 -0.1606  0.0378  0.7356
  118OSM   C18S12359   1.982   1.463   4.703  0.7437  0.1647 -0.3492
  118OSM   H18S12360   2.057   1.402   4.757  1.0248 -3.0159 -3.8928
  118OSM   H18T12361   1.969   1.424   4.600 -0.0436 -0.2550 -0.0987
  118OSM   H18U12362   1.884   1.452   4.755  1.0898 -0.9215  0.1044
  118OSM    C1F12363   2.030   1.528   6.302  0.5190  0.1306  0.1501
  118OSM     OF12364   1.914   1.500   6.305 -0.2608  0.5331 -0.3517
  118OSM    C2F12365   2.141   1.426   6.293 -0.7643  0.2951  0.0102
  118OSM    H2F12366   2.145   1.372   6.390 -2.2196  2.1230  1.1517
  118OSM    H2G12367   2.240   1.469   6.269 -0.8934 -0.4006 -2.0144
  118OSM    C3F12368   2.107   1.327   6.184 -0.3615 -0.0973  0.4048
  118OSM    H3F12369   2.010   1.277   6.209  0.1917 -1.7114 -0.5703
  118OSM    H3G12370   2.188   1.253   6.200 -0.5776 -0.2334  0.9328
  118OSM    C4F12371   2.114   1.388   6.045 -0.4573 -0.1456 -0.5861
  118OSM    H4F12372   2.210   1.441   6.027 -0.1129 -0.4403  0.3395
  118OSM    H4G12373   2.025   1.455   6.039  0.2143  0.8900  0.5308
  118OSM    C5F12374   2.120   1.277   5.931  1.0654 -0.5858  0.3934
  118OSM    H5F12375   2.026   1.217   5.937 -1.0076  2.2436 -1.4905
  118OSM    H5G12376   2.209   1.211   5.931  1.5534 -0.0277 -2.4541
  118OSM    C6F12377   2.102   1.328   5.783 -0.0916 -0.4515 -0.2554
  118OSM    H6F12378   2.080   1.242   5.716 -0.0159 -0.8651  0.2407
  118OSM    H6G12379   2.201   1.361   5.745 -1.0103  2.6046 -0.2189
  118OSM    C7F12380   1.989   1.428   5.770 -0.3676 -0.5649  0.3469
  118OSM    H7F12381   2.034   1.530   5.774 -0.2361 -0.2999 -3.4847
  118OSM    H7G12382   1.902   1.419   5.838  0.1320 -1.4260  0.8905
  118OSM    C8F12383   1.928   1.417   5.625  0.5221 -0.5660  0.2093
  118OSM    H8F12384   1.852   1.498   5.613  0.6981 -0.5070 -0.5943
  118OSM    H8G12385   1.868   1.324   5.621 -1.0797  0.1037  4.0005
  118OSM    C9F12386   2.032   1.437   5.519 -0.7172 -0.0608 -0.0365
  118OSM    H9F12387   2.098   1.524   5.526  0.2310 -0.4860 -2.6235
  118OSM   C10F12388   2.044   1.353   5.409 -0.7945 -1.1077  0.0611
  118OSM   H10F12389   2.112   1.379   5.326  1.9693 -1.1966  2.1786
  118OSM   C11F12390   1.973   1.219   5.385 -0.4680  0.2176 -0.6027
  118OSM   H11F12391   1.961   1.163   5.479  0.7070 -2.8321 -2.1473
  118OSM   H11G12392   2.032   1.150   5.322  1.7942  1.0447  0.5096
  118OSM   C12F12393   1.835   1.236   5.321  0.1658 -0.2243 -1.0704
  118OSM   H12F12394   1.765   1.303   5.376 -1.3252 -2.6561  0.2171
  118OSM   H12G12395   1.779   1.139   5.326  3.1170 -1.9982  2.7746
  118OSM   C13F12396   1.852   1.264   5.173 -0.1723 -0.4129 -0.7878
  118OSM   H13F12397   1.932   1.197   5.135  1.0282 -0.2562  1.3002
  118OSM   H13G12398   1.893   1.365   5.153 -1.4701  0.1430 -0.7088
  118OSM   C14F12399   1.715   1.250   5.095  0.1062 -0.8264 -0.0630
  118OSM   H14F12400   1.669   1.350   5.114 -1.4467 -1.6748  0.8045
  118OSM   H14G12401   1.651   1.178   5.150  1.0161  0.2189  2.5665
  118OSM   C15F12402   1.709   1.235   4.944 -0.2318 -0.6737 -0.4115
  118OSM   H15F12403   1.803   1.187   4.909  0.0582  0.6086 -1.4924
  118OSM   H15G12404   1.694   1.338   4.906 -0.9812 -0.1910  1.0967
  118OSM   C16F12405   1.592   1.144   4.890 -0.0969 -0.4563  0.5652
  118OSM   H16F12406   1.502   1.209   4.903 -0.4897 -0.7108 -0.7187
  118OSM   H16G12407   1.569   1.056   4.955 -1.4897  0.8556  1.9390
  118OSM   C17F12408   1.603   1.111   4.749  0.0950 -0.1931  0.4469
  118OSM   H17F12409   1.675   1.028   4.733 -0.7677 -0.3454 -3.6317
  118OSM   H17G12410   1.639   1.199   4.692 -1.0032 -0.5097 -0.7822
  118OSM   C18F12411   1.472   1.069   4.681  0.0891  0.0046  0.6799
  118OSM   H18F12412   1.394   1.146   4.700  0.8464  0.4139  2.2927
  118OSM   H18G12413   1.426   0.981   4.731  0.7833  0.1327  1.5856
  118OSM   H18H12414   1.488   1.049   4.573  0.7989  1.3208  0.5121
  119OSM      N12415   4.859   3.665   6.880 -0.7761  1.0791 -0.7451
  119OSM    C1512416   4.922   3.759   6.979  0.1213  0.1104 -0.3658
  119OSM   H15A12417   4.930   3.714   7.077 -0.5767 -0.6451 -0.6466
  119OSM   H15B12418   4.866   3.848   7.004 -0.7683 -0.5758  0.1368
  119OSM   H15C12419   5.015   3.802   6.944  1.3987 -1.5667  0.7969
  119OSM    C1412420   4.934   3.535   6.892 -0.2658 -0.6044  0.8763
  119OSM   H14A12421   5.028   3.559   6.843 -1.2582  2.6923  0.4031
  119OSM   H14B12422   4.891   3.455   6.833  1.9417 -1.2617  0.0433
  119OSM   H14C12423   4.954   3.497   6.991 -0.3520 -2.0835  0.3666
  119OSM    C1312424   4.722   3.649   6.941  0.9347  0.6247 -0.2311
  119OSM   H13A12425   4.664   3.736   6.968 -2.0000 -0.9989 -0.9085
  119OSM   H13B12426   4.729   3.590   7.030 -1.2995  2.5342  1.3202
  119OSM   H13C12427   4.658   3.593   6.874 -0.6565  1.1860  0.7740
  119OSM    C1212428   4.843   3.717   6.734 -0.3996 -0.3597  0.2168
  119OSM   H12A12429   4.794   3.812   6.723 -0.1321 -0.2931 -0.4390
  119OSM   H12B12430   4.789   3.642   6.678  0.2863  0.2482 -1.3269
  119OSM    C1112431   4.974   3.735   6.641 -0.0653 -0.0023 -0.2267
  119OSM   H11A12432   5.050   3.803   6.686  0.2547 -0.5526  0.0843
  119OSM   H11B12433   4.952   3.783   6.544  0.7843  0.3530 -0.2508
  119OSM      P12434   5.193   3.566   6.621 -0.4650 -0.2217  0.5013
  119OSM    O1312435   5.245   3.592   6.756  0.3537 -0.4703 -0.3121
  119OSM    O1412436   5.209   3.434   6.562  0.4865  0.0205 -0.1546
  119OSM    O1112437   5.253   3.668   6.514 -0.1991 -0.1841  0.4301
  119OSM    O1212438   5.037   3.605   6.610  0.1333 -0.3540  0.3883
  119OSM    C1S12439   5.206   3.669   6.377  0.2547 -0.2155  0.4367
  119OSM    H1S12440   5.097   3.658   6.363  0.5271 -1.5390 -0.9766
  119OSM    H1T12441   5.262   3.586   6.328  0.4999  0.6851 -0.8697
  119OSM     NF12442   5.169   3.813   6.176  0.1289 -0.9908  0.1145
  119OSM    HNF12443   5.194   3.774   6.088 -1.1516  0.5623 -0.9899
  119OSM    C2S12444   5.251   3.790   6.295 -0.8243 -0.7300 -0.3208
  119OSM    H2S12445   5.238   3.874   6.366 -1.0999 -0.6167 -0.5021
  119OSM    C3S12446   5.404   3.795   6.259  0.8061 -0.0854  0.5209
  119OSM    H3S12447   5.417   3.720   6.178 -5.3793 -1.8416  0.6193
  119OSM     O312448   5.483   3.771   6.372 -0.3238  0.3348  0.1247
  119OSM    HO312449   5.410   3.747   6.430  0.3541 -0.3287  0.7162
  119OSM    C4S12450   5.430   3.934   6.201 -0.0561 -0.4047 -0.3138
  119OSM    H4S12451   5.423   4.020   6.269 -0.1228 -0.3981 -0.3289
  119OSM    C5S12452   5.460   3.950   6.072 -0.1164  0.7181  0.3830
  119OSM    H5S12453   5.465   3.857   6.013  0.6890  0.6528  0.5443
  119OSM    C6S12454   5.485   4.069   5.985 -0.7283  0.7574 -0.0419
  119OSM    H6S12455   5.593   4.056   5.960 -0.3151  0.2782  1.8210
  119OSM    H6T12456   5.459   4.162   6.038 -1.5044 -0.1277  1.1949
  119OSM    C7S12457   5.419   4.068   5.849  0.0284 -0.8467 -0.0669
  119OSM    H7S12458   5.447   3.977   5.791 -0.5700 -2.1525  1.6349
  119OSM    H7T12459   5.449   4.164   5.803 -1.3412  1.4692  3.4971
  119OSM    C8S12460   5.267   4.072   5.855 -0.8616 -0.0837 -0.7015
  119OSM    H8S12461   5.227   4.142   5.932 -0.2487  0.5613 -0.9531
  119OSM    H8T12462   5.231   3.972   5.888 -2.8715  0.4650 -1.1411
  119OSM    C9S12463   5.204   4.100   5.723 -0.4900  0.2814 -0.0252
  119OSM    H9S12464   5.227   4.018   5.653  1.9776  0.3693  0.5953
  119OSM    H9T12465   5.253   4.190   5.678  1.0489 -0.5409 -0.0587
  119OSM   C10S12466   5.055   4.119   5.727  0.2196  0.2526 -0.2394
  119OSM   H10S12467   5.008   4.171   5.814  1.6413 -1.3476  1.5849
  119OSM   H10T12468   5.016   4.015   5.732  1.3144 -0.2095 -0.9267
  119OSM   C11S12469   5.004   4.188   5.605 -0.4732 -0.6244 -0.1039
  119OSM   H11S12470   5.043   4.292   5.599 -1.9433  0.0817  1.6739
  119OSM   H11T12471   4.897   4.216   5.618 -0.2956  0.4240 -0.8061
  119OSM   C12S12472   5.023   4.109   5.474 -0.2353 -0.4925 -0.1502
  119OSM   H12S12473   5.122   4.120   5.425 -0.8368  0.6163 -1.1675
  119OSM   H12T12474   4.953   4.159   5.403 -1.6832  1.0495  2.2418
  119OSM   C13S12475   4.978   3.971   5.475 -0.8417  0.8146  0.0648
  119OSM   H13S12476   4.890   3.964   5.542  1.5259 -1.4012  3.2104
  119OSM   H13T12477   5.039   3.911   5.546 -0.2218  2.6004  1.1179
  119OSM   C14S12478   4.971   3.912   5.336  0.2211  1.2230 -0.9285
  119OSM   H14S12479   4.988   3.802   5.333 -1.5163  0.9287 -3.4762
  119OSM   H14T12480   5.050   3.955   5.271 -0.2497  1.4890 -1.3295
  119OSM   C15S12481   4.839   3.937   5.264 -0.7222 -0.5048  0.4010
  119OSM   H15S12482   4.856   4.040   5.226  1.4584 -0.5638  1.0749
  119OSM   H15T12483   4.757   3.924   5.338  0.8729  0.7541  2.5062
  119OSM   C16S12484   4.821   3.839   5.149 -0.0126  0.4084  0.8476
  119OSM   H16S12485   4.828   3.736   5.190  0.6421  0.1690  0.1636
  119OSM   H16T12486   4.906   3.835   5.077 -0.7766 -0.5747 -0.0180
  119OSM   C17S12487   4.699   3.863   5.056  0.0948 -0.4091  0.0890
  119OSM   H17S12488   4.715   3.964   5.013  1.6243 -1.9888 -3.5484
  119OSM   H17T12489   4.608   3.862   5.119 -3.9747 -0.8956 -5.1686
  119OSM   C18S12490   4.682   3.778   4.936 -0.3781 -0.3862  0.4541
  119OSM   H18S12491   4.749   3.815   4.855  1.1616 -0.0174  1.8365
  119OSM   H18T12492   4.580   3.794   4.896 -0.6102  1.5319  1.6964
  119OSM   H18U12493   4.701   3.669   4.946  1.9240 -0.0180  0.6653
  119OSM    C1F12494   5.054   3.876   6.188  0.6618  0.7343 -0.1229
  119OSM     OF12495   5.015   3.930   6.292  0.3825  0.8722  0.7780
  119OSM    C2F12496   4.962   3.861   6.070 -0.1741  0.1087  0.2465
  119OSM    H2F12497   4.901   3.769   6.077  0.3295 -0.4370 -1.8598
  119OSM    H2G12498   5.018   3.852   5.975  0.3237 -1.2784  0.6598
  119OSM    C3F12499   4.854   3.975   6.055 -0.6147 -0.0072 -0.4759
  119OSM    H3F12500   4.909   4.069   6.035  1.4039 -1.0726 -0.1916
  119OSM    H3G12501   4.792   3.976   6.147  0.0781  0.1014 -0.0009
  119OSM    C4F12502   4.754   3.953   5.937  0.4018  0.3701 -0.0092
  119OSM    H4F12503   4.693   3.862   5.949  1.0649  0.0898  1.4556
  119OSM    H4G12504   4.820   3.935   5.849  1.2349  3.1517 -0.0709
  119OSM    C5F12505   4.657   4.076   5.918  0.0628  0.4034 -0.5546
  119OSM    H5F12506   4.701   4.176   5.934  1.0647  0.3092 -2.4045
  119OSM    H5G12507   4.592   4.072   6.008  0.6943 -1.3542 -0.1229
  119OSM    C6F12508   4.576   4.087   5.790 -0.1825  0.3720 -0.0687
  119OSM    H6F12509   4.509   4.175   5.804 -0.3674  0.3808 -0.9315
  119OSM    H6G12510   4.511   3.997   5.791  1.3343 -0.7624 -0.2743
  119OSM    C7F12511   4.645   4.096   5.649  0.1386  0.8552 -0.2340
  119OSM    H7F12512   4.721   4.016   5.657  0.5617  1.2523 -0.2543
  119OSM    H7G12513   4.704   4.190   5.642  1.2554  0.1627 -0.2904
  119OSM    C8F12514   4.556   4.070   5.529 -0.0499 -0.0785 -0.4435
  119OSM    H8F12515   4.490   3.984   5.554 -1.5641  1.4033  0.9373
  119OSM    H8G12516   4.624   4.028   5.452  0.4760  0.9733 -0.5727
  119OSM    C9F12517   4.475   4.191   5.494 -0.0115  1.1928  0.1994
  119OSM    H9F12518   4.388   4.223   5.554 -2.4182 -1.5028 -1.6184
  119OSM   C10F12519   4.511   4.270   5.392 -0.2014 -0.2954 -0.0988
  119OSM   H10F12520   4.461   4.367   5.388  1.4045  0.6080  0.7265
  119OSM   C11F12521   4.625   4.272   5.293 -0.1007  0.5836 -0.5143
  119OSM   H11F12522   4.716   4.217   5.323 -0.5970  0.3395  0.5742
  119OSM   H11G12523   4.665   4.376   5.284  1.9720  0.1222  2.0948
  119OSM   C12F12524   4.584   4.238   5.147  0.4433  0.1538 -0.6352
  119OSM   H12F12525   4.491   4.294   5.126 -1.1938 -0.4382  3.8507
  119OSM   H12G12526   4.561   4.129   5.137  0.6076 -0.0739  1.1354
  119OSM   C13F12527   4.700   4.278   5.047 -1.0507  0.7130 -0.1726
  119OSM   H13F12528   4.786   4.211   5.068 -1.1193  0.2134 -1.3857
  119OSM   H13G12529   4.742   4.379   5.066  3.8690 -0.9240 -0.8482
  119OSM   C14F12530   4.660   4.275   4.900  0.3684 -0.2009  0.8197
  119OSM   H14F12531   4.597   4.186   4.879  1.0900 -0.8895  1.4954
  119OSM   H14G12532   4.758   4.287   4.849 -0.4612 -0.5728 -0.9301
  119OSM   C15F12533   4.586   4.401   4.865  0.9093 -0.3082  0.6782
  119OSM   H15F12534   4.648   4.487   4.898 -0.0971  1.9379 -2.6976
  119OSM   H15G12535   4.485   4.416   4.910 -0.3161  1.4528 -2.3554
  119OSM   C16F12536   4.569   4.412   4.710 -0.1592 -0.1775 -0.4948
  119OSM   H16F12537   4.498   4.332   4.679 -0.0935 -1.0161  1.3426
  119OSM   H16G12538   4.668   4.400   4.660  1.3486  1.3635  1.9092
  119OSM   C17F12539   4.526   4.551   4.658  0.3936 -0.3097 -0.2704
  119OSM   H17F12540   4.519   4.529   4.549  0.5078  1.5254 -0.6766
  119OSM   H17G12541   4.607   4.627   4.665  0.2797 -0.1967 -0.1833
  119OSM   C18F12542   4.389   4.598   4.699 -0.0196  0.8199  0.6924
  119OSM   H18F12543   4.328   4.508   4.724  0.9578 -0.0858 -0.0391
  119OSM   H18G12544   4.343   4.650   4.613  1.3191 -1.7088 -1.7514
  119OSM   H18H12545   4.390   4.659   4.791  1.6985  0.9491  0.6294
  120OSM      N12546   6.649   4.158   7.125  0.0040  0.0334  0.1329
  120OSM    C1512547   6.540   4.210   7.212 -0.2762 -0.6023 -0.3539
  120OSM   H15A12548   6.583   4.263   7.295 -0.2336 -0.9087 -0.1817
  120OSM   H15B12549   6.478   4.137   7.261  0.0217  0.0264  0.9961
  120OSM   H15C12550   6.467   4.278   7.168  2.0904  2.6301  0.3430
  120OSM    C1412551   6.721   4.272   7.060  0.6011  0.2160  0.3046
  120OSM   H14A12552   6.774   4.329   7.135 -1.1261  0.4380  1.4292
  120OSM   H14B12553   6.655   4.342   7.012  1.2161  0.0748 -0.7630
  120OSM   H14C12554   6.792   4.243   6.984 -1.8478 -2.3345 -1.2098
  120OSM    C1312555   6.749   4.091   7.211  0.2246  0.2136 -0.5848
  120OSM   H13A12556   6.708   4.034   7.292  1.3275 -0.1290 -0.2576
  120OSM   H13B12557   6.822   4.163   7.245  0.0091  0.4744 -0.6737
  120OSM   H13C12558   6.793   4.014   7.148 -1.2201  1.0396 -2.7388
  120OSM    C1212559   6.585   4.057   7.033  0.3318 -0.0283 -0.0012
  120OSM   H12A12560   6.508   4.111   6.981  2.4492  1.6696 -1.5968
  120OSM   H12B12561   6.540   3.974   7.085 -0.4878  0.8816  0.7837
  120OSM    C1112562   6.672   3.985   6.928 -0.3545  0.5856 -0.1987
  120OSM   H11A12563   6.720   4.058   6.859 -0.7291 -0.0714 -1.1913
  120OSM   H11B12564   6.602   3.931   6.861  0.0599 -0.4567  0.1897
  120OSM      P12565   6.874   3.826   6.897 -0.1655  0.4485  0.0008
  120OSM    O1312566   6.995   3.834   6.978 -0.4315  0.4370  0.1346
  120OSM    O1412567   6.829   3.691   6.853  0.4185 -0.2313 -0.2431
  120OSM    O1112568   6.889   3.926   6.771  0.2394  0.0627 -0.4892
  120OSM    O1212569   6.758   3.897   6.985 -0.8765  0.5406  0.2019
  120OSM    C1S12570   6.998   3.909   6.679  0.0038  0.5061  0.2710
  120OSM    H1S12571   6.995   3.804   6.642  2.3393  0.5969 -0.3524
  120OSM    H1T12572   7.093   3.921   6.736 -1.0450  0.8410  2.0206
  120OSM     NF12573   7.071   3.990   6.461  0.1265 -0.4615  0.3282
  120OSM    HNF12574   7.145   4.057   6.455 -1.0165  0.7125 -1.9653
  120OSM    C2S12575   6.976   4.013   6.568  1.0004  0.0855 -0.1088
  120OSM    H2S12576   6.873   4.000   6.528  0.4902  1.6826  0.6104
  120OSM    C3S12577   6.984   4.159   6.624 -0.6172 -0.6996  0.4269
  120OSM    H3S12578   7.074   4.189   6.682 -0.8960  0.9048  0.0903
  120OSM     O312579   6.888   4.181   6.727 -0.4020 -0.0302 -0.1780
  120OSM    HO312580   6.864   4.091   6.752 -3.6360  0.0898 -2.3117
  120OSM    C4S12581   6.952   4.272   6.526  0.3960  0.2366 -0.0854
  120OSM    H4S12582   6.861   4.248   6.468  0.5974 -0.8687  0.0321
  120OSM    C5S12583   7.027   4.381   6.499 -0.2539  0.0706 -0.8054
  120OSM    H5S12584   7.120   4.388   6.557 -1.1282  0.3511  0.6217
  120OSM    C6S12585   6.998   4.490   6.403 -1.4275  0.1463 -0.4485
  120OSM    H6S12586   7.091   4.549   6.392 -1.9642  1.1371  0.2293
  120OSM    H6T12587   6.921   4.561   6.441 -1.5031 -1.2152  2.1521
  120OSM    C7S12588   6.950   4.440   6.270 -0.4477 -0.2061 -0.0537
  120OSM    H7S12589   6.944   4.521   6.194 -0.4171 -1.1174 -1.0403
  120OSM    H7T12590   6.843   4.412   6.275  0.3152 -3.1309  2.5678
  120OSM    C8S12591   7.052   4.350   6.201  0.5402 -0.3466 -0.0221
  120OSM    H8S12592   7.080   4.261   6.261 -1.1266 -1.7620 -1.2431
  120OSM    H8T12593   7.143   4.407   6.175 -0.0690  0.4653 -0.4041
  120OSM    C9S12594   7.000   4.289   6.069  0.5244  0.9057  0.7018
  120OSM    H9S12595   6.967   4.372   6.003 -0.8848  0.2139  0.4973
  120OSM    H9T12596   6.914   4.228   6.102 -0.0713  0.5571 -1.3700
  120OSM   C10S12597   7.107   4.193   6.005  0.3650  0.0459 -0.1874
  120OSM   H10S12598   7.104   4.102   6.069 -0.0319  0.0511 -0.1957
  120OSM   H10T12599   7.208   4.240   6.009  0.0643  0.6430  0.5861
  120OSM   C11S12600   7.084   4.157   5.856 -0.2928 -0.0968 -0.1004
  120OSM   H11S12601   7.033   4.241   5.805 -2.6391  0.0965  2.3463
  120OSM   H11T12602   7.022   4.065   5.852  0.9877 -0.9564 -1.1432
  120OSM   C12S12603   7.211   4.115   5.782  0.5438 -0.5952  0.9092
  120OSM   H12S12604   7.260   4.054   5.861 -1.0053 -1.5852  1.1450
  120OSM   H12T12605   7.261   4.212   5.763 -1.3754  0.4060  0.7676
  120OSM   C13S12606   7.190   4.038   5.653 -0.1156 -0.2978  0.5722
  120OSM   H13S12607   7.132   3.951   5.691 -1.1546  1.0992  2.3236
  120OSM   H13T12608   7.290   4.007   5.614 -0.4897 -1.2258  0.3338
  120OSM   C14S12609   7.104   4.106   5.543 -0.2570  0.9388  1.0041
  120OSM   H14S12610   7.120   4.216   5.533  0.0806  0.7654 -0.8633
  120OSM   H14T12611   7.007   4.102   5.596 -0.0546  0.9138  1.3737
  120OSM   C15S12612   7.122   4.033   5.408 -0.1456 -0.6081  0.2953
  120OSM   H15S12613   7.036   4.073   5.351 -0.1760  2.4522  2.3021
  120OSM   H15T12614   7.105   3.923   5.412 -1.4783 -0.3859  1.8351
  120OSM   C16S12615   7.252   4.059   5.327  0.5948 -0.9250 -0.2937
  120OSM   H16S12616   7.231   4.012   5.229 -1.1078 -1.5180  0.3095
  120OSM   H16T12617   7.333   4.007   5.382 -1.1494 -0.5203  2.9558
  120OSM   C17S12618   7.289   4.206   5.311 -0.2167  0.0261  0.4395
  120OSM   H17S12619   7.392   4.211   5.270 -1.5657  0.7572 -3.3089
  120OSM   H17T12620   7.287   4.261   5.407  1.0788  1.7674 -0.4743
  120OSM   C18S12621   7.192   4.285   5.220  0.3022 -0.5413 -0.5706
  120OSM   H18S12622   7.203   4.273   5.110  0.5319 -1.0983 -0.4880
  120OSM   H18T12623   7.206   4.395   5.232  1.8354 -0.5689 -1.6994
  120OSM   H18U12624   7.087   4.264   5.247 -0.4200  2.5537 -0.6201
  120OSM    C1F12625   7.081   3.882   6.379 -0.3779 -0.4342 -0.0190
  120OSM     OF12626   7.005   3.790   6.386  0.3270 -0.4750 -0.2007
  120OSM    C2F12627   7.191   3.895   6.283  0.0360  0.5124  0.0566
  120OSM    H2F12628   7.292   3.896   6.330 -0.3413 -0.1530  0.9247
  120OSM    H2G12629   7.176   3.990   6.228  0.4651  0.2614 -0.5071
  120OSM    C3F12630   7.198   3.778   6.188 -0.4874 -0.2838 -0.7407
  120OSM    H3F12631   7.125   3.789   6.105  0.8751  2.0298 -1.7315
  120OSM    H3G12632   7.191   3.678   6.236 -0.0483  0.3757  0.7913
  120OSM    C4F12633   7.335   3.785   6.110 -0.5028 -0.7492 -0.0972
  120OSM    H4F12634   7.420   3.760   6.177  1.9320  1.6101 -2.0655
  120OSM    H4G12635   7.347   3.893   6.087  0.9010 -0.8222  0.2057
  120OSM    C5F12636   7.351   3.709   5.980  1.0109 -0.5445  0.2810
  120OSM    H5F12637   7.323   3.608   6.016  3.4501 -0.8398  1.5679
  120OSM    H5G12638   7.459   3.698   5.956  0.8128  2.4234 -2.6703
  120OSM    C6F12639   7.268   3.752   5.860  0.6903  0.0405  0.3968
  120OSM    H6F12640   7.317   3.845   5.825 -0.2430  0.7975  1.0665
  120OSM    H6G12641   7.171   3.795   5.893 -0.3482 -2.2525  0.5597
  120OSM    C7F12642   7.260   3.640   5.754 -0.4737 -0.8066 -0.5619
  120OSM    H7F12643   7.205   3.545   5.771  1.1378 -1.8834 -1.1025
  120OSM    H7G12644   7.364   3.604   5.770 -1.1567 -1.6918  2.7080
  120OSM    C8F12645   7.233   3.696   5.615 -1.0002 -0.3741 -0.2025
  120OSM    H8F12646   7.308   3.775   5.596  0.2070 -1.0009  1.6938
  120OSM    H8G12647   7.135   3.746   5.607 -1.3742 -1.1058 -0.2903
  120OSM    C9F12648   7.246   3.581   5.524 -0.4953 -0.2697  0.0174
  120OSM    H9F12649   7.221   3.486   5.572 -2.2512  0.3452  0.3918
  120OSM   C10F12650   7.296   3.586   5.395 -0.0095  0.6826 -0.0153
  120OSM   H10F12651   7.290   3.496   5.332 -4.1751 -0.5709  1.8240
  120OSM   C11F12652   7.329   3.705   5.312  0.5892  0.6145 -0.6197
  120OSM   H11F12653   7.437   3.724   5.295  0.7570  0.4706  0.2247
  120OSM   H11G12654   7.320   3.789   5.385  1.6502  0.1020  0.1399
  120OSM   C12F12655   7.248   3.721   5.179  0.0104  0.0496 -0.2338
  120OSM   H12F12656   7.299   3.654   5.107 -0.9294 -0.0598 -0.8238
  120OSM   H12G12657   7.251   3.822   5.133 -0.4781 -0.5751 -1.7094
  120OSM   C13F12658   7.103   3.690   5.188  0.7157 -0.0676 -0.6337
  120OSM   H13F12659   7.059   3.737   5.279 -2.3403  0.8333 -2.4236
  120OSM   H13G12660   7.084   3.581   5.191 -1.2316  0.2577  0.5706
  120OSM   C14F12661   7.027   3.744   5.067 -0.3191  0.3259 -0.8200
  120OSM   H14F12662   7.039   3.854   5.060 -0.8748  0.4408 -0.0219
  120OSM   H14G12663   6.925   3.707   5.087  0.4502 -1.9537 -0.7888
  120OSM   C15F12664   7.067   3.680   4.936 -0.3226  0.2713  0.0176
  120OSM   H15F12665   7.162   3.717   4.892 -0.3194 -0.9203 -1.0148
  120OSM   H15G12666   6.983   3.711   4.870 -1.2935 -1.2453  0.4944
  120OSM   C16F12667   7.070   3.527   4.919 -0.3242 -0.6339 -0.9163
  120OSM   H16F12668   6.997   3.480   4.990  0.6333  0.2232  0.7001
  120OSM   H16G12669   7.166   3.490   4.961 -0.2641  0.1547 -0.3322
  120OSM   C17F12670   7.049   3.476   4.778 -0.2440 -0.2117  0.3010
  120OSM   H17F12671   7.116   3.532   4.709  0.2631  0.7300  1.5334
  120OSM   H17G12672   6.946   3.508   4.750  0.2369 -0.4470 -1.8897
  120OSM   C18F12673   7.070   3.320   4.766 -0.0227 -0.0930  0.9417
  120OSM   H18F12674   7.054   3.272   4.667 -2.4383 -1.8665  2.1142
  120OSM   H18G12675   6.992   3.264   4.822  1.0818 -0.1023  2.5433
  120OSM   H18H12676   7.169   3.288   4.807 -0.4855  1.9262  3.9821
  121OSM      N12677   1.536   4.848   7.099  0.1677 -0.1830  0.5893
  121OSM    C1512678   1.488   4.722   7.153 -0.1410  0.1784  0.2511
  121OSM   H15A12679   1.436   4.663   7.078  1.9919 -0.9574 -0.4217
  121OSM   H15B12680   1.424   4.736   7.239  1.3176  0.1404  1.3832
  121OSM   H15C12681   1.574   4.672   7.194 -2.6881 -2.3456  3.0450
  121OSM    C1412682   1.422   4.940   7.069  0.0601 -0.6803 -0.0433
  121OSM   H14A12683   1.374   4.966   7.162  2.5430  1.6846  0.7087
  121OSM   H14B12684   1.347   4.897   7.004 -2.3838 -0.9316  2.7119
  121OSM   H14C12685   1.452   5.029   7.016 -1.9181 -0.2567 -0.5323
  121OSM    C1312686   1.632   4.912   7.196 -0.7885 -0.0970  0.1678
  121OSM   H13A12687   1.577   4.945   7.283 -0.3635 -0.6174  0.6436
  121OSM   H13B12688   1.667   5.003   7.149  0.6391 -0.9370 -0.4445
  121OSM   H13C12689   1.717   4.853   7.223  1.4664  2.8471  0.0095
  121OSM    C1212690   1.610   4.825   6.975 -0.0724 -0.2739  0.5045
  121OSM   H12A12691   1.691   4.755   6.995 -0.4492 -0.4533  1.4700
  121OSM   H12B12692   1.655   4.918   6.945  1.0373 -0.7444  0.6533
  121OSM    C1112693   1.545   4.764   6.850  0.0761  0.8676  0.4827
  121OSM   H11A12694   1.605   4.774   6.757 -0.5439 -0.6521 -0.1136
  121OSM   H11B12695   1.460   4.831   6.825 -0.2544  0.3604  0.2303
  121OSM      P12696   1.601   4.511   6.886  0.0650 -0.5363 -0.3965
  121OSM    O1312697   1.684   4.548   7.005 -0.2915  0.8045 -0.5081
  121OSM    O1412698   1.536   4.377   6.883 -0.6390  0.0768 -0.0182
  121OSM    O1112699   1.702   4.525   6.772 -0.6360  0.1149  0.2940
  121OSM    O1212700   1.500   4.628   6.870 -0.6493  0.0561  0.5517
  121OSM    C1S12701   1.672   4.527   6.631 -0.1293 -0.0864  0.4132
  121OSM    H1S12702   1.631   4.628   6.612 -0.7022 -0.1631  1.2074
  121OSM    H1T12703   1.596   4.452   6.600 -1.4015  1.7564 -1.1056
  121OSM     NF12704   1.792   4.555   6.419 -0.1456  0.2690  0.9411
  121OSM    HNF12705   1.760   4.500   6.342  1.8355  0.2176  0.0824
  121OSM    C2S12706   1.808   4.498   6.551 -0.3317 -0.1552  0.7953
  121OSM    H2S12707   1.888   4.554   6.604 -0.8864  2.3013 -0.7683
  121OSM    C3S12708   1.854   4.346   6.568 -0.2121 -0.1145  0.8125
  121OSM    H3S12709   1.774   4.286   6.521  0.0788 -0.4420  0.7304
  121OSM     O312710   1.863   4.300   6.701 -0.1355  0.5105 -0.4644
  121OSM    HO312711   1.810   4.362   6.752 -1.5722 -2.4587  1.9292
  121OSM    C4S12712   1.983   4.323   6.493  1.1848 -0.3526 -0.0788
  121OSM    H4S12713   1.973   4.334   6.384  0.8933 -0.7386 -0.0949
  121OSM    C5S12714   2.105   4.295   6.546 -0.1038 -0.4294 -0.3112
  121OSM    H5S12715   2.123   4.296   6.655  0.3977 -0.2200 -0.3925
  121OSM    C6S12716   2.237   4.292   6.470  0.3037  0.2528 -0.5154
  121OSM    H6S12717   2.307   4.212   6.502 -0.0163  0.2149  0.1175
  121OSM    H6T12718   2.290   4.389   6.485  0.6744  0.1946 -1.3982
  121OSM    C7S12719   2.231   4.273   6.317  0.3467 -1.1021 -0.0955
  121OSM    H7S12720   2.328   4.305   6.274  0.7006 -1.3684  0.4942
  121OSM    H7T12721   2.165   4.345   6.265  1.6751  0.0663 -0.2233
  121OSM    C8S12722   2.214   4.127   6.268  0.1136  0.2318 -0.1341
  121OSM    H8S12723   2.117   4.094   6.311 -0.3006  1.3850 -0.1451
  121OSM    H8T12724   2.289   4.072   6.328 -0.2050  0.3221  0.3553
  121OSM    C9S12725   2.232   4.095   6.123 -0.2737 -0.6130  1.1841
  121OSM    H9S12726   2.266   3.990   6.120  0.8522 -0.2662 -1.2896
  121OSM    H9T12727   2.326   4.143   6.087 -0.8319  0.0538  0.5824
  121OSM   C10S12728   2.124   4.132   6.024  0.1668  0.3397  0.4074
  121OSM   H10S12729   2.131   4.242   6.013  2.7501  0.3331  1.3407
  121OSM   H10T12730   2.019   4.109   6.051 -0.7749  0.5920 -2.6470
  121OSM   C11S12731   2.147   4.065   5.887  0.7639  0.2657  0.1451
  121OSM   H11S12732   2.058   4.070   5.821 -0.2097  1.0059  1.4743
  121OSM   H11T12733   2.166   3.956   5.903  1.9174  0.2381 -1.2377
  121OSM   C12S12734   2.269   4.110   5.810  0.1534 -0.4130 -0.3570
  121OSM   H12S12735   2.364   4.087   5.863  0.8384  3.2130  0.2433
  121OSM   H12T12736   2.264   4.220   5.800 -1.5930 -0.5245 -1.0206
  121OSM   C13S12737   2.268   4.057   5.669  0.3808 -0.4962  0.3621
  121OSM   H13S12738   2.168   4.075   5.626  0.9522  0.2933 -0.6821
  121OSM   H13T12739   2.285   3.948   5.671  0.0699 -0.5425  1.7478
  121OSM   C14S12740   2.373   4.144   5.591  0.5594  0.4344  0.3571
  121OSM   H14S12741   2.474   4.131   5.634  0.0122 -1.1144  1.2522
  121OSM   H14T12742   2.345   4.250   5.604  0.0065  0.4332 -0.6925
  121OSM   C15S12743   2.388   4.115   5.445  0.0344 -0.9079 -0.7524
  121OSM   H15S12744   2.291   4.095   5.394 -1.1358 -1.0501  1.3876
  121OSM   H15T12745   2.456   4.028   5.441  0.6868 -0.6272  1.8762
  121OSM   C16S12746   2.469   4.226   5.367  0.0551 -0.8708 -1.1627
  121OSM   H16S12747   2.553   4.262   5.430 -2.1756  0.5380  1.2436
  121OSM   H16T12748   2.411   4.320   5.353 -1.6106 -1.7253 -0.4089
  121OSM   C17S12749   2.512   4.184   5.232  0.1345  0.1527  1.1342
  121OSM   H17S12750   2.414   4.179   5.181  0.2512  2.3320  0.6299
  121OSM   H17T12751   2.568   4.088   5.232  0.8311  0.5172 -0.8213
  121OSM   C18S12752   2.605   4.280   5.176 -0.0283 -0.1229  0.3727
  121OSM   H18S12753   2.689   4.308   5.244  0.3187  0.6808 -0.3709
  121OSM   H18T12754   2.551   4.376   5.164 -0.8944 -0.6731 -0.2046
  121OSM   H18U12755   2.643   4.256   5.074 -0.9451 -1.6234  0.3672
  121OSM    C1F12756   1.782   4.684   6.406 -0.0718  0.3140 -0.0791
  121OSM     OF12757   1.813   4.765   6.495 -0.5553  0.1536 -0.0399
  121OSM    C2F12758   1.730   4.734   6.282  1.1896  0.0259  0.2024
  121OSM    H2F12759   1.631   4.687   6.266  0.4368  1.0629  1.5980
  121OSM    H2G12760   1.776   4.683   6.195 -1.4125 -0.0299 -1.2418
  121OSM    C3F12761   1.729   4.883   6.260 -0.1592 -0.9536  0.1895
  121OSM    H3F12762   1.833   4.920   6.249 -0.8416  1.1209  0.2291
  121OSM    H3G12763   1.690   4.928   6.354  0.4976  0.0601 -0.0062
  121OSM    C4F12764   1.633   4.927   6.150  0.2126 -0.0610  0.0626
  121OSM    H4F12765   1.620   5.037   6.164 -0.2600 -0.2396  1.0725
  121OSM    H4G12766   1.531   4.885   6.157  0.3548 -0.7548 -1.4369
  121OSM    C5F12767   1.691   4.909   6.013  0.0829 -0.5347 -0.2722
  121OSM    H5F12768   1.700   4.801   5.987  0.0507 -0.6556  0.2185
  121OSM    H5G12769   1.795   4.949   6.012  0.4301 -1.3666 -2.1141
  121OSM    C6F12770   1.615   4.964   5.895  0.2461  0.6064 -0.5850
  121OSM    H6F12771   1.578   5.064   5.924 -1.2182  0.3643 -1.5010
  121OSM    H6G12772   1.519   4.909   5.885  1.4020 -1.5393 -0.5622
  121OSM    C7F12773   1.695   4.965   5.768  0.1360  0.0980  0.7778
  121OSM    H7F12774   1.721   4.860   5.743 -1.1936 -0.3541  1.2253
  121OSM    H7G12775   1.791   5.016   5.794  0.3375 -0.2923  0.8142
  121OSM    C8F12776   1.625   5.022   5.652  0.2412 -0.5131  0.3954
  121OSM    H8F12777   1.698   5.035   5.569 -1.3044  0.7932 -0.8137
  121OSM    H8G12778   1.586   5.124   5.672  0.2570  0.1202 -2.3569
  121OSM    C9F12779   1.509   4.935   5.605 -0.4518 -0.4799 -0.1329
  121OSM    H9F12780   1.410   4.945   5.653 -0.4301 -3.8132  0.8972
  121OSM   C10F12781   1.517   4.856   5.496 -0.1708  0.0909 -0.2494
  121OSM   H10F12782   1.425   4.798   5.478 -0.3474  0.2695  0.0638
  121OSM   C11F12783   1.636   4.825   5.404  0.5147 -0.3714 -0.0122
  121OSM   H11F12784   1.606   4.732   5.352  1.1827 -0.9255  0.5786
  121OSM   H11G12785   1.722   4.792   5.465  0.6537  0.6919  0.3974
  121OSM   C12F12786   1.675   4.922   5.297 -0.8354 -0.5739 -0.0299
  121OSM   H12F12787   1.758   4.869   5.245 -0.7285 -0.4582  0.0213
  121OSM   H12G12788   1.741   5.007   5.325  0.1365 -1.3969  0.2336
  121OSM   C13F12789   1.562   4.972   5.204 -0.2509  0.6647 -0.1715
  121OSM   H13F12790   1.473   4.994   5.267  0.0575 -2.1442  1.4511
  121OSM   H13G12791   1.531   4.880   5.149 -0.5046 -0.4627  1.7739
  121OSM   C14F12792   1.593   5.078   5.107 -0.2783 -0.1857 -0.8458
  121OSM   H14F12793   1.688   5.054   5.053 -0.2243 -1.4454 -0.2411
  121OSM   H14G12794   1.616   5.164   5.174 -0.6234 -2.2412  2.1024
  121OSM   C15F12795   1.475   5.124   5.016  0.9634  0.3420 -0.0520
  121OSM   H15F12796   1.502   5.215   4.958 -0.5321  0.9662  0.1694
  121OSM   H15G12797   1.383   5.151   5.073  1.3153  0.1029  0.6348
  121OSM   C16F12798   1.446   5.015   4.912 -0.1428 -0.2837 -0.1077
  121OSM   H16F12799   1.360   5.058   4.856 -0.2099  0.3983  0.4944
  121OSM   H16G12800   1.423   4.923   4.969  1.0362 -0.5991 -0.1179
  121OSM   C17F12801   1.558   4.988   4.806 -0.2431 -0.0275 -0.1437
  121OSM   H17F12802   1.638   4.930   4.857 -0.1330  0.8596  0.7234
  121OSM   H17G12803   1.611   5.078   4.768  0.0749 -0.9499 -2.0467
  121OSM   C18F12804   1.511   4.915   4.672  0.0959 -0.0315  0.0880
  121OSM   H18F12805   1.595   4.920   4.600 -1.3911  1.1589 -1.6886
  121OSM   H18G12806   1.433   4.986   4.636 -0.7135 -0.3336  1.1810
  121OSM   H18H12807   1.474   4.812   4.689 -2.3341  0.5154 -1.3455
  122OSM      N12808   1.288   1.167   7.194 -0.2743  0.2148  0.1447
  122OSM    C1512809   1.189   1.149   7.305 -0.3723  0.1417  0.8716
  122OSM   H15A12810   1.142   1.051   7.312 -0.5718  0.1267 -0.4215
  122OSM   H15B12811   1.117   1.226   7.281 -1.7472 -1.3243  0.0380
  122OSM   H15C12812   1.237   1.163   7.401  0.5629  0.3721  0.3812
  122OSM    C1412813   1.366   1.287   7.201 -0.3108 -0.3310  0.5204
  122OSM   H14A12814   1.448   1.280   7.271 -0.0133  1.6350  0.4234
  122OSM   H14B12815   1.318   1.382   7.215  3.7311  1.9923  0.0544
  122OSM   H14C12816   1.417   1.304   7.107 -0.5650 -0.2224  0.4013
  122OSM    C1312817   1.384   1.055   7.197 -0.3942  1.1576  0.3683
  122OSM   H13A12818   1.337   0.960   7.177  2.3035  0.0544 -1.4035
  122OSM   H13B12819   1.421   1.053   7.298 -0.3464  0.6790  0.3442
  122OSM   H13C12820   1.449   1.066   7.111  0.4161  0.3007  0.8596
  122OSM    C1212821   1.216   1.168   7.057 -0.3702  0.4109 -0.5309
  122OSM   H12A12822   1.131   1.235   7.062 -1.3908 -0.9176  1.3308
  122OSM   H12B12823   1.181   1.067   7.042  1.2390 -0.1179 -0.8489
  122OSM    C1112824   1.299   1.190   6.931 -0.6077  0.0523  0.1559
  122OSM   H11A12825   1.358   1.283   6.947 -1.0049 -0.1743  3.7343
  122OSM   H11B12826   1.230   1.203   6.845 -0.3328  0.5813  0.0094
  122OSM      P12827   1.342   0.946   6.844 -0.0254 -0.2197 -0.2797
  122OSM    O1312828   1.460   0.858   6.857 -0.3860 -0.3673  0.0897
  122OSM    O1412829   1.222   0.903   6.912 -0.2600 -0.1669  0.1222
  122OSM    O1112830   1.304   0.986   6.701  0.8390 -0.0457  0.1954
  122OSM    O1212831   1.393   1.085   6.908 -0.4415 -0.5927  0.2826
  122OSM    C1S12832   1.410   0.942   6.610 -0.9789  0.3876  0.0212
  122OSM    H1S12833   1.434   0.834   6.624  3.5366  1.2896  0.9561
  122OSM    H1T12834   1.504   0.998   6.630 -2.1703  2.7061 -0.4933
  122OSM     NF12835   1.479   0.910   6.377 -0.3373 -0.0598 -0.0690
  122OSM    HNF12836   1.537   0.970   6.323 -1.5239  1.8147  0.6448
  122OSM    C2S12837   1.374   0.974   6.463  0.1734  0.2397  0.9921
  122OSM    H2S12838   1.278   0.922   6.440  1.1626 -0.7971 -1.0594
  122OSM    C3S12839   1.349   1.129   6.436  0.6889 -0.2475 -0.2869
  122OSM    H3S12840   1.446   1.183   6.430 -0.6773  2.4410  0.2819
  122OSM     O312841   1.282   1.199   6.541 -0.3757  0.0344  0.0448
  122OSM    HO312842   1.276   1.137   6.613 -3.2226  0.0301 -0.0892
  122OSM    C4S12843   1.271   1.144   6.307  0.2083 -0.3484 -0.2108
  122OSM    H4S12844   1.169   1.105   6.312 -0.0091  0.3315  0.9264
  122OSM    C5S12845   1.315   1.194   6.190 -0.0219  1.1659  0.2597
  122OSM    H5S12846   1.417   1.237   6.187  0.0361  1.0018 -0.4329
  122OSM    C6S12847   1.236   1.212   6.056  0.7789  0.2057 -0.5188
  122OSM    H6S12848   1.130   1.184   6.073  0.7183  0.1997 -0.9137
  122OSM    H6T12849   1.276   1.156   5.969 -1.1078 -1.2133 -0.5383
  122OSM    C7S12850   1.228   1.359   6.016  0.0731 -0.2205  0.0310
  122OSM    H7S12851   1.329   1.389   5.982  0.7673 -2.3409  0.1163
  122OSM    H7T12852   1.205   1.426   6.101  1.5926 -1.4596  1.4876
  122OSM    C8S12853   1.120   1.384   5.904 -0.2852 -0.0672  0.3020
  122OSM    H8S12854   1.024   1.408   5.954 -0.5357  1.3614 -0.8152
  122OSM    H8T12855   1.097   1.287   5.856 -1.1537 -1.1357  2.7020
  122OSM    C9S12856   1.161   1.502   5.812 -0.1932 -0.3581 -0.8026
  122OSM    H9S12857   1.254   1.482   5.755  0.2124  0.4238 -0.4331
  122OSM    H9T12858   1.195   1.589   5.872 -0.1248 -1.5135  0.9109
  122OSM   C10S12859   1.050   1.548   5.711 -0.3543  0.2439 -0.3458
  122OSM   H10S12860   1.085   1.642   5.662 -1.8334  1.5224  0.9646
  122OSM   H10T12861   0.959   1.579   5.766 -0.0878 -0.7344  0.6655
  122OSM   C11S12862   1.020   1.444   5.608  0.2387 -0.7111 -0.6947
  122OSM   H11S12863   0.969   1.366   5.668 -0.5138 -0.9862 -1.6666
  122OSM   H11T12864   1.118   1.410   5.566  0.3206  0.9768 -1.9874
  122OSM   C12S12865   0.935   1.486   5.486  0.2334  0.6130 -0.0452
  122OSM   H12S12866   0.936   1.401   5.415  1.0109  1.5376 -1.1804
  122OSM   H12T12867   0.981   1.572   5.432  1.8283  0.6413  1.2757
  122OSM   C13S12868   0.785   1.510   5.517 -0.4524 -0.2306 -0.0567
  122OSM   H13S12869   0.768   1.578   5.602  0.5947  1.3632 -1.0533
  122OSM   H13T12870   0.744   1.418   5.564  3.7173 -0.4648  3.7641
  122OSM   C14S12871   0.700   1.545   5.393 -0.2521 -0.4652  0.1852
  122OSM   H14S12872   0.719   1.467   5.316 -1.2978 -0.5374 -0.0077
  122OSM   H14T12873   0.733   1.648   5.368  0.6633 -0.5595  0.9158
  122OSM   C15S12874   0.547   1.542   5.430 -0.5372 -0.1129 -0.0702
  122OSM   H15S12875   0.534   1.601   5.523 -1.4210  0.3880 -0.4947
  122OSM   H15T12876   0.504   1.446   5.463 -0.7239  0.6187  1.9374
  122OSM   C16S12877   0.469   1.598   5.310 -0.0187 -1.1744  0.9327
  122OSM   H16S12878   0.505   1.700   5.285 -0.1546 -1.5387 -0.8818
  122OSM   H16T12879   0.365   1.619   5.343  0.2195 -0.2835  1.1375
  122OSM   C17S12880   0.475   1.503   5.193  0.6877  0.3778  0.2360
  122OSM   H17S12881   0.581   1.502   5.160  0.1354 -1.8256 -1.7088
  122OSM   H17T12882   0.428   1.554   5.107 -0.2011  0.8514  0.9850
  122OSM   C18S12883   0.417   1.363   5.221 -0.2345 -0.0037 -0.8649
  122OSM   H18S12884   0.379   1.311   5.131 -1.4076  2.0159 -1.6027
  122OSM   H18T12885   0.337   1.381   5.297  1.5992  2.5676  0.6363
  122OSM   H18U12886   0.497   1.301   5.267  1.0527  1.7553 -0.6046
  122OSM    C1F12887   1.496   0.771   6.376 -0.2575 -0.0552 -0.2046
  122OSM     OF12888   1.429   0.694   6.444  0.5936 -0.1661  0.5038
  122OSM    C2F12889   1.597   0.715   6.277  0.5410  0.3252  0.4323
  122OSM    H2F12890   1.654   0.640   6.336  1.3143  0.7699  0.2565
  122OSM    H2G12891   1.661   0.802   6.251 -1.1455  2.2716  2.3319
  122OSM    C3F12892   1.541   0.648   6.146 -0.6213  0.8158 -0.8666
  122OSM    H3F12893   1.485   0.557   6.177  1.6622 -0.0451  1.1481
  122OSM    H3G12894   1.632   0.617   6.089  0.4002 -1.4768  1.7787
  122OSM    C4F12895   1.468   0.750   6.061 -0.1869  0.4878 -0.1712
  122OSM    H4F12896   1.519   0.846   6.084  0.0864 -0.0211  1.5142
  122OSM    H4G12897   1.363   0.752   6.097 -0.1086  0.2264  0.0869
  122OSM    C5F12898   1.477   0.721   5.912  0.2987 -1.4336  1.0900
  122OSM    H5F12899   1.426   0.631   5.871 -1.6365  0.4130 -0.8096
  122OSM    H5G12900   1.578   0.732   5.867  0.1367 -0.5062  0.9256
  122OSM    C6F12901   1.402   0.821   5.825  1.0636  0.2507 -0.0413
  122OSM    H6F12902   1.402   0.781   5.721 -1.1974  0.9655 -0.3761
  122OSM    H6G12903   1.457   0.917   5.822 -1.3012  1.6909 -3.1671
  122OSM    C7F12904   1.252   0.843   5.858 -0.3601 -0.2281 -0.0810
  122OSM    H7F12905   1.255   0.892   5.958 -1.0619 -0.7314  0.1972
  122OSM    H7G12906   1.196   0.747   5.861 -1.9600  0.6537 -0.9104
  122OSM    C8F12907   1.192   0.939   5.758 -0.1251 -0.9894  0.4209
  122OSM    H8F12908   1.235   0.900   5.663  1.3628 -0.5485  0.8856
  122OSM    H8G12909   1.242   1.036   5.778  1.9064 -2.3096  2.2978
  122OSM    C9F12910   1.042   0.944   5.753 -0.2500 -0.0825 -0.2776
  122OSM    H9F12911   0.988   0.926   5.847 -0.6296 -1.3508 -0.7220
  122OSM   C10F12912   0.964   0.956   5.643 -0.1841  0.2790 -1.2121
  122OSM   H10F12913   0.859   0.958   5.676  0.7563  0.2219  2.1409
  122OSM   C11F12914   1.017   0.966   5.507 -0.1865 -0.1143  0.8546
  122OSM   H11F12915   0.983   0.879   5.448  0.4890  1.1154 -1.4847
  122OSM   H11G12916   1.128   0.971   5.506 -0.1575 -0.4890 -0.8199
  122OSM   C12F12917   0.949   1.085   5.429 -0.5793  0.3922  0.2241
  122OSM   H12F12918   0.968   1.179   5.485  2.3612  0.0583 -0.0794
  122OSM   H12G12919   0.839   1.069   5.421 -0.4572 -1.0399  1.0846
  122OSM   C13F12920   0.991   1.116   5.280  0.3202  0.2405 -0.4430
  122OSM   H13F12921   1.101   1.128   5.279  0.2500  0.9715 -0.4641
  122OSM   H13G12922   0.941   1.212   5.253 -0.7492 -0.2376 -0.2286
  122OSM   C14F12923   0.962   1.005   5.178  0.3801 -0.4462 -0.6606
  122OSM   H14F12924   0.854   0.980   5.192  0.0610  2.3238  3.5484
  122OSM   H14G12925   1.019   0.913   5.205  3.8659  1.3303 -1.4793
  122OSM   C15F12926   0.992   1.035   5.033  0.1395 -0.5314  0.2659
  122OSM   H15F12927   0.972   0.940   4.978 -0.2326 -0.3065  0.0058
  122OSM   H15G12928   1.095   1.075   5.026 -1.1248  3.5193  2.0016
  122OSM   C16F12929   0.889   1.123   4.964  0.3942  0.1508  0.2531
  122OSM   H16F12930   0.883   1.221   5.015  0.2018 -0.2701  1.0549
  122OSM   H16G12931   0.788   1.086   4.991  0.5476 -0.8034 -0.4320
  122OSM   C17F12932   0.915   1.157   4.819 -0.0927 -0.7603 -0.3443
  122OSM   H17F12933   0.948   1.065   4.765  0.4337 -0.5043 -0.4596
  122OSM   H17G12934   0.997   1.231   4.814 -0.6208  0.0621  1.7426
  122OSM   C18F12935   0.791   1.204   4.738 -0.1191 -1.0954 -0.4053
  122OSM   H18F12936   0.743   1.119   4.686 -0.1335 -0.4681 -1.4594
  122OSM   H18G12937   0.832   1.270   4.658  1.2451 -1.0871  0.2602
  122OSM   H18H12938   0.719   1.261   4.800 -0.1449 -2.0412  0.4510
  123OSM      N12939   4.204   1.845   1.834 -0.6665 -0.2029 -0.0635
  123OSM    C1512940   4.348   1.863   1.818  0.0565 -0.6346  0.3751
  123OSM   H15A12941   4.403   1.770   1.821 -0.0001 -0.8214 -2.0843
  123OSM   H15B12942   4.388   1.927   1.895  0.7271 -1.2876  0.5752
  123OSM   H15C12943   4.383   1.910   1.727  0.6154  0.2398  1.0263
  123OSM    C1412944   4.126   1.960   1.776  1.0797 -0.1608 -0.1337
  123OSM   H14A12945   4.150   2.057   1.816  1.7120 -0.3172 -0.1192
  123OSM   H14B12946   4.023   1.943   1.804  0.2119 -1.0828 -3.4689
  123OSM   H14C12947   4.115   1.950   1.669 -0.7632  0.9808 -0.0933
  123OSM    C1312948   4.160   1.716   1.772 -0.3064  0.3158 -0.0166
  123OSM   H13A12949   4.236   1.641   1.790 -1.2591 -0.2667  1.8932
  123OSM   H13B12950   4.135   1.712   1.667 -0.7494  1.4307  0.0418
  123OSM   H13C12951   4.073   1.676   1.823  1.3783 -0.9902  2.0173
  123OSM    C1212952   4.179   1.841   1.992 -0.0968  0.1206  0.1220
  123OSM   H12A12953   4.197   1.737   2.012 -3.5897 -0.8688 -1.1808
  123OSM   H12B12954   4.075   1.862   2.016 -0.1795 -0.2325  0.0785
  123OSM    C1112955   4.260   1.930   2.094 -0.2914  0.6736  0.5568
  123OSM   H11A12956   4.195   1.925   2.183  0.0852 -0.3138  0.7976
  123OSM   H11B12957   4.262   2.035   2.058 -1.2395  0.5526  0.1272
  123OSM      P12958   4.460   1.779   2.195  0.0992  0.1551 -0.2533
  123OSM    O1312959   4.437   1.654   2.118 -0.6129 -0.2912 -0.9522
  123OSM    O1412960   4.601   1.813   2.219  0.1443 -0.6029 -0.5789
  123OSM    O1112961   4.378   1.777   2.324  0.7134 -0.6265 -0.6879
  123OSM    O1212962   4.395   1.890   2.109  0.3671  0.2269 -0.0566
  123OSM    C1S12963   4.362   1.897   2.410  0.1252 -0.5224 -0.1402
  123OSM    H1S12964   4.301   1.976   2.362  1.9685  0.7733 -0.4580
  123OSM    H1T12965   4.457   1.955   2.419 -0.5585  0.6003  0.1068
  123OSM     NF12966   4.289   1.978   2.635 -0.1943 -0.2282  0.4106
  123OSM    HNF12967   4.358   2.004   2.702 -1.3696 -2.3951  2.6404
  123OSM    C2S12968   4.321   1.860   2.553 -0.0685 -0.1743 -0.7116
  123OSM    H2S12969   4.229   1.797   2.548 -0.5842  0.2963  1.8120
  123OSM    C3S12970   4.423   1.763   2.618 -0.4634 -0.6116  0.1680
  123OSM    H3S12971   4.518   1.819   2.630 -0.6223 -0.7337  2.3477
  123OSM     O312972   4.463   1.645   2.545  0.0204  0.2760  0.3248
  123OSM    HO312973   4.439   1.663   2.454 -1.0076 -2.4165 -0.0215
  123OSM    C4S12974   4.370   1.717   2.764 -1.0212  0.0454  0.8220
  123OSM    H4S12975   4.263   1.704   2.781 -0.6276 -1.0783  2.7303
  123OSM    C5S12976   4.454   1.707   2.869  0.4412  0.3950 -0.0622
  123OSM    H5S12977   4.560   1.730   2.852  0.5460  0.6172  0.8204
  123OSM    C6S12978   4.414   1.683   3.008  0.1148 -0.3997  0.6649
  123OSM    H6S12979   4.483   1.603   3.042 -0.1473 -1.3799 -1.0033
  123OSM    H6T12980   4.306   1.664   3.027 -0.0036  1.9915  3.0154
  123OSM    C7S12981   4.441   1.811   3.085 -0.5222 -0.4490 -0.9981
  123OSM    H7S12982   4.390   1.904   3.052  1.6259  0.4051 -2.1652
  123OSM    H7T12983   4.546   1.837   3.060 -0.1286  2.1578  2.5991
  123OSM    C8S12984   4.425   1.794   3.235 -0.5923 -0.4305 -0.9911
  123OSM    H8S12985   4.413   1.688   3.267 -0.0778  0.0235  0.8170
  123OSM    H8T12986   4.343   1.847   3.287  2.0051  4.6363 -1.3989
  123OSM    C9S12987   4.557   1.849   3.297  0.7878  0.0719 -0.4550
  123OSM    H9S12988   4.580   1.954   3.270 -1.7471  1.0266  0.7379
  123OSM    H9T12989   4.639   1.778   3.271  1.3497  0.0633  1.1822
  123OSM   C10S12990   4.550   1.842   3.456  1.2491 -0.3433 -0.0088
  123OSM   H10S12991   4.645   1.876   3.503  0.7036 -0.0542  0.9294
  123OSM   H10T12992   4.536   1.737   3.491  1.9730 -1.1529 -2.0311
  123OSM   C11S12993   4.449   1.942   3.515  0.3322 -0.9238 -0.2816
  123OSM   H11S12994   4.364   1.952   3.444  0.5085  3.9092 -0.1331
  123OSM   H11T12995   4.489   2.046   3.520  1.8820 -1.4789 -0.5039
  123OSM   C12S12996   4.412   1.895   3.658  0.6360 -0.6041  0.0287
  123OSM   H12S12997   4.513   1.886   3.704  1.5514 -0.4500 -1.8352
  123OSM   H12T12998   4.369   1.793   3.652  1.0125 -0.8048  0.7054
  123OSM   C13S12999   4.331   1.991   3.741  0.5025 -1.0293  0.2675
  123OSM   H13S13000   4.227   2.002   3.704  0.2459  1.1495  1.4098
  123OSM   H13T13001   4.376   2.093   3.730 -1.3786 -0.1590  0.2360
  123OSM   C14S13002   4.315   1.952   3.893 -0.3108  0.1557 -0.6595
  123OSM   H14S13003   4.417   1.933   3.934 -0.8301 -0.0016  0.6008
  123OSM   H14T13004   4.265   1.854   3.909 -0.8167  0.4119 -0.6535
  123OSM   C15S13005   4.238   2.056   3.976 -0.1675 -0.7794  0.4587
  123OSM   H15S13006   4.134   2.059   3.936  0.4850 -1.0593 -1.3772
  123OSM   H15T13007   4.290   2.154   3.964 -1.0643 -0.3357  0.0884
  123OSM   C16S13008   4.243   2.025   4.126 -0.6909  0.1985  0.2529
  123OSM   H16S13009   4.345   2.031   4.170 -1.3430 -2.1009  2.2892
  123OSM   H16T13010   4.217   1.918   4.141  1.2611 -0.2128  1.0222
  123OSM   C17S13011   4.150   2.106   4.221 -0.6605  0.3379 -0.4242
  123OSM   H17S13012   4.160   2.216   4.215 -1.8115  0.4659 -0.1482
  123OSM   H17T13013   4.163   2.069   4.325 -0.1448 -0.1525 -0.6576
  123OSM   C18S13014   4.007   2.071   4.191  0.1894  0.2151  0.1166
  123OSM   H18S13015   3.972   2.113   4.095  2.2444  1.9993  0.0593
  123OSM   H18T13016   3.944   2.130   4.261 -0.0399  2.0954 -1.5756
  123OSM   H18U13017   3.975   1.965   4.199 -0.1778  0.1637 -1.6858
  123OSM    C1F13018   4.193   2.061   2.593 -0.4787 -0.1054 -0.0710
  123OSM     OF13019   4.114   2.018   2.509  0.3186 -0.0145 -0.4564
  123OSM    C2F13020   4.183   2.198   2.650  0.2169 -0.6226 -0.0501
  123OSM    H2F13021   4.180   2.274   2.570 -1.9540 -0.5879  0.0097
  123OSM    H2G13022   4.265   2.225   2.720 -0.0058  1.8322 -0.6433
  123OSM    C3F13023   4.048   2.199   2.727 -0.1955  0.2697  0.2798
  123OSM    H3F13024   3.964   2.189   2.654  2.6582 -1.7615 -3.0275
  123OSM    H3G13025   4.045   2.293   2.786  2.0563 -0.2047  1.2412
  123OSM    C4F13026   4.027   2.081   2.831 -0.1084  0.0191  0.2042
  123OSM    H4F13027   4.059   1.981   2.793  0.2315  1.1704 -2.7960
  123OSM    H4G13028   3.918   2.077   2.848 -0.2666  0.6746 -0.6071
  123OSM    C5F13029   4.098   2.102   2.968  0.1155  1.0183 -0.0407
  123OSM    H5F13030   4.047   2.187   3.017  0.2882  0.3136  1.4342
  123OSM    H5G13031   4.201   2.135   2.942  0.3204  1.7253  1.5468
  123OSM    C6F13032   4.090   1.970   3.049 -0.3959 -0.0911  0.3111
  123OSM    H6F13033   4.174   1.964   3.122 -0.2965 -1.8252  0.1076
  123OSM    H6G13034   4.109   1.879   2.988 -3.7017 -1.0257  0.4809
  123OSM    C7F13035   3.957   1.966   3.129 -1.4679 -0.7014  0.1376
  123OSM    H7F13036   3.881   1.944   3.051 -0.5541 -3.8122 -0.0367
  123OSM    H7G13037   3.929   2.064   3.173  0.5743  0.5873 -1.2905
  123OSM    C8F13038   3.955   1.853   3.228 -0.2040  0.2761 -0.0622
  123OSM    H8F13039   3.969   1.757   3.174  1.5190  1.3148 -1.5780
  123OSM    H8G13040   3.850   1.852   3.262 -0.4090  1.1291 -0.6486
  123OSM    C9F13041   4.046   1.858   3.346 -0.8190  0.1612  0.5453
  123OSM    H9F13042   4.107   1.949   3.354 -0.7824  0.0379  1.8222
  123OSM   C10F13043   4.082   1.769   3.437  0.0357 -0.1765  0.2282
  123OSM   H10F13044   4.159   1.807   3.505  1.2261  1.8166 -2.0757
  123OSM   C11F13045   4.029   1.626   3.450  0.4673 -0.7858  0.3133
  123OSM   H11F13046   3.941   1.618   3.382 -2.4961  0.1818  3.7229
  123OSM   H11G13047   3.985   1.619   3.552  2.2468 -2.5315  1.0183
  123OSM   C12F13048   4.123   1.511   3.422  0.7385  0.0751  0.5513
  123OSM   H12F13049   4.168   1.513   3.321 -1.8019  1.2133 -0.6355
  123OSM   H12G13050   4.050   1.427   3.430 -2.1193  2.2887 -0.4713
  123OSM   C13F13051   4.230   1.512   3.529  0.2594 -0.8041  0.2602
  123OSM   H13F13052   4.193   1.499   3.633  2.0388  2.5223  1.4837
  123OSM   H13G13053   4.270   1.616   3.531  0.2016 -0.6709 -2.3221
  123OSM   C14F13054   4.345   1.414   3.506 -0.3314  1.2569 -0.1733
  123OSM   H14F13055   4.422   1.431   3.585 -0.4703  1.3874 -0.0670
  123OSM   H14G13056   4.406   1.421   3.413 -0.7384  0.0958 -0.5437
  123OSM   C15F13057   4.300   1.267   3.527 -0.4675 -0.3492 -0.1205
  123OSM   H15F13058   4.254   1.239   3.430 -1.0390  0.6619 -0.1585
  123OSM   H15G13059   4.216   1.267   3.601 -1.6946  1.9608 -1.3920
  123OSM   C16F13060   4.411   1.183   3.591 -0.2957  0.1391 -0.4552
  123OSM   H16F13061   4.405   1.183   3.702  0.5909  0.1309 -0.3981
  123OSM   H16G13062   4.507   1.230   3.562 -0.2330  0.5562  0.3882
  123OSM   C17F13063   4.385   1.032   3.565  0.4359 -0.1388  0.2211
  123OSM   H17F13064   4.477   0.980   3.599 -1.0342 -3.1210 -0.0271
  123OSM   H17G13065   4.381   1.015   3.455  0.3240 -1.8096  0.4521
  123OSM   C18F13066   4.249   0.989   3.633 -0.8494  0.3793  0.0785
  123OSM   H18F13067   4.244   1.029   3.737 -0.6493  0.3819  0.0873
  123OSM   H18G13068   4.233   0.879   3.638  1.5134 -0.2059 -2.4608
  123OSM   H18H13069   4.163   1.030   3.576  0.3253  0.4536 -1.7342
  124OSM      N13070   2.334   1.952   1.844 -0.3232 -0.1985 -0.2640
  124OSM    C1513071   2.475   1.900   1.836 -0.1372 -0.5996  0.4103
  124OSM   H15A13072   2.536   1.957   1.768 -0.8378  1.3818  1.3757
  124OSM   H15B13073   2.478   1.794   1.814 -2.0039 -0.5439 -0.2565
  124OSM   H15C13074   2.528   1.892   1.930  0.5697 -4.8683 -0.1206
  124OSM    C1413075   2.332   2.094   1.892 -0.8666  0.2685 -0.0459
  124OSM   H14A13076   2.425   2.145   1.868 -0.1019  0.5891  3.2073
  124OSM   H14B13077   2.345   2.098   1.999  0.1296  2.1438 -0.1895
  124OSM   H14C13078   2.236   2.137   1.866  0.1688  2.9616  0.1881
  124OSM    C1313079   2.278   1.935   1.708 -0.1696 -0.4833 -0.1777
  124OSM   H13A13080   2.337   2.006   1.652  0.4238  0.0885  1.1250
  124OSM   H13B13081   2.173   1.961   1.696  0.1941  1.1042 -0.1967
  124OSM   H13C13082   2.294   1.837   1.666  1.2362 -1.6216  2.7497
  124OSM    C1213083   2.253   1.862   1.948 -0.4722  0.5138 -0.0166
  124OSM   H12A13084   2.259   1.759   1.915  1.2453  0.9808 -1.2965
  124OSM   H12B13085   2.148   1.884   1.932 -0.6687 -0.1599  0.2913
  124OSM    C1113086   2.299   1.868   2.096 -0.2728  0.5009 -0.1944
  124OSM   H11A13087   2.229   1.807   2.156 -0.7161 -1.6204 -2.7027
  124OSM   H11B13088   2.293   1.969   2.143 -1.5664  0.4624 -0.2415
  124OSM      P13089   2.455   1.662   2.119 -0.1346  0.2571  0.1616
  124OSM    O1313090   2.376   1.589   2.019  0.2345 -0.8754  0.3636
  124OSM    O1413091   2.598   1.629   2.119  0.1103 -0.3661  0.2537
  124OSM    O1113092   2.399   1.617   2.256  0.4040  0.4571  0.4911
  124OSM    O1213093   2.433   1.823   2.110  0.2386  0.0846 -0.5264
  124OSM    C1S13094   2.440   1.680   2.384  0.5069  0.6085  0.3959
  124OSM    H1S13095   2.367   1.761   2.401  0.0410  0.6364 -1.5393
  124OSM    H1T13096   2.533   1.738   2.373  1.3768 -1.0753 -2.1840
  124OSM     NF13097   2.476   1.671   2.614  0.3638  0.8083  0.6758
  124OSM    HNF13098   2.571   1.673   2.643  1.5521 -0.8756 -2.5709
  124OSM    C2S13099   2.445   1.584   2.505  0.0929  0.1422 -0.1976
  124OSM    H2S13100   2.348   1.531   2.519 -0.4230  0.1825 -3.0336
  124OSM    C3S13101   2.550   1.475   2.471  0.5916  0.6169 -0.6029
  124OSM    H3S13102   2.648   1.521   2.447  0.0085  0.7922 -2.8754
  124OSM     O313103   2.515   1.395   2.356  0.4380  0.4197 -0.2259
  124OSM    HO313104   2.444   1.443   2.315 -2.1838 -2.1041  1.0015
  124OSM    C4S13105   2.579   1.388   2.592 -0.1764  0.6678 -1.1048
  124OSM    H4S13106   2.659   1.423   2.660 -1.4988 -1.7044  1.9277
  124OSM    C5S13107   2.504   1.295   2.649 -0.5401  0.0703  0.0372
  124OSM    H5S13108   2.406   1.268   2.607 -0.2288 -1.6427  0.3245
  124OSM    C6S13109   2.540   1.232   2.783 -0.4601  0.2047  0.0414
  124OSM    H6S13110   2.651   1.236   2.795 -0.0542 -3.6568 -1.0758
  124OSM    H6T13111   2.514   1.124   2.777 -1.1300  0.4047 -0.7583
  124OSM    C7S13112   2.483   1.276   2.916 -0.5821 -0.2488  0.4780
  124OSM    H7S13113   2.374   1.296   2.910 -1.0172 -1.7411  2.3102
  124OSM    H7T13114   2.537   1.366   2.952 -0.0708 -0.3320 -0.0717
  124OSM    C8S13115   2.513   1.177   3.025 -0.7437 -0.3224 -0.3690
  124OSM    H8S13116   2.618   1.142   3.013 -0.2310  1.0381 -0.0085
  124OSM    H8T13117   2.451   1.085   3.020  0.4627 -1.1813 -0.0597
  124OSM    C9S13118   2.497   1.235   3.171  0.5507 -0.3420  0.3849
  124OSM    H9S13119   2.389   1.256   3.183  1.0117  1.7864  1.3368
  124OSM    H9T13120   2.542   1.337   3.180  2.2275 -1.1171  1.3875
  124OSM   C10S13121   2.545   1.138   3.282 -0.6269 -0.2980 -0.7490
  124OSM   H10S13122   2.651   1.105   3.274 -0.2795  0.6706 -0.3397
  124OSM   H10T13123   2.485   1.045   3.273  2.1451 -2.0384 -3.0126
  124OSM   C11S13124   2.542   1.196   3.422 -0.7595  0.3557  0.7930
  124OSM   H11S13125   2.562   1.115   3.496  0.7284  2.5586  2.9294
  124OSM   H11T13126   2.443   1.233   3.454 -0.6769  0.9846  0.3279
  124OSM   C12S13127   2.652   1.296   3.454  0.0276 -0.2155  0.2645
  124OSM   H12S13128   2.621   1.380   3.389  0.4792  0.5804  1.0478
  124OSM   H12T13129   2.755   1.274   3.421 -0.2391  1.2497 -1.7571
  124OSM   C13S13130   2.643   1.358   3.597  0.7655 -0.2145 -0.1630
  124OSM   H13S13131   2.539   1.393   3.613  1.1291  1.2971 -0.9719
  124OSM   H13T13132   2.711   1.445   3.586 -0.0925  0.3501 -1.1626
  124OSM   C14S13133   2.696   1.265   3.709 -0.0588 -0.1139  0.5397
  124OSM   H14S13134   2.799   1.235   3.678 -0.8044 -1.0488 -1.1996
  124OSM   H14T13135   2.629   1.176   3.701  0.4866 -0.5628  0.8372
  124OSM   C15S13136   2.674   1.323   3.845 -0.0398  0.1771 -0.2350
  124OSM   H15S13137   2.695   1.249   3.925  1.4867  1.3288  0.4817
  124OSM   H15T13138   2.566   1.344   3.862  0.3268  1.9033  0.1115
  124OSM   C16S13139   2.763   1.445   3.882  0.4765  0.6487 -0.6620
  124OSM   H16S13140   2.746   1.478   3.986 -1.0096 -0.1508 -0.6238
  124OSM   H16T13141   2.724   1.523   3.813 -0.6591 -0.6130 -1.5164
  124OSM   C17S13142   2.913   1.415   3.858 -0.5785  0.1689 -0.0110
  124OSM   H17S13143   2.935   1.408   3.749 -0.5760  0.5424 -0.0342
  124OSM   H17T13144   2.928   1.313   3.900  2.5401 -1.1296 -3.6552
  124OSM   C18S13145   3.009   1.515   3.925 -0.3152 -0.3500  0.3302
  124OSM   H18S13146   3.002   1.612   3.871 -1.3852 -0.2102  0.7036
  124OSM   H18T13147   3.114   1.478   3.925 -0.8050 -1.7836  0.7931
  124OSM   H18U13148   2.994   1.539   4.032 -0.6513 -1.3403  0.5204
  124OSM    C1F13149   2.398   1.760   2.666 -0.0576  0.5861 -0.6646
  124OSM     OF13150   2.290   1.788   2.619 -0.6060  0.8574 -0.1127
  124OSM    C2F13151   2.448   1.831   2.793  1.0959  0.1317  0.5117
  124OSM    H2F13152   2.365   1.891   2.838  2.0586  1.8652  0.0677
  124OSM    H2G13153   2.538   1.892   2.773  2.1370 -1.3276  0.5933
  124OSM    C3F13154   2.488   1.733   2.909  0.2421 -0.3197  0.6696
  124OSM    H3F13155   2.555   1.650   2.877  0.2456  1.2075 -4.1328
  124OSM    H3G13156   2.395   1.682   2.941 -0.0889  0.5100  1.0430
  124OSM    C4F13157   2.546   1.794   3.028 -0.8349 -0.2767  0.4591
  124OSM    H4F13158   2.464   1.853   3.074 -0.5013  0.5792 -0.0175
  124OSM    H4G13159   2.628   1.865   3.005  0.2918 -1.9021 -0.7567
  124OSM    C5F13160   2.605   1.691   3.130  0.0231 -0.2441 -0.4117
  124OSM    H5F13161   2.704   1.656   3.091  0.3430  2.5215 -2.3822
  124OSM    H5G13162   2.544   1.598   3.141  2.7919 -1.8789  3.7180
  124OSM    C6F13163   2.631   1.774   3.261  0.9698  0.0468  0.9752
  124OSM    H6F13164   2.531   1.817   3.282 -0.3537 -2.1474 -0.3782
  124OSM    H6G13165   2.698   1.859   3.235  2.5203 -1.7398 -1.3450
  124OSM    C7F13166   2.704   1.694   3.363 -0.3165 -0.1848 -0.7591
  124OSM    H7F13167   2.779   1.637   3.303 -3.7451 -3.2198 -2.5442
  124OSM    H7G13168   2.632   1.630   3.417  1.0373  0.5144  2.0700
  124OSM    C8F13169   2.787   1.766   3.477  0.1744  0.7245 -0.3076
  124OSM    H8F13170   2.863   1.824   3.421  0.2086 -2.5342 -4.0536
  124OSM    H8G13171   2.844   1.683   3.524  0.7049  1.1139 -0.2606
  124OSM    C9F13172   2.704   1.849   3.572 -0.1175 -0.0747  0.1790
  124OSM    H9F13173   2.640   1.921   3.518 -1.2293  0.9432  2.7056
  124OSM   C10F13174   2.705   1.866   3.704  0.0423 -0.0255  0.0648
  124OSM   H10F13175   2.645   1.953   3.735 -0.3132  1.4545 -4.1463
  124OSM   C11F13176   2.797   1.803   3.803 -0.0767  0.5355 -0.2770
  124OSM   H11F13177   2.853   1.723   3.750  0.2966  0.7247 -0.1696
  124OSM   H11G13178   2.745   1.769   3.895 -1.1739  0.3918 -0.9327
  124OSM   C12F13179   2.908   1.903   3.847  0.2569  0.4351  0.2571
  124OSM   H12F13180   2.983   1.913   3.765  0.7444  1.3713  0.8026
  124OSM   H12G13181   2.960   1.854   3.933 -1.2582 -0.9104  0.4449
  124OSM   C13F13182   2.864   2.038   3.902 -0.2618 -0.7638 -0.0484
  124OSM   H13F13183   2.801   2.097   3.833  2.6476  0.4025 -1.9429
  124OSM   H13G13184   2.956   2.094   3.929 -0.7873 -0.2646  0.7429
  124OSM   C14F13185   2.780   2.018   4.022  0.0557 -0.5517 -0.2285
  124OSM   H14F13186   2.833   1.951   4.093  0.4865 -0.1114 -0.1260
  124OSM   H14G13187   2.678   1.974   4.019  0.0129 -0.8972  2.9106
  124OSM   C15F13188   2.743   2.149   4.096 -0.1468 -0.3616  0.4840
  124OSM   H15F13189   2.686   2.211   4.023 -1.4390 -2.1791 -0.1314
  124OSM   H15G13190   2.837   2.205   4.114  0.8778 -1.3844 -1.3524
  124OSM   C16F13191   2.658   2.137   4.224  0.5393  0.0920 -0.1103
  124OSM   H16F13192   2.724   2.087   4.297  1.8824  0.3711 -1.1027
  124OSM   H16G13193   2.574   2.071   4.191 -0.6777  2.0132 -1.0726
  124OSM   C17F13194   2.595   2.257   4.290 -0.1596 -0.4480  0.5293
  124OSM   H17F13195   2.539   2.220   4.378  0.9251  0.4735  1.6602
  124OSM   H17G13196   2.537   2.335   4.236  0.3356  0.7461  1.6716
  124OSM   C18F13197   2.702   2.348   4.358  0.5277  0.3397 -0.4473
  124OSM   H18F13198   2.657   2.432   4.416  2.7381 -0.1568  2.2232
  124OSM   H18G13199   2.783   2.393   4.297  1.6152  0.7880  1.2356
  124OSM   H18H13200   2.752   2.285   4.434 -1.3653 -0.3879  0.2756
  125OSM      N13201   5.880   3.171   2.463 -0.2748  0.2270  0.1057
  125OSM    C1513202   6.009   3.132   2.533  0.5331  0.1525  0.0778
  125OSM   H15A13203   6.060   3.223   2.560 -1.4369  0.9235  1.3900
  125OSM   H15B13204   6.074   3.077   2.466  1.2652 -1.8527  2.2548
  125OSM   H15C13205   5.993   3.073   2.622  0.1020  3.1481  2.0933
  125OSM    C1413206   5.806   3.049   2.420 -0.3159 -0.4075  0.1076
  125OSM   H14A13207   5.854   2.995   2.341 -0.4323 -0.5760  0.1513
  125OSM   H14B13208   5.703   3.074   2.399 -0.6198  0.6372  2.4479
  125OSM   H14C13209   5.797   2.979   2.502  0.4131  1.1596  1.5949
  125OSM    C1313210   5.802   3.236   2.565  0.2129 -0.2838 -0.4748
  125OSM   H13A13211   5.713   3.282   2.525  0.0418  1.4703  1.7321
  125OSM   H13B13212   5.859   3.319   2.602  0.4538 -1.9118  3.2613
  125OSM   H13C13213   5.785   3.177   2.654  1.9203  0.3340  0.3024
  125OSM    C1213214   5.899   3.266   2.347  0.2223  0.0196  0.5643
  125OSM   H12A13215   5.811   3.269   2.285 -2.4371  1.6608  4.1059
  125OSM   H12B13216   5.967   3.211   2.283 -1.9644 -1.0911 -0.9384
  125OSM    C1113217   5.961   3.405   2.378  0.0943  0.3560  0.1975
  125OSM   H11A13218   5.978   3.452   2.279 -0.2206 -1.5989 -0.8367
  125OSM   H11B13219   6.062   3.404   2.424  0.4641 -1.0101 -0.5871
  125OSM      P13220   5.784   3.600   2.393  0.0753 -0.2887 -0.1837
  125OSM    O1313221   5.863   3.722   2.355  0.0021 -0.2801  0.3994
  125OSM    O1413222   5.696   3.537   2.297 -0.4449  0.0316  0.3652
  125OSM    O1113223   5.695   3.636   2.517  0.0395  0.4898  0.1487
  125OSM    O1213224   5.870   3.485   2.450 -0.0901  0.7211 -0.1057
  125OSM    C1S13225   5.740   3.728   2.617 -0.6879  0.3678 -0.2588
  125OSM    H1S13226   5.730   3.834   2.584  0.2130  0.6823  0.4358
  125OSM    H1T13227   5.846   3.709   2.645  0.5880  3.5223 -2.4608
  125OSM     NF13228   5.711   3.811   2.849  0.0340  0.2746  0.4731
  125OSM    HNF13229   5.777   3.779   2.916  0.1712  0.5352  0.4632
  125OSM    C2S13230   5.655   3.720   2.748 -0.5112  0.2746  0.1520
  125OSM    H2S13231   5.550   3.748   2.725 -0.3545  0.9294  0.1908
  125OSM    C3S13232   5.644   3.566   2.794  0.3432 -0.0603 -1.0897
  125OSM    H3S13233   5.745   3.520   2.806 -1.2232 -3.7025 -0.4696
  125OSM     O313234   5.579   3.469   2.703 -0.2803  0.3026 -0.1470
  125OSM    HO313235   5.551   3.518   2.625 -1.9849  0.3104  0.4468
  125OSM    C4S13236   5.562   3.579   2.921  0.5672  0.1144  0.0005
  125OSM    H4S13237   5.485   3.658   2.914  1.9888  1.5069 -0.3268
  125OSM    C5S13238   5.595   3.526   3.036  0.5818 -0.4898 -0.1390
  125OSM    H5S13239   5.693   3.477   3.047  0.9123  0.1324 -0.2792
  125OSM    C6S13240   5.517   3.562   3.162  0.2044 -0.1688  1.1184
  125OSM    H6S13241   5.448   3.644   3.135  2.7667  1.3140 -1.5905
  125OSM    H6T13242   5.588   3.607   3.235  2.9708 -2.0838 -0.1962
  125OSM    C7S13243   5.427   3.447   3.208  0.4850 -0.5324 -0.7587
  125OSM    H7S13244   5.494   3.359   3.217  0.4391 -0.5953 -1.0215
  125OSM    H7T13245   5.354   3.418   3.130  2.2102 -2.5430 -1.7324
  125OSM    C8S13246   5.352   3.481   3.338  0.9325  0.0540  0.2343
  125OSM    H8S13247   5.283   3.568   3.342  1.1260  0.1677  1.7361
  125OSM    H8T13248   5.434   3.505   3.409  1.2851 -0.2037 -0.0842
  125OSM    C9S13249   5.272   3.358   3.392  0.1275  0.0574 -0.5699
  125OSM    H9S13250   5.326   3.264   3.368  1.7593  0.4403  1.2840
  125OSM    H9T13251   5.167   3.369   3.357 -0.7896 -3.0780  0.8638
  125OSM   C10S13252   5.258   3.367   3.543 -0.0997 -0.6539 -0.5246
  125OSM   H10S13253   5.151   3.391   3.562  0.0751 -0.3920  0.1497
  125OSM   H10T13254   5.323   3.452   3.573 -1.0829 -0.0648 -0.0421
  125OSM   C11S13255   5.314   3.247   3.617 -0.9739  0.1877 -0.1570
  125OSM   H11S13256   5.421   3.229   3.594 -2.0808 -3.4031 -3.6108
  125OSM   H11T13257   5.259   3.159   3.577 -0.7472  0.4549 -1.0837
  125OSM   C12S13258   5.297   3.261   3.768 -0.0926 -0.0732 -0.2888
  125OSM   H12S13259   5.336   3.174   3.825 -0.8469  0.3011  0.8108
  125OSM   H12T13260   5.192   3.278   3.799  0.2910 -1.0588  1.7173
  125OSM   C13S13261   5.371   3.386   3.826 -0.1064  0.4643  0.3801
  125OSM   H13S13262   5.316   3.473   3.784 -1.0963 -0.0048  0.6747
  125OSM   H13T13263   5.475   3.406   3.793  0.0011  0.2290  0.5789
  125OSM   C14S13264   5.374   3.387   3.975  0.1491 -0.5740  0.3772
  125OSM   H14S13265   5.280   3.353   4.024  0.0373  0.4068  0.8678
  125OSM   H14T13266   5.381   3.494   4.005 -3.3823  0.0082 -0.4718
  125OSM   C15S13267   5.487   3.315   4.041 -0.9734 -0.3141 -0.0921
  125OSM   H15S13268   5.501   3.221   3.983  0.1145  0.1526 -0.6029
  125OSM   H15T13269   5.453   3.287   4.143 -2.2531 -0.3722 -0.5144
  125OSM   C16S13270   5.621   3.395   4.040 -0.0051 -0.0168 -0.5060
  125OSM   H16S13271   5.607   3.496   4.084 -1.5674  0.2356 -1.4978
  125OSM   H16T13272   5.655   3.409   3.935  2.9479 -2.8450 -0.0756
  125OSM   C17S13273   5.731   3.324   4.126 -0.2364  0.0035 -0.3694
  125OSM   H17S13274   5.762   3.227   4.082  0.3313  0.2241 -0.4591
  125OSM   H17T13275   5.682   3.303   4.223 -0.7629  0.9452 -0.4121
  125OSM   C18S13276   5.854   3.410   4.141 -0.1453  0.0143  0.6393
  125OSM   H18S13277   5.885   3.463   4.049  0.8115 -1.1143  0.2924
  125OSM   H18T13278   5.953   3.364   4.160  0.2074 -1.7876 -4.2035
  125OSM   H18U13279   5.826   3.478   4.225 -0.7721 -1.4699  1.6863
  125OSM    C1F13280   5.701   3.941   2.822 -0.6426 -0.1404  0.0944
  125OSM     OF13281   5.617   3.983   2.744  0.0474 -0.3652 -0.2745
  125OSM    C2F13282   5.805   4.029   2.880  0.4648  0.0388 -0.4478
  125OSM    H2F13283   5.845   4.091   2.796  0.1971 -0.1052 -0.6827
  125OSM    H2G13284   5.873   3.956   2.928  0.3702 -1.7193 -2.8304
  125OSM    C3F13285   5.751   4.129   2.987  0.3176 -0.0826  0.3142
  125OSM    H3F13286   5.684   4.199   2.932  0.5957  2.2147  2.6622
  125OSM    H3G13287   5.823   4.205   3.024 -0.1629  1.1713 -1.1827
  125OSM    C4F13288   5.676   4.062   3.104  0.2995 -0.1208  0.0164
  125OSM    H4F13289   5.591   4.003   3.062  0.3550 -0.2957  0.1476
  125OSM    H4G13290   5.628   4.135   3.172 -0.8962  0.3141 -1.2439
  125OSM    C5F13291   5.773   3.986   3.196 -0.1690 -0.2980  0.0651
  125OSM    H5F13292   5.851   4.057   3.230 -1.0318  0.4990  0.4094
  125OSM    H5G13293   5.813   3.900   3.138  0.9015  0.8870 -1.0146
  125OSM    C6F13294   5.703   3.942   3.327 -0.2426  0.1540 -0.0095
  125OSM    H6F13295   5.615   3.887   3.289 -0.3092  1.1793 -1.4488
  125OSM    H6G13296   5.656   4.031   3.374 -1.8849  0.5278 -2.2183
  125OSM    C7F13297   5.791   3.853   3.410 -0.4266 -0.2235  0.3171
  125OSM    H7F13298   5.881   3.914   3.431 -0.7741  0.6443 -0.6189
  125OSM    H7G13299   5.826   3.770   3.346  1.7077 -0.1081  1.2636
  125OSM    C8F13300   5.725   3.817   3.538  0.1359 -0.1850 -0.2526
  125OSM    H8F13301   5.697   3.911   3.591 -0.4795 -0.4575 -0.0951
  125OSM    H8G13302   5.809   3.776   3.598  1.6151  3.8584  0.7890
  125OSM    C9F13303   5.604   3.728   3.531 -0.2363 -0.2652 -0.7072
  125OSM    H9F13304   5.624   3.645   3.462 -1.8296 -1.2202 -0.0759
  125OSM   C10F13305   5.490   3.737   3.605  0.5915 -0.5703 -0.2264
  125OSM   H10F13306   5.409   3.664   3.589 -1.4338  1.1591  1.3984
  125OSM   C11F13307   5.465   3.851   3.705  0.3247 -0.2675  0.1291
  125OSM   H11F13308   5.358   3.878   3.710  0.1472 -1.0825  1.0935
  125OSM   H11G13309   5.514   3.948   3.685 -1.8013  0.5523 -1.4069
  125OSM   C12F13310   5.519   3.796   3.844  0.7087  0.1123 -0.6828
  125OSM   H12F13311   5.615   3.741   3.833  0.9737 -0.1343  2.1399
  125OSM   H12G13312   5.444   3.719   3.873  2.7549 -1.4436  0.7782
  125OSM   C13F13313   5.514   3.911   3.945 -0.0253  0.5066 -0.3384
  125OSM   H13F13314   5.407   3.941   3.945  0.0924  1.0784 -2.3962
  125OSM   H13G13315   5.578   3.993   3.906  1.1140  0.3702  1.1483
  125OSM   C14F13316   5.566   3.863   4.078 -0.1653 -0.2405 -0.2531
  125OSM   H14F13317   5.561   3.753   4.061 -2.3733  0.2111 -3.0815
  125OSM   H14G13318   5.485   3.885   4.151  0.5862  1.5273  0.0918
  125OSM   C15F13319   5.698   3.929   4.123  0.8537  0.5064 -0.5405
  125OSM   H15F13320   5.707   4.040   4.122  2.1471  0.4239 -1.1636
  125OSM   H15G13321   5.784   3.905   4.056  1.0158 -1.6938  0.3761
  125OSM   C16F13322   5.742   3.881   4.262  0.1783  0.7476 -0.2009
  125OSM   H16F13323   5.749   3.772   4.280  1.4343  0.9325  0.4905
  125OSM   H16G13324   5.670   3.921   4.336  1.0947  0.1101  1.0668
  125OSM   C17F13325   5.876   3.960   4.308  0.3473  1.1145 -0.0030
  125OSM   H17F13326   5.951   3.928   4.233  3.7571  2.0462  2.7352
  125OSM   H17G13327   5.904   3.913   4.405 -1.8637 -1.2441 -0.3918
  125OSM   C18F13328   5.855   4.113   4.315  0.0589 -0.5557  1.2032
  125OSM   H18F13329   5.846   4.153   4.212  2.1964 -0.8436  0.8630
  125OSM   H18G13330   5.942   4.166   4.358 -0.4244  1.6757 -0.4106
  125OSM   H18H13331   5.763   4.158   4.359 -1.1491  0.4673 -2.0770
  126OSM      N13332   2.244   6.981   2.544  0.5161 -0.0068  0.1536
  126OSM    C1513333   2.261   6.854   2.477  0.9937  0.2391 -0.2170
  126OSM   H15A13334   2.328   6.856   2.392  2.0777  2.1083  0.6233
  126OSM   H15B13335   2.172   6.795   2.462 -1.6659  2.6704  4.1738
  126OSM   H15C13336   2.304   6.781   2.544  0.8552 -2.0135 -2.4227
  126OSM    C1413337   2.176   7.062   2.432 -0.4286  0.6374 -0.2419
  126OSM   H14A13338   2.155   7.165   2.453  1.5696  0.7400  1.6186
  126OSM   H14B13339   2.085   7.010   2.407 -0.0463 -0.1838  0.0114
  126OSM   H14C13340   2.237   7.060   2.343  0.5782  0.2826  0.4355
  126OSM    C1313341   2.145   6.973   2.656  0.5296 -0.2228 -0.9473
  126OSM   H13A13342   2.128   7.070   2.701  0.0209 -0.5642 -0.3914
  126OSM   H13B13343   2.175   6.914   2.741 -0.5286  0.7368  0.1240
  126OSM   H13C13344   2.048   6.934   2.632 -0.4035  1.4711 -0.1369
  126OSM    C1213345   2.374   7.043   2.586  0.3455  0.4608  0.1678
  126OSM   H12A13346   2.352   7.147   2.607  2.2637  0.4181  2.9212
  126OSM   H12B13347   2.433   7.041   2.495 -0.2759  1.1872 -0.2662
  126OSM    C1113348   2.465   6.982   2.700 -0.4345 -0.2366 -0.0979
  126OSM   H11A13349   2.411   6.982   2.797 -0.6950  0.7985 -0.2330
  126OSM   H11B13350   2.547   7.056   2.710 -1.0841  0.5107 -0.1934
  126OSM      P13351   2.621   6.839   2.542  0.1312  0.5318  0.1364
  126OSM    O1313352   2.609   6.697   2.500  0.2686  0.2519  0.0259
  126OSM    O1413353   2.601   6.942   2.438 -0.4065  0.3195  0.0803
  126OSM    O1113354   2.762   6.855   2.613  0.4214  0.1339  0.2006
  126OSM    O1213355   2.519   6.859   2.654 -0.1556  0.1595 -0.9611
  126OSM    C1S13356   2.773   6.833   2.755 -1.0792 -0.0972  0.0252
  126OSM    H1S13357   2.791   6.725   2.770 -0.3253  0.2650  2.0287
  126OSM    H1T13358   2.693   6.877   2.818  0.0565  0.5812  1.0578
  126OSM     NF13359   2.906   6.852   2.961  0.1275  0.2012  0.2719
  126OSM    HNF13360   2.880   6.915   3.034  2.0824  2.5174 -0.8934
  126OSM    C2S13361   2.900   6.902   2.822  0.4364  0.4801  0.5521
  126OSM    H2S13362   2.995   6.867   2.775  0.0559  1.2444 -0.8706
  126OSM    C3S13363   2.904   7.056   2.799  0.4750 -0.0162 -0.0863
  126OSM    H3S13364   2.816   7.107   2.843  1.3284  1.6204 -0.2045
  126OSM     O313365   2.899   7.095   2.657  0.2126  0.8208 -0.4098
  126OSM    HO313366   2.852   7.020   2.619 -1.6765  0.6103  2.0669
  126OSM    C4S13367   3.023   7.117   2.871 -0.1888  0.3962 -0.2472
  126OSM    H4S13368   3.000   7.125   2.979 -1.7825 -0.3970 -0.4972
  126OSM    C5S13369   3.145   7.145   2.824  0.1065 -0.1608 -0.5588
  126OSM    H5S13370   3.174   7.094   2.730 -3.1407  1.0133 -2.3525
  126OSM    C6S13371   3.272   7.186   2.895  0.1623  0.4181 -0.0692
  126OSM    H6S13372   3.322   7.273   2.848  2.0048 -0.1064  0.7947
  126OSM    H6T13373   3.348   7.106   2.876 -1.5732 -1.3179  0.0060
  126OSM    C7S13374   3.274   7.204   3.051 -0.2002 -0.1674  0.0184
  126OSM    H7S13375   3.205   7.283   3.086  0.0769  0.5343 -0.9946
  126OSM    H7T13376   3.375   7.239   3.080 -0.0308 -1.2068  0.7372
  126OSM    C8S13377   3.253   7.068   3.126  0.1624 -0.1393  0.7384
  126OSM    H8S13378   3.335   6.998   3.099 -0.0066 -0.7270  1.7029
  126OSM    H8T13379   3.154   7.020   3.112  0.0750 -0.1770  1.4379
  126OSM    C9S13380   3.257   7.096   3.278  0.6953 -0.6899 -0.6523
  126OSM    H9S13381   3.346   7.158   3.302 -0.4947 -0.1877  3.0477
  126OSM    H9T13382   3.284   7.004   3.334  2.5324 -1.3685 -2.4985
  126OSM   C10S13383   3.149   7.179   3.330  0.3218  0.2428 -0.2879
  126OSM   H10S13384   3.056   7.131   3.293  0.2918 -1.5948  1.9442
  126OSM   H10T13385   3.144   7.287   3.304 -0.7377 -0.2521 -2.2768
  126OSM   C11S13386   3.131   7.156   3.487  0.0524  0.0483 -0.2145
  126OSM   H11S13387   3.127   7.048   3.515  1.7922  0.0142  0.0005
  126OSM   H11T13388   3.046   7.216   3.528 -0.9464 -1.9996  0.8879
  126OSM   C12S13389   3.256   7.202   3.564  0.1882 -0.1816  0.0437
  126OSM   H12S13390   3.276   7.310   3.549  0.7917  0.0956  2.4448
  126OSM   H12T13391   3.343   7.138   3.536  1.0655  0.1780  1.8627
  126OSM   C13S13392   3.244   7.189   3.719  0.5857  0.1435 -0.2671
  126OSM   H13S13393   3.224   7.086   3.753  0.7654  0.0307 -0.5023
  126OSM   H13T13394   3.160   7.253   3.755 -1.0190 -1.9220 -0.1199
  126OSM   C14S13395   3.372   7.221   3.789  0.2728  0.1648 -0.6799
  126OSM   H14S13396   3.387   7.330   3.807  2.9938 -0.0761 -1.0159
  126OSM   H14T13397   3.460   7.190   3.729  2.1401  1.1941  1.3670
  126OSM   C15S13398   3.398   7.144   3.921 -0.2365 -0.2713  0.3588
  126OSM   H15S13399   3.361   7.040   3.912 -0.5204 -0.3356  1.8813
  126OSM   H15T13400   3.345   7.197   4.003 -0.4423 -2.3856  1.6735
  126OSM   C16S13401   3.553   7.148   3.954  0.6325  0.0188  0.1573
  126OSM   H16S13402   3.604   7.089   3.875  0.5653 -2.5115  1.8654
  126OSM   H16T13403   3.566   7.075   4.037 -2.1559  0.2619  0.9159
  126OSM   C17S13404   3.607   7.283   3.985 -0.0444  0.1393  0.0177
  126OSM   H17S13405   3.578   7.357   3.908  1.2871  0.2860 -0.3763
  126OSM   H17T13406   3.716   7.282   3.963 -0.4119 -0.2860 -1.9706
  126OSM   C18S13407   3.585   7.342   4.127 -0.1096 -0.1976 -0.0869
  126OSM   H18S13408   3.480   7.343   4.162  0.0877 -1.7699  0.6068
  126OSM   H18T13409   3.623   7.446   4.116  0.3078 -0.4252 -0.8462
  126OSM   H18U13410   3.649   7.283   4.196  0.6697  0.0027 -0.6233
  126OSM    C1F13411   2.935   6.727   2.991 -0.5644 -0.1526 -0.2908
  126OSM     OF13412   2.990   6.659   2.907 -0.3985  0.1042 -0.4510
  126OSM    C2F13413   2.915   6.686   3.136  0.4251  0.3405 -0.1521
  126OSM    H2F13414   2.877   6.774   3.193 -3.5625  0.3560 -2.4149
  126OSM    H2G13415   3.004   6.638   3.180 -1.1676 -0.9714  1.8123
  126OSM    C3F13416   2.801   6.586   3.141  0.6239  0.7836  0.7368
  126OSM    H3F13417   2.806   6.513   3.057  1.6012  0.7470  0.8143
  126OSM    H3G13418   2.706   6.641   3.122  0.6234  0.7688  0.6963
  126OSM    C4F13419   2.809   6.496   3.262 -0.6421 -0.4756  0.3978
  126OSM    H4F13420   2.902   6.439   3.242  0.0547  1.5582 -2.7372
  126OSM    H4G13421   2.719   6.430   3.261 -1.8599  1.1346 -0.2660
  126OSM    C5F13422   2.801   6.581   3.391 -0.4258  0.0247 -0.2999
  126OSM    H5F13423   2.702   6.631   3.393 -0.7117 -0.5345  0.9735
  126OSM    H5G13424   2.890   6.647   3.392 -1.4716  1.4726  0.0577
  126OSM    C6F13425   2.790   6.497   3.519 -0.2289 -0.4278 -0.4442
  126OSM    H6F13426   2.804   6.561   3.609 -1.7441  0.2406 -0.6609
  126OSM    H6G13427   2.868   6.419   3.513 -0.7383 -1.2006  1.9892
  126OSM    C7F13428   2.650   6.435   3.522 -0.1546 -0.6869  0.0747
  126OSM    H7F13429   2.650   6.354   3.446  0.7310 -2.7599  2.1474
  126OSM    H7G13430   2.573   6.505   3.483  0.2691 -1.2504 -1.8724
  126OSM    C8F13431   2.629   6.381   3.665  0.2767 -0.6692 -0.2988
  126OSM    H8F13432   2.622   6.468   3.733 -1.6270  0.1201 -1.4055
  126OSM    H8G13433   2.724   6.329   3.691  0.9275  2.0563  3.6268
  126OSM    C9F13434   2.502   6.296   3.663 -0.0187 -0.0462  0.1506
  126OSM    H9F13435   2.413   6.352   3.630  1.0019  0.8502 -1.2049
  126OSM   C10F13436   2.491   6.161   3.676 -0.5628  0.2398  0.2025
  126OSM   H10F13437   2.393   6.115   3.658 -1.1303  1.7103 -0.6942
  126OSM   C11F13438   2.601   6.060   3.697  0.0969  0.2389  0.5718
  126OSM   H11F13439   2.703   6.105   3.703  1.0023 -1.8510  3.1532
  126OSM   H11G13440   2.596   5.985   3.615  2.2135  0.2726  0.3519
  126OSM   C12F13441   2.600   5.977   3.829 -0.1424  0.9638 -1.2357
  126OSM   H12F13442   2.689   5.912   3.819 -0.6833  0.3003 -1.9106
  126OSM   H12G13443   2.515   5.906   3.831  0.3097  0.4096  1.6979
  126OSM   C13F13444   2.599   6.058   3.956 -0.3981  0.6961  0.3700
  126OSM   H13F13445   2.517   6.133   3.962 -0.4158  0.7539 -0.5712
  126OSM   H13G13446   2.695   6.113   3.962  0.5813 -0.5027 -2.7215
  126OSM   C14F13447   2.577   5.973   4.082 -0.1394  0.6578  0.5543
  126OSM   H14F13448   2.645   5.885   4.077 -0.0667  0.7759 -3.1666
  126OSM   H14G13449   2.474   5.932   4.076  0.0020  0.4611 -0.8749
  126OSM   C15F13450   2.600   6.050   4.208 -0.0995  0.0825  0.4093
  126OSM   H15F13451   2.516   6.122   4.216 -0.1280 -0.0371  1.3289
  126OSM   H15G13452   2.682   6.123   4.194 -0.2007  0.2689  0.7691
  126OSM   C16F13453   2.601   5.955   4.329  0.4384  0.9337 -0.0592
  126OSM   H16F13454   2.678   5.876   4.315 -0.5007  0.1532 -1.0755
  126OSM   H16G13455   2.505   5.900   4.335  0.8959  0.2376  1.1784
  126OSM   C17F13456   2.648   6.022   4.462  0.3421 -0.5147  0.2643
  126OSM   H17F13457   2.576   6.104   4.483  0.5777  0.2545 -1.7012
  126OSM   H17G13458   2.750   6.066   4.459 -0.4435  1.4648  0.8979
  126OSM   C18F13459   2.646   5.919   4.575  0.7320 -0.2302 -0.6527
  126OSM   H18F13460   2.691   5.819   4.554  1.6109  0.0817 -0.3348
  126OSM   H18G13461   2.540   5.893   4.595  0.2283  1.9997 -0.1913
  126OSM   H18H13462   2.682   5.972   4.666 -0.5323  0.6546 -0.6480
  127OSM      N13463   2.949   1.785   2.161  0.3086  0.1575 -0.9003
  127OSM    C1513464   2.816   1.791   2.246 -1.0105 -1.1509 -0.0481
  127OSM   H15A13465   2.791   1.891   2.279 -2.5897 -1.2490 -0.8394
  127OSM   H15B13466   2.832   1.733   2.336 -1.5782 -2.0603 -0.5087
  127OSM   H15C13467   2.728   1.763   2.189  0.1622 -0.2053 -2.4411
  127OSM    C1413468   2.931   1.875   2.041  0.4307  0.4043 -0.7068
  127OSM   H14A13469   2.901   1.973   2.074  2.1633  1.1157 -1.1448
  127OSM   H14B13470   2.860   1.839   1.967 -0.8860 -0.5843  0.9592
  127OSM   H14C13471   3.027   1.882   1.992  0.8721 -3.7179 -0.7822
  127OSM    C1313472   3.060   1.856   2.234  0.5611  0.3742 -0.9372
  127OSM   H13A13473   3.034   1.960   2.246  0.0979 -0.0164  2.9402
  127OSM   H13B13474   3.155   1.848   2.183  0.1824 -1.3962 -1.4403
  127OSM   H13C13475   3.077   1.817   2.334  1.6617  2.3794 -0.2795
  127OSM    C1213476   2.982   1.646   2.111  0.9455 -0.0331 -0.2390
  127OSM   H12A13477   3.018   1.642   2.010 -2.0768 -0.8499 -1.3661
  127OSM   H12B13478   2.886   1.600   2.095  0.7657 -0.6943  2.2747
  127OSM    C1113479   3.053   1.553   2.209  0.9378  0.1057 -0.1475
  127OSM   H11A13480   3.072   1.447   2.182  1.4610  0.3814 -0.8800
  127OSM   H11B13481   2.991   1.537   2.300  0.2394 -1.7103 -0.8869
  127OSM      P13482   3.244   1.586   2.386 -0.3610  0.0540  0.0613
  127OSM    O1313483   3.388   1.569   2.379 -0.8487  0.1441  0.4861
  127OSM    O1413484   3.195   1.678   2.484 -0.3787 -0.0041  0.5609
  127OSM    O1113485   3.196   1.442   2.427  0.0513 -0.2541  0.5844
  127OSM    O1213486   3.183   1.606   2.245  0.2129 -0.6809  0.2753
  127OSM    C1S13487   3.251   1.372   2.542 -0.3703 -0.4221 -0.9582
  127OSM    H1S13488   3.361   1.366   2.535 -0.4898 -0.9474 -3.3342
  127OSM    H1T13489   3.218   1.266   2.547  0.3734 -0.5982  0.6588
  127OSM     NF13490   3.256   1.381   2.794 -0.1260 -0.2648  0.1322
  127OSM    HNF13491   3.202   1.325   2.856 -0.5995  1.4028  1.2983
  127OSM    C2S13492   3.188   1.431   2.679  0.2477  0.2416 -0.4008
  127OSM    H2S13493   3.194   1.542   2.687  1.0067  0.0894  1.8107
  127OSM    C3S13494   3.032   1.408   2.682  0.4077  0.1633 -0.6703
  127OSM    H3S13495   3.035   1.299   2.660  2.1190 -0.1340  0.8313
  127OSM     O313496   2.968   1.495   2.593  0.8089  0.6411 -0.3642
  127OSM    HO313497   3.037   1.516   2.529  0.8190 -1.9484 -1.3237
  127OSM    C4S13498   2.967   1.430   2.815  0.2876  0.0415  0.6576
  127OSM    H4S13499   2.963   1.538   2.837  2.0669  0.4519 -0.7445
  127OSM    C5S13500   2.907   1.339   2.897 -0.0671 -0.3193  0.2067
  127OSM    H5S13501   2.926   1.232   2.881  0.7107 -0.1041 -0.3621
  127OSM    C6S13502   2.847   1.373   3.034  0.0293 -0.7938  0.3959
  127OSM    H6S13503   2.736   1.371   3.032  0.0112  0.4017 -0.8578
  127OSM    H6T13504   2.888   1.468   3.074 -1.1266 -1.0462  2.3387
  127OSM    C7S13505   2.888   1.269   3.143 -0.4280 -0.2072 -0.1303
  127OSM    H7S13506   2.854   1.167   3.113 -0.4445  0.0244 -0.9015
  127OSM    H7T13507   2.831   1.298   3.234  2.4111  1.4585  1.2556
  127OSM    C8S13508   3.037   1.260   3.179  0.5535  0.6578 -0.1341
  127OSM    H8S13509   3.084   1.359   3.196  0.3490  0.4558  1.8625
  127OSM    H8T13510   3.086   1.217   3.090 -0.5891  2.1488 -1.5451
  127OSM    C9S13511   3.059   1.179   3.320 -0.6985  0.0385  0.9268
  127OSM    H9S13512   3.052   1.072   3.291  1.5222 -0.5531  2.3492
  127OSM    H9T13513   2.977   1.201   3.392 -0.4461 -2.9306  2.2343
  127OSM   C10S13514   3.193   1.212   3.392  0.7098 -0.2130 -0.3616
  127OSM   H10S13515   3.188   1.313   3.437  0.6108  0.1940 -1.2552
  127OSM   H10T13516   3.266   1.215   3.308 -2.1615 -0.5100 -3.0687
  127OSM   C11S13517   3.236   1.106   3.491  0.6205  0.6256  0.9917
  127OSM   H11S13518   3.343   1.121   3.517  1.0856 -1.5876  0.6048
  127OSM   H11T13519   3.252   1.004   3.451  2.9375  1.0432  0.6920
  127OSM   C12S13520   3.144   1.108   3.609  0.3484 -0.0075 -0.2122
  127OSM   H12S13521   3.043   1.070   3.582  0.5569 -0.1799 -0.7683
  127OSM   H12T13522   3.122   1.213   3.636 -1.1240  0.2534 -2.2634
  127OSM   C13S13523   3.202   1.027   3.728  0.0931  0.3139 -0.2179
  127OSM   H13S13524   3.302   1.050   3.770  0.9828 -5.0955  1.4580
  127OSM   H13T13525   3.208   0.919   3.703  1.3695 -0.7358  3.7608
  127OSM   C14S13526   3.116   1.046   3.855  0.0905  0.5032 -0.2852
  127OSM   H14S13527   3.012   1.074   3.827  0.3615  1.5559 -0.2881
  127OSM   H14T13528   3.154   1.137   3.906 -1.0812  0.4179  0.7794
  127OSM   C15S13529   3.119   0.936   3.954 -0.4766  0.3420 -0.4908
  127OSM   H15S13530   3.224   0.938   3.991 -0.7868  0.8219  0.3717
  127OSM   H15T13531   3.100   0.840   3.900  1.2231  0.1674 -0.8630
  127OSM   C16S13532   3.026   0.952   4.078 -0.6789  0.1187  1.1393
  127OSM   H16S13533   2.930   0.904   4.050 -0.7247 -0.5636  2.3806
  127OSM   H16T13534   3.008   1.059   4.103  1.8464  0.9986 -0.4743
  127OSM   C17S13535   3.093   0.890   4.203  1.4533  0.5486  0.3107
  127OSM   H17S13536   3.175   0.947   4.251  1.6722 -0.6498  1.4337
  127OSM   H17T13537   3.131   0.786   4.188 -0.1546  0.2673 -2.6878
  127OSM   C18S13538   2.994   0.881   4.322  0.3440  0.6828  0.5867
  127OSM   H18S13539   2.914   0.806   4.305  0.5343  0.8947 -1.6150
  127OSM   H18T13540   2.941   0.978   4.337 -0.3732  1.0511 -3.1930
  127OSM   H18U13541   3.055   0.856   4.411 -1.8751 -0.5674  1.8648
  127OSM    C1F13542   3.385   1.402   2.821 -0.0960 -0.2693  0.0982
  127OSM     OF13543   3.454   1.481   2.755  0.4682 -0.0256  0.2010
  127OSM    C2F13544   3.436   1.342   2.941 -0.8184 -0.4861  0.4924
  127OSM    H2F13545   3.384   1.247   2.966 -0.2262 -1.4028 -1.5718
  127OSM    H2G13546   3.415   1.416   3.021  2.0040  1.5349 -0.4781
  127OSM    C3F13547   3.588   1.321   2.947  0.6151  0.2754  1.2004
  127OSM    H3F13548   3.646   1.408   2.910 -0.1353 -0.4977 -2.0760
  127OSM    H3G13549   3.619   1.241   2.876  2.1568  0.0755  2.0421
  127OSM    C4F13550   3.634   1.291   3.092  0.1138  0.3649 -0.2683
  127OSM    H4F13551   3.735   1.246   3.089  0.8345  1.9631 -0.5809
  127OSM    H4G13552   3.564   1.213   3.130 -1.5419  1.4490 -0.9611
  127OSM    C5F13553   3.650   1.412   3.185  0.0627  0.4853  0.2594
  127OSM    H5F13554   3.566   1.482   3.166 -0.0855  0.6687  1.5151
  127OSM    H5G13555   3.742   1.467   3.157  1.6084 -1.5408  1.0486
  127OSM    C6F13556   3.656   1.394   3.340  0.2747 -0.1873  0.2627
  127OSM    H6F13557   3.564   1.336   3.361 -0.7983  0.8953 -1.2916
  127OSM    H6G13558   3.648   1.491   3.392 -1.8922 -0.4555  0.4908
  127OSM    C7F13559   3.791   1.331   3.372  0.0357 -0.0134 -0.2766
  127OSM    H7F13560   3.871   1.408   3.368  0.9130 -0.8391  0.6311
  127OSM    H7G13561   3.822   1.254   3.298 -0.2752 -0.5037  0.0938
  127OSM    C8F13562   3.804   1.268   3.516  0.4691 -0.0162  0.3489
  127OSM    H8F13563   3.887   1.195   3.508 -1.5756 -2.3454 -1.0506
  127OSM    H8G13564   3.715   1.207   3.542  0.7997 -0.6551 -0.0074
  127OSM    C9F13565   3.800   1.376   3.621 -0.2671 -0.3946  0.3303
  127OSM    H9F13566   3.738   1.465   3.605  1.9983  1.2747  0.4171
  127OSM   C10F13567   3.875   1.384   3.732 -0.1179 -0.4710 -0.0723
  127OSM   H10F13568   3.873   1.472   3.798  0.4019 -1.9895  2.0696
  127OSM   C11F13569   3.978   1.281   3.779  0.2382 -0.3066 -0.3267
  127OSM   H11F13570   4.070   1.335   3.809  1.1779 -2.0168  0.0091
  127OSM   H11G13571   4.004   1.218   3.691 -0.2600 -0.8056 -0.1190
  127OSM   C12F13572   3.937   1.192   3.904  0.5341 -0.0528  0.1840
  127OSM   H12F13573   3.972   1.087   3.892  0.1948 -0.0764 -0.6233
  127OSM   H12G13574   3.826   1.186   3.906  0.4098  1.5865 -0.5655
  127OSM   C13F13575   4.000   1.238   4.032  0.6227 -0.0683  0.5364
  127OSM   H13F13576   3.944   1.191   4.115 -0.2040 -0.7361 -0.3742
  127OSM   H13G13577   3.999   1.349   4.043 -1.5407 -0.2356  3.0506
  127OSM   C14F13578   4.143   1.177   4.051  0.1350 -0.3576 -0.0793
  127OSM   H14F13579   4.198   1.188   3.955 -2.2613  2.4308 -1.2484
  127OSM   H14G13580   4.135   1.067   4.070  2.1724 -0.4926  0.2165
  127OSM   C15F13581   4.212   1.246   4.168  0.5548  0.6922 -0.4252
  127OSM   H15F13582   4.304   1.188   4.185  1.1226  1.2364 -1.4962
  127OSM   H15G13583   4.141   1.241   4.254 -0.1647 -0.7729 -1.0737
  127OSM   C16F13584   4.235   1.393   4.143 -0.5974  0.0763 -0.4128
  127OSM   H16F13585   4.148   1.451   4.182 -0.3095 -0.0598  0.4431
  127OSM   H16G13586   4.231   1.417   4.034  0.8549 -1.6035 -0.8828
  127OSM   C17F13587   4.367   1.457   4.201  0.2105 -0.3182  0.2434
  127OSM   H17F13588   4.368   1.565   4.177  0.4187 -0.6480 -1.3156
  127OSM   H17G13589   4.448   1.413   4.140  0.8449  0.9697  0.1381
  127OSM   C18F13590   4.388   1.436   4.348  0.4134 -0.3407 -0.2136
  127OSM   H18F13591   4.475   1.499   4.375  0.7630 -1.3392  1.0937
  127OSM   H18G13592   4.416   1.333   4.381  1.3443  0.1376  0.5387
  127OSM   H18H13593   4.306   1.469   4.415  0.3975 -1.2895  0.2529
  128OSM      N13594   5.115   4.814   2.414  0.0850  0.2642  0.3799
  128OSM    C1513595   5.044   4.687   2.453 -0.3339  0.2504 -0.5071
  128OSM   H15A13596   5.054   4.625   2.365 -0.3582  1.8189 -1.6741
  128OSM   H15B13597   4.939   4.705   2.473  0.0987 -0.4936  2.9991
  128OSM   H15C13598   5.094   4.654   2.542  0.4648  1.6299 -0.4181
  128OSM    C1413599   5.256   4.777   2.377  0.3277  0.1576 -0.2632
  128OSM   H14A13600   5.255   4.719   2.286 -2.1911  2.0281 -1.5508
  128OSM   H14B13601   5.289   4.724   2.465  1.2104  3.2863  1.4436
  128OSM   H14C13602   5.322   4.863   2.373  1.6278 -0.6330  2.1662
  128OSM    C1313603   5.042   4.880   2.307 -0.2853 -0.1184  0.0209
  128OSM   H13A13604   4.937   4.893   2.326 -0.6380 -1.6259 -0.7161
  128OSM   H13B13605   5.057   4.816   2.221  1.5043  0.8988 -0.4778
  128OSM   H13C13606   5.095   4.970   2.279 -0.4308 -0.2028 -0.5370
  128OSM    C1213607   5.122   4.913   2.533 -0.3180 -0.1479 -0.2789
  128OSM   H12A13608   5.164   4.858   2.615  2.3762  0.3009 -1.2569
  128OSM   H12B13609   5.023   4.935   2.571 -0.0355  0.6195  0.0354
  128OSM    C1113610   5.187   5.056   2.501  0.0794  0.3820 -0.3583
  128OSM   H11A13611   5.282   5.034   2.448  0.3650  0.4319  0.1242
  128OSM   H11B13612   5.210   5.106   2.598 -1.3123 -0.4659  0.4449
  128OSM      P13613   5.140   5.264   2.348 -0.2457 -0.6441  0.1830
  128OSM    O1313614   5.268   5.255   2.275 -0.3001  0.3444  0.4542
  128OSM    O1413615   5.023   5.323   2.276  0.1811  0.5802 -0.2028
  128OSM    O1113616   5.177   5.360   2.469  0.2918  0.1772  0.5536
  128OSM    O1213617   5.099   5.134   2.425  0.7707  0.2977  0.6033
  128OSM    C1S13618   5.079   5.388   2.569  0.0994 -0.0365 -0.1626
  128OSM    H1S13619   5.020   5.301   2.605  0.2813  0.0595  0.3780
  128OSM    H1T13620   5.008   5.461   2.526  1.2974  1.2875  0.0376
  128OSM     NF13621   5.041   5.468   2.794 -0.3079 -0.3546 -0.3624
  128OSM    HNF13622   4.999   5.558   2.788 -1.8040 -1.0589 -1.0917
  128OSM    C2S13623   5.148   5.450   2.697  0.4051  0.9249  0.4907
  128OSM    H2S13624   5.226   5.380   2.734 -0.1359 -0.5790 -1.0693
  128OSM    C3S13625   5.219   5.577   2.659  0.4189 -0.2248 -0.1103
  128OSM    H3S13626   5.142   5.657   2.652  0.6132  0.0433  0.7122
  128OSM     O313627   5.294   5.580   2.539  0.0138 -0.2005 -0.0681
  128OSM    HO313628   5.278   5.491   2.506 -1.3690  0.2196 -0.6088
  128OSM    C4S13629   5.320   5.611   2.764 -0.1308  0.0979  0.2322
  128OSM    H4S13630   5.407   5.544   2.770  0.4150  0.8617  1.4523
  128OSM    C5S13631   5.323   5.717   2.849  0.5777  0.2767 -0.5642
  128OSM    H5S13632   5.243   5.792   2.838 -0.5556 -1.1741 -3.1989
  128OSM    C6S13633   5.420   5.748   2.953 -0.1391 -0.5473 -0.2868
  128OSM    H6S13634   5.471   5.837   2.911 -1.4795  0.1055 -0.5634
  128OSM    H6T13635   5.496   5.668   2.966  1.4573  0.5956 -1.9858
  128OSM    C7S13636   5.359   5.772   3.098 -0.5161 -0.6178  0.0869
  128OSM    H7S13637   5.280   5.846   3.078 -1.9667 -2.5329 -1.7316
  128OSM    H7T13638   5.437   5.819   3.162 -0.2991 -1.5698  0.5453
  128OSM    C8S13639   5.302   5.649   3.167 -0.6188  0.2546  1.3219
  128OSM    H8S13640   5.394   5.590   3.185  0.3260  1.5623  0.9197
  128OSM    H8T13641   5.249   5.597   3.084 -1.1839  1.9102  0.5864
  128OSM    C9S13642   5.214   5.677   3.293  0.3120 -0.5804 -0.6257
  128OSM    H9S13643   5.215   5.785   3.318 -1.2466 -0.6041 -0.3501
  128OSM    H9T13644   5.263   5.630   3.381  0.9496 -2.0240 -1.7123
  128OSM   C10S13645   5.075   5.619   3.278  0.5022  0.2670  0.3655
  128OSM   H10S13646   5.037   5.585   3.377 -2.3411 -0.1500 -0.7673
  128OSM   H10T13647   5.075   5.525   3.219  0.1274  0.7788 -0.4644
  128OSM   C11S13648   4.974   5.726   3.233  0.2479 -0.4175  0.1036
  128OSM   H11S13649   4.996   5.748   3.126 -0.8540  0.4890  0.0459
  128OSM   H11T13650   4.996   5.822   3.285 -0.6580 -0.5821  0.8198
  128OSM   C12S13651   4.828   5.692   3.264 -0.2756  0.1885 -0.1018
  128OSM   H12S13652   4.821   5.582   3.275  0.0704  0.1434 -0.3371
  128OSM   H12T13653   4.760   5.705   3.177 -0.2539 -0.5415 -0.2349
  128OSM   C13S13654   4.776   5.771   3.391 -1.0504 -0.0648 -0.0270
  128OSM   H13S13655   4.666   5.760   3.397 -1.4619  3.1690  0.0307
  128OSM   H13T13656   4.798   5.879   3.376  1.9553 -0.7540 -1.4265
  128OSM   C14S13657   4.847   5.729   3.523  0.2234  0.2881  0.7045
  128OSM   H14S13658   4.947   5.777   3.516 -0.0541  0.6397 -2.2145
  128OSM   H14T13659   4.850   5.618   3.523 -3.1397  0.0136  3.4969
  128OSM   C15S13660   4.761   5.772   3.641 -0.6353  0.0805 -0.2163
  128OSM   H15S13661   4.668   5.713   3.629  0.0408 -0.8916 -0.7706
  128OSM   H15T13662   4.742   5.882   3.635 -1.1711  0.1661  2.0565
  128OSM   C16S13663   4.829   5.733   3.766 -0.3120  0.2412 -0.0590
  128OSM   H16S13664   4.940   5.748   3.763 -0.3479  0.6980 -3.7568
  128OSM   H16T13665   4.832   5.622   3.763 -1.0096  0.2225 -0.2322
  128OSM   C17S13666   4.767   5.792   3.892 -0.3075  0.6389 -0.0365
  128OSM   H17S13667   4.672   5.740   3.914  0.1449  0.5044  1.7596
  128OSM   H17T13668   4.746   5.898   3.865  2.0879  1.4554  1.0391
  128OSM   C18S13669   4.863   5.789   4.007  0.6364 -0.2392  0.0848
  128OSM   H18S13670   4.816   5.836   4.096  0.5735  0.2014 -0.1777
  128OSM   H18T13671   4.958   5.844   3.987  1.4900 -1.8126 -0.3525
  128OSM   H18U13672   4.900   5.691   4.043 -0.2586 -0.6183  0.0068
  128OSM    C1F13673   4.996   5.364   2.862 -0.5203  0.9888  0.2168
  128OSM     OF13674   5.035   5.250   2.837 -0.4782  0.1206 -0.0311
  128OSM    C2F13675   4.903   5.390   2.972  0.6516  0.2012  0.4421
  128OSM    H2F13676   4.859   5.491   2.959  0.6816 -0.0981 -2.7230
  128OSM    H2G13677   4.963   5.380   3.065  4.8544  1.2230 -1.8851
  128OSM    C3F13678   4.793   5.280   2.979 -0.4471 -0.8058 -0.3284
  128OSM    H3F13679   4.841   5.188   3.019  0.3378  0.2839  1.3064
  128OSM    H3G13680   4.769   5.242   2.877 -0.7128 -1.3448 -0.0706
  128OSM    C4F13681   4.675   5.312   3.066 -0.2535  0.1358  0.0521
  128OSM    H4F13682   4.715   5.364   3.155  0.5857  1.1990 -0.9180
  128OSM    H4G13683   4.610   5.226   3.092 -0.2411 -0.0686 -0.5791
  128OSM    C5F13684   4.571   5.397   2.994 -0.1213  0.4988  0.9031
  128OSM    H5F13685   4.533   5.337   2.908  2.1549 -0.2863  0.3661
  128OSM    H5G13686   4.620   5.494   2.973  0.1120  0.0558 -0.7387
  128OSM    C6F13687   4.455   5.424   3.090  0.0084 -0.0359  0.2730
  128OSM    H6F13688   4.495   5.502   3.158 -0.8116  0.4988  0.1596
  128OSM    H6G13689   4.417   5.344   3.157 -3.1503 -0.0252 -1.3165
  128OSM    C7F13690   4.325   5.469   3.024 -0.0448  0.4036 -0.4662
  128OSM    H7F13691   4.255   5.385   3.006 -0.0208  0.7388 -2.4018
  128OSM    H7G13692   4.345   5.511   2.923  0.8759  2.0911  0.3649
  128OSM    C8F13693   4.261   5.587   3.101  0.3536 -0.2596 -0.9426
  128OSM    H8F13694   4.316   5.682   3.081 -0.8911  0.3688 -1.4569
  128OSM    H8G13695   4.267   5.566   3.210  0.9876  2.5132 -0.3644
  128OSM    C9F13696   4.117   5.605   3.065  1.0129  0.0287 -0.8346
  128OSM    H9F13697   4.089   5.626   2.960  0.6448 -2.0807 -1.2074
  128OSM   C10F13698   4.009   5.599   3.152  0.7849 -0.1527  0.1230
  128OSM   H10F13699   3.908   5.609   3.110  0.0908  0.4828  1.8495
  128OSM   C11F13700   4.006   5.581   3.301 -0.1541  0.3938  0.5876
  128OSM   H11F13701   4.108   5.561   3.341  0.7260  0.0164 -1.6789
  128OSM   H11G13702   3.944   5.494   3.332  0.5175 -0.2910  0.0587
  128OSM   C12F13703   3.935   5.697   3.372 -0.3547 -0.0230  0.3885
  128OSM   H12F13704   3.828   5.699   3.342 -0.5230 -0.8794  0.8958
  128OSM   H12G13705   3.984   5.793   3.344  1.1318 -0.2104  2.1188
  128OSM   C13F13706   3.936   5.680   3.529 -0.0132  0.1763 -0.2133
  128OSM   H13F13707   4.045   5.677   3.550  0.3145 -2.0562 -1.8927
  128OSM   H13G13708   3.893   5.582   3.558 -1.0457 -0.0797 -2.4530
  128OSM   C14F13709   3.856   5.788   3.599  0.6721 -0.3359 -0.0280
  128OSM   H14F13710   3.758   5.781   3.547 -0.2841 -1.0717  1.7836
  128OSM   H14G13711   3.901   5.886   3.572  0.0503 -0.0123  0.0972
  128OSM   C15F13712   3.837   5.767   3.752  0.1494  0.0444  0.7716
  128OSM   H15F13713   3.815   5.659   3.762 -3.1917  0.3108 -1.7543
  128OSM   H15G13714   3.748   5.816   3.799  0.1375  0.9259 -0.1350
  128OSM   C16F13715   3.962   5.800   3.840 -0.0117  0.3988 -0.2418
  128OSM   H16F13716   3.983   5.909   3.828  0.6035  0.2996 -0.1179
  128OSM   H16G13717   4.054   5.745   3.808  0.8883  1.7072  0.0034
  128OSM   C17F13718   3.943   5.783   3.995 -0.2675 -0.1495  0.4173
  128OSM   H17F13719   3.854   5.847   4.016 -0.7030  0.0204 -1.7044
  128OSM   H17G13720   4.029   5.825   4.050 -0.2643  0.2409  0.1220
  128OSM   C18F13721   3.923   5.641   4.050  0.5229 -0.7848  0.6031
  128OSM   H18F13722   4.003   5.579   4.004  0.8347 -0.3741  0.5868
  128OSM   H18G13723   3.823   5.608   4.015 -0.4976  1.0400  1.6124
  128OSM   H18H13724   3.929   5.640   4.161 -1.9595 -0.5391  0.7826
  129OSM      N13725   3.476   2.743   2.186 -0.2131  0.2229 -0.1309
  129OSM    C1513726   3.528   2.603   2.189 -0.9537  0.0261  0.3878
  129OSM   H15A13727   3.576   2.581   2.095 -1.4230 -1.3546  0.4547
  129OSM   H15B13728   3.442   2.541   2.209 -1.0739 -0.2971 -1.0315
  129OSM   H15C13729   3.602   2.593   2.266 -1.1883 -2.0089  0.3966
  129OSM    C1413730   3.574   2.842   2.125  0.2332 -0.5460 -0.0332
  129OSM   H14A13731   3.659   2.857   2.190 -0.4324  2.6460  0.2706
  129OSM   H14B13732   3.520   2.935   2.108 -1.3508 -1.3358  0.4422
  129OSM   H14C13733   3.616   2.817   2.029  0.3628  3.2178 -1.1235
  129OSM    C1313734   3.357   2.735   2.085 -0.0450  0.0912  0.2105
  129OSM   H13A13735   3.279   2.666   2.112 -0.5302 -0.0103 -1.3634
  129OSM   H13B13736   3.394   2.704   1.989  4.0661 -0.4618  1.7848
  129OSM   H13C13737   3.315   2.834   2.074  0.5441  0.3882  0.5760
  129OSM    C1213738   3.430   2.783   2.323 -0.0891  0.0494  0.2069
  129OSM   H12A13739   3.345   2.720   2.343 -0.0087  0.3307  1.4925
  129OSM   H12B13740   3.388   2.882   2.317 -0.2324 -0.0689 -1.1271
  129OSM    C1113741   3.523   2.776   2.442 -0.0235 -0.5131  0.0683
  129OSM   H11A13742   3.570   2.675   2.452 -0.1713 -0.5127  0.8248
  129OSM   H11B13743   3.463   2.781   2.535  0.0543 -0.2106  0.1027
  129OSM      P13744   3.599   3.022   2.470  0.0112  0.0269 -0.0188
  129OSM    O1313745   3.726   3.101   2.456  0.1016 -0.4665  0.4562
  129OSM    O1413746   3.475   3.064   2.397  0.2607 -0.2299 -0.7314
  129OSM    O1113747   3.571   3.007   2.623 -0.1565  0.6423 -0.1769
  129OSM    O1213748   3.628   2.874   2.425  0.3370 -0.0227  0.1334
  129OSM    C1S13749   3.524   3.129   2.690  0.1413 -0.2400 -0.3055
  129OSM    H1S13750   3.417   3.133   2.659  0.2192  1.4318 -0.4720
  129OSM    H1T13751   3.578   3.224   2.667 -3.2157  2.1171  0.7451
  129OSM     NF13752   3.475   3.241   2.907 -0.1836 -0.0545  0.2975
  129OSM    HNF13753   3.538   3.317   2.914  0.8902 -0.6774 -1.7768
  129OSM    C2S13754   3.529   3.117   2.846  0.7997 -1.1282 -0.2013
  129OSM    H2S13755   3.469   3.028   2.877  1.6757 -3.0522 -3.5191
  129OSM    C3S13756   3.681   3.085   2.888  0.1348  0.3912  0.6107
  129OSM    H3S13757   3.740   3.175   2.859  0.2525  0.3053  0.5810
  129OSM     O313758   3.751   2.979   2.815  0.5925  0.4245 -0.1815
  129OSM    HO313759   3.700   2.974   2.735  0.0965  0.4937  0.1258
  129OSM    C4S13760   3.697   3.059   3.041  0.1848  0.2149  0.3203
  129OSM    H4S13761   3.712   3.147   3.105 -0.4924  0.2456  0.4430
  129OSM    C5S13762   3.686   2.937   3.098  0.4611  0.1355 -0.6690
  129OSM    H5S13763   3.684   2.849   3.032 -3.2441 -1.5736  1.4013
  129OSM    C6S13764   3.720   2.915   3.244  0.7108 -0.5068  0.7498
  129OSM    H6S13765   3.718   2.807   3.272  0.0520 -0.2794  1.6099
  129OSM    H6T13766   3.631   2.952   3.300 -0.4666 -2.7949  0.4990
  129OSM    C7S13767   3.842   2.976   3.307 -0.0219 -0.5656  0.3481
  129OSM    H7S13768   3.839   3.086   3.294  3.8740 -0.6714 -4.0050
  129OSM    H7T13769   3.934   2.935   3.261 -0.8478 -1.2212 -0.7544
  129OSM    C8S13770   3.850   2.938   3.456 -0.1259  1.1427 -0.4792
  129OSM    H8S13771   3.871   2.829   3.448 -2.6190  0.6119 -0.4109
  129OSM    H8T13772   3.753   2.950   3.507  0.3380 -0.1874  0.7714
  129OSM    C9S13773   3.949   3.026   3.531 -0.2785  0.3662  0.5847
  129OSM    H9S13774   3.891   3.120   3.543 -2.0325 -0.6154  0.0771
  129OSM    H9T13775   4.040   3.050   3.472  1.0301 -2.7570  1.1430
  129OSM   C10S13776   4.014   2.965   3.660  0.2368 -0.1438 -0.1709
  129OSM   H10S13777   4.096   3.020   3.710  1.9045 -2.1906 -0.4919
  129OSM   H10T13778   4.064   2.880   3.609 -4.0994 -1.7559 -2.3036
  129OSM   C11S13779   3.905   2.924   3.757  0.9846  0.7909  0.1376
  129OSM   H11S13780   3.867   2.831   3.712  0.3308  0.4458  1.3719
  129OSM   H11T13781   3.822   2.998   3.749  1.1564  1.0317  0.4962
  129OSM   C12S13782   3.956   2.898   3.896 -0.5707 -0.3416 -0.5723
  129OSM   H12S13783   4.019   2.985   3.928 -1.1811  0.1037 -0.5585
  129OSM   H12T13784   4.014   2.804   3.905 -1.3192 -0.6808  1.2185
  129OSM   C13S13785   3.843   2.889   4.008  0.2135 -0.0411  0.6604
  129OSM   H13S13786   3.758   2.828   3.970  0.3194  0.4411 -0.3919
  129OSM   H13T13787   3.786   2.984   4.006 -1.6592 -1.1097 -2.0822
  129OSM   C14S13788   3.892   2.837   4.140 -0.3510  0.0581  0.0239
  129OSM   H14S13789   3.986   2.891   4.163  0.1972 -0.2041 -1.5102
  129OSM   H14T13790   3.930   2.733   4.130  1.2668  0.7053 -1.0365
  129OSM   C15S13791   3.787   2.845   4.256 -0.5213  0.2731  0.9338
  129OSM   H15S13792   3.697   2.792   4.219 -0.9844  2.6678 -1.6814
  129OSM   H15T13793   3.754   2.951   4.257 -0.3929  0.6215 -4.4188
  129OSM   C16S13794   3.844   2.793   4.391  0.2607 -0.2161  0.6608
  129OSM   H16S13795   3.916   2.867   4.430 -0.4929  1.5245 -1.0711
  129OSM   H16T13796   3.886   2.693   4.366 -0.4992 -0.2239 -0.7331
  129OSM   C17S13797   3.726   2.789   4.489  0.1969  1.0540 -0.2289
  129OSM   H17S13798   3.744   2.699   4.551 -0.5659 -0.6670 -2.3707
  129OSM   H17T13799   3.633   2.756   4.439  0.4897 -2.1568  1.1166
  129OSM   C18S13800   3.702   2.918   4.563 -0.7313  0.3971 -0.3465
  129OSM   H18S13801   3.662   2.988   4.486 -0.7239  1.5079  0.6249
  129OSM   H18T13802   3.797   2.958   4.603  0.8772 -1.0561 -2.5012
  129OSM   H18U13803   3.626   2.894   4.640  0.0130 -0.8575  0.0129
  129OSM    C1F13804   3.347   3.266   2.894 -0.6963  0.4364 -0.3001
  129OSM     OF13805   3.273   3.170   2.857 -0.1430 -0.4610  0.0337
  129OSM    C2F13806   3.297   3.402   2.937 -0.0914  0.6055 -0.4736
  129OSM    H2F13807   3.300   3.461   2.843 -1.3920  0.6140 -0.5257
  129OSM    H2G13808   3.367   3.450   3.009 -0.6294  0.8127 -0.0809
  129OSM    C3F13809   3.143   3.402   2.981  0.5936  0.0336 -0.6543
  129OSM    H3F13810   3.135   3.336   3.070 -0.0893  1.0539  0.0650
  129OSM    H3G13811   3.085   3.364   2.894 -0.7284  0.4436  0.0212
  129OSM    C4F13812   3.086   3.536   3.033 -0.1321  0.1254  0.0254
  129OSM    H4F13813   2.981   3.515   3.062 -0.5368  2.5395  0.4648
  129OSM    H4G13814   3.085   3.599   2.942 -0.1643 -1.2161 -0.9439
  129OSM    C5F13815   3.170   3.588   3.155 -0.0820 -0.3398  0.6201
  129OSM    H5F13816   3.274   3.598   3.116 -0.6568 -0.1651 -0.9281
  129OSM    H5G13817   3.176   3.513   3.237 -2.3442 -0.4920  0.7006
  129OSM    C6F13818   3.144   3.730   3.197 -0.3502 -0.0635 -0.3683
  129OSM    H6F13819   3.042   3.739   3.240  0.1669  0.0918  0.8613
  129OSM    H6G13820   3.157   3.795   3.107 -0.7992  0.5566  0.0126
  129OSM    C7F13821   3.238   3.775   3.306  0.0551  0.0406 -0.3864
  129OSM    H7F13822   3.333   3.767   3.250 -0.7001  1.6419 -1.9908
  129OSM    H7G13823   3.240   3.707   3.394 -0.2583 -1.1575 -1.2736
  129OSM    C8F13824   3.220   3.928   3.326 -0.0621 -0.2404  0.1874
  129OSM    H8F13825   3.117   3.940   3.366 -0.4088 -0.2828 -0.6803
  129OSM    H8G13826   3.237   3.978   3.229 -2.0821 -0.9221 -0.5627
  129OSM    C9F13827   3.311   3.999   3.423  0.4130 -0.5490  0.2547
  129OSM    H9F13828   3.417   3.970   3.428  0.7676  0.7571  0.6642
  129OSM   C10F13829   3.278   4.096   3.508 -0.3763 -0.1361 -0.1143
  129OSM   H10F13830   3.351   4.134   3.581 -1.4589 -1.5559  1.8302
  129OSM   C11F13831   3.146   4.171   3.528 -0.0433 -0.4496  0.4317
  129OSM   H11F13832   3.096   4.173   3.429  0.1983 -2.4304  0.2253
  129OSM   H11G13833   3.153   4.269   3.579 -2.9397  0.5861 -0.9452
  129OSM   C12F13834   3.077   4.086   3.634  1.5172  0.2281 -0.3290
  129OSM   H12F13835   3.134   4.069   3.728  1.3100 -0.5861 -0.3411
  129OSM   H12G13836   3.042   3.987   3.598 -2.1693  1.2842  0.0254
  129OSM   C13F13837   2.932   4.146   3.664  0.1346  0.1187 -0.0830
  129OSM   H13F13838   2.875   4.157   3.570 -0.9895 -2.5276  0.1916
  129OSM   H13G13839   2.941   4.248   3.707 -3.0998  1.0308 -1.2423
  129OSM   C14F13840   2.847   4.068   3.769  0.0121  0.2961 -0.2969
  129OSM   H14F13841   2.811   3.972   3.728  2.8666 -1.6984  1.5244
  129OSM   H14G13842   2.761   4.133   3.798  0.7740  1.9779 -1.5993
  129OSM   C15F13843   2.928   4.041   3.904  0.6102  0.9376  0.3411
  129OSM   H15F13844   2.966   4.138   3.943  2.3575 -0.1511  1.4668
  129OSM   H15G13845   3.009   3.966   3.894 -0.6192 -0.6709  1.7030
  129OSM   C16F13846   2.825   3.985   3.998  0.8260  0.5151 -0.5635
  129OSM   H16F13847   2.775   3.900   3.946 -0.6405  1.3637 -0.5821
  129OSM   H16G13848   2.738   4.050   4.022 -0.2357 -1.9523  3.2411
  129OSM   C17F13849   2.884   3.924   4.127  0.0265  0.5476  0.2136
  129OSM   H17F13850   2.793   3.890   4.182 -1.6942  2.1462 -1.4959
  129OSM   H17G13851   2.942   4.001   4.182  3.2310 -2.2164  1.0669
  129OSM   C18F13852   2.976   3.802   4.107 -0.2130  0.4900 -0.6620
  129OSM   H18F13853   3.056   3.831   4.035  1.7143 -1.6399  0.5214
  129OSM   H18G13854   2.910   3.725   4.063 -0.2948  0.9960 -1.4510
  129OSM   H18H13855   3.016   3.766   4.204 -0.9526  4.9583  1.5874
  130OSM      N13856   2.811   3.361   1.752 -0.0012  0.7958  0.3083
  130OSM    C1513857   2.877   3.326   1.626  0.0522  0.0334  0.8399
  130OSM   H15A13858   2.943   3.241   1.635  0.9938  0.7951  1.2846
  130OSM   H15B13859   2.936   3.404   1.581  0.0259 -1.2232 -1.5514
  130OSM   H15C13860   2.813   3.296   1.544 -0.5383  1.0672  0.9016
  130OSM    C1413861   2.728   3.489   1.742  0.7927  0.0661 -0.5341
  130OSM   H14A13862   2.638   3.460   1.689  0.8723  1.1328 -1.2781
  130OSM   H14B13863   2.782   3.563   1.685 -4.0090  0.8832 -4.7846
  130OSM   H14C13864   2.705   3.525   1.841  1.6318 -0.9351  0.0449
  130OSM    C1313865   2.705   3.251   1.777 -0.3421  0.2410 -0.3750
  130OSM   H13A13866   2.634   3.243   1.696 -1.5410  2.0025  0.4470
  130OSM   H13B13867   2.664   3.279   1.873 -0.9797 -2.2140  0.1586
  130OSM   H13C13868   2.756   3.157   1.792 -2.1462 -0.6976  0.2234
  130OSM    C1213869   2.906   3.370   1.870  0.0093  0.6269  0.7562
  130OSM   H12A13870   2.981   3.442   1.842 -0.3742  0.9868  0.6538
  130OSM   H12B13871   2.962   3.278   1.880  1.2033  1.3848  1.3032
  130OSM    C1113872   2.848   3.409   2.000 -0.2690 -0.7817  0.2025
  130OSM   H11A13873   2.785   3.499   1.987  0.7737 -0.0072  0.4134
  130OSM   H11B13874   2.918   3.441   2.080 -1.7296  2.1429  0.4426
  130OSM      P13875   2.835   3.170   2.098  0.0425  0.2281  0.0922
  130OSM    O1313876   2.738   3.065   2.065  0.3774  0.7495 -0.6814
  130OSM    O1413877   2.964   3.155   2.037 -0.1430  0.0692  0.2450
  130OSM    O1113878   2.841   3.188   2.255 -0.1256  0.0851 -0.8924
  130OSM    O1213879   2.767   3.310   2.056  0.0129  0.1507 -0.0810
  130OSM    C1S13880   2.715   3.200   2.329 -0.4146 -0.0735  1.0972
  130OSM    H1S13881   2.652   3.112   2.304  0.6366 -0.7243  0.6259
  130OSM    H1T13882   2.667   3.298   2.311  1.6118  0.5976 -1.2191
  130OSM     NF13883   2.612   3.129   2.544 -0.6119  0.3995  0.2163
  130OSM    HNF13884   2.569   3.197   2.603  0.8128 -0.8925  2.9118
  130OSM    C2S13885   2.741   3.155   2.475 -0.1176 -0.5761 -0.1305
  130OSM    H2S13886   2.803   3.062   2.476 -0.3007 -0.6932  0.5075
  130OSM    C3S13887   2.825   3.271   2.552  0.3058 -0.4550 -0.1176
  130OSM    H3S13888   2.779   3.372   2.546  2.1500  0.3690 -1.2318
  130OSM     O313889   2.957   3.285   2.506  0.2453  0.6705 -0.4669
  130OSM    HO313890   2.974   3.238   2.424 -0.1507  0.4662 -0.4353
  130OSM    C4S13891   2.829   3.240   2.697 -0.9996 -0.9551  0.3734
  130OSM    H4S13892   2.743   3.291   2.742  0.0006  2.7719 -1.5531
  130OSM    C5S13893   2.911   3.173   2.780  0.0550  0.3566  0.2494
  130OSM    H5S13894   2.999   3.130   2.729  0.4706  3.0747 -1.5473
  130OSM    C6S13895   2.891   3.148   2.925  0.5734  0.6062 -0.3922
  130OSM    H6S13896   2.897   3.245   2.979  2.1984  0.0972  0.4096
  130OSM    H6T13897   2.984   3.096   2.959  1.0621  0.0087 -2.4684
  130OSM    C7S13898   2.775   3.059   2.961 -0.0570 -0.3965 -0.1202
  130OSM    H7S13899   2.790   2.960   2.912 -0.1554 -0.5474  0.1482
  130OSM    H7T13900   2.685   3.106   2.918 -0.1553 -0.9505 -0.5394
  130OSM    C8S13901   2.761   3.031   3.106  0.4811 -0.4670 -0.5619
  130OSM    H8S13902   2.652   3.026   3.126  0.0096  3.6277 -1.0945
  130OSM    H8T13903   2.787   3.120   3.168  0.3168  0.2578 -1.4946
  130OSM    C9S13904   2.833   2.905   3.153  0.1964 -0.3803 -0.5748
  130OSM    H9S13905   2.936   2.905   3.111  0.2994  0.5386 -0.3531
  130OSM    H9T13906   2.788   2.817   3.103 -0.1948 -0.5937  0.1418
  130OSM   C10S13907   2.831   2.900   3.303  0.0310  0.7437  0.0276
  130OSM   H10S13908   2.724   2.883   3.328  0.4501 -0.2869  1.2500
  130OSM   H10T13909   2.864   2.995   3.349 -1.2071  1.4775 -0.5828
  130OSM   C11S13910   2.905   2.775   3.351  0.0888  0.4760 -0.4229
  130OSM   H11S13911   3.008   2.765   3.310  0.3796  1.6017 -0.0183
  130OSM   H11T13912   2.847   2.688   3.314  1.0469 -0.3508 -0.0198
  130OSM   C12S13913   2.914   2.763   3.505 -0.0026  0.3492  0.0409
  130OSM   H12S13914   2.970   2.669   3.525  1.3861  0.8636 -1.1704
  130OSM   H12T13915   2.809   2.766   3.540 -0.2053 -3.8404  0.3084
  130OSM   C13S13916   3.000   2.865   3.589  0.1724  0.4702 -0.8855
  130OSM   H13S13917   2.948   2.964   3.589 -2.5333 -0.8485  0.5636
  130OSM   H13T13918   3.100   2.873   3.542  0.8432  0.8713  0.5759
  130OSM   C14S13919   3.001   2.819   3.734 -0.5912  0.6043 -0.3044
  130OSM   H14S13920   3.076   2.883   3.786 -0.8232 -0.5204  1.5099
  130OSM   H14T13921   3.041   2.715   3.736 -1.1164  0.3573 -1.6463
  130OSM   C15S13922   2.860   2.818   3.809  0.3847 -0.1342  0.3332
  130OSM   H15S13923   2.801   2.739   3.757 -0.1709 -0.3967  1.3516
  130OSM   H15T13924   2.808   2.914   3.789  1.6762  0.1222 -2.3489
  130OSM   C16S13925   2.855   2.788   3.962 -0.1408 -0.7792 -0.0597
  130OSM   H16S13926   2.750   2.752   3.972 -0.4735 -1.3604 -3.9334
  130OSM   H16T13927   2.881   2.883   4.013 -0.5139 -0.9817  0.5148
  130OSM   C17S13928   2.968   2.694   4.009  0.7612  0.1963  0.0121
  130OSM   H17S13929   2.964   2.707   4.119 -1.6378 -0.5939  0.0671
  130OSM   H17T13930   3.066   2.732   3.973  1.1301  0.2676  1.0634
  130OSM   C18S13931   2.943   2.543   3.979  0.1303 -0.2809  0.4615
  130OSM   H18S13932   2.897   2.532   3.879 -1.2720 -2.0192  1.2442
  130OSM   H18T13933   2.859   2.504   4.041 -1.0245 -4.6979 -3.3007
  130OSM   H18U13934   3.039   2.490   3.998  1.3203  1.7351  0.3179
  130OSM    C1F13935   2.553   3.013   2.515 -0.2673 -0.6400 -0.0986
  130OSM     OF13936   2.605   2.925   2.449 -0.2134  0.1214 -0.0627
  130OSM    C2F13937   2.422   2.995   2.577  0.4430  0.2088 -0.6015
  130OSM    H2F13938   2.346   3.013   2.498 -0.9995 -1.5266  0.2988
  130OSM    H2G13939   2.416   3.071   2.658 -0.5368  1.0737 -1.4533
  130OSM    C3F13940   2.401   2.863   2.660 -0.1356 -0.0267  0.3778
  130OSM    H3F13941   2.405   2.776   2.591  1.4467  1.5395 -1.6617
  130OSM    H3G13942   2.293   2.863   2.685 -0.5656 -0.4429 -1.3613
  130OSM    C4F13943   2.509   2.841   2.770 -0.2804 -0.3805 -0.0992
  130OSM    H4F13944   2.526   2.946   2.805  0.3065 -0.1143 -1.1256
  130OSM    H4G13945   2.605   2.798   2.735  0.3996  2.3212 -1.8418
  130OSM    C5F13946   2.449   2.751   2.876 -0.1249  0.0398  0.6070
  130OSM    H5F13947   2.425   2.650   2.836  0.7672  0.2660 -0.5375
  130OSM    H5G13948   2.352   2.800   2.902 -0.5984  1.3207 -3.0179
  130OSM    C6F13949   2.520   2.742   3.008 -1.0510 -0.2576  0.9659
  130OSM    H6F13950   2.541   2.844   3.046  3.0370 -0.0477 -1.2218
  130OSM    H6G13951   2.623   2.700   3.003 -0.8368  0.3061  0.4389
  130OSM    C7F13952   2.450   2.664   3.109 -0.4615  0.2955 -0.3437
  130OSM    H7F13953   2.444   2.561   3.069  0.6209 -0.7529  2.0046
  130OSM    H7G13954   2.347   2.705   3.114 -0.0758  1.2019  0.5622
  130OSM    C8F13955   2.530   2.661   3.240 -0.5942 -0.0685 -0.5258
  130OSM    H8F13956   2.535   2.759   3.293 -1.0393 -1.2239  1.7763
  130OSM    H8G13957   2.636   2.641   3.213  0.0273 -0.4853  2.0072
  130OSM    C9F13958   2.484   2.553   3.335  0.2610 -0.2771  0.3862
  130OSM    H9F13959   2.456   2.461   3.282 -1.1358 -0.7616  1.8865
  130OSM   C10F13960   2.471   2.551   3.467 -0.4973  0.1516  0.2072
  130OSM   H10F13961   2.430   2.457   3.505 -1.0496 -0.1443 -1.0733
  130OSM   C11F13962   2.491   2.666   3.562  0.4545  1.0763  0.2902
  130OSM   H11F13963   2.465   2.758   3.506  2.9599  1.9010  0.3631
  130OSM   H11G13964   2.595   2.665   3.602 -0.0496  0.1338  1.6696
  130OSM   C12F13965   2.403   2.655   3.691 -0.4545  0.3655  0.8310
  130OSM   H12F13966   2.393   2.549   3.722  1.1001  0.2020  0.8371
  130OSM   H12G13967   2.304   2.693   3.658 -0.5661  0.6896  1.5288
  130OSM   C13F13968   2.457   2.745   3.806  0.1407 -0.3611 -0.5393
  130OSM   H13F13969   2.474   2.847   3.766 -1.0305  0.4304  0.8897
  130OSM   H13G13970   2.549   2.700   3.850 -0.6900 -1.3730  0.2196
  130OSM   C14F13971   2.349   2.757   3.919  0.0595 -0.1436 -0.2241
  130OSM   H14F13972   2.307   2.658   3.949  0.6054 -0.4224 -0.3749
  130OSM   H14G13973   2.267   2.819   3.877  0.1378 -1.3577 -2.3156
  130OSM   C15F13974   2.408   2.833   4.039 -0.0802 -0.7826  0.5727
  130OSM   H15F13975   2.329   2.890   4.093  1.2871  0.5358  1.2282
  130OSM   H15G13976   2.477   2.915   4.008 -2.3858  1.2338  0.4419
  130OSM   C16F13977   2.494   2.741   4.131  0.1785  0.2885 -0.3713
  130OSM   H16F13978   2.565   2.680   4.071 -0.1446  0.4721 -0.9498
  130OSM   H16G13979   2.427   2.676   4.191  1.8358 -1.0302  0.1134
  130OSM   C17F13980   2.575   2.831   4.233 -1.0895  0.3609  0.0573
  130OSM   H17F13981   2.513   2.907   4.285  2.1265  2.4700  1.1195
  130OSM   H17G13982   2.637   2.891   4.163 -1.4219  0.1984 -0.3837
  130OSM   C18F13983   2.673   2.751   4.326  0.2910  0.3897  1.0253
  130OSM   H18F13984   2.739   2.683   4.269  0.1773  0.4053  0.8744
  130OSM   H18G13985   2.619   2.690   4.401 -1.3267 -0.2427 -0.5619
  130OSM   H18H13986   2.738   2.819   4.385  0.0290  0.9048  0.7324
  131OSM      N13987   2.857   7.119   2.122 -0.1127  0.3742 -0.3995
  131OSM    C1513988   2.774   7.018   2.042  0.4262  0.1881 -0.4308
  131OSM   H15A13989   2.819   6.921   2.052 -1.3193 -0.6521 -0.2855
  131OSM   H15B13990   2.766   7.052   1.939  1.0039 -1.3005 -0.9947
  131OSM   H15C13991   2.678   6.996   2.087  1.6886 -0.0194  2.3296
  131OSM    C1413992   2.993   7.133   2.054  0.0142  0.1711  0.2052
  131OSM   H14A13993   3.062   7.203   2.099  2.4371 -0.7726 -1.8085
  131OSM   H14B13994   2.980   7.168   1.953 -0.6826 -0.7892 -0.0509
  131OSM   H14C13995   3.046   7.039   2.040 -0.9825 -0.0835 -2.3316
  131OSM    C1313996   2.789   7.251   2.109 -0.2348 -0.1933 -0.1221
  131OSM   H13A13997   2.790   7.280   2.005  0.0181  1.5977  0.3449
  131OSM   H13B13998   2.845   7.330   2.157  0.8447 -1.0223  0.0250
  131OSM   H13C13999   2.689   7.248   2.149  0.1594 -3.6462  0.9210
  131OSM    C1214000   2.870   7.078   2.272 -0.4100  0.3804  0.6200
  131OSM   H12A14001   2.769   7.051   2.300  0.0155 -3.1078 -0.6006
  131OSM   H12B14002   2.902   7.168   2.322  0.0021  0.7805 -0.3409
  131OSM    C1114003   2.957   6.955   2.319  0.2622 -0.0085  0.6419
  131OSM   H11A14004   2.966   6.957   2.429  1.4550 -0.4972  0.5707
  131OSM   H11B14005   3.059   6.964   2.276 -0.2161 -2.5906 -1.3071
  131OSM      P14006   2.961   6.721   2.190 -0.4216 -0.3491 -0.3883
  131OSM    O1314007   2.852   6.647   2.126  0.3163  0.7240 -0.2666
  131OSM    O1414008   3.060   6.785   2.099  0.2231  0.4152  0.1581
  131OSM    O1114009   3.030   6.626   2.301 -0.5396 -0.0064 -0.0230
  131OSM    O1214010   2.887   6.830   2.279 -0.3915  0.2689 -0.2056
  131OSM    C1S14011   2.963   6.601   2.425  0.1316 -0.0713  0.0623
  131OSM    H1S14012   2.881   6.530   2.400 -0.5190  0.7327 -0.1329
  131OSM    H1T14013   2.915   6.690   2.470  0.0852  0.4544 -0.9811
  131OSM     NF14014   2.975   6.511   2.660  0.2732  0.4585 -0.1938
  131OSM    HNF14015   2.977   6.562   2.746 -2.2680 -0.8010  0.7095
  131OSM    C2S14016   3.054   6.567   2.549 -0.1371  0.4176  0.9183
  131OSM    H2S14017   3.127   6.491   2.514  0.0603  0.9134  0.2126
  131OSM    C3S14018   3.155   6.684   2.575  0.2729 -0.0298 -0.1580
  131OSM    H3S14019   3.092   6.769   2.607  0.3146 -0.2390  0.4887
  131OSM     O314020   3.232   6.741   2.463  0.6239 -0.2169  0.2803
  131OSM    HO314021   3.187   6.704   2.387  0.5219  0.3012  0.0824
  131OSM    C4S14022   3.241   6.647   2.700  0.7225  0.0713  0.1734
  131OSM    H4S14023   3.200   6.677   2.797 -0.0363 -1.6175  0.4059
  131OSM    C5S14024   3.363   6.595   2.704  0.3991 -0.3123 -0.4437
  131OSM    H5S14025   3.404   6.557   2.610  3.4718  0.5425  0.4502
  131OSM    C6S14026   3.459   6.592   2.819 -0.4187 -0.1160  0.4366
  131OSM    H6S14027   3.534   6.673   2.812 -1.2250  0.7816  1.7362
  131OSM    H6T14028   3.518   6.497   2.816 -2.6626 -1.5533 -1.9366
  131OSM    C7S14029   3.389   6.593   2.962  0.7628  0.4558  0.2894
  131OSM    H7S14030   3.315   6.510   2.965  0.8076  0.4291  0.6655
  131OSM    H7T14031   3.333   6.689   2.970  0.4585  0.2895  0.2090
  131OSM    C8S14032   3.477   6.575   3.082 -0.1892  0.3227  0.4254
  131OSM    H8S14033   3.536   6.668   3.076 -1.0347  0.8217 -0.3195
  131OSM    H8T14034   3.544   6.487   3.073 -0.3042  0.0497  1.9397
  131OSM    C9S14035   3.397   6.576   3.209  0.2138  0.0937 -0.6561
  131OSM    H9S14036   3.469   6.562   3.293 -1.6638  0.1570  1.0298
  131OSM    H9T14037   3.335   6.484   3.205  0.0518  0.0582  1.5132
  131OSM   C10S14038   3.316   6.701   3.231  0.6792  0.0516 -0.3216
  131OSM   H10S14039   3.230   6.691   3.161  0.6185 -1.8557 -0.0267
  131OSM   H10T14040   3.368   6.798   3.215 -3.0846  1.9897 -1.9536
  131OSM   C11S14041   3.242   6.706   3.364  0.5890 -0.0589  0.3550
  131OSM   H11S14042   3.158   6.634   3.371  0.7114 -0.0787  1.9311
  131OSM   H11T14043   3.204   6.811   3.367  1.8894  0.4024  2.6066
  131OSM   C12S14044   3.328   6.690   3.478  0.0610 -0.0639 -0.0769
  131OSM   H12S14045   3.418   6.751   3.454  0.0377 -0.0077 -0.0205
  131OSM   H12T14046   3.365   6.589   3.505  0.8056  0.6785  1.8287
  131OSM   C13S14047   3.272   6.755   3.602  0.1348 -0.0744 -0.4523
  131OSM   H13S14048   3.244   6.862   3.586  1.1665  0.8096  2.8470
  131OSM   H13T14049   3.351   6.766   3.679 -1.2419 -1.1245  1.2002
  131OSM   C14S14050   3.157   6.678   3.670 -0.1928  0.0488  0.7218
  131OSM   H14S14051   3.183   6.571   3.654  0.2559  0.0848  1.1966
  131OSM   H14T14052   3.063   6.700   3.616 -0.4329 -0.2576  1.0138
  131OSM   C15S14053   3.129   6.706   3.822 -0.1483 -0.0266 -0.2434
  131OSM   H15S14054   3.053   6.632   3.854  0.9757 -0.5516  1.3033
  131OSM   H15T14055   3.091   6.810   3.820  1.6388  0.6895  0.7028
  131OSM   C16S14056   3.251   6.691   3.917 -0.5450  0.5058 -0.0455
  131OSM   H16S14057   3.223   6.709   4.023 -2.3196  0.0694 -0.4117
  131OSM   H16T14058   3.332   6.760   3.884 -0.0516 -0.0537 -0.0027
  131OSM   C17S14059   3.304   6.549   3.930  0.4968  0.7956  0.6492
  131OSM   H17S14060   3.309   6.505   3.828 -2.9930 -1.6754  1.3475
  131OSM   H17T14061   3.233   6.493   3.995  1.5018 -0.3625  0.7955
  131OSM   C18S14062   3.449   6.541   3.990  0.4924  0.8516  0.4150
  131OSM   H18S14063   3.523   6.568   3.911 -0.4687  0.6950 -0.5642
  131OSM   H18T14064   3.470   6.435   4.018  2.3029  0.4665 -1.9985
  131OSM   H18U14065   3.452   6.608   4.078  0.2971 -0.7259  1.6591
  131OSM    C1F14066   2.892   6.408   2.653 -0.0086  0.1682 -0.8714
  131OSM     OF14067   2.890   6.339   2.548  0.4568 -0.3690  0.0086
  131OSM    C2F14068   2.813   6.379   2.768 -0.1616 -0.9470 -0.0389
  131OSM    H2F14069   2.786   6.471   2.825  2.0759 -0.9286  1.0829
  131OSM    H2G14070   2.869   6.309   2.834  0.1858 -2.1084 -1.5294
  131OSM    C3F14071   2.687   6.293   2.731  0.1960  0.1759 -0.2591
  131OSM    H3F14072   2.719   6.217   2.656  0.3836  0.4779 -0.4865
  131OSM    H3G14073   2.617   6.363   2.681  0.7244  0.7288 -0.2302
  131OSM    C4F14074   2.615   6.217   2.847 -0.1464  0.5401 -0.3216
  131OSM    H4F14075   2.690   6.150   2.894 -0.4962  0.1662 -0.2906
  131OSM    H4G14076   2.539   6.146   2.810  0.5365 -0.7710  0.7113
  131OSM    C5F14077   2.555   6.302   2.962 -0.4897 -0.1207 -0.0296
  131OSM    H5F14078   2.488   6.371   2.907 -0.5397  1.4481  1.9040
  131OSM    H5G14079   2.634   6.363   3.011 -0.2580 -0.7643  0.4230
  131OSM    C6F14080   2.481   6.228   3.078 -0.0618  0.9213  0.1164
  131OSM    H6F14081   2.559   6.166   3.126  0.0617 -0.4247 -1.7185
  131OSM    H6G14082   2.401   6.165   3.033  1.1627 -1.7962  1.5471
  131OSM    C7F14083   2.436   6.329   3.179  0.6553 -0.2324 -1.3973
  131OSM    H7F14084   2.349   6.382   3.135 -0.9260 -0.1959  1.5259
  131OSM    H7G14085   2.511   6.408   3.199 -0.0672  0.1132  0.1546
  131OSM    C8F14086   2.378   6.271   3.314  0.1596 -0.5590  1.0671
  131OSM    H8F14087   2.356   6.361   3.376 -1.2420  0.5223 -0.8886
  131OSM    H8G14088   2.463   6.223   3.367  0.0414 -1.5808  0.3655
  131OSM    C9F14089   2.247   6.194   3.297 -0.5404 -0.0497  0.5656
  131OSM    H9F14090   2.250   6.102   3.238 -0.5413 -0.2656  0.9022
  131OSM   C10F14091   2.120   6.227   3.334 -0.2238  0.0697 -0.8392
  131OSM   H10F14092   2.052   6.141   3.335  0.4486 -0.4828  0.8536
  131OSM   C11F14093   2.084   6.353   3.415 -0.4525 -0.5403 -0.4478
  131OSM   H11F14094   2.015   6.418   3.355  0.4211  1.9496  1.0812
  131OSM   H11G14095   2.167   6.425   3.436 -2.2011  2.3736 -2.6757
  131OSM   C12F14096   2.001   6.327   3.542  0.2771 -0.3251 -0.1653
  131OSM   H12F14097   1.919   6.255   3.526  0.9866 -1.1985  0.0608
  131OSM   H12G14098   1.943   6.414   3.580 -0.1619 -2.0994  3.6425
  131OSM   C13F14099   2.087   6.270   3.662  0.3000 -0.2492  0.1343
  131OSM   H13F14100   2.172   6.339   3.680 -0.9589  0.5749  3.7034
  131OSM   H13G14101   2.125   6.170   3.633  2.7396  0.6872 -0.0818
  131OSM   C14F14102   2.003   6.251   3.785  0.2532 -0.9124 -0.1762
  131OSM   H14F14103   1.922   6.177   3.766  1.4327 -2.1128 -0.7279
  131OSM   H14G14104   1.961   6.349   3.817  2.0103 -0.5852  1.2726
  131OSM   C15F14105   2.080   6.187   3.897  0.0118 -0.2434 -0.2573
  131OSM   H15F14106   2.171   6.250   3.913  0.3432 -1.2238  2.1234
  131OSM   H15G14107   2.123   6.089   3.867 -0.7194 -0.6055 -0.1383
  131OSM   C16F14108   1.994   6.170   4.020  0.1274  0.2925  0.1680
  131OSM   H16F14109   1.917   6.093   3.998  2.4205 -2.1549  0.0345
  131OSM   H16G14110   1.934   6.259   4.048  0.7524  0.6310  0.4563
  131OSM   C17F14111   2.088   6.102   4.121  0.6776 -0.3606  0.0415
  131OSM   H17F14112   2.172   6.174   4.135 -0.5132  0.9420  0.8228
  131OSM   H17G14113   2.133   6.017   4.066  0.5752 -1.5611  1.7467
  131OSM   C18F14114   2.029   6.066   4.257  0.2006 -0.2091 -0.2917
  131OSM   H18F14115   1.978   6.152   4.306  1.0799 -0.2303  0.6812
  131OSM   H18G14116   2.107   6.026   4.325  0.0558  1.5690  0.9798
  131OSM   H18H14117   1.947   5.992   4.247  1.3848 -1.6112  0.0247
  132OSM      N14118   1.246   3.041   2.361 -0.4227  0.4314  0.4185
  132OSM    C1514119   1.253   2.971   2.231  0.5104 -1.1218 -0.5715
  132OSM   H15A14120   1.201   2.877   2.245  1.2083 -1.4702 -0.2271
  132OSM   H15B14121   1.356   2.954   2.204  0.9215  0.2074  0.0899
  132OSM   H15C14122   1.207   3.031   2.154  0.2887  0.4627  0.7405
  132OSM    C1414123   1.333   3.167   2.345 -0.2666 -0.4055 -0.2842
  132OSM   H14A14124   1.431   3.137   2.314 -0.7183 -0.4791 -1.6919
  132OSM   H14B14125   1.344   3.225   2.436 -2.2475 -0.7222  0.2041
  132OSM   H14C14126   1.289   3.228   2.267  0.4265 -0.9038 -1.0814
  132OSM    C1314127   1.101   3.078   2.385 -0.6504  0.0456 -0.1474
  132OSM   H13A14128   1.089   3.135   2.476  1.0538 -0.7029  0.5812
  132OSM   H13B14129   1.043   2.988   2.393  0.3292 -0.4089  3.5865
  132OSM   H13C14130   1.060   3.144   2.310 -0.1209  1.7948  1.0245
  132OSM    C1214131   1.290   2.943   2.470 -0.0899 -0.5881  0.5732
  132OSM   H12A14132   1.301   2.994   2.565  0.1318  1.7614 -0.6358
  132OSM   H12B14133   1.392   2.916   2.450  0.2852  0.2362  1.2946
  132OSM    C1114134   1.207   2.815   2.493  0.0098  0.1801  0.1139
  132OSM   H11A14135   1.099   2.836   2.511  0.1728  2.2514 -1.0186
  132OSM   H11B14136   1.248   2.765   2.584 -0.7100  1.3044  1.0925
  132OSM      P14137   1.130   2.607   2.348  0.1059 -0.3276  0.1245
  132OSM    O1314138   1.016   2.644   2.267 -0.3949 -0.3654 -0.1011
  132OSM    O1414139   1.217   2.506   2.295 -1.1392  0.6218  0.9712
  132OSM    O1114140   1.075   2.557   2.490 -0.6600 -0.4989  0.5559
  132OSM    O1214141   1.225   2.731   2.380 -0.3213  0.4543 -0.0983
  132OSM    C1S14142   0.957   2.479   2.498 -0.0787  0.1379 -0.7917
  132OSM    H1S14143   0.969   2.399   2.421  1.1670  0.3069 -0.7783
  132OSM    H1T14144   0.864   2.537   2.479 -0.7927 -0.7143  0.0120
  132OSM     NF14145   0.833   2.319   2.658  0.2452 -0.3874  0.0407
  132OSM    HNF14146   0.742   2.354   2.676 -0.2331 -1.0235 -1.0590
  132OSM    C2S14147   0.929   2.434   2.648 -0.1872  0.3367  0.5261
  132OSM    H2S14148   1.026   2.391   2.681 -0.9648 -0.7698  1.4240
  132OSM    C3S14149   0.891   2.551   2.736  0.5289  0.3596  0.0410
  132OSM    H3S14150   0.785   2.576   2.717  0.2002  0.1059  1.4054
  132OSM     O314151   0.964   2.673   2.715  0.7837  0.2926 -0.2946
  132OSM    HO314152   1.018   2.646   2.640 -0.6238  0.1240 -1.2866
  132OSM    C4S14153   0.889   2.514   2.889 -0.2658 -0.7322  0.4933
  132OSM    H4S14154   0.794   2.468   2.920  0.8188 -2.1331  1.8794
  132OSM    C5S14155   0.985   2.551   2.984  0.1534 -0.3512  0.0565
  132OSM    H5S14156   1.070   2.617   2.961 -0.7248  0.1130 -2.0220
  132OSM    C6S14157   0.962   2.520   3.130 -0.2605 -0.4736  0.7289
  132OSM    H6S14158   0.977   2.621   3.174  0.5863  0.8451 -2.3560
  132OSM    H6T14159   1.038   2.448   3.168 -0.4472 -0.7967  0.4965
  132OSM    C7S14160   0.818   2.480   3.174  0.2230 -0.5313  0.7669
  132OSM    H7S14161   0.796   2.387   3.117  0.5794  0.5517 -1.2427
  132OSM    H7T14162   0.746   2.563   3.156 -0.5787 -1.2499  0.6277
  132OSM    C8S14163   0.802   2.443   3.321  0.0331 -0.0336  0.6396
  132OSM    H8S14164   0.841   2.342   3.344  2.9948  0.4597 -1.6339
  132OSM    H8T14165   0.693   2.439   3.341  0.4200  0.1533  3.0119
  132OSM    C9S14166   0.855   2.549   3.412  0.9758  0.4264  0.8618
  132OSM    H9S14167   0.822   2.651   3.384 -1.8190 -0.3686  0.8995
  132OSM    H9T14168   0.965   2.539   3.408  0.8783 -0.1211 -1.4576
  132OSM   C10S14169   0.804   2.534   3.561 -0.4583  0.2727 -0.1311
  132OSM   H10S14170   0.829   2.428   3.584  0.3205  0.5418  0.2952
  132OSM   H10T14171   0.693   2.533   3.567 -0.4333 -0.7779  0.3710
  132OSM   C11S14172   0.859   2.638   3.655 -0.3100  0.9782  0.2250
  132OSM   H11S14173   0.844   2.744   3.625 -0.6713  0.7404 -0.4515
  132OSM   H11T14174   0.969   2.624   3.666 -0.1898  1.4451 -0.3256
  132OSM   C12S14175   0.799   2.601   3.793  0.7273 -0.6967 -0.2812
  132OSM   H12S14176   0.807   2.493   3.820 -1.4680 -0.9535 -0.4508
  132OSM   H12T14177   0.690   2.623   3.795  1.4271  3.5802  1.1674
  132OSM   C13S14178   0.853   2.680   3.905  0.2836  0.1735 -0.1685
  132OSM   H13S14179   0.964   2.672   3.903  0.5280  2.7650 -2.2057
  132OSM   H13T14180   0.809   2.633   3.996 -2.5144 -0.9064 -1.9419
  132OSM   C14S14181   0.814   2.826   3.897 -0.1771 -0.2711  0.1093
  132OSM   H14S14182   0.710   2.830   3.858 -0.7274 -0.8751  1.4340
  132OSM   H14T14183   0.878   2.866   3.815  0.8390 -2.2476 -0.1138
  132OSM   C15S14184   0.826   2.909   4.024  0.8103  0.1196 -0.8966
  132OSM   H15S14185   0.814   3.015   3.995  1.7942  0.6518  0.5462
  132OSM   H15T14186   0.925   2.899   4.073  0.2534  2.4235  0.8773
  132OSM   C16S14187   0.727   2.859   4.133 -0.5294 -0.5209  0.6041
  132OSM   H16S14188   0.750   2.762   4.181 -1.4640 -0.3873  1.3354
  132OSM   H16T14189   0.623   2.868   4.095 -0.1739  0.7072 -0.1614
  132OSM   C17S14190   0.729   2.961   4.253  0.0886 -0.2631 -0.4163
  132OSM   H17S14191   0.835   2.996   4.262 -0.2191  1.3087 -2.1481
  132OSM   H17T14192   0.698   2.900   4.340 -1.2584  0.6292 -0.2486
  132OSM   C18S14193   0.636   3.086   4.257 -0.2353  0.6098  0.6225
  132OSM   H18S14194   0.543   3.076   4.197 -0.1689  0.9933  0.4500
  132OSM   H18T14195   0.694   3.164   4.203 -2.2307  0.0061 -2.6913
  132OSM   H18U14196   0.607   3.124   4.357 -2.0529  1.7653 -0.2957
  132OSM    C1F14197   0.854   2.200   2.589  0.2066 -0.6803 -0.0661
  132OSM     OF14198   0.959   2.176   2.538  0.0401 -0.1977 -0.0998
  132OSM    C2F14199   0.736   2.110   2.568  0.1017 -0.2666  0.1689
  132OSM    H2F14200   0.703   2.118   2.462  0.5462 -0.8710 -0.0193
  132OSM    H2G14201   0.658   2.141   2.641 -0.6506 -0.0312 -0.7131
  132OSM    C3F14202   0.779   1.965   2.598  1.1369 -0.5829  0.0119
  132OSM    H3F14203   0.874   1.946   2.544  1.2613 -0.8003  0.3034
  132OSM    H3G14204   0.709   1.887   2.561  1.9264 -0.8688 -0.8971
  132OSM    C4F14205   0.818   1.953   2.744 -0.6140  0.4177  0.2230
  132OSM    H4F14206   0.896   2.026   2.775 -1.5616  1.8395 -0.6353
  132OSM    H4G14207   0.866   1.853   2.752 -2.3465 -0.3493  1.8187
  132OSM    C5F14208   0.706   1.944   2.853  0.7436 -0.4739  0.3300
  132OSM    H5F14209   0.630   1.867   2.829  0.0862  0.1552  0.3673
  132OSM    H5G14210   0.648   2.039   2.858  1.6186  0.0876  0.0469
  132OSM    C6F14211   0.757   1.913   2.987  0.2622 -0.6455 -0.0539
  132OSM    H6F14212   0.831   1.981   3.034 -0.2770 -0.0385 -0.0712
  132OSM    H6G14213   0.807   1.817   2.964 -0.2029 -1.0985  0.7915
  132OSM    C7F14214   0.649   1.895   3.094 -0.2964  1.1147 -0.1937
  132OSM    H7F14215   0.672   1.819   3.171 -1.5540 -1.3158 -2.0573
  132OSM    H7G14216   0.556   1.855   3.048  0.9090 -0.5313 -1.3237
  132OSM    C8F14217   0.623   2.029   3.161 -0.0012 -0.2988  0.3692
  132OSM    H8F14218   0.603   2.104   3.082  0.9673  0.6545  0.9850
  132OSM    H8G14219   0.722   2.064   3.199  0.2751  0.8315 -1.2720
  132OSM    C9F14220   0.510   2.014   3.266 -1.1999  0.7346  0.1534
  132OSM    H9F14221   0.415   2.063   3.242 -1.5525  0.9022  1.7295
  132OSM   C10F14222   0.520   1.971   3.394  0.4350 -0.4047 -0.2186
  132OSM   H10F14223   0.427   1.968   3.453  1.3210  1.6615  1.3678
  132OSM   C11F14224   0.644   1.921   3.467 -0.0831  0.1727  0.1777
  132OSM   H11F14225   0.721   1.927   3.388 -0.7300 -0.3973 -0.5016
  132OSM   H11G14226   0.644   1.814   3.496 -4.9732 -0.1454 -0.1783
  132OSM   C12F14227   0.701   2.021   3.579 -0.3013  0.4221 -0.2790
  132OSM   H12F14228   0.702   2.123   3.534 -0.8919  1.3620  1.7255
  132OSM   H12G14229   0.808   1.990   3.590 -0.5175 -1.2843 -2.2915
  132OSM   C13F14230   0.632   2.007   3.718  0.0043  0.1093  0.1836
  132OSM   H13F14231   0.654   1.911   3.769 -1.3736 -0.9195 -1.0736
  132OSM   H13G14232   0.523   2.022   3.707 -0.2958 -1.1360  1.2855
  132OSM   C14F14233   0.677   2.121   3.811  0.0061 -0.4529 -0.3376
  132OSM   H14F14234   0.628   2.210   3.765  0.3081 -0.8846 -1.5355
  132OSM   H14G14235   0.785   2.146   3.803 -0.2300  0.7967  0.0491
  132OSM   C15F14236   0.627   2.125   3.953  0.9324  0.5240 -0.3201
  132OSM   H15F14237   0.639   2.023   3.997 -0.4478  0.1959 -0.6725
  132OSM   H15G14238   0.517   2.136   3.946  0.7672 -0.8182 -0.2261
  132OSM   C16F14239   0.681   2.242   4.035  1.1414  1.4705  0.1158
  132OSM   H16F14240   0.652   2.330   3.973  2.6930  0.5129 -2.0904
  132OSM   H16G14241   0.792   2.239   4.035  1.1133 -1.0902  0.5002
  132OSM   C17F14242   0.636   2.256   4.180  0.2812 -1.0139  0.6634
  132OSM   H17F14243   0.667   2.164   4.235  0.7631 -1.1770  0.1180
  132OSM   H17G14244   0.525   2.253   4.175  0.1367  1.9355  0.3812
  132OSM   C18F14245   0.682   2.381   4.257 -0.4876  0.3562 -0.7285
  132OSM   H18F14246   0.612   2.458   4.217 -1.6789 -0.0727  0.4493
  132OSM   H18G14247   0.792   2.396   4.253 -0.4144 -0.0024 -0.2311
  132OSM   H18H14248   0.655   2.374   4.364 -0.8011  0.8034 -0.7777
  133OSM      N14249   3.397   4.658   2.405 -0.6900 -0.1410  0.0184
  133OSM    C1514250   3.495   4.682   2.296 -0.4018 -0.3084  0.3484
  133OSM   H15A14251   3.589   4.731   2.313 -1.8388  1.8292  2.8836
  133OSM   H15B14252   3.450   4.729   2.209 -0.6330 -0.5773  0.3207
  133OSM   H15C14253   3.515   4.582   2.261  2.7536 -0.9333  3.4174
  133OSM    C1414254   3.337   4.791   2.455  0.2655  0.1156  0.0150
  133OSM   H14A14255   3.258   4.795   2.530  0.8620  0.8163  0.6321
  133OSM   H14B14256   3.305   4.849   2.370  0.2933  0.5899  0.3235
  133OSM   H14C14257   3.424   4.846   2.488  2.6082 -2.7975 -0.9111
  133OSM    C1314258   3.279   4.578   2.351 -0.2499  0.3183 -0.1913
  133OSM   H13A14259   3.303   4.481   2.313 -1.3151  0.1303 -0.4313
  133OSM   H13B14260   3.235   4.624   2.264  0.0048  0.8555 -0.0444
  133OSM   H13C14261   3.212   4.568   2.436  2.5486  2.7298  2.5580
  133OSM    C1214262   3.467   4.601   2.526 -0.0414 -0.1935  0.1634
  133OSM   H12A14263   3.397   4.587   2.607 -0.0213 -0.0253  0.2089
  133OSM   H12B14264   3.546   4.666   2.558  0.4056 -0.0472 -1.1670
  133OSM    C1114265   3.534   4.462   2.512  0.7518 -0.4187  0.3917
  133OSM   H11A14266   3.461   4.383   2.484 -0.7415  0.6539  1.1557
  133OSM   H11B14267   3.581   4.441   2.611  1.9909  3.5682  0.8299
  133OSM      P14268   3.745   4.344   2.399  0.2279 -0.2789 -0.5914
  133OSM    O1314269   3.674   4.227   2.342  0.4808 -0.0585 -0.1849
  133OSM    O1414270   3.860   4.389   2.316  0.3102 -0.5771 -0.7507
  133OSM    O1114271   3.792   4.313   2.539 -0.0438  0.6663  0.1337
  133OSM    O1214272   3.640   4.460   2.419  0.3395  0.0662  0.1102
  133OSM    C1S14273   3.868   4.409   2.618  0.0289  0.0386  0.0652
  133OSM    H1S14274   3.851   4.514   2.585  0.1094 -0.0755 -0.3338
  133OSM    H1T14275   3.974   4.380   2.599 -0.2887 -0.2060 -1.3805
  133OSM     NF14276   3.957   4.472   2.824  0.3697 -0.5095  0.6092
  133OSM    HNF14277   4.046   4.428   2.837  0.7118 -0.2997 -0.8030
  133OSM    C2S14278   3.847   4.398   2.770  0.0316  0.2959  0.6102
  133OSM    H2S14279   3.753   4.448   2.802 -2.3581 -2.1733 -1.9448
  133OSM    C3S14280   3.823   4.252   2.823  0.5861  0.2905  0.4144
  133OSM    H3S14281   3.912   4.192   2.794 -0.2138 -1.0806  0.6757
  133OSM     O314282   3.717   4.191   2.763 -0.2827 -0.6457 -0.1699
  133OSM    HO314283   3.703   4.243   2.684 -0.1904  1.9614  1.3750
  133OSM    C4S14284   3.803   4.257   2.969  0.4556 -0.4560 -0.2115
  133OSM    H4S14285   3.727   4.328   3.004  1.4594  1.6316 -2.0341
  133OSM    C5S14286   3.878   4.188   3.057 -0.7261 -0.3227  0.0748
  133OSM    H5S14287   3.939   4.108   3.014  0.4146 -0.4683  1.8711
  133OSM    C6S14288   3.852   4.185   3.203  0.1128 -0.1453 -0.9891
  133OSM    H6S14289   3.875   4.288   3.238 -1.4551  1.0565 -3.2710
  133OSM    H6T14290   3.919   4.117   3.261  0.3816  1.1436  0.2689
  133OSM    C7S14291   3.702   4.148   3.242 -0.7278 -0.6533 -0.4036
  133OSM    H7S14292   3.676   4.062   3.176  0.4704 -1.2986 -0.0690
  133OSM    H7T14293   3.636   4.230   3.210 -0.7890 -1.2450 -1.8952
  133OSM    C8S14294   3.673   4.108   3.381  0.1275  0.3382  0.7178
  133OSM    H8S14295   3.722   4.012   3.407 -0.3659  0.2847  1.5011
  133OSM    H8T14296   3.564   4.088   3.380  0.2958 -0.7291 -1.1075
  133OSM    C9S14297   3.714   4.202   3.490  0.4469 -0.6040  0.1235
  133OSM    H9S14298   3.665   4.300   3.473  0.1696 -0.8281 -0.3699
  133OSM    H9T14299   3.824   4.220   3.486  0.7926 -2.4901  0.3003
  133OSM   C10S14300   3.677   4.154   3.626 -0.7088 -0.8603 -0.3608
  133OSM   H10S14301   3.727   4.054   3.630 -0.4981 -0.9369 -2.9706
  133OSM   H10T14302   3.568   4.155   3.647 -0.3836  0.6915  1.4825
  133OSM   C11S14303   3.735   4.235   3.744 -1.2811  0.0477 -0.4431
  133OSM   H11S14304   3.845   4.237   3.730 -1.2926 -1.9730 -1.2526
  133OSM   H11T14305   3.716   4.180   3.839 -2.9989 -0.1838 -0.8897
  133OSM   C12S14306   3.674   4.376   3.754 -0.3639  0.1785 -0.4027
  133OSM   H12S14307   3.564   4.362   3.745 -0.6011  1.5078  0.1586
  133OSM   H12T14308   3.709   4.438   3.669 -0.6028  1.0925  0.1507
  133OSM   C13S14309   3.720   4.449   3.882  0.3427  0.0700 -0.3833
  133OSM   H13S14310   3.830   4.462   3.879  0.3144  0.3789 -0.0871
  133OSM   H13T14311   3.690   4.393   3.973 -0.7306  1.5694  0.2184
  133OSM   C14S14312   3.648   4.591   3.897 -0.2946  0.0070 -0.2858
  133OSM   H14S14313   3.538   4.579   3.907  0.1292 -2.8746  2.5488
  133OSM   H14T14314   3.660   4.655   3.807  0.3165  0.6865  0.2677
  133OSM   C15S14315   3.679   4.667   4.020 -0.0511  1.1454  0.1232
  133OSM   H15S14316   3.675   4.608   4.114 -0.4796  0.8594 -0.0729
  133OSM   H15T14317   3.607   4.746   4.050 -0.0871  0.6427  1.4476
  133OSM   C16S14318   3.819   4.726   3.989 -0.0433 -0.7998 -0.1131
  133OSM   H16S14319   3.813   4.792   3.900 -0.5047 -0.0718  0.4387
  133OSM   H16T14320   3.902   4.655   3.970  1.1168  0.3347  0.4903
  133OSM   C17S14321   3.876   4.810   4.098  0.5484 -0.4047 -0.3204
  133OSM   H17S14322   3.878   4.763   4.199 -1.9937 -0.2871 -0.1373
  133OSM   H17T14323   3.819   4.906   4.097 -0.4751 -0.9781  0.6179
  133OSM   C18S14324   4.016   4.855   4.066  0.0251  0.5852 -0.2881
  133OSM   H18S14325   4.039   4.934   4.141  1.1726 -0.4745  0.5082
  133OSM   H18T14326   4.023   4.899   3.964 -0.5302 -0.1178 -0.6307
  133OSM   H18U14327   4.085   4.769   4.074 -0.1585  0.3594 -1.0453
  133OSM    C1F14328   3.956   4.606   2.838 -0.3372  0.4327 -0.0275
  133OSM     OF14329   3.864   4.660   2.792  0.4951 -0.3906  0.2458
  133OSM    C2F14330   4.056   4.673   2.916  0.1583  0.1561  0.1962
  133OSM    H2F14331   4.032   4.781   2.911  0.9917  0.3017 -1.7093
  133OSM    H2G14332   4.162   4.655   2.890  0.0025  1.1762 -1.2374
  133OSM    C3F14333   4.049   4.633   3.065  0.9807  0.2231 -0.1131
  133OSM    H3F14334   4.118   4.699   3.122 -0.3166  2.5315 -1.1142
  133OSM    H3G14335   4.085   4.528   3.064  0.5319  0.0455 -2.1792
  133OSM    C4F14336   3.904   4.646   3.124 -0.2270  0.3709 -0.6467
  133OSM    H4F14337   3.831   4.581   3.071  1.0002 -0.8785 -0.8448
  133OSM    H4G14338   3.882   4.755   3.119 -0.6741  0.5353  2.5108
  133OSM    C5F14339   3.887   4.605   3.276  0.8828 -0.1547 -0.2464
  133OSM    H5F14340   3.931   4.505   3.296 -2.7905 -1.5130  2.0356
  133OSM    H5G14341   3.779   4.602   3.303  0.9504  2.2021  0.4909
  133OSM    C6F14342   3.953   4.687   3.385 -1.0392 -0.2088  0.1270
  133OSM    H6F14343   3.924   4.793   3.374  0.9512  0.5902  1.9599
  133OSM    H6G14344   4.064   4.683   3.380 -0.8999  2.4129 -0.0723
  133OSM    C7F14345   3.927   4.640   3.530  0.7749  0.4522 -0.1161
  133OSM    H7F14346   4.007   4.571   3.565  1.3371  1.4727  0.6276
  133OSM    H7G14347   3.822   4.602   3.529  1.1357 -0.7144  1.7139
  133OSM    C8F14348   3.931   4.756   3.633 -0.6362 -0.3045  0.3052
  133OSM    H8F14349   3.929   4.720   3.737 -0.7553 -0.8552  0.1141
  133OSM    H8G14350   3.828   4.797   3.633  0.0759  1.6819  2.3484
  133OSM    C9F14351   4.020   4.877   3.612  0.0208 -0.2597 -0.6044
  133OSM    H9F14352   4.125   4.857   3.634  0.0313 -0.2261 -0.6243
  133OSM   C10F14353   3.987   5.006   3.583 -0.4919 -0.5971 -1.1376
  133OSM   H10F14354   4.072   5.071   3.559 -0.4283 -0.4892 -0.6304
  133OSM   C11F14355   3.850   5.066   3.565  0.3803 -0.1996 -0.3423
  133OSM   H11F14356   3.771   4.989   3.579 -1.0741  0.8539 -2.2567
  133OSM   H11G14357   3.828   5.103   3.463 -0.9687  2.4193  0.8124
  133OSM   C12F14358   3.806   5.177   3.660  0.1575  0.9449  0.2488
  133OSM   H12F14359   3.700   5.208   3.651 -0.8225 -2.5381 -2.2219
  133OSM   H12G14360   3.859   5.271   3.635 -0.2520  1.8469  2.4884
  133OSM   C13F14361   3.831   5.146   3.808  0.0322 -0.1822 -0.7561
  133OSM   H13F14362   3.941   5.149   3.825 -0.0185  0.5714 -0.5151
  133OSM   H13G14363   3.796   5.046   3.841 -0.7364  0.7945  1.5598
  133OSM   C14F14364   3.761   5.259   3.890  0.3327 -0.2686 -0.7376
  133OSM   H14F14365   3.663   5.279   3.843  0.5313  1.5645 -0.4483
  133OSM   H14G14366   3.821   5.351   3.873 -3.7920  2.5007 -1.6954
  133OSM   C15F14367   3.756   5.232   4.041 -0.4714 -0.5306 -0.5698
  133OSM   H15F14368   3.704   5.134   4.056 -1.1666  0.0161  0.8065
  133OSM   H15G14369   3.681   5.303   4.083  1.3264  1.5959 -0.7750
  133OSM   C16F14370   3.894   5.237   4.111  0.5320  0.2203 -0.6094
  133OSM   H16F14371   3.943   5.336   4.108 -1.4366  1.3848  2.0200
  133OSM   H16G14372   3.974   5.184   4.054  1.8508  1.9444 -0.4390
  133OSM   C17F14373   3.885   5.196   4.256  0.6399  0.0925  0.4281
  133OSM   H17F14374   3.873   5.086   4.252  1.3542 -0.0107  0.8107
  133OSM   H17G14375   3.793   5.236   4.303 -0.4999 -1.4344 -0.4105
  133OSM   C18F14376   4.017   5.220   4.332 -0.0910 -0.5367  0.5975
  133OSM   H18F14377   4.005   5.182   4.436 -2.5922 -1.6340 -0.0255
  133OSM   H18G14378   4.040   5.328   4.327  1.5656 -0.9315 -1.4490
  133OSM   H18H14379   4.099   5.169   4.277 -0.8102 -1.1521  0.0667
  134OSM      N14380   4.868   1.683   2.526  0.2661  0.0970  0.5589
  134OSM    C1514381   5.011   1.692   2.575 -0.4929 -0.0603 -0.3539
  134OSM   H15A14382   5.012   1.792   2.616 -3.5312  0.2525 -0.8044
  134OSM   H15B14383   5.079   1.684   2.491  1.0800 -1.3556  0.9752
  134OSM   H15C14384   5.038   1.617   2.648 -0.5146  1.0517  0.8357
  134OSM    C1414385   4.789   1.687   2.651 -0.1983  0.7082  0.2674
  134OSM   H14A14386   4.822   1.606   2.715 -0.5240  0.0576 -0.3834
  134OSM   H14B14387   4.685   1.672   2.629  0.2707 -0.9213 -1.0645
  134OSM   H14C14388   4.801   1.778   2.708 -0.5837  0.0837  1.3699
  134OSM    C1314389   4.830   1.799   2.437  0.0394 -0.5857 -0.8109
  134OSM   H13A14390   4.899   1.827   2.359  0.7519 -0.2651 -0.0807
  134OSM   H13B14391   4.800   1.879   2.502 -0.9557  0.2075 -2.2002
  134OSM   H13C14392   4.734   1.776   2.393  0.2599  0.9191 -2.1837
  134OSM    C1214393   4.839   1.557   2.452 -0.1315  0.0559  0.3340
  134OSM   H12A14394   4.734   1.550   2.431  0.1196 -3.1894 -0.3941
  134OSM   H12B14395   4.855   1.472   2.517 -0.9104 -0.3377  0.0194
  134OSM    C1114396   4.915   1.529   2.314  0.2762  0.8699 -0.4037
  134OSM   H11A14397   4.891   1.608   2.241 -0.7288  0.3159 -0.6869
  134OSM   H11B14398   4.869   1.434   2.280  1.4705  0.0397  0.2178
  134OSM      P14399   5.127   1.372   2.321 -0.1242  0.4609 -0.0650
  134OSM    O1314400   5.104   1.311   2.192 -0.0762  0.6621  0.5448
  134OSM    O1414401   5.274   1.379   2.348 -0.0299  0.1264  0.6141
  134OSM    O1114402   5.055   1.279   2.421  0.6117 -0.0820 -0.0053
  134OSM    O1214403   5.058   1.517   2.324  0.0551 -0.1306 -0.7211
  134OSM    C1S14404   5.085   1.299   2.561  0.6127 -0.2977  0.4681
  134OSM    H1S14405   5.058   1.405   2.583  2.5661  0.9326 -2.4049
  134OSM    H1T14406   5.193   1.293   2.587  0.7808  1.1495  0.1703
  134OSM     NF14407   4.982   1.254   2.797 -0.2377 -0.0363 -0.0381
  134OSM    HNF14408   5.031   1.194   2.860 -0.6514  1.6504  1.9864
  134OSM    C2S14409   4.992   1.217   2.653 -0.1342 -0.4472  0.3776
  134OSM    H2S14410   4.888   1.222   2.614 -0.0209 -1.4917 -0.0997
  134OSM    C3S14411   5.033   1.064   2.631 -0.1998 -0.2817 -0.5068
  134OSM    H3S14412   5.139   1.045   2.658 -0.3941 -0.9193 -0.1571
  134OSM     O314413   5.010   1.014   2.494  0.3103  0.1552 -0.6485
  134OSM    HO314414   4.982   1.097   2.455  0.9004  1.7705  2.0992
  134OSM    C4S14415   4.950   0.984   2.726  0.1561  0.2716 -0.4445
  134OSM    H4S14416   4.999   0.929   2.808 -1.6673 -1.3872 -0.3839
  134OSM    C5S14417   4.821   0.935   2.703 -1.0871 -0.3782 -0.4421
  134OSM    H5S14418   4.781   0.982   2.612  0.8238  2.7435  0.1511
  134OSM    C6S14419   4.732   0.846   2.783 -0.4073 -0.2505  1.3041
  134OSM    H6S14420   4.687   0.761   2.727  1.1137  0.1718 -0.6520
  134OSM    H6T14421   4.642   0.910   2.799  0.3983  1.3729 -0.2710
  134OSM    C7S14422   4.787   0.800   2.916  0.0976 -0.2433  0.3434
  134OSM    H7S14423   4.708   0.766   2.987 -1.3370  1.1990 -0.4815
  134OSM    H7T14424   4.836   0.886   2.967 -3.5153  1.5007  1.2429
  134OSM    C8S14425   4.895   0.688   2.895 -0.6976  0.4079  0.0020
  134OSM    H8S14426   4.957   0.720   2.808  1.0184 -1.4824  0.4657
  134OSM    H8T14427   4.844   0.596   2.862  2.0528 -0.4774 -2.1034
  134OSM    C9S14428   4.980   0.682   3.022 -0.3655 -0.0141 -0.1636
  134OSM    H9S14429   5.010   0.783   3.056  0.1089 -0.0132 -0.5719
  134OSM    H9T14430   5.072   0.624   2.998 -0.5351 -0.0653 -0.7044
  134OSM   C10S14431   4.906   0.615   3.136 -0.2430 -0.5152 -0.4946
  134OSM   H10S14432   4.857   0.516   3.118 -0.1219 -1.3363  2.8954
  134OSM   H10T14433   4.824   0.685   3.164 -0.6058 -0.8233 -0.7669
  134OSM   C11S14434   4.993   0.605   3.264 -0.1200  0.2588 -0.1106
  134OSM   H11S14435   5.024   0.706   3.299  0.1020  0.1771 -0.0730
  134OSM   H11T14436   5.072   0.530   3.244  0.7943  1.0960  0.2390
  134OSM   C12S14437   4.897   0.548   3.368 -0.2477 -0.7171  0.4486
  134OSM   H12S14438   4.828   0.478   3.316 -1.4345  0.9829 -0.3718
  134OSM   H12T14439   4.832   0.632   3.400 -0.4118 -0.7804  0.2858
  134OSM   C13S14440   4.978   0.477   3.477 -0.2544  0.1093 -0.1827
  134OSM   H13S14441   5.055   0.547   3.517 -0.0035  0.6053 -1.4894
  134OSM   H13T14442   5.024   0.390   3.426  0.0473  0.7604 -1.0591
  134OSM   C14S14443   4.881   0.432   3.592 -0.5177  0.4132 -0.2496
  134OSM   H14S14444   4.811   0.368   3.533  0.0341 -0.0487 -0.4156
  134OSM   H14T14445   4.825   0.525   3.614 -0.1965  0.8669 -1.2709
  134OSM   C15S14446   4.960   0.375   3.710  0.0740 -0.4827  0.0647
  134OSM   H15S14447   5.048   0.439   3.732  0.2470 -0.0399 -1.7887
  134OSM   H15T14448   5.009   0.284   3.671  0.9613  0.8493 -2.0961
  134OSM   C16S14449   4.868   0.355   3.834 -0.8894 -0.0347  0.4203
  134OSM   H16S14450   4.781   0.292   3.808 -2.1645  2.6287 -2.3838
  134OSM   H16T14451   4.829   0.457   3.851 -1.6569  0.0523 -1.6874
  134OSM   C17S14452   4.952   0.319   3.960  0.0408 -0.1491  0.9188
  134OSM   H17S14453   5.044   0.381   3.960 -1.8432  2.8876 -1.2563
  134OSM   H17T14454   4.976   0.210   3.956  1.4660  0.1546 -1.6779
  134OSM   C18S14455   4.871   0.354   4.080  0.0503 -0.7759  0.2856
  134OSM   H18S14456   4.841   0.461   4.078  1.3115 -0.2493  3.2700
  134OSM   H18T14457   4.946   0.348   4.162  0.3227 -0.9425  0.0284
  134OSM   H18U14458   4.783   0.294   4.111 -1.0782  0.7552  0.1436
  134OSM    C1F14459   4.927   1.368   2.842 -0.7570  0.1359  0.0942
  134OSM     OF14460   4.865   1.431   2.758  0.2469 -0.1219 -0.0995
  134OSM    C2F14461   4.943   1.408   2.981  0.5650  0.2444  0.9028
  134OSM    H2F14462   5.045   1.431   3.018  0.5195  0.6885  0.7618
  134OSM    H2G14463   4.913   1.318   3.039  0.0154  0.1848  0.5350
  134OSM    C3F14464   4.848   1.530   3.006 -0.4158  0.1248  0.1371
  134OSM    H3F14465   4.754   1.529   2.947  0.9493 -0.9754 -2.1517
  134OSM    H3G14466   4.895   1.621   2.964  1.7293 -1.1220 -0.2972
  134OSM    C4F14467   4.810   1.555   3.157 -0.0907  0.2052 -0.3950
  134OSM    H4F14468   4.755   1.461   3.178 -0.0438  0.2758  0.0718
  134OSM    H4G14469   4.734   1.635   3.168  1.1128  1.5061 -1.1506
  134OSM    C5F14470   4.925   1.567   3.254  0.0331  0.1992 -0.1642
  134OSM    H5F14471   4.989   1.654   3.228  0.9148  0.7503  3.3139
  134OSM    H5G14472   4.987   1.476   3.240  1.3431  0.9693  0.3951
  134OSM    C6F14473   4.892   1.582   3.401  0.1580 -0.1317  0.4687
  134OSM    H6F14474   4.833   1.675   3.415  1.1452  0.4632  0.7373
  134OSM    H6G14475   4.987   1.595   3.458  2.1267  2.0306 -2.9486
  134OSM    C7F14476   4.825   1.454   3.461  0.7236  0.4075  0.1682
  134OSM    H7F14477   4.907   1.380   3.450  0.7222  0.2184  1.2770
  134OSM    H7G14478   4.738   1.413   3.406  1.7121 -0.1474 -1.0406
  134OSM    C8F14479   4.792   1.467   3.608 -1.0119  0.4143  0.4968
  134OSM    H8F14480   4.733   1.561   3.616 -3.2315 -0.8868  0.3413
  134OSM    H8G14481   4.891   1.481   3.656 -0.3505 -0.0781 -0.7035
  134OSM    C9F14482   4.736   1.342   3.671  0.5966  0.5272 -0.1037
  134OSM    H9F14483   4.755   1.247   3.620  0.4148  0.2569  0.3247
  134OSM   C10F14484   4.668   1.331   3.786  0.4308 -0.4659 -0.2532
  134OSM   H10F14485   4.631   1.231   3.813  2.2972 -0.9072  0.8688
  134OSM   C11F14486   4.654   1.438   3.903  0.2003 -0.4205 -0.5171
  134OSM   H11F14487   4.745   1.455   3.963 -0.5063 -1.7051  1.0087
  134OSM   H11G14488   4.581   1.403   3.979  0.1979 -1.4557 -0.9782
  134OSM   C12F14489   4.608   1.583   3.862  0.4318  0.6734 -0.0290
  134OSM   H12F14490   4.514   1.610   3.914  1.2305  1.7164  0.9161
  134OSM   H12G14491   4.574   1.582   3.756  0.7633  1.5352 -0.1537
  134OSM   C13F14492   4.712   1.686   3.871 -0.1955 -0.2487  0.0927
  134OSM   H13F14493   4.672   1.773   3.815  0.5371  0.0652  0.0453
  134OSM   H13G14494   4.804   1.647   3.822  0.2301  0.0657  0.6199
  134OSM   C14F14495   4.763   1.728   4.016  1.1160  0.6854  0.6958
  134OSM   H14F14496   4.783   1.634   4.072  1.1954 -0.1576 -0.7128
  134OSM   H14G14497   4.682   1.789   4.062  0.9738  0.1697  1.1453
  134OSM   C15F14498   4.886   1.816   4.012  0.6738  0.5124  0.6169
  134OSM   H15F14499   4.866   1.903   3.946  2.8032  0.1588 -0.5845
  134OSM   H15G14500   4.974   1.754   3.985  0.2489 -1.1334  2.8200
  134OSM   C16F14501   4.935   1.859   4.151 -0.4463 -0.8994  0.3493
  134OSM   H16F14502   4.995   1.784   4.206  1.5622  2.2445  2.8356
  134OSM   H16G14503   4.841   1.872   4.209 -1.1941 -0.3615 -0.9415
  134OSM   C17F14504   5.021   1.991   4.133 -0.8768 -0.1114 -0.2703
  134OSM   H17F14505   5.015   2.044   4.231 -3.2600 -0.4981 -0.1467
  134OSM   H17G14506   4.965   2.059   4.065  0.9514  1.7621  0.0233
  134OSM   C18F14507   5.167   1.973   4.091  0.6930 -0.4109 -0.1535
  134OSM   H18F14508   5.234   2.057   4.121 -2.0061  2.0933 -0.6546
  134OSM   H18G14509   5.164   1.965   3.980 -1.4114 -1.0977 -0.0931
  134OSM   H18H14510   5.209   1.877   4.128 -0.5959 -0.6569  0.7437
  135OSM      N14511   1.203   0.810   1.901  0.3976 -0.0923 -0.0608
  135OSM    C1514512   1.051   0.786   1.916 -0.4223 -0.8340 -0.6034
  135OSM   H15A14513   1.011   0.861   1.983  3.2532  0.4767  0.3651
  135OSM   H15B14514   1.038   0.693   1.969 -0.2387 -1.0234 -0.8871
  135OSM   H15C14515   1.000   0.783   1.822  1.0092  2.3732 -1.6267
  135OSM    C1414516   1.257   0.697   1.831  0.5731  0.2551 -0.1553
  135OSM   H14A14517   1.197   0.654   1.752 -1.7332 -0.0353  1.6404
  135OSM   H14B14518   1.277   0.610   1.892 -0.5196  1.0195  1.3581
  135OSM   H14C14519   1.357   0.716   1.794  1.5079 -0.0599  2.0259
  135OSM    C1314520   1.223   0.932   1.820  0.4476 -0.4562  0.3778
  135OSM   H13A14521   1.171   0.923   1.725 -2.5358 -1.1728  1.9658
  135OSM   H13B14522   1.328   0.953   1.813  0.1078  1.2920 -0.0808
  135OSM   H13C14523   1.175   1.018   1.866 -0.8213 -1.2918  0.6588
  135OSM    C1214524   1.258   0.826   2.042 -0.9521  0.2370  0.0551
  135OSM   H12A14525   1.227   0.922   2.080 -1.0094 -0.1630  1.0529
  135OSM   H12B14526   1.364   0.846   2.031 -0.6196  0.2199  2.5997
  135OSM    C1114527   1.242   0.710   2.140  0.6486 -0.0870 -0.3932
  135OSM   H11A14528   1.134   0.697   2.163 -0.5080  3.7458 -2.7352
  135OSM   H11B14529   1.296   0.742   2.232  1.5064  1.4176 -1.3901
  135OSM      P14530   1.456   0.555   2.114  0.0370 -0.4336 -0.5656
  135OSM    O1314531   1.514   0.480   1.998  0.3894 -0.0417 -0.6977
  135OSM    O1414532   1.521   0.681   2.153 -0.0320 -0.7745  0.5352
  135OSM    O1114533   1.438   0.453   2.235 -0.6261  0.0993 -0.5351
  135OSM    O1214534   1.307   0.588   2.089  0.1921  0.0246  0.1003
  135OSM    C1S14535   1.412   0.502   2.368  0.3498 -0.0597 -0.5411
  135OSM    H1S14536   1.343   0.589   2.365  2.1707  1.4649 -3.7233
  135OSM    H1T14537   1.500   0.531   2.429 -0.3842 -0.5223  0.7682
  135OSM     NF14538   1.301   0.457   2.582  0.1857 -0.5792  0.3901
  135OSM    HNF14539   1.363   0.442   2.659  2.0303  0.7883 -0.7460
  135OSM    C2S14540   1.349   0.394   2.457  1.2672 -0.3256  0.2751
  135OSM    H2S14541   1.257   0.356   2.407 -0.2670  3.7808 -0.4517
  135OSM    C3S14542   1.454   0.277   2.479  0.1792 -0.5944 -0.0072
  135OSM    H3S14543   1.550   0.318   2.517  1.1030 -2.8618  0.2531
  135OSM     O314544   1.481   0.217   2.354  0.0937 -0.5617 -0.2972
  135OSM    HO314545   1.489   0.286   2.288  1.1062 -0.3585  0.0167
  135OSM    C4S14546   1.401   0.178   2.583  0.3423 -0.8873 -0.2294
  135OSM    H4S14547   1.409   0.233   2.679  1.0802  2.8996 -2.2612
  135OSM    C5S14548   1.334   0.062   2.584 -0.2736 -0.0397 -0.3411
  135OSM    H5S14549   1.303   0.013   2.491 -0.6745  1.2964 -0.9364
  135OSM    C6S14550   1.286  -0.007   2.710 -0.2052 -0.5335  0.2348
  135OSM    H6S14551   1.284  -0.116   2.693  0.3861 -0.5889  0.4688
  135OSM    H6T14552   1.183   0.023   2.738  0.8286  3.4632  0.3868
  135OSM    C7S14553   1.362   0.023   2.845  0.1196 -0.0740 -0.0783
  135OSM    H7S14554   1.330   0.122   2.884  1.8269 -0.2557  1.9657
  135OSM    H7T14555   1.471   0.026   2.824  0.2343  1.9752  0.6341
  135OSM    C8S14556   1.325  -0.072   2.959  0.7448  0.2679  0.4587
  135OSM    H8S14557   1.384  -0.161   2.926 -1.2792  0.1112 -3.2846
  135OSM    H8T14558   1.216  -0.090   2.946  0.6799 -0.0892  1.3750
  135OSM    C9S14559   1.371  -0.004   3.090 -0.7143  0.2601  0.2932
  135OSM    H9S14560   1.310   0.088   3.108 -1.7878  0.2798 -2.8287
  135OSM    H9T14561   1.474   0.028   3.067 -0.6575 -0.5960 -0.6830
  135OSM   C10S14562   1.371  -0.107   3.199 -0.3604  0.1217 -0.4067
  135OSM   H10S14563   1.439  -0.078   3.281 -0.1040 -2.2180  0.2940
  135OSM   H10T14564   1.416  -0.203   3.166  0.4799  0.3273  0.1178
  135OSM   C11S14565   1.225  -0.107   3.267 -0.6675 -0.3866  0.3841
  135OSM   H11S14566   1.164  -0.173   3.203  0.2166  0.3736 -1.3113
  135OSM   H11T14567   1.192  -0.001   3.258  2.8333  0.9052  0.8147
  135OSM   C12S14568   1.230  -0.142   3.418  0.1541 -0.5802  0.1709
  135OSM   H12S14569   1.300  -0.069   3.464 -0.0353  0.0527 -0.5238
  135OSM   H12T14570   1.278  -0.241   3.428 -0.9867 -1.2082 -0.3748
  135OSM   C13S14571   1.086  -0.133   3.477  0.9428  0.3506 -0.2313
  135OSM   H13S14572   1.018  -0.210   3.434 -0.8436  0.6008  1.9838
  135OSM   H13T14573   1.043  -0.032   3.463  1.1872  0.3988 -0.6657
  135OSM   C14S14574   1.081  -0.157   3.625 -0.2573 -0.1324 -0.3237
  135OSM   H14S14575   1.148  -0.084   3.676 -0.2615 -0.2755 -0.1133
  135OSM   H14T14576   1.140  -0.251   3.625  1.9333  1.1628  0.7729
  135OSM   C15S14577   0.941  -0.165   3.684 -0.0439 -0.8175 -0.4545
  135OSM   H15S14578   0.938  -0.195   3.790 -1.5779  0.1141 -0.2096
  135OSM   H15T14579   0.877  -0.233   3.624 -0.4403 -1.1966  0.3953
  135OSM   C16S14580   0.876  -0.020   3.688 -0.4796 -0.6630 -0.2711
  135OSM   H16S14581   0.865   0.022   3.586  0.7425  0.1684 -0.0907
  135OSM   H16T14582   0.957   0.047   3.725  0.5496 -1.5142 -0.9473
  135OSM   C17S14583   0.753   0.008   3.775  0.2880  0.2352 -0.7488
  135OSM   H17S14584   0.685  -0.078   3.758  1.4857 -1.0423  0.6420
  135OSM   H17T14585   0.710   0.106   3.746 -0.1250  0.8575  1.6820
  135OSM   C18S14586   0.777   0.006   3.925  0.2745  0.6267  0.7090
  135OSM   H18S14587   0.865   0.072   3.937  0.9829 -0.1730  0.0869
  135OSM   H18T14588   0.820  -0.089   3.963 -0.4540 -0.1132 -0.2498
  135OSM   H18U14589   0.693   0.046   3.986 -0.9516 -1.5634  0.5634
  135OSM    C1F14590   1.185   0.516   2.591  0.5843 -0.3110 -0.2133
  135OSM     OF14591   1.116   0.524   2.492  0.0959  0.6446 -0.5625
  135OSM    C2F14592   1.144   0.567   2.725 -0.5013 -0.2792 -0.3935
  135OSM    H2F14593   1.229   0.627   2.764  0.4823 -0.9244 -1.4560
  135OSM    H2G14594   1.119   0.482   2.792 -2.0641  0.3142 -0.2052
  135OSM    C3F14595   1.012   0.647   2.710  0.3043  0.0005 -0.4563
  135OSM    H3F14596   0.943   0.603   2.636  1.4815 -0.0493 -1.5544
  135OSM    H3G14597   1.037   0.741   2.656 -1.5133  1.4454  1.0789
  135OSM    C4F14598   0.936   0.669   2.842 -0.1286  0.1517  0.0319
  135OSM    H4F14599   0.899   0.565   2.858  0.0459 -0.0469 -0.8194
  135OSM    H4G14600   0.842   0.728   2.836 -1.4583 -2.0068 -3.4407
  135OSM    C5F14601   1.026   0.696   2.962  0.1488  0.1734 -0.2389
  135OSM    H5F14602   1.091   0.784   2.943  0.0967  0.5813  1.3008
  135OSM    H5G14603   1.079   0.600   2.984  2.5493  1.1991 -1.1528
  135OSM    C6F14604   0.941   0.729   3.087  0.9037 -0.0212 -0.1491
  135OSM    H6F14605   0.993   0.698   3.180 -0.6843 -0.7649  0.5335
  135OSM    H6G14606   0.843   0.677   3.082  1.3309 -0.8071 -0.4889
  135OSM    C7F14607   0.900   0.882   3.089 -0.1425 -0.0384  0.4052
  135OSM    H7F14608   0.851   0.902   2.991  1.3029  0.6195 -0.2102
  135OSM    H7G14609   0.996   0.937   3.085 -0.2252  0.0914  0.2204
  135OSM    C8F14610   0.805   0.922   3.207 -0.4683  0.1522 -0.0778
  135OSM    H8F14611   0.854   0.921   3.307 -0.7148  1.6259  0.0910
  135OSM    H8G14612   0.724   0.847   3.202 -2.1371  1.9046 -0.4392
  135OSM    C9F14613   0.762   1.060   3.188 -0.7369  0.3147 -0.3497
  135OSM    H9F14614   0.822   1.116   3.116 -3.1275  2.0478 -1.1458
  135OSM   C10F14615   0.665   1.120   3.255 -0.5250  0.3895  0.5269
  135OSM   H10F14616   0.637   1.224   3.237 -0.2450  0.1402 -1.5015
  135OSM   C11F14617   0.592   1.059   3.371 -0.2091  0.5884  0.5320
  135OSM   H11F14618   0.579   0.949   3.376  0.0150  0.4691 -0.9894
  135OSM   H11G14619   0.490   1.104   3.365 -1.6056 -2.2140  1.7072
  135OSM   C12F14620   0.654   1.109   3.505  0.0575 -0.1377  0.3326
  135OSM   H12F14621   0.679   1.217   3.507 -1.9535  0.3627  1.2380
  135OSM   H12G14622   0.753   1.063   3.526 -0.3188 -0.8176  0.6621
  135OSM   C13F14623   0.554   1.079   3.622 -0.8991 -0.4846  0.1935
  135OSM   H13F14624   0.534   0.969   3.622 -0.3086 -0.5936  0.1649
  135OSM   H13G14625   0.469   1.142   3.588  1.3759  1.5624 -2.0837
  135OSM   C14F14626   0.619   1.120   3.759 -0.2758  0.3200 -0.1969
  135OSM   H14F14627   0.555   1.094   3.846  1.7971  1.2243  1.6841
  135OSM   H14G14628   0.621   1.231   3.751  0.5620  0.3333  0.0838
  135OSM   C15F14629   0.765   1.074   3.777 -0.0577  0.5382 -0.4895
  135OSM   H15F14630   0.830   1.117   3.699  1.3231 -1.7690 -0.7151
  135OSM   H15G14631   0.765   0.965   3.754 -0.6139  0.1146  1.3278
  135OSM   C16F14632   0.823   1.091   3.916 -1.2211 -0.0135 -0.4015
  135OSM   H16F14633   0.926   1.050   3.916 -0.1742  2.4117 -1.0912
  135OSM   H16G14634   0.758   1.049   3.995  1.3327 -1.1231  1.2473
  135OSM   C17F14635   0.848   1.234   3.958  0.6853 -0.0692  0.0645
  135OSM   H17F14636   0.754   1.290   3.975 -0.5869 -1.9020 -0.6672
  135OSM   H17G14637   0.903   1.277   3.872 -1.3685 -1.2151 -1.9330
  135OSM   C18F14638   0.924   1.226   4.082 -1.1678 -0.1138  0.1067
  135OSM   H18F14639   1.004   1.151   4.067 -0.9298  0.5619 -2.3100
  135OSM   H18G14640   0.866   1.186   4.168 -1.6875  3.3552  1.5378
  135OSM   H18H14641   0.969   1.319   4.123  1.4829 -0.8282 -0.9587
  136OSM      N14642   4.935   2.564   2.325 -0.4791 -0.3943  0.2511
  136OSM    C1514643   4.985   2.435   2.267  0.2607  0.4670  0.3970
  136OSM   H15A14644   4.910   2.360   2.290  2.7675 -2.0444  0.8963
  136OSM   H15B14645   5.080   2.410   2.313  1.1191  4.0965  0.8726
  136OSM   H15C14646   5.004   2.449   2.162  0.5164  3.3443  0.7572
  136OSM    C1414647   5.026   2.669   2.276 -0.2312 -0.2540 -0.7083
  136OSM   H14A14648   5.123   2.654   2.320 -0.2054  0.8218 -0.3774
  136OSM   H14B14649   4.986   2.765   2.306 -1.7521 -1.3062  0.8526
  136OSM   H14C14650   5.035   2.666   2.169 -0.5668 -0.2923 -0.7378
  136OSM    C1314651   4.804   2.602   2.253  0.4589 -0.0914  0.1367
  136OSM   H13A14652   4.733   2.522   2.268  1.0582 -0.6302  0.1217
  136OSM   H13B14653   4.825   2.595   2.147  2.0756  1.6119  0.2983
  136OSM   H13C14654   4.758   2.696   2.281  2.2336  1.1607 -0.9199
  136OSM    C1214655   4.917   2.567   2.476 -0.0871 -0.3118  0.0432
  136OSM   H12A14656   4.856   2.483   2.506  0.8746 -0.6047  1.2685
  136OSM   H12B14657   4.859   2.654   2.502 -1.2619 -1.3393  1.0396
  136OSM    C1114658   5.043   2.560   2.559 -0.0625 -0.7417 -0.0334
  136OSM   H11A14659   5.027   2.570   2.668 -1.1421 -0.8920 -0.1747
  136OSM   H11B14660   5.103   2.652   2.539  1.7319 -1.4763  1.6942
  136OSM      P14661   5.077   2.303   2.620 -0.4474 -0.5392  0.3700
  136OSM    O1314662   4.926   2.303   2.631 -0.6453 -0.7954 -0.2939
  136OSM    O1414663   5.136   2.186   2.546 -1.2722  0.4229  0.3261
  136OSM    O1114664   5.140   2.332   2.765 -0.1811 -0.5442  0.8771
  136OSM    O1214665   5.114   2.436   2.541  0.1903  0.1368  0.8663
  136OSM    C1S14666   5.245   2.425   2.795  0.2140 -1.2332  0.1752
  136OSM    H1S14667   5.250   2.505   2.717 -0.3747 -0.2461  1.1295
  136OSM    H1T14668   5.341   2.371   2.807 -0.0056 -1.4665  0.9100
  136OSM     NF14669   5.339   2.573   2.962  0.0198  0.1255 -0.3008
  136OSM    HNF14670   5.383   2.562   3.051 -1.0463 -0.9907  0.1129
  136OSM    C2S14671   5.223   2.493   2.930 -1.2045  0.7774 -0.1502
  136OSM    H2S14672   5.136   2.560   2.919 -1.8825  0.2429  1.5861
  136OSM    C3S14673   5.189   2.397   3.048  0.5286 -0.0625 -0.3693
  136OSM    H3S14674   5.275   2.341   3.091 -2.2873 -1.4631  4.1300
  136OSM     O314675   5.089   2.300   3.023 -0.6330 -0.5725 -0.3505
  136OSM    HO314676   5.075   2.309   2.928 -0.0639  1.5373 -0.2952
  136OSM    C4S14677   5.142   2.471   3.171 -0.2685  0.7170  0.3348
  136OSM    H4S14678   5.083   2.557   3.136 -0.3786  0.0475 -1.1895
  136OSM    C5S14679   5.168   2.450   3.298  0.1586  0.2617  0.5799
  136OSM    H5S14680   5.230   2.363   3.322 -2.3897 -2.6161 -2.4219
  136OSM    C6S14681   5.128   2.521   3.417  0.6855  0.5999  0.1412
  136OSM    H6S14682   5.216   2.552   3.476  1.1401 -1.1288  0.4230
  136OSM    H6T14683   5.067   2.458   3.485  0.6807 -0.8140 -1.1142
  136OSM    C7S14684   5.037   2.648   3.394  0.1012 -0.0094  0.4706
  136OSM    H7S14685   4.948   2.630   3.330  0.5456 -1.6564  0.2587
  136OSM    H7T14686   5.103   2.717   3.336  0.3089  0.0650  0.7949
  136OSM    C8S14687   4.994   2.703   3.529  0.6823 -0.2901  0.0683
  136OSM    H8S14688   4.956   2.805   3.508  1.6466 -0.6970 -4.7466
  136OSM    H8T14689   5.091   2.720   3.581  1.4374 -2.6350 -0.4265
  136OSM    C9S14690   4.888   2.617   3.607 -0.4799  0.3373 -0.3405
  136OSM    H9S14691   4.923   2.513   3.625 -1.1986  0.5586  2.9168
  136OSM    H9T14692   4.796   2.615   3.544 -0.3488  3.0395 -0.7270
  136OSM   C10S14693   4.836   2.689   3.739  0.1997  0.0002  0.0948
  136OSM   H10S14694   4.747   2.638   3.782  0.1266 -0.5947 -0.7117
  136OSM   H10T14695   4.805   2.791   3.707  1.5795  0.4114 -0.0143
  136OSM   C11S14696   4.951   2.683   3.837 -0.4107 -0.6634 -0.8125
  136OSM   H11S14697   4.919   2.743   3.925  2.6590 -1.1128  0.7421
  136OSM   H11T14698   5.040   2.737   3.799 -0.0731 -0.8868 -0.3449
  136OSM   C12S14699   4.989   2.543   3.890  0.7863 -0.1710  0.2289
  136OSM   H12S14700   4.916   2.470   3.849  0.3815  0.7934 -0.8211
  136OSM   H12T14701   4.982   2.539   4.001 -0.9497  1.3287  0.2224
  136OSM   C13S14702   5.127   2.492   3.860  0.4867 -0.1418  0.5821
  136OSM   H13S14703   5.194   2.552   3.924 -0.6942  0.8777  0.8929
  136OSM   H13T14704   5.149   2.523   3.755 -2.8276  1.2542  0.1675
  136OSM   C14S14705   5.139   2.343   3.875 -0.5229 -0.3331  0.3174
  136OSM   H14S14706   5.064   2.300   3.805  0.8099  0.7930 -1.9165
  136OSM   H14T14707   5.113   2.309   3.977 -0.8611  2.3884  1.2003
  136OSM   C15S14708   5.271   2.270   3.838  0.1837  0.2957 -0.0983
  136OSM   H15S14709   5.251   2.160   3.843 -0.0702  0.1885 -2.3551
  136OSM   H15T14710   5.356   2.294   3.905  2.0372  0.1435 -2.2576
  136OSM   C16S14711   5.316   2.299   3.693 -0.4065  0.5707  0.2406
  136OSM   H16S14712   5.349   2.405   3.682  0.5408  0.1730 -1.0861
  136OSM   H16T14713   5.232   2.287   3.621 -0.2412  0.4668  0.0664
  136OSM   C17S14714   5.445   2.230   3.649 -0.3367 -0.3153  0.0383
  136OSM   H17S14715   5.442   2.123   3.680 -0.1568 -1.4472 -3.3769
  136OSM   H17T14716   5.531   2.270   3.706 -0.8683  1.4566 -0.3498
  136OSM   C18S14717   5.474   2.239   3.496 -0.1831 -0.2387  0.3717
  136OSM   H18S14718   5.461   2.340   3.451  1.6233 -0.1841 -0.0995
  136OSM   H18T14719   5.401   2.177   3.440 -0.2096 -0.3461  0.5259
  136OSM   H18U14720   5.580   2.222   3.468 -0.9936 -2.6022 -1.6008
  136OSM    C1F14721   5.388   2.669   2.890  0.2914  0.4413 -0.5669
  136OSM     OF14722   5.336   2.703   2.784  0.4465  0.0338 -0.1870
  136OSM    C2F14723   5.518   2.737   2.947 -0.0816  0.0646  0.1629
  136OSM    H2F14724   5.588   2.656   2.978  1.5365  1.2284 -0.3425
  136OSM    H2G14725   5.496   2.795   3.040  0.2811  0.1444  0.2033
  136OSM    C3F14726   5.583   2.842   2.851 -0.0814 -0.1445  0.4429
  136OSM    H3F14727   5.505   2.916   2.823  0.3460  0.7892  1.6270
  136OSM    H3G14728   5.610   2.802   2.751  1.1698 -2.3417  1.5797
  136OSM    C4F14729   5.707   2.906   2.921  0.3314 -0.5221  0.1212
  136OSM    H4F14730   5.785   2.828   2.930  0.3760 -0.6475 -1.2389
  136OSM    H4G14731   5.676   2.932   3.025  0.1689  1.1894 -0.3211
  136OSM    C5F14732   5.764   3.032   2.856 -0.8737  0.7408  0.0895
  136OSM    H5F14733   5.676   3.098   2.851 -0.1861  1.6341 -0.5923
  136OSM    H5G14734   5.801   3.010   2.754 -2.2811 -4.2233  0.3737
  136OSM    C6F14735   5.888   3.095   2.932 -0.2528  0.3524 -0.1818
  136OSM    H6F14736   5.961   3.142   2.863 -0.6528  2.0140  0.4797
  136OSM    H6G14737   5.947   3.011   2.976  0.6415  1.2347  0.3666
  136OSM    C7F14738   5.843   3.203   3.029 -1.0505 -0.3476 -0.6223
  136OSM    H7F14739   5.791   3.286   2.976  0.6046  0.6006 -0.8485
  136OSM    H7G14740   5.934   3.257   3.062 -0.0201 -1.0929 -2.1275
  136OSM    C8F14741   5.755   3.164   3.151 -0.1018 -0.0027  0.7456
  136OSM    H8F14742   5.652   3.142   3.117  0.5057 -1.6071 -0.1778
  136OSM    H8G14743   5.746   3.261   3.205  0.7891  0.0298  0.8551
  136OSM    C9F14744   5.814   3.062   3.246 -0.7506  0.0087 -0.1346
  136OSM    H9F14745   5.860   2.977   3.195 -0.3095  0.7958 -1.0810
  136OSM   C10F14746   5.806   3.052   3.380  1.3599 -0.3623 -0.8025
  136OSM   H10F14747   5.849   2.965   3.434  0.2416  0.8640  2.3079
  136OSM   C11F14748   5.723   3.135   3.474  0.4330  0.0194  0.1855
  136OSM   H11F14749   5.616   3.137   3.443  0.2008  0.1029  0.9710
  136OSM   H11G14750   5.766   3.237   3.467  0.6228 -0.0036  0.9104
  136OSM   C12F14751   5.731   3.104   3.629  0.0336 -0.3258  0.0365
  136OSM   H12F14752   5.685   3.005   3.651 -1.0351  0.0299 -0.5548
  136OSM   H12G14753   5.669   3.180   3.680  1.4622  0.2335  1.0159
  136OSM   C13F14754   5.867   3.113   3.689  0.4626  0.6955  0.3488
  136OSM   H13F14755   5.877   3.223   3.696 -0.2421  0.7208  1.2319
  136OSM   H13G14756   5.949   3.069   3.629  0.3388 -0.6903  1.1305
  136OSM   C14F14757   5.887   3.038   3.817 -0.0944  0.3311  0.8432
  136OSM   H14F14758   5.812   3.068   3.893  0.2844  1.8918  0.6210
  136OSM   H14G14759   5.982   3.067   3.865  0.0412  0.8493  0.2709
  136OSM   C15F14760   5.896   2.888   3.802  0.0196  0.4025  0.4692
  136OSM   H15F14761   5.997   2.874   3.759 -0.8984 -1.2560 -1.3156
  136OSM   H15G14762   5.823   2.843   3.731  1.4192 -3.1174  1.0170
  136OSM   C16F14763   5.881   2.800   3.925 -0.3502 -0.7458 -0.4650
  136OSM   H16F14764   5.922   2.703   3.890  0.6358 -0.0748 -1.2348
  136OSM   H16G14765   5.775   2.775   3.946 -0.6497  0.0134 -1.0164
  136OSM   C17F14766   5.941   2.860   4.054  0.2230 -0.1681 -1.0625
  136OSM   H17F14767   5.870   2.934   4.098  2.9829  1.3323  1.1671
  136OSM   H17G14768   6.038   2.908   4.031 -0.1503  1.3673  0.3565
  136OSM   C18F14769   5.971   2.762   4.167 -0.0378  0.1677  0.0674
  136OSM   H18F14770   6.007   2.818   4.256  1.3112  0.7482 -0.8045
  136OSM   H18G14771   6.042   2.679   4.145  1.2487  2.2102 -4.5130
  136OSM   H18H14772   5.875   2.713   4.194 -0.5222  1.1254  0.1081
  137OSM      N14773   0.821   0.369   2.429 -0.2000  0.1089  0.1780
  137OSM    C1514774   0.756   0.488   2.476 -0.1246 -1.2222  0.0472
  137OSM   H15A14775   0.819   0.574   2.492  0.3125 -1.0996 -2.0469
  137OSM   H15B14776   0.684   0.462   2.553 -2.5920 -2.0864 -2.3790
  137OSM   H15C14777   0.696   0.532   2.398 -0.9774 -1.3817  0.5963
  137OSM    C1414778   0.697   0.280   2.411 -1.0043  0.2801 -0.4154
  137OSM   H14A14779   0.646   0.316   2.323 -1.0986  0.4485 -0.2935
  137OSM   H14B14780   0.637   0.284   2.501  0.2016 -1.4953  0.5331
  137OSM   H14C14781   0.738   0.181   2.399 -3.5326 -0.9519  0.5322
  137OSM    C1314782   0.878   0.396   2.293 -0.0007 -0.4708 -0.5917
  137OSM   H13A14783   0.800   0.441   2.233 -0.4005  1.8423  1.4775
  137OSM   H13B14784   0.898   0.299   2.250 -1.7459 -0.6900 -1.0075
  137OSM   H13C14785   0.962   0.462   2.307 -0.4830 -0.1138  0.8617
  137OSM    C1214786   0.910   0.309   2.528 -0.5269 -0.5996  0.7140
  137OSM   H12A14787   0.851   0.266   2.608  0.3731 -0.0363  1.6954
  137OSM   H12B14788   0.972   0.388   2.566 -0.2706  0.0449 -0.9370
  137OSM    C1114789   1.011   0.199   2.474 -0.5446 -0.4852  0.2830
  137OSM   H11A14790   1.083   0.187   2.558 -0.1956  0.3828  0.1193
  137OSM   H11B14791   1.068   0.233   2.385  0.7725 -1.7288  0.6162
  137OSM      P14792   0.884  -0.014   2.543  0.3842  0.0037  0.0469
  137OSM    O1314793   0.740   0.009   2.541  0.0116 -0.4648 -0.0093
  137OSM    O1414794   0.931  -0.149   2.519 -0.3404  0.2100  0.5159
  137OSM    O1114795   0.948   0.039   2.676 -0.1266  0.5899  0.2103
  137OSM    O1214796   0.948   0.078   2.439  0.0564  0.8317  0.7847
  137OSM    C1S14797   0.870  -0.005   2.789  0.8678  0.2296  0.0411
  137OSM    H1S14798   0.878  -0.115   2.792 -0.4003  0.0641 -1.5903
  137OSM    H1T14799   0.768   0.040   2.799  0.5118 -0.7689  1.0745
  137OSM     NF14800   0.853  -0.006   3.034  0.0194 -0.0342 -0.1006
  137OSM    HNF14801   0.778   0.047   3.074  0.9678 -1.0915  3.5368
  137OSM    C2S14802   0.931   0.048   2.921  0.2436 -0.3601 -0.1577
  137OSM    H2S14803   1.034   0.009   2.933 -0.4801 -2.1474  0.6754
  137OSM    C3S14804   0.943   0.202   2.914 -0.2853  0.2520  0.3685
  137OSM    H3S14805   0.842   0.244   2.896 -1.2691 -1.4782  1.5341
  137OSM     O314806   1.026   0.245   2.802  0.2548 -0.2636 -0.2161
  137OSM    HO314807   1.047   0.166   2.752  0.0708  0.2028 -1.0526
  137OSM    C4S14808   1.003   0.262   3.032  0.3810  0.2686 -0.3064
  137OSM    H4S14809   1.112   0.250   3.040  0.2979 -0.4116 -0.1430
  137OSM    C5S14810   0.947   0.339   3.124 -0.5959 -0.5255  0.2089
  137OSM    H5S14811   0.839   0.358   3.118 -0.3071  0.9629 -0.6187
  137OSM    C6S14812   1.013   0.397   3.244  0.3062 -0.2160  0.4659
  137OSM    H6S14813   0.950   0.485   3.268 -0.1897  0.6649 -3.4030
  137OSM    H6T14814   1.112   0.438   3.215 -0.6003  0.4202 -1.9303
  137OSM    C7S14815   1.021   0.310   3.368  0.3127  0.1548 -0.0229
  137OSM    H7S14816   1.083   0.221   3.344 -0.3352  0.0507 -1.4324
  137OSM    H7T14817   0.919   0.270   3.387  0.9264 -0.4710  2.2704
  137OSM    C8S14818   1.061   0.382   3.495 -0.0008 -0.3999  0.9700
  137OSM    H8S14819   1.000   0.475   3.507  3.1007  1.9320  0.0059
  137OSM    H8T14820   1.167   0.411   3.483  0.0817 -1.8639 -2.9138
  137OSM    C9S14821   1.048   0.287   3.620 -0.0015 -0.0780 -0.4535
  137OSM    H9S14822   1.107   0.197   3.594  2.1348  1.9375 -3.3050
  137OSM    H9T14823   0.940   0.263   3.627 -0.0177  0.5586  2.8202
  137OSM   C10S14824   1.096   0.347   3.743  0.6018  0.0136 -0.2061
  137OSM   H10S14825   1.207   0.349   3.749  0.6889 -2.8446  1.1380
  137OSM   H10T14826   1.076   0.273   3.825 -1.6357 -0.3168 -0.9846
  137OSM   C11S14827   1.038   0.488   3.783  0.5616  0.6732  0.1405
  137OSM   H11S14828   0.927   0.488   3.773  0.5462  1.3799  0.2995
  137OSM   H11T14829   1.080   0.563   3.712 -1.4746  0.8505 -0.9512
  137OSM   C12S14830   1.082   0.519   3.925  0.5262 -0.0485  0.1306
  137OSM   H12S14831   1.190   0.499   3.939  0.2626 -1.6257  0.0458
  137OSM   H12T14832   1.025   0.461   4.001 -2.4142  2.9289  0.4567
  137OSM   C13S14833   1.046   0.666   3.978 -0.1548 -0.0181 -0.0889
  137OSM   H13S14834   0.947   0.695   3.937  0.4366  0.1557 -1.4570
  137OSM   H13T14835   1.128   0.725   3.932 -1.4744  0.1870 -2.2880
  137OSM   C14S14836   1.061   0.695   4.124  0.1805  0.8959 -0.8393
  137OSM   H14S14837   1.160   0.672   4.169 -0.9213 -2.3838  0.2190
  137OSM   H14T14838   0.990   0.635   4.185 -1.6343  3.2103 -0.5465
  137OSM   C15S14839   1.024   0.841   4.158  0.4623  0.3360  0.1270
  137OSM   H15S14840   0.920   0.862   4.126  0.1712  0.5033  1.1353
  137OSM   H15T14841   1.097   0.908   4.108 -1.9878  0.7623 -3.1761
  137OSM   C16S14842   1.026   0.855   4.311 -0.2648  0.6585  0.0165
  137OSM   H16S14843   1.130   0.835   4.344  0.4823  2.5657 -1.0060
  137OSM   H16T14844   0.949   0.785   4.350  1.3312 -0.3299  1.5246
  137OSM   C17S14845   0.987   0.994   4.355 -0.4899 -0.7861  0.9671
  137OSM   H17S14846   0.884   1.022   4.326 -0.9590 -1.8841  1.5273
  137OSM   H17T14847   1.050   1.062   4.292  0.0134 -2.4276 -0.3715
  137OSM   C18S14848   1.013   1.026   4.503 -0.3162  0.5783 -0.1914
  137OSM   H18S14849   1.121   1.011   4.524 -0.8767 -1.0561  1.8188
  137OSM   H18T14850   0.934   0.975   4.561 -1.2481  1.5917 -0.5206
  137OSM   H18U14851   0.987   1.134   4.516 -0.1902  0.8522 -1.9305
  137OSM    C1F14852   0.866  -0.133   3.076  0.1248  0.8091 -1.0597
  137OSM     OF14853   0.931  -0.221   3.015 -0.2004 -0.5111 -0.2738
  137OSM    C2F14854   0.775  -0.168   3.191 -0.7556 -0.7026 -0.0439
  137OSM    H2F14855   0.669  -0.156   3.163 -1.0737 -0.2241  1.2688
  137OSM    H2G14856   0.786  -0.096   3.275  0.0466 -1.6765  0.7184
  137OSM    C3F14857   0.797  -0.296   3.261 -0.3748  0.5978  0.2815
  137OSM    H3F14858   0.891  -0.302   3.320  0.3660  0.0315 -0.9202
  137OSM    H3G14859   0.777  -0.382   3.194 -1.9265  2.4015 -1.6933
  137OSM    C4F14860   0.689  -0.299   3.376 -0.6466 -0.1228 -0.0838
  137OSM    H4F14861   0.587  -0.285   3.333 -0.2518 -0.1552 -1.0621
  137OSM    H4G14862   0.714  -0.209   3.435 -0.7753 -0.1427  0.0035
  137OSM    C5F14863   0.701  -0.413   3.485  0.5133  0.2428 -0.3280
  137OSM    H5F14864   0.808  -0.442   3.492 -0.0256 -1.6724  0.6821
  137OSM    H5G14865   0.653  -0.500   3.435  2.0766 -0.3148 -0.9312
  137OSM    C6F14866   0.631  -0.374   3.611  0.3802  0.7537  0.2003
  137OSM    H6F14867   0.527  -0.365   3.574  0.1513 -2.0561 -0.0741
  137OSM    H6G14868   0.655  -0.279   3.662 -1.8019  1.2799  0.3469
  137OSM    C7F14869   0.637  -0.484   3.715  0.6724  0.5401 -0.5868
  137OSM    H7F14870   0.742  -0.511   3.740 -0.1263 -0.5751  1.9199
  137OSM    H7G14871   0.584  -0.571   3.672  0.9103  0.2653 -0.3333
  137OSM    C8F14872   0.572  -0.424   3.845  0.2869 -0.2304 -0.1879
  137OSM    H8F14873   0.467  -0.410   3.811 -1.0975 -3.3142  2.2622
  137OSM    H8G14874   0.612  -0.323   3.866 -0.8309  0.3690 -0.8834
  137OSM    C9F14875   0.579  -0.525   3.956 -0.4417 -0.2646 -0.2058
  137OSM    H9F14876   0.670  -0.585   3.970 -0.7088 -0.6181  0.0173
  137OSM   C10F14877   0.465  -0.573   4.009  0.0375 -0.1389  0.4100
  137OSM   H10F14878   0.476  -0.649   4.087  1.7106  0.7798  1.1258
  137OSM   C11F14879   0.323  -0.525   3.998 -0.1301 -0.4948 -0.1562
  137OSM   H11F14880   0.267  -0.583   3.922 -0.7514  2.0184 -1.7313
  137OSM   H11G14881   0.323  -0.422   3.958 -0.9660 -1.3011 -2.4124
  137OSM   C12F14882   0.251  -0.528   4.137 -0.0927 -0.0737 -0.1867
  137OSM   H12F14883   0.308  -0.468   4.212 -0.3699  0.2311 -0.2185
  137OSM   H12G14884   0.238  -0.630   4.179  1.9341 -0.8270 -1.2534
  137OSM   C13F14885   0.117  -0.461   4.127  0.1331 -0.9310  0.2137
  137OSM   H13F14886   0.044  -0.503   4.054 -0.2672  2.3095 -1.3996
  137OSM   H13G14887   0.132  -0.359   4.086 -2.0036  0.2242  2.0849
  137OSM   C14F14888   0.034  -0.460   4.258 -0.0066  0.5395 -0.4778
  137OSM   H14F14889   0.075  -0.387   4.331 -2.3037  0.2756  1.2053
  137OSM   H14G14890   0.037  -0.561   4.305  0.7344  1.9054  2.6479
  137OSM   C15F14891  -0.109  -0.419   4.216  0.4195  0.5968  0.3479
  137OSM   H15F14892  -0.139  -0.490   4.136 -2.6444 -1.1464  2.8162
  137OSM   H15G14893  -0.114  -0.317   4.172 -1.6176  0.4175  0.0594
  137OSM   C16F14894  -0.201  -0.441   4.329  0.2455 -0.3226 -0.4075
  137OSM   H16F14895  -0.170  -0.381   4.418  0.8296 -0.6721 -0.3702
  137OSM   H16G14896  -0.195  -0.543   4.372  0.7467 -0.2448 -0.2901
  137OSM   C17F14897  -0.348  -0.410   4.300  0.5348  0.0662 -0.1558
  137OSM   H17F14898  -0.376  -0.482   4.220  0.4353 -0.0742  0.0048
  137OSM   H17G14899  -0.351  -0.308   4.257  1.4165  0.6411  1.0722
  137OSM   C18F14900  -0.436  -0.422   4.423 -0.8189 -0.8414  0.1249
  137OSM   H18F14901  -0.381  -0.386   4.512 -0.0278 -0.4614 -0.5009
  137OSM   H18G14902  -0.477  -0.526   4.428 -2.4766 -0.6760 -4.5669
  137OSM   H18H14903  -0.524  -0.356   4.413 -0.8321 -0.6877  1.1453
  138OSM      N14904   2.403   4.457   2.375  0.1496  0.4989 -0.2950
  138OSM    C1514905   2.397   4.517   2.508  0.8165 -0.1130 -1.0063
  138OSM   H15A14906   2.456   4.607   2.508 -0.1093  0.5060 -0.8875
  138OSM   H15B14907   2.444   4.460   2.588  4.1220  0.7307 -2.1798
  138OSM   H15C14908   2.297   4.540   2.541  0.8880 -1.2526  0.1168
  138OSM    C1414909   2.330   4.543   2.277 -0.4254 -0.1288 -0.2316
  138OSM   H14A14910   2.302   4.486   2.190  0.9335 -2.4149  0.7356
  138OSM   H14B14911   2.396   4.625   2.253  1.9039 -1.0893  2.2849
  138OSM   H14C14912   2.237   4.576   2.322 -1.2190 -1.6472 -0.6993
  138OSM    C1314913   2.542   4.419   2.337  0.5877 -0.2219 -0.3405
  138OSM   H13A14914   2.540   4.372   2.240 -2.8423 -0.5576 -0.2158
  138OSM   H13B14915   2.598   4.348   2.397  0.1824 -0.5645 -0.3697
  138OSM   H13C14916   2.616   4.498   2.329  1.0342 -0.5481  0.4347
  138OSM    C1214917   2.311   4.328   2.381  0.1692  0.8656 -0.3641
  138OSM   H12A14918   2.361   4.256   2.443 -1.4974 -0.7118 -0.7694
  138OSM   H12B14919   2.307   4.275   2.287  0.2108  1.9772 -1.0235
  138OSM    C1114920   2.164   4.329   2.438 -0.0516  0.0994  0.0590
  138OSM   H11A14921   2.113   4.239   2.396 -1.8235  0.3769  1.4860
  138OSM   H11B14922   2.122   4.428   2.410  3.7739  1.6557 -0.7813
  138OSM      P14923   2.102   4.404   2.675  0.0360 -0.2005  0.2367
  138OSM    O1314924   2.128   4.358   2.811 -0.6059 -0.6101  0.7513
  138OSM    O1414925   2.134   4.540   2.641 -0.0574 -0.0161  0.1352
  138OSM    O1114926   1.949   4.389   2.649  0.1299  0.1912 -0.3315
  138OSM    O1214927   2.174   4.307   2.575 -0.0035 -0.8661 -0.4480
  138OSM    C1S14928   1.882   4.261   2.671  0.3872 -0.7247  0.2165
  138OSM    H1S14929   1.959   4.181   2.676 -1.2465 -2.3120  0.9164
  138OSM    H1T14930   1.822   4.238   2.579 -0.0138 -1.8580  0.7387
  138OSM     NF14931   1.740   4.122   2.825  0.1667 -0.2263  0.6556
  138OSM    HNF14932   1.647   4.107   2.794  0.3638 -2.8627  1.0846
  138OSM    C2S14933   1.797   4.254   2.800  0.1745 -0.6496 -0.0318
  138OSM    H2S14934   1.871   4.272   2.881  0.0198  2.1773 -0.4439
  138OSM    C3S14935   1.690   4.359   2.796  0.0023 -0.0460  0.5009
  138OSM    H3S14936   1.630   4.338   2.705  1.7864  2.1183 -1.2919
  138OSM     O314937   1.729   4.494   2.771  0.1596  0.0641  0.0440
  138OSM    HO314938   1.819   4.483   2.740  1.3079 -0.6837  3.2128
  138OSM    C4S14939   1.622   4.346   2.927 -0.3072 -0.3595 -0.6410
  138OSM    H4S14940   1.551   4.262   2.931  1.8001 -2.1823  0.3521
  138OSM    C5S14941   1.645   4.428   3.033  1.0295 -0.1170  0.1325
  138OSM    H5S14942   1.710   4.517   3.024  0.2359  0.4234 -0.4068
  138OSM    C6S14943   1.584   4.412   3.170 -0.0299  0.1320  0.1142
  138OSM    H6S14944   1.500   4.340   3.180  0.4681 -0.7951 -1.8781
  138OSM    H6T14945   1.547   4.510   3.208  1.9522  0.4208  1.4331
  138OSM    C7S14946   1.694   4.376   3.276 -0.3977  0.1447  0.0659
  138OSM    H7S14947   1.768   4.458   3.281 -0.2950 -0.0072  2.1557
  138OSM    H7T14948   1.741   4.280   3.246 -0.0712  0.7505 -1.4092
  138OSM    C8S14949   1.643   4.359   3.423  0.4250  0.4812 -0.0036
  138OSM    H8S14950   1.564   4.282   3.431  0.9523  0.0062  0.7736
  138OSM    H8T14951   1.596   4.453   3.460  0.2641  0.5005 -0.2530
  138OSM    C9S14952   1.756   4.314   3.518  0.6094 -0.6203  0.0022
  138OSM    H9S14953   1.804   4.412   3.541 -3.9751  1.3921  2.3487
  138OSM    H9T14954   1.821   4.253   3.451  0.2756  1.8652 -2.8141
  138OSM   C10S14955   1.716   4.239   3.648  0.2534 -0.6761  0.4657
  138OSM   H10S14956   1.809   4.211   3.701  4.3300  4.6882 -2.7267
  138OSM   H10T14957   1.649   4.152   3.632  1.3421 -2.1340  3.2920
  138OSM   C11S14958   1.658   4.346   3.744  0.2080 -0.6556  0.3363
  138OSM   H11S14959   1.568   4.394   3.702  0.8461 -0.7161 -1.1782
  138OSM   H11T14960   1.721   4.437   3.752 -1.3725  0.3579  1.8942
  138OSM   C12S14961   1.636   4.294   3.883 -0.1796 -0.0741 -0.0478
  138OSM   H12S14962   1.603   4.189   3.875  1.3629 -0.6688  0.8288
  138OSM   H12T14963   1.549   4.340   3.934  1.2537  0.7786  1.7557
  138OSM   C13S14964   1.774   4.298   3.966  0.2451 -0.2409 -0.0606
  138OSM   H13S14965   1.863   4.259   3.912  1.4329  0.6850  1.1386
  138OSM   H13T14966   1.751   4.224   4.045 -0.5424 -0.3155 -0.3535
  138OSM   C14S14967   1.805   4.432   4.031  0.1130  0.2019 -0.1685
  138OSM   H14S14968   1.790   4.521   3.966 -2.9744  1.1442  1.6453
  138OSM   H14T14969   1.914   4.424   4.052  0.4160  0.7788 -1.4206
  138OSM   C15S14970   1.736   4.452   4.172  0.2883 -0.0174  1.3723
  138OSM   H15S14971   1.719   4.359   4.231 -0.7513 -0.4616  0.4148
  138OSM   H15T14972   1.636   4.496   4.151  0.4361 -0.0135  0.6554
  138OSM   C16S14973   1.824   4.548   4.259  0.0794 -0.2588 -0.0648
  138OSM   H16S14974   1.848   4.637   4.197 -0.8876  0.7365  0.9438
  138OSM   H16T14975   1.918   4.495   4.284  0.4765  0.9391  1.1356
  138OSM   C17S14976   1.778   4.587   4.401  0.0363  0.2826  0.1088
  138OSM   H17S14977   1.873   4.623   4.445  0.6119  1.4628 -1.9211
  138OSM   H17T14978   1.745   4.491   4.445  1.1263  0.2697  0.9173
  138OSM   C18S14979   1.662   4.687   4.410 -0.0927 -0.4549  0.4440
  138OSM   H18S14980   1.693   4.788   4.377  0.2405 -0.3097  1.1741
  138OSM   H18T14981   1.630   4.707   4.514 -1.5545  0.3383 -0.1272
  138OSM   H18U14982   1.568   4.650   4.365 -0.2455 -0.1085  0.4745
  138OSM    C1F14983   1.814   4.015   2.869  0.2126 -0.5789  0.9979
  138OSM     OF14984   1.935   4.035   2.891  0.4336  0.4418 -0.6675
  138OSM    C2F14985   1.743   3.882   2.884 -0.2664  0.1435 -0.4374
  138OSM    H2F14986   1.766   3.826   2.791  0.3038 -1.1289  0.4394
  138OSM    H2G14987   1.633   3.896   2.889 -0.0092  2.1739  0.8954
  138OSM    C3F14988   1.798   3.787   2.993 -0.2874 -0.4465  0.0704
  138OSM    H3F14989   1.907   3.765   2.984 -0.3664 -0.8667  0.1374
  138OSM    H3G14990   1.739   3.694   2.978  1.0301 -0.8130 -4.4817
  138OSM    C4F14991   1.788   3.837   3.136 -0.0650 -0.4609 -0.9991
  138OSM    H4F14992   1.691   3.889   3.149  1.0759  1.3476  1.0897
  138OSM    H4G14993   1.866   3.916   3.141 -2.0571  1.5221  0.3037
  138OSM    C5F14994   1.820   3.739   3.255  0.3682  0.5660 -0.3040
  138OSM    H5F14995   1.925   3.703   3.259  0.3652  0.5358 -0.5211
  138OSM    H5G14996   1.744   3.657   3.260  0.9391 -0.0061 -0.8062
  138OSM    C6F14997   1.815   3.808   3.387  0.4584  0.4397 -0.2977
  138OSM    H6F14998   1.729   3.879   3.380 -0.1105 -0.3430 -1.5920
  138OSM    H6G14999   1.904   3.873   3.399  1.7570 -1.3926  0.5266
  138OSM    C7F15000   1.797   3.708   3.501 -0.8186  0.0479  0.4766
  138OSM    H7F15001   1.863   3.620   3.492 -1.2970 -0.1388 -1.7925
  138OSM    H7G15002   1.696   3.662   3.496 -0.1221 -1.6675  1.4220
  138OSM    C8F15003   1.805   3.767   3.643 -0.2142 -0.3916 -0.4441
  138OSM    H8F15004   1.750   3.862   3.660  2.6714  1.3394 -0.0795
  138OSM    H8G15005   1.909   3.797   3.667 -0.9544  1.1328  1.1891
  138OSM    C9F15006   1.793   3.667   3.757 -0.1024 -0.1841  0.5582
  138OSM    H9F15007   1.841   3.569   3.740 -0.3282 -0.0979 -0.7101
  138OSM   C10F15008   1.727   3.678   3.873  0.2384 -0.7969 -0.5981
  138OSM   H10F15009   1.740   3.600   3.949  2.5683 -1.6536 -1.7789
  138OSM   C11F15010   1.661   3.812   3.916 -1.2578  0.5826  0.8893
  138OSM   H11F15011   1.552   3.791   3.924 -0.9742 -1.3606  0.0295
  138OSM   H11G15012   1.693   3.894   3.847  2.4228 -0.9260  0.5797
  138OSM   C12F15013   1.716   3.856   4.053 -0.0045 -0.2175 -0.0852
  138OSM   H12F15014   1.819   3.897   4.056 -0.2594  0.7794 -2.6307
  138OSM   H12G15015   1.712   3.768   4.122  0.0251 -0.3120 -0.2041
  138OSM   C13F15016   1.617   3.959   4.117 -0.6029  0.6775  0.8058
  138OSM   H13F15017   1.520   3.909   4.137 -1.0636 -0.6272 -3.6129
  138OSM   H13G15018   1.619   4.044   4.045 -1.1644  1.8334  2.1243
  138OSM   C14F15019   1.677   4.000   4.250  0.2322 -0.0875  0.6949
  138OSM   H14F15020   1.775   4.046   4.227 -0.9558  0.6179 -4.0101
  138OSM   H14G15021   1.685   3.906   4.309 -0.1667 -0.7683 -0.3154
  138OSM   C15F15022   1.585   4.102   4.314 -0.1856  0.8227  0.6245
  138OSM   H15F15023   1.486   4.062   4.344 -0.7742  1.3222 -0.6144
  138OSM   H15G15024   1.569   4.186   4.244 -1.2388  0.3941  0.3345
  138OSM   C16F15025   1.638   4.143   4.451 -0.1112  0.1701  0.1110
  138OSM   H16F15026   1.729   4.207   4.449 -0.6010  0.8653 -0.7116
  138OSM   H16G15027   1.665   4.051   4.507 -0.3370  0.0584  0.0355
  138OSM   C17F15028   1.521   4.203   4.535  0.0215  0.0398  0.9427
  138OSM   H17F15029   1.579   4.244   4.621  0.5847  1.4343 -0.0500
  138OSM   H17G15030   1.448   4.125   4.564 -1.0982  0.4960 -0.5474
  138OSM   C18F15031   1.451   4.313   4.461 -0.0323 -0.0879  0.8652
  138OSM   H18F15032   1.397   4.376   4.535 -1.8655  1.5661 -1.7210
  138OSM   H18G15033   1.386   4.288   4.376  2.9948 -1.1447 -1.3128
  138OSM   H18H15034   1.528   4.384   4.422  1.7884 -2.2621  0.2914
  139OSM      N15035   2.560   0.968   2.398  0.1863  0.5061  0.0088
  139OSM    C1515036   2.456   1.070   2.363 -0.0234 -0.1148  0.4728
  139OSM   H15A15037   2.506   1.166   2.352  3.4774 -1.8010  0.1203
  139OSM   H15B15038   2.375   1.071   2.433  0.7165  1.6984  1.3800
  139OSM   H15C15039   2.417   1.049   2.265 -1.9146 -0.5108  1.2729
  139OSM    C1415040   2.477   0.853   2.450  0.0775  0.3185  0.4282
  139OSM   H14A15041   2.390   0.888   2.505 -0.3798  0.1104 -0.1581
  139OSM   H14B15042   2.538   0.785   2.509 -2.4355 -1.7702  0.8015
  139OSM   H14C15043   2.431   0.806   2.365 -0.0019  1.5309 -0.2107
  139OSM    C1315044   2.633   0.934   2.273 -1.0543  1.0206 -0.2685
  139OSM   H13A15045   2.711   0.869   2.312 -2.3130 -0.8205 -0.7186
  139OSM   H13B15046   2.686   1.018   2.231 -1.8212  2.1469  0.9565
  139OSM   H13C15047   2.567   0.877   2.211 -1.6876  0.9686  0.4372
  139OSM    C1215048   2.649   1.024   2.511  0.4717 -0.2990  0.1939
  139OSM   H12A15049   2.592   1.059   2.596 -2.0697 -1.0733 -1.1136
  139OSM   H12B15050   2.701   1.113   2.478  0.9798 -0.5095  0.4180
  139OSM    C1115051   2.756   0.930   2.568  1.0415 -0.2239 -0.4477
  139OSM   H11A15052   2.703   0.841   2.608  0.4687  0.9794  1.6137
  139OSM   H11B15053   2.801   0.982   2.655 -0.0918 -0.0433  0.0431
  139OSM      P15054   2.997   0.918   2.459  0.0834 -0.5001  0.2398
  139OSM    O1315055   3.058   0.817   2.380 -0.7801  0.0786 -0.0245
  139OSM    O1415056   3.024   1.061   2.426 -0.3736  0.0897  0.0959
  139OSM    O1115057   3.043   0.890   2.614 -0.2898  0.0851  0.2685
  139OSM    O1215058   2.846   0.878   2.471  0.2262  0.0426 -0.1533
  139OSM    C1S15059   3.169   0.832   2.640  0.6179 -0.0711 -0.2579
  139OSM    H1S15060   3.249   0.908   2.647  0.0365  0.6468 -1.1909
  139OSM    H1T15061   3.201   0.762   2.559  0.2344  1.1214 -1.4705
  139OSM     NF15062   3.303   0.720   2.818  0.0450 -0.2529  0.2464
  139OSM    HNF15063   3.327   0.623   2.809 -0.5601 -0.3361 -0.5129
  139OSM    C2S15064   3.164   0.754   2.772  0.0103  0.8049  0.2699
  139OSM    H2S15065   3.113   0.809   2.855  0.2572 -4.3559  4.3498
  139OSM    C3S15066   3.078   0.625   2.754 -0.4091 -0.1757  0.2613
  139OSM    H3S15067   3.138   0.558   2.688 -0.1835 -0.9222  1.1961
  139OSM     O315068   2.953   0.646   2.684  0.1412  0.2715  0.1119
  139OSM    HO315069   2.954   0.739   2.659  1.2892 -0.3000 -2.2026
  139OSM    C4S15070   3.066   0.568   2.890 -0.2435  0.3613  0.5448
  139OSM    H4S15071   3.033   0.642   2.965  0.6814  2.0777 -0.6675
  139OSM    C5S15072   3.083   0.439   2.935 -0.1237 -0.1727  0.5104
  139OSM    H5S15073   3.103   0.365   2.855 -0.7204  0.6019 -0.3808
  139OSM    C6S15074   3.062   0.388   3.077 -0.2711  0.3053  0.2539
  139OSM    H6S15075   3.152   0.336   3.116 -1.2638 -1.5519  0.1855
  139OSM    H6T15076   2.981   0.312   3.083  0.8313 -1.0579 -1.4205
  139OSM    C7S15077   3.029   0.496   3.187 -0.3021 -1.0409 -0.3125
  139OSM    H7S15078   2.933   0.538   3.151  0.2462  0.8670  0.2747
  139OSM    H7T15079   3.094   0.586   3.174  0.2550 -1.2987  0.6202
  139OSM    C8S15080   3.023   0.444   3.333 -0.4520 -0.1825 -0.2783
  139OSM    H8S15081   3.020   0.524   3.411  2.0206 -1.6566  1.4592
  139OSM    H8T15082   3.120   0.395   3.353 -0.1211 -0.5360 -2.5292
  139OSM    C9S15083   2.912   0.349   3.358  0.2881  0.8691  0.1114
  139OSM    H9S15084   2.922   0.252   3.304  0.6862 -0.0028  1.7063
  139OSM    H9T15085   2.816   0.398   3.329 -0.0927 -1.1333 -2.3849
  139OSM   C10S15086   2.895   0.321   3.510 -0.5405  0.2311 -0.3859
  139OSM   H10S15087   2.883   0.423   3.551  0.5612  0.7191 -1.2221
  139OSM   H10T15088   2.984   0.270   3.553 -0.9619  0.1885  0.4588
  139OSM   C11S15089   2.774   0.238   3.543  0.2753  0.0197 -1.4944
  139OSM   H11S15090   2.781   0.133   3.508  2.1755  0.0442 -1.2687
  139OSM   H11T15091   2.681   0.292   3.514 -0.6386 -1.0100 -0.5791
  139OSM   C12S15092   2.762   0.244   3.702 -0.3142  0.9828 -0.0443
  139OSM   H12S15093   2.666   0.191   3.719 -0.3488  0.2659 -2.1942
  139OSM   H12T15094   2.756   0.347   3.743 -1.2092  0.9864 -0.1831
  139OSM   C13S15095   2.879   0.166   3.771 -0.4609 -0.0980  0.0397
  139OSM   H13S15096   2.974   0.220   3.749 -0.4972 -0.4176 -0.9477
  139OSM   H13T15097   2.881   0.066   3.723 -0.3937  1.2430 -3.0483
  139OSM   C14S15098   2.877   0.162   3.924  0.1970  0.4342 -0.2165
  139OSM   H14S15099   2.775   0.132   3.956  0.2630  2.3351  2.0675
  139OSM   H14T15100   2.876   0.270   3.948 -2.3037  0.5020 -0.3856
  139OSM   C15S15101   2.990   0.090   3.992  0.3154 -0.3827  0.3057
  139OSM   H15S15102   3.086   0.135   3.959 -0.2245 -0.4489 -1.4396
  139OSM   H15T15103   2.985  -0.019   3.973 -2.5867 -0.2134 -0.2898
  139OSM   C16S15104   3.004   0.103   4.148  0.7648 -0.2347  0.5812
  139OSM   H16S15105   3.101   0.059   4.179  0.3269 -0.4801  1.6201
  139OSM   H16T15106   2.921   0.040   4.186  0.2719 -0.4857 -0.8560
  139OSM   C17S15107   3.010   0.250   4.207 -1.0737  0.8062 -0.0234
  139OSM   H17S15108   3.000   0.249   4.318  0.3998 -0.6625  0.1370
  139OSM   H17T15109   2.926   0.302   4.156  1.8140  2.8268 -3.1171
  139OSM   C18S15110   3.132   0.334   4.167  0.3638  0.6916  0.2856
  139OSM   H18S15111   3.127   0.340   4.056  1.2495  0.3117  0.2161
  139OSM   H18T15112   3.221   0.272   4.190  0.7825  1.0033 -0.4176
  139OSM   H18U15113   3.141   0.439   4.202  0.9263  0.5919  0.4505
  139OSM    C1F15114   3.381   0.806   2.875 -0.0310 -0.3366 -0.9753
  139OSM     OF15115   3.332   0.907   2.919  0.5240 -0.2720 -0.1038
  139OSM    C2F15116   3.531   0.778   2.879  0.2160  0.1228 -0.6452
  139OSM    H2F15117   3.585   0.807   2.786 -0.0913 -0.0400 -0.8775
  139OSM    H2G15118   3.546   0.671   2.907 -0.5885  0.5133  1.4572
  139OSM    C3F15119   3.593   0.858   3.003  0.0818 -0.1993 -0.7077
  139OSM    H3F15120   3.602   0.967   2.985 -1.4422 -0.2561 -2.0133
  139OSM    H3G15121   3.698   0.826   3.022 -0.0927 -0.0458  0.6174
  139OSM    C4F15122   3.524   0.840   3.148  0.1809 -0.8116  0.0866
  139OSM    H4F15123   3.505   0.731   3.159  1.2178 -0.8075  2.8783
  139OSM    H4G15124   3.438   0.909   3.152  1.0021  0.1937  1.5512
  139OSM    C5F15125   3.616   0.864   3.269 -0.5253 -0.4426 -0.2531
  139OSM    H5F15126   3.653   0.968   3.265  0.1916 -0.6365  0.8245
  139OSM    H5G15127   3.698   0.790   3.256 -0.4267 -0.7155  1.6282
  139OSM    C6F15128   3.554   0.832   3.413 -0.1250  0.1000 -0.3324
  139OSM    H6F15129   3.520   0.726   3.415  0.6907 -0.1548  1.2816
  139OSM    H6G15130   3.462   0.893   3.420  0.0936  0.4427 -0.4407
  139OSM    C7F15131   3.637   0.867   3.532 -0.3882 -0.6009  0.1399
  139OSM    H7F15132   3.691   0.961   3.508  0.2495 -0.7702  0.8518
  139OSM    H7G15133   3.715   0.789   3.544 -1.2386 -1.6232 -0.8060
  139OSM    C8F15134   3.560   0.880   3.666  0.0194 -0.6528 -0.0735
  139OSM    H8F15135   3.512   0.788   3.704  0.1203  0.0572  1.9158
  139OSM    H8G15136   3.479   0.953   3.646 -0.7775 -1.1792  1.1613
  139OSM    C9F15137   3.653   0.942   3.768  0.4352  0.2474  0.2148
  139OSM    H9F15138   3.644   1.052   3.769 -5.0280  0.0934 -1.4608
  139OSM   C10F15139   3.738   0.882   3.851 -0.1839  0.9473  0.4140
  139OSM   H10F15140   3.808   0.940   3.914  1.4254 -0.5952  0.1152
  139OSM   C11F15141   3.759   0.730   3.872 -0.3002 -0.2368 -0.2968
  139OSM   H11F15142   3.861   0.697   3.842  1.0358  1.4330  2.1229
  139OSM   H11G15143   3.691   0.667   3.811 -0.2621  2.4976 -3.4279
  139OSM   C12F15144   3.754   0.701   4.026 -0.4678  0.1821 -0.3035
  139OSM   H12F15145   3.752   0.591   4.033  1.6958 -0.1920 -3.3895
  139OSM   H12G15146   3.663   0.730   4.082 -0.4293 -3.2421  1.7867
  139OSM   C13F15147   3.873   0.759   4.109 -0.9207  0.4562  0.6960
  139OSM   H13F15148   3.947   0.788   4.030 -3.0823 -0.5392 -1.8344
  139OSM   H13G15149   3.922   0.683   4.172  0.3910  2.0815  1.7369
  139OSM   C14F15150   3.830   0.880   4.193 -0.7393 -0.4627 -0.2512
  139OSM   H14F15151   3.748   0.855   4.263 -1.1119  1.8817  0.2316
  139OSM   H14G15152   3.790   0.966   4.137  0.4598  0.3180  0.0417
  139OSM   C15F15153   3.942   0.916   4.287 -0.1233  0.1116  0.2856
  139OSM   H15F15154   4.031   0.956   4.234 -1.0608  0.9750 -0.6743
  139OSM   H15G15155   3.984   0.826   4.338 -1.8663 -1.8100 -1.4275
  139OSM   C16F15156   3.896   1.006   4.404 -0.2376 -0.6012  0.0337
  139OSM   H16F15157   3.785   1.005   4.398 -0.4389  2.4934  1.6207
  139OSM   H16G15158   3.927   1.109   4.378 -1.0454  0.3045  2.4456
  139OSM   C17F15159   3.961   0.969   4.537 -0.1817 -0.1794 -1.1128
  139OSM   H17F15160   4.071   0.961   4.538 -0.2274 -0.7948 -0.4504
  139OSM   H17G15161   3.912   0.870   4.552 -0.8998 -0.1085 -2.7561
  139OSM   C18F15162   3.924   1.068   4.655 -0.2832 -0.5749 -0.5936
  139OSM   H18F15163   3.948   1.172   4.625  2.3877 -1.6293 -2.4677
  139OSM   H18G15164   3.982   1.048   4.748  1.7785  1.8220 -1.2637
  139OSM   H18H15165   3.817   1.066   4.687 -0.5628  0.2000 -1.4291
  140OSM      N15166   1.840   4.501   2.211  0.3082  0.5460 -0.2655
  140OSM    C1515167   1.979   4.465   2.167 -0.5604  0.4918  0.5655
  140OSM   H15A15168   1.976   4.494   2.063  1.3964  0.2110  0.3931
  140OSM   H15B15169   1.993   4.358   2.178  2.8241  0.4946 -2.0054
  140OSM   H15C15170   2.057   4.525   2.213  2.5665 -0.8556 -2.5087
  140OSM    C1415171   1.808   4.644   2.195 -1.0830 -0.0662  0.8779
  140OSM   H14A15172   1.875   4.713   2.244  0.4043 -0.8891  0.0664
  140OSM   H14B15173   1.708   4.667   2.229 -2.7301 -0.7080 -3.0637
  140OSM   H14C15174   1.817   4.658   2.089 -0.4929  0.4668  0.9894
  140OSM    C1315175   1.752   4.408   2.130 -0.2201 -0.8707 -0.5003
  140OSM   H13A15176   1.764   4.308   2.168 -0.5925  0.0762  2.3895
  140OSM   H13B15177   1.770   4.421   2.024 -0.7336  3.0324 -0.2745
  140OSM   H13C15178   1.647   4.421   2.152 -0.1200 -3.3818  1.9301
  140OSM    C1215179   1.832   4.468   2.359  0.5702  0.6780  0.0959
  140OSM   H12A15180   1.910   4.521   2.412  2.6783 -0.2356 -1.9077
  140OSM   H12B15181   1.856   4.363   2.370 -0.5110  0.3841 -0.2987
  140OSM    C1115182   1.687   4.493   2.417 -0.3127  0.8773  0.2651
  140OSM   H11A15183   1.670   4.603   2.418  0.5998  1.0274  0.1292
  140OSM   H11B15184   1.692   4.458   2.522 -1.0766 -0.1171 -0.0146
  140OSM      P15185   1.436   4.458   2.354  0.4181  0.0911  0.0083
  140OSM    O1315186   1.426   4.603   2.332  0.6884 -0.1185  0.0294
  140OSM    O1415187   1.354   4.372   2.264 -0.4141 -0.2399  0.2316
  140OSM    O1115188   1.394   4.429   2.503 -0.3864 -0.1142  0.2458
  140OSM    O1215189   1.591   4.406   2.352  0.0341 -0.7033  0.2776
  140OSM    C1S15190   1.347   4.306   2.550  0.4172 -0.3956 -0.1561
  140OSM    H1S15191   1.424   4.227   2.538  0.5528 -0.8901  2.9768
  140OSM    H1T15192   1.258   4.272   2.493 -0.8203  0.8834  0.9236
  140OSM     NF15193   1.271   4.200   2.769  0.2584 -0.2189  0.0650
  140OSM    HNF15194   1.176   4.177   2.791  0.7763 -2.1977  0.4720
  140OSM    C2S15195   1.301   4.323   2.697  0.7971 -0.0110 -0.1960
  140OSM    H2S15196   1.393   4.361   2.747  0.4154 -1.1435  1.4514
  140OSM    C3S15197   1.200   4.430   2.725  0.1990 -0.4024  0.8376
  140OSM    H3S15198   1.103   4.399   2.682  0.1675  0.4847  0.2365
  140OSM     O315199   1.226   4.562   2.660 -0.0553 -0.0813 -0.1415
  140OSM    HO315200   1.303   4.531   2.612  0.0656 -2.4640  1.3754
  140OSM    C4S15201   1.179   4.446   2.874  0.4637 -0.3419  0.6743
  140OSM    H4S15202   1.084   4.400   2.905  0.4919 -1.7056 -1.1022
  140OSM    C5S15203   1.259   4.517   2.961  0.8138  0.7790  0.4084
  140OSM    H5S15204   1.327   4.586   2.908  2.2707 -0.6393  0.3426
  140OSM    C6S15205   1.229   4.527   3.102  0.1221  0.0466  0.0347
  140OSM    H6S15206   1.171   4.622   3.108 -1.3063 -0.7080 -1.1812
  140OSM    H6T15207   1.327   4.547   3.151 -0.3721  3.5799 -0.1547
  140OSM    C7S15208   1.152   4.421   3.186  0.6271  0.0762 -0.3720
  140OSM    H7S15209   1.209   4.329   3.162  0.9564  0.5324 -1.4011
  140OSM    H7T15210   1.054   4.403   3.136 -0.3874 -0.5988  1.7161
  140OSM    C8S15211   1.143   4.450   3.342  0.2007 -0.0339  1.1642
  140OSM    H8S15212   1.080   4.370   3.388 -1.7485  1.3722  1.0614
  140OSM    H8T15213   1.093   4.547   3.361 -0.7852 -0.2335 -0.2175
  140OSM    C9S15214   1.284   4.458   3.403  0.3134 -0.2239  0.1750
  140OSM    H9S15215   1.324   4.554   3.364 -0.2794 -0.2896 -0.5977
  140OSM    H9T15216   1.343   4.371   3.368  0.8657  0.6002 -1.0040
  140OSM   C10S15217   1.285   4.474   3.551 -0.0070 -0.0266  0.4291
  140OSM   H10S15218   1.223   4.551   3.602 -1.1658 -1.1746  0.8006
  140OSM   H10T15219   1.392   4.492   3.577  0.3517 -2.1787  0.6076
  140OSM   C11S15220   1.249   4.344   3.630 -0.6421 -0.2426  0.2004
  140OSM   H11S15221   1.321   4.268   3.593  0.9011 -0.2522  3.0056
  140OSM   H11T15222   1.151   4.300   3.601 -0.7093  0.5567 -0.8544
  140OSM   C12S15223   1.248   4.370   3.784  0.0275 -0.6309  0.6366
  140OSM   H12S15224   1.152   4.412   3.821  0.0960  0.2405 -0.1248
  140OSM   H12T15225   1.333   4.437   3.808  0.0771 -0.3995 -0.1418
  140OSM   C13S15226   1.275   4.239   3.853 -0.2451 -0.3953  0.2125
  140OSM   H13S15227   1.384   4.219   3.863 -0.0215  1.4950  2.1540
  140OSM   H13T15228   1.211   4.157   3.812 -1.0563 -0.7013  1.9831
  140OSM   C14S15229   1.243   4.256   4.006  0.0608  0.2566  0.2787
  140OSM   H14S15230   1.133   4.263   4.021  0.1188 -1.1831  1.6224
  140OSM   H14T15231   1.281   4.353   4.045 -0.3638  1.7975 -2.8584
  140OSM   C15S15232   1.292   4.135   4.090  0.1708 -0.4933  0.1613
  140OSM   H15S15233   1.265   4.139   4.198  0.7104 -3.2174  0.4635
  140OSM   H15T15234   1.402   4.122   4.084  0.4611  0.4370  2.3750
  140OSM   C16S15235   1.224   4.008   4.047 -0.8416 -0.6834 -0.2247
  140OSM   H16S15236   1.274   3.921   4.093  0.5335  1.2591  2.1429
  140OSM   H16T15237   1.247   3.989   3.940  0.2979 -1.5558  0.1559
  140OSM   C17S15238   1.067   4.001   4.064 -0.2302  0.3280 -0.7811
  140OSM   H17S15239   1.030   4.067   3.983  0.1333 -0.2556 -1.4368
  140OSM   H17T15240   1.052   4.055   4.160 -0.3953  0.5849 -0.9494
  140OSM   C18S15241   1.015   3.865   4.056 -0.0620  0.2860 -0.0379
  140OSM   H18S15242   0.904   3.860   4.067  0.0411  1.0719  1.6957
  140OSM   H18T15243   1.060   3.805   4.137 -1.3482  0.8903  1.1698
  140OSM   H18U15244   1.045   3.818   3.960 -1.6275  1.4722 -1.1652
  140OSM    C1F15245   1.350   4.091   2.779  0.0950 -0.0417 -0.8613
  140OSM     OF15246   1.464   4.092   2.731  0.3358 -0.4596  0.2673
  140OSM    C2F15247   1.283   3.960   2.826 -0.0977  0.4691  0.0083
  140OSM    H2F15248   1.349   3.873   2.803 -2.3259 -1.2375 -0.2262
  140OSM    H2G15249   1.199   3.932   2.760  2.0132  1.8467 -3.5502
  140OSM    C3F15250   1.230   3.961   2.973 -0.4780  0.4177  0.2909
  140OSM    H3F15251   1.188   3.860   2.991  1.1892 -0.7911 -2.0620
  140OSM    H3G15252   1.158   4.044   2.991  0.2916  1.2557 -0.4032
  140OSM    C4F15253   1.348   3.981   3.074  1.9501  0.3216 -0.6292
  140OSM    H4F15254   1.378   4.088   3.074  1.8213  0.3584 -0.6066
  140OSM    H4G15255   1.427   3.911   3.039  0.4088 -1.2534 -1.1523
  140OSM    C5F15256   1.289   3.966   3.217 -0.2758  0.3571  0.2641
  140OSM    H5F15257   1.242   3.865   3.221  1.1360 -0.2983  2.0730
  140OSM    H5G15258   1.214   4.046   3.239 -0.6229  0.2580 -0.5271
  140OSM    C6F15259   1.399   3.976   3.323  0.3742  0.1960  0.2237
  140OSM    H6F15260   1.439   4.080   3.320 -0.3368  0.4969  0.8689
  140OSM    H6G15261   1.480   3.901   3.312  0.4916  0.0022  2.0950
  140OSM    C7F15262   1.343   3.962   3.460 -0.2075  0.4987  0.3856
  140OSM    H7F15263   1.266   3.882   3.460  0.8134 -0.5068  0.6261
  140OSM    H7G15264   1.290   4.056   3.485  1.6555  2.1079 -1.4020
  140OSM    C8F15265   1.451   3.913   3.565  0.0365  0.0286  0.2598
  140OSM    H8F15266   1.531   3.990   3.565 -1.5055  1.7290  1.1871
  140OSM    H8G15267   1.497   3.822   3.521  1.9034  0.9292  0.2727
  140OSM    C9F15268   1.391   3.889   3.700  0.2023  0.4120 -0.6556
  140OSM    H9F15269   1.387   3.979   3.764  2.0244 -0.5725  0.9551
  140OSM   C10F15270   1.347   3.778   3.757 -0.0967 -0.5416  0.6507
  140OSM   H10F15271   1.292   3.784   3.853 -0.8754  0.6090  0.1550
  140OSM   C11F15272   1.358   3.641   3.694  0.5501 -0.0216  0.0230
  140OSM   H11F15273   1.394   3.562   3.763  0.7718 -0.0878 -0.1651
  140OSM   H11G15274   1.430   3.650   3.610 -0.5591  2.1383 -0.7616
  140OSM   C12F15275   1.220   3.593   3.638  0.7937 -0.3269  0.3443
  140OSM   H12F15276   1.223   3.492   3.591 -1.0303  0.0382 -0.6425
  140OSM   H12G15277   1.175   3.664   3.566  2.2931  0.0232 -0.2891
  140OSM   C13F15278   1.104   3.590   3.740 -0.7091 -0.3381 -0.1764
  140OSM   H13F15279   1.005   3.588   3.689 -2.1523 -1.5753  2.4465
  140OSM   H13G15280   1.110   3.685   3.798 -1.5265 -0.8125  0.7364
  140OSM   C14F15281   1.106   3.466   3.832 -0.0748  0.0883  0.4644
  140OSM   H14F15282   1.206   3.443   3.875 -1.5583 -3.0776  2.5640
  140OSM   H14G15283   1.083   3.379   3.767  2.5628  0.0105 -0.4835
  140OSM   C15F15284   1.012   3.478   3.949 -0.6804  0.0495  0.2274
  140OSM   H15F15285   0.905   3.460   3.927 -0.2221  0.5407 -3.0196
  140OSM   H15G15286   1.012   3.575   4.004 -1.4435 -1.9580  4.0458
  140OSM   C16F15287   1.055   3.377   4.058  0.4312  0.2872 -0.2803
  140OSM   H16F15288   0.988   3.380   4.146 -0.8884 -4.6371 -0.7907
  140OSM   H16G15289   1.159   3.401   4.089  0.4056 -0.4557  0.3972
  140OSM   C17F15290   1.044   3.236   4.011 -0.0986  0.2713  0.0727
  140OSM   H17F15291   1.113   3.220   3.926 -0.2541  0.5636 -0.1111
  140OSM   H17G15292   0.942   3.215   3.973 -0.1485  0.3398  0.1651
  140OSM   C18F15293   1.073   3.140   4.126 -0.4693  0.0064 -0.0731
  140OSM   H18F15294   1.073   3.033   4.094 -1.5971 -0.4924  1.4987
  140OSM   H18G15295   1.004   3.130   4.212 -0.1910 -0.1387  0.1369
  140OSM   H18H15296   1.170   3.166   4.174 -0.4694 -1.2552  0.6569
  141OSM      N15297   1.114   2.049   1.981 -0.2119  0.0073 -0.5457
  141OSM    C1515298   1.079   2.071   1.840 -0.0193 -0.0570 -0.3748
  141OSM   H15A15299   1.130   2.004   1.773  0.1943 -1.2268  0.9276
  141OSM   H15B15300   1.095   2.170   1.798 -4.3797  1.2146  0.3863
  141OSM   H15C15301   0.973   2.054   1.828  0.3292 -1.2312 -2.0984
  141OSM    C1415302   1.268   2.061   1.997 -0.0562 -0.7721  0.1741
  141OSM   H14A15303   1.291   2.165   1.977  2.3838 -0.9011  1.8933
  141OSM   H14B15304   1.327   2.010   1.923  1.0682 -1.3135  1.4053
  141OSM   H14C15305   1.300   2.028   2.095 -4.0102 -1.8001  1.3416
  141OSM    C1315306   1.050   2.159   2.073 -0.6687 -0.1904  0.5888
  141OSM   H13A15307   0.955   2.192   2.034 -1.1160 -0.8563  1.0795
  141OSM   H13B15308   1.126   2.236   2.075  0.4831 -1.2994  0.8701
  141OSM   H13C15309   1.037   2.124   2.175  2.2583 -1.4566  0.6397
  141OSM    C1215310   1.061   1.923   2.029  0.4471  0.4804  0.1515
  141OSM   H12A15311   0.953   1.934   2.024  0.4131 -0.2977 -1.2314
  141OSM   H12B15312   1.095   1.913   2.131  0.3784  0.8738  0.2169
  141OSM    C1115313   1.101   1.796   1.950 -0.3696 -0.5895  0.1126
  141OSM   H11A15314   1.206   1.800   1.913 -0.1249 -0.3551  0.8211
  141OSM   H11B15315   1.043   1.776   1.858  0.5911 -1.7008 -0.2756
  141OSM      P15316   0.969   1.598   2.054  0.2713  0.0418  0.1390
  141OSM    O1315317   0.864   1.694   2.097 -0.1095  0.1438  0.1918
  141OSM    O1415318   0.939   1.501   1.944  0.5571 -0.1437 -0.2559
  141OSM    O1115319   1.015   1.520   2.182 -0.3712  0.6172  0.2090
  141OSM    O1215320   1.106   1.681   2.032  0.0789  0.1354 -0.2274
  141OSM    C1S15321   1.085   1.569   2.294  0.0469  0.8134  0.0231
  141OSM    H1S15322   1.116   1.674   2.278 -0.3921  1.1286  1.1017
  141OSM    H1T15323   1.177   1.510   2.314 -1.3284 -0.6453  2.7877
  141OSM     NF15324   1.071   1.622   2.540  1.1947 -0.0541  0.0287
  141OSM    HNF15325   1.077   1.566   2.622  0.8384  0.1454  0.1923
  141OSM    C2S15326   0.993   1.581   2.422  0.2085  0.2355  0.3099
  141OSM    H2S15327   0.909   1.654   2.421 -1.1384 -1.1493  2.9427
  141OSM    C3S15328   0.913   1.446   2.454  0.0057  0.4413 -0.4932
  141OSM    H3S15329   0.992   1.373   2.482  0.4611  0.2149 -2.2925
  141OSM     O315330   0.859   1.391   2.339 -0.1067 -0.0456 -0.1740
  141OSM    HO315331   0.921   1.403   2.266 -0.4332 -1.5453 -0.7260
  141OSM    C4S15332   0.809   1.461   2.562  0.5997 -0.4632 -0.5589
  141OSM    H4S15333   0.831   1.405   2.655  1.2556  0.6294 -0.0334
  141OSM    C5S15334   0.686   1.517   2.548  0.2649  0.1897 -0.1682
  141OSM    H5S15335   0.659   1.564   2.452  0.8320  1.8963  0.4840
  141OSM    C6S15336   0.582   1.529   2.663 -0.1642  0.4910  0.3053
  141OSM    H6S15337   0.496   1.463   2.639 -1.5268  1.6968  1.6836
  141OSM    H6T15338   0.539   1.631   2.657  0.3076  0.6421 -0.9148
  141OSM    C7S15339   0.630   1.502   2.806  0.0348  0.1506  0.2236
  141OSM    H7S15340   0.721   1.561   2.829  1.3438 -1.6273 -0.1695
  141OSM    H7T15341   0.658   1.399   2.835 -1.4774 -0.3641 -0.0626
  141OSM    C8S15342   0.525   1.564   2.899 -0.0221  0.1059  0.0048
  141OSM    H8S15343   0.433   1.503   2.893 -0.0758  0.2480 -0.6008
  141OSM    H8T15344   0.500   1.669   2.872  0.7316  0.4374  0.5294
  141OSM    C9S15345   0.560   1.532   3.043 -1.0500  0.5368 -0.0140
  141OSM    H9S15346   0.661   1.572   3.067  0.0507 -2.5659  1.1089
  141OSM    H9T15347   0.572   1.422   3.058  0.5861  0.9396  2.1470
  141OSM   C10S15348   0.459   1.561   3.160  0.1520 -1.4016 -0.1268
  141OSM   H10S15349   0.356   1.521   3.145 -0.5139 -0.7426  2.1775
  141OSM   H10T15350   0.439   1.669   3.178  0.6408 -1.5199  1.2589
  141OSM   C11S15351   0.510   1.497   3.293 -0.3947  0.2890  0.5880
  141OSM   H11S15352   0.615   1.532   3.307 -1.0229  2.3693  0.4106
  141OSM   H11T15353   0.510   1.386   3.303  1.7166  0.1810 -0.0901
  141OSM   C12S15354   0.446   1.556   3.421  0.0063 -0.3712  0.0246
  141OSM   H12S15355   0.340   1.529   3.439 -0.1139  0.9200  1.4494
  141OSM   H12T15356   0.447   1.664   3.393  1.1612 -0.6687 -1.2050
  141OSM   C13S15357   0.537   1.551   3.539 -0.2097 -0.4119 -0.0473
  141OSM   H13S15358   0.630   1.609   3.519 -1.1972  1.7056  1.1498
  141OSM   H13T15359   0.560   1.443   3.553 -0.2156 -0.3072  0.8232
  141OSM   C14S15360   0.462   1.597   3.666  1.1513 -0.2232 -0.6875
  141OSM   H14S15361   0.367   1.539   3.668 -0.5630  2.4031 -0.8998
  141OSM   H14T15362   0.448   1.707   3.655  0.3080  0.0314  2.1655
  141OSM   C15S15363   0.533   1.565   3.800  0.0833 -0.4380 -0.5407
  141OSM   H15S15364   0.629   1.618   3.818 -1.1115  1.7517 -0.2190
  141OSM   H15T15365   0.556   1.457   3.799  1.3478 -0.1734 -0.6426
  141OSM   C16S15366   0.456   1.604   3.931 -0.3056  0.0923 -0.1038
  141OSM   H16S15367   0.347   1.585   3.930 -0.5880  1.6118 -1.2191
  141OSM   H16T15368   0.466   1.711   3.958  1.2979 -0.3024  1.0611
  141OSM   C17S15369   0.512   1.530   4.052  0.3291 -0.2545  0.2911
  141OSM   H17S15370   0.620   1.546   4.035  0.4404 -1.3958 -0.1249
  141OSM   H17T15371   0.488   1.424   4.031 -0.0942  0.2865 -2.3574
  141OSM   C18S15372   0.468   1.590   4.182 -0.1399 -0.2748  0.5101
  141OSM   H18S15373   0.358   1.591   4.198 -0.5534  2.2916 -1.6528
  141OSM   H18T15374   0.495   1.698   4.190 -0.2315 -0.0766 -1.4580
  141OSM   H18U15375   0.501   1.533   4.271 -1.2536 -0.3243  0.9050
  141OSM    C1F15376   1.122   1.744   2.543 -0.4916  0.4031  0.1457
  141OSM     OF15377   1.120   1.824   2.446 -0.0799 -1.2299 -0.1966
  141OSM    C2F15378   1.189   1.789   2.678 -0.5745 -0.0773 -0.5678
  141OSM    H2F15379   1.298   1.763   2.678 -0.5198  0.0128 -2.1719
  141OSM    H2G15380   1.131   1.733   2.753 -0.8562  0.5261 -0.3305
  141OSM    C3F15381   1.178   1.943   2.706  0.0141  0.0915 -0.4767
  141OSM    H3F15382   1.071   1.974   2.703  0.0234  0.3354  1.0050
  141OSM    H3G15383   1.239   1.998   2.631 -1.1249 -1.2613 -2.4621
  141OSM    C4F15384   1.243   1.978   2.842 -0.1909 -0.8772  0.2883
  141OSM    H4F15385   1.303   2.070   2.824 -0.5338 -1.1716 -2.7970
  141OSM    H4G15386   1.317   1.899   2.867 -0.0893 -0.3601  1.7451
  141OSM    C5F15387   1.144   1.993   2.952 -0.0568  0.2507 -0.4036
  141OSM    H5F15388   1.092   1.896   2.965 -0.8309  0.3885 -2.1447
  141OSM    H5G15389   1.064   2.068   2.934 -0.0370  0.6177  0.9895
  141OSM    C6F15390   1.205   2.024   3.088 -0.4557 -0.7815  0.2349
  141OSM    H6F15391   1.228   2.132   3.092  1.5513 -1.1687  0.2303
  141OSM    H6G15392   1.295   1.963   3.112 -0.0422 -0.8541 -1.3978
  141OSM    C7F15393   1.100   2.001   3.193  0.9418 -1.1954 -0.1935
  141OSM    H7F15394   1.054   1.901   3.203 -0.0474 -0.7505 -0.1594
  141OSM    H7G15395   1.022   2.073   3.161 -0.1876 -1.6790  1.3462
  141OSM    C8F15396   1.133   2.057   3.335 -0.6801 -0.3688  0.4077
  141OSM    H8F15397   1.034   2.046   3.386 -1.6685  0.4182 -1.2613
  141OSM    H8G15398   1.140   2.167   3.330  0.5850 -0.3609  1.7773
  141OSM    C9F15399   1.255   1.988   3.393  0.4920 -0.7525  0.4008
  141OSM    H9F15400   1.295   1.898   3.345 -1.7491 -1.8879  0.5180
  141OSM   C10F15401   1.311   2.034   3.506  0.6723  0.3753  0.3688
  141OSM   H10F15402   1.401   1.979   3.537  2.1249  1.3521 -1.8391
  141OSM   C11F15403   1.277   2.159   3.591  0.6734 -0.1797 -0.7181
  141OSM   H11F15404   1.215   2.220   3.521  1.4686  0.3330 -0.9886
  141OSM   H11G15405   1.370   2.207   3.628  0.5350  0.3067 -0.9867
  141OSM   C12F15406   1.192   2.113   3.705  0.2529  0.0911 -0.2326
  141OSM   H12F15407   1.249   2.032   3.756  1.2059  0.2781 -0.9693
  141OSM   H12G15408   1.094   2.073   3.672  0.0845 -1.0356  1.4962
  141OSM   C13F15409   1.183   2.232   3.810  0.0477 -0.1543 -0.0249
  141OSM   H13F15410   1.110   2.304   3.769 -0.3082 -0.2343  0.4599
  141OSM   H13G15411   1.281   2.283   3.815 -0.8625  1.9505 -2.1167
  141OSM   C14F15412   1.161   2.158   3.943  0.3842 -0.3175 -0.4808
  141OSM   H14F15413   1.257   2.130   3.990 -1.2346 -2.7718  1.6523
  141OSM   H14G15414   1.094   2.069   3.938 -0.9590  0.5181  1.5711
  141OSM   C15F15415   1.092   2.247   4.053  0.2504  0.0881  0.2275
  141OSM   H15F15416   0.998   2.300   4.026  1.5868  3.5872  1.9339
  141OSM   H15G15417   1.159   2.332   4.075 -1.2963  1.4618 -0.2006
  141OSM   C16F15418   1.053   2.166   4.179  0.1102  0.3194 -0.0537
  141OSM   H16F15419   0.986   2.086   4.141  0.4517  1.1643 -2.6274
  141OSM   H16G15420   0.987   2.226   4.245 -0.9284  0.4275 -1.1612
  141OSM   C17F15421   1.173   2.113   4.264 -0.0734 -0.2906  0.6942
  141OSM   H17F15422   1.242   2.198   4.281 -1.2829  1.3904 -2.0304
  141OSM   H17G15423   1.233   2.037   4.208  0.1794  0.9195 -0.7615
  141OSM   C18F15424   1.132   2.053   4.401  1.0208  0.5331  0.8110
  141OSM   H18F15425   1.033   2.007   4.379  0.6135  1.3391  0.9010
  141OSM   H18G15426   1.126   2.134   4.477 -1.6358  0.1949  1.0470
  141OSM   H18H15427   1.210   1.982   4.434  2.8706  1.7098 -0.8071
  142OSM      N15428   4.035   4.029   2.310  0.2660 -0.7400  0.3833
  142OSM    C1515429   3.901   4.018   2.237  0.5111  0.5090 -0.2506
  142OSM   H15A15430   3.921   4.025   2.132  2.4667  1.5262  0.1522
  142OSM   H15B15431   3.823   4.091   2.249 -1.3328 -1.1368 -1.5553
  142OSM   H15C15432   3.864   3.920   2.263  0.7044  0.3926 -0.4195
  142OSM    C1415433   4.023   3.982   2.454  0.5510 -0.5353 -0.1863
  142OSM   H14A15434   3.989   3.879   2.451  1.7083 -0.9377 -0.0539
  142OSM   H14B15435   3.952   4.048   2.502 -0.4001 -0.6853 -1.3500
  142OSM   H14C15436   4.117   3.995   2.506  1.4373  0.6448 -1.9717
  142OSM    C1315437   4.128   3.939   2.245  0.2377  0.2754 -0.0949
  142OSM   H13A15438   4.127   3.934   2.138  0.2640 -2.6926 -0.0532
  142OSM   H13B15439   4.118   3.836   2.277  0.2792  0.2682 -0.1049
  142OSM   H13C15440   4.229   3.955   2.278  0.6924 -2.5182  0.1484
  142OSM    C1215441   4.088   4.169   2.300 -0.6095 -0.6889  0.9698
  142OSM   H12A15442   4.002   4.234   2.306 -1.0892 -0.8909 -2.1955
  142OSM   H12B15443   4.125   4.183   2.200 -2.5050 -0.0001  0.3150
  142OSM    C1115444   4.190   4.215   2.413  0.6289  0.8577  0.1199
  142OSM   H11A15445   4.138   4.211   2.511  0.6600 -0.8172  0.0897
  142OSM   H11B15446   4.218   4.322   2.396  0.9582  0.5774 -1.2331
  142OSM      P15447   4.430   4.191   2.504  0.2003 -0.4415  0.7370
  142OSM    O1315448   4.548   4.102   2.496 -0.2759 -0.5022 -0.1598
  142OSM    O1415449   4.460   4.324   2.460  0.4709 -0.3253 -0.0273
  142OSM    O1115450   4.366   4.202   2.654  0.7413  0.2579  0.7736
  142OSM    O1215451   4.307   4.134   2.414  0.2697 -0.1438 -0.1106
  142OSM    C1S15452   4.377   4.088   2.736 -0.7393 -0.4397  0.4692
  142OSM    H1S15453   4.484   4.057   2.726 -0.6868  0.2172 -1.3142
  142OSM    H1T15454   4.300   4.010   2.721 -0.5362 -0.4263 -0.7233
  142OSM     NF15455   4.368   4.014   2.971 -0.1876  0.9280 -0.3707
  142OSM    HNF15456   4.297   3.989   3.037 -0.1055 -0.1072 -0.6553
  142OSM    C2S15457   4.350   4.126   2.882  0.0193  0.3991  0.0018
  142OSM    H2S15458   4.429   4.201   2.902  0.7591  0.0254 -1.4380
  142OSM    C3S15459   4.214   4.203   2.900  0.5630 -0.2263 -0.1138
  142OSM    H3S15460   4.124   4.141   2.881 -0.0242  0.9428 -1.3602
  142OSM     O315461   4.187   4.316   2.823  0.4540  0.8930  0.7576
  142OSM    HO315462   4.252   4.301   2.753 -2.2279 -2.5043 -1.3329
  142OSM    C4S15463   4.201   4.255   3.043 -0.4240  0.2219  0.7863
  142OSM    H4S15464   4.132   4.200   3.108 -1.1341  0.2808  0.0987
  142OSM    C5S15465   4.271   4.356   3.096 -0.2948 -0.2956  0.8055
  142OSM    H5S15466   4.338   4.409   3.027  1.0158 -1.4511  1.1592
  142OSM    C6S15467   4.264   4.407   3.238  0.4015  0.0844 -0.2473
  142OSM    H6S15468   4.186   4.352   3.296  1.1199  2.1482  2.9881
  142OSM    H6T15469   4.250   4.517   3.237  0.7582  0.1286 -0.7123
  142OSM    C7S15470   4.393   4.387   3.324  0.0015  0.1279  0.5592
  142OSM    H7S15471   4.481   4.427   3.269  1.0527 -1.6680  0.8534
  142OSM    H7T15472   4.419   4.281   3.343  0.3785 -0.1146 -1.0875
  142OSM    C8S15473   4.384   4.452   3.455 -0.0980 -0.4582  0.4844
  142OSM    H8S15474   4.366   4.560   3.436  1.8076 -0.3821 -1.2143
  142OSM    H8T15475   4.481   4.440   3.508  0.5087 -1.1361 -0.7364
  142OSM    C9S15476   4.271   4.401   3.545 -0.5269 -0.1193 -0.2944
  142OSM    H9S15477   4.286   4.292   3.537  2.4239  0.1773  0.2383
  142OSM    H9T15478   4.168   4.411   3.504 -0.3865 -2.2319 -1.2614
  142OSM   C10S15479   4.277   4.467   3.681  0.2157  0.2136 -0.2877
  142OSM   H10S15480   4.236   4.568   3.663  0.4167  0.9487  2.8575
  142OSM   H10T15481   4.374   4.478   3.734 -0.6589  2.1003  1.0023
  142OSM   C11S15482   4.173   4.397   3.773 -0.1345 -0.7431 -0.5071
  142OSM   H11S15483   4.214   4.303   3.816 -0.0183 -0.9822 -1.1367
  142OSM   H11T15484   4.080   4.371   3.718  1.1292 -2.3086 -1.9971
  142OSM   C12S15485   4.130   4.496   3.886 -0.1516  0.5976 -0.1987
  142OSM   H12S15486   4.048   4.452   3.947 -0.4021 -1.3319 -1.8172
  142OSM   H12T15487   4.093   4.593   3.847  2.4888  1.4799 -0.7376
  142OSM   C13S15488   4.244   4.528   3.986  0.3136  0.1452 -0.4513
  142OSM   H13S15489   4.192   4.572   4.074 -0.4324 -1.3327 -0.1238
  142OSM   H13T15490   4.310   4.603   3.937 -1.1238  1.1762 -0.8793
  142OSM   C14S15491   4.335   4.424   4.035 -0.0606  1.0834  0.3655
  142OSM   H14S15492   4.372   4.362   3.951 -1.8135  1.3780 -0.6780
  142OSM   H14T15493   4.284   4.341   4.089 -0.5873  0.3178 -1.2231
  142OSM   C15S15494   4.455   4.479   4.116  0.4910  0.3218  0.5992
  142OSM   H15S15495   4.528   4.518   4.042  0.3459 -1.3693 -0.4935
  142OSM   H15T15496   4.506   4.397   4.171  2.5203  1.3456  0.3437
  142OSM   C16S15497   4.426   4.581   4.227 -0.1846 -0.1121  0.1432
  142OSM   H16S15498   4.348   4.549   4.299  0.4592 -2.2207 -0.0412
  142OSM   H16T15499   4.377   4.664   4.172 -0.2377 -1.2207 -1.5423
  142OSM   C17S15500   4.549   4.630   4.292 -0.4577  0.5380  0.2014
  142OSM   H17S15501   4.616   4.551   4.331 -1.6253  1.0823  3.6125
  142OSM   H17T15502   4.529   4.680   4.389  2.1210  0.8745  0.6057
  142OSM   C18S15503   4.618   4.739   4.216 -0.6887  0.0510  0.1848
  142OSM   H18S15504   4.717   4.757   4.262 -1.3647  1.7329  1.1095
  142OSM   H18T15505   4.564   4.836   4.224 -1.9103 -0.6811  1.3451
  142OSM   H18U15506   4.626   4.710   4.110 -1.4932  1.4137 -0.2826
  142OSM    C1F15507   4.480   3.942   2.980 -0.3885 -0.1149  0.0842
  142OSM     OF15508   4.577   3.972   2.913 -0.3157  0.2687  0.6188
  142OSM    C2F15509   4.492   3.827   3.066 -0.3269  0.0377 -0.4639
  142OSM    H2F15510   4.556   3.748   3.020 -2.0641 -1.2509 -0.8075
  142OSM    H2G15511   4.398   3.770   3.083  0.4590 -1.0272  0.5251
  142OSM    C3F15512   4.559   3.865   3.196  0.0459  0.4183 -0.1772
  142OSM    H3F15513   4.516   3.950   3.252 -1.5949 -0.2082 -0.4338
  142OSM    H3G15514   4.665   3.894   3.181 -0.2802  0.6681 -2.1965
  142OSM    C4F15515   4.571   3.745   3.294 -0.3581 -0.2461  0.7495
  142OSM    H4F15516   4.656   3.683   3.256 -1.4570 -0.1222 -2.1357
  142OSM    H4G15517   4.477   3.686   3.295  0.2159 -1.1863  2.1881
  142OSM    C5F15518   4.602   3.787   3.438  0.3643  0.7260  0.0526
  142OSM    H5F15519   4.608   3.701   3.507 -1.3107  2.0645  1.9745
  142OSM    H5G15520   4.514   3.852   3.460 -3.9968 -3.9073 -1.7349
  142OSM    C6F15521   4.727   3.866   3.450  0.0018 -0.4954 -0.3916
  142OSM    H6F15522   4.720   3.934   3.537  1.2547  0.1608 -0.7775
  142OSM    H6G15523   4.735   3.937   3.364 -1.8796 -0.4585 -0.5642
  142OSM    C7F15524   4.857   3.774   3.471  0.1817 -0.0826 -0.3529
  142OSM    H7F15525   4.854   3.714   3.378 -2.9161  0.7305 -0.8721
  142OSM    H7G15526   4.834   3.713   3.562 -0.4392  1.4491  0.5669
  142OSM    C8F15527   4.986   3.848   3.503 -0.8030 -0.3944  0.1748
  142OSM    H8F15528   4.987   3.937   3.436 -0.1748 -0.5757 -0.0626
  142OSM    H8G15529   5.078   3.788   3.488 -1.1703 -0.7635 -0.6849
  142OSM    C9F15530   4.985   3.905   3.640 -0.2153  0.4272  0.1319
  142OSM    H9F15531   4.948   4.008   3.639  1.2886  0.9791 -0.2514
  142OSM   C10F15532   5.027   3.840   3.755  0.0036 -0.0632  0.4976
  142OSM   H10F15533   5.019   3.893   3.851 -0.7375 -0.7406  0.8249
  142OSM   C11F15534   5.073   3.697   3.767 -0.0750  0.6944  0.0069
  142OSM   H11F15535   5.181   3.696   3.740 -0.4788  0.8552 -1.6905
  142OSM   H11G15536   5.025   3.639   3.686  0.2814 -0.3702  0.5276
  142OSM   C12F15537   5.037   3.621   3.897 -0.0396 -0.3507 -0.0552
  142OSM   H12F15538   5.063   3.514   3.885  0.4239 -0.0391 -2.2075
  142OSM   H12G15539   4.927   3.624   3.916  0.2509  1.2363  1.8426
  142OSM   C13F15540   5.113   3.683   4.018 -0.0930 -0.3079 -0.2504
  142OSM   H13F15541   5.076   3.788   4.025 -0.0035 -0.1623 -1.6326
  142OSM   H13G15542   5.219   3.677   3.986  0.2685  0.4114  0.7744
  142OSM   C14F15543   5.098   3.616   4.151 -0.5404 -0.0711  0.3771
  142OSM   H14F15544   5.108   3.507   4.134 -0.4387  0.1366 -1.0516
  142OSM   H14G15545   4.990   3.636   4.167 -0.6529  1.3531 -1.7468
  142OSM   C15F15546   5.201   3.669   4.255 -0.3741 -0.1213 -0.7670
  142OSM   H15F15547   5.302   3.640   4.221  0.1603 -1.6248  1.8468
  142OSM   H15G15548   5.192   3.621   4.355 -0.9654  0.6176 -0.4487
  142OSM   C16F15549   5.201   3.816   4.263  0.6920 -0.2901  0.3362
  142OSM   H16F15550   5.094   3.848   4.260  0.5348 -0.7213  1.0781
  142OSM   H16G15551   5.264   3.870   4.188  1.3043  1.1492  1.8293
  142OSM   C17F15552   5.248   3.880   4.397  0.2714  1.0101  0.0989
  142OSM   H17F15553   5.179   3.854   4.481  1.1394  0.9781  0.8185
  142OSM   H17G15554   5.253   3.991   4.396  1.9943  0.9591  0.0314
  142OSM   C18F15555   5.387   3.827   4.432 -0.2056  0.2272  0.3563
  142OSM   H18F15556   5.466   3.888   4.384  0.6112 -1.7659 -0.9685
  142OSM   H18G15557   5.394   3.718   4.409 -0.9009  0.4245 -0.8392
  142OSM   H18H15558   5.409   3.845   4.540  0.1380  1.5296  0.0765
  143OSM      N15559   1.894   1.294   1.924  0.6385 -0.2987  0.4362
  143OSM    C1515560   1.863   1.172   1.843  0.2544 -0.1576  0.1407
  143OSM   H15A15561   1.913   1.185   1.748  1.0344  0.1173  0.5694
  143OSM   H15B15562   1.763   1.147   1.813  0.5612 -0.5322 -0.5805
  143OSM   H15C15563   1.898   1.082   1.891 -2.2223 -1.7819 -0.9408
  143OSM    C1415564   2.039   1.299   1.936 -0.3036 -0.0785  0.0821
  143OSM   H14A15565   2.080   1.373   2.003  3.1652 -1.8760  0.2240
  143OSM   H14B15566   2.084   1.315   1.839 -1.6104 -1.6602 -0.8355
  143OSM   H14C15567   2.081   1.204   1.968  3.0272  1.0849 -0.4092
  143OSM    C1315568   1.836   1.418   1.863 -0.1478 -0.1877 -0.1312
  143OSM   H13A15569   1.860   1.502   1.927 -0.9054  1.1547 -1.5454
  143OSM   H13B15570   1.728   1.409   1.864 -0.1396 -3.5823 -3.7978
  143OSM   H13C15571   1.874   1.440   1.765 -0.6278  3.4411  0.3662
  143OSM    C1215572   1.835   1.277   2.064  0.2976  0.3144 -0.3096
  143OSM   H12A15573   1.872   1.188   2.112  0.6582  0.8676  0.4530
  143OSM   H12B15574   1.727   1.266   2.064  0.2969  0.3193 -0.3994
  143OSM    C1115575   1.858   1.390   2.165  0.2850  0.1697 -0.1690
  143OSM   H11A15576   1.967   1.406   2.170  0.3807 -0.8972  1.7641
  143OSM   H11B15577   1.819   1.346   2.259  0.7230 -1.1575 -0.5898
  143OSM      P15578   1.782   1.630   2.214 -0.0692 -0.2156 -0.0893
  143OSM    O1315579   1.840   1.734   2.128 -0.2724 -0.0615  0.3625
  143OSM    O1415580   1.647   1.641   2.273  0.2961  0.3338  0.3085
  143OSM    O1115581   1.888   1.615   2.327  0.1138 -0.2472  0.3959
  143OSM    O1215582   1.784   1.507   2.123 -0.0453 -0.6258  0.2310
  143OSM    C1S15583   1.962   1.713   2.392 -1.1303 -0.6616 -0.7944
  143OSM    H1S15584   1.932   1.819   2.373 -0.7045  0.1056  2.3020
  143OSM    H1T15585   2.070   1.706   2.366 -0.9765 -2.6581  0.2547
  143OSM     NF15586   2.032   1.784   2.613  0.8171  0.4021  0.2060
  143OSM    HNF15587   2.130   1.779   2.631  0.6679  1.8393  1.6914
  143OSM    C2S15588   1.964   1.679   2.548 -0.8313  0.7497 -0.0557
  143OSM    H2S15589   1.864   1.672   2.596  0.1634  0.0008  2.0649
  143OSM    C3S15590   2.043   1.542   2.573 -0.0204 -0.2933 -0.4415
  143OSM    H3S15591   2.135   1.555   2.512 -0.1967 -1.8421 -1.0878
  143OSM     O315592   1.973   1.436   2.507 -0.3460  0.0062 -0.0282
  143OSM    HO315593   1.921   1.486   2.443  2.8989  0.4893 -2.5136
  143OSM    C4S15594   2.078   1.514   2.722 -0.2021  0.5345 -0.4937
  143OSM    H4S15595   2.175   1.540   2.766  0.0598 -4.8461  3.0682
  143OSM    C5S15596   1.994   1.459   2.807  0.4770  0.0607 -1.0235
  143OSM    H5S15597   1.891   1.426   2.789  0.2836  0.7769 -1.2633
  143OSM    C6S15598   2.032   1.456   2.952 -0.1447 -0.9107  0.7363
  143OSM    H6S15599   2.107   1.375   2.969  1.7518  0.9706  1.7300
  143OSM    H6T15600   1.943   1.434   3.015  0.5330 -2.2412  1.2694
  143OSM    C7S15601   2.092   1.586   3.008  0.3219  0.2923  0.7979
  143OSM    H7S15602   2.025   1.669   2.976  0.7596  1.0191  1.7039
  143OSM    H7T15603   2.192   1.606   2.964 -0.5234  1.6833 -0.5802
  143OSM    C8S15604   2.108   1.585   3.158  0.1217  0.0113  0.5709
  143OSM    H8S15605   2.021   1.537   3.207 -1.0717  0.7095 -0.7934
  143OSM    H8T15606   2.132   1.689   3.187  1.0918 -0.4598  1.5483
  143OSM    C9S15607   2.220   1.496   3.203 -1.0518  0.4585  0.0900
  143OSM    H9S15608   2.315   1.532   3.159 -0.4968 -0.9810  0.0447
  143OSM    H9T15609   2.207   1.397   3.153 -1.3016  0.6268 -0.1806
  143OSM   C10S15610   2.221   1.471   3.359  0.0899  0.3710 -0.0599
  143OSM   H10S15611   2.282   1.382   3.385 -0.1832  0.1178 -0.2755
  143OSM   H10T15612   2.116   1.463   3.394  0.7700  0.4255  2.1544
  143OSM   C11S15613   2.265   1.591   3.444  0.0653  0.3506 -0.0237
  143OSM   H11S15614   2.191   1.671   3.422 -1.0102 -1.2864 -2.8777
  143OSM   H11T15615   2.362   1.636   3.414 -0.7242  1.6679 -0.6906
  143OSM   C12S15616   2.275   1.558   3.595 -0.7641 -0.4142  0.0817
  143OSM   H12S15617   2.329   1.461   3.603 -0.1032 -0.1243 -0.7834
  143OSM   H12T15618   2.173   1.546   3.639 -0.3239  2.0532  1.9836
  143OSM   C13S15619   2.345   1.678   3.669 -0.3733  0.7867  0.2575
  143OSM   H13S15620   2.301   1.775   3.639  0.0158  0.3598 -1.8268
  143OSM   H13T15621   2.452   1.688   3.642 -0.8773  1.3258 -1.7211
  143OSM   C14S15622   2.330   1.648   3.817 -0.3020 -0.3241  0.5218
  143OSM   H14S15623   2.292   1.544   3.828  1.7641 -0.9594  2.2040
  143OSM   H14T15624   2.257   1.712   3.872  0.2281 -0.2788  1.1724
  143OSM   C15S15625   2.460   1.653   3.891  0.0559 -0.0409  0.2666
  143OSM   H15S15626   2.489   1.760   3.898  0.9360 -0.2601 -0.0107
  143OSM   H15T15627   2.537   1.595   3.837  0.3594 -0.3153  0.9793
  143OSM   C16S15628   2.451   1.596   4.035  0.8152  0.1207 -0.2357
  143OSM   H16S15629   2.482   1.490   4.047  0.7183 -0.0723 -1.4890
  143OSM   H16T15630   2.344   1.603   4.064  0.3572  0.9327 -1.9869
  143OSM   C17S15631   2.547   1.679   4.129  0.2572  0.3886 -0.5899
  143OSM   H17S15632   2.511   1.783   4.118 -0.1105  0.4566  0.9831
  143OSM   H17T15633   2.652   1.675   4.092  0.3835  1.5062 -0.4040
  143OSM   C18S15634   2.534   1.634   4.276 -0.3503 -0.6255  0.4856
  143OSM   H18S15635   2.432   1.602   4.306 -1.0960  0.4626 -0.7730
  143OSM   H18T15636   2.562   1.715   4.347  1.1643 -1.0492  0.4196
  143OSM   H18U15637   2.585   1.537   4.297 -0.2228 -0.2560  2.0517
  143OSM    C1F15638   1.981   1.910   2.634 -0.5677  0.1805  0.4750
  143OSM     OF15639   1.884   1.946   2.572  0.2301 -0.0077  0.4609
  143OSM    C2F15640   2.051   2.009   2.722 -0.6468 -0.2615 -0.2659
  143OSM    H2F15641   2.017   2.110   2.692 -0.2494  0.0342  0.2702
  143OSM    H2G15642   2.161   1.999   2.711 -0.5038 -0.1373  0.9435
  143OSM    C3F15643   2.001   1.992   2.863 -0.2849 -0.3057  0.0014
  143OSM    H3F15644   2.003   1.882   2.878 -1.8159 -0.5587 -1.3439
  143OSM    H3G15645   1.898   2.020   2.893 -0.5246 -2.5549  1.5128
  143OSM    C4F15646   2.105   2.055   2.956  0.3980 -0.1109  0.1150
  143OSM    H4F15647   2.097   2.164   2.937  1.7860 -0.0858 -0.4623
  143OSM    H4G15648   2.208   2.028   2.924  0.7140  1.2497 -0.0670
  143OSM    C5F15649   2.091   2.005   3.102  0.5472  0.4965 -0.0532
  143OSM    H5F15650   2.096   1.894   3.103  2.3460  0.5478  0.6221
  143OSM    H5G15651   1.992   2.037   3.142  1.3852  1.3632  1.4175
  143OSM    C6F15652   2.208   2.046   3.185 -0.0552  0.0567 -0.2174
  143OSM    H6F15653   2.193   2.151   3.217 -1.9118  0.5427 -2.4436
  143OSM    H6G15654   2.296   2.030   3.119 -2.0880  0.2533 -3.1464
  143OSM    C7F15655   2.215   1.964   3.318  0.4554 -0.3704  0.0241
  143OSM    H7F15656   2.251   1.861   3.293  4.0792  0.8109 -0.2151
  143OSM    H7G15657   2.113   1.952   3.361 -0.1764 -1.8376 -1.7284
  143OSM    C8F15658   2.320   2.020   3.418  0.5790  0.5010  0.0936
  143OSM    H8F15659   2.419   2.037   3.371  1.0417 -0.8172  0.5636
  143OSM    H8G15660   2.338   1.938   3.491  2.2405  0.7513 -0.0152
  143OSM    C9F15661   2.269   2.145   3.482 -0.2991 -0.4618 -0.0057
  143OSM    H9F15662   2.181   2.193   3.435 -1.0460  2.3297  3.7442
  143OSM   C10F15663   2.333   2.213   3.578 -0.2831  1.3782 -0.9288
  143OSM   H10F15664   2.291   2.308   3.614 -0.8727  0.4179  1.0491
  143OSM   C11F15665   2.455   2.158   3.659  0.9759 -0.3518 -0.0853
  143OSM   H11F15666   2.547   2.208   3.623  1.1269  0.5591  1.4821
  143OSM   H11G15667   2.468   2.048   3.665  0.8536 -0.3603  0.0230
  143OSM   C12F15668   2.453   2.209   3.805  0.5345 -0.5590  0.2061
  143OSM   H12F15669   2.461   2.320   3.796 -0.9281 -0.6145 -3.7454
  143OSM   H12G15670   2.542   2.168   3.857 -1.1770 -4.5391  0.2903
  143OSM   C13F15671   2.330   2.172   3.894  0.3167  0.8022  0.0685
  143OSM   H13F15672   2.327   2.061   3.899 -0.2232  0.5676 -3.1477
  143OSM   H13G15673   2.241   2.211   3.840 -0.1184  1.1253  0.9855
  143OSM   C14F15674   2.320   2.239   4.035  0.1494 -0.1765  1.1458
  143OSM   H14F15675   2.416   2.295   4.040  1.1687 -1.8358  0.9625
  143OSM   H14G15676   2.329   2.170   4.121  0.1878 -0.6795  0.7442
  143OSM   C15F15677   2.201   2.331   4.047 -0.3242  0.2142 -0.3851
  143OSM   H15F15678   2.109   2.273   4.073  0.3564 -0.2218  1.1265
  143OSM   H15G15679   2.190   2.388   3.952  1.1902  0.0301 -0.6876
  143OSM   C16F15680   2.213   2.431   4.167  0.4617  0.2787  0.0937
  143OSM   H16F15681   2.253   2.522   4.117 -0.7340  0.6457 -0.2457
  143OSM   H16G15682   2.284   2.394   4.243  1.1547  2.3823  0.5307
  143OSM   C17F15683   2.074   2.474   4.216  0.2203 -0.6683 -0.2266
  143OSM   H17F15684   2.017   2.391   4.264  1.0046 -0.9267  0.2838
  143OSM   H17G15685   2.014   2.512   4.130  1.3168  0.4188 -0.5332
  143OSM   C18F15686   2.085   2.590   4.313 -0.1675  1.1081  0.3655
  143OSM   H18F15687   1.985   2.615   4.352 -1.1063  0.2323 -1.3730
  143OSM   H18G15688   2.130   2.675   4.258  0.2660  2.7126  3.0229
  143OSM   H18H15689   2.149   2.572   4.402  0.4353 -0.1743 -0.2907
  144OSM      N15690   4.015   3.252   2.240  0.5983  0.1890  0.2244
  144OSM    C1515691   4.163   3.236   2.227 -0.9232  0.0519  0.3493
  144OSM   H15A15692   4.222   3.316   2.186  3.1830 -2.0552  1.6095
  144OSM   H15B15693   4.178   3.140   2.178 -2.8387  0.0434 -0.3088
  144OSM   H15C15694   4.201   3.216   2.326 -0.7767 -1.5060  0.0150
  144OSM    C1415695   3.989   3.361   2.339 -0.2017 -0.6472  0.3522
  144OSM   H14A15696   3.883   3.381   2.347 -0.2818 -0.0920 -1.7014
  144OSM   H14B15697   4.031   3.455   2.306  1.0801 -0.4349  2.3955
  144OSM   H14C15698   4.031   3.334   2.435  1.4525 -0.3209 -0.2514
  144OSM    C1315699   3.965   3.314   2.111 -0.0209 -0.1123 -0.0762
  144OSM   H13A15700   3.995   3.417   2.098  1.4911 -0.3867  0.8911
  144OSM   H13B15701   3.863   3.300   2.081  0.6271 -2.1696 -1.5622
  144OSM   H13C15702   4.016   3.266   2.028 -0.1108 -0.3183 -0.0137
  144OSM    C1215703   3.940   3.123   2.263  0.3245  0.5262 -0.6742
  144OSM   H12A15704   3.836   3.149   2.272  0.5339  0.7156  1.6002
  144OSM   H12B15705   3.958   3.083   2.361  1.3973 -0.0437 -1.0834
  144OSM    C1115706   3.949   3.004   2.161 -0.2297  1.1275 -0.2680
  144OSM   H11A15707   3.907   3.018   2.059  1.7152 -0.9242 -1.4422
  144OSM   H11B15708   3.890   2.914   2.190  2.0580 -1.0857 -1.9884
  144OSM      P15709   4.156   2.864   2.249  0.5709  0.2907  0.4038
  144OSM    O1315710   4.116   2.726   2.216 -0.0726  0.1897 -0.2659
  144OSM    O1415711   4.299   2.889   2.249  0.4211 -0.1149  0.5134
  144OSM    O1115712   4.092   2.902   2.390 -0.0406  0.4201  0.3232
  144OSM    O1215713   4.086   2.961   2.149  0.3902  0.7651 -0.5784
  144OSM    C1S15714   3.981   2.837   2.447  0.9844  0.0559 -0.3633
  144OSM    H1S15715   3.953   2.740   2.401  1.6157  1.3291 -3.7675
  144OSM    H1T15716   3.891   2.901   2.440  1.9857  1.5191 -0.2718
  144OSM     NF15717   3.907   2.751   2.670  0.0520 -0.0917  0.9011
  144OSM    HNF15718   3.861   2.804   2.741  0.6130  0.0101  1.1932
  144OSM    C2S15719   4.012   2.815   2.603 -0.5630  0.3758 -0.1639
  144OSM    H2S15720   4.101   2.749   2.611 -0.1013  1.1066  0.9713
  144OSM    C3S15721   4.049   2.955   2.665 -0.0694  0.1703 -0.1234
  144OSM    H3S15722   3.952   3.008   2.662 -0.7770 -1.1381 -0.8490
  144OSM     O315723   4.140   3.040   2.598  0.1525  0.1803  0.3581
  144OSM    HO315724   4.120   3.014   2.508  1.3357  2.5342 -0.6389
  144OSM    C4S15725   4.073   2.947   2.807 -0.3031 -0.2316 -0.3672
  144OSM    H4S15726   3.989   2.948   2.877  1.2722 -1.0158  1.6351
  144OSM    C5S15727   4.188   2.939   2.870  0.6673 -0.3323  0.1702
  144OSM    H5S15728   4.282   2.945   2.812 -0.2087  0.1885 -1.2696
  144OSM    C6S15729   4.212   2.919   3.019 -0.3276 -0.6899 -0.2719
  144OSM    H6S15730   4.210   2.812   3.046  0.6400 -0.8434 -0.7464
  144OSM    H6T15731   4.134   2.970   3.079  2.3522  2.3750  0.9513
  144OSM    C7S15732   4.351   2.965   3.070 -0.9276  0.3049 -0.7615
  144OSM    H7S15733   4.364   3.076   3.062 -1.5369  0.5183  0.8085
  144OSM    H7T15734   4.431   2.929   3.002  1.9116  2.0625  1.4132
  144OSM    C8S15735   4.364   2.939   3.223  0.1143  0.1190 -0.3255
  144OSM    H8S15736   4.306   2.848   3.251  0.2795  0.2015  0.3008
  144OSM    H8T15737   4.311   3.023   3.272  0.1029  0.9552 -1.7391
  144OSM    C9S15738   4.505   2.938   3.268 -0.2654  0.3961 -0.4527
  144OSM    H9S15739   4.540   3.043   3.278  2.6080 -0.6151  1.1464
  144OSM    H9T15740   4.571   2.899   3.188  2.4756 -1.3656  2.4588
  144OSM   C10S15741   4.527   2.861   3.403 -0.7426 -0.0141  0.6062
  144OSM   H10S15742   4.632   2.825   3.413 -1.1187 -1.2315  0.3095
  144OSM   H10T15743   4.458   2.774   3.401 -1.2540  0.3896  0.3829
  144OSM   C11S15744   4.496   2.953   3.522 -0.1409 -0.0678 -0.0639
  144OSM   H11S15745   4.398   3.001   3.501  0.1523  0.9172  0.7697
  144OSM   H11T15746   4.570   3.035   3.516 -1.2617  1.1417  1.6287
  144OSM   C12S15747   4.506   2.882   3.657 -0.1270  0.1468 -0.4528
  144OSM   H12S15748   4.611   2.855   3.681 -0.7443 -1.5323  0.5472
  144OSM   H12T15749   4.444   2.791   3.645 -0.4962  0.0704  1.6281
  144OSM   C13S15750   4.453   2.967   3.777  0.5596 -0.4749  0.0255
  144OSM   H13S15751   4.346   2.988   3.755 -0.4125 -4.1595  0.5287
  144OSM   H13T15752   4.513   3.060   3.790  0.4566 -0.3658 -0.2819
  144OSM   C14S15753   4.452   2.890   3.910  0.3184  0.6546  0.7476
  144OSM   H14S15754   4.548   2.845   3.942 -0.0093  0.2634  1.2075
  144OSM   H14T15755   4.386   2.804   3.885 -0.3260  1.3232  0.0972
  144OSM   C15S15756   4.397   2.958   4.037 -0.0950 -0.3471  0.2283
  144OSM   H15S15757   4.392   2.880   4.116  0.9637  0.2738  0.9498
  144OSM   H15T15758   4.293   2.990   4.015  0.5130  0.8360 -1.0653
  144OSM   C16S15759   4.478   3.087   4.076  0.3091 -0.6366 -0.3513
  144OSM   H16S15760   4.455   3.166   4.001  0.5972  0.8521  1.0663
  144OSM   H16T15761   4.587   3.070   4.087  0.4870  0.5269 -0.1516
  144OSM   C17S15762   4.439   3.136   4.228  0.0188 -0.0583  0.1829
  144OSM   H17S15763   4.497   3.230   4.237 -0.6205  0.1769  2.5609
  144OSM   H17T15764   4.486   3.064   4.298 -0.8476 -0.8038  0.0150
  144OSM   C18S15765   4.290   3.173   4.253  0.3965 -0.0070 -0.7959
  144OSM   H18S15766   4.252   3.267   4.208 -0.6542  0.3769  0.7746
  144OSM   H18T15767   4.257   3.205   4.355 -2.0142 -1.2051 -1.1351
  144OSM   H18U15768   4.219   3.088   4.246  0.3548 -0.5640  3.4896
  144OSM    C1F15769   3.862   2.629   2.639  0.0600  0.6518 -0.1343
  144OSM     OF15770   3.920   2.557   2.554  0.2211 -0.3146  0.5479
  144OSM    C2F15771   3.742   2.576   2.714  0.7333 -0.6279  0.4675
  144OSM    H2F15772   3.651   2.622   2.668  0.0920 -2.3695 -0.0931
  144OSM    H2G15773   3.740   2.602   2.822 -0.3941 -0.5860  0.4521
  144OSM    C3F15774   3.707   2.426   2.710 -0.2982 -0.5112 -0.2007
  144OSM    H3F15775   3.792   2.362   2.741  0.5706  0.1870 -1.0449
  144OSM    H3G15776   3.689   2.402   2.603 -1.1727  1.6149 -0.5916
  144OSM    C4F15777   3.579   2.386   2.796  1.0294  0.0906 -0.4761
  144OSM    H4F15778   3.493   2.394   2.727  0.4299 -1.2027  0.1090
  144OSM    H4G15779   3.570   2.455   2.883  0.9211 -0.2292 -0.2333
  144OSM    C5F15780   3.585   2.242   2.843  0.4455  0.0923 -0.9457
  144OSM    H5F15781   3.689   2.231   2.882  0.6781  0.7412 -1.3639
  144OSM    H5G15782   3.572   2.152   2.779  0.1410 -1.1832  0.8180
  144OSM    C6F15783   3.492   2.207   2.957 -0.0528  0.4488 -0.0773
  144OSM    H6F15784   3.387   2.208   2.921 -1.1161 -0.7971  2.7623
  144OSM    H6G15785   3.498   2.282   3.039  1.0899  0.4142 -0.1038
  144OSM    C7F15786   3.540   2.078   3.017 -0.0035  0.1102  0.5214
  144OSM    H7F15787   3.647   2.092   3.044  0.2392  1.5843 -1.0096
  144OSM    H7G15788   3.541   2.011   2.929 -0.2098  2.1118 -1.0740
  144OSM    C8F15789   3.444   2.025   3.127 -0.4316  0.6782  0.5187
  144OSM    H8F15790   3.473   1.922   3.158  0.4937  0.4215 -1.1169
  144OSM    H8G15791   3.352   1.996   3.073 -0.3240  1.0216  0.1486
  144OSM    C9F15792   3.412   2.119   3.238  0.0328 -0.3993 -0.5966
  144OSM    H9F15793   3.355   2.209   3.211  1.0102  0.3838 -0.1693
  144OSM   C10F15794   3.440   2.100   3.368  0.2057 -0.1231  0.4168
  144OSM   H10F15795   3.407   2.182   3.434 -2.1739 -0.4557 -0.2569
  144OSM   C11F15796   3.513   1.985   3.440 -0.4433 -0.0234 -0.5775
  144OSM   H11F15797   3.490   1.886   3.394 -1.1271 -0.4334  0.6088
  144OSM   H11G15798   3.468   1.971   3.541  0.5060  0.2650 -0.1092
  144OSM   C12F15799   3.667   2.019   3.441  0.1793 -0.3417 -0.0830
  144OSM   H12F15800   3.691   2.116   3.489  0.5300 -0.4374 -0.0627
  144OSM   H12G15801   3.706   2.028   3.338  2.1761  0.9231  0.7252
  144OSM   C13F15802   3.753   1.918   3.517  0.4293  0.3253  0.3161
  144OSM   H13F15803   3.858   1.930   3.483  0.2159 -1.7385 -1.2585
  144OSM   H13G15804   3.711   1.820   3.485  3.9125 -1.8930  1.9761
  144OSM   C14F15805   3.731   1.945   3.668 -0.2731 -0.4108 -0.2615
  144OSM   H14F15806   3.625   1.958   3.700  0.1315 -0.2643  1.1222
  144OSM   H14G15807   3.789   2.036   3.696 -0.7176  0.1029 -0.9811
  144OSM   C15F15808   3.809   1.844   3.757  0.1188  0.4519 -0.2574
  144OSM   H15F15809   3.919   1.850   3.752  0.3590 -1.8437  1.1251
  144OSM   H15G15810   3.774   1.744   3.723  3.9232 -0.5666 -1.6519
  144OSM   C16F15811   3.772   1.859   3.905  0.3973  0.7108  0.1259
  144OSM   H16F15812   3.673   1.906   3.918 -0.3952 -0.7005 -0.5997
  144OSM   H16G15813   3.847   1.927   3.951  3.1088 -0.4493 -2.2401
  144OSM   C17F15814   3.779   1.728   3.982  0.0147  0.5411 -0.7220
  144OSM   H17F15815   3.713   1.652   3.933  0.9553 -0.0354 -1.1251
  144OSM   H17G15816   3.765   1.734   4.092 -0.4812 -0.0807 -0.7430
  144OSM   C18F15817   3.924   1.675   3.966 -0.4857 -0.3878 -0.0981
  144OSM   H18F15818   3.931   1.569   3.996  4.5993 -1.0735 -2.6106
  144OSM   H18G15819   3.992   1.745   4.019  1.7370 -2.2867 -0.3146
  144OSM   H18H15820   3.966   1.672   3.863 -0.4039  1.3813 -0.1564
  145SAPE     N15821   2.726   5.291   6.835  0.2364 -0.0070  0.2847
  145SAPE   HN115822   2.727   5.260   6.735 -0.1255 -0.8022  0.5166
  145SAPE   HN215823   2.634   5.246   6.852 -1.2965  2.2211 -1.5132
  145SAPE   HN315824   2.712   5.393   6.847  0.2094  0.0636 -0.2916
  145SAPE   C1215825   2.834   5.236   6.916 -0.2957  0.1964 -0.5932
  145SAPE  H12A15826   2.838   5.125   6.906 -0.9006  0.2779 -1.9314
  145SAPE  H12B15827   2.809   5.268   7.020  1.3624 -1.1495  0.2842
  145SAPE   C1115828   2.972   5.292   6.870 -0.1161 -0.0115 -0.3304
  145SAPE  H11A15829   2.977   5.273   6.761  1.1199 -0.4500 -0.2039
  145SAPE  H11B15830   3.050   5.235   6.926 -1.4130  0.8165  2.5324
  145SAPE     P15831   3.132   5.491   6.900 -0.2519 -0.3046 -0.0747
  145SAPE   O1315832   3.123   5.637   6.877  0.2972  0.1011  0.0915
  145SAPE   O1415833   3.210   5.439   7.014 -0.1357  0.7832  0.5935
  145SAPE   O1215834   2.990   5.429   6.900 -0.4438  0.5956 -0.4650
  145SAPE   O1115835   3.197   5.438   6.765 -0.0001 -0.0645  0.1113
  145SAPE    C115836   3.136   5.471   6.635  0.6844 -0.5823  0.1951
  145SAPE    HA15837   3.038   5.420   6.621 -0.6249  1.1633  2.2528
  145SAPE    HB15838   3.135   5.582   6.622  0.8788 -0.4962  0.8665
  145SAPE    C215839   3.231   5.428   6.523 -0.5065 -0.5271 -0.3467
  145SAPE    HS15840   3.263   5.323   6.543 -0.1814 -0.2874  0.4491
  145SAPE   O2115841   3.341   5.530   6.526 -0.2789  0.6375  0.3887
  145SAPE   C2115842   3.467   5.502   6.559 -0.4384 -0.6111  0.2351
  145SAPE   O2215843   3.499   5.399   6.615 -0.0374 -0.3997  0.0100
  145SAPE   C2215844   3.558   5.612   6.526 -0.1020  0.0564 -0.2229
  145SAPE   H2R15845   3.505   5.704   6.492 -0.1703  0.1672  0.1813
  145SAPE   H2S15846   3.598   5.641   6.625 -0.3504  0.3256 -0.1981
  145SAPE    C315847   3.169   5.430   6.385  0.2384  0.1080  0.7173
  145SAPE    HX15848   3.096   5.346   6.375 -0.1810 -0.0410  4.0098
  145SAPE    HY15849   3.241   5.405   6.304  0.2872  2.3974 -0.0192
  145SAPE   O3115850   3.099   5.554   6.350  0.2673  0.0596 -0.4524
  145SAPE   C3115851   2.970   5.558   6.365  0.0256  0.2666  1.3598
  145SAPE   O3215852   2.898   5.471   6.404  0.0330  0.1178 -0.2475
  145SAPE   C3215853   2.922   5.701   6.334  0.3096 -0.5034 -0.5168
  145SAPE   H2X15854   2.998   5.772   6.373 -0.7528  0.4747 -0.1895
  145SAPE   H2Y15855   2.836   5.723   6.401  2.6633  0.3111  2.4419
  145SAPE   C2315856   3.666   5.566   6.424  0.3037 -0.0656 -0.2581
  145SAPE   H3R15857   3.698   5.460   6.438  3.6703  0.7451 -0.9355
  145SAPE   H3S15858   3.757   5.627   6.438 -0.4723  1.6446 -2.1972
  145SAPE   C2415859   3.639   5.591   6.280  0.7635  0.2180 -0.1481
  145SAPE   H4R15860   3.739   5.586   6.231 -0.3860  1.0855 -2.8265
  145SAPE   H4S15861   3.595   5.691   6.257 -0.7039 -0.6610 -1.3803
  145SAPE   C2515862   3.544   5.488   6.221  0.4396  0.6248 -0.1154
  145SAPE   H5R15863   3.444   5.482   6.265 -0.0484 -2.5811 -1.3208
  145SAPE   C2615864   3.569   5.406   6.119  0.3769 -0.2701 -0.4634
  145SAPE   H6R15865   3.487   5.342   6.084  0.3133 -0.7767  0.5911
  145SAPE   C2715866   3.698   5.392   6.049  0.2893 -0.1189 -0.5016
  145SAPE   H7R15867   3.702   5.291   6.004 -1.9712 -1.7015  2.4755
  145SAPE   H7S15868   3.787   5.405   6.115 -0.6076  1.1050  0.5301
  145SAPE   C2815869   3.701   5.495   5.938  0.5688  0.5643  0.1444
  145SAPE   H8R15870   3.769   5.578   5.964  1.5896  0.0979 -0.9323
  145SAPE   C2915871   3.652   5.482   5.813  0.3353  0.6029  0.3140
  145SAPE   H9R15872   3.667   5.565   5.742  2.1462 -0.1987 -0.3111
  145SAPE  C21015873   3.558   5.369   5.772 -0.6668 -0.1185  0.1528
  145SAPE  H10R15874   3.574   5.276   5.831 -0.7437  0.0239  0.4014
  145SAPE  H10S15875   3.584   5.343   5.667 -2.7624  0.5011 -0.5694
  145SAPE  C21115876   3.413   5.423   5.788 -0.2868  0.3540 -0.3210
  145SAPE  H11R15877   3.383   5.434   5.893  0.5804  1.1124 -0.1477
  145SAPE  C21215878   3.316   5.443   5.686 -0.4842  0.2254 -0.5670
  145SAPE  H12R15879   3.214   5.476   5.708 -0.8913 -0.4213 -1.4427
  145SAPE  C21315880   3.343   5.406   5.540 -0.0580  0.1618 -0.0653
  145SAPE  H13R15881   3.378   5.301   5.528 -1.7420 -0.7352  2.2515
  145SAPE  H13S15882   3.427   5.473   5.508 -0.9570  2.1480  1.5179
  145SAPE  C21415883   3.225   5.411   5.448  0.3978 -0.0567 -0.0757
  145SAPE  H14R15884   3.132   5.452   5.489  0.4285  0.0153 -0.0788
  145SAPE  C21515885   3.227   5.392   5.315 -0.8422  0.2903  0.2984
  145SAPE  H15R15886   3.129   5.408   5.267 -0.1244  0.2263 -1.2499
  145SAPE  C21615887   3.333   5.321   5.236  0.0820 -0.4670 -0.7073
  145SAPE  H16R15888   3.416   5.291   5.304 -1.5562  0.1564  1.6670
  145SAPE  H16S15889   3.384   5.390   5.166 -1.1877 -1.4675 -2.7183
  145SAPE  C21715890   3.297   5.185   5.164  0.1770  0.0210 -0.1339
  145SAPE  H17R15891   3.225   5.221   5.087 -0.1378  0.4194  0.3397
  145SAPE  H17S15892   3.252   5.107   5.229  0.0045  0.5153  0.3524
  145SAPE  C21815893   3.425   5.126   5.099 -0.2006 -0.3612 -0.2031
  145SAPE  H18R15894   3.467   5.046   5.163  2.1752  0.1845 -0.9513
  145SAPE  H18S15895   3.510   5.197   5.084  1.0793 -1.5911  0.9810
  145SAPE  C21915896   3.392   5.052   4.971 -0.2257 -0.4484  0.1221
  145SAPE  H19R15897   3.368   5.135   4.902  1.7955 -0.4790 -0.6826
  145SAPE  H19S15898   3.300   4.992   4.990 -0.3751 -0.0812  0.5684
  145SAPE  C22015899   3.520   4.982   4.918  0.8492 -0.1520  0.9157
  145SAPE  H20R15900   3.500   4.908   4.837  0.3473  1.5497 -0.5875
  145SAPE  H20S15901   3.562   4.917   4.998  3.4212 -0.0874 -0.2561
  145SAPE  H20T15902   3.598   5.056   4.888  0.9624 -1.3703 -2.2334
  145SAPE   C3315903   2.900   5.722   6.193 -0.2802 -0.2348 -0.2481
  145SAPE   H3X15904   2.925   5.641   6.121 -0.9328  0.6546 -1.5126
  145SAPE   H3Y15905   2.950   5.814   6.158  1.1371 -0.7706  0.3096
  145SAPE   C3415906   2.746   5.734   6.166  0.1800 -0.3316 -0.1640
  145SAPE   H4X15907   2.692   5.805   6.232 -0.4353 -0.4644 -0.5105
  145SAPE   H4Y15908   2.684   5.644   6.188 -0.7560  0.5099  0.7726
  145SAPE   C3515909   2.719   5.767   6.019 -0.9999  0.3168  0.8074
  145SAPE   H5X15910   2.783   5.697   5.963 -2.4052 -0.0895 -0.3349
  145SAPE   H5Y15911   2.756   5.870   6.000  1.3466 -0.6332 -0.0564
  145SAPE   C3615912   2.572   5.742   5.974  0.4973  0.2441  0.0215
  145SAPE   H6X15913   2.508   5.802   6.042  0.1479 -1.6797  1.4950
  145SAPE   H6Y15914   2.547   5.635   5.995 -0.0117  0.3527 -0.0174
  145SAPE   C3715915   2.537   5.782   5.830  0.0238  0.2537  0.9151
  145SAPE   H7X15916   2.613   5.849   5.784  0.9349 -1.1295  0.3422
  145SAPE   H7Y15917   2.441   5.837   5.843 -0.2725 -0.5207  2.0910
  145SAPE   C3815918   2.523   5.667   5.725  0.0601 -0.9114  0.6423
  145SAPE   H8X15919   2.438   5.604   5.759 -0.5590  0.6181  2.0527
  145SAPE   H8Y15920   2.613   5.604   5.710 -0.4477 -1.5218  0.0856
  145SAPE   C3915921   2.478   5.725   5.589 -0.7335  0.0109 -0.0460
  145SAPE   H9X15922   2.389   5.788   5.614  0.2333  0.3581  3.0441
  145SAPE   H9Y15923   2.442   5.651   5.515 -0.5047 -0.2167  0.0712
  145SAPE  C31015924   2.592   5.804   5.527 -0.5352 -0.2235  0.2059
  145SAPE  H10X15925   2.682   5.741   5.514 -2.3893 -3.0400  0.2968
  145SAPE  H10Y15926   2.624   5.895   5.583 -0.4197  0.9263 -1.6323
  145SAPE  C31115927   2.536   5.854   5.390 -0.0765 -0.2234  0.1395
  145SAPE  H11X15928   2.447   5.917   5.412  0.3476  1.7105 -3.0971
  145SAPE  H11Y15929   2.510   5.763   5.331  1.4064 -1.4950  1.3332
  145SAPE  C31215930   2.649   5.926   5.310  0.3014 -0.3645 -0.4127
  145SAPE  H12X15931   2.726   5.849   5.289 -0.2680 -0.6483 -1.5103
  145SAPE  H12Y15932   2.689   6.002   5.381  0.1158 -0.0076 -0.6871
  145SAPE  C31315933   2.598   5.993   5.178  0.3583  0.4888 -0.1553
  145SAPE  H13X15934   2.510   6.056   5.203  0.8233  1.1960 -0.2769
  145SAPE  H13Y15935   2.564   5.906   5.117 -1.4566  0.2792  1.0940
  145SAPE  C31415936   2.705   6.090   5.125  0.0595  0.2332 -0.4805
  145SAPE  H14X15937   2.739   6.168   5.197 -0.2384  0.3457 -0.4611
  145SAPE  H14Y15938   2.657   6.142   5.039 -0.4042 -2.4276 -1.9236
  145SAPE  C31515939   2.830   6.018   5.074  0.2507  0.0347  0.1459
  145SAPE  H15X15940   2.793   5.928   5.019 -0.3384  1.1455 -1.3532
  145SAPE  H15Y15941   2.904   5.987   5.150  0.6193 -0.9095 -0.5741
  145SAPE  C31615942   2.901   6.102   4.971 -0.1197 -0.1173 -0.4059
  145SAPE  H16X15943   2.936   6.190   5.028 -0.3937 -2.0687  3.0478
  145SAPE  H16Y15944   2.827   6.136   4.896 -0.5289  0.6603  0.3366
  145SAPE  C31715945   3.025   6.031   4.901 -0.4602 -0.8755 -0.6754
  145SAPE  H17X15946   3.082   6.109   4.847 -2.0445  1.3219  0.6678
  145SAPE  H17Y15947   2.972   5.964   4.830 -1.5849  0.5702 -1.2506
  145SAPE  C31815948   3.112   5.965   5.013  0.8612  0.1177 -0.5425
  145SAPE  H18X15949   3.054   5.882   5.059  0.8512  0.4739  0.0897
  145SAPE  H18Y15950   3.136   6.045   5.086 -0.0469 -0.7673  0.7762
  145SAPE  H18Z15951   3.204   5.915   4.975  0.8271 -0.4294  0.0779
  146SAPE     N15952   1.086   0.169   6.593  0.4905  0.0457 -0.3212
  146SAPE   HN115953   1.075   0.271   6.608  1.0538 -0.1449  1.7470
  146SAPE   HN215954   1.170   0.151   6.533 -0.7389 -0.7191 -1.8741
  146SAPE   HN315955   1.011   0.135   6.529  0.9401 -1.2967 -0.1828
  146SAPE   C1215956   1.083   0.082   6.720  0.8600 -0.0610 -0.0547
  146SAPE  H12A15957   1.012   0.122   6.795  2.7373 -0.9038  2.2843
  146SAPE  H12B15958   1.179   0.098   6.773  1.7351 -1.5690 -1.1082
  146SAPE   C1115959   1.058  -0.064   6.688 -0.4108 -0.1379  0.1763
  146SAPE  H11A15960   1.044  -0.118   6.785 -1.2035 -1.9818 -0.9125
  146SAPE  H11B15961   1.148  -0.110   6.641 -0.3994 -0.1235  0.1840
  146SAPE     P15962   0.869  -0.212   6.602 -0.3393 -0.3637 -0.2405
  146SAPE   O1315963   0.818  -0.242   6.737  0.2399  0.3575  0.0274
  146SAPE   O1415964   0.760  -0.191   6.502 -0.2400  1.1561 -0.6248
  146SAPE   O1215965   0.939  -0.072   6.609 -0.7153  0.5403  0.3444
  146SAPE   O1115966   0.963  -0.322   6.554 -0.0425 -0.0227  0.2388
  146SAPE    C115967   1.045  -0.299   6.432 -0.0478  0.1947  0.1052
  146SAPE    HA15968   1.084  -0.195   6.429 -0.6349  0.6032  3.1721
  146SAPE    HB15969   1.139  -0.357   6.436  0.6868  1.3843  0.3970
  146SAPE    C215970   0.977  -0.338   6.295 -0.0172  0.7166 -0.8908
  146SAPE    HS15971   0.868  -0.353   6.303 -0.2117  0.3811 -3.4960
  146SAPE   O2115972   1.041  -0.463   6.254  0.2274  0.1184  0.2587
  146SAPE   C2115973   0.970  -0.578   6.267  0.4117 -0.2233  0.2990
  146SAPE   O2215974   0.864  -0.587   6.317  0.8270  0.0410  0.2563
  146SAPE   C2215975   1.061  -0.688   6.213  0.2297 -0.4025 -0.1446
  146SAPE   H2R15976   1.061  -0.700   6.103 -0.0813 -0.0812 -0.1814
  146SAPE   H2S15977   1.160  -0.666   6.259 -0.4886  0.9078  0.8284
  146SAPE    C315978   0.995  -0.235   6.185 -0.0489  0.8767 -0.0461
  146SAPE    HX15979   1.098  -0.193   6.181 -1.4245  4.9523  1.7741
  146SAPE    HY15980   0.924  -0.152   6.206 -1.6593  0.3700 -2.9531
  146SAPE   O3115981   0.965  -0.301   6.060  0.2998 -0.0048  0.0587
  146SAPE   C3115982   0.915  -0.225   5.964  0.0438  0.1829 -0.0292
  146SAPE   O3215983   0.901  -0.102   5.968 -0.0553  0.7182  0.2212
  146SAPE   C3215984   0.872  -0.316   5.853 -0.0252 -0.6804  0.1885
  146SAPE   H2X15985   0.786  -0.377   5.888  0.5626 -0.5387  1.9865
  146SAPE   H2Y15986   0.955  -0.387   5.829  1.5056  0.9924  0.3431
  146SAPE   C2315987   1.006  -0.833   6.250 -0.0694 -0.4707  0.4597
  146SAPE   H3R15988   0.898  -0.834   6.227 -0.8005  0.5275  3.4344
  146SAPE   H3S15989   1.022  -0.851   6.358  2.1078  1.8179  0.6126
  146SAPE   C2415990   1.094  -0.936   6.175 -0.0009  0.3463  0.7731
  146SAPE   H4R15991   1.201  -0.929   6.205  0.8043 -1.7983 -1.3037
  146SAPE   H4S15992   1.089  -0.916   6.066  0.6638 -2.4475  0.1476
  146SAPE   C2515993   1.044  -1.069   6.221  0.4718 -0.2847 -0.2499
  146SAPE   H5R15994   1.055  -1.081   6.330 -1.6010  0.8560  0.1284
  146SAPE   C2615995   0.972  -1.155   6.149 -0.5355 -0.3551  0.1843
  146SAPE   H6R15996   0.927  -1.244   6.196  0.1256 -2.2058 -2.4468
  146SAPE   C2715997   0.948  -1.158   6.000 -0.7317  0.1836  0.0842
  146SAPE   H7R15998   1.038  -1.146   5.936 -0.6952 -0.8373 -0.0757
  146SAPE   H7S15999   0.893  -1.064   5.979  2.3327  2.2832  0.7664
  146SAPE   C2816000   0.871  -1.283   5.957 -0.9638  0.9410 -0.0756
  146SAPE   H8R16001   0.880  -1.366   6.029 -0.2489 -0.3636 -1.5980
  146SAPE   C2916002   0.815  -1.307   5.837 -0.5379  0.5457 -0.1253
  146SAPE   H9R16003   0.753  -1.397   5.825  2.8794 -1.8341 -1.1943
  146SAPE  C21016004   0.826  -1.211   5.723  0.3531 -0.8931 -0.6652
  146SAPE  H10R16005   0.909  -1.238   5.656  1.2449  2.8914 -1.3488
  146SAPE  H10S16006   0.856  -1.111   5.761 -1.9527  0.0133 -1.0061
  146SAPE  C21116007   0.699  -1.185   5.653 -0.1247 -0.7472  0.2439
  146SAPE  H11R16008   0.617  -1.124   5.696 -0.2212  1.0079 -2.2345
  146SAPE  C21216009   0.680  -1.223   5.526 -0.5890  1.0187 -0.0448
  146SAPE  H12R16010   0.596  -1.179   5.471 -0.8431  1.3398  0.5833
  146SAPE  C21316011   0.780  -1.301   5.434 -0.1640 -0.1723 -0.3048
  146SAPE  H13R16012   0.884  -1.270   5.457  0.3523 -1.8485 -0.2786
  146SAPE  H13S16013   0.754  -1.270   5.331  1.4024  0.6361 -0.4822
  146SAPE  C21416014   0.763  -1.446   5.478  0.3055  0.1673  0.2363
  146SAPE  H14R16015   0.789  -1.466   5.583 -1.7486  0.7561  0.9244
  146SAPE  C21516016   0.709  -1.548   5.397  0.1244 -0.5435  0.1090
  146SAPE  H15R16017   0.709  -1.651   5.437 -1.1884 -0.8289 -0.5615
  146SAPE  C21616018   0.667  -1.534   5.256  1.0599  0.6132  0.0177
  146SAPE  H16R16019   0.642  -1.428   5.234  2.5629  1.1460  0.7441
  146SAPE  H16S16020   0.575  -1.595   5.244 -1.0234  3.1544  1.6826
  146SAPE  C21716021   0.782  -1.585   5.177 -0.5126 -0.1571 -0.2151
  146SAPE  H17R16022   0.830  -1.671   5.229  3.1595  2.6753  1.5588
  146SAPE  H17S16023   0.862  -1.508   5.169 -0.2404 -0.4361 -0.1988
  146SAPE  C21816024   0.748  -1.621   5.038 -0.7710 -0.1382  0.3229
  146SAPE  H18R16025   0.726  -1.529   4.979 -0.4820  1.0962  2.0431
  146SAPE  H18S16026   0.665  -1.694   5.043 -0.2766 -0.6269  2.5390
  146SAPE  C21916027   0.858  -1.702   4.969  0.5989 -1.2296  0.1275
  146SAPE  H19R16028   0.867  -1.800   5.021  0.8807 -1.4257 -0.2875
  146SAPE  H19S16029   0.951  -1.643   4.988  0.4050 -1.0101  0.4058
  146SAPE  C22016030   0.811  -1.712   4.825  0.2480  0.0039 -1.2642
  146SAPE  H20R16031   0.806  -1.617   4.768  1.0381  1.3162  0.7448
  146SAPE  H20S16032   0.715  -1.767   4.828 -0.1018  0.6135  1.3091
  146SAPE  H20T16033   0.881  -1.781   4.772  0.7132  1.1181 -2.1359
  146SAPE   C3316034   0.844  -0.236   5.724 -0.3436  0.1609 -0.6936
  146SAPE   H3X16035   0.923  -0.159   5.709 -2.6020  2.8442  0.4408
  146SAPE   H3Y16036   0.752  -0.178   5.748  0.5987  0.8556  1.5453
  146SAPE   C3416037   0.825  -0.323   5.604 -0.6910  0.5880  0.0068
  146SAPE   H4X16038   0.725  -0.362   5.634 -0.4489  0.3227  0.4822
  146SAPE   H4Y16039   0.906  -0.397   5.589 -1.3540 -0.4669  1.4270
  146SAPE   C3516040   0.793  -0.255   5.473 -0.7939  1.0634 -0.2503
  146SAPE   H5X16041   0.893  -0.228   5.435 -0.2443 -0.0331  0.3730
  146SAPE   H5Y16042   0.746  -0.156   5.490  0.3985  1.7094 -0.5929
  146SAPE   C3616043   0.713  -0.341   5.378  0.1929  0.4269 -0.6970
  146SAPE   H6X16044   0.609  -0.302   5.380 -0.1948 -0.6020 -0.6507
  146SAPE   H6Y16045   0.708  -0.447   5.411  0.9438  1.2173  2.3716
  146SAPE   C3716046   0.769  -0.319   5.239  0.4947  0.0828 -0.1382
  146SAPE   H7X16047   0.880  -0.312   5.237  0.4970  0.1680  0.3079
  146SAPE   H7Y16048   0.724  -0.229   5.192 -0.7530 -0.4208  0.0513
  146SAPE   C3816049   0.745  -0.440   5.154 -0.2017 -0.2005  0.6488
  146SAPE   H8X16050   0.637  -0.449   5.133  0.2178  1.0546 -2.5699
  146SAPE   H8Y16051   0.784  -0.527   5.211  1.4340 -1.5973 -2.3340
  146SAPE   C3916052   0.825  -0.443   5.024 -0.2299  0.0188  0.1594
  146SAPE   H9X16053   0.799  -0.542   4.981  0.0189  0.3735 -0.8315
  146SAPE   H9Y16054   0.934  -0.448   5.045  0.5470  2.4272 -2.6402
  146SAPE  C31016055   0.775  -0.339   4.919 -0.6194  0.3116  0.4686
  146SAPE  H10X16056   0.801  -0.236   4.951  0.1029  0.4124 -0.3896
  146SAPE  H10Y16057   0.665  -0.353   4.918 -0.6054  0.2045  0.2387
  146SAPE  C31116058   0.845  -0.364   4.781 -0.5481  0.5359 -0.1620
  146SAPE  H11X16059   0.836  -0.473   4.763  0.6598  0.5927 -1.2938
  146SAPE  H11Y16060   0.953  -0.339   4.784  0.0326 -1.8260  0.8163
  146SAPE  C31216061   0.786  -0.293   4.659 -0.3250 -0.3919 -0.9436
  146SAPE  H12X16062   0.798  -0.184   4.673  0.5179 -0.6521  0.4937
  146SAPE  H12Y16063   0.680  -0.325   4.661 -0.4555  0.0813  0.0846
  146SAPE  C31316064   0.860  -0.334   4.531 -0.1311 -0.8974  0.3736
  146SAPE  H13X16065   0.862  -0.445   4.531  1.0725 -0.8931  1.7676
  146SAPE  H13Y16066   0.963  -0.295   4.543 -0.0761 -1.4972  2.1804
  146SAPE  C31416067   0.797  -0.288   4.406  0.3956 -0.2157  0.2591
  146SAPE  H14X16068   0.765  -0.183   4.421  2.2676  0.2471  1.2140
  146SAPE  H14Y16069   0.711  -0.354   4.380  1.3812 -0.4964 -2.6708
  146SAPE  C31516070   0.894  -0.291   4.275  1.1267  0.0994 -0.4464
  146SAPE  H15X16071   0.838  -0.244   4.192  1.2952  2.0463  0.5053
  146SAPE  H15Y16072   0.909  -0.400   4.257 -1.7317 -0.8641  2.0532
  146SAPE  C31616073   1.022  -0.206   4.285  0.3432  0.1088 -0.6949
  146SAPE  H16X16074   1.092  -0.270   4.342 -0.0852 -0.1485 -0.4517
  146SAPE  H16Y16075   1.011  -0.110   4.341 -2.1287  0.5339 -1.7619
  146SAPE  C31716076   1.092  -0.167   4.149 -0.1632  1.1249 -0.0896
  146SAPE  H17X16077   1.180  -0.101   4.164 -0.1229  0.7678  1.4222
  146SAPE  H17Y16078   1.019  -0.094   4.110 -0.6830 -0.2073 -1.7331
  146SAPE  C31816079   1.125  -0.279   4.047 -0.1887 -0.0858 -0.1025
  146SAPE  H18X16080   1.192  -0.349   4.101 -1.1358 -1.4936 -0.7030
  146SAPE  H18Y16081   1.167  -0.234   3.954  1.2847  1.4214  1.2164
  146SAPE  H18Z16082   1.039  -0.340   4.013 -2.6073  1.0274  3.4557
  147SAPE     N16083   4.780   2.491   7.081 -1.1033  0.0041 -0.0492
  147SAPE   HN116084   4.869   2.475   7.030 -0.0697  2.6297  0.7370
  147SAPE   HN216085   4.817   2.516   7.175 -1.1977 -2.1321  0.6178
  147SAPE   HN316086   4.718   2.409   7.097 -1.9174  0.5355 -0.4117
  147SAPE   C1216087   4.713   2.600   6.999  0.8495 -0.3997 -0.2977
  147SAPE  H12A16088   4.789   2.679   6.984  0.9606 -0.1269  1.4838
  147SAPE  H12B16089   4.628   2.643   7.056  1.3847  1.0140 -0.5264
  147SAPE   C1116090   4.664   2.557   6.864  0.0965 -0.4469  0.0232
  147SAPE  H11A16091   4.728   2.478   6.821 -1.0456 -1.5462  0.3126
  147SAPE  H11B16092   4.675   2.646   6.798  0.8911 -1.0115 -0.6181
  147SAPE     P16093   4.421   2.549   6.780 -0.4470  0.2037  0.2826
  147SAPE   O1316094   4.306   2.459   6.809  0.2396 -0.1392 -0.1858
  147SAPE   O1416095   4.406   2.701   6.789 -0.4323 -0.0383 -0.2384
  147SAPE   O1216096   4.536   2.503   6.879  0.3802 -0.1044 -0.3152
  147SAPE   O1116097   4.488   2.512   6.647  0.0095 -0.0410  0.7210
  147SAPE    C116098   4.510   2.593   6.529  0.2938  0.3849 -0.4696
  147SAPE    HA16099   4.566   2.688   6.547 -1.0117  0.8350  1.6338
  147SAPE    HB16100   4.564   2.533   6.453 -0.6109  0.7793 -1.4434
  147SAPE    C216101   4.376   2.646   6.468  0.6110 -0.5141  0.0571
  147SAPE    HS16102   4.318   2.702   6.544  0.0456 -1.0265  0.0105
  147SAPE   O2116103   4.310   2.523   6.430 -0.0231  0.5689  0.1883
  147SAPE   C2116104   4.188   2.527   6.389  0.5481  0.2219  0.0960
  147SAPE   O2216105   4.117   2.625   6.391  0.1287 -0.2562  0.7376
  147SAPE   C2216106   4.156   2.386   6.330  0.2892 -0.2777 -0.0020
  147SAPE   H2R16107   4.155   2.308   6.409 -0.3844  0.8764  1.1790
  147SAPE   H2S16108   4.049   2.390   6.300 -0.2010  0.6003  1.7260
  147SAPE    C316109   4.398   2.746   6.357 -0.1759  0.6152  0.3126
  147SAPE    HX16110   4.446   2.828   6.415 -2.8822  1.2740  1.8259
  147SAPE    HY16111   4.301   2.770   6.308 -0.1354 -1.5443 -0.9192
  147SAPE   O3116112   4.469   2.683   6.256  0.3082 -0.0160  0.1998
  147SAPE   C3116113   4.523   2.761   6.160  0.2577 -0.4924 -0.0270
  147SAPE   O3216114   4.544   2.880   6.176  0.3916 -0.4528 -0.5848
  147SAPE   C3216115   4.557   2.666   6.047 -0.1173  0.2174 -0.5583
  147SAPE   H2X16116   4.496   2.573   6.050 -0.0539  0.1165 -2.0638
  147SAPE   H2Y16117   4.666   2.648   6.057  0.0516  1.4755  0.1352
  147SAPE   C2316118   4.254   2.350   6.209 -0.2479 -0.5296  0.2005
  147SAPE   H3R16119   4.224   2.252   6.165  2.1568 -0.3601 -2.1213
  147SAPE   H3S16120   4.353   2.322   6.251 -1.0301 -3.1653  0.4634
  147SAPE   C2416121   4.257   2.455   6.098  0.1213 -0.9021  0.0277
  147SAPE   H4R16122   4.326   2.435   6.013 -0.7991  0.4165 -1.0883
  147SAPE   H4S16123   4.296   2.541   6.157  1.2858 -3.1746  2.7809
  147SAPE   C2516124   4.116   2.477   6.042 -0.1734 -0.0052  1.1608
  147SAPE   H5R16125   4.037   2.514   6.110 -2.4064  0.5018 -1.5033
  147SAPE   C2616126   4.068   2.436   5.917  0.1138  0.5440  0.1591
  147SAPE   H6R16127   3.962   2.459   5.903  0.0292  0.8049  1.1480
  147SAPE   C2716128   4.146   2.374   5.810  0.1551 -0.2176  0.5842
  147SAPE   H7R16129   4.224   2.305   5.850  1.1113  1.5040  1.7964
  147SAPE   H7S16130   4.212   2.443   5.754  0.6444 -1.6504 -0.6721
  147SAPE   C2816131   4.066   2.286   5.709  0.2932 -0.1210 -0.0891
  147SAPE   H8R16132   4.006   2.213   5.766 -0.8546  0.3790 -0.6356
  147SAPE   C2916133   4.038   2.293   5.576 -0.0037 -0.3922  0.0883
  147SAPE   H9R16134   3.959   2.227   5.536  0.0693 -1.8219  2.1829
  147SAPE  C21016135   4.095   2.381   5.471 -0.3929 -0.3520  0.0229
  147SAPE  H10R16136   4.168   2.332   5.404  0.2645  2.6288 -1.6366
  147SAPE  H10S16137   4.148   2.471   5.508 -0.9912  1.3896 -2.9532
  147SAPE  C21116138   3.985   2.434   5.374 -0.2396  0.2637 -0.1987
  147SAPE  H11R16139   3.889   2.461   5.421 -1.1208 -0.5889 -1.4323
  147SAPE  C21216140   3.992   2.449   5.245 -0.0317  0.3028  1.3332
  147SAPE  H12R16141   3.899   2.472   5.192  0.5910  2.6861  1.1827
  147SAPE  C21316142   4.114   2.419   5.160  0.2852  0.3975 -0.0233
  147SAPE  H13R16143   4.210   2.417   5.215  0.7632  1.7551 -0.7690
  147SAPE  H13S16144   4.120   2.501   5.086 -1.2118  2.2266  1.7703
  147SAPE  C21416145   4.101   2.286   5.088  0.5029  0.2544  0.9903
  147SAPE  H14R16146   4.155   2.199   5.128  1.4000 -0.0301 -0.7391
  147SAPE  C21516147   4.025   2.263   4.974  0.0005 -0.2464 -0.2857
  147SAPE  H15R16148   4.019   2.162   4.930  0.8555 -0.3898 -0.0912
  147SAPE  C21616149   3.940   2.369   4.907 -0.1463  0.6377  0.0388
  147SAPE  H16R16150   3.943   2.464   4.964 -0.4598  0.3349  0.5744
  147SAPE  H16S16151   3.837   2.330   4.896  0.3668 -0.2927 -1.8359
  147SAPE  C21716152   3.995   2.410   4.772 -0.0396 -0.0133  0.2922
  147SAPE  H17R16153   4.099   2.448   4.784 -0.1235 -0.2162  1.9149
  147SAPE  H17S16154   3.950   2.502   4.730 -0.3903 -0.8465 -1.2087
  147SAPE  C21816155   4.000   2.299   4.666 -0.1092  0.5796 -0.7363
  147SAPE  H18R16156   4.045   2.207   4.709  1.0224  2.4036  2.3494
  147SAPE  H18S16157   4.060   2.336   4.580 -0.6510 -0.0318 -1.3878
  147SAPE  C21916158   3.866   2.266   4.591 -0.1809 -0.2032 -0.5257
  147SAPE  H19R16159   3.790   2.261   4.672 -0.5626 -0.5898 -0.9001
  147SAPE  H19S16160   3.881   2.177   4.526  0.1319 -1.4346  1.1358
  147SAPE  C22016161   3.825   2.378   4.496 -0.3677  0.4199 -0.0359
  147SAPE  H20R16162   3.833   2.475   4.550 -0.6522  0.0389  0.7025
  147SAPE  H20S16163   3.718   2.371   4.467 -0.6263  2.5668  0.1731
  147SAPE  H20T16164   3.878   2.387   4.399  1.1268  1.2376  0.8052
  147SAPE   C3316165   4.539   2.729   5.903 -0.0468 -0.7831  0.0423
  147SAPE   H3X16166   4.573   2.649   5.833  0.5713 -2.0025  1.6758
  147SAPE   H3Y16167   4.598   2.822   5.897 -0.5924 -0.2879  1.7312
  147SAPE   C3416168   4.392   2.745   5.864 -0.8832 -0.3860  0.1582
  147SAPE   H4X16169   4.344   2.828   5.921  2.2738  1.7364 -0.0895
  147SAPE   H4Y16170   4.350   2.645   5.888  0.5982 -1.3268 -1.0412
  147SAPE   C3516171   4.370   2.780   5.720 -0.6377 -0.7652  0.1224
  147SAPE   H5X16172   4.425   2.725   5.641 -0.5063 -0.6058  0.1018
  147SAPE   H5Y16173   4.392   2.887   5.703  1.0550 -0.7340  2.1477
  147SAPE   C3616174   4.218   2.776   5.681 -0.2850 -0.2299 -0.8558
  147SAPE   H6X16175   4.152   2.832   5.750 -1.8836 -1.7959 -1.0421
  147SAPE   H6Y16176   4.185   2.670   5.686 -0.0123 -0.2560  0.5873
  147SAPE   C3716177   4.197   2.822   5.536 -0.4045  0.7374 -0.4707
  147SAPE   H7X16178   4.249   2.744   5.477  0.6954 -0.8158  2.3839
  147SAPE   H7Y16179   4.257   2.915   5.527 -1.8966  1.9303  1.1935
  147SAPE   C3816180   4.059   2.846   5.491 -0.0136  0.1350 -1.2094
  147SAPE   H8X16181   4.007   2.922   5.553 -2.3061 -2.1675 -0.1219
  147SAPE   H8Y16182   3.998   2.753   5.492  0.9231 -0.5034 -1.4408
  147SAPE   C3916183   4.039   2.904   5.343  0.4758  0.4725  0.2256
  147SAPE   H9X16184   4.121   2.979   5.338  3.2096 -2.3164  0.4496
  147SAPE   H9Y16185   3.937   2.948   5.348  0.3311  0.0198  1.2963
  147SAPE  C31016186   4.061   2.805   5.231 -0.6028 -0.2562 -0.2021
  147SAPE  H10X16187   3.973   2.744   5.202  1.0984 -2.5791 -0.9015
  147SAPE  H10Y16188   4.125   2.717   5.256 -1.3592 -1.1812 -1.3434
  147SAPE  C31116189   4.110   2.873   5.104 -0.0211  0.0973 -0.5186
  147SAPE  H11X16190   4.208   2.920   5.126 -1.5850  3.1134  0.6667
  147SAPE  H11Y16191   4.047   2.959   5.069 -0.2754 -0.0706 -0.4759
  147SAPE  C31216192   4.106   2.772   4.988 -0.1018 -0.4955 -0.0456
  147SAPE  H12X16193   4.003   2.730   4.984 -0.4034  0.2545 -0.3321
  147SAPE  H12Y16194   4.162   2.678   5.007  0.7934  0.4204  2.2400
  147SAPE  C31316195   4.153   2.830   4.851 -0.3003  0.1669 -0.6011
  147SAPE  H13X16196   4.252   2.876   4.871 -0.2981 -0.9093  2.5402
  147SAPE  H13Y16197   4.071   2.898   4.818 -0.0803 -0.2053 -1.9422
  147SAPE  C31416198   4.162   2.722   4.744 -0.0640  0.6831  0.7118
  147SAPE  H14X16199   4.065   2.682   4.708  2.1354 -2.6174 -2.1644
  147SAPE  H14Y16200   4.232   2.642   4.773 -0.5167  0.1385  0.3159
  147SAPE  C31516201   4.225   2.779   4.615 -0.1245  0.0313 -1.1606
  147SAPE  H15X16202   4.336   2.783   4.617 -0.1296  0.9954 -2.0084
  147SAPE  H15Y16203   4.187   2.882   4.599  2.4393  1.3734  0.8531
  147SAPE  C31616204   4.205   2.694   4.487  0.2444  0.6300  0.8983
  147SAPE  H16X16205   4.230   2.765   4.405  1.7864 -0.9660 -0.0756
  147SAPE  H16Y16206   4.096   2.684   4.469  0.3003  1.3383  0.0629
  147SAPE  C31716207   4.285   2.566   4.465  0.0120  0.6378  0.5435
  147SAPE  H17X16208   4.243   2.485   4.529  2.2580 -2.1282 -1.2145
  147SAPE  H17Y16209   4.389   2.572   4.503  0.0533 -1.3999  0.8815
  147SAPE  C31816210   4.296   2.499   4.329  0.0223  0.7662  0.0098
  147SAPE  H18X16211   4.365   2.558   4.266  1.0319 -0.6820 -0.2869
  147SAPE  H18Y16212   4.206   2.498   4.264  1.6567  1.2127 -2.4155
  147SAPE  H18Z16213   4.336   2.396   4.339 -0.9409  0.4117  0.3637
  148SAPE     N16214   3.408   5.291   6.833 -0.2149  0.4634  0.4384
  148SAPE   HN116215   3.487   5.286   6.766 -0.1929  2.3568  0.2734
  148SAPE   HN216216   3.337   5.348   6.783 -0.5903 -0.0405  0.3893
  148SAPE   HN316217   3.450   5.344   6.912  3.1453 -0.6410 -0.4510
  148SAPE   C1216218   3.371   5.149   6.876 -0.0766 -0.0147 -0.4476
  148SAPE  H12A16219   3.284   5.166   6.942 -0.0227  1.0516 -0.6398
  148SAPE  H12B16220   3.458   5.118   6.938  0.0572 -0.2561 -0.7561
  148SAPE   C1116221   3.338   5.054   6.765  0.0607  0.6083 -0.4722
  148SAPE  H11A16222   3.307   4.963   6.820  2.4292  0.4102  0.6907
  148SAPE  H11B16223   3.420   5.033   6.693 -1.4416 -1.5235 -1.6717
  148SAPE     P16224   3.160   5.028   6.577  0.0968 -0.2184  0.2097
  148SAPE   O1316225   3.068   4.928   6.638  0.2621  0.4946 -0.1131
  148SAPE   O1416226   3.096   5.118   6.478  0.4132 -0.0741 -0.3019
  148SAPE   O1216227   3.222   5.100   6.703 -0.0739 -0.3738  0.2515
  148SAPE   O1116228   3.273   4.955   6.502  0.1690 -0.2960  0.4204
  148SAPE    C116229   3.363   5.019   6.425 -0.9862  0.6258  0.1985
  148SAPE    HA16230   3.359   5.130   6.428 -1.9841  0.7329 -2.3753
  148SAPE    HB16231   3.465   4.983   6.448 -1.8850 -0.5228  2.7394
  148SAPE    C216232   3.345   4.972   6.277 -0.5366 -0.4270 -0.0652
  148SAPE    HS16233   3.443   4.997   6.231  0.2795 -2.4768  0.4729
  148SAPE   O2116234   3.224   5.024   6.224  0.8737  0.4535  0.1354
  148SAPE   C2116235   3.241   5.126   6.132 -0.4073 -0.0536  0.1824
  148SAPE   O2216236   3.345   5.159   6.084  0.2521  0.1917  0.1370
  148SAPE   C2216237   3.106   5.184   6.095 -0.0540  0.1714 -0.8100
  148SAPE   H2R16238   3.042   5.094   6.077 -0.3865  0.2745 -0.1940
  148SAPE   H2S16239   3.074   5.251   6.178 -0.1382 -0.5641 -0.2258
  148SAPE    C316240   3.336   4.818   6.268  0.4811  0.6809 -0.0399
  148SAPE    HX16241   3.241   4.788   6.317  0.6242 -0.5565 -0.4806
  148SAPE    HY16242   3.423   4.770   6.317  0.4495  1.5860  0.9359
  148SAPE   O3116243   3.315   4.783   6.130  0.0771  0.3843  0.1094
  148SAPE   C3116244   3.358   4.662   6.084  1.0096  0.0036  0.4773
  148SAPE   O3216245   3.417   4.583   6.148 -0.2561 -0.1738  0.5174
  148SAPE   C3216246   3.309   4.635   5.940  1.0599 -0.6750  0.3899
  148SAPE   H2X16247   3.198   4.641   5.949  1.0023 -0.5519 -0.3335
  148SAPE   H2Y16248   3.339   4.534   5.905  0.8325 -0.6792  0.2069
  148SAPE   C2316249   3.102   5.273   5.964  0.3322 -0.0094  0.5383
  148SAPE   H3R16250   3.105   5.202   5.878  0.0504 -0.0461  0.5543
  148SAPE   H3S16251   3.173   5.357   5.950  1.3656 -0.6493  1.7792
  148SAPE   C2416252   2.957   5.327   5.962 -0.5506 -0.4244 -0.6068
  148SAPE   H4R16253   2.943   5.362   6.066  1.6641 -1.3320  0.0684
  148SAPE   H4S16254   2.898   5.234   5.948  0.0745 -0.6680 -1.7529
  148SAPE   C2516255   2.928   5.421   5.851  0.7118 -0.3051 -0.7505
  148SAPE   H5R16256   2.950   5.528   5.867  1.9025 -0.7524  0.7497
  148SAPE   C2616257   2.892   5.382   5.728 -0.0309  0.2950  0.0891
  148SAPE   H6R16258   2.882   5.455   5.647  5.1039  1.6745  0.3783
  148SAPE   C2716259   2.874   5.239   5.677  0.2436 -0.9917 -0.5394
  148SAPE   H7R16260   2.777   5.237   5.622  0.5051 -1.9285 -0.9708
  148SAPE   H7S16261   2.874   5.171   5.765  2.3618  1.1068  1.1961
  148SAPE   C2816262   2.987   5.206   5.581 -0.7541 -0.2404 -0.1607
  148SAPE   H8R16263   3.075   5.161   5.628 -1.9366 -0.8601  1.5855
  148SAPE   C2916264   2.991   5.216   5.449  0.6392 -0.7923 -0.6282
  148SAPE   H9R16265   3.080   5.172   5.402  0.3456 -0.9419 -1.0465
  148SAPE  C21016266   2.878   5.265   5.362 -0.1485 -0.1890 -0.1635
  148SAPE  H10R16267   2.917   5.308   5.267  0.6741  1.0834  0.7199
  148SAPE  H10S16268   2.822   5.351   5.404 -0.8754 -0.8220  0.1711
  148SAPE  C21116269   2.782   5.155   5.331  0.3985  0.3072 -0.6660
  148SAPE  H11R16270   2.727   5.123   5.421 -1.0113  0.4498 -1.4382
  148SAPE  C21216271   2.763   5.090   5.213  0.1677 -0.2320  0.3002
  148SAPE  H12R16272   2.703   4.998   5.206  2.7133 -2.1351  1.7139
  148SAPE  C21316273   2.833   5.109   5.087 -0.3262 -0.0957 -0.0481
  148SAPE  H13R16274   2.878   5.009   5.069 -0.6633 -0.3016  0.2532
  148SAPE  H13S16275   2.914   5.185   5.094 -0.1860 -0.2484 -0.0059
  148SAPE  C21416276   2.739   5.155   4.970 -0.6091  0.4335 -0.6658
  148SAPE  H14R16277   2.632   5.149   4.994  0.0598 -0.4300  2.5805
  148SAPE  C21516278   2.788   5.198   4.853  0.2430 -0.1009  0.2451
  148SAPE  H15R16279   2.717   5.240   4.780  1.8805  2.4519  0.0039
  148SAPE  C21616280   2.930   5.215   4.812 -0.0591 -0.1847  0.3575
  148SAPE  H16R16281   2.994   5.151   4.877  1.1086 -0.6732 -1.1930
  148SAPE  H16S16282   2.958   5.321   4.825 -1.4556  0.4257 -1.2984
  148SAPE  C21716283   2.955   5.174   4.666 -0.1204 -0.8086 -0.5220
  148SAPE  H17R16284   2.935   5.065   4.655  3.5304 -1.6445 -0.3071
  148SAPE  H17S16285   3.065   5.186   4.652 -0.3802  1.7240 -0.7256
  148SAPE  C21816286   2.884   5.269   4.563  0.2568  0.0381  0.3668
  148SAPE  H18R16287   2.891   5.371   4.604 -2.4899 -0.4078  2.2326
  148SAPE  H18S16288   2.783   5.222   4.566  0.3831 -0.3886 -1.1882
  148SAPE  C21916289   2.938   5.268   4.415 -0.3598 -0.6149  0.3874
  148SAPE  H19R16290   2.863   5.312   4.347 -1.0936 -1.5469  0.5814
  148SAPE  H19S16291   2.957   5.165   4.379  1.5860 -0.8667  1.9549
  148SAPE  C22016292   3.071   5.345   4.406  0.4691 -0.6403  0.5633
  148SAPE  H20R16293   3.126   5.354   4.309  1.1264  1.7509  1.0715
  148SAPE  H20S16294   3.140   5.309   4.485  0.8542 -0.6673  0.2191
  148SAPE  H20T16295   3.047   5.448   4.440 -1.3757 -0.4003 -1.2307
  148SAPE   C3316296   3.370   4.737   5.832  0.5229 -0.8944 -0.0697
  148SAPE   H3X16297   3.367   4.680   5.736  0.1526 -2.5142  0.8729
  148SAPE   H3Y16298   3.477   4.756   5.857  0.0137  0.6075  1.0999
  148SAPE   C3416299   3.288   4.871   5.814  0.2458 -0.1544 -0.3198
  148SAPE   H4X16300   3.323   4.947   5.886 -2.1948 -0.2394  1.0844
  148SAPE   H4Y16301   3.179   4.857   5.835 -0.1675  1.6307 -1.1223
  148SAPE   C3516302   3.295   4.932   5.665 -0.2844 -0.1559 -0.6711
  148SAPE   H5X16303   3.403   4.935   5.641  0.2358  1.8002  1.5789
  148SAPE   H5Y16304   3.261   5.037   5.664 -2.6291 -0.8006  1.2851
  148SAPE   C3616305   3.228   4.846   5.559 -0.3407  0.4464  0.1593
  148SAPE   H6X16306   3.122   4.829   5.587 -0.6033  1.8503  0.0967
  148SAPE   H6Y16307   3.286   4.751   5.551 -1.0879 -0.1314  1.2951
  148SAPE   C3716308   3.227   4.915   5.422 -0.3431 -0.0815 -0.0481
  148SAPE   H7X16309   3.321   4.963   5.388 -0.1718 -1.0322 -0.9933
  148SAPE   H7Y16310   3.134   4.975   5.411 -1.2041 -1.5131 -0.9132
  148SAPE   C3816311   3.204   4.799   5.311  0.5163  0.1185 -0.3044
  148SAPE   H8X16312   3.139   4.831   5.227 -1.8454  1.3833  1.8610
  148SAPE   H8Y16313   3.147   4.732   5.378  2.9469 -1.2191  0.5575
  148SAPE   C3916314   3.329   4.726   5.258  0.3558 -0.1897 -0.4097
  148SAPE   H9X16315   3.406   4.727   5.338 -0.3481 -1.6547  0.3226
  148SAPE   H9Y16316   3.374   4.784   5.174  3.7925 -0.3266  1.1504
  148SAPE  C31016317   3.295   4.579   5.214 -1.1198 -0.6333 -0.5465
  148SAPE  H10X16318   3.245   4.530   5.300  0.6340 -0.4942  0.6233
  148SAPE  H10Y16319   3.385   4.517   5.192  0.7347  0.9337  1.9585
  148SAPE  C31116320   3.193   4.568   5.102 -0.1848 -0.1850 -0.1259
  148SAPE  H11X16321   3.229   4.641   5.026  0.1137  0.5449  0.6994
  148SAPE  H11Y16322   3.102   4.614   5.145  0.7409  3.6822 -1.8495
  148SAPE  C31216323   3.177   4.427   5.050  0.1074 -0.1909 -0.1524
  148SAPE  H12X16324   3.172   4.359   5.138 -0.5448  0.1742  0.1007
  148SAPE  H12Y16325   3.252   4.397   4.974 -1.2202 -1.9863 -0.8420
  148SAPE  C31316326   3.045   4.426   4.973 -0.2181 -0.1136 -0.2552
  148SAPE  H13X16327   3.066   4.480   4.879 -0.0279  1.7184  0.7979
  148SAPE  H13Y16328   2.971   4.485   5.031  0.2140  0.8120 -0.6179
  148SAPE  C31416329   3.003   4.281   4.946  1.0367 -0.2741 -0.5552
  148SAPE  H14X16330   3.098   4.238   4.908  1.1041  1.2761 -2.3054
  148SAPE  H14Y16331   2.933   4.265   4.861  0.3693 -1.1467  0.1406
  148SAPE  C31516332   2.943   4.200   5.062 -0.4018  0.0643  0.4548
  148SAPE  H15X16333   2.850   4.247   5.099 -1.4908 -1.9130  0.3892
  148SAPE  H15Y16334   2.998   4.193   5.159 -0.8628 -1.5739  0.6297
  148SAPE  C31616335   2.904   4.056   5.010 -0.3054 -0.6678  0.2336
  148SAPE  H16X16336   2.991   4.011   4.958 -0.4424 -2.3290  1.3583
  148SAPE  H16Y16337   2.825   4.067   4.934  0.5327 -0.8566 -0.6910
  148SAPE  C31716338   2.862   3.953   5.118  0.4638 -0.0674 -0.3181
  148SAPE  H17X16339   2.807   4.002   5.201  0.9731 -0.8263  0.4861
  148SAPE  H17Y16340   2.960   3.908   5.146  1.7827  1.7056 -1.8198
  148SAPE  C31816341   2.771   3.839   5.058 -0.0203 -0.3633 -0.0028
  148SAPE  H18X16342   2.666   3.871   5.047 -0.1800 -0.0003  2.1967
  148SAPE  H18Y16343   2.775   3.752   5.127 -0.8334 -0.2629  0.1749
  148SAPE  H18Z16344   2.807   3.807   4.958  0.5886  0.2799 -0.0003
  149SAPE     N16345   3.780   6.658   6.471  0.0605 -0.0584  0.0374
  149SAPE   HN116346   3.793   6.719   6.555 -1.5056  1.1350 -0.5266
  149SAPE   HN216347   3.817   6.567   6.503 -1.2957 -1.2934 -1.6786
  149SAPE   HN316348   3.834   6.699   6.392 -1.9037  0.9396 -0.8804
  149SAPE   C1216349   3.638   6.630   6.426 -0.6703  0.9746 -0.4496
  149SAPE  H12A16350   3.639   6.520   6.411 -0.1463  1.0606 -1.0908
  149SAPE  H12B16351   3.626   6.668   6.322 -1.4688 -0.1045 -0.7626
  149SAPE   C1116352   3.530   6.659   6.526  0.0846  0.4835 -0.8760
  149SAPE  H11A16353   3.431   6.631   6.483  1.0270 -1.8626 -1.6818
  149SAPE  H11B16354   3.525   6.769   6.538  2.4221  0.3432  2.7861
  149SAPE     P16355   3.425   6.527   6.722  0.2984 -0.1168  0.7170
  149SAPE   O1316356   3.468   6.415   6.812 -0.0508 -0.0405  0.1141
  149SAPE   O1416357   3.343   6.634   6.788  0.1688  0.3817  0.6998
  149SAPE   O1216358   3.545   6.596   6.652  0.3004  0.6216  0.2066
  149SAPE   O1116359   3.338   6.475   6.596 -0.2220 -0.0512 -0.8453
  149SAPE    C116360   3.217   6.417   6.637 -0.1237 -0.2320 -0.0650
  149SAPE    HA16361   3.244   6.318   6.680  1.4003 -0.8709 -2.3177
  149SAPE    HB16362   3.152   6.485   6.697 -2.5270 -1.7195 -0.8615
  149SAPE    C216363   3.123   6.382   6.510  0.3256  0.1947  0.0337
  149SAPE    HS16364   3.025   6.359   6.557  0.3179 -1.2351 -0.6104
  149SAPE   O2116365   3.179   6.275   6.431  0.4024  0.2326 -0.0491
  149SAPE   C2116366   3.086   6.200   6.375 -0.1754 -0.5555  0.2990
  149SAPE   O2216367   2.965   6.221   6.379  0.1120  0.0100  0.3060
  149SAPE   C2216368   3.169   6.107   6.279  0.4517 -0.4060  0.0355
  149SAPE   H2R16369   3.263   6.075   6.329  0.8145  0.2913 -0.1848
  149SAPE   H2S16370   3.112   6.013   6.265  0.3076 -0.1699 -1.0194
  149SAPE    C316371   3.115   6.507   6.415 -0.5252 -0.8464  0.2082
  149SAPE    HX16372   3.199   6.502   6.343 -0.3177 -3.7837  0.5525
  149SAPE    HY16373   3.132   6.600   6.475  3.5893 -0.1471 -1.6303
  149SAPE   O3116374   2.997   6.516   6.339  0.1796  0.6073  0.5976
  149SAPE   C3116375   2.900   6.578   6.397 -0.2124 -0.4612 -0.1463
  149SAPE   O3216376   2.903   6.633   6.506  0.0635 -0.2327  0.1095
  149SAPE   C3216377   2.776   6.584   6.308 -0.0183  0.1317 -0.1581
  149SAPE   H2X16378   2.708   6.504   6.346 -0.0766  0.4437  0.4053
  149SAPE   H2Y16379   2.811   6.576   6.203  0.2262 -0.3734 -0.0424
  149SAPE   C2316380   3.202   6.173   6.139  0.5008 -0.0474  0.0489
  149SAPE   H3R16381   3.284   6.117   6.091  0.7480  1.7208 -1.7177
  149SAPE   H3S16382   3.226   6.282   6.148 -1.7449  0.5655 -0.6253
  149SAPE   C2416383   3.074   6.189   6.043 -0.6088  0.2284  0.0976
  149SAPE   H4R16384   3.088   6.255   5.955 -0.1828  0.6923  0.4978
  149SAPE   H4S16385   2.989   6.230   6.102 -1.3898 -1.3059  0.0748
  149SAPE   C2516386   3.026   6.052   6.006 -0.6958  1.0743  0.3746
  149SAPE   H5R16387   2.969   5.994   6.080  2.9986 -0.5913  2.2226
  149SAPE   C2616388   3.034   5.995   5.882  0.4445  0.3802 -0.6996
  149SAPE   H6R16389   3.006   5.889   5.869 -4.1133  1.2594  0.1716
  149SAPE   C2716390   3.113   6.043   5.759  0.3282 -0.6900  0.2648
  149SAPE   H7R16391   3.135   6.152   5.751 -2.8386 -0.0193 -1.2557
  149SAPE   H7S16392   3.042   6.019   5.677 -1.1131  0.5705  1.0851
  149SAPE   C2816393   3.230   5.956   5.741  0.3459  0.0739  0.5126
  149SAPE   H8R16394   3.301   5.963   5.825 -1.0348 -1.5558  1.8833
  149SAPE   C2916395   3.253   5.881   5.627  0.2862  0.6133  0.3633
  149SAPE   H9R16396   3.345   5.822   5.633  0.6591  1.2518  1.1384
  149SAPE  C21016397   3.160   5.868   5.512  0.7431  0.1807  0.2053
  149SAPE  H10R16398   3.213   5.834   5.420  0.0013  0.1104 -0.2031
  149SAPE  H10S16399   3.127   5.970   5.480  1.3847 -0.1398 -1.5806
  149SAPE  C21116400   3.035   5.786   5.538 -0.4812 -0.1074 -0.3926
  149SAPE  H11R16401   3.002   5.788   5.643  0.1628 -1.2488 -0.1477
  149SAPE  C21216402   2.971   5.711   5.450  0.0540 -0.0420  0.2862
  149SAPE  H12R16403   2.887   5.647   5.479 -2.6533  2.2582 -1.8820
  149SAPE  C21316404   3.010   5.702   5.305  0.7415  0.3864  0.4437
  149SAPE  H13R16405   3.119   5.680   5.301  0.6459  0.0119 -0.1339
  149SAPE  H13S16406   3.000   5.806   5.265  0.1416 -0.4223 -1.6242
  149SAPE  C21416407   2.931   5.612   5.212  0.2471  0.9719  0.1186
  149SAPE  H14R16408   2.829   5.589   5.247 -0.8168  1.8695 -2.1954
  149SAPE  C21516409   2.975   5.564   5.091  0.3524 -0.0985 -0.5074
  149SAPE  H15R16410   2.913   5.500   5.026  1.5856 -2.4812  0.5443
  149SAPE  C21616411   3.110   5.601   5.031  0.1324 -1.4176  0.1138
  149SAPE  H16R16412   3.185   5.519   5.025  0.6147 -0.9660 -0.1329
  149SAPE  H16S16413   3.159   5.690   5.074 -2.9009  0.9449 -0.9548
  149SAPE  C21716414   3.090   5.636   4.877  0.6331  0.0907  0.0077
  149SAPE  H17R16415   3.043   5.735   4.859 -0.5905 -0.5506 -0.4601
  149SAPE  H17S16416   3.023   5.558   4.835 -0.1289 -0.7757  2.6423
  149SAPE  C21816417   3.224   5.631   4.795 -0.6283  0.1228  0.2630
  149SAPE  H18R16418   3.312   5.630   4.862  0.6063  2.5550 -1.1508
  149SAPE  H18S16419   3.222   5.709   4.715  1.5475 -2.0217 -2.0583
  149SAPE  C21916420   3.259   5.503   4.713  0.1454  0.2156 -0.4395
  149SAPE  H19R16421   3.336   5.541   4.643  0.4809 -0.3208 -0.3752
  149SAPE  H19S16422   3.170   5.465   4.659 -0.0191  1.6691 -1.2226
  149SAPE  C22016423   3.304   5.381   4.793 -0.7551  0.6066 -0.1355
  149SAPE  H20R16424   3.221   5.342   4.855  0.5441 -2.7601 -0.3412
  149SAPE  H20S16425   3.388   5.404   4.861 -1.5514  0.5740  0.8771
  149SAPE  H20T16426   3.328   5.298   4.724  0.9797  1.7314 -0.9669
  149SAPE   C3316427   2.704   6.725   6.330 -0.5684  0.1330 -0.1051
  149SAPE   H3X16428   2.785   6.801   6.323 -1.1290  0.5904 -2.6572
  149SAPE   H3Y16429   2.667   6.726   6.434 -3.3944  2.0017 -1.0339
  149SAPE   C3416430   2.594   6.757   6.227  0.3965 -0.1938  0.2133
  149SAPE   H4X16431   2.545   6.853   6.254 -1.0863 -0.2825 -1.8709
  149SAPE   H4Y16432   2.525   6.670   6.235 -1.1147  0.9080 -0.1810
  149SAPE   C3516433   2.644   6.760   6.087 -0.3230  0.3786  0.1969
  149SAPE   H5X16434   2.663   6.652   6.070  0.0517  0.5641 -0.6254
  149SAPE   H5Y16435   2.741   6.815   6.084  0.2621 -0.6406 -0.0251
  149SAPE   C3616436   2.538   6.812   5.985 -0.2426  0.8111 -0.8192
  149SAPE   H6X16437   2.507   6.913   6.019 -1.1601 -0.3516  2.0851
  149SAPE   H6Y16438   2.450   6.745   5.995  1.0776 -0.9884 -0.7102
  149SAPE   C3716439   2.599   6.810   5.842 -0.3125  0.5822 -0.0452
  149SAPE   H7X16440   2.636   6.707   5.822  0.9972  1.1304 -0.5018
  149SAPE   H7Y16441   2.685   6.880   5.849  0.0831  0.1600 -0.6334
  149SAPE   C3816442   2.490   6.846   5.738 -0.2122  0.5491 -0.6574
  149SAPE   H8X16443   2.433   6.930   5.783  2.0693  1.7124  0.2374
  149SAPE   H8Y16444   2.426   6.756   5.725 -0.1550  0.2311  0.9850
  149SAPE   C3916445   2.567   6.866   5.602  0.2139  0.4914 -0.3678
  149SAPE   H9X16446   2.644   6.786   5.595  1.0824  1.4066 -1.6589
  149SAPE   H9Y16447   2.608   6.967   5.582 -0.6892  1.1383  0.9378
  149SAPE  C31016448   2.477   6.835   5.489  0.1756  1.3154 -0.1650
  149SAPE  H10X16449   2.385   6.898   5.491  0.5019  1.8199  2.0716
  149SAPE  H10Y16450   2.450   6.729   5.512  1.1166  1.2807  0.8496
  149SAPE  C31116451   2.527   6.852   5.346  0.1625  0.3470 -1.0162
  149SAPE  H11X16452   2.615   6.786   5.330  1.6112  1.3273  2.1623
  149SAPE  H11Y16453   2.563   6.956   5.333  1.3167  0.1142  0.1161
  149SAPE  C31216454   2.417   6.807   5.241 -0.5416  0.2483 -0.2709
  149SAPE  H12X16455   2.343   6.889   5.237  1.0287  1.6733 -1.4967
  149SAPE  H12Y16456   2.372   6.710   5.273  0.9309 -0.5176 -0.4283
  149SAPE  C31316457   2.482   6.795   5.097  0.4317  0.2234 -0.2064
  149SAPE  H13X16458   2.535   6.698   5.083  0.4563 -0.0814  1.7282
  149SAPE  H13Y16459   2.558   6.875   5.090  1.4972 -0.7064  0.3187
  149SAPE  C31416460   2.384   6.811   4.981 -0.1258  0.4220 -0.5752
  149SAPE  H14X16461   2.315   6.897   4.995 -1.5610 -0.9536  1.2545
  149SAPE  H14Y16462   2.316   6.723   4.977  0.9164 -0.4410  0.2273
  149SAPE  C31516463   2.438   6.821   4.838 -0.2568  0.1697 -0.0892
  149SAPE  H15X16464   2.512   6.904   4.832 -0.1796  0.0317 -1.5930
  149SAPE  H15Y16465   2.349   6.852   4.778  1.6030 -0.3152 -3.3763
  149SAPE  C31616466   2.504   6.699   4.774  0.0842  0.0918 -0.0407
  149SAPE  H16X16467   2.443   6.606   4.781  1.0240 -0.7660 -2.4017
  149SAPE  H16Y16468   2.604   6.685   4.821 -0.7407  0.4088  1.8864
  149SAPE  C31716469   2.545   6.699   4.621 -0.5320 -0.2819  0.3237
  149SAPE  H17X16470   2.452   6.689   4.561 -1.6704  0.6724  1.8687
  149SAPE  H17Y16471   2.604   6.607   4.600 -0.9815 -0.7399  1.0361
  149SAPE  C31816472   2.634   6.819   4.576 -0.3592 -0.1391  0.5075
  149SAPE  H18X16473   2.584   6.913   4.610 -1.6545 -1.1757  1.5687
  149SAPE  H18Y16474   2.653   6.813   4.467  2.6490  0.8525  0.8786
  149SAPE  H18Z16475   2.727   6.818   4.637  0.0455 -0.0954 -0.1054
  150SAPE     N16476   0.013   0.509   6.179  0.5794 -0.1819  0.0284
  150SAPE   HN116477  -0.034   0.525   6.270  3.2557 -3.2112  2.2034
  150SAPE   HN216478  -0.016   0.416   6.142 -1.4875  1.1124 -1.8770
  150SAPE   HN316479   0.114   0.503   6.202  0.0959 -0.7464  2.2326
  150SAPE   C1216480  -0.017   0.614   6.076  0.3105 -0.1539  0.2545
  150SAPE  H12A16481  -0.127   0.623   6.088  0.0228 -1.8301 -0.7311
  150SAPE  H12B16482   0.008   0.579   5.974 -0.8204  0.7812 -0.3690
  150SAPE   C1116483   0.041   0.747   6.112  0.4018 -0.2732  0.1880
  150SAPE  H11A16484   0.012   0.823   6.037 -0.2469  0.7279  1.4074
  150SAPE  H11B16485   0.152   0.738   6.109  0.5032  0.2991  1.5598
  150SAPE     P16486  -0.086   0.922   6.268  0.1107  0.3382  0.2268
  150SAPE   O1316487  -0.223   0.889   6.235 -0.1328  0.2557 -0.2931
  150SAPE   O1416488  -0.063   0.980   6.400 -0.3684 -0.7049 -0.0363
  150SAPE   O1216489   0.010   0.796   6.247 -0.4245 -0.6244  0.4423
  150SAPE   O1116490  -0.024   1.019   6.163  0.0231  0.2439  0.0483
  150SAPE    C116491   0.109   1.048   6.188 -0.8240  0.7964  0.1443
  150SAPE    HA16492   0.133   1.092   6.287  0.4498  1.7720 -0.5685
  150SAPE    HB16493   0.180   0.963   6.198  0.3892  1.9437  1.6586
  150SAPE    C216494   0.162   1.141   6.075  0.2272  0.0354  0.1143
  150SAPE    HS16495   0.087   1.222   6.059  0.0199 -0.1546  0.1221
  150SAPE   O2116496   0.183   1.067   5.958 -0.8379  0.7244  0.0645
  150SAPE   C2116497   0.111   1.102   5.853 -0.2314 -0.0383 -0.0701
  150SAPE   O2216498   0.046   1.205   5.839 -0.8818 -0.2123 -0.4398
  150SAPE   C2216499   0.131   1.005   5.740 -0.0161 -0.0077  0.3028
  150SAPE   H2R16500   0.229   0.954   5.752  1.2815  2.1195 -0.5586
  150SAPE   H2S16501   0.050   0.930   5.734 -0.5110  0.4755  0.8542
  150SAPE    C316502   0.295   1.217   6.111 -0.0026 -0.1624 -0.1749
  150SAPE    HX16503   0.385   1.151   6.107 -0.4717 -0.8453  0.4889
  150SAPE    HY16504   0.273   1.260   6.211 -3.7329  3.3608 -2.2007
  150SAPE   O3116505   0.302   1.329   6.019 -0.4344  0.8537  0.0060
  150SAPE   C3116506   0.341   1.445   6.063 -0.1740  0.4954  0.4800
  150SAPE   O3216507   0.377   1.468   6.175 -0.4727 -0.4621 -0.5586
  150SAPE   C3216508   0.334   1.550   5.950 -0.1018  0.0425  0.0531
  150SAPE   H2X16509   0.426   1.612   5.946  1.3935 -2.0974 -0.2428
  150SAPE   H2Y16510   0.248   1.617   5.971 -1.2024 -0.4172 -2.6719
  150SAPE   C2316511   0.134   1.067   5.594  0.3033  0.0477 -0.0222
  150SAPE   H3R16512   0.213   1.145   5.591  1.8297 -1.3099  2.1674
  150SAPE   H3S16513   0.037   1.118   5.575  0.2080  0.3896  1.2963
  150SAPE   C2416514   0.171   0.956   5.492  0.9044 -0.2070 -0.3382
  150SAPE   H4R16515   0.269   0.913   5.520  0.6058 -1.7722 -1.5069
  150SAPE   H4S16516   0.174   1.003   5.391 -2.6263 -0.5687 -0.7519
  150SAPE   C2516517   0.061   0.855   5.496  0.2621 -0.7703 -0.1247
  150SAPE   H5R16518  -0.042   0.895   5.492  0.3483 -0.5604 -0.2369
  150SAPE   C2616519   0.065   0.725   5.491 -0.2420 -0.0770 -0.0831
  150SAPE   H6R16520  -0.027   0.666   5.499 -0.3758  0.2228  0.7321
  150SAPE   C2716521   0.199   0.651   5.490  0.4088 -0.0209  0.1951
  150SAPE   H7R16522   0.282   0.716   5.525  0.9565  0.0070 -1.1041
  150SAPE   H7S16523   0.211   0.620   5.384  0.7436  1.9909 -0.3925
  150SAPE   C2816524   0.184   0.526   5.575  0.0190 -0.3197  0.4218
  150SAPE   H8R16525   0.142   0.434   5.533 -1.8968 -0.8884  3.2727
  150SAPE   C2916526   0.229   0.521   5.703  0.1470  0.6052  0.5268
  150SAPE   H9R16527   0.203   0.429   5.758 -0.8120 -0.0953 -1.0309
  150SAPE  C21016528   0.294   0.625   5.789  0.5439 -0.1180  0.3634
  150SAPE  H10R16529   0.217   0.702   5.810 -0.2815 -0.2614 -1.8818
  150SAPE  H10S16530   0.376   0.666   5.727  1.3121 -0.0437  1.3945
  150SAPE  C21116531   0.356   0.593   5.921 -0.8350 -0.1625 -0.1614
  150SAPE  H11R16532   0.328   0.497   5.968  1.4918 -0.7551  0.1548
  150SAPE  C21216533   0.456   0.659   5.980 -0.0024 -0.4721  0.4109
  150SAPE  H12R16534   0.500   0.618   6.072 -1.9520 -3.3287  0.2133
  150SAPE  C21316535   0.512   0.800   5.946 -0.0191  0.6745 -0.5922
  150SAPE  H13R16536   0.446   0.858   5.878 -0.0306 -0.0036 -1.1736
  150SAPE  H13S16537   0.611   0.793   5.897  0.3722  3.1109 -0.2871
  150SAPE  C21416538   0.532   0.870   6.082 -0.2706 -0.4552  0.1043
  150SAPE  H14R16539   0.438   0.876   6.140  0.6103  2.3368  1.4420
  150SAPE  C21516540   0.641   0.924   6.131 -0.0711 -0.0664  0.0406
  150SAPE  H15R16541   0.640   0.981   6.225  0.1613  2.1351 -1.2413
  150SAPE  C21616542   0.779   0.928   6.067 -0.1510 -0.7970 -0.6189
  150SAPE  H16R16543   0.804   1.034   6.046 -2.1141 -0.0968  0.3732
  150SAPE  H16S16544   0.779   0.873   5.971  0.7619  1.0909 -1.7669
  150SAPE  C21716545   0.885   0.873   6.165 -0.5998 -0.3292 -0.4342
  150SAPE  H17R16546   0.866   0.893   6.272  1.3304 -0.2459 -0.0728
  150SAPE  H17S16547   0.979   0.926   6.139 -0.2267 -1.8882 -2.5210
  150SAPE  C21816548   0.913   0.727   6.141  0.2199  0.0165 -0.5696
  150SAPE  H18R16549   0.884   0.707   6.036  2.6181  1.4371 -1.5723
  150SAPE  H18S16550   0.856   0.657   6.206 -0.0688 -0.6444 -1.5120
  150SAPE  C21916551   1.067   0.707   6.155 -0.5280 -0.0863 -0.0245
  150SAPE  H19R16552   1.108   0.762   6.067 -2.1354 -0.8625 -1.3260
  150SAPE  H19S16553   1.093   0.601   6.133  1.3144  0.4054 -0.3919
  150SAPE  C22016554   1.119   0.753   6.289 -0.6547  0.5515  0.0178
  150SAPE  H20R16555   1.118   0.863   6.303  2.3882  0.8271 -1.1922
  150SAPE  H20S16556   1.227   0.730   6.297 -0.2858  2.1270 -0.0288
  150SAPE  H20T16557   1.070   0.697   6.371  0.9095 -0.0974  0.5368
  150SAPE   C3316558   0.310   1.491   5.809 -0.1026 -0.2239 -1.0429
  150SAPE   H3X16559   0.207   1.450   5.804 -0.2358  0.2530 -2.3317
  150SAPE   H3Y16560   0.380   1.406   5.791  0.0506 -0.4994  0.6330
  150SAPE   C3416561   0.334   1.597   5.709 -0.4287 -0.3153  0.7735
  150SAPE   H4X16562   0.318   1.560   5.606  0.4817 -0.2742  0.6028
  150SAPE   H4Y16563   0.438   1.636   5.714 -0.4008 -0.0620 -1.1600
  150SAPE   C3516564   0.239   1.714   5.719  0.2897  0.5121 -0.6619
  150SAPE   H5X16565   0.262   1.779   5.807 -3.0655 -2.7823  3.0220
  150SAPE   H5Y16566   0.139   1.677   5.748 -0.3135  2.8700  0.5608
  150SAPE   C3616567   0.222   1.802   5.593 -0.4669 -1.1350  0.2467
  150SAPE   H6X16568   0.122   1.851   5.588  0.4632  0.8654  0.2577
  150SAPE   H6Y16569   0.232   1.743   5.500 -1.8981 -1.2282  0.1292
  150SAPE   C3716570   0.324   1.917   5.583 -0.5786 -0.6014 -0.1313
  150SAPE   H7X16571   0.413   1.854   5.561 -0.0901 -0.3020  0.9093
  150SAPE   H7Y16572   0.341   1.979   5.674  1.7999 -0.6784 -0.4581
  150SAPE   C3816573   0.289   2.003   5.452  0.2028 -0.2701 -0.2282
  150SAPE   H8X16574   0.182   2.033   5.466  0.1128 -0.9244  0.5993
  150SAPE   H8Y16575   0.307   1.937   5.365 -1.1757  1.5938 -2.0305
  150SAPE   C3916576   0.389   2.129   5.449  0.3667  0.2713  0.3909
  150SAPE   H9X16577   0.484   2.090   5.492 -0.6448 -1.3008  1.3112
  150SAPE   H9Y16578   0.345   2.202   5.520 -0.7021 -0.4253  0.4577
  150SAPE  C31016579   0.423   2.177   5.311  0.7271 -0.3204 -0.0025
  150SAPE  H10X16580   0.480   2.102   5.252  0.9017  0.2152 -0.5338
  150SAPE  H10Y16581   0.498   2.260   5.309  2.4346 -1.7993 -0.5866
  150SAPE  C31116582   0.296   2.231   5.237 -0.2867 -0.1547  0.1030
  150SAPE  H11X16583   0.266   2.323   5.291 -2.9601  0.0156 -1.5027
  150SAPE  H11Y16584   0.214   2.155   5.241 -1.4305  0.9985 -0.6685
  150SAPE  C31216585   0.329   2.242   5.093 -0.1182 -0.4716 -0.0908
  150SAPE  H12X16586   0.298   2.158   5.027 -2.8539 -1.7136  2.5285
  150SAPE  H12Y16587   0.440   2.243   5.085  0.0961 -0.3360  2.2507
  150SAPE  C31316588   0.274   2.372   5.018 -0.1134  1.0154 -0.6772
  150SAPE  H13X16589   0.318   2.457   5.073 -0.7842 -0.1919  1.8505
  150SAPE  H13Y16590   0.164   2.360   5.024 -0.1876  1.6505 -0.6889
  150SAPE  C31416591   0.328   2.381   4.866  0.2327  0.2553 -0.4227
  150SAPE  H14X16592   0.436   2.358   4.877  0.5896  1.2985 -1.4999
  150SAPE  H14Y16593   0.309   2.486   4.834 -0.8367  0.4017  0.6091
  150SAPE  C31516594   0.254   2.290   4.772  0.1065  0.1835  0.2991
  150SAPE  H15X16595   0.144   2.301   4.783  0.2790  0.3310  2.1817
  150SAPE  H15Y16596   0.275   2.183   4.796 -0.7621  0.8026  4.4635
  150SAPE  C31616597   0.297   2.294   4.618  0.0925 -0.3567  0.4232
  150SAPE  H16X16598   0.408   2.299   4.620  0.1714 -1.1262 -0.9120
  150SAPE  H16Y16599   0.272   2.395   4.580 -0.6637  0.0653  1.9487
  150SAPE  C31716600   0.245   2.176   4.538 -0.0682 -0.4135 -0.1247
  150SAPE  H17X16601   0.134   2.181   4.532  0.0437  0.5240 -2.0115
  150SAPE  H17Y16602   0.264   2.087   4.602  1.7773 -0.2925 -0.4540
  150SAPE  C31816603   0.302   2.166   4.388  0.5966  0.0346 -0.0776
  150SAPE  H18X16604   0.270   2.067   4.349 -1.0567  0.5695 -0.1681
  150SAPE  H18Y16605   0.413   2.166   4.400  0.6411 -2.1480 -0.2266
  150SAPE  H18Z16606   0.254   2.234   4.314 -1.4824 -1.6634 -0.3647
  151SAPE     N16607   5.192   4.454   6.745 -0.0725  0.0222  0.4080
  151SAPE   HN116608   5.216   4.477   6.844 -0.6549  1.1821  0.2965
  151SAPE   HN216609   5.213   4.543   6.696 -2.6771  1.1067  1.0439
  151SAPE   HN316610   5.088   4.443   6.749 -0.2238  1.5059  1.4624
  151SAPE   C1216611   5.268   4.340   6.686 -0.4861 -0.3216 -0.3023
  151SAPE  H12A16612   5.236   4.334   6.579 -2.5469 -0.6754  0.2956
  151SAPE  H12B16613   5.226   4.248   6.731 -0.4223  0.7308  2.0282
  151SAPE   C1116614   5.418   4.362   6.691 -0.4677 -0.2650  0.5209
  151SAPE  H11A16615   5.475   4.284   6.635  2.0872  3.6966 -3.0493
  151SAPE  H11B16616   5.439   4.370   6.800 -0.0739  0.0973  0.4224
  151SAPE     P16617   5.605   4.534   6.634 -0.3566 -0.0663  0.1013
  151SAPE   O1316618   5.651   4.583   6.765  0.1166  0.9189  1.3299
  151SAPE   O1416619   5.679   4.422   6.575 -0.1270 -0.3358 -0.4116
  151SAPE   O1216620   5.450   4.485   6.628  0.0796 -0.3799 -0.2199
  151SAPE   O1116621   5.605   4.645   6.516  0.2519  0.0108  0.5137
  151SAPE    C116622   5.481   4.694   6.460  0.3306  0.3010  0.0998
  151SAPE    HA16623   5.393   4.689   6.529  0.7633  1.4532  0.7661
  151SAPE    HB16624   5.491   4.803   6.439  0.1514 -0.1649 -2.7696
  151SAPE    C216625   5.433   4.610   6.341  0.1782 -0.1812  0.9102
  151SAPE    HS16626   5.398   4.509   6.372 -2.7821  0.4747  0.0590
  151SAPE   O2116627   5.542   4.610   6.247  0.0498  0.3418  0.2653
  151SAPE   C2116628   5.575   4.498   6.194 -0.6379  0.2139  0.9907
  151SAPE   O2216629   5.541   4.384   6.229  0.3059  0.9228  0.5095
  151SAPE   C2216630   5.643   4.528   6.061 -0.4103 -0.0684 -0.7463
  151SAPE   H2R16631   5.581   4.603   6.009  0.5665  0.9475 -0.4802
  151SAPE   H2S16632   5.747   4.565   6.070 -0.4557  0.1106 -0.9522
  151SAPE    C316633   5.308   4.667   6.264  0.8140  0.0096 -0.1928
  151SAPE    HX16634   5.328   4.776   6.251 -0.8165  0.3977  0.3487
  151SAPE    HY16635   5.215   4.656   6.324  1.9377  0.3851  1.6864
  151SAPE   O3116636   5.287   4.613   6.129  0.3866  0.5648  0.1960
  151SAPE   C3116637   5.210   4.502   6.123  0.3385 -0.6212 -0.2310
  151SAPE   O3216638   5.144   4.459   6.214 -0.3195 -0.3127 -0.0772
  151SAPE   C3216639   5.228   4.440   5.987 -0.5999 -0.0115  1.0146
  151SAPE   H2X16640   5.143   4.372   5.964 -0.4600 -0.3702  1.5434
  151SAPE   H2Y16641   5.315   4.372   6.000 -0.5366 -0.1535 -0.0643
  151SAPE   C2316642   5.659   4.397   5.975 -0.3226  0.3900 -0.5771
  151SAPE   H3R16643   5.567   4.340   5.953  0.4150 -2.7572  3.4290
  151SAPE   H3S16644   5.721   4.322   6.028 -1.7922 -0.5897 -0.1943
  151SAPE   C2416645   5.752   4.409   5.851 -0.0147 -0.3824 -0.4262
  151SAPE   H4R16646   5.849   4.452   5.886 -0.3365  1.0439 -1.2041
  151SAPE   H4S16647   5.706   4.493   5.797  0.7335 -0.4534 -1.1989
  151SAPE   C2516648   5.778   4.286   5.765 -0.4970  0.6193  0.1993
  151SAPE   H5R16649   5.764   4.192   5.821 -2.4419  0.1639 -0.9574
  151SAPE   C2616650   5.816   4.288   5.634  0.4405  1.0020 -0.2956
  151SAPE   H6R16651   5.837   4.194   5.580 -0.1532  2.2799 -2.9080
  151SAPE   C2716652   5.855   4.408   5.552 -0.2744 -0.1460  0.0393
  151SAPE   H7R16653   5.963   4.397   5.527 -0.3305  0.4390 -0.4752
  151SAPE   H7S16654   5.833   4.507   5.598 -1.0211 -0.7628  1.0614
  151SAPE   C2816655   5.772   4.401   5.423 -0.3127 -0.5238  0.1500
  151SAPE   H8R16656   5.668   4.431   5.441 -0.1610 -0.1630  0.4266
  151SAPE   C2916657   5.798   4.374   5.288 -0.1169 -0.3548 -0.7271
  151SAPE   H9R16658   5.712   4.374   5.219 -2.7493 -1.7657  2.2795
  151SAPE  C21016659   5.935   4.344   5.223  0.6997 -0.6205 -0.0335
  151SAPE  H10R16660   5.926   4.285   5.129 -0.8623 -0.5185  0.0254
  151SAPE  H10S16661   5.996   4.278   5.289  3.5610  0.5947 -1.2839
  151SAPE  C21116662   6.005   4.478   5.196  0.2381 -0.1924  0.7286
  151SAPE  H11R16663   6.024   4.537   5.287 -0.4152  0.8465  0.1979
  151SAPE  C21216664   6.056   4.526   5.081  1.3084  0.2476 -0.2070
  151SAPE  H12R16665   6.093   4.630   5.089  2.7903 -0.0011 -2.6721
  151SAPE  C21316666   6.043   4.460   4.944  0.7284  0.2572 -0.2942
  151SAPE  H13R16667   6.099   4.364   4.940  0.3951  0.0985 -1.7793
  151SAPE  H13S16668   6.118   4.513   4.882  1.3005  0.0780  0.2290
  151SAPE  C21416669   5.902   4.451   4.884 -0.1294  0.0944  0.9348
  151SAPE  H14R16670   5.848   4.359   4.913  0.0644  0.0587  1.1923
  151SAPE  C21516671   5.853   4.535   4.794 -0.3896  0.8336 -1.0464
  151SAPE  H15R16672   5.754   4.512   4.752 -0.1806  1.3872 -1.8696
  151SAPE  C21616673   5.918   4.658   4.746  0.3376  0.4890  0.7559
  151SAPE  H16R16674   6.011   4.684   4.800  1.0266 -0.8620  0.2483
  151SAPE  H16S16675   5.857   4.751   4.743  1.9057  1.5363 -1.7777
  151SAPE  C21716676   5.978   4.642   4.603 -0.3657  0.3069  0.6941
  151SAPE  H17R16677   5.991   4.742   4.555 -0.7045  0.7412  1.4786
  151SAPE  H17S16678   5.905   4.597   4.533 -0.4318 -0.8804  1.4971
  151SAPE  C21816679   6.098   4.551   4.582  0.0263  0.8889  0.5630
  151SAPE  H18R16680   6.072   4.454   4.630  3.5340  0.6384  2.3033
  151SAPE  H18S16681   6.192   4.590   4.627  0.2790  1.3441 -0.3263
  151SAPE  C21916682   6.115   4.531   4.426 -0.1986 -0.1507 -0.3138
  151SAPE  H19R16683   6.131   4.628   4.373  1.2541 -0.5577 -0.6522
  151SAPE  H19S16684   6.018   4.498   4.383 -1.0572  3.2079 -1.2391
  151SAPE  C22016685   6.214   4.428   4.378 -0.6324  0.4554 -0.2856
  151SAPE  H20R16686   6.169   4.326   4.381  0.6260 -0.1391 -1.0383
  151SAPE  H20S16687   6.315   4.423   4.425  0.0498 -0.3284 -1.7671
  151SAPE  H20T16688   6.239   4.452   4.273  0.6582 -2.5061 -0.7669
  151SAPE   C3316689   5.249   4.546   5.874  0.2527 -0.2791  0.5559
  151SAPE   H3X16690   5.329   4.620   5.898  0.7070 -0.4581 -0.3553
  151SAPE   H3Y16691   5.156   4.605   5.860  0.0673 -0.7559 -0.2576
  151SAPE   C3416692   5.279   4.482   5.740  0.1476 -0.4711  0.3750
  151SAPE   H4X16693   5.203   4.404   5.716  0.0676 -0.6439  1.1851
  151SAPE   H4Y16694   5.378   4.433   5.747 -0.2767 -1.2702  0.7833
  151SAPE   C3516695   5.291   4.580   5.620  0.2848 -0.4146 -0.3796
  151SAPE   H5X16696   5.357   4.663   5.655 -1.4733  0.6662  0.5305
  151SAPE   H5Y16697   5.198   4.635   5.595 -1.0175 -1.5030  1.7681
  151SAPE   C3616698   5.338   4.511   5.493 -0.4671 -0.3502 -0.4805
  151SAPE   H6X16699   5.267   4.432   5.460 -0.7883 -0.2728  0.0056
  151SAPE   H6Y16700   5.445   4.483   5.507  0.3442  1.5851 -2.2874
  151SAPE   C3716701   5.349   4.610   5.380 -0.8283  0.4637 -0.3495
  151SAPE   H7X16702   5.389   4.703   5.424 -0.6177 -0.2972  1.1137
  151SAPE   H7Y16703   5.250   4.638   5.338 -1.3689 -1.2375 -0.3241
  151SAPE   C3816704   5.436   4.565   5.264 -0.5983  0.0284 -0.0595
  151SAPE   H8X16705   5.399   4.465   5.235 -1.8416  0.6146 -0.5550
  151SAPE   H8Y16706   5.543   4.559   5.293  0.1829  0.7101 -2.5312
  151SAPE   C3916707   5.409   4.639   5.136  0.9144 -0.7660  0.3019
  151SAPE   H9X16708   5.451   4.742   5.135 -0.4159 -0.2011 -1.3605
  151SAPE   H9Y16709   5.303   4.657   5.109  1.1187 -1.1528 -0.7942
  151SAPE  C31016710   5.460   4.560   5.010 -0.0789  0.0414  0.1436
  151SAPE  H10X16711   5.401   4.466   5.023 -2.7528  1.3696 -1.4426
  151SAPE  H10Y16712   5.569   4.539   5.010  0.3462  1.8120 -2.2576
  151SAPE  C31116713   5.404   4.613   4.879 -0.1069 -0.7984 -0.1710
  151SAPE  H11X16714   5.471   4.698   4.852  0.0713 -0.6686  0.6692
  151SAPE  H11Y16715   5.298   4.637   4.900 -0.1822 -0.8310 -0.5002
  151SAPE  C31216716   5.401   4.517   4.756 -0.1565 -0.5646  0.6224
  151SAPE  H12X16717   5.301   4.476   4.732  0.4077 -2.4772  1.3655
  151SAPE  H12Y16718   5.446   4.423   4.795 -1.3778 -1.0061  1.0160
  151SAPE  C31316719   5.467   4.573   4.624  0.5651  0.4648 -0.0246
  151SAPE  H13X16720   5.567   4.616   4.645 -0.6830  1.8972  3.6991
  151SAPE  H13Y16721   5.404   4.660   4.594  1.7915  1.2794 -0.3127
  151SAPE  C31416722   5.469   4.467   4.510 -0.5424 -0.2213  0.5046
  151SAPE  H14X16723   5.366   4.425   4.503  0.6798 -3.4407  0.4477
  151SAPE  H14Y16724   5.549   4.392   4.529  0.2703  0.6776  0.7380
  151SAPE  C31516725   5.496   4.529   4.373 -0.8487  0.0805 -0.2866
  151SAPE  H15X16726   5.582   4.600   4.380 -0.6174 -0.3278  1.4981
  151SAPE  H15Y16727   5.416   4.603   4.351 -0.0381  1.0915  0.0705
  151SAPE  C31616728   5.536   4.426   4.257  0.2255  0.1372  0.3967
  151SAPE  H16X16729   5.638   4.385   4.273 -0.7774 -2.1314  1.4410
  151SAPE  H16Y16730   5.554   4.480   4.162  2.1437 -0.6499  0.2729
  151SAPE  C31716731   5.441   4.307   4.249  0.2289  0.1871  0.5320
  151SAPE  H17X16732   5.340   4.353   4.255  0.9701  1.9375  0.4244
  151SAPE  H17Y16733   5.457   4.244   4.339  3.1767  0.4934  0.3351
  151SAPE  C31816734   5.472   4.227   4.128  0.4716  0.2100 -0.2407
  151SAPE  H18X16735   5.427   4.128   4.148 -1.0404  1.1419  1.2232
  151SAPE  H18Y16736   5.577   4.211   4.093  0.3032  0.9525 -1.1278
  151SAPE  H18Z16737   5.421   4.260   4.035  0.5951  0.3522 -0.2595
  152SAPE     N16738   2.376   6.200   6.913 -0.4037  0.2455 -0.0319
  152SAPE   HN116739   2.430   6.166   6.995  0.3216 -0.9164 -0.9643
  152SAPE   HN216740   2.424   6.166   6.827  1.5691  0.2833  1.0113
  152SAPE   HN316741   2.358   6.302   6.917  0.9723  0.4508  2.2082
  152SAPE   C1216742   2.253   6.120   6.920  0.3713  0.3495 -0.1997
  152SAPE  H12A16743   2.208   6.134   6.819 -2.0958 -0.5137  0.7061
  152SAPE  H12B16744   2.191   6.178   6.991  1.4778  0.7246  0.4832
  152SAPE   C1116745   2.285   5.973   6.964  0.0445  0.1513 -1.8080
  152SAPE  H11A16746   2.186   5.923   6.951  0.0003 -0.4642  0.4953
  152SAPE  H11B16747   2.321   5.971   7.069  0.9177  1.8339 -2.0499
  152SAPE     P16748   2.392   5.797   6.794  0.4249  0.1849  0.1840
  152SAPE   O1316749   2.527   5.755   6.746 -0.4560  0.2921 -0.1644
  152SAPE   O1416750   2.313   5.694   6.865 -0.2265 -0.1748 -0.5863
  152SAPE   O1216751   2.388   5.927   6.876 -0.5812 -0.2668 -0.1134
  152SAPE   O1116752   2.299   5.851   6.676  0.4110 -0.1411  0.0537
  152SAPE    C116753   2.346   5.940   6.571 -0.0714 -0.2951  0.2160
  152SAPE    HA16754   2.263   6.006   6.535 -0.2551  0.3534  1.7641
  152SAPE    HB16755   2.430   6.007   6.599 -0.9493  1.0564 -0.2597
  152SAPE    C216756   2.395   5.853   6.447  1.3404 -0.6654 -0.2611
  152SAPE    HS16757   2.487   5.797   6.474  0.4149 -2.0388  0.1148
  152SAPE   O2116758   2.403   5.932   6.326 -0.5386  0.1709 -0.2294
  152SAPE   C2116759   2.512   6.008   6.331 -0.0939  0.3524  0.0724
  152SAPE   O2216760   2.602   5.994   6.410 -0.1152 -0.4293  0.0089
  152SAPE   C2216761   2.513   6.100   6.209 -0.1628  0.2409 -0.3607
  152SAPE   H2R16762   2.482   6.035   6.125 -1.0631 -0.0916  0.2222
  152SAPE   H2S16763   2.440   6.179   6.235 -1.2456 -1.5106  2.2645
  152SAPE    C316764   2.284   5.746   6.418 -0.7140 -0.4940  0.1316
  152SAPE    HX16765   2.192   5.803   6.392  1.0814  1.8602 -1.5449
  152SAPE    HY16766   2.249   5.692   6.509 -0.2741 -1.5691 -0.3219
  152SAPE   O3116767   2.330   5.648   6.321 -0.1098 -0.0522  0.1893
  152SAPE   C3116768   2.425   5.558   6.349  0.5791  1.0950  0.8132
  152SAPE   O3216769   2.492   5.548   6.451 -0.5503  0.2347 -0.1256
  152SAPE   C3216770   2.415   5.454   6.228 -0.2137 -0.0996  0.0049
  152SAPE   H2X16771   2.449   5.502   6.134 -0.1723 -3.0534 -1.5872
  152SAPE   H2Y16772   2.308   5.425   6.214 -0.7749  1.9527 -0.4424
  152SAPE   C2316773   2.648   6.157   6.160 -0.0755  0.4935 -0.0964
  152SAPE   H3R16774   2.704   6.066   6.133  1.5481  1.1284  1.0254
  152SAPE   H3S16775   2.709   6.207   6.238  2.3782  0.1192 -1.6730
  152SAPE   C2416776   2.644   6.242   6.029  0.2172  0.1555  0.1115
  152SAPE   H4R16777   2.744   6.290   6.020 -0.3217  0.9285 -2.8423
  152SAPE   H4S16778   2.568   6.322   6.042 -0.7102 -0.3416 -1.9629
  152SAPE   C2516779   2.600   6.169   5.910 -0.4340 -0.1201  0.7452
  152SAPE   H5R16780   2.514   6.102   5.922  0.4160 -1.4914 -0.4542
  152SAPE   C2616781   2.658   6.174   5.788  0.5231 -0.7711  0.3621
  152SAPE   H6R16782   2.605   6.121   5.708  0.5956  2.0500 -1.7075
  152SAPE   C2716783   2.776   6.253   5.740 -0.5372  0.3010  0.3374
  152SAPE   H7R16784   2.823   6.225   5.643  1.9733  1.9129  1.0044
  152SAPE   H7S16785   2.855   6.219   5.810 -0.3035 -1.6466 -0.7824
  152SAPE   C2816786   2.758   6.401   5.744 -0.1653 -0.1170  0.0862
  152SAPE   H8R16787   2.725   6.445   5.839  1.8100  1.8064 -0.0376
  152SAPE   C2916788   2.772   6.477   5.630 -0.0819  0.5035 -0.6902
  152SAPE   H9R16789   2.774   6.587   5.639  0.2804  0.4374  0.0779
  152SAPE  C21016790   2.810   6.442   5.487 -0.5815  0.5941 -0.2242
  152SAPE  H10R16791   2.784   6.337   5.462 -3.7379  1.4344 -0.8599
  152SAPE  H10S16792   2.921   6.446   5.486 -0.4584 -1.3751 -1.7187
  152SAPE  C21116793   2.747   6.529   5.383  0.5465  0.2232 -0.4484
  152SAPE  H11R16794   2.643   6.552   5.408  0.1331 -3.3998  1.7603
  152SAPE  C21216795   2.798   6.568   5.273 -0.8151  0.1894  0.0374
  152SAPE  H12R16796   2.738   6.618   5.196  1.4429  0.6656 -1.5106
  152SAPE  C21316797   2.939   6.542   5.218  0.2013  0.8007  0.5502
  152SAPE  H13R16798   2.943   6.472   5.132  1.6167  2.3675 -0.6982
  152SAPE  H13S16799   3.000   6.477   5.285  1.2010 -0.6770 -1.6827
  152SAPE  C21416800   3.016   6.667   5.176 -0.3106  0.0161 -0.7853
  152SAPE  H14R16801   3.076   6.709   5.257 -0.3779 -1.7486  0.2299
  152SAPE  C21516802   3.017   6.714   5.046  0.6270  0.4180 -0.1325
  152SAPE  H15R16803   3.069   6.806   5.017 -0.5435  0.9980 -0.4560
  152SAPE  C21616804   2.930   6.661   4.928  0.6554 -1.2318 -0.1523
  152SAPE  H16R16805   2.902   6.756   4.879  1.4993  0.0484  1.7386
  152SAPE  H16S16806   2.843   6.598   4.959 -1.5287  0.3798 -2.6013
  152SAPE  C21716807   3.013   6.579   4.834 -0.8086  0.4766  0.6213
  152SAPE  H17R16808   3.033   6.478   4.876 -1.8894 -0.5486 -1.2074
  152SAPE  H17S16809   3.108   6.628   4.806 -1.3163  0.7468 -0.7048
  152SAPE  C21816810   2.947   6.534   4.701 -0.0483 -0.1593  0.4063
  152SAPE  H18R16811   2.915   6.624   4.645  0.8189 -0.3204 -0.3807
  152SAPE  H18S16812   2.864   6.463   4.722  1.7303 -2.0747  1.2994
  152SAPE  C21916813   3.044   6.457   4.609 -0.3884  1.0171 -0.0548
  152SAPE  H19R16814   3.001   6.417   4.515 -0.4831 -0.3869  0.5623
  152SAPE  H19S16815   3.083   6.370   4.665 -0.3131  1.7496  1.0823
  152SAPE  C22016816   3.168   6.536   4.569  0.6282 -0.5284 -0.2341
  152SAPE  H20R16817   3.237   6.564   4.652 -1.3316 -1.1584  1.6942
  152SAPE  H20S16818   3.130   6.633   4.531 -0.5782 -0.7270  0.4317
  152SAPE  H20T16819   3.216   6.477   4.488 -2.6585 -2.6222 -0.8182
  152SAPE   C3316820   2.515   5.331   6.246  0.0293  0.0124  0.3068
  152SAPE   H3X16821   2.491   5.282   6.343 -1.5326  2.6843  1.4173
  152SAPE   H3Y16822   2.617   5.375   6.248 -0.9028  2.3824 -0.7881
  152SAPE   C3416823   2.486   5.227   6.138  0.1253  0.6130  0.1924
  152SAPE   H4X16824   2.383   5.185   6.144  0.8918 -1.5772 -1.0813
  152SAPE   H4Y16825   2.555   5.149   6.176 -1.2142  0.2558  2.1048
  152SAPE   C3516826   2.511   5.273   5.995  0.4332 -0.0490 -0.9998
  152SAPE   H5X16827   2.614   5.304   5.967 -0.5168  1.9379 -2.5838
  152SAPE   H5Y16828   2.445   5.357   5.962 -2.1074 -1.0502  1.1481
  152SAPE   C3616829   2.478   5.164   5.893  0.0146 -0.3491  0.0212
  152SAPE   H6X16830   2.371   5.137   5.903  0.0095 -0.4217 -0.2149
  152SAPE   H6Y16831   2.537   5.072   5.914 -0.8544 -0.8883  0.1608
  152SAPE   C3716832   2.505   5.201   5.753  0.7982 -0.3023  0.5591
  152SAPE   H7X16833   2.493   5.113   5.686  0.8695  0.8288 -1.0184
  152SAPE   H7Y16834   2.609   5.235   5.737  0.7787 -1.4778 -3.0307
  152SAPE   C3816835   2.405   5.302   5.692  0.0153 -0.2284 -0.3078
  152SAPE   H8X16836   2.388   5.390   5.758 -2.4742  0.9871 -2.4320
  152SAPE   H8Y16837   2.307   5.251   5.689  0.5357 -1.2176 -1.9513
  152SAPE   C3916838   2.443   5.352   5.553  0.6040  0.5230  0.5918
  152SAPE   H9X16839   2.551   5.379   5.562  0.3563  2.2897 -1.0452
  152SAPE   H9Y16840   2.387   5.448   5.548 -0.5511 -0.1731 -0.3569
  152SAPE  C31016841   2.405   5.247   5.448 -0.3875  0.2210  0.0267
  152SAPE  H10X16842   2.299   5.215   5.462  0.2824 -1.6459  1.1087
  152SAPE  H10Y16843   2.459   5.152   5.466  2.5153  1.8176  0.3120
  152SAPE  C31116844   2.444   5.291   5.307 -0.1361  0.5318 -0.4047
  152SAPE  H11X16845   2.445   5.203   5.240  1.4024  0.5225 -0.3979
  152SAPE  H11Y16846   2.547   5.332   5.307 -0.4394  1.3143  0.2313
  152SAPE  C31216847   2.352   5.387   5.233  0.0971  0.1233 -0.2671
  152SAPE  H12X16848   2.332   5.480   5.291 -0.4863  0.7424 -1.4269
  152SAPE  H12Y16849   2.251   5.343   5.217  0.9258 -1.2907 -1.9627
  152SAPE  C31316850   2.399   5.422   5.091 -0.4653 -0.5238 -0.8132
  152SAPE  H13X16851   2.509   5.436   5.098 -0.6380  1.0125 -0.8579
  152SAPE  H13Y16852   2.354   5.517   5.054  0.4973 -0.4534 -1.8376
  152SAPE  C31416853   2.373   5.311   4.996 -0.1094 -0.6135  0.2527
  152SAPE  H14X16854   2.262   5.300   5.003 -0.3112  1.0267 -0.1054
  152SAPE  H14Y16855   2.414   5.211   5.023  0.5236 -0.5625 -0.4731
  152SAPE  C31516856   2.428   5.345   4.845 -0.2009  0.4457 -0.6198
  152SAPE  H15X16857   2.406   5.256   4.783  0.0488 -0.9656  1.2202
  152SAPE  H15Y16858   2.538   5.357   4.843 -0.1249  0.1338  0.6897
  152SAPE  C31616859   2.370   5.464   4.776  0.0421  0.1105  0.8038
  152SAPE  H16X16860   2.395   5.563   4.819 -4.1739  2.5860 -1.7591
  152SAPE  H16Y16861   2.260   5.450   4.776  0.3398 -2.9544  0.3366
  152SAPE  C31716862   2.409   5.476   4.630  0.7752 -0.2047  0.2197
  152SAPE  H17X16863   2.335   5.550   4.593 -0.3420 -0.8572  1.0858
  152SAPE  H17Y16864   2.384   5.383   4.575 -1.3343 -0.9432  2.2764
  152SAPE  C31816865   2.555   5.514   4.606 -0.3173  0.1890 -0.3468
  152SAPE  H18X16866   2.585   5.603   4.665 -0.7641 -0.1925  0.4693
  152SAPE  H18Y16867   2.582   5.526   4.499  1.1863 -2.8135 -0.4366
  152SAPE  H18Z16868   2.612   5.426   4.644 -0.7503 -0.4418 -1.1247
  153SAPE     N16869   1.005   4.442   6.727 -0.2042  0.1490  0.3764
  153SAPE   HN116870   0.954   4.527   6.759 -1.2863 -1.4161  3.1821
  153SAPE   HN216871   0.967   4.402   6.639 -0.3270 -2.1507  1.4128
  153SAPE   HN316872   0.986   4.367   6.796 -0.8812  0.9137  1.0281
  153SAPE   C1216873   1.152   4.473   6.721 -0.3210  0.4579  0.6184
  153SAPE  H12A16874   1.194   4.397   6.652  1.3154  2.9351 -1.3328
  153SAPE  H12B16875   1.197   4.457   6.821 -1.3079  2.2086  1.3840
  153SAPE   C1116876   1.193   4.610   6.648 -0.0654 -0.1823 -0.2176
  153SAPE  H11A16877   1.159   4.596   6.543 -1.7505 -0.6332  0.3709
  153SAPE  H11B16878   1.303   4.627   6.653 -0.2747  0.8297  1.8048
  153SAPE     P16879   1.099   4.850   6.629 -0.3750 -0.7671 -0.2571
  153SAPE   O1316880   0.956   4.855   6.599 -0.0878 -0.4985 -0.1894
  153SAPE   O1416881   1.139   4.958   6.715 -0.3594  0.5479 -0.0070
  153SAPE   O1216882   1.126   4.721   6.715  0.2477  0.3715  0.4441
  153SAPE   O1116883   1.187   4.846   6.505 -0.3719  0.6541 -0.1862
  153SAPE    C116884   1.189   4.963   6.416  0.5624 -0.0077 -0.1302
  153SAPE    HA16885   1.132   5.052   6.449  0.4057  1.0215 -2.9404
  153SAPE    HB16886   1.291   5.000   6.395  1.0582 -0.7341  0.9235
  153SAPE    C216887   1.136   4.916   6.277 -0.3024  0.2340 -0.1761
  153SAPE    HS16888   1.036   4.874   6.300  1.1668 -3.0428  0.7342
  153SAPE   O2116889   1.234   4.815   6.228 -0.2419  0.0252  0.0969
  153SAPE   C2116890   1.173   4.727   6.150  0.1239  0.1817  0.2435
  153SAPE   O2216891   1.052   4.716   6.131 -0.1326  0.4392 -0.6582
  153SAPE   C2216892   1.274   4.638   6.084 -0.5596 -0.8941 -0.5634
  153SAPE   H2R16893   1.373   4.666   6.127 -1.0230  2.7697 -1.6177
  153SAPE   H2S16894   1.248   4.531   6.097 -0.8479 -0.7403  0.1617
  153SAPE    C316895   1.123   5.029   6.166  0.2946  0.0006  0.1232
  153SAPE    HX16896   1.223   5.078   6.166 -1.8384  5.0110 -0.2322
  153SAPE    HY16897   1.053   5.107   6.203  1.3863  0.5486  1.0804
  153SAPE   O3116898   1.101   4.980   6.027 -0.3713  0.3624 -0.0642
  153SAPE   C3116899   0.979   4.999   5.968  0.3310 -0.4604  0.2569
  153SAPE   O3216900   0.886   5.048   6.031  0.4271  0.1497 -0.2645
  153SAPE   C3216901   0.984   4.944   5.827 -0.0609 -0.3595 -0.1676
  153SAPE   H2X16902   0.996   4.835   5.845  2.6924 -0.0913  0.0720
  153SAPE   H2Y16903   1.079   4.981   5.781 -0.0728 -1.0918 -0.8051
  153SAPE   C2316904   1.319   4.678   5.939  0.4391 -0.2316  0.5136
  153SAPE   H3R16905   1.417   4.633   5.914 -0.5169 -1.1960 -1.8080
  153SAPE   H3S16906   1.327   4.788   5.923  3.0038 -0.6539 -2.0328
  153SAPE   C2416907   1.220   4.611   5.834 -0.0059 -0.1749  0.0570
  153SAPE   H4R16908   1.249   4.663   5.740 -0.8499 -0.6930 -0.5053
  153SAPE   H4S16909   1.117   4.644   5.860  0.3027 -0.1488  1.3011
  153SAPE   C2516910   1.227   4.462   5.815 -0.6337 -0.5554  0.4461
  153SAPE   H5R16911   1.212   4.404   5.907  2.9366 -1.3644  0.6681
  153SAPE   C2616912   1.240   4.397   5.698  0.0632  0.5833  0.1617
  153SAPE   H6R16913   1.250   4.287   5.693  2.7277  0.7111  1.1058
  153SAPE   C2716914   1.259   4.469   5.570 -0.0167  0.4768 -0.0818
  153SAPE   H7R16915   1.364   4.507   5.565 -0.1296  1.0964  1.5918
  153SAPE   H7S16916   1.186   4.552   5.558 -0.2522  0.1443 -1.0367
  153SAPE   C2816917   1.245   4.390   5.440 -0.2418 -0.9893 -0.5525
  153SAPE   H8R16918   1.167   4.313   5.433  0.0397 -1.1647 -2.5515
  153SAPE   C2916919   1.304   4.426   5.325  0.2089  0.3492  0.4223
  153SAPE   H9R16920   1.285   4.360   5.240 -0.2750 -1.1787  1.6568
  153SAPE  C21016921   1.400   4.540   5.279 -0.6664  0.4820  0.3755
  153SAPE  H10R16922   1.495   4.489   5.255 -0.4220  1.6550 -1.3552
  153SAPE  H10S16923   1.424   4.598   5.370 -1.7501 -2.9868  3.0575
  153SAPE  C21116924   1.361   4.622   5.160 -0.4841 -0.1012 -0.6768
  153SAPE  H11R16925   1.336   4.727   5.177  1.7186  0.2433  0.9073
  153SAPE  C21216926   1.364   4.582   5.034 -0.4751 -0.3854  0.1554
  153SAPE  H12R16927   1.331   4.654   4.957 -2.3231 -0.7424  0.5788
  153SAPE  C21316928   1.410   4.448   4.988  0.7057 -0.8073  0.0032
  153SAPE  H13R16929   1.330   4.371   4.978  3.2079 -3.4299 -1.7061
  153SAPE  H13S16930   1.474   4.399   5.065 -0.7340  1.4113  2.8141
  153SAPE  C21416931   1.462   4.456   4.845 -0.6119 -0.1269  0.0251
  153SAPE  H14R16932   1.393   4.451   4.759 -1.2255  0.2799  0.4895
  153SAPE  C21516933   1.594   4.484   4.811  0.1179 -0.1532 -0.4579
  153SAPE  H15R16934   1.620   4.503   4.706 -0.6674  2.8622 -0.2066
  153SAPE  C21616935   1.710   4.493   4.908  0.3053 -0.4165  0.7532
  153SAPE  H16R16936   1.791   4.421   4.884  1.9151  1.5070  0.1387
  153SAPE  H16S16937   1.678   4.477   5.013 -1.0949  1.4022  0.6666
  153SAPE  C21716938   1.788   4.632   4.916 -0.6851 -1.1403 -0.3904
  153SAPE  H17R16939   1.866   4.625   4.995 -2.2780 -2.9110  1.0888
  153SAPE  H17S16940   1.718   4.713   4.943  0.2969  0.1085 -1.4441
  153SAPE  C21816941   1.857   4.667   4.779 -0.5213 -0.2331  0.2482
  153SAPE  H18R16942   1.902   4.768   4.771 -0.4927 -0.2751 -0.1467
  153SAPE  H18S16943   1.782   4.680   4.697 -0.1183 -2.4218 -0.5510
  153SAPE  C21916944   1.975   4.578   4.736 -0.7094  0.1351  0.6186
  153SAPE  H19R16945   2.022   4.630   4.650  0.9453 -1.6933  0.3448
  153SAPE  H19S16946   1.927   4.484   4.700 -0.9320  0.4846 -0.0035
  153SAPE  C22016947   2.076   4.535   4.842  0.3514 -0.2185 -0.0520
  153SAPE  H20R16948   2.035   4.451   4.901 -0.2256  0.6014  0.7440
  153SAPE  H20S16949   2.084   4.618   4.916 -4.0442 -1.0622  1.6537
  153SAPE  H20T16950   2.176   4.499   4.810  0.7068  1.9685 -1.6718
  153SAPE   C3316951   0.870   4.989   5.730  0.4486  0.2351 -1.2640
  153SAPE   H3X16952   0.823   5.083   5.765 -0.7188 -0.9622  0.5559
  153SAPE   H3Y16953   0.783   4.921   5.719  0.3312 -0.3673  2.0776
  153SAPE   C3416954   0.930   5.003   5.583 -0.0276 -0.2379 -0.1431
  153SAPE   H4X16955   1.015   5.075   5.587 -0.4373  0.1913  1.2248
  153SAPE   H4Y16956   0.857   5.039   5.508  1.0151  2.1818 -0.0976
  153SAPE   C3516957   0.973   4.863   5.530  0.4064  0.2596 -0.1357
  153SAPE   H5X16958   0.891   4.789   5.545 -0.2801  0.7232 -1.4466
  153SAPE   H5Y16959   1.058   4.827   5.592  0.2022  1.3335  0.8096
  153SAPE   C3616960   1.008   4.859   5.382 -0.1886  0.5313 -0.3337
  153SAPE   H6X16961   0.912   4.880   5.330 -0.5270 -0.9176 -0.3284
  153SAPE   H6Y16962   1.029   4.752   5.364 -0.9694 -0.2314  2.6583
  153SAPE   C3716963   1.130   4.949   5.341 -0.3459  0.1868  0.6648
  153SAPE   H7X16964   1.223   4.911   5.388 -0.0259  0.4184  0.2314
  153SAPE   H7Y16965   1.119   5.053   5.378  2.0483  1.6335 -2.2277
  153SAPE   C3816966   1.150   4.956   5.186 -0.3068 -0.6839 -0.0296
  153SAPE   H8X16967   1.145   4.850   5.152 -2.4702 -1.5447  2.5688
  153SAPE   H8Y16968   1.250   5.001   5.170 -0.0728 -0.9657  0.6275
  153SAPE   C3916969   1.052   5.049   5.117  1.1563 -0.2637  0.1660
  153SAPE   H9X16970   1.046   5.139   5.181  1.1901  1.6443 -2.3754
  153SAPE   H9Y16971   0.956   4.993   5.123  1.2385 -0.6049 -1.2926
  153SAPE  C31016972   1.078   5.082   4.969 -0.2244 -0.0005  0.0660
  153SAPE  H10X16973   1.183   5.118   4.957 -0.8572  1.1424 -3.0108
  153SAPE  H10Y16974   1.001   5.156   4.940  0.7301  1.0352  0.1104
  153SAPE  C31116975   1.047   4.958   4.880  0.3282  0.4700  0.2174
  153SAPE  H11X16976   0.945   4.918   4.902  0.1046  0.0453 -1.4445
  153SAPE  H11Y16977   1.118   4.878   4.912  2.1812  1.5559 -1.0110
  153SAPE  C31216978   1.068   4.974   4.732 -0.6288 -0.6660 -0.1107
  153SAPE  H12X16979   1.032   4.881   4.684 -4.3587 -0.7283  2.3896
  153SAPE  H12Y16980   1.179   4.972   4.718 -0.3518  0.2652  1.6834
  153SAPE  C31316981   1.016   5.094   4.675  1.1330 -0.1881  0.2822
  153SAPE  H13X16982   1.047   5.184   4.732  0.3107  0.8475 -0.8770
  153SAPE  H13Y16983   0.905   5.089   4.675  1.0868  0.6870  0.6441
  153SAPE  C31416984   1.058   5.124   4.529 -0.1220 -0.4026 -0.1161
  153SAPE  H14X16985   1.016   5.041   4.468  2.3782 -1.8117 -0.0894
  153SAPE  H14Y16986   1.168   5.110   4.538 -0.2355 -1.8331 -0.6669
  153SAPE  C31516987   1.018   5.253   4.460 -0.1471  0.1813  0.2069
  153SAPE  H15X16988   1.056   5.265   4.356 -2.4814 -0.6142 -0.7952
  153SAPE  H15Y16989   1.049   5.346   4.511  0.2838 -1.3904  3.0596
  153SAPE  C31616990   0.867   5.254   4.442  0.0093 -0.0873 -0.4155
  153SAPE  H16X16991   0.830   5.221   4.541  3.0634 -4.0531 -0.3368
  153SAPE  H16Y16992   0.838   5.172   4.373 -0.3765 -0.4501  0.1719
  153SAPE  C31716993   0.804   5.388   4.399 -0.4913  0.2120  0.3335
  153SAPE  H17X16994   0.844   5.466   4.468  1.7847 -0.1484 -0.4744
  153SAPE  H17Y16995   0.694   5.381   4.411 -0.3947 -0.3862  0.9624
  153SAPE  C31816996   0.834   5.440   4.262 -0.5067 -0.2296  0.0259
  153SAPE  H18X16997   0.838   5.355   4.190 -1.8535 -1.2816  1.1396
  153SAPE  H18Y16998   0.935   5.485   4.251 -0.1003 -1.1625 -0.1639
  153SAPE  H18Z16999   0.760   5.517   4.233 -0.9035 -0.3083  0.8159
  154SAPE     N17000   5.713   3.698   6.513 -0.1921 -0.1866 -0.3849
  154SAPE   HN117001   5.759   3.626   6.454  0.4527 -0.4629  0.4356
  154SAPE   HN217002   5.627   3.722   6.459  0.0015 -0.8504 -1.0146
  154SAPE   HN317003   5.772   3.783   6.506  1.3396 -1.2159 -0.3507
  154SAPE   C1217004   5.679   3.650   6.650 -0.1821 -0.2274 -0.2342
  154SAPE  H12A17005   5.613   3.730   6.690 -1.6427  0.0035 -2.8739
  154SAPE  H12B17006   5.773   3.651   6.709  0.5142 -0.2251 -1.3112
  154SAPE   C1117007   5.611   3.515   6.639  0.0366  0.6097  0.8777
  154SAPE  H11A17008   5.516   3.523   6.581 -0.0001 -0.3731  0.7774
  154SAPE  H11B17009   5.587   3.482   6.743 -0.4409  0.1126  0.6178
  154SAPE     P17010   5.663   3.272   6.575  0.0159  0.2556  0.6069
  154SAPE   O1317011   5.778   3.202   6.512 -0.2598 -0.7766 -0.2079
  154SAPE   O1417012   5.643   3.241   6.719 -0.1761  0.2347  0.1710
  154SAPE   O1217013   5.698   3.422   6.573 -0.5166  0.0670  0.1158
  154SAPE   O1117014   5.532   3.252   6.491 -0.0927  1.2255 -0.2225
  154SAPE    C117015   5.547   3.286   6.353  0.3650 -0.6443  0.2922
  154SAPE    HA17016   5.584   3.390   6.353  1.0810 -0.7832  3.5299
  154SAPE    HB17017   5.616   3.214   6.303  2.9384  2.1272 -0.4109
  154SAPE    C217018   5.422   3.270   6.261 -0.1179 -0.0878  0.4782
  154SAPE    HS17019   5.344   3.318   6.324  0.1652  2.0506 -0.7411
  154SAPE   O2117020   5.405   3.128   6.231 -0.0857 -0.7247  0.2714
  154SAPE   C2117021   5.335   3.051   6.316 -0.2792  0.9654 -0.2769
  154SAPE   O2217022   5.262   3.097   6.402  0.3979 -0.1674  0.7602
  154SAPE   C2217023   5.346   2.904   6.271  0.1854 -0.7151  0.0914
  154SAPE   H2R17024   5.398   2.855   6.356  2.1593  1.0523 -0.0031
  154SAPE   H2S17025   5.239   2.875   6.260  0.5461 -0.9716 -3.8537
  154SAPE    C317026   5.436   3.350   6.123  0.3910  0.1031  0.1090
  154SAPE    HX17027   5.438   3.458   6.148  0.6979 -0.0122  0.5856
  154SAPE    HY17028   5.342   3.346   6.064  0.0016  0.4700  0.6950
  154SAPE   O3117029   5.557   3.313   6.046  0.1381 -0.0230  0.2115
  154SAPE   C3117030   5.659   3.399   6.060 -0.4289 -0.1935  0.0877
  154SAPE   O3217031   5.653   3.495   6.137  0.3738 -0.9315  0.1935
  154SAPE   C3217032   5.777   3.355   5.969  0.0628 -0.1132 -0.3033
  154SAPE   H2X17033   5.751   3.283   5.888  3.0542 -0.5744 -0.9797
  154SAPE   H2Y17034   5.864   3.317   6.025 -0.1686  0.5475  0.5201
  154SAPE   C2317035   5.416   2.877   6.131 -0.0107 -0.2822  0.4786
  154SAPE   H3R17036   5.442   2.769   6.130  0.1116 -0.2906 -2.1095
  154SAPE   H3S17037   5.514   2.930   6.135 -1.2175  2.2243 -1.0168
  154SAPE   C2417038   5.324   2.890   6.000 -0.5553 -0.6117 -0.0989
  154SAPE   H4R17039   5.220   2.889   6.039  0.4124 -1.2783  2.7408
  154SAPE   H4S17040   5.347   2.798   5.942  0.3546  0.0059 -0.7332
  154SAPE   C2517041   5.362   3.018   5.932  0.2975 -0.0629 -0.0500
  154SAPE   H5R17042   5.342   3.110   5.989 -2.2569  0.1532 -1.1358
  154SAPE   C2617043   5.406   3.033   5.807 -0.1966  0.0658  1.0782
  154SAPE   H6R17044   5.418   3.136   5.769 -1.5040 -0.1156  0.1151
  154SAPE   C2717045   5.439   2.943   5.695 -0.8092 -0.2915  0.1247
  154SAPE   H7R17046   5.405   2.843   5.730 -0.1792 -0.2905  0.7586
  154SAPE   H7S17047   5.546   2.942   5.665 -1.3400  0.0876 -1.9772
  154SAPE   C2817048   5.359   2.982   5.574  0.0830  0.0826  0.0834
  154SAPE   H8R17049   5.253   3.000   5.600  0.6941  2.4704  1.0962
  154SAPE   C2917050   5.394   3.023   5.449 -0.1800  0.5235 -0.2948
  154SAPE   H9R17051   5.315   3.066   5.385 -1.4643 -1.2385  0.0481
  154SAPE  C21017052   5.531   3.017   5.394  0.3280  0.1513  0.1779
  154SAPE  H10R17053   5.543   3.059   5.292  0.1466  0.2200  0.1851
  154SAPE  H10S17054   5.562   2.910   5.385 -3.1642 -1.1153  1.2589
  154SAPE  C21117055   5.639   3.090   5.478 -0.5839  0.7844  0.1915
  154SAPE  H11R17056   5.693   3.024   5.547 -1.0529  1.2196  0.9993
  154SAPE  C21217057   5.709   3.200   5.429 -0.1411 -0.2777  0.2945
  154SAPE  H12R17058   5.778   3.252   5.497 -1.2559  3.6969 -1.3449
  154SAPE  C21317059   5.689   3.282   5.305  0.6360  0.1325 -0.4109
  154SAPE  H13R17060   5.603   3.238   5.250  1.2630  0.2149 -1.4983
  154SAPE  H13S17061   5.770   3.276   5.229  0.3249  2.7764 -1.0645
  154SAPE  C21417062   5.662   3.424   5.333  0.3536 -0.1108  0.6129
  154SAPE  H14R17063   5.671   3.454   5.439 -2.5458  0.6947  0.7017
  154SAPE  C21517064   5.642   3.522   5.249  0.3229 -0.5090  0.6140
  154SAPE  H15R17065   5.610   3.618   5.291  0.1808 -0.7294  1.0143
  154SAPE  C21617066   5.637   3.507   5.103  0.7154  0.3332  0.2025
  154SAPE  H16R17067   5.536   3.538   5.071  1.5599  1.7548 -1.1861
  154SAPE  H16S17068   5.637   3.400   5.071  1.0681  0.4281 -0.1186
  154SAPE  C21717069   5.748   3.586   5.021 -0.0032 -0.0339  0.0802
  154SAPE  H17R17070   5.847   3.552   5.060 -0.0026  0.6080  0.6477
  154SAPE  H17S17071   5.743   3.696   5.037  1.1695 -0.1154  1.1804
  154SAPE  C21817072   5.760   3.537   4.877 -0.4074 -0.5006  0.1217
  154SAPE  H18R17073   5.726   3.431   4.874 -0.9360 -0.3152 -0.9670
  154SAPE  H18S17074   5.868   3.535   4.851 -0.2825  0.1883  0.5683
  154SAPE  C21917075   5.677   3.606   4.771 -0.1148 -0.4585 -0.9064
  154SAPE  H19R17076   5.574   3.607   4.811  0.7497 -2.7259  1.6321
  154SAPE  H19S17077   5.667   3.553   4.674 -0.4308 -0.2231 -1.0037
  154SAPE  C22017078   5.722   3.749   4.725 -0.1349  0.5501  1.1189
  154SAPE  H20R17079   5.654   3.805   4.658  1.2600  1.2673  0.2753
  154SAPE  H20S17080   5.815   3.740   4.665 -1.0212  0.1074 -0.2219
  154SAPE  H20T17081   5.734   3.819   4.811 -0.7471  1.5695  0.3901
  154SAPE   C3317082   5.837   3.484   5.903  0.1446  0.1804  0.5598
  154SAPE   H3X17083   5.931   3.472   5.844  0.4752  0.5443  1.0076
  154SAPE   H3Y17084   5.869   3.543   5.991  0.5947 -0.0332  0.5425
  154SAPE   C3417085   5.732   3.575   5.826 -0.4864  0.2900  0.0950
  154SAPE   H4X17086   5.639   3.583   5.886 -0.2817  1.4636  0.2619
  154SAPE   H4Y17087   5.700   3.519   5.735 -4.3160  0.7257  0.9872
  154SAPE   C3517088   5.764   3.719   5.788 -0.2964  0.6363 -0.0331
  154SAPE   H5X17089   5.861   3.729   5.735  0.3834 -0.1817  1.0116
  154SAPE   H5Y17090   5.780   3.779   5.881  2.8815  0.4029 -0.3142
  154SAPE   C3617091   5.649   3.769   5.709  0.5166 -0.7230 -0.0478
  154SAPE   H6X17092   5.555   3.778   5.768  0.3391  0.8882 -0.5067
  154SAPE   H6Y17093   5.623   3.692   5.633 -0.6909  0.3200 -0.7362
  154SAPE   C3717094   5.684   3.899   5.642  0.2127  0.2679  0.2067
  154SAPE   H7X17095   5.790   3.893   5.608  0.5539 -0.4429  1.3195
  154SAPE   H7Y17096   5.676   3.984   5.713 -1.8377 -0.3456  0.7983
  154SAPE   C3817097   5.585   3.922   5.530 -0.6384  0.0025 -0.1361
  154SAPE   H8X17098   5.486   3.941   5.578 -0.5269 -0.3370  0.2382
  154SAPE   H8Y17099   5.558   3.830   5.473  0.0999 -3.2465  4.2313
  154SAPE   C3917100   5.628   4.041   5.437  0.0288  0.2747  0.0001
  154SAPE   H9X17101   5.736   4.020   5.418 -0.0970  0.1208 -0.5666
  154SAPE   H9Y17102   5.613   4.131   5.500  1.8481 -2.2804  4.5459
  154SAPE  C31017103   5.559   4.051   5.299  0.4141  1.1743 -0.0283
  154SAPE  H10X17104   5.553   3.948   5.257  0.1196  1.1742  0.0102
  154SAPE  H10Y17105   5.632   4.112   5.242  0.0348  1.8349  0.1783
  154SAPE  C31117106   5.417   4.112   5.289 -0.1214 -0.7249 -0.4891
  154SAPE  H11X17107   5.436   4.221   5.275  1.6276 -0.8577  0.5875
  154SAPE  H11Y17108   5.360   4.108   5.384  0.1089 -2.2921 -0.3871
  154SAPE  C31217109   5.337   4.069   5.168  0.0822 -0.0123  0.0034
  154SAPE  H12X17110   5.313   3.962   5.186  1.1215 -0.1958  0.3411
  154SAPE  H12Y17111   5.406   4.060   5.081  0.0893 -0.7749  0.0815
  154SAPE  C31317112   5.212   4.154   5.136  1.0067  0.4145  0.3678
  154SAPE  H13X17113   5.233   4.255   5.095  2.8135  0.3409  1.0093
  154SAPE  H13Y17114   5.152   4.164   5.229  0.7996 -0.5181  0.3432
  154SAPE  C31417115   5.118   4.087   5.033  0.0057  0.1401 -1.0954
  154SAPE  H14X17116   5.034   4.159   5.022 -0.0611  0.2837  0.1677
  154SAPE  H14Y17117   5.080   3.991   5.073  0.6356  1.2035  2.4155
  154SAPE  C31517118   5.173   4.071   4.893  0.4069 -0.0717  0.2423
  154SAPE  H15X17119   5.131   3.975   4.858  1.1044  0.1115 -1.1877
  154SAPE  H15Y17120   5.282   4.055   4.912 -0.1055 -0.6125  3.1492
  154SAPE  C31617121   5.143   4.189   4.792  0.2884 -0.0288 -0.7229
  154SAPE  H16X17122   5.182   4.287   4.826 -3.0906  1.0230  0.5391
  154SAPE  H16Y17123   5.033   4.200   4.799  0.3875 -0.0746  1.8965
  154SAPE  C31717124   5.180   4.171   4.648  0.1811  0.4614  0.3964
  154SAPE  H17X17125   5.146   4.259   4.589  2.4450  0.9083 -0.3111
  154SAPE  H17Y17126   5.138   4.080   4.600 -1.0537  0.8201  0.7431
  154SAPE  C31817127   5.335   4.170   4.614 -0.4306  0.0555  0.2093
  154SAPE  H18X17128   5.392   4.252   4.662 -0.6352 -1.1908  2.7907
  154SAPE  H18Y17129   5.341   4.175   4.503  0.1894  0.0941  0.2393
  154SAPE  H18Z17130   5.374   4.070   4.645  0.1137  0.6311  1.4446
  155SAPE     N17131   1.943   5.434   6.778  0.7458 -0.2343  0.7074
  155SAPE   HN117132   1.906   5.401   6.869 -0.7631  0.7700  0.5037
  155SAPE   HN217133   1.876   5.392   6.710  0.8303  0.1283  0.3970
  155SAPE   HN317134   2.036   5.389   6.766 -0.2144 -1.7498 -1.8503
  155SAPE   C1217135   1.950   5.583   6.743 -0.4285  0.8886  0.3806
  155SAPE  H12A17136   1.961   5.597   6.633 -1.0379 -3.7205 -0.4839
  155SAPE  H12B17137   2.030   5.622   6.808 -0.8217  2.9608 -0.2940
  155SAPE   C1117138   1.816   5.649   6.780 -0.0245  0.3016 -0.4521
  155SAPE  H11A17139   1.825   5.753   6.741  0.7903  0.1909 -0.5635
  155SAPE  H11B17140   1.807   5.651   6.890 -0.0489 -2.0837 -0.3609
  155SAPE     P17141   1.580   5.660   6.672 -0.0362  0.0205  0.0479
  155SAPE   O1317142   1.459   5.574   6.676 -0.0235  0.7287  0.1247
  155SAPE   O1417143   1.567   5.790   6.737  0.0206  0.2238 -0.0050
  155SAPE   O1217144   1.705   5.581   6.730  0.6609 -0.3498 -0.1105
  155SAPE   O1117145   1.609   5.676   6.516  0.0160 -0.4394  0.1263
  155SAPE    C117146   1.591   5.570   6.426  0.2778  0.7001 -0.1041
  155SAPE    HA17147   1.522   5.492   6.465 -0.2817  0.1387 -2.1181
  155SAPE    HB17148   1.535   5.614   6.341 -0.4015 -0.7655 -0.4415
  155SAPE    C217149   1.732   5.523   6.371 -0.1370 -0.3983  0.2437
  155SAPE    HS17150   1.804   5.494   6.450  0.7719  0.8375 -0.1010
  155SAPE   O2117151   1.781   5.627   6.288 -0.3888 -0.2834  0.1006
  155SAPE   C2117152   1.915   5.653   6.284  1.0839  0.0051 -0.5643
  155SAPE   O2217153   1.998   5.606   6.364 -0.1380 -0.1340  0.5886
  155SAPE   C2217154   1.937   5.715   6.146  0.8020  0.6014 -0.3782
  155SAPE   H2R17155   1.896   5.642   6.073  1.6975  2.1590 -2.5676
  155SAPE   H2S17156   1.893   5.816   6.128 -0.2331  0.7275  2.4065
  155SAPE    C317157   1.718   5.399   6.270  0.0133  0.0495 -0.6326
  155SAPE    HX17158   1.650   5.439   6.192 -1.2954 -3.2352 -1.3080
  155SAPE    HY17159   1.658   5.317   6.315  1.7897 -1.4696 -0.9053
  155SAPE   O3117160   1.845   5.362   6.209  0.5956 -0.1220  0.4842
  155SAPE   C3117161   1.896   5.255   6.261  0.0592  0.1684 -0.6711
  155SAPE   O3217162   1.857   5.184   6.352 -0.1156  0.0372 -0.4770
  155SAPE   C3217163   2.034   5.238   6.204  0.5626  0.4827 -0.5571
  155SAPE   H2X17164   2.091   5.185   6.283  1.3287 -1.7134 -2.4694
  155SAPE   H2Y17165   2.087   5.336   6.198 -0.8084  1.3004  0.1949
  155SAPE   C2317166   2.085   5.744   6.109  0.2313 -0.1588  0.5715
  155SAPE   H3R17167   2.144   5.655   6.137  1.8400  1.0792  1.2641
  155SAPE   H3S17168   2.117   5.835   6.164  0.2215 -0.3452  0.8812
  155SAPE   C2417169   2.104   5.760   5.957 -0.8213  0.3428 -0.2509
  155SAPE   H4R17170   2.049   5.678   5.906  2.5744 -2.1476 -0.2277
  155SAPE   H4S17171   2.212   5.743   5.935 -0.4311 -0.4647  2.0062
  155SAPE   C2517172   2.073   5.899   5.912  0.0232  0.0690  0.0155
  155SAPE   H5R17173   2.157   5.971   5.908 -0.8661  1.3340  2.0997
  155SAPE   C2617174   1.962   5.933   5.841  0.0030 -0.7688  0.4021
  155SAPE   H6R17175   1.946   6.040   5.820 -0.2349 -0.7403  0.7124
  155SAPE   C2717176   1.844   5.841   5.818  0.5286 -0.8133 -0.9436
  155SAPE   H7R17177   1.779   5.848   5.907 -0.3854  0.5690 -1.6862
  155SAPE   H7S17178   1.868   5.733   5.815 -0.1909 -1.0431  0.6664
  155SAPE   C2817179   1.767   5.891   5.696 -0.5402 -0.1513  0.2897
  155SAPE   H8R17180   1.690   5.967   5.712 -0.4752 -0.0180 -0.0376
  155SAPE   C2917181   1.783   5.848   5.567  0.2663 -0.5300 -0.3513
  155SAPE   H9R17182   1.730   5.894   5.482  1.8714 -1.6216 -2.0041
  155SAPE  C21017183   1.887   5.750   5.525 -0.5348 -0.7158  0.4532
  155SAPE  H10R17184   1.857   5.658   5.580 -2.3167 -1.2135 -1.2195
  155SAPE  H10S17185   1.991   5.783   5.549 -0.3561 -1.3696  0.5992
  155SAPE  C21117186   1.875   5.725   5.377 -0.4489  0.1007  0.4084
  155SAPE  H11R17187   1.772   5.733   5.339  0.0012  0.2606 -0.8340
  155SAPE  C21217188   1.975   5.695   5.289 -0.4188  0.5313 -0.6612
  155SAPE  H12R17189   1.949   5.687   5.182 -0.9317 -0.7590 -0.4587
  155SAPE  C21317190   2.120   5.696   5.337  0.1949  0.9747  0.0264
  155SAPE  H13R17191   2.181   5.647   5.257 -3.1947  0.0358 -2.1966
  155SAPE  H13S17192   2.125   5.639   5.432  2.3082 -0.6834 -0.9815
  155SAPE  C21417193   2.176   5.834   5.343  0.6178  0.3961 -0.0797
  155SAPE  H14R17194   2.174   5.882   5.443  0.9816 -0.6433  0.4349
  155SAPE  C21517195   2.229   5.904   5.239 -0.1014 -0.5451  0.6447
  155SAPE  H15R17196   2.281   5.996   5.272  1.5924 -2.5721  4.2037
  155SAPE  C21617197   2.237   5.872   5.092 -0.7980 -0.0183  0.4080
  155SAPE  H16R17198   2.218   5.764   5.073 -0.8691  0.2581 -1.1551
  155SAPE  H16S17199   2.341   5.894   5.059 -0.1946 -3.0390  0.0087
  155SAPE  C21717200   2.140   5.954   5.008 -0.2502 -0.2920  0.0327
  155SAPE  H17R17201   2.150   6.064   5.014 -1.7431 -0.2141  1.9455
  155SAPE  H17S17202   2.036   5.935   5.040 -0.8224  0.1162 -1.5006
  155SAPE  C21817203   2.130   5.916   4.857  0.0281 -0.0092  0.9404
  155SAPE  H18R17204   2.112   5.807   4.849  1.4447 -0.1868 -0.3896
  155SAPE  H18S17205   2.228   5.923   4.805 -0.6490 -1.6505 -0.6484
  155SAPE  C21917206   2.040   6.008   4.784  0.5064 -0.6809 -0.5001
  155SAPE  H19R17207   2.066   6.115   4.800  1.9308 -1.1768  0.7128
  155SAPE  H19S17208   1.935   5.995   4.819  0.7857  1.3456  1.3708
  155SAPE  C22017209   2.048   5.970   4.639  0.2910  0.1581  0.5972
  155SAPE  H20R17210   1.991   6.046   4.581 -1.1265 -0.2112  1.4526
  155SAPE  H20S17211   2.007   5.868   4.618 -1.5602  0.9259  0.2583
  155SAPE  H20T17212   2.151   5.982   4.600  0.2804  1.1933  0.8675
  155SAPE   C3317213   2.039   5.162   6.069 -0.2742  0.0231  0.2632
  155SAPE   H3X17214   2.007   5.055   6.075  0.8370 -0.6286 -3.2062
  155SAPE   H3Y17215   2.143   5.143   6.035  0.3345 -1.8925  2.8621
  155SAPE   C3417216   1.958   5.225   5.956  0.4696  0.5842  0.3200
  155SAPE   H4X17217   1.849   5.215   5.973  0.2308  0.9019 -0.9590
  155SAPE   H4Y17218   1.977   5.155   5.871  1.1526  1.1797 -0.0296
  155SAPE   C3517219   1.996   5.360   5.919 -0.9253 -0.2262  0.2776
  155SAPE   H5X17220   2.105   5.364   5.897 -1.0373  0.7582 -0.1511
  155SAPE   H5Y17221   1.970   5.429   6.002 -0.8580 -1.5510  1.4384
  155SAPE   C3617222   1.927   5.402   5.779 -1.1063  0.3491 -0.4625
  155SAPE   H6X17223   1.950   5.510   5.769 -1.9753  0.6724  0.8242
  155SAPE   H6Y17224   1.817   5.387   5.783 -1.1777  1.0380  0.5184
  155SAPE   C3717225   1.982   5.325   5.662  0.1132  0.1458  0.1198
  155SAPE   H7X17226   1.963   5.216   5.674 -1.1928  0.0267 -2.3753
  155SAPE   H7Y17227   2.091   5.349   5.665  0.3885 -0.5924 -2.1157
  155SAPE   C3817228   1.939   5.370   5.523  0.6966  1.0560 -0.1562
  155SAPE   H8X17229   1.990   5.468   5.511  1.7134  0.6739  0.8107
  155SAPE   H8Y17230   1.829   5.380   5.527  0.3517 -2.1523  1.1652
  155SAPE   C3917231   1.976   5.278   5.405  0.2420  0.4007  0.2937
  155SAPE   H9X17232   1.933   5.179   5.434  1.1616 -0.7243 -1.9882
  155SAPE   H9Y17233   2.086   5.269   5.391  0.5919  3.4885  0.4163
  155SAPE  C31017234   1.915   5.331   5.272  0.3519 -0.4045  0.0016
  155SAPE  H10X17235   1.952   5.434   5.251  1.5324 -1.0645 -1.4297
  155SAPE  H10Y17236   1.806   5.345   5.283  0.3440 -1.3354  1.2436
  155SAPE  C31117237   1.950   5.255   5.145  0.5743  0.3912  0.6589
  155SAPE  H11X17238   1.896   5.158   5.156 -0.3516  0.9747  1.4770
  155SAPE  H11Y17239   2.057   5.241   5.120 -0.4611 -1.2747 -3.7621
  155SAPE  C31217240   1.881   5.329   5.024 -0.5980  0.4627 -0.2923
  155SAPE  H12X17241   1.918   5.434   5.024  0.8558 -0.0353  0.1869
  155SAPE  H12Y17242   1.770   5.325   5.034 -0.8844 -1.5659 -3.1125
  155SAPE  C31317243   1.916   5.266   4.890 -0.0934  0.1563 -0.0890
  155SAPE  H13X17244   1.905   5.156   4.888 -0.1565  0.1512 -2.5836
  155SAPE  H13Y17245   2.025   5.275   4.872 -0.1025  2.7597  0.7537
  155SAPE  C31417246   1.853   5.328   4.771  0.1461 -0.9787  0.3936
  155SAPE  H14X17247   1.871   5.438   4.764  1.1098 -1.0562  1.4265
  155SAPE  H14Y17248   1.744   5.329   4.790  0.3339  1.3146  1.7662
  155SAPE  C31517249   1.878   5.254   4.643 -0.0191 -0.0368  0.2474
  155SAPE  H15X17250   1.872   5.146   4.667  0.4993 -0.0423  0.3626
  155SAPE  H15Y17251   1.983   5.264   4.607  0.4289 -3.2078  0.3901
  155SAPE  C31617252   1.771   5.283   4.537  0.4222  0.4774 -0.3370
  155SAPE  H16X17253   1.671   5.252   4.575  0.5682  0.2391 -0.1394
  155SAPE  H16Y17254   1.793   5.211   4.455  0.7062 -0.1284  0.2570
  155SAPE  C31717255   1.775   5.422   4.478 -0.0741  0.1062  0.4734
  155SAPE  H17X17256   1.877   5.460   4.459 -0.1741  1.1406  1.8959
  155SAPE  H17Y17257   1.733   5.494   4.552  0.1756 -2.2011  3.0098
  155SAPE  C31817258   1.695   5.429   4.349  0.2900 -0.0978 -0.0477
  155SAPE  H18X17259   1.750   5.378   4.266  2.9380  1.8427  0.3651
  155SAPE  H18Y17260   1.691   5.535   4.317  2.4471  0.2422  0.5952
  155SAPE  H18Z17261   1.592   5.391   4.363  1.1377 -1.8426  2.0700
  156SAPE     N17262   2.436   6.960   6.785 -0.3039  0.0840 -0.5331
  156SAPE   HN117263   2.404   7.058   6.798 -0.8023 -0.1846  0.3402
  156SAPE   HN217264   2.356   6.897   6.805  0.7523 -1.1795 -0.1640
  156SAPE   HN317265   2.516   6.951   6.852  0.1208  0.4658 -0.9762
  156SAPE   C1217266   2.494   6.965   6.651  0.5955 -0.0575 -0.7688
  156SAPE  H12A17267   2.431   6.909   6.579  0.9236  0.0458 -1.1367
  156SAPE  H12B17268   2.596   6.924   6.663  0.4662  0.2410  1.9572
  156SAPE   C1117269   2.488   7.114   6.607 -0.5197 -0.0924  0.5652
  156SAPE  H11A17270   2.514   7.114   6.499 -0.4532  0.7132  0.5725
  156SAPE  H11B17271   2.573   7.172   6.650 -0.0485 -0.0127 -0.4440
  156SAPE     P17272   2.276   7.251   6.526  0.1532 -0.1268 -0.3866
  156SAPE   O1317273   2.176   7.328   6.603 -0.2852 -0.1353  0.2196
  156SAPE   O1417274   2.365   7.330   6.438 -0.4405 -0.2179 -1.3093
  156SAPE   O1217275   2.363   7.176   6.626 -0.6678  0.5256  0.0881
  156SAPE   O1117276   2.205   7.122   6.453  0.3410  0.0372  0.7689
  156SAPE    C117277   2.071   7.086   6.493 -0.0488 -0.4355 -0.5402
  156SAPE    HA17278   2.084   6.978   6.513  0.9691  0.0434  1.6420
  156SAPE    HB17279   2.052   7.124   6.595  1.7539 -0.4814 -0.1406
  156SAPE    C217280   1.957   7.115   6.395 -0.0783 -0.2811 -0.2098
  156SAPE    HS17281   1.874   7.057   6.440  0.2677 -0.4925  0.1650
  156SAPE   O2117282   1.988   7.074   6.263 -0.1197 -0.2078  0.2434
  156SAPE   C2117283   2.024   6.950   6.252 -0.4503 -1.1515 -0.3981
  156SAPE   O2217284   1.988   6.857   6.322  0.3595  0.1613  0.6076
  156SAPE   C2217285   2.101   6.931   6.127  0.0884  0.3400 -0.2003
  156SAPE   H2R17286   2.207   6.954   6.150  0.9698 -3.2065 -0.2108
  156SAPE   H2S17287   2.089   6.822   6.108  0.9049  0.7032 -3.3565
  156SAPE    C317288   1.916   7.268   6.395 -0.1810 -0.7007  0.3706
  156SAPE    HX17289   2.007   7.326   6.368 -2.0926  1.5191 -1.8345
  156SAPE    HY17290   1.892   7.295   6.500  0.6329  1.1145  0.1170
  156SAPE   O3117291   1.807   7.295   6.307  0.0196 -0.0257 -0.0253
  156SAPE   C3117292   1.824   7.407   6.235 -0.7450 -1.0962  0.8238
  156SAPE   O3217293   1.902   7.499   6.260 -0.1088 -0.0943  0.1099
  156SAPE   C3217294   1.738   7.411   6.115  0.8547 -0.2564 -0.1716
  156SAPE   H2X17295   1.714   7.516   6.088 -1.8915  0.1638  3.1950
  156SAPE   H2Y17296   1.644   7.358   6.141  1.0443 -0.5550 -0.0830
  156SAPE   C2317297   2.050   6.984   5.987 -0.4056 -0.4041 -0.2515
  156SAPE   H3R17298   2.082   7.090   5.977 -0.9025 -0.3797 -1.8903
  156SAPE   H3S17299   1.940   6.973   5.982 -0.5112  0.3657  0.1967
  156SAPE   C2417300   2.114   6.915   5.864 -0.0778 -0.2304  0.9145
  156SAPE   H4R17301   2.095   6.806   5.866  1.4995 -0.5824 -0.8404
  156SAPE   H4S17302   2.222   6.937   5.876 -0.3143  1.5320  0.1766
  156SAPE   C2517303   2.061   6.990   5.745 -0.0478  0.0636  0.4768
  156SAPE   H5R17304   2.043   7.097   5.761  1.7887  0.3530  0.7887
  156SAPE   C2617305   2.016   6.930   5.634 -0.2611 -0.4874  0.3148
  156SAPE   H6R17306   1.970   6.992   5.555 -0.4139 -2.1172 -0.9264
  156SAPE   C2717307   2.019   6.783   5.595 -0.2147  0.5671  0.9338
  156SAPE   H7R17308   1.913   6.758   5.575 -0.0308  0.3549  0.2113
  156SAPE   H7S17309   2.047   6.716   5.679 -0.8284  1.8389  2.2153
  156SAPE   C2817310   2.103   6.749   5.482 -0.4485 -0.0853 -0.6237
  156SAPE   H8R17311   2.202   6.707   5.507  1.3263  2.5977 -2.4637
  156SAPE   C2917312   2.078   6.753   5.355 -0.0144  0.9901 -0.0388
  156SAPE   H9R17313   2.156   6.717   5.286 -1.6334 -1.1581 -0.9055
  156SAPE  C21017314   1.946   6.816   5.306  0.0930 -0.4484 -0.3744
  156SAPE  H10R17315   1.886   6.872   5.381  0.3173 -1.1696  0.3564
  156SAPE  H10S17316   1.876   6.744   5.259 -1.6003  0.5712  0.4741
  156SAPE  C21117317   1.986   6.917   5.203  0.7554  0.1042  1.0944
  156SAPE  H11R17318   2.033   7.007   5.245  0.6307  0.4017  0.6029
  156SAPE  C21217319   1.972   6.901   5.066  0.4559  0.8306 -0.0729
  156SAPE  H12R17320   2.014   6.979   5.001  0.6497  0.7294 -0.0709
  156SAPE  C21317321   1.939   6.778   4.985  0.2447 -0.3614 -0.1580
  156SAPE  H13R17322   2.024   6.708   4.998 -1.2203 -1.6888  3.6132
  156SAPE  H13S17323   1.962   6.802   4.879  0.2964  0.3275  0.0064
  156SAPE  C21417324   1.804   6.715   5.002  0.1473 -1.1458  0.3631
  156SAPE  H14R17325   1.722   6.782   4.973 -0.0923 -1.1116  1.1145
  156SAPE  C21517326   1.777   6.587   5.027 -0.0981 -0.2208  0.3805
  156SAPE  H15R17327   1.671   6.562   5.046  0.0137  1.0496  3.0933
  156SAPE  C21617328   1.878   6.471   5.055  0.3268  0.4846  0.2363
  156SAPE  H16R17329   1.886   6.453   5.164  0.8607  2.0968  0.4719
  156SAPE  H16S17330   1.980   6.502   5.026  0.7244 -0.5887  0.4223
  156SAPE  C21717331   1.837   6.345   4.976  0.2673  0.3752  0.4673
  156SAPE  H17R17332   1.730   6.316   4.970  0.7448 -2.3221  2.8584
  156SAPE  H17S17333   1.883   6.263   5.034 -1.0484  1.2003  2.8207
  156SAPE  C21817334   1.883   6.353   4.824 -0.6903 -0.6257  0.2524
  156SAPE  H18R17335   1.990   6.323   4.820 -0.9824 -1.6638 -0.0567
  156SAPE  H18S17336   1.875   6.461   4.800 -2.1106 -0.6317  0.6112
  156SAPE  C21917337   1.794   6.277   4.727  0.3415  0.6945  0.1759
  156SAPE  H19R17338   1.691   6.317   4.738 -0.7154 -1.4659 -1.2303
  156SAPE  H19S17339   1.805   6.171   4.757  1.3555  0.3272 -1.3761
  156SAPE  C22017340   1.837   6.290   4.577 -0.5082  0.0374  0.2817
  156SAPE  H20R17341   1.830   6.399   4.554  1.4947  0.5495  1.7879
  156SAPE  H20S17342   1.778   6.229   4.505  1.2118 -2.1232  0.6289
  156SAPE  H20T17343   1.942   6.258   4.570  0.3896  2.7922 -0.3047
  156SAPE   C3317344   1.806   7.361   5.987  0.3373 -0.7583 -0.1148
  156SAPE   H3X17345   1.845   7.259   6.007 -0.4475 -1.1588 -0.5609
  156SAPE   H3Y17346   1.898   7.417   5.961  1.0802 -0.6188  2.4620
  156SAPE   C3417347   1.707   7.338   5.872  0.1415  0.0611  0.0502
  156SAPE   H4X17348   1.645   7.427   5.848  1.5517  0.8367 -0.8499
  156SAPE   H4Y17349   1.624   7.276   5.913 -1.4880  1.8915 -0.3569
  156SAPE   C3517350   1.774   7.274   5.753  0.0797 -0.1254  0.0023
  156SAPE   H5X17351   1.815   7.172   5.770 -1.4073 -0.5166  1.4981
  156SAPE   H5Y17352   1.848   7.339   5.702  0.5333 -2.2122 -2.2052
  156SAPE   C3617353   1.664   7.257   5.640 -0.2024  0.4029  0.3307
  156SAPE   H6X17354   1.614   7.355   5.625  1.2676  1.4102  1.6722
  156SAPE   H6Y17355   1.594   7.174   5.662 -1.1234  1.1801  0.3759
  156SAPE   C3717356   1.728   7.228   5.497  0.6853  0.1232  0.3223
  156SAPE   H7X17357   1.759   7.121   5.493  1.0926  0.2729 -1.3772
  156SAPE   H7Y17358   1.808   7.305   5.496  0.1952  0.6396  0.0497
  156SAPE   C3817359   1.625   7.261   5.382  0.4615  0.0485 -0.0639
  156SAPE   H8X17360   1.586   7.365   5.392 -2.7141 -1.1089  0.9043
  156SAPE   H8Y17361   1.540   7.196   5.412 -0.7222  0.9137 -1.4435
  156SAPE   C3917362   1.674   7.221   5.240  0.3063 -0.1039  0.5409
  156SAPE   H9X17363   1.593   7.210   5.164  1.4331  0.5337 -0.7838
  156SAPE   H9Y17364   1.711   7.117   5.257 -0.2662 -0.5479 -0.8249
  156SAPE  C31017365   1.796   7.299   5.184  0.1165 -0.2178  0.1406
  156SAPE  H10X17366   1.819   7.256   5.084  1.3675  2.4438 -0.8125
  156SAPE  H10Y17367   1.883   7.296   5.253  0.1716  0.0857  0.0856
  156SAPE  C31117368   1.768   7.449   5.152 -0.4334 -0.3547 -0.9240
  156SAPE  H11X17369   1.866   7.490   5.118  0.9030 -2.3448  0.2870
  156SAPE  H11Y17370   1.743   7.501   5.246  0.4785 -0.9671 -0.3259
  156SAPE  C31217371   1.665   7.465   5.044  0.2040 -0.6010  0.1060
  156SAPE  H12X17372   1.570   7.428   5.088  1.6465 -3.3347  1.1528
  156SAPE  H12Y17373   1.689   7.412   4.949  0.4600  1.6226 -1.1308
  156SAPE  C31317374   1.645   7.613   5.011  0.1571  0.1517  0.1185
  156SAPE  H13X17375   1.689   7.682   5.086 -0.0306 -0.5120  0.8568
  156SAPE  H13Y17376   1.535   7.628   4.999  0.2499  0.0459 -0.9631
  156SAPE  C31417377   1.698   7.646   4.868 -0.1871  0.0754  0.2458
  156SAPE  H14X17378   1.639   7.733   4.832  0.9316  1.1160  0.8588
  156SAPE  H14Y17379   1.680   7.559   4.800  0.4855  1.0251 -1.1981
  156SAPE  C31517380   1.846   7.679   4.864  0.1528  0.3388 -0.2543
  156SAPE  H15X17381   1.893   7.706   4.767 -0.3167  2.7562  0.1392
  156SAPE  H15Y17382   1.892   7.580   4.888  0.3841  0.3493 -0.6470
  156SAPE  C31617383   1.911   7.779   4.967  1.3057  0.2475  0.9468
  156SAPE  H16X17384   2.021   7.776   4.953  1.2185  1.3308 -0.1261
  156SAPE  H16Y17385   1.895   7.740   5.070  2.4168  1.3831  1.5794
  156SAPE  C31717386   1.836   7.912   4.978  0.5234 -0.0096  0.2901
  156SAPE  H17X17387   1.728   7.891   4.987 -0.0400  2.2971 -0.5502
  156SAPE  H17Y17388   1.847   7.955   4.876 -1.1723 -0.7867 -0.2430
  156SAPE  C31817389   1.898   8.001   5.088 -0.5243  0.0290 -0.4140
  156SAPE  H18X17390   1.996   8.048   5.067 -0.5795  0.7876  0.8867
  156SAPE  H18Y17391   1.902   7.946   5.184 -2.0922 -2.0288 -1.4537
  156SAPE  H18Z17392   1.834   8.090   5.107 -1.6350  0.2960 -4.3747
  157SAPE     N17393   6.614   3.620   6.695  0.0314  0.7151  0.1390
  157SAPE   HN117394   6.596   3.518   6.699 -1.5503  0.9079 -0.9214
  157SAPE   HN217395   6.706   3.638   6.739  0.9934 -0.4086 -1.3210
  157SAPE   HN317396   6.533   3.652   6.753 -1.4640 -0.2720 -1.3039
  157SAPE   C1217397   6.625   3.673   6.558 -0.3434 -0.9768 -0.0943
  157SAPE  H12A17398   6.661   3.586   6.499 -0.7134 -0.1532 -1.5749
  157SAPE  H12B17399   6.700   3.755   6.552 -2.2888  0.8583 -0.2008
  157SAPE   C1117400   6.489   3.731   6.516 -0.7440 -0.0703  0.2537
  157SAPE  H11A17401   6.410   3.653   6.509 -1.2151  0.2969  1.2887
  157SAPE  H11B17402   6.514   3.763   6.412  0.8346 -1.4610  0.1638
  157SAPE     P17403   6.308   3.880   6.631  0.0102  0.3757  0.1508
  157SAPE   O1317404   6.232   3.776   6.694 -0.1174  0.1143  0.1498
  157SAPE   O1417405   6.303   4.012   6.695 -1.4362 -0.0283  0.0764
  157SAPE   O1217406   6.457   3.834   6.606 -0.2687 -0.2150 -0.5574
  157SAPE   O1117407   6.257   3.904   6.478 -0.6004 -0.6454 -0.6909
  157SAPE    C117408   6.323   3.997   6.383 -0.3276 -0.1015  0.4634
  157SAPE    HA17409   6.418   4.039   6.422 -0.8969  0.5351  1.1900
  157SAPE    HB17410   6.353   3.942   6.290  2.0187 -0.2405  1.2329
  157SAPE    C217411   6.228   4.114   6.361 -0.0476 -1.2028 -0.3455
  157SAPE    HS17412   6.184   4.131   6.461  1.3051 -1.1555  0.2562
  157SAPE   O2117413   6.132   4.070   6.273  0.3645 -0.0300 -0.7291
  157SAPE   C2117414   6.016   4.149   6.246  0.3682  0.4447 -0.4395
  157SAPE   O2217415   5.994   4.259   6.296  0.0239 -0.2990  0.6355
  157SAPE   C2217416   5.920   4.076   6.154 -0.2708  0.0748  0.3750
  157SAPE   H2R17417   5.826   4.067   6.214 -0.3277 -0.2129  0.2466
  157SAPE   H2S17418   5.899   4.138   6.065  0.6260  1.6031  1.2009
  157SAPE    C317419   6.310   4.236   6.317 -1.0699 -0.1604  0.1230
  157SAPE    HX17420   6.370   4.261   6.407  0.7937 -0.2096 -1.0602
  157SAPE    HY17421   6.245   4.325   6.301 -1.5444 -0.7445 -1.3344
  157SAPE   O3117422   6.386   4.221   6.197 -0.0005  0.2135 -0.0407
  157SAPE   C3117423   6.476   4.322   6.189  0.2305 -0.8400 -0.3255
  157SAPE   O3217424   6.494   4.409   6.277  0.1679 -0.4978  0.1783
  157SAPE   C3217425   6.527   4.344   6.053  0.2523  0.0669  0.5657
  157SAPE   H2X17426   6.438   4.344   5.987  0.2208 -0.2273  0.6073
  157SAPE   H2Y17427   6.597   4.260   6.035 -1.4726 -1.0651 -1.3254
  157SAPE   C2317428   5.955   3.930   6.096  0.2266 -0.5584 -0.1572
  157SAPE   H3R17429   5.873   3.886   6.036 -0.4724 -0.1426  0.4675
  157SAPE   H3S17430   5.973   3.861   6.182 -0.6473  2.0946  2.3116
  157SAPE   C2417431   6.080   3.929   6.008  0.3119  0.5822  0.0367
  157SAPE   H4R17432   6.109   3.823   5.994 -1.0484  0.2169 -0.1464
  157SAPE   H4S17433   6.162   3.986   6.056 -0.3648  3.0034 -1.5026
  157SAPE   C2517434   6.047   3.990   5.875 -0.5441 -0.1521  0.4542
  157SAPE   H5R17435   5.943   3.970   5.847 -0.4287 -0.8261  0.5052
  157SAPE   C2617436   6.122   4.064   5.791 -0.7434  0.1591  0.1255
  157SAPE   H6R17437   6.075   4.096   5.698 -1.7560 -1.3158  0.0944
  157SAPE   C2717438   6.272   4.096   5.814  0.5107  0.1774 -0.4880
  157SAPE   H7R17439   6.324   3.999   5.800  1.7319  0.7754 -0.1967
  157SAPE   H7S17440   6.292   4.105   5.923 -1.2264 -1.2890  0.0128
  157SAPE   C2817441   6.341   4.201   5.728 -0.8593 -0.5958  0.2147
  157SAPE   H8R17442   6.430   4.244   5.774 -2.1603  1.7988  0.6250
  157SAPE   C2917443   6.339   4.223   5.596 -0.2249 -0.4242 -0.1000
  157SAPE   H9R17444   6.403   4.304   5.556 -0.2177 -0.8329 -0.9293
  157SAPE  C21017445   6.261   4.158   5.484  0.0517  0.0645 -1.2706
  157SAPE  H10R17446   6.275   4.204   5.384  0.9850  1.5459 -0.5026
  157SAPE  H10S17447   6.156   4.178   5.514  0.6913 -1.2451  2.3451
  157SAPE  C21117448   6.287   4.013   5.474  0.7454  0.0423  0.0334
  157SAPE  H11R17449   6.387   3.974   5.498 -0.2324 -2.4791  0.2480
  157SAPE  C21217450   6.195   3.920   5.447  0.6039 -0.3426  0.2831
  157SAPE  H12R17451   6.234   3.819   5.430  0.6251 -0.9055  3.2678
  157SAPE  C21317452   6.048   3.952   5.419 -0.1569  0.4552 -0.1565
  157SAPE  H13R17453   6.033   4.048   5.366  0.6208  1.5252  1.4895
  157SAPE  H13S17454   5.987   3.966   5.511 -1.2000 -0.5660 -0.6579
  157SAPE  C21417455   5.982   3.840   5.343 -0.1434 -0.2974  0.5311
  157SAPE  H14R17456   5.976   3.748   5.403  0.9142  1.2338  3.1197
  157SAPE  C21517457   5.931   3.844   5.221  0.4040 -0.4287  0.5557
  157SAPE  H15R17458   5.907   3.748   5.174  0.8085 -0.9557  1.3962
  157SAPE  C21617459   5.929   3.963   5.120 -0.2360 -0.9447  0.0830
  157SAPE  H16R17460   5.996   4.045   5.153 -0.8275 -0.2218 -0.4553
  157SAPE  H16S17461   5.831   4.015   5.119  0.0012 -0.4985 -0.4227
  157SAPE  C21717462   5.981   3.944   4.972  0.1549 -0.7652 -0.0308
  157SAPE  H17R17463   5.917   3.868   4.922  0.5176 -0.8892 -0.3104
  157SAPE  H17S17464   6.078   3.891   4.981  0.5060  0.0954  1.6361
  157SAPE  C21817465   5.993   4.068   4.885  0.3979  1.3262 -0.1486
  157SAPE  H18R17466   6.057   4.148   4.928  0.4053  0.1933  2.1143
  157SAPE  H18S17467   5.888   4.102   4.873 -0.1333 -0.6972 -1.8849
  157SAPE  C21917468   6.057   4.029   4.753 -0.0253 -0.6610  0.3397
  157SAPE  H19R17469   5.988   3.955   4.708 -0.9093  0.6230 -0.4809
  157SAPE  H19S17470   6.153   3.973   4.751  0.4189  0.1053 -0.9939
  157SAPE  C22017471   6.080   4.150   4.660 -0.0154 -0.5643  0.3092
  157SAPE  H20R17472   6.115   4.103   4.566  0.9826  1.0974 -0.1956
  157SAPE  H20S17473   6.153   4.221   4.706  0.4058  0.2523 -1.5449
  157SAPE  H20T17474   5.980   4.198   4.652 -0.2598 -0.9948  0.7474
  157SAPE   C3317475   6.595   4.483   6.030  0.5910  0.2539 -0.4712
  157SAPE   H3X17476   6.694   4.484   6.082 -0.7078  0.4883  2.1665
  157SAPE   H3Y17477   6.541   4.569   6.074  1.2986  0.9558 -0.9471
  157SAPE   C3417478   6.626   4.514   5.879  0.6298  0.3620  0.1103
  157SAPE   H4X17479   6.666   4.617   5.868  1.8741 -0.1643 -0.5095
  157SAPE   H4Y17480   6.525   4.519   5.833  0.7814  0.4670 -0.2146
  157SAPE   C3517481   6.708   4.407   5.806  0.6581  0.0890  0.1755
  157SAPE   H5X17482   6.649   4.313   5.809  0.5151  0.0793 -1.7734
  157SAPE   H5Y17483   6.809   4.402   5.851  0.5537  0.3910  0.4459
  157SAPE   C3617484   6.724   4.458   5.662  0.0686  0.1850 -0.4630
  157SAPE   H6X17485   6.765   4.560   5.644 -0.8031  0.7397  0.5461
  157SAPE   H6Y17486   6.626   4.439   5.612 -0.7417 -1.3848  1.5833
  157SAPE   C3717487   6.831   4.369   5.598  0.3920  0.0951  0.0249
  157SAPE   H7X17488   6.819   4.263   5.629  1.3184  0.2080  0.8262
  157SAPE   H7Y17489   6.931   4.414   5.617 -0.2901  1.9956 -0.6463
  157SAPE   C3817490   6.793   4.362   5.443 -0.1476  0.3015  0.6684
  157SAPE   H8X17491   6.888   4.323   5.399 -1.6807 -0.4588 -2.1873
  157SAPE   H8Y17492   6.778   4.463   5.399  1.5951 -0.1839 -1.2021
  157SAPE   C3917493   6.679   4.261   5.421 -0.0642  0.3388 -0.3755
  157SAPE   H9X17494   6.586   4.298   5.468  0.4106 -0.2366  1.0790
  157SAPE   H9Y17495   6.697   4.163   5.470 -2.1171 -0.9115 -1.9601
  157SAPE  C31017496   6.650   4.242   5.273 -0.3899 -0.0931 -0.4221
  157SAPE  H10X17497   6.661   4.342   5.225  1.1257  0.7660  1.5572
  157SAPE  H10Y17498   6.551   4.201   5.241  0.4404 -1.6210 -1.1275
  157SAPE  C31117499   6.752   4.145   5.213  0.1741 -0.1161  0.5943
  157SAPE  H11X17500   6.724   4.049   5.261 -2.7357  0.5968  0.5101
  157SAPE  H11Y17501   6.855   4.182   5.235 -0.7237  3.3601 -0.4251
  157SAPE  C31217502   6.733   4.124   5.063  0.3088  0.4383  0.1795
  157SAPE  H12X17503   6.628   4.107   5.028  0.4522 -1.4269  0.5496
  157SAPE  H12Y17504   6.787   4.032   5.032  1.8459  1.2627  0.3301
  157SAPE  C31317505   6.788   4.247   4.984 -0.1135  0.1926  0.4389
  157SAPE  H13X17506   6.894   4.265   5.012  0.0756 -1.1023  0.6441
  157SAPE  H13Y17507   6.730   4.333   5.023 -0.1481  0.6874 -0.6786
  157SAPE  C31417508   6.786   4.226   4.837  0.2526 -0.2010  0.9180
  157SAPE  H14X17509   6.843   4.134   4.812  2.3213  0.8778  1.4231
  157SAPE  H14Y17510   6.828   4.313   4.782  0.1929 -0.5955  0.2406
  157SAPE  C31517511   6.642   4.229   4.777  0.0025  0.0160 -0.3231
  157SAPE  H15X17512   6.582   4.320   4.800 -1.4452 -0.9520 -0.1023
  157SAPE  H15Y17513   6.593   4.139   4.820  1.3795 -0.5362  0.1487
  157SAPE  C31617514   6.632   4.210   4.624  0.4903  0.0047  0.4245
  157SAPE  H16X17515   6.676   4.110   4.605  0.4534 -0.1325  1.0364
  157SAPE  H16Y17516   6.683   4.288   4.565 -0.7167  1.8994  1.7670
  157SAPE  C31717517   6.482   4.200   4.577 -0.6892 -0.5319 -0.2127
  157SAPE  H17X17518   6.447   4.305   4.584  1.2816  0.3108 -1.8592
  157SAPE  H17Y17519   6.430   4.137   4.652 -1.7120  0.6347  0.0775
  157SAPE  C31817520   6.465   4.137   4.438  0.4344  0.1383 -0.4283
  157SAPE  H18X17521   6.357   4.152   4.419 -0.1570 -0.0179  2.4037
  157SAPE  H18Y17522   6.500   4.031   4.437  0.3202  0.1037 -0.9027
  157SAPE  H18Z17523   6.526   4.184   4.358  2.4776  0.1285  1.0252
  158SAPE     N17524   3.588   7.067   6.972 -0.5531  0.0402  0.0643
  158SAPE   HN117525   3.504   7.042   7.028  0.3277  1.6543  2.2533
  158SAPE   HN217526   3.569   7.040   6.874  0.1929  0.7249 -0.2783
  158SAPE   HN317527   3.669   7.012   7.008 -0.4671  1.1569  1.7031
  158SAPE   C1217528   3.629   7.214   6.970 -0.3480  0.4044  0.1322
  158SAPE  H12A17529   3.692   7.239   7.058 -0.7760  2.5545 -0.1354
  158SAPE  H12B17530   3.531   7.267   6.970 -0.4810  0.2083 -1.6524
  158SAPE   C1117531   3.717   7.237   6.851  0.2239  0.1334 -0.2870
  158SAPE  H11A17532   3.768   7.335   6.860 -0.5103  0.4690  0.3814
  158SAPE  H11B17533   3.653   7.241   6.760 -2.3281  1.9370  1.4599
  158SAPE     P17534   3.943   7.152   6.759  0.4485 -0.1028  0.3135
  158SAPE   O1317535   4.039   7.230   6.839  0.1424 -0.3717  0.4632
  158SAPE   O1417536   3.985   7.021   6.702  0.2316  0.4727 -0.4538
  158SAPE   O1217537   3.805   7.124   6.841 -0.3271 -0.2006  0.4761
  158SAPE   O1117538   3.887   7.230   6.642  0.0949 -0.4515 -0.4807
  158SAPE    C117539   3.886   7.372   6.611 -0.2793 -0.0443  0.5607
  158SAPE    HA17540   3.780   7.401   6.594 -0.0963  0.0216 -0.5741
  158SAPE    HB17541   3.927   7.426   6.699  0.6674 -0.6232  0.4831
  158SAPE    C217542   3.972   7.405   6.475 -0.0150  0.0964 -0.7560
  158SAPE    HS17543   3.960   7.512   6.448 -0.5429  0.4445  0.7729
  158SAPE   O2117544   3.929   7.325   6.369  0.2592  0.3093  0.3652
  158SAPE   C2117545   3.816   7.375   6.312 -0.0737  0.8360 -0.4009
  158SAPE   O2217546   3.754   7.471   6.354  0.1010 -0.4582  0.1194
  158SAPE   C2217547   3.772   7.289   6.201 -0.0341  0.2771  0.5496
  158SAPE   H2R17548   3.859   7.239   6.153 -1.7318 -0.2619 -2.2268
  158SAPE   H2S17549   3.711   7.202   6.232  0.1939 -0.0307  0.1408
  158SAPE    C317550   4.124   7.376   6.515  0.3356 -0.3749 -0.1757
  158SAPE    HX17551   4.140   7.268   6.533 -3.4635 -0.7351  2.0974
  158SAPE    HY17552   4.138   7.430   6.611  0.6371  1.2998 -1.1190
  158SAPE   O3117553   4.215   7.426   6.419  0.1134  0.5014 -0.7796
  158SAPE   C3117554   4.244   7.354   6.314 -0.0915  0.2592 -0.0075
  158SAPE   O3217555   4.214   7.237   6.298 -0.3379 -0.4910  0.4368
  158SAPE   C3217556   4.316   7.443   6.213 -0.7335  0.3591  0.3562
  158SAPE   H2X17557   4.351   7.374   6.133 -0.6191  0.0134  0.6997
  158SAPE   H2Y17558   4.410   7.465   6.267 -0.7790 -0.6530  0.8690
  158SAPE   C2317559   3.686   7.362   6.083 -0.0639  0.2554  0.4886
  158SAPE   H3R17560   3.587   7.387   6.124  0.3569  0.7592  1.2106
  158SAPE   H3S17561   3.663   7.287   6.004  0.5211 -0.3747  0.9056
  158SAPE   C2417562   3.757   7.486   6.025 -0.2855 -0.1108  0.4474
  158SAPE   H4R17563   3.861   7.466   5.991  0.4360  0.4975  2.1577
  158SAPE   H4S17564   3.762   7.557   6.111  3.6964  1.0891 -0.5566
  158SAPE   C2517565   3.667   7.540   5.914 -1.0297  1.0508 -0.3995
  158SAPE   H5R17566   3.567   7.575   5.943 -0.3219  1.3077  1.9101
  158SAPE   C2617567   3.687   7.546   5.776  0.6589 -0.4215 -0.4738
  158SAPE   H6R17568   3.607   7.578   5.708  3.7988  0.6905 -4.0033
  158SAPE   C2717569   3.811   7.504   5.711  1.1831 -0.7988  0.0408
  158SAPE   H7R17570   3.897   7.531   5.776 -0.3451  0.5721  1.5750
  158SAPE   H7S17571   3.825   7.562   5.617 -0.8539 -0.5299 -0.1281
  158SAPE   C2817572   3.797   7.354   5.675 -0.1305 -0.5711 -0.0715
  158SAPE   H8R17573   3.818   7.283   5.756 -1.0777 -3.3899 -2.1366
  158SAPE   C2917574   3.760   7.299   5.554  0.1904  0.2068  0.0363
  158SAPE   H9R17575   3.768   7.190   5.544  1.5521  0.4146 -1.5500
  158SAPE  C21017576   3.727   7.382   5.436 -0.4959  0.6163  0.8113
  158SAPE  H10R17577   3.640   7.449   5.445  1.1373  2.8770  0.5113
  158SAPE  H10S17578   3.694   7.308   5.360  0.9898  1.2439 -0.4919
  158SAPE  C21117579   3.848   7.454   5.380  0.2989  0.6962  0.2165
  158SAPE  H11R17580   3.934   7.462   5.448 -0.0572 -0.3840  0.8188
  158SAPE  C21217581   3.855   7.506   5.259 -0.2443 -0.4663  0.9222
  158SAPE  H12R17582   3.943   7.565   5.231 -0.9842  0.9453  1.4493
  158SAPE  C21317583   3.750   7.482   5.149 -0.4776  0.1222 -0.1108
  158SAPE  H13R17584   3.643   7.488   5.181 -0.9104  1.3023 -1.6482
  158SAPE  H13S17585   3.772   7.381   5.108 -0.1184  0.2731 -0.2956
  158SAPE  C21417586   3.771   7.575   5.032  0.7420 -0.8087  0.2550
  158SAPE  H14R17587   3.765   7.683   5.051  2.6153 -0.9010  1.8355
  158SAPE  C21517588   3.768   7.541   4.904 -0.5324 -0.2434 -0.0497
  158SAPE  H15R17589   3.786   7.612   4.823  0.1520 -0.0552  0.2526
  158SAPE  C21617590   3.754   7.397   4.859 -0.3147 -0.2939  0.4821
  158SAPE  H16R17591   3.651   7.360   4.882  0.2984 -1.9923  0.6728
  158SAPE  H16S17592   3.820   7.328   4.916  2.5318  0.5137 -1.6565
  158SAPE  C21717593   3.794   7.371   4.712  0.1033  0.0021  0.4332
  158SAPE  H17R17594   3.797   7.261   4.699  0.4206  0.1253 -0.7214
  158SAPE  H17S17595   3.892   7.415   4.684  0.3014 -1.4538 -1.3025
  158SAPE  C21817596   3.685   7.413   4.615  0.6691  0.7832 -0.3843
  158SAPE  H18R17597   3.664   7.522   4.627 -1.7813  0.0922  3.0168
  158SAPE  H18S17598   3.596   7.356   4.646  1.7001 -0.3792  0.5371
  158SAPE  C21917599   3.720   7.374   4.467 -0.3626 -0.1955  0.1018
  158SAPE  H19R17600   3.630   7.382   4.403  0.4353  2.8232 -0.8126
  158SAPE  H19S17601   3.751   7.267   4.461  1.1854  0.3103 -2.2226
  158SAPE  C22017602   3.825   7.478   4.415 -0.1465  0.0056 -0.0918
  158SAPE  H20R17603   3.787   7.580   4.438  0.3085 -0.3682  2.7166
  158SAPE  H20S17604   3.847   7.464   4.307  1.6250 -0.4442  0.2966
  158SAPE  H20T17605   3.918   7.456   4.472 -0.9044 -2.4670  0.2883
  158SAPE   C3317606   4.235   7.575   6.168  0.2162 -0.3162 -0.4413
  158SAPE   H3X17607   4.241   7.650   6.249 -0.9105 -0.2581 -0.4044
  158SAPE   H3Y17608   4.126   7.565   6.151  0.5689  1.0904 -4.9005
  158SAPE   C3417609   4.306   7.638   6.046 -0.1518  0.1728 -0.8414
  158SAPE   H4X17610   4.415   7.649   6.067 -0.8886  3.5770  2.3290
  158SAPE   H4Y17611   4.264   7.741   6.055  0.6937  0.4003  0.7302
  158SAPE   C3517612   4.288   7.565   5.913  0.0494 -0.7007 -0.3165
  158SAPE   H5X17613   4.183   7.532   5.897 -0.3448 -0.2626  1.2169
  158SAPE   H5Y17614   4.339   7.466   5.917 -0.2102 -0.8201  0.1131
  158SAPE   C3617615   4.348   7.643   5.793  0.3016  0.0041  0.1481
  158SAPE   H6X17616   4.454   7.674   5.798 -0.1399  1.7908 -0.4850
  158SAPE   H6Y17617   4.301   7.744   5.791  2.1728  0.9150 -0.2452
  158SAPE   C3717618   4.322   7.586   5.649 -0.3446 -0.1043 -0.1169
  158SAPE   H7X17619   4.212   7.597   5.647 -0.4135 -0.3557  1.1962
  158SAPE   H7Y17620   4.360   7.481   5.649  0.6995  0.2581 -0.8775
  158SAPE   C3817621   4.400   7.669   5.539 -0.1095 -0.0819 -0.8717
  158SAPE   H8X17622   4.509   7.661   5.557  0.2709  0.9294 -2.4984
  158SAPE   H8Y17623   4.368   7.771   5.571 -2.3339 -1.5198  1.9078
  158SAPE   C3917624   4.350   7.634   5.398  0.2455  0.2490 -0.8358
  158SAPE   H9X17625   4.242   7.662   5.399 -0.0664 -0.7540 -2.6972
  158SAPE   H9Y17626   4.359   7.524   5.389 -0.3933  0.2311 -1.3429
  158SAPE  C31017627   4.425   7.711   5.289 -0.2889  1.2511 -0.1911
  158SAPE  H10X17628   4.533   7.730   5.306 -0.3383  0.7679  0.7680
  158SAPE  H10Y17629   4.378   7.811   5.286 -1.4376  0.7172 -0.6707
  158SAPE  C31117630   4.401   7.635   5.158  0.6129 -0.2489 -0.3517
  158SAPE  H11X17631   4.290   7.624   5.157  0.4028  1.5284 -1.3938
  158SAPE  H11Y17632   4.440   7.531   5.162  0.1541 -0.4132 -0.0931
  158SAPE  C31217633   4.439   7.705   5.029  0.1394  0.3866 -0.5002
  158SAPE  H12X17634   4.549   7.693   5.019  0.0587 -1.2932  0.2943
  158SAPE  H12Y17635   4.421   7.813   5.046  0.0582  0.2523  0.3205
  158SAPE  C31317636   4.364   7.649   4.911 -0.5189  0.0753  0.6767
  158SAPE  H13X17637   4.273   7.608   4.960 -1.1272  0.2721 -0.2456
  158SAPE  H13Y17638   4.401   7.552   4.871 -2.2971  0.4749 -2.2950
  158SAPE  C31417639   4.340   7.759   4.801 -0.5267 -0.5313 -0.6448
  158SAPE  H14X17640   4.436   7.809   4.775 -0.5126 -1.3118 -2.1909
  158SAPE  H14Y17641   4.262   7.828   4.839  0.9284  0.3253  0.9354
  158SAPE  C31517642   4.313   7.697   4.660  0.2597  0.2171  0.2747
  158SAPE  H15X17643   4.229   7.625   4.673  1.1315 -1.5704 -2.9556
  158SAPE  H15Y17644   4.395   7.636   4.616 -0.8648 -0.2038 -1.3515
  158SAPE  C31617645   4.282   7.792   4.547 -0.1655  0.6413  0.4725
  158SAPE  H16X17646   4.199   7.860   4.574 -2.2889 -0.9634 -1.5858
  158SAPE  H16Y17647   4.253   7.733   4.457  1.7704 -3.5749  2.3010
  158SAPE  C31717648   4.396   7.885   4.502 -0.1344  0.5408 -0.4130
  158SAPE  H17X17649   4.478   7.815   4.477  0.1417  0.0585  1.6059
  158SAPE  H17Y17650   4.439   7.938   4.590  0.6237 -0.4692 -0.1582
  158SAPE  C31817651   4.361   7.973   4.380  1.2572  0.3951  0.1508
  158SAPE  H18X17652   4.270   8.033   4.401 -0.4066 -1.4511 -1.3109
  158SAPE  H18Y17653   4.333   7.913   4.290  1.7766  1.1255 -0.5031
  158SAPE  H18Z17654   4.447   8.039   4.356  0.8365  0.7320 -0.4690
  159SAPE     N17655   6.141   6.622   2.216  0.9519 -0.5401  0.8008
  159SAPE   HN117656   6.097   6.664   2.300 -2.3694  0.1762 -1.1264
  159SAPE   HN217657   6.239   6.601   2.244  0.3179 -1.0322  2.8251
  159SAPE   HN317658   6.130   6.701   2.150 -0.0857 -1.0191  0.3830
  159SAPE   C1217659   6.059   6.500   2.177 -0.3011 -0.2774 -0.1478
  159SAPE  H12A17660   6.099   6.473   2.077  0.3121 -0.9665  0.2681
  159SAPE  H12B17661   5.958   6.543   2.162  0.0968 -0.1602 -3.0521
  159SAPE   C1117662   6.068   6.388   2.278  0.0243 -0.1751  0.1638
  159SAPE  H11A17663   6.005   6.307   2.235 -1.4071  1.3066 -0.6394
  159SAPE  H11B17664   6.023   6.416   2.376  2.5800 -1.5319  1.8398
  159SAPE     P17665   6.277   6.223   2.247 -0.0903 -0.0441 -0.0434
  159SAPE   O1317666   6.230   6.102   2.318  0.4556  0.3553 -0.0781
  159SAPE   O1417667   6.266   6.217   2.099 -0.4745  0.2476  0.1502
  159SAPE   O1217668   6.204   6.356   2.303 -0.6286  0.6593 -0.7466
  159SAPE   O1117669   6.425   6.245   2.291  0.2932 -0.3058  0.4160
  159SAPE    C117670   6.495   6.365   2.316 -0.2736 -0.5079 -0.3752
  159SAPE    HA17671   6.600   6.360   2.278  0.1903  1.7052  0.4589
  159SAPE    HB17672   6.449   6.434   2.241 -1.3140 -1.9412 -1.1055
  159SAPE    C217673   6.508   6.407   2.467  0.5209  0.1020 -0.0598
  159SAPE    HS17674   6.537   6.317   2.526  0.9219  0.4667  0.3056
  159SAPE   O2117675   6.376   6.453   2.519  0.0313 -0.0548 -0.0923
  159SAPE   C2117676   6.360   6.433   2.646 -0.6164  0.1249 -0.7127
  159SAPE   O2217677   6.438   6.386   2.727  0.2401 -0.1851 -0.7171
  159SAPE   C2217678   6.222   6.465   2.693  0.9232  0.0320 -0.1965
  159SAPE   H2R17679   6.145   6.459   2.612  0.1607 -2.0426  0.6005
  159SAPE   H2S17680   6.184   6.385   2.760 -1.1292 -2.1108 -3.6119
  159SAPE    C317681   6.625   6.518   2.490 -0.3289 -0.2156  0.3905
  159SAPE    HX17682   6.594   6.610   2.435 -0.4586  0.8251  2.1418
  159SAPE    HY17683   6.718   6.477   2.445 -0.0602  1.0828 -0.3060
  159SAPE   O3117684   6.639   6.567   2.624  0.1759 -0.2145 -0.1867
  159SAPE   C3117685   6.708   6.487   2.700 -0.3607  0.0976 -0.1252
  159SAPE   O3217686   6.759   6.382   2.663 -0.0971  0.1800  0.7007
  159SAPE   C3217687   6.726   6.555   2.840 -0.3816 -1.0481 -0.8398
  159SAPE   H2X17688   6.774   6.656   2.835  0.1830 -1.0672  2.1178
  159SAPE   H2Y17689   6.796   6.487   2.893 -1.5115 -2.4149 -1.0510
  159SAPE   C2317690   6.220   6.600   2.768  0.3569 -0.6020 -0.0639
  159SAPE   H3R17691   6.248   6.681   2.699 -0.3523 -1.0840 -0.9396
  159SAPE   H3S17692   6.301   6.591   2.844  3.9750 -2.2647 -3.7567
  159SAPE   C2417693   6.080   6.644   2.819 -0.5795  0.6598 -0.3854
  159SAPE   H4R17694   6.046   6.557   2.880  0.6599 -1.1530 -2.1504
  159SAPE   H4S17695   6.013   6.667   2.734 -0.4698  0.0220 -0.6511
  159SAPE   C2517696   6.106   6.766   2.900 -0.4021  0.2628  0.2418
  159SAPE   H5R17697   6.127   6.860   2.846 -0.0694  1.4072  2.2693
  159SAPE   C2617698   6.121   6.776   3.037  0.6175 -0.8645  0.7624
  159SAPE   H6R17699   6.124   6.881   3.069 -0.4149 -0.3072 -0.8489
  159SAPE   C2717700   6.097   6.679   3.148 -0.3088  0.3563  0.3900
  159SAPE   H7R17701   6.130   6.705   3.250  0.2845 -0.8523  0.5262
  159SAPE   H7S17702   6.153   6.588   3.118 -2.5835 -0.6732 -1.0299
  159SAPE   C2817703   5.951   6.636   3.151 -0.8717 -0.3580  0.6811
  159SAPE   H8R17704   5.901   6.650   3.053 -0.8516  2.0674  0.9575
  159SAPE   C2917705   5.875   6.597   3.255  0.0883  0.0131  0.6680
  159SAPE   H9R17706   5.772   6.564   3.235  0.0219  0.4380  0.3145
  159SAPE  C21017707   5.923   6.578   3.393 -0.1023 -0.0793 -0.0541
  159SAPE  H10R17708   6.034   6.566   3.393  0.0976  1.4670  0.6255
  159SAPE  H10S17709   5.879   6.484   3.432 -1.5216  0.8102  0.5604
  159SAPE  C21117710   5.911   6.694   3.483 -0.0252 -0.6426 -0.0578
  159SAPE  H11R17711   5.997   6.763   3.483 -0.6894  0.2044 -0.2388
  159SAPE  C21217712   5.798   6.730   3.552  0.1224 -0.2206  0.4069
  159SAPE  H12R17713   5.793   6.815   3.622 -2.1214 -0.1875  0.2796
  159SAPE  C21317714   5.676   6.642   3.568  0.1012  0.2136  0.0804
  159SAPE  H13R17715   5.641   6.651   3.673  2.5100  0.2908  0.9387
  159SAPE  H13S17716   5.704   6.536   3.548  0.2548  0.7168 -2.8559
  159SAPE  C21417717   5.577   6.690   3.463 -0.8161 -0.3553 -0.2935
  159SAPE  H14R17718   5.618   6.705   3.362 -3.2982 -0.5606 -1.4210
  159SAPE  C21517719   5.447   6.707   3.481 -0.0531  0.1867  0.2177
  159SAPE  H15R17720   5.390   6.749   3.397  0.0340  0.1982  0.1642
  159SAPE  C21617721   5.363   6.684   3.602 -0.0157 -0.3062 -0.3493
  159SAPE  H16R17722   5.264   6.727   3.573  0.3976 -0.8526 -2.7022
  159SAPE  H16S17723   5.397   6.744   3.690 -1.0428 -0.6896  0.3393
  159SAPE  C21717724   5.342   6.533   3.623  0.1894  0.0891  0.2181
  159SAPE  H17R17725   5.443   6.501   3.658  0.3640  0.9726  0.5388
  159SAPE  H17S17726   5.316   6.470   3.534 -1.8949 -1.4868  1.8351
  159SAPE  C21817727   5.246   6.505   3.739 -0.8552  0.5975 -0.7360
  159SAPE  H18R17728   5.207   6.402   3.724  0.5130 -0.0568 -0.0150
  159SAPE  H18S17729   5.159   6.574   3.740 -0.1697  1.5227  1.6153
  159SAPE  C21917730   5.311   6.521   3.871  0.0384  0.2702  0.2391
  159SAPE  H19R17731   5.392   6.596   3.863  2.2614 -2.0762 -0.8727
  159SAPE  H19S17732   5.366   6.431   3.907  0.1301  1.0755  2.2458
  159SAPE  C22017733   5.216   6.565   3.980 -0.5193  0.0567  0.2618
  159SAPE  H20R17734   5.173   6.666   3.967 -0.2478  0.2680  0.9651
  159SAPE  H20S17735   5.257   6.558   4.083 -0.5210  1.9811  0.4205
  159SAPE  H20T17736   5.124   6.503   3.975 -1.2750  1.0804  0.9182
  159SAPE   C3317737   6.607   6.587   2.920  0.0400 -0.3771 -0.4142
  159SAPE   H3X17738   6.554   6.493   2.947  0.5608 -0.5250  0.1246
  159SAPE   H3Y17739   6.529   6.644   2.865 -0.6943 -0.9776 -0.0213
  159SAPE   C3417740   6.647   6.664   3.048 -0.1975 -0.7038  0.3051
  159SAPE   H4X17741   6.660   6.768   3.011 -3.2435 -1.0248 -2.1264
  159SAPE   H4Y17742   6.746   6.636   3.090  0.0716 -0.8556 -0.4158
  159SAPE   C3517743   6.547   6.649   3.162  0.1511  0.3089  0.3162
  159SAPE   H5X17744   6.529   6.542   3.188 -0.3281  0.4121  0.4239
  159SAPE   H5Y17745   6.449   6.692   3.133  0.6653  0.7920 -0.7473
  159SAPE   C3617746   6.601   6.724   3.286  0.5480  0.2191  0.0121
  159SAPE   H6X17747   6.625   6.830   3.259  1.9148 -0.0162  0.2295
  159SAPE   H6Y17748   6.688   6.669   3.326 -0.2185 -0.2025  1.1396
  159SAPE   C3717749   6.495   6.750   3.392 -0.2542 -0.6342 -0.1604
  159SAPE   H7X17750   6.411   6.806   3.348 -0.5692 -1.2187 -0.3184
  159SAPE   H7Y17751   6.538   6.814   3.472  0.9418  2.3824 -2.9826
  159SAPE   C3817752   6.435   6.622   3.453  0.2842  0.2424 -0.0713
  159SAPE   H8X17753   6.515   6.560   3.499  0.9115  1.0297 -0.0800
  159SAPE   H8Y17754   6.386   6.572   3.367  1.5405 -0.1369 -0.5880
  159SAPE   C3917755   6.331   6.643   3.560  0.0282 -0.3661 -0.3102
  159SAPE   H9X17756   6.229   6.673   3.525  0.3355  0.0236 -0.8904
  159SAPE   H9Y17757   6.367   6.731   3.616 -0.3333 -1.1476  1.2151
  159SAPE  C31017758   6.318   6.516   3.642 -0.3455  0.0018  0.4103
  159SAPE  H10X17759   6.410   6.505   3.702 -0.1956 -4.5929 -0.2662
  159SAPE  H10Y17760   6.322   6.430   3.571 -0.6133 -0.1716  0.6024
  159SAPE  C31117761   6.190   6.512   3.718  0.3087  0.7655  0.5481
  159SAPE  H11X17762   6.111   6.561   3.658  0.5582  2.0440  1.2400
  159SAPE  H11Y17763   6.209   6.562   3.815 -0.7304  1.4633  0.4043
  159SAPE  C31217764   6.149   6.367   3.749  0.2922 -0.2445  0.2253
  159SAPE  H12X17765   6.238   6.321   3.797  0.6223 -0.8011 -0.8661
  159SAPE  H12Y17766   6.136   6.323   3.648 -0.9948 -1.2596  0.8044
  159SAPE  C31317767   6.031   6.359   3.840  0.6693  0.0931  0.3731
  159SAPE  H13X17768   5.974   6.454   3.834 -0.7219 -0.6506  1.1134
  159SAPE  H13Y17769   6.065   6.380   3.944  0.1457 -0.6227  0.6981
  159SAPE  C31417770   5.948   6.227   3.839 -0.1811  0.3238  0.4013
  159SAPE  H14X17771   6.019   6.148   3.873  1.3706  1.2081 -0.6602
  159SAPE  H14Y17772   5.924   6.205   3.733 -0.5017  0.4170  0.4538
  159SAPE  C31517773   5.821   6.232   3.921 -0.4508  0.3461  0.2634
  159SAPE  H15X17774   5.839   6.280   4.020  3.1193 -0.8569  0.3520
  159SAPE  H15Y17775   5.778   6.131   3.940  0.2710  0.5554  3.6630
  159SAPE  C31617776   5.715   6.311   3.838 -0.2669  0.3232  0.1824
  159SAPE  H16X17777   5.752   6.389   3.768 -3.0279  0.2126 -1.5526
  159SAPE  H16Y17778   5.650   6.368   3.908  0.1663 -0.0916  0.9366
  159SAPE  C31717779   5.625   6.230   3.752  0.4175  0.0354  0.4395
  159SAPE  H17X17780   5.543   6.296   3.714 -0.1387 -1.4740 -1.1106
  159SAPE  H17Y17781   5.582   6.145   3.809  2.0534  1.4175  4.0224
  159SAPE  C31817782   5.693   6.172   3.625  0.1738  0.4298  0.0761
  159SAPE  H18X17783   5.736   6.257   3.569 -0.4982 -0.4912 -1.9190
  159SAPE  H18Y17784   5.620   6.116   3.563  0.7930  0.4183 -0.6593
  159SAPE  H18Z17785   5.768   6.094   3.649  1.5324  2.1055  1.5803
  160SAPE     N17786   0.493   3.257   2.193 -0.0720  0.2534  0.1218
  160SAPE   HN117787   0.459   3.348   2.157 -0.5066  1.3999  3.1455
  160SAPE   HN217788   0.491   3.181   2.122 -1.6993 -1.8183  2.2159
  160SAPE   HN317789   0.432   3.221   2.269  2.0596 -4.3199 -0.0054
  160SAPE   C1217790   0.624   3.254   2.269 -0.1148  0.2256  0.7185
  160SAPE  H12A17791   0.607   3.319   2.357  0.3475 -1.1183  1.8355
  160SAPE  H12B17792   0.707   3.297   2.209  1.6602 -3.0186  0.5977
  160SAPE   C1117793   0.675   3.114   2.315  0.5651 -0.2313 -0.6557
  160SAPE  H11A17794   0.756   3.131   2.390  2.2632 -3.0166 -1.7232
  160SAPE  H11B17795   0.728   3.064   2.231  1.3748 -2.4522  1.0724
  160SAPE     P17796   0.573   2.899   2.432 -0.0104  0.2722  0.2608
  160SAPE   O1317797   0.436   2.846   2.459  0.2405  0.1752 -0.2996
  160SAPE   O1417798   0.665   2.812   2.351  0.4855 -0.3109  0.2106
  160SAPE   O1217799   0.561   3.035   2.354  1.2079 -0.2400  0.0505
  160SAPE   O1117800   0.637   2.932   2.570 -0.4179 -0.0506 -0.0938
  160SAPE    C117801   0.620   3.056   2.632  0.0571  0.5412  0.4212
  160SAPE    HA17802   0.717   3.103   2.659  0.7279 -0.2530 -0.5195
  160SAPE    HB17803   0.567   3.121   2.558  0.0899 -2.7040 -2.7327
  160SAPE    C217804   0.538   3.058   2.769 -0.0501 -0.1258  0.5241
  160SAPE    HS17805   0.548   3.163   2.803  0.6483 -0.1695  0.4610
  160SAPE   O2117806   0.592   2.965   2.869 -0.2549 -0.6619 -0.5010
  160SAPE   C2117807   0.715   3.000   2.915  1.4461 -0.4808  0.5305
  160SAPE   O2217808   0.763   3.110   2.892 -0.4454  0.4966 -0.0051
  160SAPE   C2217809   0.776   2.889   2.988 -0.7381 -0.6602 -0.5543
  160SAPE   H2R17810   0.692   2.820   3.013  0.0639 -2.7288 -3.0386
  160SAPE   H2S17811   0.852   2.826   2.936 -0.8201 -1.5261  0.3556
  160SAPE    C317812   0.391   3.022   2.737  0.8476 -0.1803 -0.3206
  160SAPE    HX17813   0.388   2.912   2.722 -1.0680 -0.1580 -0.3532
  160SAPE    HY17814   0.346   3.073   2.649 -1.4537  1.5350  1.7190
  160SAPE   O3117815   0.302   3.054   2.845 -0.6260  0.0026 -0.2508
  160SAPE   C3117816   0.181   3.028   2.835  0.2917 -0.0894  0.2967
  160SAPE   O3217817   0.132   2.957   2.746  0.5036 -0.3378 -0.0738
  160SAPE   C3217818   0.088   3.093   2.944  0.0785  0.6518 -0.1412
  160SAPE   H2X17819   0.028   3.170   2.891  0.6093  0.8642 -0.4399
  160SAPE   H2Y17820   0.152   3.140   3.022 -0.8154  0.6689  0.6072
  160SAPE   C2317821   0.831   2.938   3.128 -0.9099  0.1838  0.4118
  160SAPE   H3R17822   0.915   3.010   3.134  0.9635 -1.9545  1.3460
  160SAPE   H3S17823   0.873   2.848   3.176 -3.2347 -0.9358  0.4770
  160SAPE   C2417824   0.719   2.983   3.218  0.4040  0.0007  0.1254
  160SAPE   H4R17825   0.641   2.904   3.210 -0.6230  0.7629  1.9723
  160SAPE   H4S17826   0.658   3.074   3.196 -0.9572 -0.4352  1.8649
  160SAPE   C2517827   0.764   3.001   3.351  0.2524  0.1997 -0.2371
  160SAPE   H5R17828   0.869   3.033   3.360  0.3068 -0.0897  0.2590
  160SAPE   C2617829   0.698   2.966   3.465 -0.1756  0.6582  0.2757
  160SAPE   H6R17830   0.750   2.993   3.558 -1.0341 -1.4047  1.4164
  160SAPE   C2717831   0.575   2.878   3.487  0.0467 -0.2477 -0.7363
  160SAPE   H7R17832   0.599   2.829   3.584  1.8238  2.5293  0.3418
  160SAPE   H7S17833   0.574   2.798   3.410  1.1111 -0.3872 -0.6195
  160SAPE   C2817834   0.456   2.973   3.501  0.1541 -0.1356  0.2211
  160SAPE   H8R17835   0.445   3.043   3.417  0.1260 -0.6266 -0.1922
  160SAPE   C2917836   0.365   2.978   3.596  0.3787  0.1604 -0.1753
  160SAPE   H9R17837   0.292   3.061   3.592 -1.0492 -1.0515 -0.4344
  160SAPE  C21017838   0.366   2.888   3.722  0.8406 -0.0650  0.1431
  160SAPE  H10R17839   0.435   2.801   3.719  0.4168 -0.4174  0.4689
  160SAPE  H10S17840   0.266   2.841   3.709  1.0004 -0.1747 -0.7555
  160SAPE  C21117841   0.382   2.977   3.847 -0.2835  0.5078  0.1775
  160SAPE  H11R17842   0.474   3.038   3.857  0.7050 -0.6947 -1.0940
  160SAPE  C21217843   0.281   3.022   3.921  0.2945 -0.0521 -0.0511
  160SAPE  H12R17844   0.311   3.089   4.003  2.3877 -1.1182  0.1325
  160SAPE  C21317845   0.139   2.977   3.907  0.1526  0.1650  0.5511
  160SAPE  H13R17846   0.123   2.910   3.994  1.0254  0.7493  1.1848
  160SAPE  H13S17847   0.110   2.933   3.810  0.6206  1.6190 -0.2731
  160SAPE  C21417848   0.049   3.097   3.925  0.4951  0.1513  0.0026
  160SAPE  H14R17849   0.078   3.189   3.871 -0.5819  0.8001  0.4855
  160SAPE  C21517850  -0.072   3.100   3.992 -0.2134 -0.0004  0.1989
  160SAPE  H15R17851  -0.136   3.189   3.982 -0.8345 -0.3589  0.8068
  160SAPE  C21617852  -0.125   2.983   4.064  0.2780 -0.3088 -0.7980
  160SAPE  H16R17853  -0.067   2.891   4.038  0.5703 -0.0230 -1.1676
  160SAPE  H16S17854  -0.232   2.969   4.041 -0.1815 -1.4686  1.6828
  160SAPE  C21717855  -0.099   2.989   4.218 -0.5250  0.3250 -0.0319
  160SAPE  H17R17856  -0.130   3.091   4.249  1.1662  0.8102  0.1265
  160SAPE  H17S17857   0.009   2.991   4.244 -0.2213  1.7397 -1.2539
  160SAPE  C21817858  -0.180   2.888   4.299  0.3398  0.2957 -0.0809
  160SAPE  H18R17859  -0.129   2.789   4.290 -3.8838 -1.9085 -2.9210
  160SAPE  H18S17860  -0.269   2.866   4.237 -0.7092  0.7724  1.2316
  160SAPE  C21917861  -0.230   2.915   4.440  0.2113  0.4750 -0.3535
  160SAPE  H19R17862  -0.319   2.852   4.457  0.2758  0.5259  0.1836
  160SAPE  H19S17863  -0.259   3.021   4.459 -3.4477 -0.6148  0.8722
  160SAPE  C22017864  -0.124   2.894   4.551  0.9351  0.1289  0.3310
  160SAPE  H20R17865  -0.117   2.786   4.575  2.0984  0.1102 -0.0481
  160SAPE  H20S17866  -0.156   2.959   4.635 -1.0091  0.1417 -0.3533
  160SAPE  H20T17867  -0.021   2.927   4.526  0.8904  0.4609  0.5785
  160SAPE   C3317868  -0.006   2.993   3.008 -0.7595 -0.1186 -0.3484
  160SAPE   H3X17869  -0.055   2.933   2.928 -1.2226  0.9352 -0.8794
  160SAPE   H3Y17870  -0.079   3.052   3.066  0.0686 -2.0856  2.9438
  160SAPE   C3417871   0.058   2.887   3.104 -0.3962 -0.1208  0.3064
  160SAPE   H4X17872   0.093   2.936   3.197 -1.7126  1.0931  0.2064
  160SAPE   H4Y17873   0.145   2.832   3.062  0.5412  0.4635  1.4299
  160SAPE   C3517874  -0.051   2.789   3.148  0.2685 -0.0030  1.0465
  160SAPE   H5X17875  -0.116   2.751   3.067 -0.5097  1.0999  1.1230
  160SAPE   H5Y17876  -0.119   2.848   3.215  0.3941  2.0166 -0.4972
  160SAPE   C3617877   0.002   2.670   3.225  0.1044  0.1925  0.2474
  160SAPE   H6X17878   0.082   2.618   3.168  1.7118  2.5026  0.2468
  160SAPE   H6Y17879  -0.085   2.601   3.232 -0.8143  1.3118  0.1373
  160SAPE   C3717880   0.054   2.691   3.369 -0.2835 -0.1297  0.5091
  160SAPE   H7X17881   0.121   2.780   3.365 -3.2603  2.2340 -2.3957
  160SAPE   H7Y17882   0.111   2.602   3.406  1.2997  0.6616  0.0602
  160SAPE   C3817883  -0.060   2.715   3.473  0.1526  0.3327  0.3951
  160SAPE   H8X17884  -0.129   2.628   3.462  0.9486 -0.1784 -0.8354
  160SAPE   H8Y17885  -0.124   2.797   3.434 -0.6023 -0.4694 -0.0888
  160SAPE   C3917886  -0.010   2.734   3.611  0.0922  0.0923  0.9308
  160SAPE   H9X17887   0.047   2.830   3.610 -1.3309  0.9706  1.5510
  160SAPE   H9Y17888   0.048   2.647   3.647 -0.6940 -1.0706 -0.5333
  160SAPE  C31017889  -0.121   2.763   3.715 -0.3215  0.2661  0.0535
  160SAPE  H10X17890  -0.181   2.855   3.697  2.1913  2.1060  0.5773
  160SAPE  H10Y17891  -0.070   2.800   3.806  2.2362 -0.0587 -1.1622
  160SAPE  C31117892  -0.212   2.642   3.738  0.2074  0.1024 -0.2013
  160SAPE  H11X17893  -0.151   2.549   3.737 -0.4701 -0.3564 -1.6372
  160SAPE  H11Y17894  -0.297   2.626   3.668  1.2745 -2.8097 -0.9959
  160SAPE  C31217895  -0.281   2.640   3.873  0.9663 -0.2541  0.6717
  160SAPE  H12X17896  -0.206   2.665   3.951  0.8204  0.8118  0.4892
  160SAPE  H12Y17897  -0.315   2.538   3.902  2.7383 -1.2941 -0.7271
  160SAPE  C31317898  -0.400   2.737   3.890 -0.3097  0.3907 -0.6933
  160SAPE  H13X17899  -0.487   2.717   3.823  1.1918  1.2492 -3.0561
  160SAPE  H13Y17900  -0.368   2.842   3.873 -1.6553  1.3101  1.9157
  160SAPE  C31417901  -0.442   2.724   4.036  0.0027 -0.3925 -0.4904
  160SAPE  H14X17902  -0.349   2.715   4.096 -0.7845  1.3871  1.1124
  160SAPE  H14Y17903  -0.500   2.638   4.076  0.7843  0.4796  2.8626
  160SAPE  C31517904  -0.523   2.850   4.078 -0.5002  0.1387 -0.2383
  160SAPE  H15X17905  -0.618   2.849   4.020 -1.3468  1.2579  1.0704
  160SAPE  H15Y17906  -0.468   2.939   4.042 -0.3840 -0.2381 -1.0067
  160SAPE  C31617907  -0.557   2.852   4.227 -0.1641 -0.2516  0.1581
  160SAPE  H16X17908  -0.492   2.927   4.277 -0.1545 -1.5343  2.2004
  160SAPE  H16Y17909  -0.532   2.756   4.277  0.0611 -0.4782 -0.3790
  160SAPE  C31717910  -0.705   2.883   4.251  0.0425  0.1751  0.0087
  160SAPE  H17X17911  -0.768   2.807   4.199  3.0459 -1.6763 -1.2251
  160SAPE  H17Y17912  -0.734   2.980   4.205 -1.6002 -0.8039 -1.1204
  160SAPE  C31817913  -0.750   2.891   4.395  0.1645  0.6932 -0.4278
  160SAPE  H18X17914  -0.860   2.900   4.408  0.0822 -1.3889  0.7624
  160SAPE  H18Y17915  -0.697   2.978   4.439  2.9470 -0.6835 -0.8527
  160SAPE  H18Z17916  -0.716   2.800   4.449 -1.1582  0.1792 -0.4399
  161SAPE     N17917   3.535   1.768   2.276 -0.0556 -0.5220 -0.5314
  161SAPE   HN117918   3.475   1.692   2.313 -0.2612  0.2472  0.8139
  161SAPE   HN217919   3.470   1.820   2.214  0.7224  1.1358 -0.0150
  161SAPE   HN317920   3.617   1.730   2.226  0.0949  0.0859 -0.7657
  161SAPE   C1217921   3.574   1.854   2.400 -0.2841  0.3460  0.3873
  161SAPE  H12A17922   3.627   1.942   2.356  1.2891 -0.3541  0.8217
  161SAPE  H12B17923   3.629   1.789   2.471  0.3860  1.3367  0.7957
  161SAPE   C1117924   3.455   1.899   2.478  0.3624  0.1052  0.6533
  161SAPE  H11A17925   3.484   1.968   2.560  0.6488  1.7143 -0.7468
  161SAPE  H11B17926   3.408   1.811   2.527 -2.0609  1.5144  1.0313
  161SAPE     P17927   3.339   2.109   2.375  0.4121 -0.1637  0.5024
  161SAPE   O1317928   3.461   2.151   2.303  0.3512  0.4062  0.4520
  161SAPE   O1417929   3.207   2.147   2.309 -0.7663 -0.1671  0.1441
  161SAPE   O1217930   3.353   1.955   2.397  0.0805  0.9142  0.0235
  161SAPE   O1117931   3.338   2.170   2.525  0.2602  0.3857  0.7114
  161SAPE    C117932   3.241   2.140   2.622  0.6654 -1.4361 -0.3438
  161SAPE    HA17933   3.198   2.039   2.601 -0.7967 -0.2840 -3.6328
  161SAPE    HB17934   3.283   2.132   2.725 -0.1620 -0.9429  0.0478
  161SAPE    C217935   3.129   2.250   2.632  0.0001  0.0901  0.2556
  161SAPE    HS17936   3.092   2.263   2.528 -0.3112 -0.6638  0.2652
  161SAPE   O2117937   3.183   2.363   2.699 -0.2801 -0.1819 -1.1203
  161SAPE   C2117938   3.139   2.481   2.658  0.0388 -0.2079 -0.1230
  161SAPE   O2217939   3.050   2.489   2.576 -0.1683  0.2116  0.2624
  161SAPE   C2217940   3.204   2.587   2.732  0.0177 -0.6747  0.4582
  161SAPE   H2R17941   3.214   2.560   2.839 -0.4401 -0.8131  0.4659
  161SAPE   H2S17942   3.309   2.576   2.696 -0.6751 -2.1487 -1.3178
  161SAPE    C317943   2.992   2.188   2.698 -0.2191  0.1284  0.0366
  161SAPE    HX17944   2.962   2.109   2.624 -0.0084  1.3965 -1.4510
  161SAPE    HY17945   2.908   2.261   2.702 -0.5155 -0.2551  1.0571
  161SAPE   O3117946   3.012   2.138   2.827 -0.7526 -0.0161 -0.0173
  161SAPE   C3117947   2.980   2.006   2.845 -1.0060 -0.1378 -0.2389
  161SAPE   O3217948   2.936   1.928   2.760 -0.2577 -0.4127  0.1248
  161SAPE   C3217949   2.999   1.977   2.990 -0.3519  0.0893 -0.5545
  161SAPE   H2X17950   2.913   2.023   3.042 -0.2170  0.1041 -0.3438
  161SAPE   H2Y17951   3.099   2.013   3.025 -1.4600 -0.1857  3.4226
  161SAPE   C2317952   3.156   2.727   2.710 -0.5780  0.4337 -0.0138
  161SAPE   H3R17953   3.095   2.729   2.618 -1.0669 -1.2019  0.2313
  161SAPE   H3S17954   3.250   2.782   2.691  0.3788 -1.0584  0.2077
  161SAPE   C2417955   3.085   2.790   2.832 -0.5201 -0.2136  0.2294
  161SAPE   H4R17956   3.058   2.898   2.826  0.1783 -0.0347  0.2071
  161SAPE   H4S17957   3.147   2.780   2.923 -0.5725  2.4778  0.6344
  161SAPE   C2517958   2.950   2.731   2.833 -0.8109  1.4207  0.2248
  161SAPE   H5R17959   2.890   2.752   2.743  0.3205  0.0884 -0.8880
  161SAPE   C2617960   2.907   2.638   2.917 -0.5953  0.3175 -1.0520
  161SAPE   H6R17961   2.804   2.602   2.904 -0.2399 -1.0045 -0.3992
  161SAPE   C2717962   2.984   2.586   3.034 -0.2410 -0.3750 -0.6691
  161SAPE   H7R17963   2.918   2.598   3.123  1.9736  3.3001  0.7159
  161SAPE   H7S17964   3.063   2.663   3.050 -2.3002  1.4130  1.4668
  161SAPE   C2817965   3.045   2.448   3.021  0.4993 -0.0040 -0.2090
  161SAPE   H8R17966   2.991   2.383   2.950  0.2882  0.3884 -0.4062
  161SAPE   C2917967   3.155   2.398   3.087  0.1131 -0.2020 -0.0112
  161SAPE   H9R17968   3.190   2.297   3.061 -1.9339 -1.1298  0.6283
  161SAPE  C21017969   3.220   2.482   3.199 -0.1422  0.6147  0.5756
  161SAPE  H10R17970   3.244   2.417   3.286  0.3996  1.5088  1.1024
  161SAPE  H10S17971   3.145   2.559   3.228 -0.2124  0.6645  0.2654
  161SAPE  C21117972   3.354   2.537   3.150 -0.7565 -0.1717 -0.5035
  161SAPE  H11R17973   3.429   2.463   3.118 -0.4497 -1.7117  3.2448
  161SAPE  C21217974   3.395   2.664   3.161 -0.2354 -0.2877 -0.5119
  161SAPE  H12R17975   3.485   2.694   3.106  0.0164  1.3172  0.7074
  161SAPE  C21317976   3.315   2.779   3.222 -0.1145  0.3390  0.2252
  161SAPE  H13R17977   3.362   2.796   3.322  1.2033  0.4980 -0.4024
  161SAPE  H13S17978   3.206   2.762   3.218  0.1347 -1.0864 -1.1925
  161SAPE  C21417979   3.338   2.900   3.142  0.2646 -0.0463  0.0720
  161SAPE  H14R17980   3.383   2.885   3.043  0.3568 -0.2684  0.1458
  161SAPE  C21517981   3.307   3.028   3.185 -0.1490  0.7458 -0.0069
  161SAPE  H15R17982   3.327   3.111   3.116 -0.5487  1.2900  0.5245
  161SAPE  C21617983   3.252   3.068   3.322 -0.1747 -0.7386  0.1385
  161SAPE  H16R17984   3.249   2.983   3.393 -1.3910  0.0373  1.0444
  161SAPE  H16S17985   3.147   3.102   3.313  0.8349  2.6388  0.0956
  161SAPE  C21717986   3.327   3.186   3.378 -0.8154 -0.0437 -0.1729
  161SAPE  H17R17987   3.287   3.211   3.478 -0.1220  1.6899 -0.2927
  161SAPE  H17S17988   3.318   3.271   3.308 -1.7872 -1.2199 -1.5405
  161SAPE  C21817989   3.479   3.164   3.394 -0.0096 -0.5337 -0.1386
  161SAPE  H18R17990   3.526   3.172   3.294 -0.4941  1.0718 -0.2605
  161SAPE  H18S17991   3.490   3.060   3.432 -3.0865 -0.7416  0.4454
  161SAPE  C21917992   3.562   3.259   3.489  0.0768 -0.5285  0.3163
  161SAPE  H19R17993   3.557   3.367   3.466  3.3395 -0.1469  0.9115
  161SAPE  H19S17994   3.665   3.223   3.467  0.3689 -0.8375  2.0635
  161SAPE  C22017995   3.514   3.230   3.632 -1.2046  0.1370  0.1721
  161SAPE  H20R17996   3.531   3.128   3.670 -0.4611 -0.2453 -1.1345
  161SAPE  H20S17997   3.407   3.256   3.650 -1.1290  0.5115  0.0970
  161SAPE  H20T17998   3.571   3.287   3.708 -0.1418  0.8206 -1.0927
  161SAPE   C3317999   2.995   1.828   3.025 -0.0462  0.6046 -0.2421
  161SAPE   H3X18000   3.052   1.762   2.957 -0.2260  0.2832 -0.0829
  161SAPE   H3Y18001   2.888   1.801   3.014  0.4450 -1.9852  0.7426
  161SAPE   C3418002   3.016   1.806   3.179  0.4284 -0.0615 -0.4089
  161SAPE   H4X18003   2.975   1.706   3.203  2.4413 -1.3899 -2.1522
  161SAPE   H4Y18004   2.956   1.883   3.232 -0.7231  0.2817 -2.1438
  161SAPE   C3518005   3.167   1.798   3.218 -0.6592 -0.2098 -0.7878
  161SAPE   H5X18006   3.208   1.899   3.241 -1.4497 -0.1286  0.3730
  161SAPE   H5Y18007   3.218   1.760   3.127 -0.6253 -1.2571 -0.3360
  161SAPE   C3618008   3.193   1.704   3.335  0.5543  0.0314  0.4401
  161SAPE   H6X18009   3.290   1.650   3.341 -0.1117 -1.0763  2.1206
  161SAPE   H6Y18010   3.121   1.619   3.333  0.0716  0.4385  0.1313
  161SAPE   C3718011   3.160   1.773   3.468  0.2298 -0.1467  1.0074
  161SAPE   H7X18012   3.053   1.798   3.450  0.1836 -2.3469 -2.8397
  161SAPE   H7Y18013   3.220   1.866   3.470 -1.1023  0.7643  0.1109
  161SAPE   C3818014   3.172   1.680   3.586 -0.6894 -0.3186  0.2592
  161SAPE   H8X18015   3.110   1.588   3.576  0.8419 -1.5044  1.3756
  161SAPE   H8Y18016   3.134   1.733   3.676  0.6942  0.5565  0.3454
  161SAPE   C3918017   3.319   1.639   3.606 -0.0467 -0.3780  0.2706
  161SAPE   H9X18018   3.389   1.725   3.601 -1.1412  0.5015 -0.6317
  161SAPE   H9Y18019   3.335   1.553   3.537  0.7725 -1.2881  1.5426
  161SAPE  C31018020   3.334   1.566   3.747 -0.0874  0.4285  0.4787
  161SAPE  H10X18021   3.260   1.483   3.755 -0.8230  1.1879  2.1104
  161SAPE  H10Y18022   3.295   1.631   3.829  0.7415  0.2556  1.0207
  161SAPE  C31118023   3.475   1.514   3.769 -0.3422  0.4902 -0.2328
  161SAPE  H11X18024   3.538   1.598   3.732 -2.4298  1.8540 -0.8435
  161SAPE  H11Y18025   3.505   1.426   3.707  1.4909  0.8367  0.1000
  161SAPE  C31218026   3.498   1.476   3.917  0.4535  0.4374  0.3371
  161SAPE  H12X18027   3.474   1.565   3.979 -0.2815 -0.0259  0.7380
  161SAPE  H12Y18028   3.607   1.455   3.924  0.7515  1.3831 -1.2303
  161SAPE  C31318029   3.423   1.350   3.966 -0.3231  0.2391  0.4934
  161SAPE  H13X18030   3.453   1.254   3.917  0.5639  1.7225 -2.0819
  161SAPE  H13Y18031   3.313   1.353   3.950  0.0346  0.4194 -2.6831
  161SAPE  C31418032   3.463   1.318   4.111 -0.4490  0.2883  0.9970
  161SAPE  H14X18033   3.406   1.383   4.180 -0.5868  0.2297  0.9386
  161SAPE  H14Y18034   3.571   1.341   4.124 -0.3815  0.4404  0.1887
  161SAPE  C31518035   3.431   1.176   4.158  0.0064  0.6511  0.5864
  161SAPE  H15X18036   3.485   1.103   4.094 -0.7162  0.8625 -0.2766
  161SAPE  H15Y18037   3.325   1.144   4.145  0.6279 -1.8611  1.0156
  161SAPE  C31618038   3.475   1.162   4.305 -0.4960  0.1342  0.6655
  161SAPE  H16X18039   3.413   1.229   4.367 -0.2657 -1.0404  2.2190
  161SAPE  H16Y18040   3.583   1.183   4.317 -0.5366 -0.1155  1.5164
  161SAPE  C31718041   3.477   1.016   4.362 -0.5250  0.7821 -0.8340
  161SAPE  H17X18042   3.536   0.948   4.297 -0.6821  1.2217 -1.4429
  161SAPE  H17Y18043   3.375   0.974   4.351 -0.6445  1.2825 -1.7324
  161SAPE  C31818044   3.514   0.999   4.509  1.2647  0.1788 -0.1466
  161SAPE  H18X18045   3.511   0.897   4.552  0.4753 -0.0537 -0.7261
  161SAPE  H18Y18046   3.435   1.057   4.561  0.4130 -0.3907 -0.7718
  161SAPE  H18Z18047   3.619   1.024   4.534  1.6262  0.1641 -1.5581
  162SAPE     N18048   2.308   3.933   2.702 -0.5505 -0.4254 -0.4158
  162SAPE   HN118049   2.369   3.886   2.772  1.8773 -0.2478 -2.2937
  162SAPE   HN218050   2.209   3.903   2.691 -1.7753  3.3457 -1.1416
  162SAPE   HN318051   2.355   3.939   2.610 -1.6025  1.2626 -0.9106
  162SAPE   C1218052   2.299   4.085   2.725 -0.6292 -0.6215 -0.0402
  162SAPE  H12A18053   2.242   4.095   2.820  1.7124 -0.2457  1.4149
  162SAPE  H12B18054   2.251   4.123   2.633  2.5136  3.2474 -0.3253
  162SAPE   C1118055   2.442   4.138   2.731 -1.1712 -0.1831 -0.0340
  162SAPE  H11A18056   2.512   4.111   2.812  0.0164 -1.9583 -1.5710
  162SAPE  H11B18057   2.436   4.249   2.735 -0.9753 -0.0533 -2.1051
  162SAPE     P18058   2.664   4.126   2.593 -0.0111 -0.0505  0.0839
  162SAPE   O1318059   2.714   3.992   2.617  0.1916  0.1199  0.4987
  162SAPE   O1418060   2.700   4.189   2.468  0.0338 -0.2881 -0.0752
  162SAPE   O1218061   2.509   4.114   2.609  0.1791  0.0037  0.1297
  162SAPE   O1118062   2.714   4.224   2.710 -0.3828  0.3215  0.2992
  162SAPE    C118063   2.730   4.362   2.690 -0.4666  1.0476  0.0892
  162SAPE    HA18064   2.834   4.383   2.656 -0.3363  0.3876  0.0811
  162SAPE    HB18065   2.661   4.407   2.615 -1.2520 -0.9420 -0.4221
  162SAPE    C218066   2.729   4.452   2.818  0.6805  0.6769  0.0212
  162SAPE    HS18067   2.835   4.471   2.844  1.3488  1.2212 -2.7243
  162SAPE   O2118068   2.644   4.397   2.922 -0.1563  0.1789 -0.2044
  162SAPE   C2118069   2.699   4.315   3.005 -0.0550 -0.3851 -0.4517
  162SAPE   O2218070   2.810   4.273   3.005 -0.8601 -0.2380  0.1182
  162SAPE   C2218071   2.603   4.274   3.118 -0.3713  0.5047 -0.2098
  162SAPE   H2R18072   2.520   4.223   3.064  0.0210 -0.2037 -0.1475
  162SAPE   H2S18073   2.659   4.197   3.175  2.4157 -0.3216 -3.7198
  162SAPE    C318074   2.665   4.594   2.779  0.1910  0.6111 -0.0562
  162SAPE    HX18075   2.560   4.585   2.745  0.9376 -2.3050 -2.0538
  162SAPE    HY18076   2.711   4.636   2.687 -0.8012 -0.1380 -0.9173
  162SAPE   O3118077   2.665   4.690   2.887 -0.4285  0.3760 -0.7188
  162SAPE   C3118078   2.792   4.736   2.919 -0.2491  0.1047 -0.1871
  162SAPE   O3218079   2.892   4.704   2.860  0.0563  0.3595  0.1083
  162SAPE   C3218080   2.781   4.828   3.038 -0.6406  0.4944 -0.3320
  162SAPE   H2X18081   2.701   4.791   3.106  0.5037  0.6573  1.1814
  162SAPE   H2Y18082   2.771   4.929   2.994 -0.4446  0.6448 -0.0396
  162SAPE   C2318083   2.554   4.388   3.208 -0.5050  0.7111 -0.3036
  162SAPE   H3R18084   2.472   4.352   3.275  1.4281 -1.9301  0.8357
  162SAPE   H3S18085   2.511   4.467   3.143 -0.7408 -0.8806 -2.1846
  162SAPE   C2418086   2.667   4.430   3.311 -0.5026 -0.4569  0.5031
  162SAPE   H4R18087   2.742   4.487   3.252 -1.3748  1.1640  0.8924
  162SAPE   H4S18088   2.711   4.338   3.354 -0.7983  0.2005  2.3375
  162SAPE   C2518089   2.623   4.532   3.408  0.3555 -0.4090 -0.8363
  162SAPE   H5R18090   2.585   4.624   3.363 -0.8705 -1.0118 -1.0701
  162SAPE   C2618091   2.639   4.525   3.540  0.8618  0.3077  0.0695
  162SAPE   H6R18092   2.597   4.615   3.588  1.3518  0.3028  0.5191
  162SAPE   C2718093   2.695   4.424   3.631  0.0086  0.2753 -0.6062
  162SAPE   H7R18094   2.791   4.475   3.652  1.2532 -2.1198 -0.0156
  162SAPE   H7S18095   2.718   4.331   3.574  1.4194  1.4253 -1.9674
  162SAPE   C2818096   2.604   4.386   3.745 -0.0262  0.3103  0.2464
  162SAPE   H8R18097   2.555   4.290   3.722  0.3041  0.8352 -3.1315
  162SAPE   C2918098   2.583   4.472   3.855 -0.1122  0.2297 -0.0311
  162SAPE   H9R18099   2.533   4.426   3.941  0.4852  0.6143  0.5273
  162SAPE  C21018100   2.650   4.600   3.896  0.7385 -0.1981 -0.5949
  162SAPE  H10R18101   2.591   4.678   3.844 -1.0747 -0.8812  0.3522
  162SAPE  H10S18102   2.752   4.598   3.851  0.2426  0.8651 -1.8293
  162SAPE  C21118103   2.637   4.642   4.045  0.5685  0.0356 -0.2206
  162SAPE  H11R18104   2.571   4.727   4.069  1.9950  1.6580 -1.8064
  162SAPE  C21218105   2.708   4.596   4.145  0.0346 -0.3675  0.0883
  162SAPE  H12R18106   2.686   4.635   4.245  1.7059  1.1037 -0.0642
  162SAPE  C21318107   2.816   4.488   4.141  0.2511  0.7078  0.2532
  162SAPE  H13R18108   2.906   4.537   4.183  0.9907  0.3436 -0.8442
  162SAPE  H13S18109   2.826   4.467   4.032 -0.6853 -1.5958  0.5369
  162SAPE  C21418110   2.771   4.350   4.194 -0.2264  0.6159 -0.1307
  162SAPE  H14R18111   2.720   4.283   4.123  0.3611 -0.5291  0.5044
  162SAPE  C21518112   2.773   4.317   4.319  0.1964 -0.7079 -0.5035
  162SAPE  H15R18113   2.749   4.213   4.347 -0.7681 -0.0477  1.2787
  162SAPE  C21618114   2.822   4.401   4.441  0.8960  0.0212 -0.3282
  162SAPE  H16R18115   2.769   4.359   4.530 -1.0233 -0.4577 -1.6346
  162SAPE  H16S18116   2.796   4.508   4.424 -3.5732 -0.4743  1.8842
  162SAPE  C21718117   2.971   4.389   4.474 -0.2041  0.0118  0.7095
  162SAPE  H17R18118   2.977   4.432   4.577  0.2405  2.1859 -0.1668
  162SAPE  H17S18119   3.036   4.452   4.409  0.9509 -0.6878  1.1446
  162SAPE  C21818120   3.031   4.248   4.464  0.1399  0.4784 -0.1283
  162SAPE  H18R18121   3.130   4.255   4.515 -0.2920  1.6859  0.5848
  162SAPE  H18S18122   3.048   4.218   4.359 -1.2069 -0.5666 -0.0785
  162SAPE  C21918123   2.951   4.145   4.552 -0.2510  0.1227 -0.0975
  162SAPE  H19R18124   2.845   4.167   4.532  0.4977  1.6420 -2.7950
  162SAPE  H19S18125   2.973   4.172   4.658  0.0996 -0.3452 -0.0450
  162SAPE  C22018126   2.975   3.998   4.525 -0.2234 -0.8358 -0.7470
  162SAPE  H20R18127   2.901   3.935   4.579 -0.0438  0.1085  0.6648
  162SAPE  H20S18128   3.079   3.972   4.554 -0.6482  0.0023  1.7582
  162SAPE  H20T18129   2.978   3.973   4.417  0.9764  0.9330 -1.1777
  162SAPE   C3318130   2.913   4.822   3.117  0.3545 -1.1032 -0.0006
  162SAPE   H3X18131   2.947   4.719   3.143 -0.1907 -1.4812 -0.7598
  162SAPE   H3Y18132   2.879   4.867   3.213  0.0351  1.0045 -1.0607
  162SAPE   C3418133   3.029   4.913   3.064 -0.3631 -0.2565  0.7004
  162SAPE   H4X18134   2.995   5.019   3.057  0.7263  0.0550 -0.2133
  162SAPE   H4Y18135   3.051   4.877   2.962  0.1607  1.9716 -0.0346
  162SAPE   C3518136   3.157   4.896   3.143  0.4120 -0.1935  0.2748
  162SAPE   H5X18137   3.250   4.923   3.088 -0.2280 -0.0087 -0.7395
  162SAPE   H5Y18138   3.168   4.790   3.176  2.6146 -0.4364 -1.0778
  162SAPE   C3618139   3.150   4.971   3.280  0.0019 -0.7192 -0.4119
  162SAPE   H6X18140   3.228   4.929   3.347 -1.2953 -0.3686  1.3996
  162SAPE   H6Y18141   3.052   4.942   3.325 -1.2588 -0.3588 -2.7425
  162SAPE   C3718142   3.170   5.121   3.255  0.0205  0.2079 -0.0237
  162SAPE   H7X18143   3.096   5.154   3.178  1.1620  0.1828 -1.1599
  162SAPE   H7Y18144   3.270   5.134   3.208  1.5457 -2.3512  2.2487
  162SAPE   C3818145   3.173   5.206   3.382  0.1179 -0.1389 -0.8251
  162SAPE   H8X18146   3.224   5.302   3.359  0.2151  0.4279  1.5242
  162SAPE   H8Y18147   3.238   5.159   3.459  0.7148  1.8944 -0.0210
  162SAPE   C3918148   3.041   5.237   3.455 -0.9142  0.0667 -0.3948
  162SAPE   H9X18149   3.020   5.140   3.506 -0.4158 -0.4173 -1.0958
  162SAPE   H9Y18150   2.953   5.268   3.395  0.7100  2.4334 -1.7286
  162SAPE  C31018151   3.073   5.342   3.568  0.0246 -1.0131 -0.6181
  162SAPE  H10X18152   3.080   5.443   3.524 -1.8106 -1.1431 -1.2883
  162SAPE  H10Y18153   3.176   5.330   3.609  0.4806  0.9732 -1.0935
  162SAPE  C31118154   2.967   5.343   3.683 -0.0436  0.4127  0.5153
  162SAPE  H11X18155   2.868   5.316   3.640  0.7867 -2.7984  0.3671
  162SAPE  H11Y18156   2.969   5.439   3.738  0.6987  0.5157  0.3124
  162SAPE  C31218157   2.996   5.238   3.793 -0.2030 -0.9893 -0.1709
  162SAPE  H12X18158   3.037   5.143   3.753  3.3243  0.8439 -1.3771
  162SAPE  H12Y18159   2.899   5.227   3.846  0.2212  0.8021  1.0967
  162SAPE  C31318160   3.099   5.286   3.899  0.1600  0.3931 -0.0759
  162SAPE  H13X18161   3.048   5.362   3.961 -0.5975 -0.6681  0.6340
  162SAPE  H13Y18162   3.183   5.334   3.844  0.7780  1.4555  1.7212
  162SAPE  C31418163   3.161   5.180   3.993  0.1653 -0.1274 -0.6175
  162SAPE  H14X18164   3.076   5.110   4.004  0.0463 -0.0556 -1.0517
  162SAPE  H14Y18165   3.198   5.228   4.086 -0.3134 -0.5308 -0.2154
  162SAPE  C31518166   3.279   5.109   3.928 -0.2028  0.3592  0.0113
  162SAPE  H15X18167   3.315   5.030   3.997 -0.8108 -1.0815 -1.2774
  162SAPE  H15Y18168   3.362   5.180   3.906 -0.4482 -0.0756 -2.5441
  162SAPE  C31618169   3.254   5.042   3.793 -0.3568 -0.4018  0.5515
  162SAPE  H16X18170   3.285   5.111   3.713  1.0237 -0.2639  1.1846
  162SAPE  H16Y18171   3.157   4.991   3.774  0.5582 -2.3039  0.7144
  162SAPE  C31718172   3.355   4.919   3.769  0.8880  0.4868  0.6463
  162SAPE  H17X18173   3.330   4.880   3.668  0.1344  0.7783  0.7096
  162SAPE  H17Y18174   3.324   4.829   3.828  0.1893  0.8551  0.8594
  162SAPE  C31818175   3.502   4.947   3.795  0.1433  0.5107  0.6240
  162SAPE  H18X18176   3.571   4.879   3.741 -0.7245 -0.8630  1.1910
  162SAPE  H18Y18177   3.530   4.928   3.901  0.7813  1.1812  0.5820
  162SAPE  H18Z18178   3.528   5.051   3.768  0.2483  0.1456 -0.7155
  163SAPE     N18179   2.756   3.745   2.494 -1.0898 -0.0822 -0.4678
  163SAPE   HN118180   2.823   3.780   2.423  0.0106 -1.4560 -0.1503
  163SAPE   HN218181   2.676   3.705   2.441 -0.0879 -1.5001 -0.9731
  163SAPE   HN318182   2.728   3.823   2.557 -3.3437 -1.2909  0.1228
  163SAPE   C1218183   2.847   3.651   2.569 -0.2247 -0.4440 -0.4202
  163SAPE  H12A18184   2.906   3.599   2.491 -0.7718  1.2605 -2.0381
  163SAPE  H12B18185   2.778   3.584   2.624 -0.9342 -0.1509 -0.9469
  163SAPE   C1118186   2.941   3.728   2.674 -0.1178 -0.2872  0.8335
  163SAPE  H11A18187   3.002   3.664   2.741  0.8323  1.4917  1.7353
  163SAPE  H11B18188   2.874   3.777   2.748 -2.7039 -2.6955  0.2700
  163SAPE     P18189   3.109   3.934   2.659  0.4010 -0.2701  0.2834
  163SAPE   O1318190   3.232   3.941   2.579  0.2630 -0.3156 -0.7025
  163SAPE   O1418191   3.029   4.058   2.669  0.0584  0.2333 -0.0301
  163SAPE   O1218192   3.012   3.827   2.600 -0.6161  0.1925  0.1339
  163SAPE   O1118193   3.136   3.891   2.806 -0.6778  0.4159  0.2681
  163SAPE    C118194   3.273   3.853   2.836  0.0734  0.8204 -0.3678
  163SAPE    HA18195   3.278   3.762   2.899 -0.1519  0.8867 -0.2537
  163SAPE    HB18196   3.328   3.825   2.744  0.3864 -0.1251  0.0952
  163SAPE    C218197   3.359   3.959   2.924  0.4174 -0.1907  0.4702
  163SAPE    HS18198   3.326   3.955   3.030  0.6522 -0.2403  0.5430
  163SAPE   O2118199   3.350   4.092   2.867  0.1699 -0.5948 -0.4100
  163SAPE   C2118200   3.248   4.163   2.914  0.0656 -0.7581  0.1572
  163SAPE   O2218201   3.178   4.140   3.012 -0.3688  0.3944  0.0075
  163SAPE   C2218202   3.240   4.304   2.839  0.4822  0.4235  0.5296
  163SAPE   H2R18203   3.210   4.277   2.736 -0.3822 -0.0896  0.8998
  163SAPE   H2S18204   3.161   4.371   2.880  0.2823  0.0133  0.8214
  163SAPE    C318205   3.499   3.902   2.939  1.0656 -0.8336 -0.1201
  163SAPE    HX18206   3.553   3.983   2.992 -2.2491  0.9310  0.8268
  163SAPE    HY18207   3.558   3.882   2.847 -0.0743 -0.0714 -1.0362
  163SAPE   O3118208   3.491   3.778   3.022  0.2420  0.0549 -0.7399
  163SAPE   C3118209   3.608   3.745   3.071  0.0822  0.3042 -0.1187
  163SAPE   O3218210   3.709   3.813   3.059 -0.9757  0.3547 -0.0754
  163SAPE   C3218211   3.592   3.609   3.130  0.7453  0.8056 -0.3342
  163SAPE   H2X18212   3.537   3.543   3.059  0.5763 -1.0447  1.4236
  163SAPE   H2Y18213   3.523   3.610   3.217  0.3074  1.8866 -0.6744
  163SAPE   C2318214   3.358   4.401   2.850 -0.2224  0.1469  0.4848
  163SAPE   H3R18215   3.341   4.477   2.770 -1.5844  1.1801  1.7114
  163SAPE   H3S18216   3.449   4.343   2.822 -1.3948 -0.5642 -2.2517
  163SAPE   C2418217   3.362   4.472   2.984  0.3982 -0.8355 -0.0298
  163SAPE   H4R18218   3.269   4.532   2.977  0.7479 -0.2502  0.2154
  163SAPE   H4S18219   3.449   4.542   2.977  0.6900 -1.0489  1.2749
  163SAPE   C2518220   3.370   4.390   3.110 -0.2375 -0.4413  0.5989
  163SAPE   H5R18221   3.452   4.316   3.115  0.6321  0.3570 -1.0076
  163SAPE   C2618222   3.275   4.375   3.206  0.1467  0.3454  0.2437
  163SAPE   H6R18223   3.301   4.322   3.299 -1.6304 -0.4112  0.3522
  163SAPE   C2718224   3.150   4.459   3.204 -0.7292  0.3015 -0.0358
  163SAPE   H7R18225   3.111   4.444   3.101  0.5104 -0.3748 -0.4265
  163SAPE   H7S18226   3.184   4.564   3.211  3.8666 -0.9966  0.2572
  163SAPE   C2818227   3.044   4.425   3.307 -0.4735  0.1629  0.0231
  163SAPE   H8R18228   2.986   4.333   3.290 -2.0959  1.1275  0.1833
  163SAPE   C2918229   3.008   4.495   3.415  0.1971 -0.6667 -0.6885
  163SAPE   H9R18230   2.923   4.449   3.469 -0.1036 -1.2803 -1.6702
  163SAPE  C21018231   3.067   4.626   3.470  0.4551  0.1809 -0.7056
  163SAPE  H10R18232   3.062   4.694   3.382 -1.2081 -1.8333 -2.2922
  163SAPE  H10S18233   3.174   4.607   3.493 -0.1125  0.3378  2.5463
  163SAPE  C21118234   3.006   4.687   3.593 -0.9447  0.7968 -0.5455
  163SAPE  H11R18235   2.929   4.763   3.571 -2.3862 -0.7373 -0.9945
  163SAPE  C21218236   3.043   4.652   3.719 -0.3688  0.1081  0.1865
  163SAPE  H12R18237   3.008   4.721   3.797  0.9991  0.8144  0.2123
  163SAPE  C21318238   3.142   4.550   3.764  0.8479  0.2505  0.2712
  163SAPE  H13R18239   3.240   4.600   3.780  1.5437 -1.1470  0.5412
  163SAPE  H13S18240   3.172   4.471   3.691 -2.9710  0.2570 -1.5567
  163SAPE  C21418241   3.084   4.481   3.887  0.0402  0.0501 -0.7867
  163SAPE  H14R18242   2.979   4.450   3.876 -0.3091  1.4726 -1.8306
  163SAPE  C21518243   3.136   4.466   4.007 -0.1178 -0.0972 -0.9104
  163SAPE  H15R18244   3.080   4.408   4.082  0.2756  0.6864  0.0095
  163SAPE  C21618245   3.278   4.510   4.050 -0.6541 -0.7314 -0.6366
  163SAPE  H16R18246   3.311   4.578   3.969 -1.0919  0.3093  0.0402
  163SAPE  H16S18247   3.346   4.422   4.062  0.3206  0.0348 -0.4674
  163SAPE  C21718248   3.275   4.589   4.180  0.1262  0.2912 -0.0713
  163SAPE  H17R18249   3.375   4.577   4.227 -0.5277 -1.2704  0.9680
  163SAPE  H17S18250   3.198   4.549   4.249  1.2346 -0.9228  0.4939
  163SAPE  C21818251   3.253   4.737   4.155 -0.0251 -0.1976 -0.3203
  163SAPE  H18R18252   3.158   4.750   4.099 -0.2032 -2.0955 -0.5126
  163SAPE  H18S18253   3.336   4.776   4.091 -0.7734  1.2702 -0.4521
  163SAPE  C21918254   3.236   4.828   4.275  0.1602  0.1901 -0.5075
  163SAPE  H19R18255   3.243   4.936   4.251  0.7481  1.0086  2.7620
  163SAPE  H19S18256   3.321   4.793   4.338  0.2521 -0.0916 -0.7883
  163SAPE  C22018257   3.105   4.810   4.357 -0.7056 -0.1150  0.2286
  163SAPE  H20R18258   3.094   4.710   4.403 -0.0873 -1.0446 -1.5975
  163SAPE  H20S18259   3.019   4.830   4.290  0.2286 -0.7828 -1.1975
  163SAPE  H20T18260   3.099   4.872   4.450 -1.2283  2.4485 -1.4093
  163SAPE   C3318261   3.720   3.537   3.182  0.2100  0.4814 -0.0151
  163SAPE   H3X18262   3.789   3.535   3.095  1.5250 -0.7634  1.0025
  163SAPE   H3Y18263   3.712   3.431   3.215 -1.2378  0.3463 -0.7316
  163SAPE   C3418264   3.793   3.613   3.289 -0.6271  0.4440  0.3085
  163SAPE   H4X18265   3.833   3.711   3.256  1.6280 -0.7325 -0.7206
  163SAPE   H4Y18266   3.886   3.555   3.307 -1.1413  0.2184  2.4991
  163SAPE   C3518267   3.708   3.630   3.420  0.8887  0.5635 -0.1419
  163SAPE   H5X18268   3.653   3.535   3.440 -2.2322  1.8823 -1.7261
  163SAPE   H5Y18269   3.620   3.694   3.398  0.6905  0.2245 -0.3521
  163SAPE   C3618270   3.787   3.686   3.540  0.0160  0.3610 -0.1626
  163SAPE   H6X18271   3.745   3.782   3.577 -0.8335 -0.8083  2.1380
  163SAPE   H6Y18272   3.892   3.704   3.510  0.4244  0.9794  1.5320
  163SAPE   C3718273   3.774   3.602   3.671  0.9223 -0.3773  0.6480
  163SAPE   H7X18274   3.830   3.507   3.656 -0.2419 -0.7471 -1.9015
  163SAPE   H7Y18275   3.666   3.578   3.678  0.5323 -0.3010 -3.0679
  163SAPE   C3818276   3.832   3.658   3.792 -0.1149  0.2096  0.1119
  163SAPE   H8X18277   3.782   3.751   3.826  1.0553 -0.1085  3.0315
  163SAPE   H8Y18278   3.940   3.680   3.780  0.4493 -0.7142  2.7315
  163SAPE   C3918279   3.822   3.562   3.914 -0.1989  0.3706  0.1606
  163SAPE   H9X18280   3.861   3.614   4.004 -0.3164  0.2927  0.2559
  163SAPE   H9Y18281   3.888   3.475   3.889 -0.5848  0.1298 -0.0307
  163SAPE  C31018282   3.683   3.498   3.942 -0.0446 -0.2431 -0.4714
  163SAPE  H10X18283   3.628   3.464   3.852  0.4541 -0.4347 -0.7021
  163SAPE  H10Y18284   3.616   3.574   3.987  0.8120 -0.0909  0.5936
  163SAPE  C31118285   3.694   3.382   4.040  0.3914  0.0323 -0.7054
  163SAPE  H11X18286   3.777   3.315   4.009 -0.6152 -1.5809 -0.0282
  163SAPE  H11Y18287   3.607   3.315   4.051 -0.0570  0.9703  2.5635
  163SAPE  C31218288   3.731   3.440   4.178 -0.4306 -0.1160 -0.8524
  163SAPE  H12X18289   3.653   3.514   4.204 -1.2407 -1.3723  0.4250
  163SAPE  H12Y18290   3.830   3.490   4.164 -0.4472 -0.1016 -0.9196
  163SAPE  C31318291   3.726   3.351   4.302  0.3262 -0.4588  0.0867
  163SAPE  H13X18292   3.801   3.269   4.299 -0.5101 -1.2474 -0.0278
  163SAPE  H13Y18293   3.625   3.303   4.302  0.8488 -1.6181 -0.7806
  163SAPE  C31418294   3.729   3.439   4.425 -0.2582 -0.1171  0.0465
  163SAPE  H14X18295   3.650   3.517   4.426 -1.3164 -1.1546 -0.3465
  163SAPE  H14Y18296   3.823   3.498   4.432  0.8308 -1.7844  0.2941
  163SAPE  C31518297   3.709   3.360   4.551 -0.5465  0.0716 -0.4353
  163SAPE  H15X18298   3.801   3.304   4.579 -1.1203 -0.1563  1.0831
  163SAPE  H15Y18299   3.638   3.277   4.531  1.0084 -0.9213 -2.1101
  163SAPE  C31618300   3.681   3.443   4.678 -0.0168 -0.5421 -0.2064
  163SAPE  H16X18301   3.661   3.377   4.765  4.4933  0.2169  1.6990
  163SAPE  H16Y18302   3.602   3.514   4.647 -0.5676 -1.0910 -0.0694
  163SAPE  C31718303   3.807   3.525   4.729  0.0872  0.0470  0.3464
  163SAPE  H17X18304   3.873   3.562   4.647 -1.4078 -0.2502 -1.0500
  163SAPE  H17Y18305   3.872   3.462   4.794 -0.8546 -1.1022  0.1982
  163SAPE  C31818306   3.759   3.645   4.813 -0.4536 -0.0696 -0.2972
  163SAPE  H18X18307   3.723   3.595   4.906 -1.3706 -2.6065 -1.9309
  163SAPE  H18Y18308   3.682   3.710   4.765  0.3263  0.8655 -0.3274
  163SAPE  H18Z18309   3.848   3.708   4.835  0.1463 -0.9052 -0.3290
  164SAPE     N18310   2.634   6.583   2.260  0.3325  0.3501  0.2128
  164SAPE   HN118311   2.725   6.600   2.215  1.3960 -0.0626  2.0925
  164SAPE   HN218312   2.644   6.645   2.343  3.1319  1.4226 -0.8051
  164SAPE   HN318313   2.614   6.481   2.265 -2.9262  0.9082  1.1763
  164SAPE   C1218314   2.528   6.644   2.173 -0.6142  0.6605 -0.2552
  164SAPE  H12A18315   2.524   6.600   2.071 -2.0842  2.1940 -0.9014
  164SAPE  H12B18316   2.558   6.750   2.173  0.7594  0.2881 -0.6282
  164SAPE   C1118317   2.392   6.602   2.232  0.0562 -1.4399  0.0123
  164SAPE  H11A18318   2.318   6.676   2.194  2.2122  0.9501  0.1945
  164SAPE  H11B18319   2.394   6.620   2.342  0.1862  0.7236 -0.2948
  164SAPE     P18320   2.219   6.401   2.208  0.1555 -0.2006  0.0160
  164SAPE   O1318321   2.111   6.494   2.155 -0.1075  0.2032  0.5525
  164SAPE   O1418322   2.226   6.270   2.144  0.0492  0.0460 -0.1588
  164SAPE   O1218323   2.366   6.466   2.202 -0.3148  0.6979 -0.3506
  164SAPE   O1118324   2.193   6.383   2.368  0.4450  0.2009 -1.0027
  164SAPE    C118325   2.294   6.310   2.442 -0.2568 -0.8427  0.0654
  164SAPE    HA18326   2.279   6.201   2.425 -1.0042 -0.8634  0.8439
  164SAPE    HB18327   2.395   6.338   2.404 -0.5420  0.6087  0.3222
  164SAPE    C218328   2.299   6.350   2.586 -0.4641  0.2828  0.2421
  164SAPE    HS18329   2.362   6.276   2.638 -0.1597  0.0803 -0.4090
  164SAPE   O2118330   2.171   6.355   2.642 -0.0838 -0.4778  0.1889
  164SAPE   C2118331   2.101   6.240   2.639 -0.5116 -0.7231 -0.3912
  164SAPE   O2218332   2.143   6.128   2.610 -0.1324  0.0224 -0.4090
  164SAPE   C2218333   1.964   6.273   2.702  0.0827  0.2587  0.1031
  164SAPE   H2R18334   1.924   6.369   2.664  0.8174  1.0563  1.2707
  164SAPE   H2S18335   1.905   6.186   2.669 -1.3249  1.7506 -1.5374
  164SAPE    C318336   2.374   6.487   2.598  0.1180  0.2386 -0.4757
  164SAPE    HX18337   2.334   6.567   2.533 -0.4618  1.2304  1.0423
  164SAPE    HY18338   2.472   6.459   2.553 -0.2598  1.0537 -1.8446
  164SAPE   O3118339   2.395   6.528   2.737 -1.0425  0.1287  0.5053
  164SAPE   C3118340   2.328   6.633   2.784 -0.1020 -0.4188  0.3010
  164SAPE   O3218341   2.226   6.677   2.729  0.0141 -0.2997 -0.4627
  164SAPE   C3218342   2.389   6.688   2.916 -0.6964 -0.7836 -0.5553
  164SAPE   H2X18343   2.451   6.777   2.894  0.5965 -1.5418 -0.1053
  164SAPE   H2Y18344   2.465   6.613   2.947  0.6805  1.2985  1.3623
  164SAPE   C2318345   1.971   6.299   2.857  0.7854 -0.5326  0.0097
  164SAPE   H3R18346   2.035   6.389   2.868  1.9397 -1.3478  0.1831
  164SAPE   H3S18347   2.018   6.213   2.909 -1.4405 -1.3779  0.7127
  164SAPE   C2418348   1.836   6.317   2.922  0.3345 -0.0963 -0.2894
  164SAPE   H4R18349   1.771   6.233   2.889  1.4447 -0.5467 -1.4314
  164SAPE   H4S18350   1.799   6.417   2.890  0.1977 -0.1585 -0.3271
  164SAPE   C2518351   1.846   6.324   3.068  0.3170 -0.6172 -0.1368
  164SAPE   H5R18352   1.947   6.349   3.104 -0.8988 -0.1304  3.2472
  164SAPE   C2618353   1.757   6.264   3.148  0.2445  0.0365  0.1906
  164SAPE   H6R18354   1.762   6.276   3.257 -1.4457 -0.9437  0.4207
  164SAPE   C2718355   1.617   6.216   3.106 -0.1418 -0.0517  0.2118
  164SAPE   H7R18356   1.604   6.108   3.125 -2.9053  0.3446  1.0732
  164SAPE   H7S18357   1.598   6.226   2.997 -0.6970  1.3185  0.4094
  164SAPE   C2818358   1.509   6.296   3.164 -0.5380 -0.5987  0.9486
  164SAPE   H8R18359   1.503   6.401   3.133 -2.3597 -0.7841  0.5045
  164SAPE   C2918360   1.435   6.268   3.273 -1.1717  0.4279  0.2690
  164SAPE   H9R18361   1.359   6.338   3.309 -2.0000 -0.5879  0.5640
  164SAPE  C21018362   1.431   6.131   3.354 -0.8316  0.8585  0.4365
  164SAPE  H10R18363   1.510   6.137   3.431  0.5940  3.2577 -1.0772
  164SAPE  H10S18364   1.461   6.048   3.286 -1.4179  2.0551 -1.3516
  164SAPE  C21118365   1.299   6.095   3.413 -0.0618 -0.0263  0.7160
  164SAPE  H11R18366   1.212   6.114   3.349  2.1587  0.3593 -2.4645
  164SAPE  C21218367   1.279   6.028   3.528 -0.7213 -0.3102  0.1395
  164SAPE  H12R18368   1.176   6.001   3.554 -0.7426 -2.3784 -1.7434
  164SAPE  C21318369   1.380   5.988   3.639  0.5394  0.0937 -0.8221
  164SAPE  H13R18370   1.479   6.007   3.593  0.0243  0.0999 -1.9765
  164SAPE  H13S18371   1.381   5.880   3.665 -2.4726  0.3048  0.7306
  164SAPE  C21418372   1.347   6.064   3.764 -0.5937 -0.1161 -0.4768
  164SAPE  H14R18373   1.363   6.173   3.760  1.2041 -0.2776  0.9310
  164SAPE  C21518374   1.271   6.019   3.871 -0.1993 -0.2889 -0.4512
  164SAPE  H15R18375   1.268   6.096   3.949  0.3668 -1.5953  0.9059
  164SAPE  C21618376   1.214   5.882   3.905  0.3793  0.5164  0.3938
  164SAPE  H16R18377   1.230   5.846   4.009  0.0129 -1.8418 -0.3247
  164SAPE  H16S18378   1.245   5.804   3.833  0.5387  0.5118  0.4673
  164SAPE  C21718379   1.056   5.879   3.880  0.6134 -0.1437  0.0702
  164SAPE  H17R18380   1.021   5.888   3.775  2.4636 -0.1840 -0.5832
  164SAPE  H17S18381   1.016   5.964   3.940  0.6456 -0.5398  0.6646
  164SAPE  C21818382   0.986   5.752   3.925 -0.0983  1.0563  0.5489
  164SAPE  H18R18383   1.008   5.736   4.033  2.3154 -2.7333 -0.3425
  164SAPE  H18S18384   1.026   5.669   3.864  0.6812  1.1450  0.9390
  164SAPE  C21918385   0.832   5.748   3.910  0.3213  0.4930 -0.3002
  164SAPE  H19R18386   0.784   5.815   3.985  0.5194  1.1253 -0.7275
  164SAPE  H19S18387   0.790   5.648   3.931  0.0609  0.8325  0.8777
  164SAPE  C22018388   0.775   5.796   3.779 -1.2455 -0.2375 -0.1226
  164SAPE  H20R18389   0.792   5.905   3.778  0.1359 -0.3348  2.8994
  164SAPE  H20S18390   0.664   5.791   3.776 -1.4485 -2.7317  3.8878
  164SAPE  H20T18391   0.835   5.748   3.698 -0.0645 -1.3721  1.3765
  164SAPE   C3318392   2.290   6.705   3.031 -0.2907  0.3578 -0.2510
  164SAPE   H3X18393   2.239   6.607   3.043 -3.2406  1.5511 -1.9506
  164SAPE   H3Y18394   2.209   6.780   3.017 -1.0701 -0.4608 -0.2286
  164SAPE   C3418395   2.372   6.742   3.153  0.1863  0.0543 -0.1193
  164SAPE   H4X18396   2.451   6.817   3.129  0.6031 -1.1886 -3.0205
  164SAPE   H4Y18397   2.421   6.656   3.203 -0.5015  0.1322  0.7067
  164SAPE   C3518398   2.285   6.803   3.264  0.0034 -0.2505  0.5920
  164SAPE   H5X18399   2.189   6.747   3.266  0.5035 -1.2836 -1.6015
  164SAPE   H5Y18400   2.267   6.910   3.240 -1.9480 -0.2188  1.9669
  164SAPE   C3618401   2.351   6.776   3.393 -0.4447 -0.0490 -0.3160
  164SAPE   H6X18402   2.455   6.814   3.391 -0.2237 -0.6458 -0.4877
  164SAPE   H6Y18403   2.377   6.669   3.405  0.5078 -0.1734 -2.9220
  164SAPE   C3718404   2.277   6.835   3.520 -0.2855 -0.4381  0.2223
  164SAPE   H7X18405   2.258   6.944   3.509 -1.2625 -0.6944 -0.8322
  164SAPE   H7Y18406   2.338   6.826   3.612  0.9470  1.9995 -0.2468
  164SAPE   C3818407   2.144   6.757   3.547  0.9958  0.2245 -0.0110
  164SAPE   H8X18408   2.163   6.648   3.553 -0.5345  0.0305  2.7924
  164SAPE   H8Y18409   2.075   6.774   3.461  0.7830  2.6982  0.5730
  164SAPE   C3918410   2.081   6.782   3.679 -0.6959 -0.1563 -0.7132
  164SAPE   H9X18411   1.999   6.855   3.661  0.8660  1.4963 -1.3427
  164SAPE   H9Y18412   2.150   6.839   3.744 -0.4869  1.3879 -2.2412
  164SAPE  C31018413   2.015   6.660   3.743 -0.6033 -0.4386 -0.0520
  164SAPE  H10X18414   2.079   6.569   3.749  2.8718  1.6803 -2.2266
  164SAPE  H10Y18415   1.939   6.635   3.666 -0.3523  1.0973 -0.8277
  164SAPE  C31118416   1.939   6.697   3.880 -0.0875 -0.0146 -0.3178
  164SAPE  H11X18417   1.869   6.780   3.853 -0.0828  0.0748 -0.0567
  164SAPE  H11Y18418   2.022   6.752   3.929  0.3655 -0.0110 -1.0705
  164SAPE  C31218419   1.887   6.583   3.969  0.1765  0.2696  0.5214
  164SAPE  H12X18420   1.980   6.526   3.989  0.0244 -0.6797 -1.2723
  164SAPE  H12Y18421   1.820   6.522   3.905 -0.3483  1.2939  0.0658
  164SAPE  C31318422   1.824   6.631   4.094  0.4796  0.1503  0.4593
  164SAPE  H13X18423   1.732   6.682   4.059 -0.4133 -1.0643  0.9772
  164SAPE  H13Y18424   1.876   6.708   4.154  1.1761 -1.2389  1.7100
  164SAPE  C31418425   1.779   6.509   4.181  0.0606 -0.1588 -0.5788
  164SAPE  H14X18426   1.873   6.455   4.207 -0.2288 -0.5374 -0.3071
  164SAPE  H14Y18427   1.710   6.439   4.130  0.1806 -0.1349 -0.7735
  164SAPE  C31518428   1.711   6.544   4.320  0.8798 -0.3046  1.0020
  164SAPE  H15X18429   1.770   6.619   4.376  0.0770  2.7359 -1.9371
  164SAPE  H15Y18430   1.713   6.454   4.386  1.0467  0.4799  2.0898
  164SAPE  C31618431   1.572   6.604   4.289 -0.1839  0.6049 -0.0005
  164SAPE  H16X18432   1.508   6.524   4.245  1.2372 -0.6825  0.2037
  164SAPE  H16Y18433   1.582   6.676   4.204 -0.6534 -0.9626 -1.4402
  164SAPE  C31718434   1.505   6.679   4.402 -0.5907 -0.7219  0.0962
  164SAPE  H17X18435   1.587   6.734   4.454 -1.5582 -0.7075  1.6966
  164SAPE  H17Y18436   1.466   6.617   4.486  0.2445  0.0625  1.0971
  164SAPE  C31818437   1.396   6.783   4.366 -0.3666  0.6856 -0.5466
  164SAPE  H18X18438   1.434   6.854   4.289  2.4648 -0.2746 -0.1576
  164SAPE  H18Y18439   1.377   6.847   4.455  1.1568 -2.0190  1.8976
  164SAPE  H18Z18440   1.303   6.733   4.332 -0.2502 -0.1449  0.3304
  165SAPE     N18441   5.590   4.181   2.336 -0.1633  0.2570 -0.0675
  165SAPE   HN118442   5.622   4.278   2.314 -0.3706  0.0797 -1.2479
  165SAPE   HN218443   5.572   4.138   2.243 -0.7140  2.5146 -1.0887
  165SAPE   HN318444   5.499   4.194   2.385  0.4081 -1.0091  1.3877
  165SAPE   C1218445   5.681   4.102   2.425 -0.9018 -0.0376 -0.3500
  165SAPE  H12A18446   5.762   4.064   2.359 -0.4489  1.8738 -0.9404
  165SAPE  H12B18447   5.630   4.028   2.491  1.6397  0.9788  3.0207
  165SAPE   C1118448   5.755   4.197   2.516 -0.0189  0.7308 -0.1074
  165SAPE  H11A18449   5.818   4.148   2.593 -0.0977  0.9908  0.1223
  165SAPE  H11B18450   5.675   4.248   2.574 -1.6379  1.1724 -2.5666
  165SAPE     P18451   5.979   4.312   2.446  0.1541  0.2606  0.0866
  165SAPE   O1318452   6.047   4.181   2.433  0.0684  0.0092 -0.3876
  165SAPE   O1418453   6.023   4.424   2.357  0.7442  0.1668 -0.3395
  165SAPE   O1218454   5.824   4.296   2.435  0.1027  0.2575 -0.6510
  165SAPE   O1118455   5.982   4.361   2.595 -0.3813  0.3982 -0.1759
  165SAPE    C118456   6.055   4.302   2.697  0.0755  0.2085  0.1135
  165SAPE    HA18457   6.022   4.196   2.711 -2.1726  0.6899 -1.1150
  165SAPE    HB18458   6.162   4.301   2.667 -0.0160  1.4085 -0.2775
  165SAPE    C218459   6.032   4.379   2.833  0.7219 -0.0982  0.9395
  165SAPE    HS18460   5.935   4.341   2.872  0.9932 -0.4648  1.2628
  165SAPE   O2118461   6.030   4.520   2.804  0.4028 -0.5005 -0.2760
  165SAPE   C2118462   5.950   4.590   2.890 -0.1663 -0.1936 -0.1627
  165SAPE   O2218463   5.880   4.537   2.971  0.2338 -0.1633  0.2099
  165SAPE   C2218464   5.974   4.741   2.870  0.1745  0.6211  0.0754
  165SAPE   H2R18465   6.084   4.748   2.856  0.5903 -0.8281  2.1233
  165SAPE   H2S18466   5.934   4.764   2.769 -1.7011 -3.2095 -0.2554
  165SAPE    C318467   6.137   4.336   2.941  0.0591 -0.0200  0.8042
  165SAPE    HX18468   6.117   4.400   3.030 -2.8922  1.4521 -0.7577
  165SAPE    HY18469   6.237   4.352   2.894  0.6243 -3.4806  0.5488
  165SAPE   O3118470   6.124   4.200   2.985  0.8093  0.1067  0.2078
  165SAPE   C3118471   6.205   4.105   2.950 -0.6481 -0.1189 -0.0955
  165SAPE   O3218472   6.294   4.115   2.865  0.0093 -0.3650 -0.5043
  165SAPE   C3218473   6.170   3.984   3.038  0.0443 -0.2936  0.1653
  165SAPE   H2X18474   6.230   3.900   2.996  1.1266  0.5038  0.0580
  165SAPE   H2Y18475   6.064   3.962   3.018 -0.0650  1.0590 -0.9379
  165SAPE   C2318476   5.912   4.834   2.978 -0.1282 -0.1840 -0.5344
  165SAPE   H3R18477   5.807   4.798   2.984 -0.9331  1.9910 -0.7156
  165SAPE   H3S18478   5.902   4.936   2.936 -0.4451 -0.4124 -1.0197
  165SAPE   C2418479   5.976   4.830   3.116 -0.2747 -0.4595  0.0135
  165SAPE   H4R18480   5.944   4.733   3.159 -1.4861  0.3054  0.8745
  165SAPE   H4S18481   5.927   4.893   3.193 -0.0382  2.3309 -1.9626
  165SAPE   C2518482   6.127   4.855   3.115  0.4637  0.2032 -0.2137
  165SAPE   H5R18483   6.184   4.766   3.085  0.3804  0.8337 -2.3845
  165SAPE   C2618484   6.194   4.968   3.142 -0.9019 -0.0604  0.4499
  165SAPE   H6R18485   6.303   4.964   3.127 -1.1376  0.7399 -2.0591
  165SAPE   C2718486   6.131   5.101   3.166  0.3292 -0.4664 -0.4368
  165SAPE   H7R18487   6.202   5.155   3.232  0.2331  1.1685 -1.5974
  165SAPE   H7S18488   6.031   5.093   3.213  0.0323 -2.0738 -1.2778
  165SAPE   C2818489   6.123   5.192   3.045  0.1746  0.5085  0.0429
  165SAPE   H8R18490   6.197   5.176   2.965 -1.0772  0.3190 -1.1111
  165SAPE   C2918491   6.046   5.296   3.019  0.0637 -0.5300 -0.0897
  165SAPE   H9R18492   6.059   5.348   2.922  0.7720  0.6477  0.6136
  165SAPE  C21018493   5.949   5.354   3.113 -0.3949 -0.2983  0.0493
  165SAPE  H10R18494   5.908   5.271   3.174 -0.1650 -0.3519  0.1330
  165SAPE  H10S18495   5.861   5.402   3.064  0.1269  0.4863 -0.1403
  165SAPE  C21118496   6.014   5.456   3.213  0.1774 -0.5284 -0.2724
  165SAPE  H11R18497   6.122   5.445   3.225  0.0803 -1.7243 -0.2860
  165SAPE  C21218498   5.940   5.543   3.280  0.0178 -0.9645 -0.2817
  165SAPE  H12R18499   5.989   5.613   3.350  1.1628 -0.5463 -1.4490
  165SAPE  C21318500   5.794   5.574   3.268 -0.3633 -0.1835 -0.0473
  165SAPE  H13R18501   5.757   5.551   3.370 -0.6043  1.6405  0.3114
  165SAPE  H13S18502   5.729   5.510   3.204 -2.3870  1.1659  0.5306
  165SAPE  C21418503   5.753   5.715   3.238 -0.5591  0.4305  0.3506
  165SAPE  H14R18504   5.776   5.741   3.133 -1.1866 -1.1980 -0.2107
  165SAPE  C21518505   5.695   5.799   3.329  0.7212  0.1037  0.4071
  165SAPE  H15R18506   5.647   5.888   3.286  0.2945 -1.0705 -1.6878
  165SAPE  C21618507   5.652   5.761   3.472 -1.3513  0.1173 -0.3381
  165SAPE  H16R18508   5.624   5.654   3.482  0.9847 -0.4652  0.5256
  165SAPE  H16S18509   5.558   5.813   3.501 -1.0578  0.6659 -0.3634
  165SAPE  C21718510   5.764   5.796   3.564  0.6587 -0.0779 -0.2060
  165SAPE  H17R18511   5.787   5.903   3.543  0.2704  0.0575  0.0553
  165SAPE  H17S18512   5.861   5.745   3.544 -0.6038 -3.8174  2.2704
  165SAPE  C21818513   5.736   5.793   3.720  0.7021 -0.3373  0.4428
  165SAPE  H18R18514   5.650   5.858   3.747  0.2040 -1.1078  0.7810
  165SAPE  H18S18515   5.826   5.840   3.764  0.9340  0.0788 -0.4640
  165SAPE  C21918516   5.717   5.655   3.780 -0.6069  0.2130  0.4237
  165SAPE  H19R18517   5.633   5.601   3.731  0.0684  0.0328 -0.5599
  165SAPE  H19S18518   5.697   5.679   3.887  3.3054  1.5160  1.0480
  165SAPE  C22018519   5.837   5.548   3.776 -0.0093 -0.3269  0.2682
  165SAPE  H20R18520   5.871   5.529   3.672  0.4191 -2.2256  0.7271
  165SAPE  H20S18521   5.803   5.446   3.804  2.5806 -1.0891  0.8682
  165SAPE  H20T18522   5.904   5.585   3.857 -0.3774 -2.2444  1.5202
  165SAPE   C3318523   6.197   3.999   3.191 -0.2032  0.8520  0.1313
  165SAPE   H3X18524   6.168   4.103   3.217 -0.9181  1.0301 -1.2922
  165SAPE   H3Y18525   6.305   3.986   3.213 -0.2305  2.6352  1.6469
  165SAPE   C3418526   6.128   3.895   3.277  0.3510  0.5686 -0.5054
  165SAPE   H4X18527   6.123   3.794   3.232  0.6913 -0.6552  1.9836
  165SAPE   H4Y18528   6.024   3.931   3.291  0.3817 -0.0312  1.6921
  165SAPE   C3518529   6.199   3.885   3.412 -0.0729 -0.3967 -0.3002
  165SAPE   H5X18530   6.305   3.854   3.401  0.2711 -0.1402  1.8386
  165SAPE   H5Y18531   6.142   3.804   3.462  1.5069 -3.2281 -2.7364
  165SAPE   C3618532   6.190   4.013   3.493  0.4117 -0.4122 -0.6153
  165SAPE   H6X18533   6.088   4.053   3.474 -0.3610 -1.4319  1.1571
  165SAPE   H6Y18534   6.263   4.091   3.462 -0.8418  1.5903  1.1358
  165SAPE   C3718535   6.217   3.991   3.646 -0.2655  0.4684  0.6190
  165SAPE   H7X18536   6.320   3.950   3.645 -0.6208 -0.4542  1.0422
  165SAPE   H7Y18537   6.153   3.908   3.681  2.0512 -1.5528  0.2930
  165SAPE   C3818538   6.210   4.117   3.730 -0.2296  0.4270  0.5769
  165SAPE   H8X18539   6.272   4.202   3.694 -1.5240  0.9530 -0.4925
  165SAPE   H8Y18540   6.232   4.092   3.835  0.3620  2.1576  0.8905
  165SAPE   C3918541   6.077   4.190   3.730 -0.4665 -0.2060  0.2082
  165SAPE   H9X18542   6.038   4.211   3.628 -0.2328  0.4877  0.2541
  165SAPE   H9Y18543   6.086   4.287   3.784 -1.3144 -0.3806  0.6694
  165SAPE  C31018544   5.967   4.111   3.804 -0.2135  0.0541  0.4363
  165SAPE  H10X18545   6.020   4.094   3.900  0.8513  2.6144  0.3888
  165SAPE  H10Y18546   5.959   4.006   3.771  1.5785 -0.4114  1.3784
  165SAPE  C31118547   5.840   4.187   3.824  0.0413 -0.3049 -0.0906
  165SAPE  H11X18548   5.781   4.129   3.897  0.4020 -1.0660 -0.3960
  165SAPE  H11Y18549   5.783   4.184   3.729  0.6436  3.1166 -0.7040
  165SAPE  C31218550   5.842   4.326   3.890  0.8564  0.4218 -0.0332
  165SAPE  H12X18551   5.928   4.387   3.856 -0.2816  3.1200  1.5222
  165SAPE  H12Y18552   5.848   4.322   4.001 -2.0695 -1.0725  0.1778
  165SAPE  C31318553   5.710   4.409   3.861  0.4854  0.3322  0.0523
  165SAPE  H13X18554   5.626   4.372   3.924 -0.2512  1.1059 -0.4441
  165SAPE  H13Y18555   5.679   4.390   3.756 -0.1610 -0.7775  0.4212
  165SAPE  C31418556   5.726   4.561   3.871  0.3028 -0.3256 -0.3258
  165SAPE  H14X18557   5.822   4.590   3.822  0.3107  3.3450  1.4964
  165SAPE  H14Y18558   5.731   4.605   3.972  0.3650  2.6483 -1.5190
  165SAPE  C31518559   5.609   4.637   3.807  0.5234  0.4722  0.3649
  165SAPE  H15X18560   5.604   4.610   3.700 -1.0095  0.6267  0.3613
  165SAPE  H15Y18561   5.629   4.746   3.800 -0.3782  0.5320 -3.0645
  165SAPE  C31618562   5.481   4.620   3.879  0.2625  0.2368  0.5471
  165SAPE  H16X18563   5.507   4.660   3.979  0.4657 -0.8829  0.9511
  165SAPE  H16Y18564   5.449   4.514   3.881 -0.1863  0.3620  0.2271
  165SAPE  C31718565   5.363   4.695   3.820 -0.1346  0.2577 -0.1594
  165SAPE  H17X18566   5.350   4.669   3.713 -0.3663 -1.0848  0.1728
  165SAPE  H17Y18567   5.374   4.805   3.823  2.1039  0.0539  1.2197
  165SAPE  C31818568   5.239   4.669   3.907  1.0755 -0.3326  0.4328
  165SAPE  H18X18569   5.254   4.718   4.006 -0.6441 -0.7642  0.9290
  165SAPE  H18Y18570   5.226   4.559   3.918  0.4400 -0.0327  3.2662
  165SAPE  H18Z18571   5.141   4.702   3.866  1.9327  0.9107 -0.7013
  166SAPE     N18572   6.893   4.196   2.732  0.1734 -0.0448  0.5755
  166SAPE   HN118573   6.845   4.111   2.699  0.8219  0.1798 -1.0403
  166SAPE   HN218574   6.856   4.287   2.697 -0.7425 -0.6337 -0.0245
  166SAPE   HN318575   6.988   4.192   2.689 -0.7039 -1.0361 -1.4233
  166SAPE   C1218576   6.904   4.192   2.881  0.6141 -1.0591 -0.0810
  166SAPE  H12A18577   6.806   4.169   2.927  1.1135 -1.1415  0.9610
  166SAPE  H12B18578   6.937   4.293   2.915  2.0094 -0.1545 -3.6438
  166SAPE   C1118579   7.013   4.091   2.921 -0.5493 -0.2643  0.0107
  166SAPE  H11A18580   7.016   4.062   3.029  1.6603 -0.5756 -0.0757
  166SAPE  H11B18581   7.108   4.145   2.901 -0.8036  0.1607 -0.0492
  166SAPE     P18582   6.935   3.831   2.865  0.0164  0.2311 -0.2677
  166SAPE   O1318583   6.875   3.842   3.002 -0.0764  0.4122  0.7136
  166SAPE   O1418584   6.847   3.806   2.752  0.6251 -0.0071 -0.6987
  166SAPE   O1218585   7.012   3.970   2.836 -0.2825  1.0831  0.0990
  166SAPE   O1118586   7.049   3.718   2.862 -0.1380 -0.0298  0.0411
  166SAPE    C118587   7.175   3.738   2.795  0.1286 -0.3642  0.9507
  166SAPE    HA18588   7.181   3.653   2.723  0.7148 -0.3415  0.9704
  166SAPE    HB18589   7.173   3.828   2.731 -0.8338 -0.9418  0.1293
  166SAPE    C218590   7.299   3.739   2.890 -0.8504 -0.0232  0.0508
  166SAPE    HS18591   7.387   3.758   2.825 -0.9662  1.3436  0.2611
  166SAPE   O2118592   7.308   3.612   2.962  0.6794  0.6165 -0.1356
  166SAPE   C2118593   7.435   3.577   3.001  1.0539 -0.2725 -0.2110
  166SAPE   O2218594   7.538   3.635   2.963 -0.4705  0.3044 -0.1530
  166SAPE   C2218595   7.437   3.437   3.072 -0.6563 -0.8624 -0.0183
  166SAPE   H2R18596   7.354   3.430   3.146 -0.6877 -2.3244 -0.1537
  166SAPE   H2S18597   7.424   3.362   2.991 -0.3032  2.0898 -3.0246
  166SAPE    C318598   7.296   3.859   2.991 -0.3915 -0.0003  0.5867
  166SAPE    HX18599   7.209   3.842   3.058 -1.2990 -0.9816 -0.7919
  166SAPE    HY18600   7.291   3.956   2.939  1.9564  0.6728  1.4893
  166SAPE   O3118601   7.408   3.861   3.081 -0.2351  0.2854  0.8269
  166SAPE   C3118602   7.514   3.920   3.019  0.1107  0.2328  0.1500
  166SAPE   O3218603   7.521   3.967   2.911 -0.2152 -0.0928  0.4715
  166SAPE   C3218604   7.629   3.922   3.117  0.4474  0.4670 -0.0619
  166SAPE   H2X18605   7.646   3.819   3.155 -1.8671  0.2113  0.4040
  166SAPE   H2Y18606   7.588   3.985   3.199 -0.7698  0.0480 -0.3237
  166SAPE   C2318607   7.572   3.410   3.147  0.3250 -0.2110 -1.0178
  166SAPE   H3R18608   7.592   3.513   3.184  0.0368 -1.3180  2.6033
  166SAPE   H3S18609   7.653   3.377   3.078 -0.1062 -2.3319 -0.5750
  166SAPE   C2418610   7.575   3.316   3.256 -0.6512  0.9373 -0.3095
  166SAPE   H4R18611   7.679   3.304   3.294 -0.9802  1.8428  0.9586
  166SAPE   H4S18612   7.548   3.217   3.216  0.2904  0.9350 -0.9878
  166SAPE   C2518613   7.492   3.359   3.370 -0.0758  1.0270 -0.4342
  166SAPE   H5R18614   7.538   3.449   3.414  2.6886  0.1784 -1.4124
  166SAPE   C2618615   7.376   3.299   3.416  0.7551  0.1847  0.2442
  166SAPE   H6R18616   7.330   3.346   3.504  0.3569 -0.6840  0.5045
  166SAPE   C2718617   7.306   3.189   3.339  0.4380 -0.0551 -0.6041
  166SAPE   H7R18618   7.383   3.127   3.287  0.0281  0.8161 -2.3398
  166SAPE   H7S18619   7.245   3.231   3.255  2.2688  1.1968 -1.3927
  166SAPE   C2818620   7.206   3.107   3.417 -0.3652  0.4014  0.3298
  166SAPE   H8R18621   7.230   3.004   3.445  2.7327  0.9277 -0.0465
  166SAPE   C2918622   7.077   3.145   3.436  0.1643  0.5535 -0.0431
  166SAPE   H9R18623   7.008   3.070   3.478 -0.2557 -0.3444 -2.2056
  166SAPE  C21018624   7.001   3.262   3.382  0.1643 -0.7612 -0.2205
  166SAPE  H10R18625   6.894   3.233   3.387  0.3099 -1.4169  5.4879
  166SAPE  H10S18626   7.033   3.290   3.279 -0.6983  2.8776  0.3773
  166SAPE  C21118627   7.026   3.380   3.474  0.3338  0.1402  0.3916
  166SAPE  H11R18628   7.004   3.366   3.581  0.5575  0.4583  0.4794
  166SAPE  C21218629   7.094   3.490   3.448  0.6380 -0.3463  0.1836
  166SAPE  H12R18630   7.100   3.563   3.530  0.8585  1.1640 -1.1213
  166SAPE  C21318631   7.149   3.537   3.313  0.3690  0.3312  0.5068
  166SAPE  H13R18632   7.162   3.447   3.249 -0.4594  0.6119 -0.0713
  166SAPE  H13S18633   7.253   3.570   3.337  0.4587  0.4832 -0.0731
  166SAPE  C21418634   7.070   3.650   3.262 -0.0679  1.0577 -0.3890
  166SAPE  H14R18635   7.016   3.624   3.169 -0.9687  1.7147 -0.0672
  166SAPE  C21518636   7.044   3.772   3.309  0.6248 -0.4110  0.5265
  166SAPE  H15R18637   7.003   3.845   3.237  1.7595  1.2800  1.5103
  166SAPE  C21618638   7.109   3.837   3.430 -0.3413 -0.2693  0.4427
  166SAPE  H16R18639   7.172   3.763   3.484  1.9180  0.3112 -1.1977
  166SAPE  H16S18640   7.029   3.864   3.502 -1.4256  0.2090 -0.8955
  166SAPE  C21718641   7.213   3.946   3.389  0.1823 -0.5278  0.0589
  166SAPE  H17R18642   7.295   3.925   3.318 -0.2315  0.3138 -0.6969
  166SAPE  H17S18643   7.268   3.983   3.478  2.5578 -3.0067 -0.2735
  166SAPE  C21818644   7.145   4.065   3.329 -0.1607  0.1584 -0.2245
  166SAPE  H18R18645   7.051   4.093   3.379 -0.9066  3.2966 -3.0187
  166SAPE  H18S18646   7.112   4.033   3.228 -0.8125  0.1581 -0.0118
  166SAPE  C21918647   7.241   4.186   3.318  0.7065 -0.1154 -0.0040
  166SAPE  H19R18648   7.258   4.220   3.422  0.0765 -1.6591  0.6245
  166SAPE  H19S18649   7.173   4.264   3.277 -1.6519 -1.2543  1.5734
  166SAPE  C22018650   7.369   4.176   3.241 -0.2380  0.5063 -0.4388
  166SAPE  H20R18651   7.340   4.210   3.139 -1.3147 -3.4804 -1.6697
  166SAPE  H20S18652   7.395   4.070   3.220 -2.3361  0.3785 -2.8684
  166SAPE  H20T18653   7.458   4.219   3.292  0.6344 -1.1394 -0.4766
  166SAPE   C3318654   7.756   3.987   3.055 -0.4743 -0.2084  0.4784
  166SAPE   H3X18655   7.726   4.084   3.010 -0.2548  0.6255  2.0645
  166SAPE   H3Y18656   7.784   3.915   2.974  0.9151 -1.1491  1.7256
  166SAPE   C3418657   7.879   4.007   3.134 -0.8936 -0.1121 -0.0418
  166SAPE   H4X18658   7.963   3.990   3.063 -0.1049  0.7854  0.6429
  166SAPE   H4Y18659   7.880   3.918   3.199 -0.1218 -2.2777 -2.8168
  166SAPE   C3518660   7.885   4.139   3.212  0.2378 -0.3797 -0.6180
  166SAPE   H5X18661   7.785   4.159   3.257  0.1044  0.5003 -1.2741
  166SAPE   H5Y18662   7.913   4.219   3.141  3.3969 -0.4557  0.3923
  166SAPE   C3618663   7.995   4.129   3.314 -0.0461  0.5974 -0.2431
  166SAPE   H6X18664   8.030   4.227   3.355 -2.8816  0.9979  1.5013
  166SAPE   H6Y18665   8.078   4.067   3.274 -1.7730 -1.9586 -0.0674
  166SAPE   C3718666   7.964   4.024   3.421  0.1319  0.1337 -0.3097
  166SAPE   H7X18667   7.967   3.918   3.388  1.7278 -0.0816  0.4046
  166SAPE   H7Y18668   7.862   4.033   3.462  0.9786  0.8546  1.7817
  166SAPE   C3818669   8.074   4.005   3.537  0.7345 -0.1688  1.3583
  166SAPE   H8X18670   8.050   4.092   3.602 -0.4539  0.4469  0.1206
  166SAPE   H8Y18671   8.171   4.028   3.488 -1.4565  1.6424 -2.5854
  166SAPE   C3918672   8.080   3.873   3.616  0.3150 -0.2097  0.2609
  166SAPE   H9X18673   8.172   3.873   3.677  0.8665  1.3110 -0.5165
  166SAPE   H9Y18674   8.098   3.792   3.542  1.0478 -0.1715  0.3941
  166SAPE  C31018675   7.965   3.828   3.710  0.2039 -0.2631 -0.0703
  166SAPE  H10X18676   7.996   3.735   3.762  3.0047  1.7440  2.2069
  166SAPE  H10Y18677   7.869   3.812   3.655 -0.3422  1.3728  0.3293
  166SAPE  C31118678   7.926   3.954   3.799  0.5048  0.4478 -0.3037
  166SAPE  H11X18679   7.881   4.027   3.729  0.2305 -0.0254 -0.6332
  166SAPE  H11Y18680   8.008   4.001   3.856  0.9914 -0.3920 -0.2890
  166SAPE  C31218681   7.819   3.903   3.892 -0.0151  0.1826 -0.2035
  166SAPE  H12X18682   7.852   3.814   3.951 -2.0798 -0.6369 -0.1862
  166SAPE  H12Y18683   7.729   3.873   3.834 -1.0575  1.8672  0.4770
  166SAPE  C31318684   7.783   4.012   4.000 -0.6307  0.2113  0.0360
  166SAPE  H13X18685   7.789   4.109   3.947 -0.9683  1.0215  1.4270
  166SAPE  H13Y18686   7.854   4.007   4.085  2.5980  1.4904 -2.3935
  166SAPE  C31418687   7.642   3.989   4.052 -0.0999 -0.8519  0.0989
  166SAPE  H14X18688   7.650   3.902   4.120 -1.2504 -1.2695 -0.2782
  166SAPE  H14Y18689   7.574   3.971   3.966  2.4896 -0.2365 -2.2445
  166SAPE  C31518690   7.587   4.109   4.132  0.5430 -0.1107  0.0181
  166SAPE  H15X18691   7.579   4.201   4.069 -1.7224 -1.0066 -1.1156
  166SAPE  H15Y18692   7.650   4.140   4.218 -0.1299  0.7689  0.2141
  166SAPE  C31618693   7.435   4.091   4.166  0.7143  0.5138 -0.1269
  166SAPE  H16X18694   7.381   4.105   4.070  0.6160  1.2750  0.0350
  166SAPE  H16Y18695   7.395   4.169   4.234 -0.1437  0.6238 -0.7433
  166SAPE  C31718696   7.402   3.958   4.240  0.0505  0.1087 -0.0471
  166SAPE  H17X18697   7.456   3.956   4.337  0.7330 -1.9260 -0.4298
  166SAPE  H17Y18698   7.439   3.876   4.175 -1.3720 -1.0488  0.5520
  166SAPE  C31818699   7.250   3.958   4.252  0.7353 -0.3707  0.7665
  166SAPE  H18X18700   7.212   3.856   4.277 -0.6459  0.1251  0.7736
  166SAPE  H18Y18701   7.193   3.977   4.158  0.1844 -1.1236  0.9342
  166SAPE  H18Z18702   7.217   4.023   4.335  1.0277  0.7942 -0.0032
  167SAPE     N18703   0.505   7.114   2.431 -0.6666  0.1739  0.5603
  167SAPE   HN118704   0.491   7.168   2.343  1.8008 -0.9636 -0.6254
  167SAPE   HN218705   0.451   7.160   2.508  0.3001 -1.6033  2.3889
  167SAPE   HN318706   0.604   7.121   2.463 -0.7405 -1.3957  1.2105
  167SAPE   C1218707   0.482   6.966   2.417 -0.0699 -0.3534 -0.5865
  167SAPE  H12A18708   0.557   6.934   2.341 -0.3999  1.4248 -1.7190
  167SAPE  H12B18709   0.378   6.943   2.385 -0.1186  0.0148 -0.7022
  167SAPE   C1118710   0.507   6.878   2.545  0.2303 -0.2966 -0.0166
  167SAPE  H11A18711   0.612   6.892   2.578 -0.4047 -0.0448  2.0961
  167SAPE  H11B18712   0.501   6.768   2.527  2.8917 -0.1417 -2.3384
  167SAPE     P18713   0.280   6.868   2.674 -0.2508  0.0702  0.0536
  167SAPE   O1318714   0.191   6.980   2.719 -0.2496 -0.2127 -0.3039
  167SAPE   O1418715   0.240   6.800   2.547  0.2132 -0.3750 -0.3745
  167SAPE   O1218716   0.427   6.918   2.668  0.3406 -0.1372 -0.4284
  167SAPE   O1118717   0.276   6.758   2.787  0.0535  0.1771 -0.8685
  167SAPE    C118718   0.382   6.662   2.797  0.6538 -0.8130  0.6078
  167SAPE    HA18719   0.371   6.601   2.705 -1.7102 -0.5456  0.6460
  167SAPE    HB18720   0.479   6.716   2.800  0.2140  0.0225  0.2992
  167SAPE    C218721   0.362   6.565   2.919  0.1813  0.0042  0.3337
  167SAPE    HS18722   0.265   6.517   2.895 -1.5436  3.5377 -0.4037
  167SAPE   O2118723   0.352   6.637   3.038  0.0540  0.0528 -0.5175
  167SAPE   C2118724   0.285   6.592   3.143  0.6181  0.3654 -0.4913
  167SAPE   O2218725   0.214   6.493   3.141  0.0830  0.3174 -0.1249
  167SAPE   C2218726   0.308   6.675   3.263 -0.1340 -0.0403 -0.3084
  167SAPE   H2R18727   0.412   6.686   3.300  1.1325 -3.0785 -2.5710
  167SAPE   H2S18728   0.264   6.777   3.257  1.7824  0.9301  1.1027
  167SAPE    C318729   0.477   6.464   2.922  0.2572 -0.1767 -0.3706
  167SAPE    HX18730   0.569   6.522   2.946 -0.9308  1.9607 -0.7899
  167SAPE    HY18731   0.502   6.423   2.821  0.3293  1.4764 -1.0442
  167SAPE   O3118732   0.457   6.362   3.025 -0.3851  0.1445  0.6360
  167SAPE   C3118733   0.386   6.251   2.984 -0.3039  0.0470 -0.4725
  167SAPE   O3218734   0.326   6.243   2.878  0.3222  0.0893 -0.0712
  167SAPE   C3218735   0.378   6.155   3.105  0.4254 -0.1391 -0.7623
  167SAPE   H2X18736   0.269   6.140   3.115  0.8629 -1.9806  3.0556
  167SAPE   H2Y18737   0.424   6.193   3.199  1.3196  2.1781 -2.0393
  167SAPE   C2318738   0.225   6.607   3.377  0.3780 -0.0787  0.0903
  167SAPE   H3R18739   0.280   6.516   3.408  3.1587  1.4179 -0.0900
  167SAPE   H3S18740   0.120   6.585   3.347  0.9946  0.2908 -2.6288
  167SAPE   C2418741   0.214   6.710   3.488  0.1729  0.2883 -0.3216
  167SAPE   H4R18742   0.137   6.786   3.466  0.7851  0.5434 -1.7365
  167SAPE   H4S18743   0.308   6.769   3.497  0.1089  0.3668 -0.1716
  167SAPE   C2518744   0.194   6.643   3.630  0.1797 -0.7429  0.2096
  167SAPE   H5R18745   0.272   6.571   3.660  1.0579  0.6603  1.4187
  167SAPE   C2618746   0.089   6.664   3.712 -0.3046  0.1247  0.2027
  167SAPE   H6R18747   0.088   6.644   3.820 -0.5920  0.1384  0.2048
  167SAPE   C2718748  -0.041   6.731   3.682 -0.0733 -0.6321 -0.3730
  167SAPE   H7R18749  -0.039   6.827   3.627 -0.9873 -0.4279 -0.0684
  167SAPE   H7S18750  -0.092   6.758   3.777  1.4227 -0.0382  0.2753
  167SAPE   C2818751  -0.121   6.639   3.594  0.3141  0.1497  0.0537
  167SAPE   H8R18752  -0.083   6.618   3.493 -0.5214  0.2759 -0.2989
  167SAPE   C2918753  -0.235   6.577   3.623 -0.2478  0.0377  0.1010
  167SAPE   H9R18754  -0.297   6.529   3.546  0.4038 -1.1712  0.3000
  167SAPE  C21018755  -0.302   6.582   3.760  0.1730  0.0872 -0.0296
  167SAPE  H10R18756  -0.238   6.632   3.834  1.4241 -0.6350 -0.5918
  167SAPE  H10S18757  -0.309   6.480   3.805 -4.0045  0.0882 -0.2369
  167SAPE  C21118758  -0.444   6.635   3.761 -0.0223  0.3234  0.0630
  167SAPE  H11R18759  -0.466   6.715   3.689  2.4476 -0.4853 -1.7337
  167SAPE  C21218760  -0.532   6.598   3.855 -0.0119  0.5026 -0.4158
  167SAPE  H12R18761  -0.632   6.642   3.844 -0.1786  0.0879 -0.5979
  167SAPE  C21318762  -0.512   6.508   3.980  0.3112  0.1966 -0.1189
  167SAPE  H13R18763  -0.410   6.522   4.022 -0.0151  0.0743  0.7466
  167SAPE  H13S18764  -0.519   6.399   3.961 -0.6542  0.4675 -1.4554
  167SAPE  C21418765  -0.603   6.559   4.083  0.9447 -0.4149  0.0233
  167SAPE  H14R18766  -0.567   6.638   4.150  0.3743 -0.9949  1.0530
  167SAPE  C21518767  -0.715   6.500   4.127 -0.5224 -0.1805 -0.1297
  167SAPE  H15R18768  -0.761   6.548   4.215 -1.3100  0.9761 -1.1341
  167SAPE  C21618769  -0.791   6.393   4.056 -0.1037 -0.9190  1.2505
  167SAPE  H16R18770  -0.739   6.380   3.958 -0.6539  0.5894  0.7273
  167SAPE  H16S18771  -0.891   6.431   4.025 -0.8669 -3.2209  0.7454
  167SAPE  C21718772  -0.800   6.255   4.121  0.3207  0.6475  0.3824
  167SAPE  H17R18773  -0.697   6.227   4.151  0.3157 -0.3182 -0.4490
  167SAPE  H17S18774  -0.835   6.176   4.051 -0.2516  0.7173  0.5848
  167SAPE  C21818775  -0.896   6.263   4.245 -0.0044  1.0931 -0.0816
  167SAPE  H18R18776  -1.000   6.295   4.219 -0.2190  0.9014  0.5280
  167SAPE  H18S18777  -0.852   6.338   4.314  2.0304 -1.1469  1.1584
  167SAPE  C21918778  -0.894   6.125   4.309 -0.4391 -0.6781 -0.1347
  167SAPE  H19R18779  -0.789   6.088   4.310  0.3228  1.2863 -0.8889
  167SAPE  H19S18780  -0.960   6.069   4.239  1.2193  1.0315 -3.3474
  167SAPE  C22018781  -0.945   6.146   4.444 -0.6659  0.0506 -0.4166
  167SAPE  H20R18782  -1.029   6.218   4.456  0.0487  0.4418  3.6659
  167SAPE  H20S18783  -0.866   6.189   4.509  0.2433 -4.5049  1.8241
  167SAPE  H20T18784  -0.972   6.052   4.496  0.8090 -0.7078 -0.9646
  167SAPE   C3318785   0.440   6.012   3.090  0.6682 -0.0537 -0.3398
  167SAPE   H3X18786   0.550   6.019   3.096  0.7370 -1.7619  2.0267
  167SAPE   H3Y18787   0.409   5.953   3.001  0.4628  0.6497 -0.7415
  167SAPE   C3418788   0.404   5.936   3.219 -0.3610  0.3859 -0.2964
  167SAPE   H4X18789   0.296   5.912   3.227 -0.0900 -1.6997 -1.8169
  167SAPE   H4Y18790   0.435   6.001   3.304 -1.7584  0.3063  0.3011
  167SAPE   C3518791   0.467   5.792   3.233 -0.2686 -0.2407 -0.7026
  167SAPE   H5X18792   0.576   5.804   3.217 -0.1358  0.5839  0.6292
  167SAPE   H5Y18793   0.427   5.719   3.159 -3.4674 -1.5116  2.0310
  167SAPE   C3618794   0.454   5.724   3.374 -0.6621 -0.3533 -0.2799
  167SAPE   H6X18795   0.353   5.718   3.419 -1.4281  2.4508 -1.4055
  167SAPE   H6Y18796   0.524   5.776   3.443  1.9197 -3.0421 -0.6334
  167SAPE   C3718797   0.513   5.579   3.362  0.9249 -0.4414 -0.0154
  167SAPE   H7X18798   0.621   5.576   3.336  1.1384  2.8911  0.0622
  167SAPE   H7Y18799   0.449   5.529   3.286  0.6087  1.2530 -0.9032
  167SAPE   C3818800   0.482   5.500   3.492  0.2496  0.1226  0.5523
  167SAPE   H8X18801   0.468   5.586   3.561  0.3113  0.6440 -0.0817
  167SAPE   H8Y18802   0.575   5.455   3.532  1.1216  1.5722  0.2239
  167SAPE   C3918803   0.355   5.409   3.488  0.3522 -0.8850  0.5574
  167SAPE   H9X18804   0.360   5.350   3.394  2.6996 -0.6474  0.4637
  167SAPE   H9Y18805   0.268   5.477   3.478  1.1152  0.3924  2.1829
  167SAPE  C31018806   0.319   5.337   3.621 -0.6151  0.1647  0.3067
  167SAPE  H10X18807   0.312   5.402   3.711  0.5822  0.3563  0.2749
  167SAPE  H10Y18808   0.405   5.268   3.626 -1.7573 -1.5288 -1.6400
  167SAPE  C31118809   0.189   5.256   3.600  0.0708 -0.1267 -1.2267
  167SAPE  H11X18810   0.207   5.177   3.523 -0.6599 -2.2930  0.7124
  167SAPE  H11Y18811   0.099   5.317   3.576 -0.9369 -0.6761  0.9147
  167SAPE  C31218812   0.144   5.175   3.727  0.4521  0.0319 -0.1218
  167SAPE  H12X18813   0.094   5.238   3.804  0.4956 -0.3113  0.1932
  167SAPE  H12Y18814   0.241   5.138   3.769  0.8988  0.2924 -0.9040
  167SAPE  C31318815   0.050   5.056   3.693  0.7403 -0.5611  0.0022
  167SAPE  H13X18816   0.019   5.001   3.784 -1.4041 -1.9046 -1.4190
  167SAPE  H13Y18817   0.116   4.983   3.641  1.2918 -1.4805  1.9262
  167SAPE  C31418818  -0.074   5.078   3.599  0.5022 -0.4277 -0.1217
  167SAPE  H14X18819  -0.114   4.983   3.555 -0.2419 -0.0166 -0.3603
  167SAPE  H14Y18820  -0.036   5.142   3.517  1.3030 -0.4663  0.2118
  167SAPE  C31518821  -0.184   5.144   3.680  0.0130  0.6655 -0.7623
  167SAPE  H15X18822  -0.176   5.253   3.700  1.8121  0.1077  2.1369
  167SAPE  H15Y18823  -0.182   5.102   3.783 -1.6073  0.4356 -0.7968
  167SAPE  C31618824  -0.321   5.129   3.612 -0.2571  0.1987 -0.1720
  167SAPE  H16X18825  -0.349   5.022   3.600 -1.4821  0.3073  1.3271
  167SAPE  H16Y18826  -0.320   5.171   3.510  0.3631 -1.3800 -0.8391
  167SAPE  C31718827  -0.436   5.187   3.699  0.0120  0.2168  0.1946
  167SAPE  H17X18828  -0.421   5.292   3.732 -0.3924  0.1628  0.5574
  167SAPE  H17Y18829  -0.426   5.124   3.790  0.4132 -1.4469 -0.9455
  167SAPE  C31818830  -0.572   5.167   3.634 -0.8321 -0.0665  0.0761
  167SAPE  H18X18831  -0.579   5.229   3.541 -3.0288  1.4282  1.1388
  167SAPE  H18Y18832  -0.664   5.178   3.696 -2.7317  2.5964 -2.8825
  167SAPE  H18Z18833  -0.583   5.061   3.602 -1.1806  0.2661 -0.9532
  168SAPE     N18834   4.452   3.039   2.411  0.6973  0.4498 -0.3933
  168SAPE   HN118835   4.542   3.069   2.368  0.9212  0.6651  0.2105
  168SAPE   HN218836   4.397   2.988   2.339  0.7532  1.7134 -1.3814
  168SAPE   HN318837   4.402   3.124   2.445 -1.3729  0.3174 -2.8123
  168SAPE   C1218838   4.479   2.942   2.518  0.5973  0.2225 -0.1572
  168SAPE  H12A18839   4.380   2.899   2.543 -0.3744  1.7074 -1.2540
  168SAPE  H12B18840   4.505   3.006   2.605 -0.4003  1.2994 -0.6112
  168SAPE   C1118841   4.589   2.847   2.482  0.6585 -0.2168  0.5613
  168SAPE  H11A18842   4.550   2.786   2.397  2.1890 -2.6507  1.4904
  168SAPE  H11B18843   4.609   2.770   2.559  0.8929 -1.6907 -0.9228
  168SAPE     P18844   4.834   2.942   2.503  0.0797  0.0225 -0.3005
  168SAPE   O1318845   4.952   2.918   2.418  0.3011  0.0283 -0.2154
  168SAPE   O1418846   4.832   3.075   2.561  0.4935  0.5056  0.2284
  168SAPE   O1218847   4.700   2.917   2.432 -0.0822  0.3141 -0.3586
  168SAPE   O1118848   4.831   2.831   2.619  0.5713  0.0812 -0.0455
  168SAPE    C118849   4.837   2.871   2.754  0.0978  0.0698  0.4068
  168SAPE    HA18850   4.942   2.909   2.759 -0.4593  2.1379 -1.7595
  168SAPE    HB18851   4.778   2.957   2.792  2.8791  2.6599 -0.7408
  168SAPE    C218852   4.816   2.753   2.855 -0.4846  0.0297 -0.2919
  168SAPE    HS18853   4.881   2.673   2.814  0.1376 -0.8235  2.1902
  168SAPE   O2118854   4.673   2.728   2.849  0.0597 -0.2014 -1.0930
  168SAPE   C2118855   4.636   2.611   2.903  0.3926 -0.5494 -0.1625
  168SAPE   O2218856   4.706   2.514   2.936 -0.3574 -0.2497  0.0699
  168SAPE   C2218857   4.484   2.630   2.932  0.6676  0.6891 -0.0439
  168SAPE   H2R18858   4.470   2.620   3.042  2.7342 -2.0542  0.0628
  168SAPE   H2S18859   4.449   2.733   2.908 -1.2316 -0.2368 -1.5643
  168SAPE    C318860   4.870   2.781   3.002 -0.1315  0.0009 -0.6868
  168SAPE    HX18861   4.857   2.691   3.066 -1.9383 -0.0695 -1.1055
  168SAPE    HY18862   4.793   2.853   3.037 -1.9011 -0.6430 -3.0256
  168SAPE   O3118863   5.005   2.829   3.004 -0.0127 -0.1879  0.1883
  168SAPE   C3118864   5.024   2.959   3.007  0.0187 -1.0123 -0.0281
  168SAPE   O3218865   4.936   3.042   2.988 -0.0907 -0.5390 -1.2076
  168SAPE   C3218866   5.177   2.988   3.025  0.7515  0.5924 -0.2928
  168SAPE   H2X18867   5.217   3.061   2.951 -3.5247  2.2165 -1.2425
  168SAPE   H2Y18868   5.224   2.888   3.010 -1.8155 -1.2074  2.6968
  168SAPE   C2318869   4.395   2.519   2.859 -0.4645 -0.4115  0.1320
  168SAPE   H3R18870   4.415   2.419   2.902  0.9276 -0.4325 -0.5144
  168SAPE   H3S18871   4.413   2.514   2.749 -0.8127 -0.1329  0.0595
  168SAPE   C2418872   4.250   2.557   2.897 -0.1032  0.3510  0.0179
  168SAPE   H4R18873   4.181   2.499   2.832 -0.0855 -0.4845  0.7305
  168SAPE   H4S18874   4.233   2.665   2.879 -1.2153  0.2632  0.4772
  168SAPE   C2518875   4.220   2.521   3.039 -0.3417 -0.3985 -0.0403
  168SAPE   H5R18876   4.311   2.497   3.096  0.0669 -1.1210 -0.9667
  168SAPE   C2618877   4.106   2.519   3.111  0.4040 -0.7097  0.1475
  168SAPE   H6R18878   4.114   2.487   3.216  0.1739 -2.3091 -0.3015
  168SAPE   C2718879   3.964   2.552   3.071  0.5237  0.6410 -0.3416
  168SAPE   H7R18880   3.968   2.607   2.974  0.8240  1.0412 -0.1031
  168SAPE   H7S18881   3.905   2.620   3.136 -0.4865 -1.1297  0.6698
  168SAPE   C2818882   3.877   2.426   3.055 -0.2520 -0.1811 -0.5808
  168SAPE   H8R18883   3.911   2.354   2.979  0.2999 -0.9226  0.3419
  168SAPE   C2918884   3.770   2.394   3.137  0.7558  0.1126 -0.8080
  168SAPE   H9R18885   3.714   2.302   3.112  0.6353  0.0526 -0.3247
  168SAPE  C21018886   3.719   2.468   3.258 -0.1072  0.6651 -0.1625
  168SAPE  H10R18887   3.608   2.469   3.250 -0.0202 -0.4594 -2.2112
  168SAPE  H10S18888   3.738   2.578   3.253 -0.0935  0.6228 -1.2908
  168SAPE  C21118889   3.767   2.401   3.382 -0.4617 -0.2238  0.7076
  168SAPE  H11R18890   3.860   2.345   3.362 -0.5342 -0.3138  0.6220
  168SAPE  C21218891   3.704   2.396   3.501 -0.2143  0.9628  0.5411
  168SAPE  H12R18892   3.737   2.330   3.582 -1.8467 -1.7368 -0.8393
  168SAPE  C21318893   3.583   2.485   3.516 -0.2516  0.2016 -0.1887
  168SAPE  H13R18894   3.533   2.439   3.604  1.7209 -1.3122  0.2262
  168SAPE  H13S18895   3.500   2.468   3.444 -0.6745 -0.0850  0.3583
  168SAPE  C21418896   3.606   2.632   3.541  0.0517 -0.0573 -0.0423
  168SAPE  H14R18897   3.709   2.669   3.533  0.1871  0.1075  1.9216
  168SAPE  C21518898   3.523   2.724   3.598 -0.1979  0.5324 -0.3359
  168SAPE  H15R18899   3.549   2.831   3.603  1.5670  0.1512 -0.8427
  168SAPE  C21618900   3.385   2.691   3.639  0.2568  0.1417  0.8506
  168SAPE  H16R18901   3.360   2.586   3.612  0.2602  0.6866 -1.5133
  168SAPE  H16S18902   3.307   2.745   3.580  1.0381 -0.8708 -1.1840
  168SAPE  C21718903   3.357   2.724   3.783 -0.5002  0.6763  0.1528
  168SAPE  H17R18904   3.421   2.667   3.854 -2.9192 -1.2210  0.9625
  168SAPE  H17S18905   3.257   2.678   3.798 -0.2684  0.4092  0.9259
  168SAPE  C21818906   3.362   2.870   3.813  0.1682  0.4156 -0.7586
  168SAPE  H18R18907   3.316   2.935   3.735 -0.7986  2.1230  1.1266
  168SAPE  H18S18908   3.471   2.891   3.820  0.5793 -1.7125 -0.2542
  168SAPE  C21918909   3.308   2.908   3.960  0.4725 -0.1093  0.0868
  168SAPE  H19R18910   3.334   2.819   4.020 -0.1654  1.5061  2.9526
  168SAPE  H19S18911   3.198   2.929   3.958 -0.0000 -2.3066 -1.3410
  168SAPE  C22018912   3.376   3.027   4.029 -0.0899  0.3110  0.1610
  168SAPE  H20R18913   3.340   3.020   4.134 -0.3527 -0.6205  0.0178
  168SAPE  H20S18914   3.350   3.123   3.979  0.5626  0.0525 -0.7058
  168SAPE  H20T18915   3.485   3.011   4.041 -0.2673  0.5744  2.7551
  168SAPE   C3318916   5.229   3.026   3.173  0.2348 -0.2501  0.0361
  168SAPE   H3X18917   5.140   3.011   3.239 -0.7685  0.0340 -1.2030
  168SAPE   H3Y18918   5.263   3.132   3.173  0.5263 -0.3119 -1.4110
  168SAPE   C3418919   5.356   2.944   3.210 -0.9946  0.3675  0.7368
  168SAPE   H4X18920   5.438   2.970   3.140  0.5769 -4.4186  0.4239
  168SAPE   H4Y18921   5.322   2.840   3.196  1.0498 -0.1146 -1.1753
  168SAPE   C3518922   5.411   2.963   3.352 -0.4253 -0.2093  0.7317
  168SAPE   H5X18923   5.368   3.056   3.396 -0.6678  0.2507 -0.4289
  168SAPE   H5Y18924   5.522   2.962   3.354 -0.3324  2.6439  1.2060
  168SAPE   C3618925   5.355   2.857   3.452 -0.6577  0.6479  0.6110
  168SAPE   H6X18926   5.369   2.754   3.414  0.6104 -0.3154  3.3914
  168SAPE   H6Y18927   5.248   2.882   3.460 -0.5374  1.9161 -1.2309
  168SAPE   C3718928   5.431   2.855   3.593 -0.0541 -0.6542  0.1408
  168SAPE   H7X18929   5.419   2.957   3.637 -0.3022 -0.5431 -0.1798
  168SAPE   H7Y18930   5.539   2.838   3.575  0.0802 -0.7395  0.9834
  168SAPE   C3818931   5.376   2.746   3.686  0.2841  0.4895 -0.3197
  168SAPE   H8X18932   5.377   2.652   3.627  2.0882 -1.1580  2.1342
  168SAPE   H8Y18933   5.270   2.767   3.710  0.7215  1.5345  0.8051
  168SAPE   C3918934   5.462   2.729   3.812  0.0381  0.4401 -0.1982
  168SAPE   H9X18935   5.566   2.715   3.777  0.1149  1.4643 -0.4248
  168SAPE   H9Y18936   5.421   2.640   3.864 -1.3665  2.1519  1.8380
  168SAPE  C31018937   5.453   2.844   3.912 -0.2698 -0.3165 -0.0097
  168SAPE  H10X18938   5.471   2.936   3.852  2.9960  0.6963  2.1967
  168SAPE  H10Y18939   5.539   2.831   3.981 -0.5178 -0.8893  0.1944
  168SAPE  C31118940   5.316   2.846   3.983  0.2292  0.6967 -0.5187
  168SAPE  H11X18941   5.311   2.749   4.039  2.2765  0.5607 -0.4926
  168SAPE  H11Y18942   5.239   2.850   3.904 -0.1820 -1.2768 -0.2910
  168SAPE  C31218943   5.290   2.968   4.072 -0.2245  0.1636 -0.7951
  168SAPE  H12X18944   5.184   2.954   4.104  0.3548 -1.7026  0.5049
  168SAPE  H12Y18945   5.280   3.058   4.008  0.5466  0.0811 -1.0420
  168SAPE  C31318946   5.381   2.994   4.192 -0.8252  0.2833 -0.1684
  168SAPE  H13X18947   5.352   3.090   4.241 -1.3558 -0.5391  1.1593
  168SAPE  H13Y18948   5.480   3.011   4.146 -0.7060 -2.7083 -1.2016
  168SAPE  C31418949   5.381   2.884   4.301 -0.7926 -0.3125  0.4666
  168SAPE  H14X18950   5.456   2.907   4.380 -1.0050 -0.0011  0.5789
  168SAPE  H14Y18951   5.444   2.802   4.260 -0.4134 -1.1879  2.6417
  168SAPE  C31518952   5.249   2.859   4.364 -0.1083 -0.7994  0.1705
  168SAPE  H15X18953   5.189   2.793   4.298  2.3217 -2.1579 -0.7825
  168SAPE  H15Y18954   5.192   2.952   4.383  3.2032  1.3050  0.6006
  168SAPE  C31618955   5.252   2.788   4.501 -0.1786 -0.8714  0.0695
  168SAPE  H16X18956   5.300   2.856   4.575 -0.7912  0.8640 -1.0637
  168SAPE  H16Y18957   5.304   2.691   4.490  1.4252 -0.0254 -0.0911
  168SAPE  C31718958   5.114   2.755   4.560  0.4756 -0.1888 -0.2101
  168SAPE  H17X18959   5.054   2.698   4.486 -0.5021 -0.0571  0.4674
  168SAPE  H17Y18960   5.072   2.858   4.567  0.2625 -0.3559  1.3322
  168SAPE  C31818961   5.114   2.695   4.698  0.2129 -0.1239  0.0306
  168SAPE  H18X18962   5.183   2.745   4.769 -0.1027  1.7621 -0.9543
  168SAPE  H18Y18963   5.154   2.592   4.682  1.0343  0.1178  0.4711
  168SAPE  H18Z18964   5.009   2.690   4.735  0.2691  0.5064  0.2883
  169SAPE     N18965   1.252   6.780   1.532 -0.3534  0.6433  0.9789
  169SAPE   HN118966   1.254   6.802   1.430 -1.6624  0.1700  0.8274
  169SAPE   HN218967   1.203   6.688   1.540  1.5163 -0.5338 -0.3328
  169SAPE   HN318968   1.200   6.858   1.576 -0.0052  0.2167  2.2001
  169SAPE   C1218969   1.395   6.774   1.593  0.2470 -0.2981  0.1758
  169SAPE  H12A18970   1.437   6.877   1.604  0.7324 -0.6386  1.8857
  169SAPE  H12B18971   1.463   6.726   1.520  1.7706  0.3600  1.1097
  169SAPE   C1118972   1.394   6.696   1.727  0.0228  0.4676  0.0906
  169SAPE  H11A18973   1.492   6.680   1.777 -0.8664 -1.1775  1.3746
  169SAPE  H11B18974   1.356   6.596   1.698 -0.6820  0.3943  1.2116
  169SAPE     P18975   1.326   6.870   1.913 -0.0166  0.6217 -0.4462
  169SAPE   O1318976   1.308   6.993   1.837 -0.5493 -0.3407 -0.6648
  169SAPE   O1418977   1.243   6.865   2.036 -0.8635  0.0148 -0.0540
  169SAPE   O1218978   1.298   6.747   1.815 -0.1033  0.4071 -0.5106
  169SAPE   O1118979   1.481   6.861   1.956 -0.6839 -0.0359 -0.7296
  169SAPE    C118980   1.528   6.739   2.026 -0.5007 -0.5377  0.3674
  169SAPE    HA18981   1.514   6.643   1.972 -0.7799  0.5930 -1.7102
  169SAPE    HB18982   1.636   6.756   2.045 -0.9229  1.7904  0.9886
  169SAPE    C218983   1.479   6.723   2.171 -0.5367 -0.4106  0.0546
  169SAPE    HS18984   1.368   6.736   2.176 -0.5268  0.3547 -1.3543
  169SAPE   O2118985   1.550   6.817   2.250 -0.1264  0.2404  0.3853
  169SAPE   C2118986   1.482   6.877   2.343  0.0294  0.3060  0.1601
  169SAPE   O2218987   1.373   6.848   2.378  0.1066  0.1157 -0.2971
  169SAPE   C2218988   1.560   7.002   2.405 -1.0716  0.1918  1.1499
  169SAPE   H2R18989   1.650   7.028   2.346 -2.9990  0.6718 -1.7726
  169SAPE   H2S18990   1.496   7.092   2.405 -2.8328 -1.0062  1.2704
  169SAPE    C318991   1.521   6.574   2.214 -0.4312 -0.2986 -0.0797
  169SAPE    HX18992   1.626   6.565   2.179 -0.7384 -1.6145 -0.7214
  169SAPE    HY18993   1.458   6.503   2.156 -0.2232 -0.3478 -0.2443
  169SAPE   O3118994   1.501   6.549   2.354 -0.0119  0.2941  0.3492
  169SAPE   C3118995   1.594   6.464   2.407 -0.2476  0.1711  0.5321
  169SAPE   O3218996   1.678   6.397   2.346  0.1185  0.2957  0.7547
  169SAPE   C3218997   1.562   6.453   2.562  0.1378 -0.1188  0.2420
  169SAPE   H2X18998   1.655   6.442   2.622  0.4830 -0.4547 -0.3497
  169SAPE   H2Y18999   1.508   6.357   2.574  0.4425 -0.1143  1.8585
  169SAPE   C2319000   1.600   6.985   2.553 -0.5430  0.0474 -0.3352
  169SAPE   H3R19001   1.534   6.919   2.613  0.5945 -1.2932 -0.4838
  169SAPE   H3S19002   1.588   7.083   2.603  2.0615  0.3216 -0.1010
  169SAPE   C2419003   1.745   6.958   2.576  0.2910  0.2145 -0.3020
  169SAPE   H4R19004   1.756   6.977   2.685 -0.1559  0.6206 -0.3259
  169SAPE   H4S19005   1.828   7.019   2.535  1.4525 -0.2789  1.2370
  169SAPE   C2519006   1.793   6.823   2.541  0.3038 -0.5497  0.2739
  169SAPE   H5R19007   1.801   6.812   2.432 -0.4711  0.6989  0.0592
  169SAPE   C2619008   1.793   6.721   2.620  0.3537  0.6733  0.1457
  169SAPE   H6R19009   1.833   6.627   2.579  3.5227  1.2255  1.6341
  169SAPE   C2719010   1.788   6.716   2.769  0.5303 -0.5097  0.6378
  169SAPE   H7R19011   1.783   6.607   2.794  1.5286 -0.9268 -0.8324
  169SAPE   H7S19012   1.698   6.775   2.794  1.2518  1.5324 -1.3149
  169SAPE   C2819013   1.906   6.772   2.839  0.9619  0.2227 -0.0862
  169SAPE   H8R19014   1.984   6.827   2.785  1.1861 -1.6543 -1.7665
  169SAPE   C2919015   1.921   6.763   2.972 -0.0373 -0.0042 -0.0855
  169SAPE   H9R19016   2.009   6.810   3.018 -0.3550  0.9178 -0.3819
  169SAPE  C21019017   1.833   6.687   3.070  0.6649 -0.9429 -0.8824
  169SAPE  H10R19018   1.902   6.669   3.156 -0.7822  2.1730  1.1180
  169SAPE  H10S19019   1.794   6.591   3.031 -0.8869 -0.5184 -0.4304
  169SAPE  C21119020   1.715   6.767   3.124  0.4356  0.3270 -1.3806
  169SAPE  H11R19021   1.649   6.816   3.051 -1.0123  1.4785  0.5918
  169SAPE  C21219022   1.668   6.770   3.254 -0.2966  0.4672  0.0952
  169SAPE  H12R19023   1.575   6.821   3.281  0.6245  1.7841  0.8951
  169SAPE  C21319024   1.738   6.709   3.381 -0.5788 -0.0190 -0.0696
  169SAPE  H13R19025   1.680   6.750   3.466 -3.8039 -0.7935 -1.7107
  169SAPE  H13S19026   1.840   6.752   3.377 -1.0696  1.1916  0.0307
  169SAPE  C21419027   1.738   6.561   3.396 -0.6143  0.2316 -0.0708
  169SAPE  H14R19028   1.818   6.508   3.342  0.6799  2.9078 -0.9711
  169SAPE  C21519029   1.649   6.488   3.466  0.3825  0.2175 -0.8441
  169SAPE  H15R19030   1.665   6.379   3.469 -0.3834  0.1200  1.6254
  169SAPE  C21619031   1.530   6.531   3.553 -0.7863  0.0153  0.4274
  169SAPE  H16R19032   1.440   6.493   3.500  0.3989  1.0429 -2.5038
  169SAPE  H16S19033   1.517   6.641   3.547  1.8171  0.2911 -1.5499
  169SAPE  C21719034   1.539   6.493   3.697 -0.9510 -0.4432  0.0003
  169SAPE  H17R19035   1.636   6.523   3.743 -2.1539  2.7559  0.6937
  169SAPE  H17S19036   1.537   6.382   3.701  0.6959 -0.4761  0.7540
  169SAPE  C21819037   1.429   6.540   3.786  0.0534  0.3059 -0.3731
  169SAPE  H18R19038   1.336   6.519   3.730  1.3693  0.5006 -2.7655
  169SAPE  H18S19039   1.436   6.646   3.818 -0.9963 -0.4981  2.8834
  169SAPE  C21919040   1.434   6.477   3.929  0.5722 -0.3368  0.2939
  169SAPE  H19R19041   1.536   6.478   3.974 -0.6220  0.6314  3.2652
  169SAPE  H19S19042   1.402   6.371   3.938  0.1536 -0.1762  0.7333
  169SAPE  C22019043   1.345   6.547   4.036  0.7392  0.5562  0.5400
  169SAPE  H20R19044   1.307   6.479   4.115 -0.3832  2.3145  1.5694
  169SAPE  H20S19045   1.256   6.579   3.979  2.4123  2.4132 -1.1707
  169SAPE  H20T19046   1.396   6.640   4.069 -1.5950  2.4230 -0.8291
  169SAPE   C3319047   1.472   6.563   2.629  0.0242  1.1043  0.3754
  169SAPE   H3X19048   1.365   6.545   2.609  0.1388 -2.0475  1.9793
  169SAPE   H3Y19049   1.506   6.658   2.584 -0.1849  0.7769 -0.4974
  169SAPE   C3419050   1.475   6.566   2.783  0.1956  0.6165 -0.1995
  169SAPE   H4X19051   1.581   6.553   2.814 -0.4896  0.2194  2.2399
  169SAPE   H4Y19052   1.421   6.475   2.817  1.6598 -0.5365 -0.8688
  169SAPE   C3519053   1.414   6.696   2.829  0.3989  0.9615 -0.6757
  169SAPE   H5X19054   1.340   6.731   2.753 -2.0891 -0.0944  1.0954
  169SAPE   H5Y19055   1.496   6.770   2.841  0.2130  1.0092  0.4245
  169SAPE   C3619056   1.325   6.692   2.964  0.0754 -0.0433 -1.1512
  169SAPE   H6X19057   1.276   6.790   2.975 -0.4968 -0.1033 -2.8009
  169SAPE   H6Y19058   1.391   6.662   3.048  0.6020  2.7427 -0.4960
  169SAPE   C3719059   1.204   6.598   2.945  0.1624  0.2106 -0.3091
  169SAPE   H7X19060   1.243   6.494   2.934  0.1584  0.0476  1.0189
  169SAPE   H7Y19061   1.149   6.644   2.860 -1.8776 -0.3851  0.6143
  169SAPE   C3819062   1.103   6.610   3.072  0.1976 -0.2865 -0.3583
  169SAPE   H8X19063   0.996   6.590   3.047 -0.0114 -2.0751  1.6935
  169SAPE   H8Y19064   1.094   6.716   3.102  0.9115 -0.3723  0.1961
  169SAPE   C3919065   1.155   6.553   3.203  0.0651  0.1197  0.8897
  169SAPE   H9X19066   1.260   6.521   3.191 -0.1818 -0.4660  0.2104
  169SAPE   H9Y19067   1.098   6.459   3.221 -1.8259  0.1212 -3.7135
  169SAPE  C31019068   1.114   6.650   3.319  0.1061 -0.0457 -0.2162
  169SAPE  H10X19069   1.005   6.666   3.330  0.0322 -1.3070  1.4036
  169SAPE  H10Y19070   1.165   6.748   3.312 -0.0825  0.1696  1.1085
  169SAPE  C31119071   1.145   6.594   3.462 -0.1506  0.3418 -0.1402
  169SAPE  H11X19072   1.121   6.668   3.541 -0.3205 -1.1185  1.2034
  169SAPE  H11Y19073   1.252   6.568   3.474 -0.2975  0.5272  1.8136
  169SAPE  C31219074   1.048   6.479   3.501  0.6370 -0.0881 -0.3453
  169SAPE  H12X19075   1.070   6.390   3.438 -0.5739  0.6693 -1.9107
  169SAPE  H12Y19076   0.943   6.506   3.478  1.1950  1.0792 -1.6499
  169SAPE  C31319077   1.071   6.438   3.643 -0.4226  1.0655  0.0411
  169SAPE  H13X19078   1.083   6.531   3.702  0.2756  0.5004  0.8049
  169SAPE  H13Y19079   1.167   6.382   3.643 -0.3888  1.0468 -2.3139
  169SAPE  C31419080   0.964   6.346   3.711 -0.5185  0.5438 -0.2242
  169SAPE  H14X19081   0.919   6.269   3.645 -2.4904  1.6957 -0.3181
  169SAPE  H14Y19082   0.883   6.420   3.725 -0.1958  0.6930  1.0140
  169SAPE  C31519083   0.998   6.279   3.845 -0.1901 -0.3850 -0.1188
  169SAPE  H15X19084   1.090   6.220   3.830 -0.1420 -0.6866  1.2610
  169SAPE  H15Y19085   0.928   6.200   3.881 -0.5911  1.4939  3.7479
  169SAPE  C31619086   1.001   6.377   3.961  0.2666  0.6905 -0.1858
  169SAPE  H16X19087   0.910   6.441   3.958  0.0830  0.4357 -0.0619
  169SAPE  H16Y19088   1.084   6.450   3.961  1.2843 -0.4016  1.5485
  169SAPE  C31719089   1.014   6.296   4.092  0.7590  0.0943 -0.2331
  169SAPE  H17X19090   1.109   6.240   4.075  1.5133  1.5295 -0.9426
  169SAPE  H17Y19091   0.923   6.233   4.097 -1.0232  2.3948 -1.6642
  169SAPE  C31819092   1.024   6.378   4.217  0.4464 -0.5952  0.1571
  169SAPE  H18X19093   0.983   6.329   4.307  1.7408  1.0791  1.7352
  169SAPE  H18Y19094   0.977   6.479   4.211 -0.0848 -0.5756  3.2682
  169SAPE  H18Z19095   1.127   6.397   4.254 -0.1397  1.1186  1.0407
  170SAPE     N19096   2.852   4.037   2.873 -0.0447  0.9129  0.7953
  170SAPE   HN119097   2.811   4.130   2.897 -0.9428  0.7705 -0.1252
  170SAPE   HN219098   2.941   4.049   2.820 -1.6584  1.6834 -1.9249
  170SAPE   HN319099   2.785   3.983   2.815  3.9442 -1.1128 -2.4779
  170SAPE   C1219100   2.884   3.952   2.988 -0.0120  0.2182 -0.7205
  170SAPE  H12A19101   2.932   4.026   3.056  4.1073  1.4837 -4.5003
  170SAPE  H12B19102   2.959   3.882   2.944  1.2791  0.2124  1.3544
  170SAPE   C1119103   2.759   3.879   3.035 -0.5118 -0.0543  0.6550
  170SAPE  H11A19104   2.696   3.958   3.083  0.0505  1.0005 -0.2908
  170SAPE  H11B19105   2.791   3.811   3.117 -0.5196  1.0551  1.6174
  170SAPE     P19106   2.564   3.721   2.927  0.4484  0.0732 -0.6321
  170SAPE   O1319107   2.447   3.813   2.903 -0.1834  0.8043  0.0195
  170SAPE   O1419108   2.577   3.613   2.823 -0.2645  0.5156 -0.1605
  170SAPE   O1219109   2.695   3.815   2.928  0.3433  0.1398 -0.0201
  170SAPE   O1119110   2.566   3.657   3.078  0.3473  0.0586  0.4815
  170SAPE    C119111   2.668   3.559   3.108  0.1131  0.2157 -0.2482
  170SAPE    HA19112   2.717   3.503   3.026  2.8659  1.1151  0.6661
  170SAPE    HB19113   2.758   3.608   3.149  1.1955  0.7574 -3.0707
  170SAPE    C219114   2.607   3.454   3.202  0.1256 -0.2939 -0.5461
  170SAPE    HS19115   2.673   3.364   3.201  1.4684  0.6398 -2.0679
  170SAPE   O2119116   2.473   3.421   3.164 -0.3870  0.3192  0.2324
  170SAPE   C2119117   2.475   3.348   3.049  0.6570  0.4446 -0.3488
  170SAPE   O2219118   2.572   3.312   2.985 -0.4915 -0.2353 -0.7224
  170SAPE   C2219119   2.331   3.303   3.016 -0.4659 -0.4747  0.5372
  170SAPE   H2R19120   2.262   3.328   3.100  0.5529  0.4726  1.1245
  170SAPE   H2S19121   2.292   3.350   2.923 -2.0622  1.5410  2.1146
  170SAPE    C319122   2.605   3.517   3.345 -0.3394 -0.1526 -0.2517
  170SAPE    HX19123   2.537   3.452   3.403 -0.5442 -0.4360 -0.8037
  170SAPE    HY19124   2.561   3.619   3.339  0.9226  0.5793  1.8994
  170SAPE   O3119125   2.734   3.522   3.397 -1.0731  0.1216  0.0745
  170SAPE   C3119126   2.745   3.610   3.496 -0.3416 -0.2655 -0.6021
  170SAPE   O3219127   2.659   3.685   3.541 -0.0141  0.9180  0.2335
  170SAPE   C3219128   2.897   3.611   3.545  0.2340  0.1007 -0.6769
  170SAPE   H2X19129   2.948   3.654   3.456 -0.4823  0.2804 -1.0044
  170SAPE   H2Y19130   2.936   3.509   3.566 -1.7812 -0.6864 -0.5388
  170SAPE   C2319131   2.325   3.150   2.987  0.0813 -0.3357  0.3993
  170SAPE   H3R19132   2.397   3.112   2.910 -0.7052 -2.1769  0.5085
  170SAPE   H3S19133   2.225   3.138   2.940 -0.3577  1.1975  0.9079
  170SAPE   C2419134   2.337   3.053   3.106 -0.8082  0.1590  0.2066
  170SAPE   H4R19135   2.439   3.033   3.143 -0.5843 -1.0705 -1.0165
  170SAPE   H4S19136   2.286   2.956   3.092 -1.1034  0.0764  1.6274
  170SAPE   C2519137   2.259   3.105   3.226 -0.5521 -0.1109  0.0382
  170SAPE   H5R19138   2.151   3.112   3.210 -0.1965  0.8899 -2.2155
  170SAPE   C2619139   2.316   3.148   3.342 -0.0138 -0.6142  0.3097
  170SAPE   H6R19140   2.249   3.185   3.421  1.6597  0.0288  1.4757
  170SAPE   C2719141   2.460   3.166   3.387  0.4603 -0.4357 -0.4340
  170SAPE   H7R19142   2.451   3.252   3.457 -1.1613  0.9370 -2.2394
  170SAPE   H7S19143   2.523   3.200   3.302 -1.4443  2.4015 -0.8447
  170SAPE   C2819144   2.519   3.050   3.454  0.2955 -0.4285 -0.0673
  170SAPE   H8R19145   2.492   2.950   3.418  2.5130  0.2715 -4.2658
  170SAPE   C2919146   2.610   3.061   3.552 -0.3214 -0.0970  0.3946
  170SAPE   H9R19147   2.658   2.971   3.594  0.3360 -0.6216 -1.3816
  170SAPE  C21019148   2.668   3.183   3.615  1.3705 -0.3759 -0.4025
  170SAPE  H10R19149   2.653   3.174   3.725  0.9275 -1.6204 -0.5449
  170SAPE  H10S19150   2.617   3.273   3.575  2.3358 -0.8728 -2.9850
  170SAPE  C21119151   2.806   3.209   3.582 -0.1519  0.1908 -0.3582
  170SAPE  H11R19152   2.825   3.186   3.476  1.7696  3.7057 -0.9288
  170SAPE  C21219153   2.912   3.234   3.662 -0.2408 -0.0795 -0.1869
  170SAPE  H12R19154   3.015   3.242   3.624 -0.3105 -0.3480 -0.4392
  170SAPE  C21319155   2.905   3.245   3.811  0.4168  0.5472 -0.7818
  170SAPE  H13R19156   2.826   3.175   3.845  1.4820 -0.5610 -0.5243
  170SAPE  H13S19157   2.873   3.349   3.834  0.6945  0.3608  0.4844
  170SAPE  C21419158   3.032   3.215   3.883 -0.1237 -0.7294 -0.8132
  170SAPE  H14R19159   3.093   3.133   3.841 -0.8238 -2.0286  0.5902
  170SAPE  C21519160   3.079   3.270   3.995  0.4620  0.4561 -0.1241
  170SAPE  H15R19161   3.183   3.244   4.023 -0.0983 -1.7616  0.1338
  170SAPE  C21619162   3.009   3.362   4.094 -0.0125  0.7799 -0.8490
  170SAPE  H16R19163   2.906   3.389   4.064 -0.5696  1.9797  1.9264
  170SAPE  H16S19164   3.063   3.456   4.119  0.0371  0.4545  0.2925
  170SAPE  C21719165   2.998   3.288   4.226  0.1522  0.6965 -0.5774
  170SAPE  H17R19166   2.986   3.367   4.303 -0.4701  1.1563 -1.1364
  170SAPE  H17S19167   3.093   3.241   4.258 -0.7175 -0.2406  0.7734
  170SAPE  C21819168   2.886   3.183   4.234 -0.0999  0.2602 -0.1269
  170SAPE  H18R19169   2.884   3.110   4.151  0.9765  1.7461 -1.5150
  170SAPE  H18S19170   2.790   3.237   4.222 -1.9928 -2.7022  0.5488
  170SAPE  C21919171   2.884   3.100   4.365 -0.0739 -0.7279 -1.2243
  170SAPE  H19R19172   2.968   3.028   4.381  2.2872  2.2335  1.0505
  170SAPE  H19S19173   2.790   3.042   4.360  0.8939 -2.3220 -1.9459
  170SAPE  C22019174   2.868   3.187   4.492 -0.1419  0.1539  0.6118
  170SAPE  H20R19175   2.827   3.123   4.573 -0.4589 -2.6189 -1.5643
  170SAPE  H20S19176   2.785   3.259   4.476  0.2492  0.3773 -0.4747
  170SAPE  H20T19177   2.957   3.245   4.524  0.4289  1.0356 -2.2120
  170SAPE   C3319178   2.918   3.695   3.677  0.6700 -0.1659 -1.1724
  170SAPE   H3X19179   2.832   3.690   3.748  1.8680 -1.3027  0.2772
  170SAPE   H3Y19180   2.926   3.805   3.660 -2.4646  0.6413  1.4932
  170SAPE   C3419181   3.053   3.648   3.755 -0.4266 -0.4152  0.2877
  170SAPE   H4X19182   3.041   3.542   3.789 -0.3277 -0.3677  0.4737
  170SAPE   H4Y19183   3.060   3.710   3.847 -3.6000 -0.0181  0.3996
  170SAPE   C3519184   3.184   3.656   3.684 -0.9248 -0.8979 -0.8644
  170SAPE   H5X19185   3.201   3.753   3.633  0.5098  0.2099  1.5424
  170SAPE   H5Y19186   3.184   3.581   3.602  0.7429 -0.0487 -1.6851
  170SAPE   C3619187   3.307   3.620   3.774  0.1957 -0.1131  0.5154
  170SAPE   H6X19188   3.401   3.581   3.730  0.6825 -1.1145  2.3305
  170SAPE   H6Y19189   3.274   3.534   3.836  1.5742 -1.1856 -0.1826
  170SAPE   C3719190   3.342   3.740   3.866  0.0112  0.0557  0.3725
  170SAPE   H7X19191   3.397   3.687   3.947  0.0831  1.0115  0.9661
  170SAPE   H7Y19192   3.258   3.800   3.909  2.1750  4.4213 -0.9210
  170SAPE   C3819193   3.451   3.828   3.790  0.5192 -0.4580 -0.0288
  170SAPE   H8X19194   3.402   3.880   3.706 -0.7879 -2.2770 -0.4360
  170SAPE   H8Y19195   3.534   3.772   3.743 -0.5934  0.1963 -3.0095
  170SAPE   C3919196   3.502   3.936   3.886  0.3509 -0.2955  0.3896
  170SAPE   H9X19197   3.582   4.000   3.844 -1.9541  2.9966  0.6522
  170SAPE   H9Y19198   3.539   3.890   3.981 -1.3441  0.2470  1.3566
  170SAPE  C31019199   3.387   4.028   3.951  0.1292 -0.5267 -0.3679
  170SAPE  H10X19200   3.315   3.964   4.005 -1.0425 -0.1160 -1.4048
  170SAPE  H10Y19201   3.332   4.054   3.858 -1.6139 -2.3510  0.0871
  170SAPE  C31119202   3.438   4.155   4.018  0.3209 -0.7209  0.4308
  170SAPE  H11X19203   3.342   4.209   4.034  0.2405  0.4365 -3.1198
  170SAPE  H11Y19204   3.483   4.216   3.938  0.2701 -2.0259 -0.6368
  170SAPE  C31219205   3.527   4.129   4.134  0.5725 -0.0503 -0.1417
  170SAPE  H12X19206   3.614   4.065   4.106 -1.3694 -2.6027 -0.6748
  170SAPE  H12Y19207   3.472   4.073   4.212 -2.2742  2.3032 -0.2902
  170SAPE  C31319208   3.593   4.253   4.202  0.3088 -0.7786 -0.0810
  170SAPE  H13X19209   3.589   4.341   4.134 -0.0836 -0.0157  0.8973
  170SAPE  H13Y19210   3.700   4.232   4.225  0.0199 -0.5188  1.5901
  170SAPE  C31419211   3.509   4.273   4.329  0.2956 -0.2850 -0.7372
  170SAPE  H14X19212   3.507   4.175   4.382  1.0699  0.8716  1.5753
  170SAPE  H14Y19213   3.404   4.286   4.295 -0.8587  0.5291  2.7794
  170SAPE  C31519214   3.539   4.403   4.402  0.0792 -0.3489  0.8593
  170SAPE  H15X19215   3.548   4.493   4.337 -2.5325 -0.2213  0.5421
  170SAPE  H15Y19216   3.637   4.387   4.451 -0.2090 -0.1926  1.4959
  170SAPE  C31619217   3.431   4.420   4.506 -0.5782  0.2534 -0.6015
  170SAPE  H16X19218   3.421   4.334   4.575 -0.9010  1.8566  1.4604
  170SAPE  H16Y19219   3.339   4.448   4.451 -0.9822  0.7993  0.3141
  170SAPE  C31719220   3.457   4.523   4.612 -0.4358  0.1968  0.2532
  170SAPE  H17X19221   3.479   4.619   4.561  1.4278  0.1937  0.9803
  170SAPE  H17Y19222   3.545   4.499   4.675 -0.8725  2.8359  2.0164
  170SAPE  C31819223   3.342   4.529   4.713  0.2117 -0.0341  0.1060
  170SAPE  H18X19224   3.320   4.430   4.760  0.0728 -0.1943 -0.2894
  170SAPE  H18Y19225   3.243   4.558   4.672 -0.5183 -1.0589  1.0634
  170SAPE  H18Z19226   3.372   4.601   4.792 -1.2802 -0.6339  1.2647
  171SAPE     N19227   6.483   1.008   1.753 -0.3010  0.5221  0.0424
  171SAPE   HN119228   6.488   1.082   1.680 -1.1977 -1.0617 -1.6832
  171SAPE   HN219229   6.560   0.944   1.725  1.3318  2.3578  0.1108
  171SAPE   HN319230   6.400   0.951   1.727  0.4100 -0.2773 -0.5019
  171SAPE   C1219231   6.511   1.058   1.898  0.2067  0.2118  0.2259
  171SAPE  H12A19232   6.457   1.154   1.909  1.1179  0.9609 -1.4812
  171SAPE  H12B19233   6.614   1.099   1.903  0.1337  0.2541  3.4380
  171SAPE   C1119234   6.484   0.953   2.003 -0.2586  0.4879  0.2039
  171SAPE  H11A19235   6.534   0.855   1.990  0.2670  1.1793 -5.2094
  171SAPE  H11B19236   6.376   0.931   1.991 -0.0684 -0.2470 -0.1728
  171SAPE     P19237   6.621   1.011   2.224 -0.2110  0.1062  0.2684
  171SAPE   O1319238   6.690   0.882   2.232 -0.0264  0.1800 -0.2126
  171SAPE   O1419239   6.709   1.121   2.184  0.0330  0.8742 -0.1306
  171SAPE   O1219240   6.499   1.006   2.131  0.1100  0.1503  0.0842
  171SAPE   O1119241   6.562   1.050   2.367  0.8582  0.4511  0.3759
  171SAPE    C119242   6.566   1.181   2.416 -0.4567  0.0227  0.1482
  171SAPE    HA19243   6.563   1.258   2.336 -1.9649  0.6901  0.8042
  171SAPE    HB19244   6.483   1.201   2.487  0.5711 -0.1922  1.4643
  171SAPE    C219245   6.707   1.206   2.492  0.4769 -0.0348  0.3880
  171SAPE    HS19246   6.778   1.189   2.408 -0.1144  0.3177 -0.1887
  171SAPE   O2119247   6.711   1.095   2.583  0.6243 -0.5314  0.2185
  171SAPE   C2119248   6.826   1.039   2.603  0.3462 -0.5165  0.5194
  171SAPE   O2219249   6.935   1.084   2.563  0.3031 -0.4785  0.4103
  171SAPE   C2219250   6.810   0.915   2.689  0.4721 -0.3426  0.5616
  171SAPE   H2R19251   6.746   0.837   2.642 -1.7399  0.2167  2.4733
  171SAPE   H2S19252   6.913   0.874   2.688  0.3588 -0.6499 -0.6752
  171SAPE    C319253   6.726   1.335   2.569  0.6450  0.1396 -0.3247
  171SAPE    HX19254   6.717   1.413   2.491  0.4827 -0.0521 -0.4998
  171SAPE    HY19255   6.826   1.344   2.616  1.9022 -0.1324 -2.7607
  171SAPE   O3119256   6.614   1.366   2.665  0.6808  0.4125  0.3690
  171SAPE   C3119257   6.614   1.503   2.696  0.2286 -0.7538  0.7105
  171SAPE   O3219258   6.700   1.584   2.663 -0.0158  0.1726 -0.3387
  171SAPE   C3219259   6.495   1.536   2.780  0.5298 -0.3210  0.1075
  171SAPE   H2X19260   6.401   1.512   2.726  0.0230  1.0092  0.3761
  171SAPE   H2Y19261   6.491   1.644   2.804 -0.3872 -0.0554 -1.1525
  171SAPE   C2319262   6.755   0.936   2.837 -0.2416  0.5719 -0.4469
  171SAPE   H3R19263   6.761   0.843   2.897  3.7644 -0.0841 -1.5597
  171SAPE   H3S19264   6.647   0.961   2.832 -0.3634  0.5830  1.5208
  171SAPE   C2419265   6.821   1.054   2.913  0.0911  0.8642 -0.4791
  171SAPE   H4R19266   6.779   1.066   3.015 -1.1214  0.8580 -0.9625
  171SAPE   H4S19267   6.792   1.148   2.862  1.1228  1.3122 -0.2627
  171SAPE   C2519268   6.970   1.042   2.927 -0.0106 -0.3619  0.1106
  171SAPE   H5R19269   7.027   1.094   2.849 -1.7996  0.1426 -0.9113
  171SAPE   C2619270   7.031   0.995   3.037 -0.6327  0.4185  0.6640
  171SAPE   H6R19271   7.140   0.983   3.028 -0.5488  1.6511 -0.1842
  171SAPE   C2719272   6.962   0.922   3.152 -0.2779 -0.7607 -0.5369
  171SAPE   H7R19273   6.944   0.815   3.128 -2.1697 -0.8883  1.1912
  171SAPE   H7S19274   6.864   0.972   3.170  1.4512  2.3358  1.3540
  171SAPE   C2819275   7.050   0.929   3.274  0.4657 -0.3176 -0.2490
  171SAPE   H8R19276   7.088   1.027   3.304  0.1650  0.2035 -1.5077
  171SAPE   C2919277   7.088   0.822   3.347  0.4857  0.4457  0.3384
  171SAPE   H9R19278   7.149   0.836   3.437  0.6401 -0.5950  0.4074
  171SAPE  C21019279   7.037   0.679   3.319 -0.5094  0.1316 -0.1153
  171SAPE  H10R19280   6.932   0.675   3.284 -0.8624 -0.2147  0.9506
  171SAPE  H10S19281   7.032   0.621   3.414  1.1120 -0.4776 -0.3703
  171SAPE  C21119282   7.119   0.614   3.210  0.7367 -0.6664 -0.1844
  171SAPE  H11R19283   7.093   0.650   3.109  0.4255 -0.8231 -0.1632
  171SAPE  C21219284   7.227   0.541   3.225  0.2220  0.1434  0.0855
  171SAPE  H12R19285   7.271   0.494   3.136 -1.2567 -0.7943 -0.1886
  171SAPE  C21319286   7.279   0.503   3.365  0.2060 -0.3769  0.3846
  171SAPE  H13R19287   7.362   0.429   3.353  0.7806 -0.0201  1.9335
  171SAPE  H13S19288   7.206   0.430   3.406 -0.2226 -1.1776 -1.6990
  171SAPE  C21419289   7.328   0.594   3.467 -0.9033 -0.2000 -0.9980
  171SAPE  H14R19290   7.392   0.677   3.433 -2.8762  2.0151  0.3963
  171SAPE  C21519291   7.309   0.578   3.602  0.2679  0.0557 -0.3858
  171SAPE  H15R19292   7.353   0.651   3.672 -0.4091 -0.9339  1.1042
  171SAPE  C21619293   7.214   0.480   3.659  0.2448  0.4250  0.7496
  171SAPE  H16R19294   7.224   0.376   3.622 -1.0768 -0.2661  2.1785
  171SAPE  H16S19295   7.121   0.515   3.610  1.2416  1.0193 -0.7612
  171SAPE  C21719296   7.181   0.462   3.808 -0.0713  0.1320  1.0873
  171SAPE  H17R19297   7.182   0.565   3.848  0.4466  0.8466 -0.6710
  171SAPE  H17S19298   7.267   0.420   3.865 -0.8103  2.3354  4.0505
  171SAPE  C21819299   7.060   0.382   3.846 -0.5506 -0.1780  0.9598
  171SAPE  H18R19300   7.075   0.272   3.834  0.5857 -0.1029  1.5766
  171SAPE  H18S19301   6.979   0.406   3.773  0.0323  5.1409  1.6794
  171SAPE  C21919302   7.006   0.404   3.984 -0.0754  0.5541  0.2793
  171SAPE  H19R19303   7.003   0.514   4.005  2.2334  0.8932 -0.8630
  171SAPE  H19S19304   7.084   0.365   4.053  1.4906  3.7956  0.5632
  171SAPE  C22019305   6.872   0.330   4.003 -0.1882  1.0202 -0.2745
  171SAPE  H20R19306   6.836   0.346   4.107  1.0143 -0.0498  0.3343
  171SAPE  H20S19307   6.881   0.222   3.977  0.8677  1.7512 -3.3316
  171SAPE  H20T19308   6.788   0.358   3.937 -2.2988 -0.0843  1.8058
  171SAPE   C3319309   6.498   1.448   2.910 -0.3339 -0.1879 -0.6337
  171SAPE   H3X19310   6.505   1.339   2.890  0.1117 -0.1817 -0.5143
  171SAPE   H3Y19311   6.398   1.462   2.956  0.3711 -2.4970  1.8413
  171SAPE   C3419312   6.589   1.502   3.026 -0.5122  0.6003  0.1120
  171SAPE   H4X19313   6.557   1.457   3.122 -0.3675  1.2600  0.4729
  171SAPE   H4Y19314   6.600   1.612   3.033  0.2795  0.7541 -2.4632
  171SAPE   C3519315   6.731   1.444   3.023  0.1041 -0.2006 -0.0091
  171SAPE   H5X19316   6.775   1.487   2.931 -1.3906  1.5683  0.0471
  171SAPE   H5Y19317   6.725   1.333   3.014  2.0296 -0.4014  0.6545
  171SAPE   C3619318   6.832   1.479   3.141  0.4261  0.2378  0.3376
  171SAPE   H6X19319   6.782   1.456   3.237  1.3978  2.5984  1.4843
  171SAPE   H6Y19320   6.857   1.587   3.141  1.7890 -0.0509  0.2063
  171SAPE   C3719321   6.960   1.395   3.143 -0.1843  0.5270  0.5678
  171SAPE   H7X19322   7.017   1.415   3.050  0.0525 -0.7325  0.4221
  171SAPE   H7Y19323   6.923   1.292   3.124 -1.6145  1.2658 -0.8643
  171SAPE   C3819324   7.047   1.408   3.269  0.2981  0.0497 -0.0350
  171SAPE   H8X19325   7.119   1.324   3.255 -1.3691 -1.1319 -2.0650
  171SAPE   H8Y19326   6.980   1.384   3.354 -1.2747  1.8972 -0.6820
  171SAPE   C3919327   7.117   1.547   3.279 -0.1550 -0.1344 -0.0352
  171SAPE   H9X19328   7.048   1.633   3.261 -0.5059 -0.2567  0.6714
  171SAPE   H9Y19329   7.193   1.559   3.199  0.3558 -0.5131  0.3898
  171SAPE  C31019330   7.183   1.562   3.418  0.0634 -0.0538 -0.1107
  171SAPE  H10X19331   7.258   1.642   3.401  0.4077  0.3364  2.7132
  171SAPE  H10Y19332   7.246   1.478   3.451  2.1875  1.3188 -0.4675
  171SAPE  C31119333   7.104   1.599   3.539  0.6325 -0.3953 -0.0761
  171SAPE  H11X19334   7.020   1.532   3.567  0.3917  0.5326  1.5753
  171SAPE  H11Y19335   7.059   1.699   3.520 -0.2083 -0.7365  0.0653
  171SAPE  C31219336   7.198   1.617   3.666  0.2890 -0.1549  0.6690
  171SAPE  H12X19337   7.295   1.670   3.650 -1.0286  3.1930  2.6589
  171SAPE  H12Y19338   7.223   1.512   3.692 -1.1917 -0.6191  0.2689
  171SAPE  C31319339   7.108   1.674   3.781  0.5154 -0.6824  0.1719
  171SAPE  H13X19340   7.002   1.642   3.776  1.0919 -2.5881 -1.8737
  171SAPE  H13Y19341   7.109   1.784   3.765  0.6285 -0.9563 -2.0642
  171SAPE  C31419342   7.162   1.628   3.921  0.4990  0.2011 -0.2373
  171SAPE  H14X19343   7.268   1.651   3.945  0.1975 -0.0982  1.4986
  171SAPE  H14Y19344   7.151   1.518   3.923  0.1183  0.2411  1.5749
  171SAPE  C31519345   7.071   1.672   4.036 -0.4817  0.4543  0.4254
  171SAPE  H15X19346   6.965   1.653   4.009 -0.1779  0.1113 -0.5756
  171SAPE  H15Y19347   7.076   1.780   4.058 -2.7542  0.7098 -0.0947
  171SAPE  C31619348   7.116   1.602   4.165 -0.0660  0.1541 -0.1562
  171SAPE  H16X19349   7.093   1.673   4.247  0.4509  2.0065 -1.5347
  171SAPE  H16Y19350   7.226   1.587   4.170 -0.1172 -0.5253 -0.8778
  171SAPE  C31719351   7.045   1.472   4.198 -0.2532 -0.5576 -0.5622
  171SAPE  H17X19352   7.045   1.397   4.116  1.1326  0.0550 -1.1498
  171SAPE  H17Y19353   6.937   1.493   4.213 -0.2257  0.7192 -2.0374
  171SAPE  C31819354   7.104   1.401   4.318 -0.2811  0.0652  1.0156
  171SAPE  H18X19355   7.073   1.461   4.406 -1.2221 -1.2422  1.6047
  171SAPE  H18Y19356   7.214   1.400   4.305 -0.5257 -0.5916 -1.4634
  171SAPE  H18Z19357   7.066   1.299   4.335 -0.3102 -0.2810 -0.9007
  172SAPE     N19358   6.571   2.102   2.440 -0.2258 -0.3115 -0.5131
  172SAPE   HN119359   6.480   2.052   2.431 -0.5437 -0.2172  1.6261
  172SAPE   HN219360   6.580   2.167   2.360  0.0108  0.9681  0.5104
  172SAPE   HN319361   6.638   2.023   2.427 -0.0679 -0.2184 -0.2671
  172SAPE   C1219362   6.579   2.176   2.569 -0.1432  0.2154 -0.0102
  172SAPE  H12A19363   6.684   2.180   2.607 -0.9284  0.9706  2.1922
  172SAPE  H12B19364   6.536   2.119   2.653 -1.5865 -1.6705 -1.9474
  172SAPE   C1119365   6.515   2.312   2.561 -0.6609 -0.7096 -1.2239
  172SAPE  H11A19366   6.579   2.370   2.491 -0.9952  0.0812 -0.8897
  172SAPE  H11B19367   6.542   2.362   2.657 -0.9803 -0.6792 -1.1481
  172SAPE     P19368   6.314   2.412   2.430  0.0935 -0.1584 -0.0176
  172SAPE   O1319369   6.412   2.450   2.328 -0.2566  0.8035 -0.5629
  172SAPE   O1419370   6.184   2.350   2.389 -0.0244 -0.2284  0.2838
  172SAPE   O1219371   6.381   2.319   2.538  0.0160  0.4403  0.5713
  172SAPE   O1119372   6.278   2.550   2.503  0.3109  0.2159 -0.6134
  172SAPE    C119373   6.287   2.566   2.648 -0.4855  0.2229 -0.5652
  172SAPE    HA19374   6.196   2.609   2.696 -0.6550 -0.1957 -0.5117
  172SAPE    HB19375   6.305   2.471   2.702 -0.7794 -0.4305 -1.5973
  172SAPE    C219376   6.411   2.659   2.683  0.3545 -0.0176  0.6076
  172SAPE    HS19377   6.378   2.756   2.641 -0.0265  1.7660  4.5901
  172SAPE   O2119378   6.524   2.597   2.617  0.6238  0.4681 -0.7213
  172SAPE   C2119379   6.612   2.682   2.565 -0.7727 -0.2631 -0.6053
  172SAPE   O2219380   6.600   2.804   2.559 -0.5205  0.2695 -0.3206
  172SAPE   C2219381   6.748   2.615   2.518  0.6920  0.3083  0.4141
  172SAPE   H2R19382   6.749   2.509   2.549 -1.1546  0.0568 -0.2227
  172SAPE   H2S19383   6.742   2.616   2.407  1.4045  0.3223  0.3730
  172SAPE    C319384   6.451   2.684   2.828  0.4943  0.2127  0.0647
  172SAPE    HX19385   6.479   2.585   2.871  2.9030  0.1275 -1.5193
  172SAPE    HY19386   6.360   2.721   2.879 -0.2750  0.8020 -1.6633
  172SAPE   O3119387   6.566   2.773   2.836  0.1872  0.6161 -0.6571
  172SAPE   C3119388   6.531   2.905   2.831  0.6320 -0.4880  0.2815
  172SAPE   O3219389   6.418   2.950   2.825 -0.0433  0.1707 -0.2789
  172SAPE   C3219390   6.649   2.999   2.829  0.8715 -0.6730  0.2979
  172SAPE   H2X19391   6.616   3.105   2.827  0.9768 -0.6082  1.2412
  172SAPE   H2Y19392   6.695   2.983   2.729 -1.0798 -0.5525 -0.6660
  172SAPE   C2319393   6.878   2.692   2.568  0.7649 -0.7915 -0.1036
  172SAPE   H3R19394   6.853   2.797   2.592  0.8799 -1.3185  2.6998
  172SAPE   H3S19395   6.952   2.695   2.486  2.1828 -0.1938  1.1500
  172SAPE   C2419396   6.937   2.623   2.687 -0.2938  0.6842 -0.1475
  172SAPE   H4R19397   6.946   2.517   2.653 -0.5279  0.7016 -0.2718
  172SAPE   H4S19398   6.863   2.610   2.769 -0.8831 -1.7964 -0.9696
  172SAPE   C2519399   7.067   2.691   2.740  0.1990 -0.4419  0.5411
  172SAPE   H5R19400   7.075   2.801   2.741  0.2565 -0.4393  2.0695
  172SAPE   C2619401   7.163   2.623   2.803  0.1082 -0.1384 -0.6134
  172SAPE   H6R19402   7.251   2.673   2.847  0.5061 -1.2421 -0.1128
  172SAPE   C2719403   7.165   2.472   2.813 -0.4246 -0.4233 -0.9539
  172SAPE   H7R19404   7.217   2.433   2.723 -0.5118 -0.0668 -1.1625
  172SAPE   H7S19405   7.056   2.446   2.813 -0.6654  0.3114  1.4644
  172SAPE   C2819406   7.229   2.417   2.942  0.8348  0.0994  0.2513
  172SAPE   H8R19407   7.236   2.488   3.026 -3.0938  0.3201  0.5756
  172SAPE   C2919408   7.297   2.310   2.960  0.2419 -0.2666  0.5069
  172SAPE   H9R19409   7.343   2.282   3.056  2.2931 -0.4343 -0.4783
  172SAPE  C21019410   7.314   2.197   2.857  0.6599 -0.4243 -0.0487
  172SAPE  H10R19411   7.269   2.223   2.758  1.4341  2.6534  0.3111
  172SAPE  H10S19412   7.261   2.101   2.880  2.3417 -1.5462 -0.6841
  172SAPE  C21119413   7.454   2.162   2.836  0.3011  0.1091 -0.2442
  172SAPE  H11R19414   7.525   2.231   2.885  1.4901 -0.6281 -0.8921
  172SAPE  C21219415   7.495   2.062   2.756  0.1912 -0.2963  0.6630
  172SAPE  H12R19416   7.601   2.069   2.729  0.1171  1.3737  0.7158
  172SAPE  C21319417   7.417   1.967   2.665  0.3555  0.0021 -0.0902
  172SAPE  H13R19418   7.309   1.963   2.689  0.3880 -1.5189 -0.0747
  172SAPE  H13S19419   7.460   1.869   2.697 -2.3382 -1.0541  0.5339
  172SAPE  C21419420   7.448   1.993   2.520  0.3324  0.2650 -0.7131
  172SAPE  H14R19421   7.436   2.097   2.486 -1.3652  1.0034  1.8385
  172SAPE  C21519422   7.466   1.906   2.422  0.6249 -0.2910  0.6703
  172SAPE  H15R19423   7.480   1.947   2.321 -1.5123  1.9692  1.2108
  172SAPE  C21619424   7.464   1.751   2.439 -0.0690 -0.9206 -0.0920
  172SAPE  H16R19425   7.503   1.707   2.533  1.6070  0.3465 -0.1546
  172SAPE  H16S19426   7.532   1.702   2.366 -0.3714 -1.5271  0.0266
  172SAPE  C21719427   7.316   1.708   2.424  0.1263 -0.0150  0.6589
  172SAPE  H17R19428   7.297   1.708   2.315  2.0156  2.1642  0.2666
  172SAPE  H17S19429   7.249   1.787   2.464  0.1077  0.9516 -1.2107
  172SAPE  C21819430   7.280   1.573   2.484 -0.3779 -0.0167  0.0102
  172SAPE  H18R19431   7.365   1.503   2.470  0.5724  0.5080  2.5894
  172SAPE  H18S19432   7.194   1.530   2.428  1.0717 -2.2102 -0.6711
  172SAPE  C21919433   7.245   1.580   2.631 -0.0334 -0.0464  0.8814
  172SAPE  H19R19434   7.142   1.622   2.641  0.8204  2.5578 -0.3175
  172SAPE  H19S19435   7.317   1.657   2.667  0.7190  0.3699 -1.3261
  172SAPE  C22019436   7.262   1.446   2.711 -0.2700  0.0250  0.0431
  172SAPE  H20R19437   7.368   1.419   2.696 -0.0365  0.5026  0.7865
  172SAPE  H20S19438   7.194   1.368   2.670  0.2230  0.1246 -0.9699
  172SAPE  H20T19439   7.245   1.466   2.819 -0.8837  1.1455 -0.2483
  172SAPE   C3319440   6.758   2.996   2.937 -0.2873 -0.0077  0.0387
  172SAPE   H3X19441   6.833   3.070   2.902  1.1157 -1.5984 -0.4251
  172SAPE   H3Y19442   6.809   2.899   2.952  0.9505  0.5188 -0.6184
  172SAPE   C3419443   6.725   3.054   3.079 -0.0973 -0.1116 -0.0159
  172SAPE   H4X19444   6.639   3.124   3.080  0.3530  0.6173  4.0069
  172SAPE   H4Y19445   6.810   3.119   3.109  0.1994  0.0290 -1.1052
  172SAPE   C3519446   6.703   2.947   3.190 -0.3136  0.0485 -0.1717
  172SAPE   H5X19447   6.791   2.879   3.197 -1.2570 -1.3426 -1.3701
  172SAPE   H5Y19448   6.602   2.907   3.169 -1.5303  0.8297  3.4731
  172SAPE   C3619449   6.688   3.019   3.326 -0.3135 -0.1134  0.2642
  172SAPE   H6X19450   6.597   3.082   3.311 -0.9321 -0.8125  1.0437
  172SAPE   H6Y19451   6.784   3.075   3.334  0.1156 -0.3265 -2.5144
  172SAPE   C3719452   6.669   2.917   3.442  0.8298 -0.2972  0.4548
  172SAPE   H7X19453   6.758   2.850   3.444  1.3203  0.3450  0.2803
  172SAPE   H7Y19454   6.574   2.862   3.428  1.5259 -1.3509 -0.3415
  172SAPE   C3819455   6.673   2.981   3.581 -0.1113  0.8008  0.1460
  172SAPE   H8X19456   6.763   3.046   3.587 -1.0256  2.3068 -1.3020
  172SAPE   H8Y19457   6.673   2.900   3.657  1.0827  1.2464  0.6350
  172SAPE   C3919458   6.549   3.063   3.615  0.2281 -0.1415 -0.6933
  172SAPE   H9X19459   6.457   3.010   3.583 -1.0393  1.3414  0.3260
  172SAPE   H9Y19460   6.552   3.149   3.544 -0.2340  0.6409  0.2188
  172SAPE  C31019461   6.537   3.114   3.759  0.9252 -0.0100  0.6604
  172SAPE  H10X19462   6.611   3.185   3.802 -0.2478  0.7568  1.4754
  172SAPE  H10Y19463   6.531   3.026   3.827  1.8489 -1.3054 -0.8489
  172SAPE  C31119464   6.394   3.178   3.758 -0.0161 -0.5516 -0.0560
  172SAPE  H11X19465   6.325   3.098   3.724  0.8809 -1.8969  1.2287
  172SAPE  H11Y19466   6.408   3.260   3.684  1.0293  0.1709  0.9210
  172SAPE  C31219467   6.338   3.232   3.897  0.1922  0.4352  0.1956
  172SAPE  H12X19468   6.315   3.150   3.968  1.8851 -2.4699 -2.3652
  172SAPE  H12Y19469   6.241   3.279   3.869 -1.2357 -3.1885 -1.4914
  172SAPE  C31319470   6.431   3.327   3.976 -0.2429 -0.2891  0.3891
  172SAPE  H13X19471   6.365   3.390   4.038 -1.5543 -1.2770  0.0520
  172SAPE  H13Y19472   6.482   3.391   3.901  0.4242 -2.0478 -0.7401
  172SAPE  C31419473   6.527   3.254   4.065 -0.3888 -0.3568  0.9999
  172SAPE  H14X19474   6.615   3.225   4.003  1.1210  2.7820  1.4740
  172SAPE  H14Y19475   6.472   3.166   4.104 -0.5857 -1.5608 -1.7442
  172SAPE  C31519476   6.575   3.338   4.190  0.2993 -0.0718  0.4704
  172SAPE  H15X19477   6.499   3.386   4.255 -0.8621 -0.6726 -0.4046
  172SAPE  H15Y19478   6.641   3.414   4.143  0.1265  0.8126  1.6258
  172SAPE  C31619479   6.677   3.258   4.281  0.5446  0.4362  0.2665
  172SAPE  H16X19480   6.741   3.202   4.209 -0.6958  1.1192 -1.4523
  172SAPE  H16Y19481   6.631   3.177   4.341  1.4666 -1.1045 -1.0209
  172SAPE  C31719482   6.767   3.345   4.373  0.0796  0.2847  0.3588
  172SAPE  H17X19483   6.829   3.283   4.441  0.3335  1.1152  0.9024
  172SAPE  H17Y19484   6.690   3.405   4.425 -0.1691 -0.5992  1.0219
  172SAPE  C31819485   6.865   3.432   4.295  0.0753 -0.4156 -0.0930
  172SAPE  H18X19486   6.917   3.497   4.370 -0.3750 -0.5466  0.3394
  172SAPE  H18Y19487   6.818   3.498   4.219  0.2993  0.4692  0.5041
  172SAPE  H18Z19488   6.937   3.363   4.247 -0.2289 -0.7042 -0.1376
  173SLPC     N19489   1.095   6.166   6.718 -0.2964  0.3250  0.6530
  173SLPC   C1319490   1.119   6.149   6.573  0.2546 -0.0871 -0.1782
  173SLPC  H13A19491   1.051   6.080   6.527 -0.9932  0.8539  0.2101
  173SLPC  H13B19492   1.125   6.245   6.524 -1.5945  0.0348 -0.2421
  173SLPC  H13C19493   1.215   6.105   6.551  0.7052  1.9355 -2.6552
  173SLPC   C1419494   1.106   6.035   6.786  0.5331  0.0399  0.4741
  173SLPC  H14A19495   1.102   6.048   6.893 -1.2571  0.1280  0.4302
  173SLPC  H14B19496   1.023   5.971   6.758 -0.7099  2.1459 -0.8638
  173SLPC  H14C19497   1.195   5.978   6.765 -0.1145 -0.8307 -0.0225
  173SLPC   C1519498   0.955   6.228   6.726  0.1366  0.7674 -0.2593
  173SLPC  H15A19499   0.909   6.216   6.823  0.4041  2.2814  0.0716
  173SLPC  H15B19500   0.960   6.334   6.707  1.9058  0.5832 -1.0063
  173SLPC  H15C19501   0.885   6.176   6.662  2.3412 -1.0147 -1.3859
  173SLPC   C1219502   1.199   6.260   6.790 -0.2621 -0.5717 -0.5098
  173SLPC  H12A19503   1.294   6.209   6.797 -0.5722 -0.9328  2.7156
  173SLPC  H12B19504   1.173   6.275   6.894 -0.9867 -0.8902 -0.6379
  173SLPC   C1119505   1.215   6.409   6.743  1.1616  0.5188 -0.5121
  173SLPC  H11A19506   1.118   6.462   6.740  0.6406 -0.4477 -2.5583
  173SLPC  H11B19507   1.247   6.396   6.637 -1.9816 -0.3311 -1.4568
  173SLPC     P19508   1.464   6.460   6.809  0.3083 -0.0829 -0.0387
  173SLPC   O1319509   1.521   6.584   6.748 -0.4382 -0.4026  0.2200
  173SLPC   O1419510   1.521   6.413   6.938 -0.5123 -0.1779  0.3180
  173SLPC   O1219511   1.305   6.473   6.828 -0.0949  0.0530 -0.0393
  173SLPC   O1119512   1.475   6.344   6.704 -0.2499 -0.2021  0.3816
  173SLPC    C119513   1.606   6.322   6.646 -0.3273  0.1391 -0.1358
  173SLPC    HA19514   1.662   6.412   6.612  0.9064 -1.6053 -3.1266
  173SLPC    HB19515   1.674   6.279   6.722 -1.1315  0.2675  0.6738
  173SLPC    C219516   1.585   6.226   6.521 -0.0889 -0.0912  0.3069
  173SLPC    HS19517   1.687   6.206   6.482 -1.0464 -0.3344 -2.2290
  173SLPC   O2119518   1.509   6.295   6.415 -0.5558  0.0300  0.6204
  173SLPC   C2119519   1.571   6.394   6.358  0.1609  0.6405  0.3345
  173SLPC   O2219520   1.686   6.430   6.362  0.2302  0.0115 -0.7030
  173SLPC   C2219521   1.471   6.437   6.252 -0.0378  0.0032  0.3021
  173SLPC   H2R19522   1.372   6.449   6.300  0.2444  0.0884  0.8672
  173SLPC   H2S19523   1.505   6.538   6.222  2.0909 -0.3672  1.2878
  173SLPC    C319524   1.519   6.087   6.554  0.3203 -0.5816  0.2376
  173SLPC    HX19525   1.412   6.113   6.570  0.8664  1.4468  0.8246
  173SLPC    HY19526   1.562   6.054   6.651  2.1508  1.6268  0.2579
  173SLPC   O3119527   1.539   5.990   6.442  0.6559  0.1057  0.4007
  173SLPC   C3119528   1.432   5.979   6.352 -0.2438 -0.3251 -0.4341
  173SLPC   O3219529   1.319   6.015   6.373 -0.0720  0.1851  0.4195
  173SLPC   C3219530   1.488   5.923   6.218  0.2338 -0.1675  0.6700
  173SLPC   H2X19531   1.534   5.827   6.247 -0.1283  0.1044  2.2359
  173SLPC   H2Y19532   1.551   6.005   6.176 -1.9512  1.2979  0.0687
  173SLPC   C2319533   1.454   6.328   6.144 -0.0984  0.4908 -0.1632
  173SLPC   H3R19534   1.408   6.238   6.189  1.8573  0.0569  1.0782
  173SLPC   H3S19535   1.544   6.287   6.094  0.3782  1.1972  0.0865
  173SLPC   C2419536   1.374   6.385   6.025 -0.2889  0.0143 -0.9196
  173SLPC   H4R19537   1.410   6.486   5.996  0.6087 -0.7308 -2.5136
  173SLPC   H4S19538   1.268   6.402   6.055  0.3330  1.8899  0.4358
  173SLPC   C2519539   1.371   6.292   5.898  0.4821  0.5112  0.0659
  173SLPC   H5R19540   1.285   6.325   5.836  0.0310 -0.5007  0.1247
  173SLPC   H5S19541   1.357   6.185   5.925 -0.4313  0.9817  1.6299
  173SLPC   C2619542   1.495   6.300   5.815  0.0130  0.7842  0.2336
  173SLPC   H6R19543   1.576   6.243   5.865  2.3513  1.6503 -2.3893
  173SLPC   H6S19544   1.520   6.406   5.792 -1.3151  0.7449 -1.5590
  173SLPC   C2719545   1.471   6.222   5.678  0.1199 -0.8051 -0.0416
  173SLPC   H7R19546   1.404   6.289   5.620  1.2977 -1.0228 -1.7187
  173SLPC   H7S19547   1.422   6.130   5.714  0.0552 -0.1611  1.6301
  173SLPC   C2819548   1.592   6.183   5.602 -0.1684 -0.5366  0.0666
  173SLPC   H8R19549   1.562   6.086   5.557 -1.1223 -0.3017  0.1726
  173SLPC   H8S19550   1.674   6.172   5.677 -0.6604 -0.1834  0.6600
  173SLPC   C2919551   1.635   6.282   5.491 -0.0971  0.5586  0.7005
  173SLPC   H9R19552   1.680   6.378   5.521 -0.2665  0.5646  0.9334
  173SLPC  C21019553   1.627   6.268   5.358  0.3807  0.3303  0.4018
  173SLPC  H10R19554   1.675   6.348   5.299  0.3304 -0.0686 -0.1871
  173SLPC  C21119555   1.584   6.145   5.279  0.5394 -0.3464 -0.3212
  173SLPC  H11R19556   1.510   6.183   5.205 -1.9894  1.1872  2.7520
  173SLPC  H11S19557   1.523   6.071   5.335 -0.2958  1.8278  1.8140
  173SLPC  C21219558   1.703   6.077   5.204  0.0706 -1.0919  0.3574
  173SLPC  H12R19559   1.804   6.114   5.226 -0.6155  1.8387 -0.8610
  173SLPC  C21319560   1.680   5.997   5.103  0.4326  0.1033  0.7114
  173SLPC  H13R19561   1.773   5.957   5.060  1.0937  2.3269 -0.0772
  173SLPC  C21419562   1.550   5.940   5.057 -0.6975 -0.0919  0.0908
  173SLPC  H14R19563   1.471   5.993   5.115 -1.1474 -0.5517 -0.0903
  173SLPC  H14S19564   1.550   5.833   5.086  0.3050 -0.1657 -0.1324
  173SLPC  C21519565   1.532   5.970   4.910 -0.1718 -0.4934 -0.2124
  173SLPC  H15R19566   1.558   6.076   4.891  0.2092 -0.1733  1.8877
  173SLPC  H15S19567   1.425   5.955   4.883 -0.5036  0.5020  0.5226
  173SLPC  C21619568   1.621   5.886   4.820 -0.1417 -0.0700 -0.7897
  173SLPC  H16R19569   1.591   5.781   4.844 -1.0777  0.2262 -0.6121
  173SLPC  H16S19570   1.730   5.893   4.841 -0.1210  0.4937 -1.0791
  173SLPC  C21719571   1.594   5.912   4.671  0.2213 -1.0384  0.2390
  173SLPC  H17R19572   1.626   6.014   4.641 -1.5337 -0.6926 -0.5669
  173SLPC  H17S19573   1.485   5.913   4.651  0.4352  0.7854 -1.0818
  173SLPC  C21819574   1.654   5.813   4.574 -0.0915 -0.1215 -0.0324
  173SLPC  H18R19575   1.633   5.831   4.466 -2.6082 -0.1963  0.3961
  173SLPC  H18S19576   1.627   5.708   4.597  1.4194 -0.1003  2.1340
  173SLPC  H18T19577   1.764   5.823   4.586 -0.1517  0.6404 -0.0546
  173SLPC   C3319578   1.371   5.906   6.117  0.4405 -0.5321  0.5340
  173SLPC   H3X19579   1.303   5.994   6.118 -0.4304 -1.1732  0.2299
  173SLPC   H3Y19580   1.309   5.820   6.151  0.2371 -0.9134 -0.7359
  173SLPC   C3419581   1.409   5.882   5.969 -0.3657 -0.5563 -0.2392
  173SLPC   H4X19582   1.467   5.788   5.971 -0.4607 -0.6087  0.2430
  173SLPC   H4Y19583   1.480   5.965   5.950 -1.9237  1.2464  1.4433
  173SLPC   C3519584   1.294   5.883   5.869 -0.2688 -0.4902 -0.3795
  173SLPC   H5X19585   1.247   5.982   5.883  3.1166  1.3459 -0.9541
  173SLPC   H5Y19586   1.210   5.817   5.899 -0.1616 -0.7841 -0.7097
  173SLPC   C3619587   1.342   5.861   5.726 -0.8155 -0.5899  0.5788
  173SLPC   H6X19588   1.384   5.761   5.703  1.2802  0.4280 -0.3505
  173SLPC   H6Y19589   1.431   5.926   5.712 -0.6041 -1.2726 -1.7176
  173SLPC   C3719590   1.237   5.895   5.627  0.2452 -0.6460 -0.4099
  173SLPC   H7X19591   1.210   6.002   5.643  1.1072 -0.7049  1.6955
  173SLPC   H7Y19592   1.146   5.846   5.668 -0.7038  1.7530  0.5277
  173SLPC   C3819593   1.277   5.863   5.483 -0.5611  0.0350 -0.2646
  173SLPC   H8X19594   1.333   5.767   5.483 -0.5984  0.0056  0.6745
  173SLPC   H8Y19595   1.354   5.939   5.454 -1.2593  1.2728  1.0181
  173SLPC   C3919596   1.159   5.869   5.388 -0.2789 -0.1213 -0.2943
  173SLPC   H9X19597   1.106   5.961   5.418  0.1178  0.2964 -0.8440
  173SLPC   H9Y19598   1.080   5.791   5.394  0.2744 -0.7041 -0.4466
  173SLPC  C31019599   1.201   5.894   5.245  0.6425  0.1401  0.2044
  173SLPC  H10X19600   1.285   5.827   5.218 -0.3687 -0.2893 -2.0730
  173SLPC  H10Y19601   1.229   6.001   5.238 -0.1587  0.2577 -1.9577
  173SLPC  C31119602   1.083   5.866   5.152 -0.0189  0.3451  1.0138
  173SLPC  H11X19603   1.003   5.940   5.175  0.7749  1.6731 -0.3220
  173SLPC  H11Y19604   1.031   5.770   5.173 -1.3830  1.0239  0.8522
  173SLPC  C31219605   1.115   5.890   5.001  0.2895 -0.8104 -0.1338
  173SLPC  H12X19606   1.219   5.853   4.984  0.2010 -1.0532 -0.1457
  173SLPC  H12Y19607   1.112   6.001   4.990  0.5060 -1.0542 -3.4777
  173SLPC  C31319608   1.025   5.817   4.913  0.5742  0.3474 -0.2633
  173SLPC  H13X19609   0.921   5.830   4.948  0.4418 -0.3550 -0.3698
  173SLPC  H13Y19610   1.050   5.708   4.911 -0.6757  0.0400 -1.6048
  173SLPC  C31419611   1.029   5.870   4.771  0.1759 -0.3706 -0.0694
  173SLPC  H14X19612   1.135   5.847   4.747  0.3730 -3.3056  3.0207
  173SLPC  H14Y19613   1.028   5.981   4.773 -0.1742 -0.3581 -0.7259
  173SLPC  C31519614   0.924   5.817   4.670 -0.0647  0.7031  0.5724
  173SLPC  H15X19615   0.821   5.834   4.710 -0.8400 -2.2519  0.0929
  173SLPC  H15Y19616   0.926   5.707   4.660  0.7829  0.5190  2.3699
  173SLPC  C31619617   0.944   5.876   4.527  0.4291 -0.1071 -0.7378
  173SLPC  H16X19618   0.955   5.986   4.541  0.1823 -0.1767  0.0586
  173SLPC  H16Y19619   0.846   5.873   4.474  0.6070 -1.3517 -1.0062
  173SLPC  C31719620   1.052   5.811   4.443 -0.6212  0.7253  0.1189
  173SLPC  H17X19621   1.031   5.703   4.424 -1.4931  1.0389 -0.7736
  173SLPC  H17Y19622   1.152   5.826   4.490  0.6174 -2.6318 -1.1484
  173SLPC  C31819623   1.059   5.868   4.298 -0.7658 -0.8245 -0.4318
  173SLPC  H18X19624   1.110   5.966   4.285 -1.1614 -0.7623 -1.6969
  173SLPC  H18Y19625   0.954   5.878   4.261 -0.1414 -0.2033 -2.1559
  173SLPC  H18Z19626   1.114   5.799   4.231  0.1725  1.1546 -1.8118
  174SLPC     N19627   4.095   4.177   6.824  0.2627  0.2398  0.0948
  174SLPC   C1319628   4.008   4.125   6.937 -0.0631 -0.6678 -0.1019
  174SLPC  H13A19629   4.012   4.190   7.023  1.3283 -1.1545  0.2302
  174SLPC  H13B19630   3.906   4.109   6.905  0.3114 -1.4401 -0.9335
  174SLPC  H13C19631   4.039   4.025   6.962 -0.7057 -0.2849  2.4426
  174SLPC   C1419632   4.063   4.091   6.699 -0.0330 -0.2741  0.1285
  174SLPC  H14A19633   4.107   4.135   6.611 -0.5448  0.8831  0.4298
  174SLPC  H14B19634   4.096   3.989   6.711 -0.6807 -0.3567  1.3633
  174SLPC  H14C19635   3.958   4.099   6.676  0.4526  0.2102 -2.1455
  174SLPC   C1519636   4.238   4.162   6.876 -0.0848 -0.0031  0.0304
  174SLPC  H15A19637   4.243   4.217   6.969 -1.1004  0.2522 -0.0523
  174SLPC  H15B19638   4.262   4.060   6.900 -0.1329  0.0443  0.2849
  174SLPC  H15C19639   4.308   4.206   6.807 -0.1096  2.4642  1.4726
  174SLPC   C1219640   4.070   4.318   6.802  0.0726 -0.0978 -0.9276
  174SLPC  H12A19641   4.081   4.370   6.896 -2.0056 -1.7909  0.3378
  174SLPC  H12B19642   3.964   4.313   6.782 -0.1485 -2.6843  0.4453
  174SLPC   C1119643   4.149   4.390   6.692  0.6288  0.7635  0.1547
  174SLPC  H11A19644   4.099   4.362   6.596  0.2583 -0.9492  0.8101
  174SLPC  H11B19645   4.255   4.360   6.682  0.9601  1.7707  0.6241
  174SLPC     P19646   4.021   4.618   6.688  0.1527 -0.1211  0.3100
  174SLPC   O1319647   3.901   4.531   6.701  0.6586  0.0852 -0.1203
  174SLPC   O1419648   4.036   4.741   6.767  0.3501  0.0436  0.1671
  174SLPC   O1219649   4.150   4.530   6.715  0.0554 -0.1009  0.5389
  174SLPC   O1119650   4.030   4.665   6.537 -0.2495 -0.1098 -0.1406
  174SLPC    C119651   4.150   4.745   6.506 -0.7707  0.1373 -0.0860
  174SLPC    HA19652   4.230   4.756   6.583  0.7613 -1.5576 -1.3456
  174SLPC    HB19653   4.210   4.690   6.430 -0.7103 -0.0627  0.1061
  174SLPC    C219654   4.115   4.882   6.456  0.1905  0.2462 -0.3357
  174SLPC    HS19655   4.069   4.935   6.542  0.6990 -0.5379  0.4361
  174SLPC   O2119656   4.021   4.859   6.349 -0.7065 -0.5654  0.4132
  174SLPC   C2119657   3.926   4.948   6.331  0.5401  1.0341  0.5903
  174SLPC   O2219658   3.905   5.032   6.417  0.8763  0.3690  0.2196
  174SLPC   C2219659   3.856   4.929   6.189 -0.5799 -0.7029 -0.2457
  174SLPC   H2R19660   3.937   4.905   6.117 -0.7213  0.8440 -0.9593
  174SLPC   H2S19661   3.801   4.835   6.212 -1.5105  0.0166  0.5794
  174SLPC    C319662   4.227   4.967   6.396 -0.3428  0.0314 -0.3538
  174SLPC    HX19663   4.303   4.985   6.476  0.0570 -0.3070 -0.6585
  174SLPC    HY19664   4.176   5.063   6.370  1.0825  0.9070 -0.0105
  174SLPC   O3119665   4.277   4.918   6.273  0.7266  0.2215 -0.2783
  174SLPC   C3119666   4.403   4.874   6.287 -0.7738  0.6496 -0.1528
  174SLPC   O3219667   4.468   4.856   6.390  0.3568 -0.8172  0.1895
  174SLPC   C3219668   4.449   4.842   6.138  1.1220  1.0030  0.0065
  174SLPC   H2X19669   4.354   4.823   6.082  1.1611  3.0851 -0.8548
  174SLPC   H2Y19670   4.507   4.748   6.132 -1.7062 -0.8718  0.1281
  174SLPC   C2319671   3.767   5.043   6.142  0.3845 -0.8951  0.5801
  174SLPC   H3R19672   3.818   5.138   6.119  0.2590 -0.8963  0.2978
  174SLPC   H3S19673   3.714   5.071   6.236 -0.5084 -2.6640  0.6522
  174SLPC   C2419674   3.688   4.997   6.025 -0.0087  1.3499 -0.7594
  174SLPC   H4R19675   3.620   5.083   6.013  1.1219  2.0092 -3.0292
  174SLPC   H4S19676   3.629   4.905   6.044  2.8318 -0.1038  2.1831
  174SLPC   C2519677   3.770   4.991   5.890  0.5453 -0.2760  0.1176
  174SLPC   H5R19678   3.866   4.937   5.899  0.6448  0.1150  1.9212
  174SLPC   H5S19679   3.793   5.100   5.885  2.3267 -0.5237  1.7162
  174SLPC   C2619680   3.706   4.949   5.760 -0.0451 -0.4584 -0.0033
  174SLPC   H6R19681   3.611   5.006   5.752 -0.6226 -0.5866  4.0013
  174SLPC   H6S19682   3.695   4.839   5.769  1.0355 -0.5441  0.4392
  174SLPC   C2719683   3.803   4.974   5.640  0.8035  0.6851 -0.0681
  174SLPC   H7R19684   3.888   4.903   5.637  1.1952  1.1566 -2.1179
  174SLPC   H7S19685   3.860   5.066   5.663 -1.1787  1.8188  0.5786
  174SLPC   C2819686   3.739   4.979   5.502 -0.2215 -0.4248  0.0112
  174SLPC   H8R19687   3.687   4.882   5.484 -0.3576 -0.0509 -1.8951
  174SLPC   H8S19688   3.816   4.984   5.421 -0.0339 -1.5134  0.1015
  174SLPC   C2919689   3.643   5.098   5.484  0.0726 -0.2625  0.2143
  174SLPC   H9R19690   3.537   5.092   5.513  0.2842  0.4429  1.1655
  174SLPC  C21019691   3.682   5.204   5.416  0.2758 -0.0603  0.4125
  174SLPC  H10R19692   3.609   5.283   5.392  0.9028  0.7534  1.0954
  174SLPC  C21119693   3.823   5.238   5.374 -0.4477 -0.0168  0.0607
  174SLPC  H11R19694   3.881   5.201   5.462 -1.4242 -1.2631  0.2194
  174SLPC  H11S19695   3.840   5.347   5.380 -1.3038  0.1002  4.6834
  174SLPC  C21219696   3.882   5.179   5.254  0.0105 -0.0175  0.6350
  174SLPC  H12R19697   3.861   5.072   5.237 -1.7639  0.4192 -0.1156
  174SLPC  C21319698   3.953   5.251   5.162 -0.4638  0.2926 -0.5208
  174SLPC  H13R19699   4.006   5.189   5.089  0.9258 -0.8463  1.3887
  174SLPC  C21419700   3.974   5.402   5.156 -0.4122  0.6402  0.1962
  174SLPC  H14R19701   4.081   5.429   5.161 -1.3482  4.7220  2.7168
  174SLPC  H14S19702   3.926   5.463   5.235 -0.9949 -0.7232  0.9414
  174SLPC  C21519703   3.914   5.459   5.022 -0.1962 -0.1101 -0.9763
  174SLPC  H15R19704   3.957   5.404   4.935  1.1082 -0.3434 -0.2170
  174SLPC  H15S19705   3.927   5.570   5.018 -1.3471  0.0578 -0.5004
  174SLPC  C21619706   3.757   5.427   5.030  0.0913 -0.2114  0.4133
  174SLPC  H16R19707   3.722   5.448   5.133 -0.8542 -1.6630  0.4192
  174SLPC  H16S19708   3.726   5.325   5.000  1.4971 -0.3813 -0.5593
  174SLPC  C21719709   3.683   5.515   4.924  0.6428  0.1142  0.2577
  174SLPC  H17R19710   3.722   5.617   4.943  0.6343 -0.1062  1.5371
  174SLPC  H17S19711   3.574   5.515   4.945  0.7668 -0.7087  0.9956
  174SLPC  C21819712   3.712   5.468   4.782 -0.3119 -0.1599  0.1450
  174SLPC  H18R19713   3.698   5.361   4.758  0.4969 -0.1890 -0.2350
  174SLPC  H18S19714   3.816   5.497   4.756 -0.2320 -1.6585 -1.3973
  174SLPC  H18T19715   3.643   5.526   4.717 -1.9559  0.6114  2.4614
  174SLPC   C3319716   4.531   4.958   6.078  0.2906  0.5363 -0.2331
  174SLPC   H3X19717   4.632   4.939   6.120 -0.6828 -1.4207  1.3735
  174SLPC   H3Y19718   4.487   5.055   6.111 -2.9136 -1.3977  1.7137
  174SLPC   C3419719   4.539   4.945   5.924  0.4286  0.2705  0.1587
  174SLPC   H4X19720   4.438   4.913   5.891 -0.3516  0.7456  1.9696
  174SLPC   H4Y19721   4.614   4.868   5.893 -0.0474 -0.2913  0.3956
  174SLPC   C3519722   4.574   5.079   5.859  0.2795 -0.1321  0.7282
  174SLPC   H5X19723   4.670   5.115   5.900  0.0856  0.8756  0.3204
  174SLPC   H5Y19724   4.493   5.150   5.887  1.8824  0.5030  4.3652
  174SLPC   C3619725   4.579   5.078   5.706  0.3409  0.3579 -0.0167
  174SLPC   H6X19726   4.573   5.182   5.669 -1.3015  1.5571  3.1930
  174SLPC   H6Y19727   4.483   5.045   5.661 -0.1171  1.0529  0.4148
  174SLPC   C3719728   4.704   5.003   5.660 -0.3711 -0.5534 -0.4127
  174SLPC   H7X19729   4.714   4.906   5.713 -0.7957 -2.1641 -3.0736
  174SLPC   H7Y19730   4.794   5.065   5.679  0.6401 -2.0207 -0.2677
  174SLPC   C3819731   4.687   4.982   5.513  0.2143 -0.5626  0.5066
  174SLPC   H8X19732   4.648   5.083   5.485  1.1705 -0.3003  0.0982
  174SLPC   H8Y19733   4.613   4.904   5.487 -0.8151  1.1126 -1.9551
  174SLPC   C3919734   4.808   4.942   5.439 -0.2212  0.4319 -0.2645
  174SLPC   H9X19735   4.834   4.844   5.485  0.5515  1.6879  2.1451
  174SLPC   H9Y19736   4.890   5.009   5.470 -0.7450  0.4923  1.0737
  174SLPC  C31019737   4.802   4.944   5.287  0.0470  0.0615  0.0068
  174SLPC  H10X19738   4.753   4.848   5.258 -1.7880  0.5127  1.3969
  174SLPC  H10Y19739   4.904   4.935   5.246  0.1974  1.8800 -0.0902
  174SLPC  C31119740   4.703   5.046   5.227 -0.1882 -0.1392 -0.4456
  174SLPC  H11X19741   4.706   5.135   5.293 -1.5282 -0.4663  0.0905
  174SLPC  H11Y19742   4.600   5.006   5.218 -0.0335 -0.4941 -0.6664
  174SLPC  C31219743   4.741   5.099   5.095  0.4254  0.0830  0.3817
  174SLPC  H12X19744   4.850   5.119   5.091  0.7568 -1.7829 -1.4273
  174SLPC  H12Y19745   4.691   5.192   5.059 -2.1577 -1.1285  0.6278
  174SLPC  C31319746   4.699   4.996   4.987 -0.3109  0.0313  0.4065
  174SLPC  H13X19747   4.588   4.991   4.990 -0.4778  1.0844 -1.6772
  174SLPC  H13Y19748   4.735   4.899   5.026 -1.3078 -1.0432 -1.2202
  174SLPC  C31419749   4.749   5.028   4.849  0.4687  0.3428  0.5278
  174SLPC  H14X19750   4.858   5.017   4.832  0.6013 -0.8649  2.0039
  174SLPC  H14Y19751   4.717   5.133   4.833 -1.9117 -0.4525 -0.3570
  174SLPC  C31519752   4.685   4.944   4.739 -0.7013  0.4860 -0.2603
  174SLPC  H15X19753   4.581   4.981   4.726 -0.7399  0.0686 -1.1979
  174SLPC  H15Y19754   4.684   4.836   4.767  0.7284  0.5449  0.1008
  174SLPC  C31619755   4.755   4.946   4.608 -0.4377  0.1962 -0.6347
  174SLPC  H16X19756   4.707   4.872   4.540 -0.1421  1.3335 -2.1201
  174SLPC  H16Y19757   4.860   4.916   4.630 -0.9674 -0.0052  1.9432
  174SLPC  C31719758   4.746   5.080   4.547 -0.1707  0.4977 -0.0735
  174SLPC  H17X19759   4.773   5.164   4.614 -0.6583  1.3873 -0.9582
  174SLPC  H17Y19760   4.637   5.102   4.539 -0.0559  1.4195  0.8080
  174SLPC  C31819761   4.812   5.077   4.406  0.6279  0.4968  0.5545
  174SLPC  H18X19762   4.747   5.001   4.357 -0.7424  0.7614  1.8683
  174SLPC  H18Y19763   4.915   5.036   4.402  0.6896  0.7890 -1.6380
  174SLPC  H18Z19764   4.803   5.176   4.358  1.4553  0.6136  0.6336
  175SLPC     N19765   6.597   1.446   6.760  0.1556  0.4062 -0.4629
  175SLPC   C1319766   6.692   1.445   6.875 -0.2266 -0.3834  0.1052
  175SLPC  H13A19767   6.690   1.354   6.932  0.1421 -0.0381  0.6794
  175SLPC  H13B19768   6.792   1.453   6.836 -0.6185 -1.3869 -1.2053
  175SLPC  H13C19769   6.666   1.528   6.939 -2.4914  0.3496 -1.6179
  175SLPC   C1419770   6.461   1.458   6.819 -0.2499 -0.4454  0.4300
  175SLPC  H14A19771   6.446   1.536   6.892 -1.4812 -0.9576  0.7378
  175SLPC  H14B19772   6.387   1.479   6.743  0.1030  0.2807  0.2782
  175SLPC  H14C19773   6.419   1.368   6.862  0.5802 -0.3278  1.5274
  175SLPC   C1519774   6.616   1.316   6.691  0.1565  0.4434  0.5991
  175SLPC  H15A19775   6.716   1.322   6.649 -0.7283  2.0809 -1.4738
  175SLPC  H15B19776   6.609   1.230   6.756  0.5368  1.7762  2.4933
  175SLPC  H15C19777   6.543   1.303   6.612 -0.3091  0.2593  1.0585
  175SLPC   C1219778   6.631   1.562   6.666  0.5042  0.0071  0.2983
  175SLPC  H12A19779   6.738   1.563   6.653  0.6176  0.7134  1.1690
  175SLPC  H12B19780   6.600   1.648   6.723  0.8101 -0.1832  0.7590
  175SLPC   C1119781   6.559   1.574   6.527  0.1237  0.0428 -0.2322
  175SLPC  H11A19782   6.612   1.511   6.453  1.6063  0.4367  0.4586
  175SLPC  H11B19783   6.574   1.679   6.493 -1.5730  0.5288  0.4047
  175SLPC     P19784   6.357   1.455   6.436 -0.0495  0.3127  0.1009
  175SLPC   O1319785   6.423   1.322   6.454 -0.0240 -0.0861 -0.1179
  175SLPC   O1419786   6.213   1.457   6.457  0.5163 -0.3460  0.1480
  175SLPC   O1219787   6.420   1.557   6.537 -0.1219 -0.1263  0.3005
  175SLPC   O1119788   6.385   1.521   6.290 -0.0572  0.4862 -0.3409
  175SLPC    C119789   6.378   1.659   6.254  0.4899  0.3723  0.2219
  175SLPC    HA19790   6.274   1.696   6.241  1.4658  3.0316 -0.7867
  175SLPC    HB19791   6.423   1.723   6.332  0.7303  1.6290 -0.8989
  175SLPC    C219792   6.455   1.686   6.122 -0.2134 -0.4944  0.3936
  175SLPC    HS19793   6.457   1.795   6.100  2.7528 -0.8949 -1.9150
  175SLPC   O2119794   6.384   1.619   6.015 -0.3610  0.0901  0.2964
  175SLPC   C2119795   6.270   1.672   5.983 -0.6287 -0.9030 -0.3386
  175SLPC   O2219796   6.235   1.785   6.008  0.5339  0.4779  0.2053
  175SLPC   C2219797   6.195   1.576   5.896  0.0382  0.0885 -0.3760
  175SLPC   H2R19798   6.254   1.569   5.801 -0.4499  0.1768 -0.6902
  175SLPC   H2S19799   6.188   1.483   5.955  1.6232  0.3656  0.3049
  175SLPC    C319800   6.605   1.642   6.133  0.0657 -0.0814 -0.1367
  175SLPC    HX19801   6.605   1.533   6.153 -0.5325 -0.0373  0.1154
  175SLPC    HY19802   6.658   1.689   6.219  2.7034 -1.6932 -0.7600
  175SLPC   O3119803   6.676   1.663   6.005  0.6450  0.1682  0.0668
  175SLPC   C3119804   6.699   1.797   5.981 -0.4404  0.6422  0.2009
  175SLPC   O3219805   6.684   1.886   6.060 -0.1407  0.0706  0.0771
  175SLPC   C3219806   6.785   1.808   5.855 -0.4258  0.6372  0.4946
  175SLPC   H2X19807   6.719   1.766   5.776 -1.4501  1.2511  0.9999
  175SLPC   H2Y19808   6.881   1.752   5.856 -0.4340  0.5267 -1.2580
  175SLPC   C2319809   6.061   1.634   5.854 -0.1605  0.0255 -0.1492
  175SLPC   H3R19810   6.081   1.711   5.776 -0.2068  1.0554  0.8263
  175SLPC   H3S19811   6.025   1.685   5.946  0.2304 -1.8939  1.1216
  175SLPC   C2419812   5.951   1.532   5.810  0.8231  0.1345  0.4439
  175SLPC   H4R19813   5.922   1.474   5.900 -0.2623  0.7443  0.4951
  175SLPC   H4S19814   5.983   1.471   5.722 -0.1631  1.2371 -0.7259
  175SLPC   C2519815   5.820   1.609   5.769 -0.2089 -0.0584 -0.0647
  175SLPC   H5R19816   5.777   1.659   5.859  1.5154 -0.3716  0.9785
  175SLPC   H5S19817   5.746   1.529   5.748 -1.2902  1.1375 -0.9972
  175SLPC   C2619818   5.833   1.709   5.650 -1.2201  0.1788 -0.3293
  175SLPC   H6R19819   5.867   1.652   5.561 -0.0831 -1.2673  0.9955
  175SLPC   H6S19820   5.919   1.776   5.673  1.1858 -1.9863 -2.4150
  175SLPC   C2719821   5.710   1.789   5.626  0.2436  0.0176  0.4163
  175SLPC   H7R19822   5.732   1.873   5.557  1.3192 -1.0197 -0.5411
  175SLPC   H7S19823   5.687   1.843   5.721 -0.6612  2.7495 -1.2594
  175SLPC   C2819824   5.596   1.706   5.575  0.2069  0.1832 -0.2013
  175SLPC   H8R19825   5.544   1.648   5.653  1.2970 -0.4615  0.0733
  175SLPC   H8S19826   5.644   1.633   5.506 -1.5280 -1.2255  0.0168
  175SLPC   C2919827   5.488   1.779   5.509  0.0989 -0.0076 -0.3543
  175SLPC   H9R19828   5.422   1.834   5.578 -0.6722 -0.9558 -0.3080
  175SLPC  C21019829   5.466   1.792   5.378  0.0658  0.5755  0.2466
  175SLPC  H10R19830   5.388   1.863   5.346  0.7486  0.4091 -2.0063
  175SLPC  C21119831   5.548   1.743   5.261  0.1046 -0.1565  0.7879
  175SLPC  H11R19832   5.482   1.743   5.172  0.5393  1.5738  0.4273
  175SLPC  H11S19833   5.573   1.636   5.276  0.9695 -0.2677 -1.1660
  175SLPC  C21219834   5.672   1.825   5.255 -0.0996 -0.7242  0.4179
  175SLPC  H12R19835   5.712   1.866   5.349 -0.7730 -0.2838  0.5207
  175SLPC  C21319836   5.732   1.878   5.150 -0.6436 -0.6287  0.3239
  175SLPC  H13R19837   5.818   1.946   5.160 -1.8580  0.8600  1.0740
  175SLPC  C21419838   5.696   1.855   5.003 -0.6827  0.1864 -0.0159
  175SLPC  H14R19839   5.618   1.778   4.988 -2.9988  1.7357  3.1150
  175SLPC  H14S19840   5.791   1.825   4.953  0.0745  2.4486 -0.0290
  175SLPC  C21519841   5.625   1.966   4.927 -0.5015  0.7386  0.3111
  175SLPC  H15R19842   5.601   1.936   4.823  0.2295  0.3600  0.2501
  175SLPC  H15S19843   5.697   2.049   4.908 -0.6506  0.5228 -1.2885
  175SLPC  C21619844   5.491   2.017   4.986 -0.3461  0.3148 -0.4123
  175SLPC  H16R19845   5.519   2.070   5.080  0.1831 -1.7761  0.6691
  175SLPC  H16S19846   5.429   1.930   5.016 -0.4827  0.1106 -1.2654
  175SLPC  C21719847   5.402   2.099   4.899  0.1320 -0.4841 -0.0767
  175SLPC  H17R19848   5.388   2.062   4.796 -2.1624 -1.7613  0.6338
  175SLPC  H17S19849   5.441   2.203   4.893  1.5490 -0.9068  1.0619
  175SLPC  C21819850   5.257   2.090   4.961 -0.1263  0.1699  0.1958
  175SLPC  H18R19851   5.223   1.984   4.968 -0.2950  0.2048 -0.0782
  175SLPC  H18S19852   5.187   2.131   4.885  0.5394  0.6560 -0.1614
  175SLPC  H18T19853   5.242   2.139   5.059  0.3935 -1.2917  1.0468
  175SLPC   C3319854   6.814   1.955   5.806 -0.5677  0.5388 -0.2019
  175SLPC   H3X19855   6.903   1.984   5.867 -0.0735 -1.6027  0.1734
  175SLPC   H3Y19856   6.722   2.004   5.842 -1.5058 -2.4560  1.8230
  175SLPC   C3419857   6.835   1.981   5.663  0.1990 -1.0227 -0.0278
  175SLPC   H4X19858   6.872   2.086   5.656 -0.4318 -0.7514  0.5639
  175SLPC   H4Y19859   6.744   1.965   5.601  0.4080  1.2468 -1.0519
  175SLPC   C3519860   6.949   1.907   5.597 -0.5544 -0.0263  0.1380
  175SLPC   H5X19861   6.904   1.808   5.572 -0.9806  0.7374 -2.4585
  175SLPC   H5Y19862   7.039   1.890   5.660  0.6568  1.5856 -1.0616
  175SLPC   C3619863   7.004   1.985   5.476  0.7926  0.1082 -0.7808
  175SLPC   H6X19864   7.109   1.962   5.446  1.6707  1.2539  1.1916
  175SLPC   H6Y19865   7.003   2.093   5.502  1.6808 -0.4824  2.1515
  175SLPC   C3719866   6.914   1.976   5.348  0.0358  0.3279 -0.8302
  175SLPC   H7X19867   6.960   2.042   5.271 -0.8258  0.3124 -1.3736
  175SLPC   H7Y19868   6.812   2.013   5.373  0.5904  0.9957  0.4855
  175SLPC   C3819869   6.907   1.847   5.272  0.4506 -0.5143 -0.1382
  175SLPC   H8X19870   6.840   1.858   5.184 -2.0231 -2.2686  1.3944
  175SLPC   H8Y19871   6.850   1.776   5.335 -0.0580  0.4105  0.4496
  175SLPC   C3919872   7.049   1.781   5.243  0.1985  0.0440  0.3259
  175SLPC   H9X19873   7.024   1.688   5.187  2.3712  0.7584 -2.0206
  175SLPC   H9Y19874   7.105   1.744   5.332  0.5352 -1.5072 -0.4987
  175SLPC  C31019875   7.139   1.868   5.158  0.0157  0.0190 -0.1911
  175SLPC  H10X19876   7.161   1.962   5.213  0.9594 -1.4981  2.2060
  175SLPC  H10Y19877   7.095   1.897   5.060 -0.9912 -1.0856 -0.0810
  175SLPC  C31119878   7.277   1.797   5.130 -0.4374 -0.5708 -0.0851
  175SLPC  H11X19879   7.260   1.690   5.105  2.2951 -1.8669  2.8910
  175SLPC  H11Y19880   7.335   1.798   5.224 -0.3227 -1.3044 -0.1438
  175SLPC  C31219881   7.340   1.858   5.008 -0.3817 -0.3795  0.0834
  175SLPC  H12X19882   7.343   1.968   5.022 -1.6974 -0.1665 -1.1098
  175SLPC  H12Y19883   7.270   1.855   4.922 -3.2511  1.4160  2.1857
  175SLPC  C31319884   7.481   1.807   4.969 -0.8912  0.1658  1.1159
  175SLPC  H13X19885   7.463   1.698   4.959 -0.0750 -0.0894  2.2878
  175SLPC  H13Y19886   7.555   1.813   5.051  1.8942  1.9814 -1.3280
  175SLPC  C31419887   7.541   1.871   4.843 -0.3015  0.3333 -0.6199
  175SLPC  H14X19888   7.552   1.981   4.857 -0.8323  0.3686 -0.4480
  175SLPC  H14Y19889   7.476   1.836   4.759 -0.7319 -0.7678  0.1580
  175SLPC  C31519890   7.688   1.810   4.815  0.0354 -0.0060 -0.2647
  175SLPC  H15X19891   7.673   1.704   4.785  0.5083 -0.7339  1.8617
  175SLPC  H15Y19892   7.751   1.820   4.906 -2.5195  2.8440  1.3609
  175SLPC  C31619893   7.764   1.885   4.704  0.0852 -0.6871  0.2748
  175SLPC  H16X19894   7.854   1.825   4.681  0.1058 -0.4095 -0.4087
  175SLPC  H16Y19895   7.785   1.989   4.737 -1.0483 -0.8555  1.6170
  175SLPC  C31719896   7.682   1.905   4.572  0.7680 -0.0320 -0.0322
  175SLPC  H17X19897   7.613   1.990   4.591 -1.5029 -2.1050  1.7411
  175SLPC  H17Y19898   7.619   1.815   4.559 -0.7518  1.1365 -1.1661
  175SLPC  C31819899   7.758   1.934   4.441 -0.2481 -0.1675  0.9964
  175SLPC  H18X19900   7.826   2.021   4.456  0.2031 -0.1139 -1.0466
  175SLPC  H18Y19901   7.687   1.959   4.360  0.4700 -0.9917  0.0876
  175SLPC  H18Z19902   7.812   1.841   4.413  0.0884 -0.7449  3.3964
  176SLPC     N19903   5.963   0.762   6.467  0.6026  0.3192  0.2842
  176SLPC   C1319904   6.050   0.779   6.346 -0.3683 -0.5015 -0.4302
  176SLPC  H13A19905   6.031   0.875   6.299 -1.1765 -1.3728 -1.9538
  176SLPC  H13B19906   6.153   0.765   6.374  0.0659  1.0138 -1.1501
  176SLPC  H13C19907   6.032   0.700   6.275 -0.6804 -0.2183 -0.6751
  176SLPC   C1419908   5.814   0.765   6.435  0.1351  0.6905 -0.7548
  176SLPC  H14A19909   5.774   0.858   6.396 -4.4307 -0.8579 -0.4098
  176SLPC  H14B19910   5.775   0.676   6.387  2.3052 -0.8867  0.2556
  176SLPC  H14C19911   5.767   0.759   6.531  0.1449 -0.5004 -0.8139
  176SLPC   C1519912   5.975   0.869   6.565 -0.0074 -0.2720  0.6183
  176SLPC  H15A19913   5.953   0.969   6.531 -0.0851  0.2415  2.1359
  176SLPC  H15B19914   5.905   0.852   6.645 -2.4269 -0.6576 -1.4623
  176SLPC  H15C19915   6.072   0.881   6.612  0.0169  2.1257  0.1013
  176SLPC   C1219916   5.989   0.625   6.540  0.3243 -0.3783  0.5915
  176SLPC  H12A19917   5.970   0.537   6.481  2.7062 -1.0000  0.6509
  176SLPC  H12B19918   5.921   0.609   6.622 -0.7668  0.2357 -0.1779
  176SLPC   C1119919   6.132   0.609   6.587 -0.9198  0.4919 -0.3237
  176SLPC  H11A19920   6.138   0.516   6.647  0.6382 -0.9018 -2.5118
  176SLPC  H11B19921   6.166   0.692   6.652  2.0409 -0.0505 -1.0440
  176SLPC     P19922   6.237   0.461   6.399 -0.2522  0.1818  0.4048
  176SLPC   O1319923   6.243   0.355   6.497 -0.4917  0.3228 -0.4441
  176SLPC   O1419924   6.122   0.465   6.301 -0.2667  0.1936 -0.0348
  176SLPC   O1219925   6.225   0.599   6.480 -0.1409 -0.5205  0.3294
  176SLPC   O1119926   6.375   0.466   6.329 -0.1619 -0.2533 -0.0484
  176SLPC    C119927   6.375   0.510   6.195  0.8169 -0.2103  0.2968
  176SLPC    HA19928   6.412   0.425   6.134 -0.7054 -0.7405  0.0691
  176SLPC    HB19929   6.279   0.548   6.154  1.8436 -0.5766 -2.7297
  176SLPC    C219930   6.485   0.622   6.178  0.2695 -0.7371  0.0215
  176SLPC    HS19931   6.465   0.695   6.259  3.8644 -0.9789  1.3228
  176SLPC   O2119932   6.456   0.676   6.045  0.8884  0.0035  0.0358
  176SLPC   C2119933   6.509   0.794   6.027 -0.4960  0.3962  0.5931
  176SLPC   O2219934   6.555   0.864   6.109 -0.4852  0.0420 -0.1320
  176SLPC   C2219935   6.484   0.839   5.883 -0.4383  0.3795 -0.1825
  176SLPC   H2R19936   6.393   0.903   5.886  0.5122  1.7696  1.9073
  176SLPC   H2S19937   6.572   0.905   5.866  2.2439 -2.6984  0.7182
  176SLPC    C319938   6.627   0.571   6.187 -0.1495  0.2134  0.0983
  176SLPC    HX19939   6.649   0.532   6.288  1.6569  1.7702  0.3471
  176SLPC    HY19940   6.696   0.658   6.193 -1.3679  1.0921  2.2734
  176SLPC   O3119941   6.650   0.468   6.082  0.0493  0.6204  0.2338
  176SLPC   C3119942   6.725   0.513   5.979 -0.8866  0.0826 -0.5784
  176SLPC   O3219943   6.767   0.629   5.966 -0.0618  0.2592  0.1713
  176SLPC   C3219944   6.756   0.406   5.876 -0.6853  0.2417 -0.0462
  176SLPC   H2X19945   6.664   0.391   5.816 -0.4643  0.4362 -0.4387
  176SLPC   H2Y19946   6.780   0.313   5.931  0.4152  0.1969 -0.5766
  176SLPC   C2319947   6.458   0.720   5.779  0.0164  0.5742 -0.4330
  176SLPC   H3R19948   6.364   0.667   5.806  1.7415 -2.7013 -0.3505
  176SLPC   H3S19949   6.544   0.649   5.788 -1.3042 -1.6594 -3.5371
  176SLPC   C2419950   6.452   0.763   5.632  0.2815  0.6509 -0.0182
  176SLPC   H4R19951   6.550   0.813   5.617 -1.0440  2.8624 -1.8778
  176SLPC   H4S19952   6.373   0.836   5.603 -0.3925  2.3579  5.0773
  176SLPC   C2519953   6.434   0.641   5.538  0.3501 -0.6289  0.3461
  176SLPC   H5R19954   6.336   0.594   5.559 -0.7376  1.3078 -0.1348
  176SLPC   H5S19955   6.522   0.573   5.545  0.5947 -0.3557  0.0010
  176SLPC   C2619956   6.424   0.686   5.391 -0.4923 -0.7660 -0.1448
  176SLPC   H6R19957   6.524   0.725   5.362 -0.7100 -1.4772 -1.9863
  176SLPC   H6S19958   6.360   0.776   5.377 -0.2963 -0.9351 -2.5611
  176SLPC   C2719959   6.387   0.582   5.289  0.3697 -0.1258  0.6747
  176SLPC   H7R19960   6.276   0.577   5.300  0.1169  2.4161 -0.2109
  176SLPC   H7S19961   6.441   0.487   5.309 -1.5573 -1.4021  0.1429
  176SLPC   C2819962   6.409   0.617   5.141  0.0094 -0.0417  0.4238
  176SLPC   H8R19963   6.362   0.536   5.081  0.5727  0.5825 -0.9112
  176SLPC   H8S19964   6.517   0.599   5.123  0.7211  0.0985  3.8470
  176SLPC   C2919965   6.351   0.746   5.087  0.3729  0.1942  0.2762
  176SLPC   H9R19966   6.263   0.786   5.139  1.6429  0.9812  1.9297
  176SLPC  C21019967   6.406   0.823   4.988 -0.3797  0.2972  0.0894
  176SLPC  H10R19968   6.353   0.916   4.964 -0.9176  0.4466  1.7728
  176SLPC  C21119969   6.528   0.783   4.903 -0.6402 -0.5777  0.4798
  176SLPC  H11R19970   6.493   0.703   4.834  0.3271 -1.2532  0.7590
  176SLPC  H11S19971   6.610   0.740   4.964  0.8651  1.7383  0.2337
  176SLPC  C21219972   6.568   0.906   4.827  0.1155 -0.4279  0.4199
  176SLPC  H12R19973   6.615   0.970   4.904 -1.6176 -2.3709  3.2939
  176SLPC  C21319974   6.563   0.939   4.697  0.4788 -0.2462  0.4478
  176SLPC  H13R19975   6.604   1.035   4.661  2.0166 -1.3245 -0.8021
  176SLPC  C21419976   6.494   0.863   4.584 -0.6760  0.4352  0.0109
  176SLPC  H14R19977   6.466   0.759   4.610  0.4664 -0.1048 -0.8454
  176SLPC  H14S19978   6.563   0.840   4.500  0.1156  0.6165  0.6060
  176SLPC  C21519979   6.370   0.926   4.522 -0.3740 -0.3862  0.5639
  176SLPC  H15R19980   6.397   1.021   4.471 -0.9017 -1.3719 -1.7065
  176SLPC  H15S19981   6.281   0.947   4.585 -0.5087 -0.8041  0.5151
  176SLPC  C21619982   6.314   0.848   4.398 -0.1510  0.2540  0.8150
  176SLPC  H16R19983   6.279   0.749   4.435 -0.8205  0.3851  0.5320
  176SLPC  H16S19984   6.400   0.828   4.330  0.6942  1.7723  1.3711
  176SLPC  C21719985   6.205   0.930   4.331 -0.0113 -0.4726 -0.1251
  176SLPC  H17R19986   6.246   1.004   4.259  0.4207 -1.3804 -0.8333
  176SLPC  H17S19987   6.158   0.990   4.412 -1.0861 -1.6245  0.1307
  176SLPC  C21819988   6.097   0.846   4.260  0.8341  0.6253  0.5240
  176SLPC  H18R19989   6.008   0.910   4.239  0.2305 -0.3643  0.0044
  176SLPC  H18S19990   6.068   0.763   4.328  5.3456 -1.4578  0.2752
  176SLPC  H18T19991   6.143   0.799   4.170  3.1631  3.8603 -0.1576
  176SLPC   C3319992   6.889   0.433   5.794  0.0045  0.1823 -0.3753
  176SLPC   H3X19993   6.909   0.333   5.751 -1.1207  0.1796 -0.9252
  176SLPC   H3Y19994   6.972   0.465   5.861  2.3374 -1.1708 -2.4478
  176SLPC   C3419995   6.859   0.543   5.684 -0.3040 -0.1231  0.0974
  176SLPC   H4X19996   6.950   0.604   5.666 -0.8797  0.5127 -0.7326
  176SLPC   H4Y19997   6.789   0.623   5.714  0.6893  0.2857  1.4256
  176SLPC   C3519998   6.831   0.472   5.549  0.0206 -0.7029 -0.0873
  176SLPC   H5X19999   6.720   0.469   5.547  0.0162 -0.5111 -0.1556
  176SLPC   H5Y20000   6.875   0.371   5.537 -1.6118 -1.4102 -0.3799
  176SLPC   C3620001   6.878   0.547   5.419  0.0798  0.1138  0.5468
  176SLPC   H6X20002   6.831   0.498   5.332  2.4433 -0.8918 -0.2378
  176SLPC   H6Y20003   6.986   0.531   5.397 -0.3969 -1.0133 -1.0947
  176SLPC   C3720004   6.848   0.698   5.411  0.0435  0.0093 -0.6037
  176SLPC   H7X20005   6.915   0.769   5.463 -0.3399  2.5801 -3.3370
  176SLPC   H7Y20006   6.746   0.713   5.452  0.2543  0.3026 -0.1840
  176SLPC   C3820007   6.845   0.740   5.264 -0.4704 -0.0796  0.6623
  176SLPC   H8X20008   6.784   0.833   5.257  0.1732  0.2686 -0.6618
  176SLPC   H8Y20009   6.812   0.661   5.193  1.9101  0.0510 -0.6888
  176SLPC   C3920010   6.990   0.780   5.214  0.1099  0.5485 -0.3152
  176SLPC   H9X20011   7.059   0.696   5.237 -0.4558 -0.1440 -1.0806
  176SLPC   H9Y20012   7.033   0.862   5.275  1.8567  0.7225 -1.6841
  176SLPC  C31020013   6.993   0.800   5.062 -0.3873 -0.2793  1.0700
  176SLPC  H10X20014   6.956   0.711   5.006 -2.4581  0.1655  1.6241
  176SLPC  H10Y20015   7.095   0.799   5.018 -0.8509 -0.2024 -0.0276
  176SLPC  C31120016   6.940   0.937   5.013 -0.0133  0.8581 -0.6001
  176SLPC  H11X20017   6.988   1.021   5.069  0.1547  0.0848  0.4562
  176SLPC  H11Y20018   6.830   0.934   5.026  0.0630 -2.5030  0.0487
  176SLPC  C31220019   6.970   0.951   4.866 -0.1402 -0.1048  0.8097
  176SLPC  H12X20020   6.944   0.864   4.802  0.8221  0.0151  0.2221
  176SLPC  H12Y20021   7.081   0.954   4.858  0.0251 -3.7198 -0.2354
  176SLPC  C31320022   6.899   1.067   4.806  0.2734 -0.0273  0.6670
  176SLPC  H13X20023   6.906   1.153   4.875 -0.6431 -0.4116  1.2561
  176SLPC  H13Y20024   6.792   1.035   4.808  0.3635 -0.3619  0.2903
  176SLPC  C31420025   6.933   1.102   4.657  0.7175  0.7307  0.7905
  176SLPC  H14X20026   6.934   1.013   4.591  0.9893  0.2438  1.4416
  176SLPC  H14Y20027   7.041   1.130   4.653  1.1767 -1.0440 -0.4634
  176SLPC  C31520028   6.842   1.212   4.602  0.7231 -0.3218 -0.4358
  176SLPC  H15X20029   6.739   1.171   4.609  0.2383  0.7209 -1.2273
  176SLPC  H15Y20030   6.874   1.234   4.498  0.7229  2.1748  0.0245
  176SLPC  C31620031   6.831   1.350   4.677 -0.3946  0.1514  0.3457
  176SLPC  H16X20032   6.937   1.376   4.698  0.0390 -0.2819 -1.1746
  176SLPC  H16Y20033   6.789   1.347   4.779  0.0963  0.4745  0.5609
  176SLPC  C31720034   6.764   1.459   4.592  0.0900 -0.0773 -0.7692
  176SLPC  H17X20035   6.657   1.432   4.579 -0.0883 -0.3709  1.0372
  176SLPC  H17Y20036   6.824   1.455   4.499  0.2795  0.2972 -0.6642
  176SLPC  C31820037   6.770   1.589   4.674  0.6268 -0.2040  0.1728
  176SLPC  H18X20038   6.674   1.582   4.729 -0.2332 -0.6493 -1.3139
  176SLPC  H18Y20039   6.770   1.681   4.610 -0.9939  2.7644  4.0247
  176SLPC  H18Z20040   6.859   1.603   4.739  0.4490  2.0933  0.0375
  177SLPC     N20041   0.556   0.049   6.699 -0.2010  0.4039 -0.0090
  177SLPC   C1320042   0.455   0.144   6.738  0.0938 -0.6717  0.8918
  177SLPC  H13A20043   0.492   0.203   6.821 -1.2027  1.1118  0.2691
  177SLPC  H13B20044   0.436   0.222   6.666  0.9160 -0.9994  0.3026
  177SLPC  H13C20045   0.362   0.094   6.761 -0.2830  0.1335  1.1659
  177SLPC   C1420046   0.523  -0.016   6.570  0.5187 -0.0888 -0.2108
  177SLPC  H14A20047   0.432  -0.073   6.571 -0.1472  0.9537  0.7093
  177SLPC  H14B20048   0.525   0.067   6.500 -1.6894  0.9222  0.8085
  177SLPC  H14C20049   0.600  -0.080   6.530  0.2561  1.0281 -2.7258
  177SLPC   C1520050   0.568  -0.054   6.802 -0.0989  0.2214 -0.2781
  177SLPC  H15A20051   0.475  -0.099   6.832 -0.2472  0.2033 -0.7644
  177SLPC  H15B20052   0.635  -0.128   6.761  0.3152  0.3100  0.2223
  177SLPC  H15C20053   0.616  -0.019   6.892  0.6271 -2.5495  0.5239
  177SLPC   C1220054   0.689   0.120   6.687 -0.1301  0.0310 -0.6420
  177SLPC  H12A20055   0.755   0.057   6.629 -0.8841  1.0717 -2.7284
  177SLPC  H12B20056   0.746   0.126   6.778  1.9428  1.3792 -1.9646
  177SLPC   C1120057   0.687   0.257   6.608  0.2072 -0.3514 -0.4679
  177SLPC  H11A20058   0.775   0.313   6.649  0.5365 -2.3351  1.7822
  177SLPC  H11B20059   0.599   0.316   6.641  0.8884  1.8556 -2.3683
  177SLPC     P20060   0.815   0.269   6.384 -0.0939 -0.5703 -0.1280
  177SLPC   O1320061   0.862   0.409   6.408  0.5536 -0.2709  0.3264
  177SLPC   O1420062   0.909   0.160   6.407  0.5005  0.1167 -0.4230
  177SLPC   O1220063   0.686   0.249   6.471  0.1377  0.1220  0.8315
  177SLPC   O1120064   0.762   0.255   6.241  0.5323 -0.0688  0.8150
  177SLPC    C120065   0.808   0.326   6.125 -0.0428  0.1876 -0.3093
  177SLPC    HA20066   0.853   0.422   6.157 -0.0470 -0.0921  0.5715
  177SLPC    HB20067   0.886   0.273   6.066 -1.7897 -1.2243 -1.4507
  177SLPC    C220068   0.681   0.347   6.033 -0.1532 -0.5825  0.2830
  177SLPC    HS20069   0.607   0.395   6.101  1.0153 -0.5717  1.5821
  177SLPC   O2120070   0.640   0.218   5.981 -0.2494 -0.2340 -0.0908
  177SLPC   C2120071   0.514   0.209   5.954  0.4514 -0.0461 -0.7752
  177SLPC   O2220072   0.429   0.294   5.978 -0.4204  0.1913  0.5366
  177SLPC   C2220073   0.485   0.082   5.879 -0.1992  0.8015  0.4088
  177SLPC   H2R20074   0.533  -0.008   5.923 -0.1775  0.7265  0.2311
  177SLPC   H2S20075   0.377   0.059   5.879 -0.1111  0.1203 -1.9790
  177SLPC    C320076   0.710   0.453   5.920  0.4027 -0.0473 -0.5432
  177SLPC    HX20077   0.740   0.545   5.975  0.5013 -0.2866 -0.1920
  177SLPC    HY20078   0.616   0.481   5.868  0.2349  0.3470 -0.0377
  177SLPC   O3120079   0.813   0.413   5.828  0.8474  0.0268  0.5297
  177SLPC   C3120080   0.841   0.515   5.738  0.1228  0.1628  0.2781
  177SLPC   O3220081   0.790   0.624   5.747  0.2617 -0.3102  0.5936
  177SLPC   C3220082   0.946   0.469   5.636 -0.5451 -0.0610 -0.0569
  177SLPC   H2X20083   0.919   0.365   5.610 -2.5347 -0.0045  1.5334
  177SLPC   H2Y20084   1.046   0.452   5.682  0.5243 -4.0412 -3.2928
  177SLPC   C2320085   0.542   0.071   5.734  0.4985  0.7171  0.2044
  177SLPC   H3R20086   0.537  -0.035   5.702  0.0037  1.0520 -0.8658
  177SLPC   H3S20087   0.650   0.095   5.732  0.6913 -0.1914 -0.8454
  177SLPC   C2420088   0.464   0.160   5.634  0.0244  0.0189 -0.0812
  177SLPC   H4R20089   0.475   0.265   5.669 -1.0734  0.3687 -0.7222
  177SLPC   H4S20090   0.357   0.130   5.625 -0.0758  0.4898 -0.5931
  177SLPC   C2520091   0.522   0.166   5.495  0.7763 -0.3737 -0.1740
  177SLPC   H5R20092   0.515   0.062   5.457 -0.9427  0.5645 -2.6529
  177SLPC   H5S20093   0.630   0.193   5.501  0.9522 -1.3566  3.2560
  177SLPC   C2620094   0.440   0.255   5.393 -0.4914 -0.8815  0.3245
  177SLPC   H6R20095   0.426   0.356   5.438  1.7726  1.0267 -2.8084
  177SLPC   H6S20096   0.334   0.227   5.379 -0.9695  1.1753 -0.5164
  177SLPC   C2720097   0.493   0.266   5.250  0.1718  0.3486  1.1877
  177SLPC   H7R20098   0.584   0.328   5.264 -0.4658  1.6881 -0.2844
  177SLPC   H7S20099   0.428   0.325   5.181 -0.5291 -2.0929 -0.3392
  177SLPC   C2820100   0.530   0.130   5.184 -0.2674  0.1273 -1.2226
  177SLPC   H8R20101   0.439   0.067   5.173 -1.2126  1.2866 -0.2805
  177SLPC   H8S20102   0.595   0.086   5.263 -0.8008  2.7199  0.7889
  177SLPC   C2920103   0.609   0.151   5.059 -0.0079 -0.1399  0.1765
  177SLPC   H9R20104   0.685   0.231   5.059 -0.0668 -0.0586 -1.1352
  177SLPC  C21020105   0.618   0.063   4.953  0.2821 -0.3391 -1.2256
  177SLPC  H10R20106   0.689   0.083   4.871 -0.1926 -1.8235 -2.0289
  177SLPC  C21120107   0.528  -0.059   4.933  0.1654 -0.3326  0.1876
  177SLPC  H11R20108   0.503  -0.115   5.026 -3.3472 -1.2888 -1.1520
  177SLPC  H11S20109   0.579  -0.139   4.875 -0.6316 -0.1420 -0.8168
  177SLPC  C21220110   0.394  -0.008   4.877 -0.1017  0.5626 -0.2301
  177SLPC  H12R20111   0.360   0.091   4.909 -1.4976  0.6340 -1.7663
  177SLPC  C21320112   0.315  -0.084   4.802  0.7766 -1.1108  0.5738
  177SLPC  H13R20113   0.217  -0.045   4.770  1.3334  2.0731  2.2681
  177SLPC  C21420114   0.350  -0.226   4.752  1.0828  0.6837  0.0190
  177SLPC  H14R20115   0.283  -0.304   4.794 -0.3509  1.1189 -1.3662
  177SLPC  H14S20116   0.454  -0.258   4.778  0.3830 -1.3027  0.5535
  177SLPC  C21520117   0.334  -0.236   4.603 -0.9007 -0.4952 -0.0440
  177SLPC  H15R20118   0.243  -0.179   4.573 -0.5011 -1.3315 -3.1860
  177SLPC  H15S20119   0.322  -0.341   4.570 -0.1219 -1.4860  2.6337
  177SLPC  C21620120   0.442  -0.166   4.522 -1.0204  0.5312 -0.5482
  177SLPC  H16R20121   0.536  -0.224   4.513  0.7450  3.2650 -0.8921
  177SLPC  H16S20122   0.476  -0.080   4.583 -0.7156 -0.6375  1.0040
  177SLPC  C21720123   0.415  -0.129   4.376 -0.0426  0.8120  0.2760
  177SLPC  H17R20124   0.510  -0.083   4.340  0.5653 -0.3116  0.4032
  177SLPC  H17S20125   0.338  -0.050   4.363 -1.0029 -0.3160 -1.2786
  177SLPC  C21820126   0.362  -0.247   4.298  0.2891  0.1804  0.2395
  177SLPC  H18R20127   0.262  -0.277   4.336  0.3240  1.1358  1.0978
  177SLPC  H18S20128   0.440  -0.326   4.306 -1.5888 -2.0113 -1.3621
  177SLPC  H18T20129   0.342  -0.222   4.192 -0.3970  0.1177  0.3539
  177SLPC   C3320130   0.953   0.556   5.505 -0.0534 -0.0306  0.6205
  177SLPC   H3X20131   1.025   0.496   5.444 -0.5570  0.7467 -0.7906
  177SLPC   H3Y20132   0.992   0.659   5.523  2.0132 -0.3183 -1.6431
  177SLPC   C3420133   0.815   0.551   5.433 -0.3666 -0.1323  0.2336
  177SLPC   H4X20134   0.745   0.605   5.501 -1.4300 -1.7877  0.5065
  177SLPC   H4Y20135   0.776   0.450   5.408  1.2935 -0.4463 -1.2827
  177SLPC   C3520136   0.804   0.635   5.306 -0.0185  0.5466 -0.1452
  177SLPC   H5X20137   0.848   0.735   5.327 -0.4675  0.9698 -1.1075
  177SLPC   H5Y20138   0.696   0.647   5.279 -0.0781  3.1593  1.0043
  177SLPC   C3620139   0.866   0.549   5.192 -0.0640  0.1728 -0.0337
  177SLPC   H6X20140   0.798   0.462   5.185  1.0970 -0.6911 -0.9343
  177SLPC   H6Y20141   0.968   0.522   5.226  0.9850  3.2160 -0.4107
  177SLPC   C3720142   0.867   0.638   5.066  0.2383  0.4541  0.2066
  177SLPC   H7X20143   0.944   0.717   5.082 -0.2125  0.8791  0.2786
  177SLPC   H7Y20144   0.767   0.682   5.046  0.0317 -0.4573 -0.8950
  177SLPC   C3820145   0.919   0.556   4.950  0.2880 -0.3281  0.5107
  177SLPC   H8X20146   0.848   0.477   4.918  0.8703 -0.4950 -0.3920
  177SLPC   H8Y20147   1.018   0.509   4.971  1.0371 -0.1961 -2.3064
  177SLPC   C3920148   0.932   0.651   4.832  0.3323  0.3233 -0.0219
  177SLPC   H9X20149   1.023   0.710   4.855  0.0418  0.4963  0.7148
  177SLPC   H9Y20150   0.843   0.717   4.839  0.0384 -0.0922  0.2808
  177SLPC  C31020151   0.931   0.584   4.696  0.3345  0.3254 -0.1108
  177SLPC  H10X20152   0.924   0.658   4.613  0.8977  0.8529  0.3136
  177SLPC  H10Y20153   0.829   0.539   4.697  0.7030 -0.5148  0.4493
  177SLPC  C31120154   1.035   0.479   4.665  0.2119 -0.1575  0.2404
  177SLPC  H11X20155   1.008   0.389   4.723 -0.0266 -0.5824 -0.5191
  177SLPC  H11Y20156   1.139   0.509   4.690 -0.6642  1.4357  2.2792
  177SLPC  C31220157   1.052   0.450   4.521 -0.0071  0.5140 -0.0333
  177SLPC  H12X20158   1.076   0.540   4.461 -1.8329 -0.8093 -2.9904
  177SLPC  H12Y20159   0.959   0.404   4.481 -0.0416 -0.1882  0.8404
  177SLPC  C31320160   1.165   0.345   4.499  0.2373 -0.0759  0.2757
  177SLPC  H13X20161   1.120   0.253   4.543  2.0632  0.0499  2.6426
  177SLPC  H13Y20162   1.256   0.360   4.562  0.4923 -1.9136  0.4248
  177SLPC  C31420163   1.207   0.335   4.355  0.5147  0.8111 -0.4664
  177SLPC  H14X20164   1.239   0.433   4.313  0.1544  0.4578 -1.6218
  177SLPC  H14Y20165   1.117   0.296   4.301  1.1759  0.4616 -1.3475
  177SLPC  C31520166   1.323   0.237   4.325  0.1061  0.2783 -0.5266
  177SLPC  H15X20167   1.295   0.132   4.347  3.5221 -1.3898 -3.1790
  177SLPC  H15Y20168   1.409   0.267   4.389  0.6686 -0.7791 -0.7629
  177SLPC  C31620169   1.394   0.248   4.191  0.5550 -0.6172  0.1026
  177SLPC  H16X20170   1.504   0.263   4.197  0.3783  0.3047  1.4587
  177SLPC  H16Y20171   1.350   0.337   4.141  2.1128  0.3659  0.4208
  177SLPC  C31720172   1.364   0.129   4.095 -0.2516 -0.0577  1.1312
  177SLPC  H17X20173   1.259   0.138   4.061  0.4273 -1.4711 -1.7303
  177SLPC  H17Y20174   1.378   0.027   4.138  1.0565 -0.7472 -0.7635
  177SLPC  C31820175   1.455   0.137   3.973 -0.2359  0.6445 -0.5058
  177SLPC  H18X20176   1.452   0.243   3.940  2.3620  0.5884 -1.1216
  177SLPC  H18Y20177   1.423   0.066   3.893 -0.3806  2.0545 -1.7481
  177SLPC  H18Z20178   1.559   0.099   3.983 -0.2249  0.6965 -0.4288
  178SLPC     N20179   5.873   4.856   6.371  0.0498 -0.4010 -0.0587
  178SLPC   C1320180   5.959   4.943   6.305  0.0612 -0.8264 -0.0005
  178SLPC  H13A20181   5.925   5.000   6.220  1.5859  1.7585  1.0334
  178SLPC  H13B20182   5.990   5.017   6.377  0.5926  0.1884 -1.2447
  178SLPC  H13C20183   6.041   4.890   6.258  0.2717 -1.5269  1.1080
  178SLPC   C1420184   5.825   4.755   6.266 -0.5658 -0.1285  0.0012
  178SLPC  H14A20185   5.776   4.677   6.322  3.6579 -2.0308  1.4362
  178SLPC  H14B20186   5.753   4.809   6.206 -0.4752  0.4597  0.4035
  178SLPC  H14C20187   5.906   4.716   6.207 -1.7835  1.9904 -3.3365
  178SLPC   C1520188   5.756   4.932   6.418 -0.7518 -0.0294  0.0467
  178SLPC  H15A20189   5.704   4.881   6.497  3.4443 -1.7159  2.0326
  178SLPC  H15B20190   5.796   5.027   6.450  0.1907 -0.4443  0.1172
  178SLPC  H15C20191   5.697   4.978   6.340 -0.7607 -0.8751 -0.4590
  178SLPC   C1220192   5.939   4.773   6.478  1.4756 -0.0525 -0.5737
  178SLPC  H12A20193   6.018   4.717   6.430  3.5629  1.8196  0.5517
  178SLPC  H12B20194   5.868   4.699   6.513  1.2422 -0.5286 -1.9824
  178SLPC   C1120195   5.999   4.847   6.606  0.3503  0.1866 -0.0748
  178SLPC  H11A20196   6.042   4.770   6.674 -1.0641  1.1478  2.0234
  178SLPC  H11B20197   5.910   4.885   6.661  0.0920 -0.8883  0.2609
  178SLPC     P20198   6.231   4.936   6.535 -0.1086 -0.5993  0.2448
  178SLPC   O1320199   6.279   5.072   6.499 -0.3413 -0.5918 -0.6934
  178SLPC   O1420200   6.292   4.867   6.649 -0.4598  0.0654 -0.0515
  178SLPC   O1220201   6.086   4.949   6.579  0.1055  0.5840 -0.5380
  178SLPC   O1120202   6.227   4.840   6.411  0.4992  0.0919  0.6491
  178SLPC    C120203   6.333   4.832   6.319 -0.1695  0.0782  0.4345
  178SLPC    HA20204   6.365   4.933   6.285 -0.2860 -0.3651 -1.0355
  178SLPC    HB20205   6.418   4.778   6.366 -1.3324 -1.6046  0.6881
  178SLPC    C220206   6.292   4.757   6.195 -0.3699  0.1749 -0.0252
  178SLPC    HS20207   6.384   4.717   6.145  1.7229  1.7211  2.3333
  178SLPC   O2120208   6.211   4.841   6.110  0.4904  0.5191 -0.2197
  178SLPC   C2120209   6.277   4.914   6.029 -0.6051 -0.5367 -0.6114
  178SLPC   O2220210   6.403   4.902   6.019 -0.0907 -0.0198 -0.4276
  178SLPC   C2220211   6.184   5.004   5.945 -0.7624 -0.3796 -0.0904
  178SLPC   H2R20212   6.158   4.959   5.847  0.1919  1.7236 -1.3745
  178SLPC   H2S20213   6.094   5.036   6.002  0.0031  0.2527  0.7904
  178SLPC    C320214   6.213   4.629   6.222 -0.8193 -0.5056 -0.1049
  178SLPC    HX20215   6.113   4.671   6.247 -0.1453  1.3325 -0.3211
  178SLPC    HY20216   6.257   4.574   6.308  2.0244  0.0586 -1.0876
  178SLPC   O3120217   6.227   4.539   6.103  0.4727 -0.0498 -0.0207
  178SLPC   C3120218   6.125   4.553   6.016  0.6631 -1.0443 -0.1018
  178SLPC   O3220219   6.024   4.620   6.039  0.0546 -0.2703  0.1427
  178SLPC   C3220220   6.152   4.466   5.897  0.1285  0.7167  0.3145
  178SLPC   H2X20221   6.104   4.369   5.922  0.1524  0.8468  0.8818
  178SLPC   H2Y20222   6.261   4.448   5.894 -0.1468 -1.2255  0.3070
  178SLPC   C2320223   6.247   5.135   5.897  0.0584 -0.0718 -0.0343
  178SLPC   H3R20224   6.348   5.114   5.857  0.0983  1.7023 -0.9206
  178SLPC   H3S20225   6.252   5.203   5.985 -0.5280 -0.4100  0.2682
  178SLPC   C2420226   6.174   5.191   5.781  0.1725 -0.3567 -0.1469
  178SLPC   H4R20227   6.074   5.221   5.819  0.7046 -1.2020  2.0310
  178SLPC   H4S20228   6.154   5.116   5.701  3.0247  0.2493 -1.5474
  178SLPC   C2520229   6.243   5.327   5.728  0.4779  0.4493 -0.5307
  178SLPC   H5R20230   6.270   5.379   5.822  2.1367 -2.6828  0.8854
  178SLPC   H5S20231   6.171   5.396   5.679 -1.9680 -2.1479 -0.8870
  178SLPC   C2620232   6.371   5.315   5.650 -0.6773  0.2546 -0.4013
  178SLPC   H6R20233   6.452   5.276   5.715 -0.8082  1.4910  0.5423
  178SLPC   H6S20234   6.406   5.415   5.617 -0.9895  1.0014  1.4004
  178SLPC   C2720235   6.358   5.217   5.530  0.3218 -0.2419  0.0570
  178SLPC   H7R20236   6.339   5.119   5.578  1.3724 -0.1287  0.7336
  178SLPC   H7S20237   6.461   5.217   5.488  0.3394  2.0909 -0.0163
  178SLPC   C2820238   6.246   5.259   5.429 -0.7536 -0.0304 -0.3400
  178SLPC   H8R20239   6.161   5.282   5.497 -1.2334 -0.4480 -0.7844
  178SLPC   H8S20240   6.238   5.160   5.379 -1.3905 -0.4978  0.6562
  178SLPC   C2920241   6.276   5.368   5.330  0.4127 -0.2423 -0.1764
  178SLPC   H9R20242   6.298   5.468   5.371 -0.0386 -0.3565  0.3647
  178SLPC  C21020243   6.253   5.367   5.198 -0.4743 -0.0195 -0.2676
  178SLPC  H10R20244   6.285   5.456   5.141  3.0180 -0.2945  1.0527
  178SLPC  C21120245   6.202   5.246   5.115  0.2467  0.5930 -0.7970
  178SLPC  H11R20246   6.188   5.291   5.015  1.5251 -0.6731 -1.5732
  178SLPC  H11S20247   6.101   5.229   5.160  0.9465  0.5228  0.8100
  178SLPC  C21220248   6.277   5.125   5.095 -0.4724  0.1628  0.0646
  178SLPC  H12R20249   6.378   5.130   5.138 -0.4093  2.3509 -0.2306
  178SLPC  C21320250   6.250   5.038   4.998  0.7357  0.3343 -0.8668
  178SLPC  H13R20251   6.324   4.958   4.980 -0.2902 -0.5187 -1.3522
  178SLPC  C21420252   6.128   5.020   4.902  0.1100 -1.2505 -0.6941
  178SLPC  H14R20253   6.064   5.109   4.884 -0.3380 -1.8192 -1.9960
  178SLPC  H14S20254   6.057   4.940   4.932 -1.9925  0.5442 -0.6151
  178SLPC  C21520255   6.188   4.960   4.773  0.3122 -0.2082  0.1213
  178SLPC  H15R20256   6.109   4.916   4.709  1.2753 -0.8724 -0.6414
  178SLPC  H15S20257   6.258   4.876   4.792 -0.0940 -0.3993  0.8000
  178SLPC  C21620258   6.268   5.058   4.693 -0.0290  0.0965 -0.1277
  178SLPC  H16R20259   6.375   5.027   4.689 -0.1636 -0.3595 -0.1916
  178SLPC  H16S20260   6.279   5.157   4.743 -0.0027  2.0908 -3.7112
  178SLPC  C21720261   6.226   5.068   4.546  0.8384 -0.5110  0.2088
  178SLPC  H17R20262   6.236   4.973   4.489  1.2337 -0.0030 -0.6050
  178SLPC  H17S20263   6.285   5.146   4.493  0.7423 -0.6593 -0.1200
  178SLPC  C21820264   6.072   5.111   4.533  0.2047  0.4413 -1.0242
  178SLPC  H18R20265   6.016   5.017   4.552 -1.6399  1.6197 -0.3171
  178SLPC  H18S20266   6.047   5.158   4.435 -0.7815 -0.4448 -1.2227
  178SLPC  H18T20267   6.058   5.186   4.613 -0.0263  0.1860 -0.8222
  178SLPC   C3320268   6.090   4.534   5.774 -0.1784 -0.2077  0.7792
  178SLPC   H3X20269   5.990   4.580   5.795  0.2114  1.8970 -1.4657
  178SLPC   H3Y20270   6.088   4.457   5.695 -4.1788  0.6870 -0.2330
  178SLPC   C3420271   6.186   4.649   5.715 -0.1243 -0.3425 -0.4664
  178SLPC   H4X20272   6.295   4.625   5.714  0.5773  2.4144  0.5203
  178SLPC   H4Y20273   6.185   4.738   5.782 -1.8691 -1.2323  0.7640
  178SLPC   C3520274   6.153   4.689   5.568 -0.8773 -0.4490 -0.0632
  178SLPC   H5X20275   6.044   4.707   5.557 -0.4420  1.0222 -2.7117
  178SLPC   H5Y20276   6.166   4.596   5.508  0.3614 -0.4662  0.1961
  178SLPC   C3620277   6.249   4.793   5.516 -0.0235 -0.3172  0.1497
  178SLPC   H6X20278   6.355   4.780   5.545 -0.2163 -0.8737  0.6251
  178SLPC   H6Y20279   6.217   4.879   5.579  2.0534  1.0262 -0.5281
  178SLPC   C3720280   6.240   4.827   5.366 -0.8775  0.1445  0.3398
  178SLPC   H7X20281   6.276   4.931   5.351 -1.1392  0.1177 -0.4991
  178SLPC   H7Y20282   6.137   4.818   5.326 -0.5874  1.0535 -0.6534
  178SLPC   C3820283   6.318   4.724   5.281 -1.3726  0.0580  0.2146
  178SLPC   H8X20284   6.283   4.720   5.176  0.5806  0.5190 -0.4856
  178SLPC   H8Y20285   6.310   4.625   5.330 -0.3880 -0.6034 -0.9319
  178SLPC   C3920286   6.467   4.767   5.273  0.3081  0.0338 -0.0623
  178SLPC   H9X20287   6.507   4.805   5.370  1.6753 -1.1550 -0.1315
  178SLPC   H9Y20288   6.467   4.846   5.195 -2.7363  1.3536  1.0961
  178SLPC  C31020289   6.555   4.647   5.242  0.4797 -0.5389 -0.2489
  178SLPC  H10X20290   6.558   4.586   5.335 -1.0103 -0.8571 -0.3825
  178SLPC  H10Y20291   6.655   4.694   5.236  0.7404 -0.5971  2.5003
  178SLPC  C31120292   6.517   4.578   5.112 -0.3731  0.5291  1.0774
  178SLPC  H11X20293   6.417   4.531   5.119 -1.7621  2.8293 -1.3244
  178SLPC  H11Y20294   6.598   4.504   5.091 -0.2159  1.3653 -1.7080
  178SLPC  C31220295   6.521   4.676   4.993  0.0730 -0.2992  0.1140
  178SLPC  H12X20296   6.608   4.745   5.003  0.2605 -0.3097 -1.2200
  178SLPC  H12Y20297   6.431   4.741   5.000 -1.3819 -2.1684 -0.3718
  178SLPC  C31320298   6.540   4.607   4.859  0.4490 -0.1219  0.0554
  178SLPC  H13X20299   6.449   4.550   4.829  1.5216 -1.1243 -1.4559
  178SLPC  H13Y20300   6.633   4.546   4.865 -0.3597 -1.3920  0.0741
  178SLPC  C31420301   6.543   4.689   4.733  0.5272 -0.1053  0.3579
  178SLPC  H14X20302   6.623   4.766   4.743 -0.7911  1.0934  2.4385
  178SLPC  H14Y20303   6.451   4.751   4.729 -0.4258 -1.2391  2.8451
  178SLPC  C31520304   6.568   4.609   4.602  0.7737 -0.3077 -1.0246
  178SLPC  H15X20305   6.479   4.546   4.582 -1.3938  2.5649 -1.1432
  178SLPC  H15Y20306   6.662   4.551   4.618  0.0649 -0.9263  1.2124
  178SLPC  C31620307   6.583   4.696   4.478  0.3975  0.6497  0.4638
  178SLPC  H16X20308   6.603   4.630   4.391 -1.3212  0.5579  0.1203
  178SLPC  H16Y20309   6.675   4.759   4.486  1.2465 -0.6303  1.1423
  178SLPC  C31720310   6.456   4.781   4.457 -0.2254 -0.4824  0.2520
  178SLPC  H17X20311   6.458   4.860   4.536  0.2865 -1.0934  0.8738
  178SLPC  H17Y20312   6.361   4.724   4.465 -0.2123 -0.6039 -0.4354
  178SLPC  C31820313   6.456   4.847   4.313 -0.5456  0.0644  0.1005
  178SLPC  H18X20314   6.475   4.772   4.233 -1.8451  0.2952 -0.4573
  178SLPC  H18Y20315   6.537   4.923   4.319  0.5206 -1.0008 -0.3972
  178SLPC  H18Z20316   6.356   4.895   4.304 -0.5869  0.1700  1.0242
  179SLPC     N20317   3.208   5.665   1.943 -0.2250 -0.1818 -0.7334
  179SLPC   C1320318   3.153   5.802   1.962 -0.3671 -0.9233 -0.1111
  179SLPC  H13A20319   3.045   5.798   1.963 -0.3975 -0.2243  1.1280
  179SLPC  H13B20320   3.192   5.839   2.056  2.4365 -0.7447 -1.2336
  179SLPC  H13C20321   3.177   5.859   1.874 -2.2234 -0.0869 -0.1242
  179SLPC   C1420322   3.352   5.657   1.910  0.0276  0.0315 -0.2087
  179SLPC  H14A20323   3.377   5.556   1.881  0.2181  0.1435 -0.4379
  179SLPC  H14B20324   3.385   5.726   1.834  1.9838  1.0962  1.4921
  179SLPC  H14C20325   3.416   5.671   1.996  2.9068 -0.4320 -2.1337
  179SLPC   C1520326   3.142   5.612   1.824 -0.4636 -0.0279 -0.3486
  179SLPC  H15A20327   3.175   5.512   1.804 -1.6464 -0.1428 -1.8805
  179SLPC  H15B20328   3.037   5.604   1.848 -0.3121  0.0295  0.3646
  179SLPC  H15C20329   3.173   5.675   1.742  0.0194 -0.5689 -0.5862
  179SLPC   C1220330   3.188   5.565   2.058 -0.5252  0.4915  0.2270
  179SLPC  H12A20331   3.255   5.482   2.038  0.8379  1.9720 -1.8076
  179SLPC  H12B20332   3.087   5.526   2.051 -0.5539  0.6640 -0.3220
  179SLPC   C1120333   3.215   5.605   2.205 -0.0322  0.0599  0.0692
  179SLPC  H11A20334   3.202   5.527   2.283  1.4938  1.3135  1.6483
  179SLPC  H11B20335   3.151   5.690   2.234 -0.0406  0.1649 -0.2509
  179SLPC     P20336   3.399   5.787   2.279  0.4549  0.4818 -0.1496
  179SLPC   O1320337   3.524   5.800   2.200 -0.4704  0.0509  0.1157
  179SLPC   O1420338   3.287   5.886   2.268 -0.0338  0.7653  0.4169
  179SLPC   O1220339   3.349   5.643   2.229  0.0991  0.1595  0.0404
  179SLPC   O1120340   3.439   5.765   2.426  0.0452  0.2672 -0.5821
  179SLPC    C120341   3.551   5.693   2.483  0.1322 -0.1007 -0.3054
  179SLPC    HA20342   3.642   5.715   2.424  0.8634 -0.1987  0.7526
  179SLPC    HB20343   3.574   5.734   2.584  1.2399 -0.2847 -0.4797
  179SLPC    C220344   3.526   5.543   2.499  0.4928  0.3448  0.4258
  179SLPC    HS20345   3.535   5.496   2.399 -1.5223 -3.6722  1.9040
  179SLPC   O2120346   3.390   5.522   2.530  0.5223  0.1089  0.5906
  179SLPC   C2120347   3.333   5.409   2.512  0.1179 -0.7256  0.1179
  179SLPC   O2220348   3.387   5.308   2.466 -0.3640 -0.7565 -0.2177
  179SLPC   C2220349   3.182   5.408   2.556 -0.5978  0.2916 -0.0244
  179SLPC   H2R20350   3.154   5.514   2.540 -0.1381  0.8223  2.3030
  179SLPC   H2S20351   3.130   5.336   2.490 -0.5717  0.5032 -0.2800
  179SLPC    C320352   3.630   5.466   2.582  0.0596 -0.4908 -0.9782
  179SLPC    HX20353   3.734   5.486   2.547  0.7334  2.3254  2.1555
  179SLPC    HY20354   3.608   5.358   2.570  1.0146 -0.7318 -0.7045
  179SLPC   O3120355   3.634   5.518   2.716  0.0472 -0.1302  0.2382
  179SLPC   C3120356   3.556   5.453   2.804  0.3483 -0.1583  0.4593
  179SLPC   O3220357   3.478   5.364   2.772  0.3032 -0.1986 -0.4474
  179SLPC   C3220358   3.588   5.511   2.945  0.1114 -0.8750 -0.9445
  179SLPC   H2X20359   3.549   5.615   2.955  3.8141  0.6932 -1.3856
  179SLPC   H2Y20360   3.698   5.525   2.954 -0.4314  3.8482  2.1120
  179SLPC   C2320361   3.156   5.372   2.704 -0.3535 -0.2381  0.4990
  179SLPC   H3R20362   3.175   5.461   2.767 -1.4125 -0.6084  1.3739
  179SLPC   H3S20363   3.226   5.294   2.741  0.1815 -0.5209 -1.0468
  179SLPC   C2420364   3.011   5.333   2.742 -0.7267  0.2326  0.7077
  179SLPC   H4R20365   2.993   5.230   2.704 -1.0396  0.6553 -0.3227
  179SLPC   H4S20366   2.939   5.401   2.692 -0.5248 -0.7028 -0.9035
  179SLPC   C2520367   2.997   5.326   2.896 -0.0989  0.5089 -1.0078
  179SLPC   H5R20368   3.068   5.402   2.935 -0.3509 -0.5400  1.7012
  179SLPC   H5S20369   3.043   5.231   2.931 -1.3868  0.2079 -0.0764
  179SLPC   C2620370   2.858   5.350   2.940  0.0886 -0.2647 -0.4490
  179SLPC   H6R20371   2.800   5.267   2.894 -0.8655 -0.1320  0.4810
  179SLPC   H6S20372   2.808   5.445   2.910 -0.4598 -0.4652 -0.1712
  179SLPC   C2720373   2.834   5.323   3.092  0.0734 -0.1630  0.3388
  179SLPC   H7R20374   2.912   5.385   3.141  0.5464  0.9944 -1.7200
  179SLPC   H7S20375   2.854   5.215   3.110  0.5916 -0.2166 -0.4686
  179SLPC   C2820376   2.696   5.355   3.147 -0.2920 -0.4287 -0.2755
  179SLPC   H8R20377   2.676   5.461   3.121 -0.4298  0.3079  2.4964
  179SLPC   H8S20378   2.714   5.346   3.257  0.9084  1.9034 -0.1996
  179SLPC   C2920379   2.592   5.251   3.097 -0.5430  0.2277  0.5292
  179SLPC   H9R20380   2.581   5.264   2.988  1.9413 -0.2436  0.1692
  179SLPC  C21020381   2.538   5.149   3.164  0.4404  0.1419  0.0147
  179SLPC  H10R20382   2.459   5.103   3.103 -0.2383  1.0104  0.2249
  179SLPC  C21120383   2.548   5.098   3.305  0.2845  0.4979 -0.1534
  179SLPC  H11R20384   2.471   5.020   3.321 -0.7250  0.7873 -3.0598
  179SLPC  H11S20385   2.513   5.174   3.378 -1.0081  0.0120 -0.2543
  179SLPC  C21220386   2.696   5.052   3.339  0.2302  0.2779 -0.2022
  179SLPC  H12R20387   2.777   5.107   3.288  1.5993 -1.1433  0.3666
  179SLPC  C21320388   2.717   4.979   3.448 -0.0571 -0.0119 -0.3902
  179SLPC  H13R20389   2.817   4.940   3.471 -0.9242 -2.2770 -0.1418
  179SLPC  C21420390   2.603   4.917   3.538 -0.1167 -0.1445  0.1658
  179SLPC  H14R20391   2.612   4.806   3.531 -1.0710 -0.1392 -1.6864
  179SLPC  H14S20392   2.497   4.923   3.504 -0.4406 -1.4229  0.8548
  179SLPC  C21520393   2.623   4.978   3.679  0.0331 -0.3412  0.0636
  179SLPC  H15R20394   2.531   4.945   3.733  0.2942 -0.7890  0.2455
  179SLPC  H15S20395   2.627   5.089   3.670  0.2238 -0.3229  0.3582
  179SLPC  C21620396   2.744   4.930   3.757 -0.1941 -0.6253  0.4178
  179SLPC  H16R20397   2.834   4.991   3.736 -1.5177  1.0358 -0.6611
  179SLPC  H16S20398   2.777   4.826   3.735  1.3572 -0.2481  0.8489
  179SLPC  C21720399   2.723   4.945   3.905  0.4929  0.9104  0.4426
  179SLPC  H17R20400   2.635   4.880   3.926  0.5485 -0.0694 -2.0348
  179SLPC  H17S20401   2.683   5.044   3.933  1.7753  1.1397  1.5749
  179SLPC  C21820402   2.844   4.896   3.982 -0.4209  0.6693  0.0589
  179SLPC  H18R20403   2.845   4.944   4.082  2.6726 -0.6499  0.7779
  179SLPC  H18S20404   2.934   4.929   3.925 -0.7175 -0.2310 -0.9444
  179SLPC  H18T20405   2.850   4.786   3.993 -2.9998  0.5569  0.8238
  179SLPC   C3320406   3.532   5.426   3.060  0.5486  0.1854 -0.2113
  179SLPC   H3X20407   3.520   5.321   3.025  2.7431 -0.4441  0.7328
  179SLPC   H3Y20408   3.430   5.463   3.087 -0.7424 -2.3302 -1.2641
  179SLPC   C3420409   3.635   5.432   3.180  0.4952 -0.2163  0.1497
  179SLPC   H4X20410   3.671   5.536   3.189  1.1545 -0.1256 -2.5935
  179SLPC   H4Y20411   3.723   5.367   3.156  0.1300 -1.1757  1.2882
  179SLPC   C3520412   3.572   5.378   3.305  0.1407  0.3192  0.1115
  179SLPC   H5X20413   3.462   5.392   3.293  0.4976  1.3465 -2.5711
  179SLPC   H5Y20414   3.602   5.271   3.302 -3.6961 -0.9410  0.9935
  179SLPC   C3620415   3.614   5.449   3.432 -0.0157 -0.0829  0.3593
  179SLPC   H6X20416   3.612   5.560   3.425  0.8548  0.1219  2.5498
  179SLPC   H6Y20417   3.717   5.430   3.468  0.3343  2.7542  1.1248
  179SLPC   C3720418   3.525   5.411   3.550 -0.1991 -0.1361 -0.4942
  179SLPC   H7X20419   3.518   5.300   3.556 -2.5257  0.0243  1.3741
  179SLPC   H7Y20420   3.422   5.446   3.526 -2.1130 -2.0024  3.8124
  179SLPC   C3820421   3.566   5.480   3.678 -0.2372 -0.3592  0.1245
  179SLPC   H8X20422   3.567   5.588   3.652  1.1525 -0.3671  0.0449
  179SLPC   H8Y20423   3.669   5.443   3.700  0.0525 -0.3466 -1.1027
  179SLPC   C3920424   3.472   5.454   3.796 -0.1015  0.2436  0.9900
  179SLPC   H9X20425   3.477   5.346   3.824  0.5111 -0.1301 -0.4658
  179SLPC   H9Y20426   3.370   5.467   3.755  0.5524 -1.6173 -1.5045
  179SLPC  C31020427   3.481   5.557   3.912  0.3904 -0.4015 -0.5656
  179SLPC  H10X20428   3.426   5.648   3.881  3.1580  1.7233  0.3185
  179SLPC  H10Y20429   3.585   5.595   3.922 -0.6176  2.4014  0.2347
  179SLPC  C31120430   3.436   5.487   4.042  0.1448 -0.2584  0.9837
  179SLPC  H11X20431   3.481   5.387   4.055 -2.7405 -1.7471  0.3574
  179SLPC  H11Y20432   3.325   5.481   4.039 -0.1344  3.1311  0.2720
  179SLPC  C31220433   3.480   5.575   4.160  0.3392  0.3874  0.1763
  179SLPC  H12X20434   3.431   5.674   4.151 -1.2278 -0.3924 -0.3281
  179SLPC  H12Y20435   3.590   5.584   4.152  0.3285 -0.5461 -1.5012
  179SLPC  C31320436   3.443   5.520   4.302  0.2942  0.1004  0.2265
  179SLPC  H13X20437   3.334   5.500   4.301  0.0624  1.0115 -2.7943
  179SLPC  H13Y20438   3.470   5.604   4.371 -0.0034  2.2854 -2.1459
  179SLPC  C31420439   3.507   5.385   4.330 -0.6369  0.5638 -0.0004
  179SLPC  H14X20440   3.617   5.394   4.317 -0.7028  1.6770  0.1098
  179SLPC  H14Y20441   3.484   5.297   4.267 -2.3014  0.7641  0.2730
  179SLPC  C31520442   3.467   5.338   4.470  0.3293 -0.4932 -0.2658
  179SLPC  H15X20443   3.358   5.358   4.473  0.4054 -0.0670 -0.2572
  179SLPC  H15Y20444   3.506   5.415   4.540  0.7596  0.2791 -1.3189
  179SLPC  C31620445   3.515   5.203   4.518  0.0256  0.1252 -0.1462
  179SLPC  H16X20446   3.494   5.192   4.626 -0.8369 -0.6115 -0.3738
  179SLPC  H16Y20447   3.625   5.199   4.501 -0.0731  1.6089 -1.3271
  179SLPC  C31720448   3.449   5.083   4.454  0.0772  0.6218 -0.3897
  179SLPC  H17X20449   3.464   5.094   4.345  1.2868  1.9533 -0.1065
  179SLPC  H17Y20450   3.342   5.086   4.483  0.5724  2.0747  1.4516
  179SLPC  C31820451   3.497   4.952   4.513 -0.0500  0.2662  0.1900
  179SLPC  H18X20452   3.607   4.958   4.531 -0.1100  0.0564  0.6228
  179SLPC  H18Y20453   3.479   4.866   4.445 -1.1493 -0.0486  0.8591
  179SLPC  H18Z20454   3.454   4.940   4.615  0.2374  0.5766  0.3507
  180SLPC     N20455   2.081   3.578   2.300 -0.0451 -0.4128 -0.6496
  180SLPC   C1320456   2.046   3.487   2.188 -0.5553  0.5107  0.4699
  180SLPC  H13A20457   1.954   3.436   2.216 -0.7776  1.2955  1.2240
  180SLPC  H13B20458   2.017   3.533   2.095  0.0953 -0.2858 -0.1431
  180SLPC  H13C20459   2.121   3.412   2.169  1.9028  2.5191  1.6126
  180SLPC   C1420460   1.982   3.689   2.302  0.7838  0.0721  0.4599
  180SLPC  H14A20461   1.886   3.665   2.345  0.4985  2.8621  1.6179
  180SLPC  H14B20462   2.008   3.765   2.375  0.8364  0.0159  0.4999
  180SLPC  H14C20463   1.964   3.738   2.208 -2.1269 -0.5643  0.5759
  180SLPC   C1520464   2.214   3.645   2.289  0.3102 -0.3013 -0.1085
  180SLPC  H15A20465   2.229   3.683   2.190 -1.9223  1.5378  0.1804
  180SLPC  H15B20466   2.223   3.731   2.354  2.6847  0.1911 -0.9798
  180SLPC  H15C20467   2.286   3.569   2.318 -1.5111 -1.1495  2.7010
  180SLPC   C1220468   2.080   3.502   2.435 -0.3741 -0.3567 -0.1064
  180SLPC  H12A20469   2.128   3.565   2.508 -0.9121  1.6521 -1.4347
  180SLPC  H12B20470   2.142   3.413   2.430 -1.5020 -1.1798 -0.0026
  180SLPC   C1120471   1.942   3.436   2.481 -0.2978 -0.2126 -0.1478
  180SLPC  H11A20472   1.873   3.519   2.504 -0.1859  0.0134 -0.6293
  180SLPC  H11B20473   1.961   3.370   2.569 -2.1972 -0.8454 -0.1777
  180SLPC     P20474   1.733   3.362   2.337 -0.1009  0.4648 -0.1457
  180SLPC   O1320475   1.706   3.494   2.282  0.8711  0.3294 -0.1908
  180SLPC   O1420476   1.707   3.250   2.244 -0.4530 -0.1955  0.2975
  180SLPC   O1220477   1.882   3.352   2.381 -0.2155 -0.0239 -0.6219
  180SLPC   O1120478   1.660   3.355   2.474 -0.4131  0.0369 -0.1792
  180SLPC    C120479   1.645   3.226   2.534  0.3179 -0.0320  0.1025
  180SLPC    HA20480   1.538   3.220   2.563  0.2014  1.4451  0.0598
  180SLPC    HB20481   1.675   3.139   2.472 -1.3260 -1.4122  1.1304
  180SLPC    C220482   1.718   3.230   2.668  1.0284 -0.5892 -0.1584
  180SLPC    HS20483   1.827   3.243   2.648  1.1995 -1.7279 -0.0054
  180SLPC   O2120484   1.686   3.109   2.740 -0.1295  0.3828  0.0350
  180SLPC   C2120485   1.785   3.018   2.760 -0.3997  0.7925  0.1610
  180SLPC   O2220486   1.900   3.029   2.727 -0.1726 -0.1994  0.5596
  180SLPC   C2220487   1.732   2.885   2.809 -0.0491  0.8026 -0.2974
  180SLPC   H2R20488   1.621   2.886   2.811 -0.2290  0.4808 -3.8477
  180SLPC   H2S20489   1.758   2.806   2.734 -0.6663  1.5708 -1.3494
  180SLPC    C320490   1.666   3.356   2.750 -0.0502  1.0595 -0.6783
  180SLPC    HX20491   1.555   3.355   2.749 -0.0822 -1.0464  0.2048
  180SLPC    HY20492   1.707   3.447   2.701  1.0638  1.1683  0.4068
  180SLPC   O3120493   1.704   3.349   2.895  0.8729 -0.8931 -0.1670
  180SLPC   C3120494   1.826   3.390   2.926  0.5390 -0.1575 -0.3559
  180SLPC   O3220495   1.913   3.421   2.847 -0.1695  0.7145  0.2804
  180SLPC   C3220496   1.835   3.368   3.068 -0.2491 -0.2943 -0.0488
  180SLPC   H2X20497   1.815   3.264   3.101  0.3708  0.1834  1.9654
  180SLPC   H2Y20498   1.761   3.435   3.115  2.6164  3.3520 -0.2685
  180SLPC   C2320499   1.796   2.838   2.941  0.0704  0.2993  0.0250
  180SLPC   H3R20500   1.907   2.839   2.942  0.0973  0.2921  2.2082
  180SLPC   H3S20501   1.760   2.739   2.977  0.7616  0.8142  2.3468
  180SLPC   C2420502   1.767   2.936   3.055  0.1754  1.0430  0.0521
  180SLPC   H4R20503   1.657   2.949   3.052  0.0634  0.6623  1.8034
  180SLPC   H4S20504   1.817   3.035   3.044 -0.6955  1.5758  0.8312
  180SLPC   C2520505   1.807   2.884   3.188  0.8055  0.3451  0.3953
  180SLPC   H5R20506   1.916   2.881   3.204  0.7810 -1.8749  0.3519
  180SLPC   H5S20507   1.777   2.778   3.204 -0.4342  0.8734  1.8636
  180SLPC   C2620508   1.730   2.959   3.298  0.2518  0.1405  0.3397
  180SLPC   H6R20509   1.702   2.895   3.385  1.5896 -0.8074  0.1092
  180SLPC   H6S20510   1.633   2.993   3.257  0.7448 -1.1817 -2.0995
  180SLPC   C2720511   1.810   3.075   3.359 -0.5493 -0.0993 -0.0172
  180SLPC   H7R20512   1.755   3.170   3.340 -0.1550  0.4702  1.5032
  180SLPC   H7S20513   1.900   3.073   3.295 -0.4102 -0.2084  0.1823
  180SLPC   C2820514   1.837   3.058   3.505 -0.3983 -0.4831  0.1846
  180SLPC   H8R20515   1.740   3.048   3.559 -2.1364  1.3846 -2.4045
  180SLPC   H8S20516   1.873   3.158   3.536 -1.7787  0.0309  0.1570
  180SLPC   C2920517   1.943   2.950   3.533 -0.5534  0.2269  0.0403
  180SLPC   H9R20518   1.914   2.851   3.495 -0.5752  0.0233  0.5699
  180SLPC  C21020519   2.060   2.966   3.586  0.3278  1.2457 -0.4970
  180SLPC  H10R20520   2.127   2.881   3.601 -1.2110 -0.4553 -2.7055
  180SLPC  C21120521   2.122   3.080   3.657  0.2374  0.3239 -0.7106
  180SLPC  H11R20522   2.069   3.174   3.633  0.7211  0.2641 -2.1188
  180SLPC  H11S20523   2.215   3.100   3.599 -0.0997  2.2583 -0.6562
  180SLPC  C21220524   2.152   3.061   3.806 -0.2279  0.0614  0.0014
  180SLPC  H12R20525   2.251   3.015   3.822 -1.6957 -3.0776  0.9198
  180SLPC  C21320526   2.071   3.080   3.908 -0.1618 -0.6452 -0.0805
  180SLPC  H13R20527   2.104   3.068   4.012 -0.1318 -0.4868 -0.0722
  180SLPC  C21420528   1.925   3.131   3.911  0.0406  0.3407 -0.1983
  180SLPC  H14R20529   1.867   3.077   3.989 -1.2608  0.2160 -1.2209
  180SLPC  H14S20530   1.874   3.118   3.813  2.5213 -1.0831 -1.3875
  180SLPC  C21520531   1.915   3.281   3.941 -0.3859 -0.8248 -0.0936
  180SLPC  H15R20532   1.812   3.314   3.915  0.0544 -1.1602 -2.5248
  180SLPC  H15S20533   1.981   3.327   3.864 -0.8835  0.0178 -0.0353
  180SLPC  C21620534   1.948   3.319   4.086 -0.9168 -0.4597 -0.3201
  180SLPC  H16R20535   2.034   3.264   4.129 -0.6350  0.9160  0.9386
  180SLPC  H16S20536   1.856   3.283   4.136 -0.3758 -2.6403 -0.7983
  180SLPC  C21720537   1.953   3.472   4.101  0.6042  0.1805 -0.2141
  180SLPC  H17R20538   1.985   3.494   4.205 -1.2221 -1.0743  0.6713
  180SLPC  H17S20539   1.848   3.510   4.096  0.2868 -0.7921 -1.5676
  180SLPC  C21820540   2.046   3.548   4.016  0.1273  0.2377 -0.0883
  180SLPC  H18R20541   2.018   3.521   3.911 -1.1317  0.9496  0.0355
  180SLPC  H18S20542   2.152   3.528   4.041 -0.1125 -0.3293  0.5150
  180SLPC  H18T20543   2.018   3.654   4.033 -1.4951 -0.2826  0.7333
  180SLPC   C3320544   1.967   3.434   3.120 -0.4199 -0.0510 -0.2331
  180SLPC   H3X20545   1.981   3.538   3.084 -0.7542 -0.9677 -3.2890
  180SLPC   H3Y20546   2.062   3.389   3.083 -1.0944 -1.3217 -0.4617
  180SLPC   C3420547   1.975   3.423   3.273 -0.2162  0.0307 -0.4856
  180SLPC   H4X20548   1.969   3.315   3.299 -0.2635  0.3109  0.7511
  180SLPC   H4Y20549   1.891   3.475   3.324 -0.0173 -0.7796  0.7327
  180SLPC   C3520550   2.108   3.482   3.337  0.5993 -0.5650 -0.2448
  180SLPC   H5X20551   2.113   3.591   3.317 -1.9343  0.0194  1.6869
  180SLPC   H5Y20552   2.187   3.427   3.282 -0.9038 -2.0018 -1.0697
  180SLPC   C3620553   2.116   3.461   3.487  0.5053  0.5310 -0.0634
  180SLPC   H6X20554   2.112   3.352   3.510 -0.3610  0.1500 -1.8130
  180SLPC   H6Y20555   2.020   3.496   3.531  0.2429 -0.3930  0.1198
  180SLPC   C3720556   2.241   3.516   3.555 -0.0610  0.2350  0.2804
  180SLPC   H7X20557   2.227   3.626   3.566 -0.4732  0.2065  0.0647
  180SLPC   H7Y20558   2.324   3.507   3.482  0.6484  0.6146  1.0219
  180SLPC   C3820559   2.267   3.448   3.694 -0.0205 -0.0295  0.6689
  180SLPC   H8X20560   2.283   3.344   3.657  1.6025  0.6980 -0.7814
  180SLPC   H8Y20561   2.171   3.454   3.750  0.7262 -1.1612  2.1438
  180SLPC   C3920562   2.377   3.508   3.775 -0.8879  0.1421 -0.0529
  180SLPC   H9X20563   2.344   3.567   3.863 -3.4628 -1.2479  0.0116
  180SLPC   H9Y20564   2.447   3.576   3.722  0.8551  0.6479  2.6892
  180SLPC  C31020565   2.471   3.402   3.842  0.1819 -0.1088  0.2464
  180SLPC  H10X20566   2.566   3.447   3.875  1.4228 -0.5404 -2.4828
  180SLPC  H10Y20567   2.510   3.333   3.764  0.4872  0.4295 -0.0763
  180SLPC  C31120568   2.404   3.327   3.958  1.4722  0.3044  0.2583
  180SLPC  H11X20569   2.351   3.239   3.915 -1.0713  0.6832  2.3859
  180SLPC  H11Y20570   2.327   3.388   4.009 -0.4369 -2.6003  1.1144
  180SLPC  C31220571   2.507   3.273   4.053 -0.6842 -0.2700  0.3090
  180SLPC  H12X20572   2.585   3.340   4.094 -0.0052 -1.4469  1.0004
  180SLPC  H12Y20573   2.578   3.222   3.984  0.9464  1.3841  0.6827
  180SLPC  C31320574   2.458   3.184   4.172  0.0003 -0.2533  0.1579
  180SLPC  H13X20575   2.538   3.111   4.195  0.4236  0.3041  0.4823
  180SLPC  H13Y20576   2.371   3.121   4.142 -0.9548 -0.0613  2.3243
  180SLPC  C31420577   2.441   3.259   4.304 -0.0182  0.1851 -0.6173
  180SLPC  H14X20578   2.388   3.354   4.284  1.0819  0.3114 -3.4668
  180SLPC  H14Y20579   2.547   3.282   4.329  0.4419 -2.2541 -0.0299
  180SLPC  C31520580   2.367   3.174   4.403 -0.3768 -0.4248 -0.4486
  180SLPC  H15X20581   2.379   3.231   4.498  0.5464  1.2567 -1.5163
  180SLPC  H15Y20582   2.433   3.085   4.408  2.4810  1.5916  0.0097
  180SLPC  C31620583   2.227   3.141   4.371 -0.1345 -0.7309 -0.1768
  180SLPC  H16X20584   2.217   3.066   4.289  1.0545  0.1557 -1.1747
  180SLPC  H16Y20585   2.168   3.232   4.346 -1.1944 -1.6944 -1.2942
  180SLPC  C31720586   2.163   3.085   4.496 -0.1279 -0.4022 -0.3959
  180SLPC  H17X20587   2.167   3.158   4.579  0.5641 -0.6936 -0.1642
  180SLPC  H17Y20588   2.225   2.996   4.522  1.0053  0.7172  0.8660
  180SLPC  C31820589   2.015   3.055   4.468 -0.0922 -0.4059 -0.1981
  180SLPC  H18X20590   2.007   2.983   4.384 -0.0135  0.9633 -1.4087
  180SLPC  H18Y20591   1.951   3.140   4.439  0.9885  1.1303  1.6401
  180SLPC  H18Z20592   1.962   3.015   4.557 -1.8972 -0.5277 -1.2956
  181SLPC     N20593   1.814   5.790   2.220 -0.4791 -0.6999 -0.4995
  181SLPC   C1320594   1.926   5.808   2.323  0.0753  0.0930  0.4555
  181SLPC  H13A20595   1.933   5.915   2.340 -0.8216  0.2865 -0.2874
  181SLPC  H13B20596   1.892   5.767   2.417 -2.0000  0.2295 -0.1839
  181SLPC  H13C20597   2.023   5.772   2.291 -0.5903  0.5518 -2.3783
  181SLPC   C1420598   1.836   5.887   2.106 -0.2431 -0.0568 -0.0381
  181SLPC  H14A20599   1.794   5.984   2.125 -0.2890 -0.0344 -0.2497
  181SLPC  H14B20600   1.941   5.895   2.080  0.0446  2.5593  1.5618
  181SLPC  H14C20601   1.787   5.853   2.016 -0.0527  0.7577 -0.4561
  181SLPC   C1520602   1.682   5.819   2.284 -0.0752  0.1914  0.4178
  181SLPC  H15A20603   1.662   5.750   2.365  0.6911  0.3174  0.7273
  181SLPC  H15B20604   1.688   5.916   2.331  2.1858 -0.2527  1.1759
  181SLPC  H15C20605   1.609   5.813   2.204 -0.1776  0.6048  0.4798
  181SLPC   C1220606   1.808   5.648   2.173 -0.0033  0.7462  0.1909
  181SLPC  H12A20607   1.714   5.623   2.125  0.2144 -1.5185  0.8072
  181SLPC  H12B20608   1.817   5.579   2.255 -0.4141 -1.9073 -1.8532
  181SLPC   C1120609   1.918   5.606   2.071 -0.1014 -0.0825  0.6494
  181SLPC  H11A20610   2.020   5.646   2.089  0.3882 -0.5559 -0.9130
  181SLPC  H11B20611   1.898   5.653   1.972 -0.1761 -1.6938 -0.1337
  181SLPC     P20612   2.010   5.362   2.139 -0.0327  0.3580 -0.5465
  181SLPC   O1320613   2.021   5.244   2.048 -0.8294  0.0139 -0.2514
  181SLPC   O1420614   2.138   5.417   2.184 -0.1064  0.5183  0.7693
  181SLPC   O1220615   1.918   5.467   2.065 -0.3814 -0.0498 -0.3635
  181SLPC   O1120616   1.928   5.312   2.268 -0.1047  0.5938 -0.4742
  181SLPC    C120617   1.805   5.244   2.231  0.0071  0.0206 -0.1879
  181SLPC    HA20618   1.721   5.316   2.220  1.1362  1.4821  0.3627
  181SLPC    HB20619   1.806   5.197   2.131 -0.6837  1.3084 -0.8251
  181SLPC    C220620   1.767   5.134   2.338  0.2006 -0.6840 -0.4718
  181SLPC    HS20621   1.669   5.101   2.297  0.4006 -0.3798 -1.2037
  181SLPC   O2120622   1.767   5.185   2.478 -0.3755 -0.4322  0.6489
  181SLPC   C2120623   1.672   5.274   2.500  0.5547  0.3145 -0.1475
  181SLPC   O2220624   1.584   5.306   2.421 -0.0059 -0.1639  0.0834
  181SLPC   C2220625   1.692   5.332   2.640  0.2935 -0.0520  1.0407
  181SLPC   H2R20626   1.778   5.402   2.644  1.3960 -1.2885  0.0584
  181SLPC   H2S20627   1.608   5.402   2.659 -1.0650 -1.4730  0.4764
  181SLPC    C320628   1.861   5.013   2.334 -0.1417 -0.3871 -0.0689
  181SLPC    HX20629   1.967   5.045   2.341 -0.7540  1.7138  0.0770
  181SLPC    HY20630   1.864   4.973   2.230 -0.1269 -0.1670 -0.1535
  181SLPC   O3120631   1.827   4.909   2.422  0.1071 -0.4007 -0.4398
  181SLPC   C3120632   1.903   4.920   2.537  0.6591  0.2161 -0.6051
  181SLPC   O3220633   1.991   5.000   2.552 -0.1184 -0.3188  0.4516
  181SLPC   C3220634   1.860   4.813   2.643 -0.2794  0.2517 -0.3774
  181SLPC   H2X20635   1.848   4.714   2.593  1.1639  0.2179 -0.7045
  181SLPC   H2Y20636   1.753   4.837   2.663 -0.1235 -1.3135  2.9974
  181SLPC   C2320637   1.705   5.230   2.755  0.1045 -0.0593  0.1540
  181SLPC   H3R20638   1.809   5.190   2.748  0.0349 -0.3461  0.7332
  181SLPC   H3S20639   1.631   5.148   2.748 -1.2072  0.9126  1.9319
  181SLPC   C2420640   1.693   5.313   2.889  0.1880 -0.4342  0.0278
  181SLPC   H4R20641   1.595   5.366   2.888  0.6658  0.5216 -2.1767
  181SLPC   H4S20642   1.772   5.392   2.894 -0.7366  0.5582 -0.5504
  181SLPC   C2520643   1.708   5.228   3.019 -0.0933  0.6416 -0.1170
  181SLPC   H5R20644   1.812   5.194   3.038  0.4994  2.6564  0.5637
  181SLPC   H5S20645   1.642   5.139   3.016 -0.7365  1.1362 -1.6633
  181SLPC   C2620646   1.671   5.312   3.145  0.9513 -0.2473 -0.8254
  181SLPC   H6R20647   1.577   5.370   3.140  0.6971 -0.5117  0.4290
  181SLPC   H6S20648   1.753   5.387   3.154  1.9096 -1.0204 -2.5803
  181SLPC   C2720649   1.649   5.222   3.273  0.0402  0.4297  0.5246
  181SLPC   H7R20650   1.743   5.170   3.300  0.4853  1.7692  1.6640
  181SLPC   H7S20651   1.578   5.139   3.251  0.0217  0.5709  0.0421
  181SLPC   C2820652   1.626   5.305   3.398  0.4336 -0.2380 -0.7977
  181SLPC   H8R20653   1.572   5.246   3.475  0.4089  2.9949  1.8950
  181SLPC   H8S20654   1.548   5.383   3.384 -0.1953 -0.4891  1.0230
  181SLPC   C2920655   1.749   5.379   3.446 -0.8606 -0.0005  0.6999
  181SLPC   H9R20656   1.804   5.430   3.366 -1.8197  1.6834  1.0800
  181SLPC  C21020657   1.796   5.365   3.574 -0.4278  0.5111  0.1247
  181SLPC  H10R20658   1.882   5.423   3.612 -1.0288  3.3918 -2.4572
  181SLPC  C21120659   1.715   5.298   3.684  0.4333  0.3063 -0.2832
  181SLPC  H11R20660   1.708   5.188   3.673  0.7528  0.4056 -1.7172
  181SLPC  H11S20661   1.609   5.330   3.675 -0.2925 -1.7130  0.5936
  181SLPC  C21220662   1.755   5.345   3.823  1.0377 -0.0705  0.4608
  181SLPC  H12R20663   1.772   5.453   3.829  1.4463 -0.0385 -0.8247
  181SLPC  C21320664   1.775   5.276   3.935  0.4302  0.7241 -0.2718
  181SLPC  H13R20665   1.801   5.331   4.026 -1.5098  2.3534 -0.6323
  181SLPC  C21420666   1.757   5.123   3.938  0.0537  0.0278 -0.3242
  181SLPC  H14R20667   1.713   5.080   3.845 -0.3457 -1.0601  0.3427
  181SLPC  H14S20668   1.695   5.080   4.020  1.0441 -4.6821 -1.7675
  181SLPC  C21520669   1.885   5.048   3.967  0.1244 -0.0972  1.0856
  181SLPC  H15R20670   1.957   5.076   3.887  1.6502 -1.0266  2.0792
  181SLPC  H15S20671   1.852   4.945   3.942  0.6741 -0.6877  2.7003
  181SLPC  C21620672   1.942   5.057   4.109  0.2093 -0.1069 -0.3399
  181SLPC  H16R20673   1.897   5.143   4.165  1.1388  0.6393 -0.7054
  181SLPC  H16S20674   2.049   5.082   4.092  0.3737  0.4915  1.4501
  181SLPC  C21720675   1.926   4.932   4.200 -0.0382  0.3036  0.2369
  181SLPC  H17R20676   1.962   4.844   4.143 -1.4099 -0.8119  1.0062
  181SLPC  H17S20677   1.819   4.905   4.213  0.4532 -1.6609  0.5766
  181SLPC  C21820678   1.996   4.942   4.337 -0.0770 -0.1651  0.1907
  181SLPC  H18R20679   1.955   5.028   4.394 -0.0805 -0.9712  1.4484
  181SLPC  H18S20680   2.105   4.957   4.324 -0.3734  1.5662 -0.5837
  181SLPC  H18T20681   1.969   4.857   4.403 -1.7109 -0.6204 -0.9846
  181SLPC   C3320682   1.935   4.803   2.776  0.2363 -0.3346 -0.0443
  181SLPC   H3X20683   2.038   4.844   2.767  0.3729 -0.4901  0.7218
  181SLPC   H3Y20684   1.958   4.696   2.793 -0.6848 -0.4910  0.2779
  181SLPC   C3420685   1.865   4.870   2.895  0.6694  0.3950 -0.0383
  181SLPC   H4X20686   1.807   4.954   2.853 -2.9044 -2.2189 -0.8152
  181SLPC   H4Y20687   1.938   4.920   2.962 -0.2586  0.9006  0.6103
  181SLPC   C3520688   1.774   4.780   2.984 -0.4002  0.6249  0.1159
  181SLPC   H5X20689   1.832   4.694   3.025 -1.7415 -0.0156  0.7366
  181SLPC   H5Y20690   1.688   4.732   2.931 -0.6781  1.9352 -0.6737
  181SLPC   C3620691   1.713   4.856   3.108 -0.4170  0.3988 -0.0176
  181SLPC   H6X20692   1.626   4.916   3.074 -1.2801 -1.3141 -1.0120
  181SLPC   H6Y20693   1.777   4.933   3.155 -1.0021  0.4663  0.6981
  181SLPC   C3720694   1.669   4.768   3.220  0.4955  0.0063 -0.4836
  181SLPC   H7X20695   1.752   4.697   3.243  0.1129 -0.0647  0.7350
  181SLPC   H7Y20696   1.578   4.714   3.186 -0.3685  1.2697 -0.2258
  181SLPC   C3820697   1.637   4.835   3.353  0.8873  0.1562 -0.4366
  181SLPC   H8X20698   1.582   4.930   3.336 -0.2326 -0.5829 -1.0595
  181SLPC   H8Y20699   1.734   4.860   3.402  0.3805 -1.5711  1.5786
  181SLPC   C3920700   1.589   4.740   3.459  0.1196 -0.6486 -0.6785
  181SLPC   H9X20701   1.643   4.643   3.468 -0.4091 -1.0819 -1.9280
  181SLPC   H9Y20702   1.486   4.707   3.434 -0.7907  2.6022 -1.6959
  181SLPC  C31020703   1.578   4.816   3.589 -0.2652  0.0093  1.1323
  181SLPC  H10X20704   1.516   4.908   3.580  2.2534  1.7950  0.8105
  181SLPC  H10Y20705   1.677   4.860   3.614 -0.7176  0.9409  1.3262
  181SLPC  C31120706   1.539   4.724   3.704 -0.2038  0.3466  0.4190
  181SLPC  H11X20707   1.638   4.677   3.721  0.4115  0.4521 -2.3156
  181SLPC  H11Y20708   1.474   4.641   3.669 -1.0251  1.8678 -1.9459
  181SLPC  C31220709   1.492   4.801   3.827  0.2277 -0.8699 -0.0461
  181SLPC  H12X20710   1.392   4.841   3.802  0.6327 -0.1527 -0.5626
  181SLPC  H12Y20711   1.557   4.891   3.843 -1.7111  0.6804 -0.4598
  181SLPC  C31320712   1.491   4.727   3.955  0.9770 -0.2067  0.4230
  181SLPC  H13X20713   1.578   4.661   3.973  1.9395  1.5836  3.0415
  181SLPC  H13Y20714   1.401   4.663   3.945  1.3584 -0.6950  0.0982
  181SLPC  C31420715   1.455   4.814   4.077 -0.6103 -0.4141  0.4506
  181SLPC  H14X20716   1.549   4.853   4.122  0.4854 -1.3677 -0.9200
  181SLPC  H14Y20717   1.403   4.747   4.149 -0.3597 -1.1338 -0.0245
  181SLPC  C31520718   1.365   4.941   4.058 -0.6135  0.6320  0.5215
  181SLPC  H15X20719   1.279   4.886   4.014 -0.4064  0.1187  0.7604
  181SLPC  H15Y20720   1.414   5.005   3.980 -0.9230  2.5569  1.8402
  181SLPC  C31620721   1.313   5.019   4.178  0.1960 -0.3659 -0.0654
  181SLPC  H16X20722   1.303   4.942   4.257 -0.1109 -0.7853 -0.5121
  181SLPC  H16Y20723   1.217   5.068   4.156  0.6192  0.3274 -0.3959
  181SLPC  C31720724   1.405   5.127   4.231  0.4086 -0.0912 -0.4259
  181SLPC  H17X20725   1.345   5.186   4.304 -0.2289  0.1898 -1.1703
  181SLPC  H17Y20726   1.439   5.192   4.148  0.8584 -0.1607 -0.3020
  181SLPC  C31820727   1.533   5.072   4.296  0.7784 -0.0254  0.0166
  181SLPC  H18X20728   1.604   5.041   4.216  0.0883 -0.9466 -0.2702
  181SLPC  H18Y20729   1.523   4.988   4.368 -1.0660 -2.7819 -3.1684
  181SLPC  H18Z20730   1.580   5.156   4.351  2.7498 -0.8505 -0.3386
  182SLPC     N20731   6.596   4.867   2.473  0.3539 -0.5528  0.5862
  182SLPC   C1320732   6.611   4.732   2.419  0.5616 -1.0322 -0.4305
  182SLPC  H13A20733   6.700   4.720   2.359  0.0136 -2.2907 -1.0348
  182SLPC  H13B20734   6.607   4.671   2.508 -1.5014  2.4802  2.1459
  182SLPC  H13C20735   6.523   4.725   2.356  0.3714 -2.2158 -0.0441
  182SLPC   C1420736   6.454   4.892   2.516  0.3593 -0.1704 -0.0588
  182SLPC  H14A20737   6.431   4.820   2.593 -0.0792  1.9204  1.8606
  182SLPC  H14B20738   6.436   4.993   2.550 -1.7615  0.0938 -1.7168
  182SLPC  H14C20739   6.393   4.880   2.428  0.6830  0.4865 -0.3784
  182SLPC   C1520740   6.641   4.967   2.358  0.2179 -0.1785  0.5956
  182SLPC  H15A20741   6.723   4.923   2.302 -0.3669 -1.3587  0.6286
  182SLPC  H15B20742   6.559   4.987   2.290  0.0816  1.3971  1.2021
  182SLPC  H15C20743   6.675   5.056   2.408  2.0658  0.3259 -1.4007
  182SLPC   C1220744   6.688   4.886   2.587 -0.2502 -0.1005 -0.0070
  182SLPC  H12A20745   6.690   4.993   2.605 -0.5160  0.0479 -0.7790
  182SLPC  H12B20746   6.789   4.868   2.555  1.0427  3.6951  1.3825
  182SLPC   C1120747   6.665   4.819   2.724  0.1247  0.5264 -0.0792
  182SLPC  H11A20748   6.565   4.853   2.758  0.2726  1.4581 -0.5395
  182SLPC  H11B20749   6.733   4.859   2.803  4.2563 -0.7585 -2.6371
  182SLPC     P20750   6.812   4.605   2.748 -0.1520  0.3090  0.1628
  182SLPC   O1320751   6.813   4.465   2.701 -0.0155 -0.5006  0.2936
  182SLPC   O1420752   6.921   4.692   2.702 -0.3318 -0.0880  0.4263
  182SLPC   O1220753   6.676   4.672   2.710 -0.1245 -0.1263  0.5767
  182SLPC   O1120754   6.805   4.606   2.906  0.1618  0.5084  0.2510
  182SLPC    C120755   6.693   4.541   2.966  0.7006 -0.2104  0.1568
  182SLPC    HA20756   6.635   4.482   2.892 -0.3454  1.7747 -0.6841
  182SLPC    HB20757   6.743   4.478   3.043  0.7681  1.6897  1.7276
  182SLPC    C220758   6.603   4.646   3.025 -0.4352  0.0335  0.7656
  182SLPC    HS20759   6.572   4.701   2.933 -0.1384  1.7506  1.6610
  182SLPC   O2120760   6.678   4.735   3.114 -0.1900  1.3073 -0.5119
  182SLPC   C2120761   6.627   4.853   3.137 -0.4642  0.3461  0.3010
  182SLPC   O2220762   6.524   4.899   3.099 -0.4500 -0.6561  0.3319
  182SLPC   C2220763   6.712   4.936   3.240  0.3180 -0.0137 -0.0696
  182SLPC   H2R20764   6.775   5.007   3.183 -1.1797  0.7101 -0.8742
  182SLPC   H2S20765   6.641   5.001   3.295  1.5036  3.0858 -1.9610
  182SLPC    C320766   6.479   4.583   3.087 -0.2716 -0.6098  0.0445
  182SLPC    HX20767   6.423   4.532   3.006 -0.3049 -2.5631  1.2126
  182SLPC    HY20768   6.415   4.666   3.122  2.4881  1.4692  0.4760
  182SLPC   O3120769   6.521   4.497   3.195  0.6703  0.7947 -0.2307
  182SLPC   C3120770   6.426   4.419   3.247  0.6878 -0.0546  0.3420
  182SLPC   O3220771   6.315   4.396   3.198 -0.1610 -0.2451 -0.6430
  182SLPC   C3220772   6.481   4.365   3.376  0.6547 -1.4365 -0.1602
  182SLPC   H2X20773   6.404   4.294   3.412  0.4874 -0.9206  0.5141
  182SLPC   H2Y20774   6.487   4.456   3.439 -1.4611 -0.0779 -1.7449
  182SLPC   C2320775   6.803   4.849   3.334  0.7526 -0.1255  0.8462
  182SLPC   H3R20776   6.874   4.916   3.387  0.9293 -1.0204  1.7663
  182SLPC   H3S20777   6.883   4.798   3.276 -3.3642 -2.5448 -3.3939
  182SLPC   C2420778   6.718   4.747   3.413  0.3114  0.2077  0.2799
  182SLPC   H4R20779   6.638   4.695   3.356  1.4353 -0.7934 -0.4361
  182SLPC   H4S20780   6.658   4.810   3.481 -1.4977 -0.5167 -0.5749
  182SLPC   C2520781   6.804   4.642   3.478  0.0840  0.1229  0.5922
  182SLPC   H5R20782   6.851   4.569   3.408  0.5339  1.5647 -0.6544
  182SLPC   H5S20783   6.735   4.578   3.537 -0.2524  1.3684  1.6100
  182SLPC   C2620784   6.917   4.702   3.572  0.2710  0.1501  0.4471
  182SLPC   H6R20785   6.881   4.768   3.653  0.5587 -1.2800  1.7700
  182SLPC   H6S20786   6.986   4.763   3.509  0.8062 -0.4022  0.4930
  182SLPC   C2720787   7.004   4.585   3.628  0.1225  0.4504  0.4097
  182SLPC   H7R20788   6.937   4.508   3.672  1.1225 -1.3047 -0.9926
  182SLPC   H7S20789   7.061   4.638   3.707  1.4216 -1.6839  0.9855
  182SLPC   C2820790   7.110   4.518   3.537 -0.5008  0.5710 -0.1157
  182SLPC   H8R20791   7.063   4.486   3.442  0.8448 -2.6617  0.1841
  182SLPC   H8S20792   7.133   4.423   3.590  1.2296 -0.0699 -1.9067
  182SLPC   C2920793   7.227   4.609   3.513  0.2576  0.2854  0.2884
  182SLPC   H9R20794   7.200   4.714   3.494  1.8445  0.8041  0.7119
  182SLPC  C21020795   7.357   4.580   3.525 -0.4511  0.5792  0.1301
  182SLPC  H10R20796   7.431   4.659   3.503  0.1849 -0.2531 -0.7923
  182SLPC  C21120797   7.416   4.440   3.540  0.3208  0.0546 -0.8182
  182SLPC  H11R20798   7.500   4.438   3.469  0.6430  1.2970 -0.4879
  182SLPC  H11S20799   7.342   4.361   3.513 -0.7954  0.8956 -0.3211
  182SLPC  C21220800   7.479   4.426   3.679 -0.4009 -0.0459 -0.5109
  182SLPC  H12R20801   7.469   4.512   3.746  3.6721 -0.5973  1.1070
  182SLPC  C21320802   7.553   4.320   3.717 -0.0120  0.1584 -0.1924
  182SLPC  H13R20803   7.612   4.326   3.809  0.4474 -0.5011 -0.4395
  182SLPC  C21420804   7.594   4.201   3.634  0.0523 -0.2413  0.0868
  182SLPC  H14R20805   7.699   4.166   3.639  1.6447  4.0005 -0.0671
  182SLPC  H14S20806   7.588   4.228   3.527  0.9106 -1.0769 -0.1854
  182SLPC  C21520807   7.503   4.085   3.665 -0.0758  0.3619 -0.8368
  182SLPC  H15R20808   7.402   4.100   3.622  1.0526  0.1444 -3.8366
  182SLPC  H15S20809   7.504   4.054   3.771 -0.5520  1.4302 -0.5005
  182SLPC  C21620810   7.558   3.969   3.574 -0.2547 -0.0505 -0.6656
  182SLPC  H16R20811   7.666   3.966   3.598 -1.0495 -1.9272  3.6721
  182SLPC  H16S20812   7.548   4.005   3.469  0.8424  2.0336 -0.1150
  182SLPC  C21720813   7.508   3.837   3.618  0.2823  0.1755  0.8083
  182SLPC  H17R20814   7.398   3.852   3.627 -0.0269 -1.6609  0.4092
  182SLPC  H17S20815   7.542   3.812   3.721 -3.1150  0.6286  2.1778
  182SLPC  C21820816   7.556   3.722   3.518  0.5972 -0.4835 -0.3562
  182SLPC  H18R20817   7.509   3.627   3.553 -0.0346 -0.6134 -1.5041
  182SLPC  H18S20818   7.666   3.716   3.514  0.6273  0.2508 -0.7947
  182SLPC  H18T20819   7.511   3.742   3.418 -2.9635  1.1071  1.3622
  182SLPC   C3320820   6.622   4.298   3.361 -0.1703 -0.6887  0.5657
  182SLPC   H3X20821   6.711   4.364   3.363 -0.9216  0.3387  1.3023
  182SLPC   H3Y20822   6.610   4.246   3.264 -0.8003 -2.0875  1.3650
  182SLPC   C3420823   6.656   4.185   3.458  0.6441 -0.5754  0.2365
  182SLPC   H4X20824   6.738   4.130   3.408  0.3395  0.7960 -1.8878
  182SLPC   H4Y20825   6.567   4.118   3.456 -1.0946  1.6143 -0.3723
  182SLPC   C3520826   6.693   4.252   3.587  1.0517  0.2118 -0.4332
  182SLPC   H5X20827   6.613   4.319   3.626  0.5430 -0.5214 -0.2010
  182SLPC   H5Y20828   6.785   4.314   3.581  0.5676  0.9491 -0.3481
  182SLPC   C3620829   6.712   4.145   3.698 -0.0562 -0.1039  0.3219
  182SLPC   H6X20830   6.643   4.059   3.684 -1.7197  1.3176 -0.6766
  182SLPC   H6Y20831   6.698   4.190   3.798  0.7900  0.5622  0.1557
  182SLPC   C3720832   6.857   4.097   3.688 -0.0525  0.1605  0.7726
  182SLPC   H7X20833   6.897   4.087   3.584  3.2058 -0.5831  1.9834
  182SLPC   H7Y20834   6.863   4.001   3.744  2.3236  0.0211  0.3789
  182SLPC   C3820835   6.954   4.190   3.765 -0.1311  0.0801 -0.1006
  182SLPC   H8X20836   6.914   4.196   3.868 -0.2365  0.8681 -0.1830
  182SLPC   H8Y20837   6.953   4.291   3.719  0.2533  1.1254  2.0684
  182SLPC   C3920838   7.095   4.131   3.777 -0.4830  0.1186  0.0137
  182SLPC   H9X20839   7.158   4.212   3.820  1.1628 -0.3476 -1.4267
  182SLPC   H9Y20840   7.111   4.114   3.669 -0.0637 -1.6706  0.3305
  182SLPC  C31020841   7.099   4.008   3.867 -0.1311  0.0494 -0.1135
  182SLPC  H10X20842   7.023   3.941   3.821  1.0310 -1.3442 -0.0494
  182SLPC  H10Y20843   7.081   4.033   3.974  2.4808  1.0802  0.1522
  182SLPC  C31120844   7.222   3.916   3.863 -0.0667 -0.1405  0.9189
  182SLPC  H11X20845   7.305   3.966   3.918  2.3425 -3.8505  1.0369
  182SLPC  H11Y20846   7.241   3.927   3.754 -2.6212  1.0018  0.5129
  182SLPC  C31220847   7.177   3.773   3.909 -0.2254  0.0573 -0.2044
  182SLPC  H12X20848   7.090   3.735   3.851 -0.5961 -0.0774  0.4222
  182SLPC  H12Y20849   7.135   3.772   4.012  0.2881 -0.4180  0.0047
  182SLPC  C31320850   7.290   3.665   3.901 -0.8665 -0.1943  0.1124
  182SLPC  H13X20851   7.378   3.701   3.958  0.5835 -1.1450 -1.4398
  182SLPC  H13Y20852   7.317   3.654   3.794 -1.3691  1.0704 -0.1672
  182SLPC  C31420853   7.256   3.525   3.963  0.0276  0.8038 -0.0914
  182SLPC  H14X20854   7.322   3.445   3.924  1.1764  0.1459  2.9397
  182SLPC  H14Y20855   7.148   3.504   3.951 -0.0808 -0.0903  2.0737
  182SLPC  C31520856   7.292   3.521   4.110  0.5390 -0.4381 -0.7326
  182SLPC  H15X20857   7.246   3.602   4.170  3.6091  0.5933  0.4092
  182SLPC  H15Y20858   7.400   3.542   4.128  0.2826 -0.5510  1.1417
  182SLPC  C31620859   7.254   3.386   4.180  0.1521 -0.5289  0.0278
  182SLPC  H16X20860   7.290   3.301   4.118 -1.6217 -0.9943 -0.4056
  182SLPC  H16Y20861   7.143   3.386   4.179  0.1096 -0.7853  1.8394
  182SLPC  C31720862   7.300   3.377   4.329 -0.4134 -0.0343 -0.1603
  182SLPC  H17X20863   7.294   3.475   4.380 -2.2913 -0.3042  0.2407
  182SLPC  H17Y20864   7.410   3.361   4.330  0.2811  3.7972 -1.2805
  182SLPC  C31820865   7.237   3.271   4.420 -0.1442  0.5513 -0.0489
  182SLPC  H18X20866   7.269   3.294   4.523 -0.5350  2.1996 -0.2722
  182SLPC  H18Y20867   7.247   3.163   4.396 -1.6292  0.2961  0.3702
  182SLPC  H18Z20868   7.127   3.286   4.421 -0.4109 -1.0005 -1.4434
  183SLPC     N20869   2.796   0.484   2.412 -0.0103  0.3104  0.1271
  183SLPC   C1320870   2.731   0.364   2.343  0.2561  0.3458 -0.5142
  183SLPC  H13A20871   2.761   0.353   2.240  0.0556 -0.6857 -0.4695
  183SLPC  H13B20872   2.756   0.277   2.401  0.8938  0.5606 -0.4553
  183SLPC  H13C20873   2.624   0.379   2.345  0.5303  2.7119 -0.5819
  183SLPC   C1420874   2.778   0.606   2.329  0.3954  0.6570 -0.2940
  183SLPC  H14A20875   2.832   0.593   2.236  0.6594  0.0808 -0.0667
  183SLPC  H14B20876   2.677   0.629   2.299  0.4488  0.6957 -0.4480
  183SLPC  H14C20877   2.820   0.686   2.387  2.5375 -1.0817  0.7063
  183SLPC   C1520878   2.945   0.470   2.419  0.5046  0.7595 -0.0711
  183SLPC  H15A20879   2.987   0.468   2.320  1.1771  0.0855  0.2184
  183SLPC  H15B20880   2.986   0.557   2.468  0.6170  0.1811  0.8802
  183SLPC  H15C20881   2.979   0.388   2.481 -0.8895  0.2339  0.0522
  183SLPC   C1220882   2.736   0.496   2.550  0.3480  0.7862  0.5149
  183SLPC  H12A20883   2.628   0.505   2.543  0.1645 -1.2026  0.1400
  183SLPC  H12B20884   2.767   0.587   2.599  2.3565  1.0824 -1.1589
  183SLPC   C1120885   2.757   0.386   2.647 -0.0266  0.2313 -0.0573
  183SLPC  H11A20886   2.747   0.417   2.754  0.2631  1.1105 -0.2824
  183SLPC  H11B20887   2.865   0.363   2.634 -0.0287  0.2584 -0.1216
  183SLPC     P20888   2.539   0.256   2.644 -0.1344  0.3316 -0.0148
  183SLPC   O1320889   2.492   0.390   2.688  0.3449 -0.7809 -0.3893
  183SLPC   O1420890   2.481   0.193   2.526  1.1047 -0.6704  0.1185
  183SLPC   O1220891   2.690   0.261   2.608  0.5609  0.5477  0.6777
  183SLPC   O1120892   2.540   0.159   2.773  0.9529  0.2158 -0.8544
  183SLPC    C120893   2.640   0.187   2.870 -0.4416  0.0771 -0.3017
  183SLPC    HA20894   2.740   0.158   2.831  0.1742  1.1254  0.4581
  183SLPC    HB20895   2.633   0.292   2.904 -1.1292 -0.7276  2.3058
  183SLPC    C220896   2.611   0.115   3.003  0.0805 -0.3025  0.0547
  183SLPC    HS20897   2.614   0.005   2.988 -1.3113 -0.1463 -1.7339
  183SLPC   O2120898   2.502   0.177   3.069 -0.0739 -0.2872  0.1435
  183SLPC   C2120899   2.409   0.088   3.109 -0.2916 -0.0926  0.1161
  183SLPC   O2220900   2.425  -0.033   3.101  0.1419 -0.7036 -0.5437
  183SLPC   C2220901   2.285   0.164   3.164  0.6382  0.2591 -0.2223
  183SLPC   H2R20902   2.315   0.262   3.207 -0.4668 -1.0884  4.0368
  183SLPC   H2S20903   2.223   0.173   3.072  0.0167  2.7662  0.3499
  183SLPC    C320904   2.731   0.143   3.103  0.1894 -0.9519 -0.4058
  183SLPC    HX20905   2.743   0.253   3.118 -0.4244 -0.9961  0.5343
  183SLPC    HY20906   2.830   0.119   3.059  1.0495  0.6344  0.5419
  183SLPC   O3120907   2.710   0.081   3.229  0.4900  0.3250 -0.6551
  183SLPC   C3120908   2.734  -0.042   3.228  0.3618  0.2170 -0.0940
  183SLPC   O3220909   2.785  -0.107   3.132 -0.2629 -0.0151  0.7297
  183SLPC   C3220910   2.678  -0.106   3.359 -0.0365 -0.0792 -0.0024
  183SLPC   H2X20911   2.614  -0.186   3.316  1.5218  1.1025 -5.1952
  183SLPC   H2Y20912   2.623  -0.028   3.415  0.4632  0.9863 -0.9674
  183SLPC   C2320913   2.195   0.082   3.257 -0.1591 -0.6883 -0.1541
  183SLPC   H3R20914   2.164  -0.011   3.204 -3.0025  0.3722 -0.5440
  183SLPC   H3S20915   2.100   0.140   3.267  0.4829  0.3553  0.0381
  183SLPC   C2420916   2.263   0.048   3.395  0.3282 -0.0790 -0.4998
  183SLPC   H4R20917   2.348  -0.020   3.375  0.4304 -0.5206  1.2819
  183SLPC   H4S20918   2.185  -0.005   3.453 -0.1230 -0.8469 -1.7615
  183SLPC   C2520919   2.298   0.171   3.483 -0.3346 -0.4326  0.4978
  183SLPC   H5R20920   2.216   0.244   3.466 -0.7221 -0.3578  2.4590
  183SLPC   H5S20921   2.398   0.208   3.450  0.4635 -2.9165 -0.1588
  183SLPC   C2620922   2.313   0.137   3.628  0.0090 -0.5086  0.3410
  183SLPC   H6R20923   2.219   0.085   3.658  0.9979 -2.0011  1.0035
  183SLPC   H6S20924   2.327   0.221   3.699  1.6911 -0.0459 -0.4909
  183SLPC   C2720925   2.424   0.033   3.646 -0.1046 -0.3409 -0.5673
  183SLPC   H7R20926   2.518   0.069   3.600  0.2853  0.6048  0.8842
  183SLPC   H7S20927   2.394  -0.063   3.599  1.8563 -1.3198  0.0551
  183SLPC   C2820928   2.452   0.009   3.798 -0.2130 -0.8560  0.2160
  183SLPC   H8R20929   2.475   0.112   3.832  0.8713 -0.3110 -1.9646
  183SLPC   H8S20930   2.543  -0.050   3.821  1.0373  0.3050 -1.5452
  183SLPC   C2920931   2.334  -0.052   3.876 -0.3568  0.3576  0.2153
  183SLPC   H9R20932   2.303  -0.147   3.830  0.3140 -0.3822  1.2390
  183SLPC  C21020933   2.268  -0.009   3.986  0.3691  0.3009 -0.3117
  183SLPC  H10R20934   2.186  -0.070   4.026  0.8316 -1.2737 -1.6555
  183SLPC  C21120935   2.296   0.123   4.060  0.3627 -1.1235  0.8242
  183SLPC  H11R20936   2.237   0.205   4.014  0.1863 -1.1974  0.9197
  183SLPC  H11S20937   2.402   0.156   4.048 -1.0966  3.4424 -1.8761
  183SLPC  C21220938   2.258   0.119   4.204 -0.2191  0.3263 -1.2851
  183SLPC  H12R20939   2.166   0.177   4.220  0.0385  0.4681 -0.2523
  183SLPC  C21320940   2.323   0.059   4.303 -0.1266  1.1840 -0.2720
  183SLPC  H13R20941   2.285   0.073   4.405  1.2915 -0.1095  0.4712
  183SLPC  C21420942   2.447  -0.020   4.312 -0.0702  0.5466 -0.5762
  183SLPC  H14R20943   2.479  -0.052   4.211  0.1255 -0.3896 -0.2287
  183SLPC  H14S20944   2.423  -0.105   4.379  1.0225  0.6586 -0.0194
  183SLPC  C21520945   2.555   0.074   4.372  0.4869  0.4221 -0.1060
  183SLPC  H15R20946   2.522   0.109   4.473 -0.5642  2.7154 -1.1819
  183SLPC  H15S20947   2.567   0.162   4.306  0.2386 -0.9242 -2.0202
  183SLPC  C21620948   2.690   0.019   4.398 -0.8647 -0.7258 -0.1389
  183SLPC  H16R20949   2.743  -0.010   4.305  0.2776  0.8632 -0.0216
  183SLPC  H16S20950   2.677  -0.064   4.472 -2.1417 -0.1778  0.2838
  183SLPC  C21720951   2.779   0.128   4.462  0.2606  0.1175 -0.6301
  183SLPC  H17R20952   2.718   0.174   4.542 -0.1694 -0.4653 -0.6135
  183SLPC  H17S20953   2.820   0.203   4.392 -0.2782  1.5812  0.5604
  183SLPC  C21820954   2.906   0.068   4.535 -0.3116 -0.8919 -0.6393
  183SLPC  H18R20955   2.974   0.139   4.586 -1.2578 -1.4431  1.5089
  183SLPC  H18S20956   2.957   0.008   4.457 -1.1513  1.5553 -3.2676
  183SLPC  H18T20957   2.860  -0.009   4.601 -1.4411 -0.3735 -0.7885
  183SLPC   C3320958   2.783  -0.157   3.463  0.4704 -0.1278  0.4959
  183SLPC   H3X20959   2.836  -0.068   3.502  0.7338  1.2079 -2.6339
  183SLPC   H3Y20960   2.860  -0.215   3.408 -0.8892 -0.4290 -1.1629
  183SLPC   C3420961   2.720  -0.248   3.576 -0.1301  0.2991  0.6562
  183SLPC   H4X20962   2.676  -0.336   3.524 -0.7680  0.6470  0.6013
  183SLPC   H4Y20963   2.636  -0.193   3.624 -2.0446  0.1371 -2.2664
  183SLPC   C3520964   2.807  -0.294   3.692 -0.6008 -0.0583 -0.0434
  183SLPC   H5X20965   2.861  -0.201   3.720 -2.6140  0.6842  1.6515
  183SLPC   H5Y20966   2.882  -0.365   3.651 -1.8577 -0.9434 -0.8871
  183SLPC   C3620967   2.740  -0.340   3.821 -0.1207 -0.2021  0.2833
  183SLPC   H6X20968   2.734  -0.260   3.898  2.1352 -0.5743  0.9224
  183SLPC   H6Y20969   2.797  -0.423   3.867  0.0153 -2.1342 -3.0533
  183SLPC   C3720970   2.592  -0.391   3.808 -0.0455  0.3204  1.1395
  183SLPC   H7X20971   2.575  -0.421   3.702 -0.0439  1.3202  0.8439
  183SLPC   H7Y20972   2.520  -0.306   3.816 -0.7368 -0.2710  1.3828
  183SLPC   C3820973   2.541  -0.488   3.919 -0.4306  0.0880 -0.6172
  183SLPC   H8X20974   2.596  -0.485   4.016  1.8237 -2.1425 -1.7006
  183SLPC   H8Y20975   2.564  -0.593   3.891 -1.1758 -0.5623  1.0494
  183SLPC   C3920976   2.387  -0.489   3.933  0.0967 -0.2328  0.5506
  183SLPC   H9X20977   2.344  -0.493   3.831  0.1236 -2.6419  0.5718
  183SLPC   H9Y20978   2.351  -0.395   3.979 -0.9718 -1.0435  1.4180
  183SLPC  C31020979   2.345  -0.605   4.012 -0.2057  0.5089 -0.0577
  183SLPC  H10X20980   2.386  -0.697   3.965  0.9854 -0.2287  2.2473
  183SLPC  H10Y20981   2.236  -0.622   3.999  0.3702 -2.4976 -1.9656
  183SLPC  C31120982   2.392  -0.615   4.156 -0.6811 -0.2194 -0.7744
  183SLPC  H11X20983   2.371  -0.521   4.212  3.3086 -0.4064  1.4126
  183SLPC  H11Y20984   2.502  -0.627   4.159 -0.7896 -1.2153 -0.3729
  183SLPC  C31220985   2.328  -0.739   4.226 -0.0348 -0.4063 -0.7944
  183SLPC  H12X20986   2.397  -0.773   4.306 -0.2319  1.4851  0.2406
  183SLPC  H12Y20987   2.324  -0.824   4.154  1.9330  0.7376 -2.3468
  183SLPC  C31320988   2.184  -0.705   4.282 -0.2815 -0.0352 -0.5149
  183SLPC  H13X20989   2.133  -0.797   4.315  1.0307 -0.0267  1.7658
  183SLPC  H13Y20990   2.132  -0.662   4.194 -0.5926 -0.8844 -0.7488
  183SLPC  C31420991   2.188  -0.595   4.392  0.1610 -1.0631  0.1577
  183SLPC  H14X20992   2.296  -0.580   4.413 -0.5640 -0.5591  4.3369
  183SLPC  H14Y20993   2.149  -0.639   4.487 -0.6021 -1.3497 -0.2797
  183SLPC  C31520994   2.105  -0.466   4.350 -0.1677  0.2788 -0.5327
  183SLPC  H15X20995   2.002  -0.494   4.320 -0.4241  0.8924 -0.2315
  183SLPC  H15Y20996   2.142  -0.439   4.249  0.9765 -4.0290 -1.4852
  183SLPC  C31620997   2.124  -0.353   4.450  0.5698 -0.5807 -0.0187
  183SLPC  H16X20998   2.055  -0.273   4.416  1.0624  0.3944  1.1845
  183SLPC  H16Y20999   2.229  -0.319   4.463  0.5598 -0.3142 -0.6268
  183SLPC  C31721000   2.076  -0.386   4.595  0.2706 -0.1126 -0.1535
  183SLPC  H17X21001   2.099  -0.295   4.656 -2.2210  3.2250 -3.6758
  183SLPC  H17Y21002   2.136  -0.468   4.640  1.8166  0.7714 -0.5343
  183SLPC  C31821003   1.932  -0.434   4.601 -0.0302 -0.2716  0.1708
  183SLPC  H18X21004   1.915  -0.527   4.542  1.1431  1.3748 -2.9886
  183SLPC  H18Y21005   1.869  -0.352   4.562  0.8606  0.7677  0.8529
  183SLPC  H18Z21006   1.906  -0.452   4.708  3.1591 -0.7794  0.9761
  184SLPC     N21007   6.346   0.741   2.432  0.2029  0.0514 -0.6532
  184SLPC   C1321008   6.326   0.818   2.303  0.2172 -0.2593 -0.7305
  184SLPC  H13A21009   6.355   0.764   2.214  0.0098 -3.0502  0.7731
  184SLPC  H13B21010   6.220   0.839   2.297  0.0761 -1.0254 -1.0186
  184SLPC  H13C21011   6.378   0.912   2.303 -2.1346  1.1342 -0.9613
  184SLPC   C1421012   6.490   0.706   2.449  0.7480 -0.8870  0.2437
  184SLPC  H14A21013   6.517   0.642   2.532  1.6437 -3.2121 -1.7139
  184SLPC  H14B21014   6.533   0.662   2.360  1.6193 -0.9855  0.6944
  184SLPC  H14C21015   6.551   0.795   2.457 -1.4806  0.8724 -1.2515
  184SLPC   C1521016   6.256   0.619   2.430 -1.0230  0.1029 -0.0026
  184SLPC  H15A21017   6.154   0.652   2.417 -0.3543  1.6959 -1.6386
  184SLPC  H15B21018   6.276   0.556   2.345 -1.7426  1.4497 -1.2220
  184SLPC  H15C21019   6.271   0.552   2.513 -2.6425  0.4525  0.6120
  184SLPC   C1221020   6.304   0.839   2.548  0.2012  0.2851  0.0444
  184SLPC  H12A21021   6.360   0.931   2.545  0.2139  0.5174  3.5892
  184SLPC  H12B21022   6.332   0.792   2.641  0.9147  1.8596  0.6443
  184SLPC   C1121023   6.151   0.874   2.562  0.2526  0.1690 -0.0077
  184SLPC  H11A21024   6.139   0.919   2.663 -0.8740 -3.1693  1.4918
  184SLPC  H11B21025   6.079   0.789   2.571 -1.0764  1.3284  0.8073
  184SLPC     P21026   6.088   1.113   2.460 -0.2412 -0.0273  0.0455
  184SLPC   O1321027   6.130   1.166   2.327 -0.1739  0.4598 -0.8433
  184SLPC   O1421028   5.957   1.153   2.510  0.1555 -0.5615 -0.0887
  184SLPC   O1221029   6.104   0.958   2.460  0.1673  0.5027 -0.1333
  184SLPC   O1121030   6.196   1.168   2.570  0.0602 -0.3981  0.3269
  184SLPC    C121031   6.198   1.298   2.621  0.4116  0.1802  0.0133
  184SLPC    HA21032   6.301   1.338   2.622 -0.0990  1.6004 -0.6879
  184SLPC    HB21033   6.133   1.366   2.561 -0.7028  1.2281  2.2676
  184SLPC    C221034   6.137   1.292   2.762  0.4430  0.2917  0.4827
  184SLPC    HS21035   6.028   1.271   2.753  0.8395 -2.8400  1.8557
  184SLPC   O2121036   6.156   1.430   2.808  0.5302  0.6119 -0.1274
  184SLPC   C2121037   6.074   1.455   2.908  0.0336 -0.0997 -0.4329
  184SLPC   O2221038   5.979   1.391   2.944  0.3312 -0.0465  0.3599
  184SLPC   C2221039   6.127   1.585   2.979  0.1735 -0.8301 -0.7387
  184SLPC   H2R21040   6.213   1.623   2.920  0.2524 -4.1569 -3.0520
  184SLPC   H2S21041   6.034   1.645   2.982  0.3611 -0.5734 -0.0361
  184SLPC    C321042   6.199   1.178   2.848  0.4498 -0.8456  0.3167
  184SLPC    HX21043   6.307   1.204   2.846 -0.3769  3.1974  0.7969
  184SLPC    HY21044   6.192   1.083   2.791  3.4404 -2.3069  2.0833
  184SLPC   O3121045   6.151   1.170   2.985  0.6487  0.0524  0.3656
  184SLPC   C3121046   6.209   1.070   3.039  0.7947 -0.3990 -0.1829
  184SLPC   O3221047   6.276   0.985   2.980 -0.0016 -0.0675 -0.4529
  184SLPC   C3221048   6.165   1.063   3.184  0.1383 -0.0086  0.0076
  184SLPC   H2X21049   6.081   0.990   3.180 -1.2658  1.5083  0.3865
  184SLPC   H2Y21050   6.112   1.158   3.206 -1.1470 -0.0070 -2.6823
  184SLPC   C2321051   6.165   1.556   3.124  0.2018  0.0568  0.1486
  184SLPC   H3R21052   6.223   1.647   3.153 -1.0531  0.3025  2.0207
  184SLPC   H3S21053   6.235   1.470   3.125 -0.2809 -0.3405  0.1537
  184SLPC   C2421054   6.041   1.527   3.215 -0.6069  0.3140 -0.5543
  184SLPC   H4R21055   5.988   1.443   3.165 -0.9719  0.4743 -0.4406
  184SLPC   H4S21056   5.977   1.618   3.210  0.5066  1.1028 -0.7484
  184SLPC   C2521057   6.083   1.518   3.360 -0.0076 -0.2169  0.4766
  184SLPC   H5R21058   6.170   1.586   3.375  0.1493 -0.6464  1.6410
  184SLPC   H5S21059   6.133   1.426   3.397 -0.5750 -0.2388  1.2255
  184SLPC   C2621060   5.983   1.551   3.465 -0.1695 -0.0041 -0.6314
  184SLPC   H6R21061   5.912   1.466   3.462  0.9824 -0.9607 -2.5926
  184SLPC   H6S21062   5.931   1.647   3.444  0.0161  0.2321 -0.0367
  184SLPC   C2721063   6.038   1.562   3.604 -0.1312 -0.3713 -0.6283
  184SLPC   H7R21064   6.120   1.636   3.604  2.7200 -3.2331  1.4018
  184SLPC   H7S21065   6.091   1.465   3.620  1.6127  0.5180 -0.8403
  184SLPC   C2821066   5.945   1.581   3.725  0.0049 -0.0377 -0.6402
  184SLPC   H8R21067   5.920   1.689   3.737 -0.2269 -0.0125 -1.3124
  184SLPC   H8S21068   6.011   1.552   3.810  0.7464 -0.2893 -1.2869
  184SLPC   C2921069   5.823   1.491   3.721 -0.4029 -0.1294 -0.2649
  184SLPC   H9R21070   5.758   1.499   3.633 -1.9028  0.0582  0.8274
  184SLPC  C21021071   5.772   1.421   3.830  0.7657 -0.4713  0.7716
  184SLPC  H10R21072   5.672   1.378   3.818  1.7744 -3.3058  1.6099
  184SLPC  C21121073   5.829   1.419   3.965  0.5038 -0.1810  0.1721
  184SLPC  H11R21074   5.744   1.379   4.026 -0.1202 -2.5136 -2.0369
  184SLPC  H11S21075   5.854   1.522   3.997  2.6316 -0.6901  0.2741
  184SLPC  C21221076   5.944   1.321   3.980  0.3512 -0.0024  0.2864
  184SLPC  H12R21077   5.942   1.232   3.915  0.1501 -0.5665  1.0586
  184SLPC  C21321078   6.061   1.335   4.044  0.7745 -0.2995  0.5097
  184SLPC  H13R21079   6.125   1.245   4.050 -0.1550 -1.1222 -1.2644
  184SLPC  C21421080   6.093   1.451   4.133 -0.8543 -0.9907 -0.2989
  184SLPC  H14R21081   6.006   1.520   4.137 -0.3456 -0.4019  2.0763
  184SLPC  H14S21082   6.176   1.501   4.080 -1.8204 -1.4587 -2.3826
  184SLPC  C21521083   6.128   1.421   4.277 -0.3234  0.4544  0.0115
  184SLPC  H15R21084   6.038   1.378   4.325  0.2204  0.2014  0.8397
  184SLPC  H15S21085   6.137   1.519   4.330  0.0605  1.2399 -1.4599
  184SLPC  C21621086   6.243   1.323   4.303 -0.1735 -0.3548 -0.0359
  184SLPC  H16R21087   6.213   1.219   4.279 -0.5584 -0.0744 -0.8271
  184SLPC  H16S21088   6.262   1.326   4.412  1.3474 -1.6600 -0.2321
  184SLPC  C21721089   6.376   1.373   4.240 -0.5040 -0.6281  0.1259
  184SLPC  H17R21090   6.372   1.327   4.139  5.0790 -3.0933  0.6515
  184SLPC  H17S21091   6.457   1.309   4.281 -0.5424 -2.2832 -2.2031
  184SLPC  C21821092   6.405   1.524   4.257 -0.2121  0.1646 -0.2534
  184SLPC  H18R21093   6.506   1.558   4.224 -1.9096  2.1834 -4.0226
  184SLPC  H18S21094   6.387   1.552   4.363  1.2384  2.3981 -0.5304
  184SLPC  H18T21095   6.339   1.575   4.184 -0.4530 -0.8122 -0.7310
  184SLPC   C3321096   6.288   1.035   3.273 -0.0836  0.3127  0.3627
  184SLPC   H3X21097   6.329   0.935   3.245  1.8218  0.8342  1.1056
  184SLPC   H3Y21098   6.250   1.015   3.375  1.4651 -2.5920  0.4742
  184SLPC   C3421099   6.407   1.141   3.257  0.8965 -0.2344 -0.1082
  184SLPC   H4X21100   6.439   1.175   3.156  0.0451  0.7344 -0.0785
  184SLPC   H4Y21101   6.495   1.088   3.299  2.1828  1.1922 -0.9007
  184SLPC   C3521102   6.378   1.274   3.332  0.3214  0.1474 -0.0879
  184SLPC   H5X21103   6.318   1.230   3.415  0.2184 -1.6819 -1.0639
  184SLPC   H5Y21104   6.308   1.339   3.275  1.5714  2.4736  0.8905
  184SLPC   C3621105   6.505   1.335   3.380 -0.8646 -0.3646 -0.2544
  184SLPC   H6X21106   6.574   1.365   3.299  0.5187 -2.2472  0.1455
  184SLPC   H6Y21107   6.568   1.259   3.432  1.4347  1.6909  0.1789
  184SLPC   C3721108   6.489   1.458   3.477  0.3651  0.2204  0.2217
  184SLPC   H7X21109   6.437   1.546   3.433 -0.7643 -0.9267 -0.8468
  184SLPC   H7Y21110   6.591   1.480   3.514  0.5857  1.1776 -0.8998
  184SLPC   C3821111   6.422   1.416   3.606  0.1253 -0.0995 -0.2836
  184SLPC   H8X21112   6.487   1.349   3.665  0.3960  0.1093 -0.3438
  184SLPC   H8Y21113   6.319   1.382   3.580  0.3481 -1.3912  0.4358
  184SLPC   C3921114   6.416   1.538   3.705  0.2259  0.5635 -0.1745
  184SLPC   H9X21115   6.344   1.522   3.788  2.2761 -1.9944  1.3004
  184SLPC   H9Y21116   6.389   1.629   3.649  0.7067  0.9782  0.2510
  184SLPC  C31021117   6.549   1.565   3.780 -0.9429  0.0817 -0.4342
  184SLPC  H10X21118   6.640   1.586   3.720 -0.1432 -2.1217 -0.0665
  184SLPC  H10Y21119   6.576   1.475   3.839 -1.0856  0.5646  0.3940
  184SLPC  C31121120   6.545   1.658   3.898 -0.1599  0.6492  0.4135
  184SLPC  H11X21121   6.460   1.630   3.964  1.5813  2.6130  3.7431
  184SLPC  H11Y21122   6.525   1.758   3.855 -1.1887  0.9312  1.5086
  184SLPC  C31221123   6.672   1.671   3.985  0.0969 -0.2603  0.3457
  184SLPC  H12X21124   6.760   1.692   3.920 -0.7133 -2.1506 -1.4609
  184SLPC  H12Y21125   6.693   1.574   4.033  0.1393 -0.9028 -0.9166
  184SLPC  C31321126   6.656   1.790   4.083  0.3230 -0.2406 -0.3404
  184SLPC  H13X21127   6.586   1.754   4.162  1.3503  1.4085  1.4184
  184SLPC  H13Y21128   6.612   1.876   4.029  0.1877 -1.5248 -2.4049
  184SLPC  C31421129   6.780   1.836   4.161 -0.1067  0.6634  0.0615
  184SLPC  H14X21130   6.856   1.880   4.094 -0.2662  0.8697  0.0143
  184SLPC  H14Y21131   6.833   1.746   4.199 -0.7304 -0.1081 -0.8440
  184SLPC  C31521132   6.737   1.923   4.279 -0.4629 -0.2322 -0.1056
  184SLPC  H15X21133   6.627   1.915   4.294 -0.6227 -3.5412 -2.2138
  184SLPC  H15Y21134   6.757   2.026   4.243 -0.6087  0.0205  0.5034
  184SLPC  C31621135   6.815   1.888   4.406 -0.1249 -0.1720  0.6348
  184SLPC  H16X21136   6.807   1.779   4.425 -1.5289 -0.2524 -0.2883
  184SLPC  H16Y21137   6.770   1.928   4.499 -2.5216 -0.9080 -0.1413
  184SLPC  C31721138   6.958   1.925   4.386  0.4200  0.2740 -0.2155
  184SLPC  H17X21139   6.967   2.036   4.384  3.1142  0.1380 -2.4931
  184SLPC  H17Y21140   6.986   1.880   4.289  0.2074 -1.9998  0.7313
  184SLPC  C31821141   7.052   1.867   4.491 -0.1221  0.7624 -0.6733
  184SLPC  H18X21142   7.145   1.925   4.475  0.1418  1.2688  2.2188
  184SLPC  H18Y21143   7.065   1.757   4.486 -1.9771  0.2958  2.2220
  184SLPC  H18Z21144   7.030   1.891   4.597 -0.5993  3.6975 -1.3236
  185POPC     N21145   0.381   5.854   6.998  0.1463 -0.0728 -0.0843
  185POPC   C1221146   0.483   5.750   6.951  0.3819 -0.1861 -0.8631
  185POPC  H12A21147   0.526   5.710   7.042  0.7412  1.1738 -0.4003
  185POPC  H12B21148   0.563   5.813   6.913 -2.5540  4.7492  0.2546
  185POPC   C1321149   0.441   5.952   7.099  0.0258  0.1365 -0.2923
  185POPC  H13A21150   0.497   6.029   7.047  2.6809 -1.6331 -0.2371
  185POPC  H13B21151   0.363   5.995   7.160 -0.7800 -0.2790 -1.0062
  185POPC  H13C21152   0.507   5.906   7.172 -0.3147  1.5974  0.9967
  185POPC   C1421153   0.344   5.943   6.877  0.5658  0.4182 -0.4983
  185POPC  H14A21154   0.299   5.878   6.804 -2.8777  1.2336  0.7083
  185POPC  H14B21155   0.267   6.011   6.913  0.4066 -0.5595  1.1081
  185POPC  H14C21156   0.434   5.989   6.839  1.3462  0.4933  1.3383
  185POPC   C1521157   0.264   5.792   7.062  0.1311 -0.2628 -0.0422
  185POPC  H15A21158   0.206   5.872   7.106  2.5116  4.2067 -4.0991
  185POPC  H15B21159   0.296   5.725   7.140 -2.2210  1.4224  2.5505
  185POPC  H15C21160   0.203   5.733   6.995 -1.2825  1.0108  0.0859
  185POPC   C1121161   0.462   5.641   6.846  0.6570  0.5296  0.4535
  185POPC  H11A21162   0.364   5.591   6.862  1.3043 -1.2883 -0.9668
  185POPC  H11B21163   0.543   5.567   6.858  0.1751  0.0312  0.6808
  185POPC     P21164   0.369   5.695   6.608 -0.0120  0.2184  0.7949
  185POPC   O1321165   0.420   5.710   6.472 -0.4012 -0.4824  0.6669
  185POPC   O1421166   0.262   5.791   6.642 -0.4185 -0.1257  0.3895
  185POPC   O1221167   0.482   5.699   6.716 -0.1651  0.0589 -0.0414
  185POPC   O1121168   0.307   5.545   6.620  0.2262 -0.3114  0.1263
  185POPC    C121169   0.401   5.434   6.595 -0.1209  0.1502  1.3422
  185POPC    HA21170   0.395   5.367   6.683  0.7412 -1.1976  0.4331
  185POPC    HB21171   0.507   5.463   6.577  0.1651 -1.5392 -0.0385
  185POPC    C221172   0.370   5.360   6.463  0.4430 -0.2225  0.5699
  185POPC    HS21173   0.441   5.275   6.461 -0.7311 -1.2216 -1.2343
  185POPC   O2121174   0.390   5.443   6.350 -0.2777 -0.2265 -0.0849
  185POPC   C2121175   0.517   5.458   6.321 -0.2026 -0.5325  0.5482
  185POPC   O2221176   0.613   5.403   6.369 -1.1655  0.7254  0.5347
  185POPC   C2221177   0.528   5.570   6.217  0.1650 -0.2475  0.0637
  185POPC   H2R21178   0.567   5.659   6.271 -0.1868 -0.3113  0.4338
  185POPC   H2S21179   0.426   5.592   6.178  0.5769  1.0527 -0.3209
  185POPC    C321180   0.220   5.309   6.473 -0.0478 -0.4540 -0.0615
  185POPC    HX21181   0.153   5.398   6.475  3.3722  2.6433 -4.2589
  185POPC    HY21182   0.220   5.243   6.562  1.5358 -0.8929 -0.3585
  185POPC   O3121183   0.175   5.212   6.375 -0.1518 -0.5408  0.0080
  185POPC   C3121184   0.110   5.260   6.268  0.3067  0.1941  0.4589
  185POPC   O3221185   0.064   5.376   6.257 -0.0027  0.2719 -0.4529
  185POPC   C3221186   0.094   5.152   6.161  0.0992 -0.3066  0.7862
  185POPC   H2X21187  -0.009   5.111   6.159 -0.0088 -0.0247 -0.3966
  185POPC   H2Y21188   0.143   5.058   6.193 -0.7774 -0.9407  0.3042
  185POPC   C2321189   0.619   5.532   6.098  0.7183 -0.2716  0.5878
  185POPC   H3R21190   0.716   5.487   6.128  1.9652  2.1345  0.4046
  185POPC   H3S21191   0.643   5.633   6.059 -1.8801  0.8291  1.5622
  185POPC   C2421192   0.552   5.435   6.001  0.3292  0.7307  0.1292
  185POPC   H4R21193   0.461   5.474   5.951  1.1577  2.3166 -0.2235
  185POPC   H4S21194   0.521   5.351   6.067  1.6686  1.1696  1.3726
  185POPC   C2521195   0.651   5.383   5.895  0.0220  0.8033 -0.5688
  185POPC   H5R21196   0.732   5.329   5.948  2.6289  1.3788 -3.6264
  185POPC   H5S21197   0.703   5.470   5.850  3.1593  0.1152  1.3936
  185POPC   C2621198   0.579   5.285   5.798  0.4051  0.3053  0.0386
  185POPC   H6R21199   0.501   5.227   5.854  1.2739  1.2025  2.2950
  185POPC   H6S21200   0.660   5.221   5.758  1.5899  1.1609  1.0078
  185POPC   C2721201   0.506   5.359   5.688  0.3993 -0.5313 -0.4095
  185POPC   H7R21202   0.562   5.452   5.666  1.1845 -1.0540 -0.6433
  185POPC   H7S21203   0.409   5.398   5.727  1.3908  3.2058 -1.3630
  185POPC   C2821204   0.481   5.273   5.564 -0.1125  0.0562  0.2619
  185POPC   H8R21205   0.423   5.326   5.486 -1.1117 -1.8277 -0.3454
  185POPC   H8S21206   0.411   5.190   5.587  0.8581 -1.1110 -0.8497
  185POPC   C2921207   0.617   5.229   5.499 -0.1419  0.3982 -0.5008
  185POPC   H9121208   0.700   5.198   5.565 -0.2732 -1.3156 -1.0984
  185POPC  C21021209   0.633   5.222   5.367 -0.4225  0.4978  0.4831
  185POPC  H10121210   0.731   5.198   5.325 -0.1799  0.7468  0.8994
  185POPC  C21121211   0.529   5.226   5.260  0.6873 -0.4086  0.3302
  185POPC  H11R21212   0.546   5.301   5.179 -1.0558 -1.9457 -1.5546
  185POPC  H11S21213   0.425   5.248   5.291  0.0545  0.3817 -2.1341
  185POPC  C21221214   0.541   5.093   5.181 -0.0731  0.3833 -0.3058
  185POPC  H12R21215   0.509   5.013   5.250  0.0465  1.5176  1.1005
  185POPC  H12S21216   0.647   5.069   5.158 -0.0619  0.3168 -0.1852
  185POPC  C21321217   0.459   5.096   5.051 -0.3363  0.1768  0.3686
  185POPC  H13R21218   0.377   5.169   5.069  1.4797  2.2915  0.4925
  185POPC  H13S21219   0.425   4.992   5.032  1.3847 -0.3704  0.1566
  185POPC  C21421220   0.551   5.136   4.931  0.8363  0.6582 -0.7508
  185POPC  H14R21221   0.637   5.066   4.926 -0.0628 -0.5376 -0.2673
  185POPC  H14S21222   0.604   5.232   4.943  2.3748 -0.3906  1.5313
  185POPC  C21521223   0.487   5.133   4.791 -0.3353  0.3061 -0.5710
  185POPC  H15R21224   0.393   5.190   4.809 -1.3700 -1.5016 -0.0178
  185POPC  H15S21225   0.450   5.032   4.763 -2.8338  0.3960  1.9777
  185POPC  C21621226   0.566   5.185   4.666 -0.3242 -0.1855 -0.6498
  185POPC  H16R21227   0.672   5.152   4.663 -1.0937 -3.2317  1.2071
  185POPC  H16S21228   0.562   5.296   4.678 -1.1747 -0.1971 -0.7599
  185POPC  C21721229   0.514   5.141   4.524  1.1749  0.2381  0.0270
  185POPC  H17R21230   0.539   5.034   4.508 -0.3231 -0.2071  0.4523
  185POPC  H17S21231   0.560   5.200   4.443  0.5317  0.6344 -0.0636
  185POPC  C21821232   0.357   5.163   4.509  0.1658  0.3479 -0.8075
  185POPC  H18R21233   0.324   5.266   4.536 -0.1053  0.8347 -2.8329
  185POPC  H18S21234   0.303   5.096   4.579  1.1983 -0.8835 -1.1440
  185POPC  H18T21235   0.327   5.147   4.403 -0.2761 -0.8629 -0.5114
  185POPC   C3321236   0.135   5.194   6.017 -0.3296 -0.1095 -0.2954
  185POPC   H3X21237   0.148   5.109   5.947  1.5187 -1.6434  1.7810
  185POPC   H3Y21238   0.230   5.251   6.010 -0.3428 -0.3130 -3.9107
  185POPC   C3421239   0.032   5.289   5.949  0.6127  0.6218 -0.6412
  185POPC   H4X21240   0.014   5.379   6.011 -2.0677 -1.0062  1.1167
  185POPC   H4Y21241  -0.071   5.246   5.951  0.5145  0.7620 -1.8886
  185POPC   C3521242   0.054   5.324   5.802  0.0778 -0.0434  0.1125
  185POPC   H5X21243   0.146   5.386   5.793 -1.2258  1.9138 -0.4837
  185POPC   H5Y21244  -0.034   5.386   5.772  1.0462  0.2945 -2.2009
  185POPC   C3621245   0.051   5.215   5.696  0.1323  0.5998 -0.5313
  185POPC   H6X21246  -0.047   5.163   5.697 -1.3499  3.2137 -1.0031
  185POPC   H6Y21247   0.137   5.150   5.722  1.1517  1.4464 -1.6814
  185POPC   C3721248   0.071   5.269   5.556  0.0741 -0.7361  0.0415
  185POPC   H7X21249   0.167   5.324   5.547 -1.9843  2.9582 -2.1186
  185POPC   H7Y21250  -0.005   5.348   5.542 -1.2611 -1.7297  1.4062
  185POPC   C3821251   0.060   5.155   5.460  0.0771 -0.2214 -0.4041
  185POPC   H8X21252  -0.036   5.099   5.467  0.7560 -1.4010 -0.3187
  185POPC   H8Y21253   0.136   5.083   5.497 -0.6166 -0.8178 -0.1110
  185POPC   C3921254   0.093   5.201   5.320  0.0982 -0.6949 -0.2101
  185POPC   H9X21255   0.193   5.248   5.311 -0.3527 -0.0178 -2.2626
  185POPC   H9Y21256   0.016   5.277   5.291 -1.5102 -2.7832 -1.7163
  185POPC  C31021257   0.090   5.083   5.211 -1.0678  0.2702 -0.5416
  185POPC  H10X21258  -0.002   5.026   5.233  0.1329 -0.7948  2.0257
  185POPC  H10Y21259   0.171   5.016   5.245 -1.2132 -0.6353 -1.9032
  185POPC  C31121260   0.089   5.115   5.068 -0.0874 -0.4672  0.2073
  185POPC  H11X21261   0.168   5.187   5.040 -2.2762  1.3292 -1.8122
  185POPC  H11Y21262  -0.005   5.167   5.040  0.6868 -0.1968 -2.1450
  185POPC  C31221263   0.089   4.997   4.970  0.1170  0.4825  0.4466
  185POPC  H12X21264   0.007   4.924   4.983  1.7530 -2.1343 -2.4755
  185POPC  H12Y21265   0.179   4.939   4.998 -0.3005 -0.0692  0.6651
  185POPC  C31321266   0.102   5.039   4.820  0.5521 -0.3671 -0.3645
  185POPC  H13X21267   0.134   4.947   4.766  0.3351 -1.9028  1.9634
  185POPC  H13Y21268   0.183   5.114   4.810 -1.2520  1.8972  1.0368
  185POPC  C31421269  -0.025   5.090   4.752 -0.1793  0.3209  0.3698
  185POPC  H14X21270  -0.067   5.176   4.808 -2.0758 -0.3044 -0.0277
  185POPC  H14Y21271  -0.111   5.020   4.747 -1.3227  1.6788  0.6879
  185POPC  C31521272   0.011   5.145   4.616 -0.2776 -0.5684  0.0013
  185POPC  H15X21273   0.049   5.071   4.543  2.3160 -1.3673  1.9959
  185POPC  H15Y21274   0.082   5.230   4.627 -1.2912  0.7635 -2.8085
  185POPC  C31621275  -0.112   5.191   4.531 -0.1092 -0.8011 -0.0329
  185POPC  H16X21276  -0.202   5.185   4.596 -1.0465  1.5585 -0.9849
  185POPC  H16Y21277  -0.124   5.130   4.439  2.4231 -0.9184 -0.3351
  185POPC  H16Z21278  -0.079   5.292   4.500  1.5589 -0.4088  2.7209
  186POPC     N21279   3.079   3.567   6.670 -0.1528  0.4618 -0.2631
  186POPC   C1221280   3.149   3.532   6.548  0.2300 -0.3572  0.4473
  186POPC  H12A21281   3.253   3.546   6.574  0.7947 -2.6692 -0.4156
  186POPC  H12B21282   3.119   3.595   6.465  0.4724 -1.1502 -0.2495
  186POPC   C1321283   2.939   3.527   6.663  0.0636 -0.0050  0.1391
  186POPC  H13A21284   2.929   3.420   6.647 -0.5769 -0.3678  2.5531
  186POPC  H13B21285   2.883   3.550   6.752 -0.5089  0.0089 -0.2181
  186POPC  H13C21286   2.892   3.578   6.580  2.5008 -1.4148 -2.3056
  186POPC   C1421287   3.143   3.494   6.786  0.0533  0.2511 -0.0072
  186POPC  H14A21288   3.081   3.515   6.872 -0.0573  0.5087 -0.1490
  186POPC  H14B21289   3.142   3.388   6.765 -1.9717  0.5180 -1.6651
  186POPC  H14C21290   3.242   3.527   6.811  0.6070 -0.1409 -1.5367
  186POPC   C1521291   3.077   3.716   6.696 -0.3615  0.6499  0.4023
  186POPC  H15A21292   3.170   3.758   6.731  0.3896  1.4790 -2.3835
  186POPC  H15B21293   3.004   3.745   6.770 -0.6036  0.8256  0.0967
  186POPC  H15C21294   3.055   3.768   6.604 -0.3525 -2.9242 -1.8059
  186POPC   C1121295   3.136   3.389   6.485 -0.2365  0.9573 -0.0367
  186POPC  H11A21296   3.187   3.384   6.387  2.0876  0.2957  1.1186
  186POPC  H11B21297   3.029   3.383   6.456  0.1501  1.9998 -1.7736
  186POPC     P21298   3.342   3.280   6.585  0.1841 -0.5315  0.2324
  186POPC   O1321299   3.366   3.150   6.647 -0.3837 -0.2767  0.3949
  186POPC   O1421300   3.412   3.404   6.629  0.2383  0.1852 -0.1454
  186POPC   O1221301   3.183   3.293   6.581  0.3499  0.1149 -0.7743
  186POPC   O1121302   3.378   3.266   6.429 -0.3769  0.0913 -0.1214
  186POPC    C121303   3.383   3.145   6.354 -0.4155  0.2082  0.5695
  186POPC    HA21304   3.296   3.079   6.377 -0.8007  0.7015  0.5585
  186POPC    HB21305   3.478   3.091   6.370  0.9616  1.5837 -2.2073
  186POPC    C221306   3.372   3.154   6.199 -0.6966 -0.4171  0.2160
  186POPC    HS21307   3.360   3.052   6.157  0.0430 -0.5627  0.3436
  186POPC   O2121308   3.489   3.222   6.155 -0.4258 -0.0339 -0.3048
  186POPC   C2121309   3.578   3.156   6.092 -0.6457  0.4766  0.2493
  186POPC   O2221310   3.582   3.041   6.059  0.2759 -0.0035  0.4967
  186POPC   C2221311   3.699   3.255   6.063  0.0858 -0.4638  0.1536
  186POPC   H2R21312   3.737   3.271   6.166 -0.6403  2.4422  0.0691
  186POPC   H2S21313   3.662   3.357   6.037 -0.1708 -0.5068  0.3523
  186POPC    C321314   3.256   3.241   6.157 -0.5607 -0.4458  0.1640
  186POPC    HX21315   3.270   3.343   6.199  0.4510 -0.8296  0.7963
  186POPC    HY21316   3.166   3.207   6.212 -0.7979 -0.9559 -0.5281
  186POPC   O3121317   3.237   3.251   6.017  0.1806  0.3129  0.2921
  186POPC   C3121318   3.187   3.141   5.970  0.1821  0.2376  0.1452
  186POPC   O3221319   3.152   3.043   6.040  0.0409  0.2632  0.4719
  186POPC   C3221320   3.191   3.147   5.812 -0.3795 -0.5981  0.2489
  186POPC   H2X21321   3.297   3.119   5.791 -0.6204 -1.3475 -0.0067
  186POPC   H2Y21322   3.182   3.252   5.777  0.8420 -1.7514 -4.3264
  186POPC   C2321323   3.806   3.211   5.956  0.2577 -0.1880 -0.2576
  186POPC   H3R21324   3.827   3.102   5.965  0.5006 -0.3036 -1.9776
  186POPC   H3S21325   3.902   3.261   5.982  1.4724 -1.6936 -1.6540
  186POPC   C2421326   3.770   3.253   5.814 -0.1002  0.5253 -0.2410
  186POPC   H4R21327   3.861   3.270   5.753 -0.7050 -1.5303 -1.8089
  186POPC   H4S21328   3.704   3.341   5.826 -2.1228 -1.0468  0.8122
  186POPC   C2521329   3.677   3.150   5.749  0.5386  0.8625 -0.3538
  186POPC   H5R21330   3.585   3.156   5.810 -0.6005 -0.3598 -1.8580
  186POPC   H5S21331   3.730   3.052   5.747 -0.2866  0.4077 -2.4293
  186POPC   C2621332   3.631   3.200   5.614  0.7418 -0.3945 -0.3405
  186POPC   H6R21333   3.707   3.165   5.540 -0.3954 -0.5524 -1.4750
  186POPC   H6S21334   3.611   3.308   5.629  0.8198 -0.4610  0.2409
  186POPC   C2721335   3.508   3.124   5.557 -0.5294  0.2120 -0.3616
  186POPC   H7R21336   3.416   3.161   5.608  0.5462  1.9429  0.3971
  186POPC   H7S21337   3.515   3.018   5.591 -1.8247  0.2981  0.2298
  186POPC   C2821338   3.498   3.129   5.399  0.5442 -0.5449  0.5342
  186POPC   H8R21339   3.469   3.033   5.351  0.9806  0.5651 -2.0942
  186POPC   H8S21340   3.606   3.125   5.372  0.1251 -0.2938 -1.3194
  186POPC   C2921341   3.430   3.243   5.333 -0.0752 -0.7274  0.8167
  186POPC   H9121342   3.468   3.345   5.348 -1.2538  0.3400 -2.5269
  186POPC  C21021343   3.330   3.238   5.241 -0.3723  0.5359  0.0515
  186POPC  H10121344   3.293   3.334   5.203  0.8388  0.1958 -2.1262
  186POPC  C21121345   3.260   3.115   5.187  0.7696 -0.4021 -0.2540
  186POPC  H11R21346   3.156   3.137   5.152  1.5301  0.3475 -2.1811
  186POPC  H11S21347   3.262   3.051   5.278  1.2845  0.1084  0.0984
  186POPC  C21221348   3.331   3.044   5.067  0.3586  0.3397  0.5798
  186POPC  H12R21349   3.301   2.938   5.053  2.7675 -0.6322  2.1584
  186POPC  H12S21350   3.439   3.048   5.091  0.2952 -0.7358  1.1161
  186POPC  C21321351   3.304   3.116   4.930  0.5728 -0.5560  0.2086
  186POPC  H13R21352   3.358   3.213   4.925 -2.6771  1.4091  0.0816
  186POPC  H13S21353   3.195   3.141   4.934  0.6576 -0.3134  1.3978
  186POPC  C21421354   3.322   3.032   4.810  0.2513  1.0939 -0.1057
  186POPC  H14R21355   3.258   2.941   4.814  2.5709 -0.7553 -2.0143
  186POPC  H14S21356   3.426   2.993   4.810  0.0662  0.4466  2.3022
  186POPC  C21521357   3.281   3.097   4.678  0.8254  0.0909  0.4036
  186POPC  H15R21358   3.347   3.186   4.667 -0.1563  0.5303 -3.6158
  186POPC  H15S21359   3.177   3.136   4.673 -0.3709 -2.8528  0.3452
  186POPC  C21621360   3.308   3.012   4.554 -0.0107  0.0083  0.0291
  186POPC  H16R21361   3.241   2.923   4.554  0.7149 -0.5486 -0.3158
  186POPC  H16S21362   3.413   2.977   4.566  0.0873  0.4087  0.3552
  186POPC  C21721363   3.289   3.085   4.420 -0.1216 -0.0678 -0.6512
  186POPC  H17R21364   3.191   3.135   4.403 -0.2022 -0.6039 -1.9157
  186POPC  H17S21365   3.284   3.008   4.340 -1.9313 -0.2551 -0.3947
  186POPC  C21821366   3.392   3.194   4.392 -0.0788  0.5582  0.2315
  186POPC  H18R21367   3.362   3.259   4.307 -0.0148  0.8457  0.4283
  186POPC  H18S21368   3.491   3.149   4.368  0.7393  1.5388  1.6348
  186POPC  H18T21369   3.416   3.273   4.465 -0.3038  1.4052 -0.5914
  186POPC   C3321370   3.090   3.064   5.728 -0.1457  0.4064 -0.2916
  186POPC   H3X21371   2.987   3.065   5.770  0.0429 -1.3826  0.2790
  186POPC   H3Y21372   3.123   2.959   5.736  0.8483  0.6507 -1.0421
  186POPC   C3421373   3.090   3.109   5.578 -0.1156 -0.0372  0.5583
  186POPC   H4X21374   3.031   3.038   5.516 -1.2945  2.0269 -0.8188
  186POPC   H4Y21375   3.189   3.108   5.527 -1.2570 -2.0997 -1.8861
  186POPC   C3521376   3.019   3.243   5.549 -0.0541 -0.0061  0.1569
  186POPC   H5X21377   3.061   3.333   5.598  0.3902 -1.5207  2.7380
  186POPC   H5Y21378   2.915   3.239   5.586 -0.3514  0.1223 -0.6334
  186POPC   C3621379   2.989   3.269   5.403  0.0993 -0.2305 -0.8124
  186POPC   H6X21380   2.950   3.176   5.356 -0.1896 -0.7728  0.4700
  186POPC   H6Y21381   3.085   3.290   5.351 -0.1759 -0.6089 -1.4925
  186POPC   C3721382   2.892   3.382   5.363 -0.5603 -0.0784  0.4912
  186POPC   H7X21383   2.939   3.471   5.409 -1.7617 -0.1496  1.9079
  186POPC   H7Y21384   2.787   3.361   5.393 -0.2182 -1.0088  1.0927
  186POPC   C3821385   2.889   3.406   5.207 -0.6101 -0.5706 -0.2040
  186POPC   H8X21386   2.993   3.428   5.175 -1.0823  0.7905 -0.9002
  186POPC   H8Y21387   2.828   3.497   5.188  0.8074  0.3686 -0.3677
  186POPC   C3921388   2.843   3.289   5.121 -0.0068  0.0189 -1.1945
  186POPC   H9X21389   2.757   3.245   5.175 -0.5914  2.0960 -0.3098
  186POPC   H9Y21390   2.920   3.211   5.103 -0.7921 -0.6964 -1.4677
  186POPC  C31021391   2.800   3.321   4.980  0.1607 -0.1381 -0.7408
  186POPC  H10X21392   2.802   3.233   4.913 -0.3722 -0.0811 -0.8324
  186POPC  H10Y21393   2.875   3.389   4.934 -0.3694 -0.1846 -1.6915
  186POPC  C31121394   2.663   3.383   4.957  0.0659 -0.4503 -0.0514
  186POPC  H11X21395   2.629   3.441   5.045  1.6936  1.5472 -0.6568
  186POPC  H11Y21396   2.598   3.295   4.938 -0.9312  0.0367  0.9696
  186POPC  C31221397   2.647   3.481   4.838  0.7026  0.1621 -1.0578
  186POPC  H12X21398   2.705   3.571   4.868 -0.3588 -0.0261  1.9464
  186POPC  H12Y21399   2.543   3.515   4.816  0.0062 -1.4090 -0.4117
  186POPC  C31321400   2.701   3.431   4.700 -0.3872  0.1946 -0.4730
  186POPC  H13X21401   2.634   3.351   4.661 -0.1585 -0.0533 -0.3581
  186POPC  H13Y21402   2.803   3.389   4.714  0.2295 -0.3072 -4.9824
  186POPC  C31421403   2.709   3.552   4.597  0.1303  0.6405  0.2232
  186POPC  H14X21404   2.774   3.627   4.648  2.6827 -0.5636 -1.0513
  186POPC  H14Y21405   2.608   3.597   4.593  0.3762  1.2277  0.5245
  186POPC  C31521406   2.767   3.516   4.458  0.4104 -0.0451  0.3245
  186POPC  H15X21407   2.705   3.444   4.402  0.0243  0.0360  0.6383
  186POPC  H15Y21408   2.874   3.488   4.470 -0.0383 -0.9961  2.5716
  186POPC  C31621409   2.765   3.633   4.367  0.4878 -0.2002 -0.8605
  186POPC  H16X21410   2.851   3.702   4.380 -1.3101  1.9080  0.4003
  186POPC  H16Y21411   2.675   3.697   4.367  0.8271  0.2858 -0.3115
  186POPC  H16Z21412   2.771   3.601   4.260 -0.9312  0.7971 -1.2591
  187POPC     N21413   5.796   1.534   2.395  0.7115  0.0143 -0.0630
  187POPC   C1221414   5.807   1.550   2.541 -0.4285 -0.1855  0.2029
  187POPC  H12A21415   5.903   1.592   2.566 -1.7919  4.9514 -1.7022
  187POPC  H12B21416   5.801   1.453   2.587  1.5808  0.3732  1.7697
  187POPC   C1321417   5.875   1.410   2.351  0.6329  0.5000  0.7498
  187POPC  H13A21418   5.878   1.401   2.243  0.5037 -1.1035  0.8619
  187POPC  H13B21419   5.979   1.411   2.380  1.1097 -3.4391 -0.2151
  187POPC  H13C21420   5.833   1.323   2.398  3.0112  0.2879  2.6524
  187POPC   C1421421   5.651   1.514   2.365  0.2822  0.6890  0.1590
  187POPC  H14A21422   5.608   1.425   2.408 -1.6070  1.3135 -0.3540
  187POPC  H14B21423   5.590   1.592   2.408 -0.6779  1.9300 -3.2118
  187POPC  H14C21424   5.640   1.514   2.258 -0.2894 -0.3582  0.2117
  187POPC   C1521425   5.847   1.658   2.324  0.4570  0.3126  0.3558
  187POPC  H15A21426   5.955   1.647   2.321  0.3313 -0.9958 -1.3312
  187POPC  H15B21427   5.836   1.755   2.370 -0.2546 -0.3829  1.7164
  187POPC  H15C21428   5.805   1.659   2.225 -0.4818  0.0776  0.7363
  187POPC   C1121429   5.708   1.643   2.618 -0.0850  0.1702  0.2074
  187POPC  H11A21430   5.745   1.639   2.723 -0.9883  0.8474  0.5568
  187POPC  H11B21431   5.608   1.596   2.631  0.1145 -0.1584  0.5980
  187POPC     P21432   5.814   1.879   2.601 -0.2947 -0.2009  0.1179
  187POPC   O1321433   5.827   1.973   2.482 -0.4167  0.8191  0.8336
  187POPC   O1421434   5.933   1.797   2.626  0.1832 -0.5597  0.0260
  187POPC   O1221435   5.688   1.780   2.572 -0.3508  0.0365 -0.1412
  187POPC   O1121436   5.771   1.957   2.727  0.6656  0.3615  0.1663
  187POPC    C121437   5.642   2.016   2.736 -0.3311  0.6639 -0.8086
  187POPC    HA21438   5.564   1.970   2.671 -1.8587  0.8321  0.8259
  187POPC    HB21439   5.651   2.125   2.715  1.9545  0.6534 -0.1399
  187POPC    C221440   5.580   2.003   2.879 -0.3978  0.5203 -0.1879
  187POPC    HS21441   5.648   2.059   2.948  1.0097  0.7943 -1.7307
  187POPC   O2121442   5.584   1.865   2.924 -0.5494 -0.4863  0.1881
  187POPC   C2121443   5.700   1.828   2.992 -0.1973 -0.2206  0.5755
  187POPC   O2221444   5.792   1.906   3.010 -0.4900 -0.2910 -1.0761
  187POPC   C2221445   5.690   1.686   3.040  0.3097  0.0598 -0.9743
  187POPC   H2R21446   5.794   1.662   3.072  0.2645 -0.5242 -1.2533
  187POPC   H2S21447   5.662   1.614   2.960 -1.4995  1.1191 -1.3362
  187POPC    C321448   5.435   2.065   2.886 -0.7527  0.6954 -0.8863
  187POPC    HX21449   5.361   1.998   2.838 -1.3074 -1.3090  2.4930
  187POPC    HY21450   5.443   2.168   2.844  3.5694  1.0182  0.1893
  187POPC   O3121451   5.395   2.099   3.022  0.6717 -0.0099  0.6280
  187POPC   C3121452   5.307   2.023   3.086 -0.4988 -0.0173 -0.2928
  187POPC   O3221453   5.254   1.919   3.042 -0.0423 -0.8224  0.1127
  187POPC   C3221454   5.293   2.062   3.240  0.8709 -0.4773  0.3222
  187POPC   H2X21455   5.254   2.166   3.248 -0.4552 -0.7738 -1.6410
  187POPC   H2Y21456   5.391   2.046   3.290  0.8103 -1.5168  0.1425
  187POPC   C2321457   5.595   1.672   3.155  0.3243 -0.3132 -0.0583
  187POPC   H3R21458   5.575   1.565   3.172  0.6656 -0.6520 -1.6337
  187POPC   H3S21459   5.499   1.711   3.115  1.0982 -0.1700 -1.8830
  187POPC   C2421460   5.651   1.742   3.277  0.3905  0.1215  0.6018
  187POPC   H4R21461   5.668   1.850   3.257  0.8158  0.2275  1.4737
  187POPC   H4S21462   5.752   1.697   3.287  0.4942  0.1273 -0.3794
  187POPC   C2521463   5.565   1.717   3.401 -0.6379 -0.0659  0.0830
  187POPC   H5R21464   5.575   1.612   3.434 -0.8038 -0.0493  0.1895
  187POPC   H5S21465   5.457   1.736   3.382 -0.6191  0.6605  0.6461
  187POPC   C2621466   5.622   1.794   3.512  0.5914  0.1707 -0.3280
  187POPC   H6R21467   5.629   1.903   3.490 -2.0937  0.5345  0.2598
  187POPC   H6S21468   5.724   1.756   3.534 -0.0372 -1.1259  0.4502
  187POPC   C2721469   5.534   1.788   3.642  0.1900 -0.1826  0.2154
  187POPC   H7R21470   5.479   1.691   3.644 -1.2516  0.6097  1.8733
  187POPC   H7S21471   5.459   1.870   3.644 -0.2087 -0.5295  3.3187
  187POPC   C2821472   5.611   1.802   3.780 -0.1670  0.0100 -0.2356
  187POPC   H8R21473   5.700   1.736   3.786 -0.3513 -0.2235 -0.0130
  187POPC   H8S21474   5.555   1.782   3.874  2.1435 -2.1486  0.8034
  187POPC   C2921475   5.663   1.940   3.777  0.4597 -0.3316 -0.0645
  187POPC   H9121476   5.734   1.964   3.697  1.1506 -0.4992  0.4813
  187POPC  C21021477   5.615   2.036   3.868 -0.6847  0.5736  0.9678
  187POPC  H10121478   5.663   2.135   3.857  2.5188 -0.8413  0.9782
  187POPC  C21121479   5.511   2.025   3.978  0.6353  0.1178  0.1248
  187POPC  H11R21480   5.436   1.950   3.946  0.8781  0.2122 -0.7059
  187POPC  H11S21481   5.460   2.124   3.966 -1.4754 -0.8930  0.3071
  187POPC  C21221482   5.569   2.013   4.119  0.2287 -0.5060  0.2848
  187POPC  H12R21483   5.488   2.036   4.192  0.4718  1.3357  0.0249
  187POPC  H12S21484   5.643   2.093   4.141 -0.7426  0.9087 -1.2957
  187POPC  C21321485   5.621   1.876   4.144  0.9656  0.8040 -0.2815
  187POPC  H13R21486   5.692   1.829   4.072  2.0273  0.2127  1.0866
  187POPC  H13S21487   5.535   1.806   4.146  1.2774  0.0727 -4.0629
  187POPC  C21421488   5.698   1.850   4.274 -0.8016  0.7566 -0.2854
  187POPC  H14R21489   5.638   1.883   4.361 -1.1357  0.7051 -0.4934
  187POPC  H14S21490   5.768   1.936   4.268 -0.1967  0.2196 -1.3641
  187POPC  C21521491   5.757   1.714   4.296 -0.6963 -0.1147  0.1106
  187POPC  H15R21492   5.857   1.697   4.251 -0.9702  1.4102 -1.1645
  187POPC  H15S21493   5.692   1.637   4.250 -0.4697  2.4860 -5.2934
  187POPC  C21621494   5.762   1.683   4.448  0.1283  0.0266  0.5715
  187POPC  H16R21495   5.661   1.681   4.494 -0.3632  3.1131 -0.1670
  187POPC  H16S21496   5.813   1.771   4.493  0.1046  0.3175  0.0409
  187POPC  C21721497   5.830   1.549   4.475 -0.1611 -0.2666 -0.3600
  187POPC  H17R21498   5.935   1.561   4.441 -0.0481  1.3386  0.4716
  187POPC  H17S21499   5.772   1.475   4.416 -0.2119  0.9144 -1.8654
  187POPC  C21821500   5.829   1.499   4.619 -0.4689 -0.2879 -0.2570
  187POPC  H18R21501   5.874   1.400   4.644  0.6029  0.6636  1.8871
  187POPC  H18S21502   5.724   1.494   4.655 -0.6392 -0.5091 -0.7749
  187POPC  H18T21503   5.878   1.581   4.677 -1.3854  1.7597 -2.2309
  187POPC   C3321504   5.204   1.960   3.317 -0.0518  0.1174  0.5562
  187POPC   H3X21505   5.226   1.855   3.287  2.3225  0.4139  0.9986
  187POPC   H3Y21506   5.096   1.977   3.297 -0.4971 -2.0694  0.8017
  187POPC   C3421507   5.224   1.975   3.468 -0.0148  0.7497 -0.0004
  187POPC   H4X21508   5.184   2.074   3.498 -0.3039 -0.2614  3.4752
  187POPC   H4Y21509   5.332   1.968   3.493  0.0228  1.6638  0.1011
  187POPC   C3521510   5.144   1.874   3.549 -0.1010  0.6186 -0.5242
  187POPC   H5X21511   5.193   1.876   3.648  0.5294  0.3666 -0.8282
  187POPC   H5Y21512   5.154   1.774   3.501  1.0753  0.2011  0.5383
  187POPC   C3621513   4.994   1.908   3.567 -0.6588  0.1163 -0.5434
  187POPC   H6X21514   4.953   1.818   3.617  0.9062 -0.6010 -0.4875
  187POPC   H6Y21515   4.945   1.923   3.468 -0.6196 -0.8929 -0.7239
  187POPC   C3721516   4.970   2.017   3.675  0.1314 -0.4753  0.0789
  187POPC   H7X21517   5.013   2.108   3.627  1.5052 -1.4187 -0.5403
  187POPC   H7Y21518   5.031   1.992   3.764  0.8001  1.8752  0.3415
  187POPC   C3821519   4.813   2.034   3.716 -0.0803  0.1226 -0.2421
  187POPC   H8X21520   4.764   1.946   3.763  1.1501 -1.7066 -2.2151
  187POPC   H8Y21521   4.755   2.050   3.623 -2.4206  3.4132  1.5645
  187POPC   C3921522   4.802   2.169   3.798  0.1471 -0.0478  0.4496
  187POPC   H9X21523   4.873   2.245   3.757 -0.8146  1.0306  0.7180
  187POPC   H9Y21524   4.832   2.165   3.905  0.4967  2.4939  0.5279
  187POPC  C31021525   4.654   2.212   3.802  0.5052 -0.1011 -0.2065
  187POPC  H10X21526   4.590   2.127   3.836 -0.6022  1.4272  1.7081
  187POPC  H10Y21527   4.603   2.246   3.709  1.0414  3.9415  0.8114
  187POPC  C31121528   4.641   2.327   3.901 -0.0853 -0.0889  0.2765
  187POPC  H11X21529   4.548   2.384   3.883 -0.8953 -1.9635 -2.0992
  187POPC  H11Y21530   4.730   2.394   3.895 -0.2033  0.2259  1.8161
  187POPC  C31221531   4.616   2.280   4.040  0.2473  0.1119 -0.0818
  187POPC  H12X21532   4.698   2.218   4.081 -0.7696  0.1533  2.1705
  187POPC  H12Y21533   4.523   2.219   4.044 -1.6301  2.8298  0.3637
  187POPC  C31321534   4.591   2.404   4.130  1.0661 -0.2665 -0.6551
  187POPC  H13X21535   4.571   2.361   4.231 -1.3447  0.6389 -0.7000
  187POPC  H13Y21536   4.495   2.434   4.085 -0.0634 -0.1752  1.6824
  187POPC  C31421537   4.691   2.521   4.129 -0.0584  0.0420  0.4926
  187POPC  H14X21538   4.671   2.588   4.042  0.9604 -1.3360 -0.8640
  187POPC  H14Y21539   4.792   2.480   4.109 -0.5973 -0.4697 -1.4363
  187POPC  C31521540   4.681   2.607   4.258 -0.1798 -0.5976  0.5989
  187POPC  H15X21541   4.684   2.533   4.341 -1.2566 -0.6745  0.5918
  187POPC  H15Y21542   4.588   2.667   4.265  0.7223  0.8248  0.6786
  187POPC  C31621543   4.799   2.703   4.266 -0.0779 -0.5624 -0.2427
  187POPC  H16X21544   4.799   2.750   4.367 -0.7237  0.9666 -0.9255
  187POPC  H16Y21545   4.781   2.771   4.180  0.2588 -1.2485 -0.8610
  187POPC  H16Z21546   4.895   2.649   4.254  1.7146  2.6350 -1.8855
  188POPC     N21547   4.939   0.096   1.900 -0.5574  0.2129  0.3946
  188POPC   C1221548   4.962   0.036   2.041  0.0851 -0.2947  0.3107
  188POPC  H12A21549   4.913  -0.060   2.042  0.7913 -0.6570  0.8561
  188POPC  H12B21550   4.920   0.105   2.113 -0.3043 -1.5463  1.3132
  188POPC   C1321551   4.983   0.243   1.895  0.4831 -0.0622  0.4399
  188POPC  H13A21552   4.905   0.303   1.940 -0.3820  2.0204 -3.4218
  188POPC  H13B21553   5.079   0.254   1.942 -0.2206  1.6741  1.5485
  188POPC  H13C21554   4.995   0.282   1.795 -0.6903  0.8928  0.6457
  188POPC   C1421555   5.022   0.028   1.795 -0.9108  0.6348 -0.3029
  188POPC  H14A21556   5.019  -0.079   1.811 -0.5831  0.8640  1.5783
  188POPC  H14B21557   4.992   0.051   1.694  1.0267 -0.5205 -1.2067
  188POPC  H14C21558   5.128   0.047   1.803 -0.7263 -1.0913  4.0425
  188POPC   C1521559   4.788   0.083   1.874  1.0070 -0.0016  0.3671
  188POPC  H15A21560   4.733   0.145   1.943  0.3117  1.0675 -1.0848
  188POPC  H15B21561   4.741  -0.013   1.889 -1.5364  1.0492 -0.3826
  188POPC  H15C21562   4.759   0.108   1.773  1.4350  3.1411  0.9127
  188POPC   C1121563   5.106   0.000   2.079 -0.6447 -0.3131 -0.0247
  188POPC  H11A21564   5.136  -0.087   2.017 -0.9050 -0.9339  0.7093
  188POPC  H11B21565   5.116  -0.034   2.185  2.7193  0.2216 -0.0651
  188POPC     P21566   5.342   0.112   2.116  0.2537 -0.3545 -0.1676
  188POPC   O1321567   5.407   0.247   2.088  0.0948 -0.9814  0.3416
  188POPC   O1421568   5.415  -0.008   2.058  0.0962  0.0073 -0.5529
  188POPC   O1221569   5.195   0.113   2.061 -0.0164  0.6155  0.3357
  188POPC   O1121570   5.322   0.107   2.267 -0.3555  0.7254 -0.2741
  188POPC    C121571   5.222   0.173   2.341  0.5073  0.1700 -1.2257
  188POPC    HA21572   5.217   0.127   2.442 -1.6843 -0.3404 -1.5147
  188POPC    HB21573   5.120   0.159   2.299  0.1597 -1.2107 -0.0210
  188POPC    C221574   5.250   0.326   2.361  0.6930  0.9610  0.7220
  188POPC    HS21575   5.246   0.374   2.261  0.0059  0.4000  0.4695
  188POPC   O2121576   5.379   0.333   2.424 -0.5533 -0.3822  0.2133
  188POPC   C2121577   5.425   0.461   2.423 -0.2901  0.2321 -1.0584
  188POPC   O2221578   5.385   0.545   2.346 -0.0935 -0.0883  0.4695
  188POPC   C2221579   5.545   0.475   2.519  0.8080 -0.3917  0.5331
  188POPC   H2R21580   5.636   0.437   2.469  0.0419 -1.9157  0.2415
  188POPC   H2S21581   5.523   0.413   2.608 -4.9225 -0.3781 -0.4814
  188POPC    C321582   5.139   0.391   2.443 -0.5018  0.2515 -0.1915
  188POPC    HX21583   5.048   0.404   2.381 -0.2992  0.6350 -0.4154
  188POPC    HY21584   5.180   0.490   2.472 -1.4299  0.7658 -0.5893
  188POPC   O3121585   5.099   0.321   2.566  0.0580  0.1503 -0.3251
  188POPC   C3121586   5.175   0.351   2.672  0.2270 -0.0987  0.6358
  188POPC   O3221587   5.257   0.438   2.671 -0.6121 -0.1422  0.0301
  188POPC   C3221588   5.121   0.283   2.798  0.4485 -1.0874 -0.8325
  188POPC   H2X21589   5.018   0.322   2.807  0.3686 -1.6109  0.6704
  188POPC   H2Y21590   5.174   0.338   2.879 -0.1491  0.0308 -1.1817
  188POPC   C2321591   5.544   0.625   2.567 -0.0413 -0.1758  0.1701
  188POPC   H3R21592   5.446   0.647   2.613 -1.0759 -2.6193 -0.6972
  188POPC   H3S21593   5.564   0.697   2.485  0.4093  0.1437  0.5509
  188POPC   C2421594   5.650   0.641   2.678 -0.6130  0.8939  0.2728
  188POPC   H4R21595   5.743   0.608   2.627 -0.7328  0.2796  0.4469
  188POPC   H4S21596   5.637   0.569   2.762 -1.6312 -1.8916 -2.0972
  188POPC   C2521597   5.671   0.787   2.733  0.2814 -0.3691 -0.2909
  188POPC   H5R21598   5.575   0.799   2.789  0.3897 -2.1570  0.3311
  188POPC   H5S21599   5.683   0.854   2.645  0.0494  1.7620  1.2280
  188POPC   C2621600   5.800   0.793   2.820  0.3436 -0.2124 -0.4487
  188POPC   H6R21601   5.883   0.747   2.762  0.7285  0.9163 -0.8168
  188POPC   H6S21602   5.790   0.730   2.911  0.9860 -0.7031 -0.7072
  188POPC   C2721603   5.835   0.934   2.865  0.2587 -0.3513  0.2191
  188POPC   H7R21604   5.857   1.004   2.782  0.1289  0.9520  1.2530
  188POPC   H7S21605   5.934   0.927   2.915 -0.8310  1.2864  2.8204
  188POPC   C2821606   5.733   1.019   2.955 -0.3908  0.6264 -0.3788
  188POPC   H8R21607   5.642   1.020   2.890 -1.3101 -1.7977  0.7362
  188POPC   H8S21608   5.775   1.119   2.978 -0.0129  0.0439  1.6933
  188POPC   C2921609   5.727   0.953   3.088  0.3661 -0.8151  0.6221
  188POPC   H9121610   5.725   0.843   3.091  4.1146 -1.0101  0.1715
  188POPC  C21021611   5.717   1.014   3.206 -0.1718  0.2056 -0.0515
  188POPC  H10121612   5.711   0.943   3.290 -2.5900  0.4468  0.0593
  188POPC  C21121613   5.718   1.162   3.243  0.4446  0.3838 -0.3260
  188POPC  H11R21614   5.637   1.187   3.314 -0.2487 -0.2086 -0.9007
  188POPC  H11S21615   5.696   1.227   3.155 -3.2617 -1.5007 -0.9806
  188POPC  C21221616   5.843   1.205   3.312  0.1268 -0.1205 -0.9147
  188POPC  H12R21617   5.821   1.304   3.358 -1.6159 -1.0334  0.3182
  188POPC  H12S21618   5.930   1.214   3.243  0.8248  2.2109  0.1652
  188POPC  C21321619   5.888   1.114   3.438 -0.6971 -0.1820  0.0647
  188POPC  H13R21620   5.910   1.014   3.394  2.0118 -0.1290  1.0683
  188POPC  H13S21621   5.802   1.107   3.508 -1.1410  0.3604 -0.4204
  188POPC  C21421622   6.006   1.167   3.510  0.1189 -0.2425  0.2224
  188POPC  H14R21623   5.971   1.248   3.577  0.7334 -0.0251  0.2807
  188POPC  H14S21624   6.077   1.206   3.435 -0.0876  1.4979  0.8909
  188POPC  C21521625   6.082   1.073   3.614  0.1992 -0.2300 -0.1268
  188POPC  H15R21626   6.119   0.991   3.549  1.1797 -0.2333  0.4290
  188POPC  H15S21627   5.998   1.039   3.679  0.6439 -0.5270  0.2922
  188POPC  C21621628   6.176   1.131   3.708 -0.9091  0.1208  0.1725
  188POPC  H16R21629   6.132   1.215   3.765  2.3159  1.2849  1.1871
  188POPC  H16S21630   6.263   1.168   3.650  1.0387 -1.7468  1.7100
  188POPC  C21721631   6.227   1.029   3.812  1.1367  0.6083 -0.3406
  188POPC  H17R21632   6.311   1.075   3.868  0.6287 -0.1662  1.0967
  188POPC  H17S21633   6.269   0.944   3.754  0.8475  1.4190 -1.7834
  188POPC  C21821634   6.117   0.975   3.905  0.2820 -0.6499 -0.1970
  188POPC  H18R21635   6.162   0.908   3.982  1.2832 -0.4588 -0.6021
  188POPC  H18S21636   6.047   0.910   3.849 -0.1304 -0.6412  0.3034
  188POPC  H18T21637   6.060   1.055   3.956  0.0566 -1.5588  1.0320
  188POPC   C3321638   5.111   0.133   2.794 -0.1849 -0.4018  0.2588
  188POPC   H3X21639   5.210   0.084   2.793 -0.1728 -0.3758 -1.3877
  188POPC   H3Y21640   5.065   0.097   2.700 -1.4723  1.0134  0.3026
  188POPC   C3421641   5.027   0.073   2.909  0.1680 -0.1217 -0.1678
  188POPC   H4X21642   5.044  -0.034   2.884  0.6486  0.3915 -2.2900
  188POPC   H4Y21643   4.920   0.091   2.885  0.8870  3.0200 -1.5185
  188POPC   C3521644   5.064   0.104   3.053 -0.3007  0.0541 -0.2061
  188POPC   H5X21645   5.035   0.209   3.076 -1.2084  0.0416 -1.2317
  188POPC   H5Y21646   5.174   0.087   3.064 -0.4557 -2.1941 -1.5331
  188POPC   C3621647   4.991   0.012   3.156 -0.4674 -0.5624 -0.6635
  188POPC   H6X21648   5.040  -0.086   3.143 -3.4144 -2.5850  1.8567
  188POPC   H6Y21649   4.883  -0.002   3.133 -1.2269 -1.9081  3.0121
  188POPC   C3721650   4.991   0.072   3.296 -0.4147 -0.0770  0.2077
  188POPC   H7X21651   4.924   0.159   3.287 -0.4874 -0.1294  0.2438
  188POPC   H7Y21652   5.091   0.116   3.316 -0.1917 -0.6319  0.3571
  188POPC   C3821653   4.939  -0.017   3.407 -0.1051 -0.4810  0.7728
  188POPC   H8X21654   5.001  -0.108   3.418  0.7932 -0.1148 -0.9375
  188POPC   H8Y21655   4.836  -0.040   3.372 -0.0648  0.3981  0.0525
  188POPC   C3921656   4.924   0.061   3.537  0.2568  0.5268  0.8594
  188POPC   H9X21657   4.910   0.168   3.511  0.4122  1.2015  3.3215
  188POPC   H9Y21658   5.026   0.068   3.581  0.5212  2.6571  0.0354
  188POPC  C31021659   4.806   0.011   3.618 -0.2561  0.2875 -0.1671
  188POPC  H10X21660   4.721  -0.021   3.554  0.2463 -2.1207  0.2771
  188POPC  H10Y21661   4.781   0.096   3.685  2.5778 -0.2885  1.8417
  188POPC  C31121662   4.838  -0.103   3.713 -0.3602  0.2482 -0.2778
  188POPC  H11X21663   4.921  -0.160   3.666  0.2295  0.3579  0.6235
  188POPC  H11Y21664   4.749  -0.170   3.716 -0.0948 -0.0674  0.7903
  188POPC  C31221665   4.896  -0.066   3.843 -0.0666  0.4169  0.2388
  188POPC  H12X21666   4.821  -0.014   3.908  2.0202  1.5175  1.9075
  188POPC  H12Y21667   4.978   0.006   3.824  0.1112  0.1506  0.0004
  188POPC  C31321668   4.960  -0.186   3.912 -0.0508  0.2959  0.3548
  188POPC  H13X21669   5.036  -0.233   3.845 -0.8503 -1.5493  0.6845
  188POPC  H13Y21670   4.887  -0.269   3.922  0.7029 -0.3283  0.7552
  188POPC  C31421671   5.003  -0.157   4.062  0.3424 -0.2685 -0.2511
  188POPC  H14X21672   5.060  -0.062   4.057 -1.2112  0.6504 -1.6013
  188POPC  H14Y21673   5.064  -0.241   4.102 -0.1024 -1.2288 -1.4875
  188POPC  C31521674   4.878  -0.131   4.148  0.1935  0.4257  0.1689
  188POPC  H15X21675   4.803  -0.211   4.129  1.1075  0.0449 -2.2763
  188POPC  H15Y21676   4.840  -0.031   4.117  0.0336 -0.3593 -2.4216
  188POPC  C31621677   4.908  -0.145   4.299 -0.6185 -0.2773  0.3929
  188POPC  H16X21678   4.845  -0.082   4.364 -0.0021  2.2120 -1.2671
  188POPC  H16Y21679   5.015  -0.117   4.313 -0.3519  0.0983 -1.9288
  188POPC  H16Z21680   4.913  -0.251   4.330  2.5616 -0.4821 -0.4721
  189SAPI   C1221681   2.662   3.128   6.673 -0.0893 -0.0166 -0.1977
  189SAPI    H221682   2.567   3.141   6.618 -0.1730 -0.3727 -0.1386
  189SAPI    O221683   2.669   3.226   6.783 -0.2092 -0.4192  0.1871
  189SAPI   HO221684   2.610   3.299   6.765 -2.2455 -1.6513  1.5147
  189SAPI   C1321685   2.661   2.991   6.733  0.0426  0.0285 -0.5758
  189SAPI    H321686   2.658   2.909   6.658  0.1360 -0.4342 -0.0814
  189SAPI    O321687   2.549   2.970   6.820  0.6111 -0.7191  0.0151
  189SAPI   HO321688   2.515   2.881   6.834 -1.7338  0.2055  0.6890
  189SAPI   C1421689   2.788   2.966   6.804  0.1306  0.1334 -0.1445
  189SAPI    H421690   2.787   3.021   6.901 -1.0922  2.6479 -1.5131
  189SAPI    O421691   2.796   2.829   6.848 -0.0723  0.6582 -0.4378
  189SAPI   HO421692   2.862   2.781   6.798 -1.1169 -0.3263 -0.9287
  189SAPI   C1521693   2.919   3.001   6.730 -0.4513  0.1675 -0.7768
  189SAPI    H521694   2.936   2.907   6.674 -0.2379  0.5612 -1.3826
  189SAPI    O521695   3.022   3.032   6.830  0.0927  0.3306 -0.0597
  189SAPI   HO521696   3.013   3.119   6.870  0.1087  0.9121 -1.2695
  189SAPI   C1621697   2.913   3.103   6.621  0.9056  0.0702  0.2599
  189SAPI    H621698   2.959   3.195   6.661  3.3715  0.0368 -2.1910
  189SAPI    O621699   3.010   3.079   6.518  0.1674 -1.0315 -0.4911
  189SAPI   HO621700   3.061   3.161   6.514  1.3105 -1.7529 -1.5492
  189SAPI   C1121701   2.769   3.140   6.570 -0.6602  0.0498  0.0127
  189SAPI    H121702   2.747   3.069   6.487 -0.3149  0.9430 -0.8604
  189SAPI     P21703   2.677   3.356   6.432  0.2158  0.3940  0.1568
  189SAPI   O1321704   2.653   3.488   6.493  0.1687 -0.3829 -0.0214
  189SAPI   O1421705   2.558   3.271   6.392 -0.3732  0.5342  0.2928
  189SAPI   O1221706   2.778   3.272   6.523 -0.2963 -0.2127  0.5911
  189SAPI   O1121707   2.769   3.383   6.308  0.6539 -0.0493 -0.2952
  189SAPI    C121708   2.797   3.278   6.218 -0.8212 -0.1522 -0.1525
  189SAPI    HA21709   2.904   3.250   6.226 -1.2584 -1.3327  3.0487
  189SAPI    HB21710   2.748   3.184   6.251  0.2146  0.2182  2.7680
  189SAPI    C221711   2.761   3.308   6.071  0.5406 -0.5697  0.4134
  189SAPI    HS21712   2.798   3.220   6.014 -0.6663  0.0107 -1.3577
  189SAPI   O2121713   2.827   3.435   6.044  0.1917  0.1003 -0.4154
  189SAPI   C2121714   2.900   3.432   5.934 -0.2313 -0.6219 -0.1851
  189SAPI   O2221715   2.927   3.332   5.874 -0.2944 -0.3549  0.2394
  189SAPI   C2221716   2.943   3.575   5.901 -0.2425  0.0835 -0.1797
  189SAPI   H2R21717   2.864   3.647   5.930  0.1538  0.5076 -0.1350
  189SAPI   H2S21718   3.028   3.598   5.968 -0.3212  0.4876 -0.2158
  189SAPI    C321719   2.606   3.303   6.038  0.2482 -0.4460 -0.9790
  189SAPI    HX21720   2.572   3.399   6.082  1.1271 -0.8230  0.5829
  189SAPI    HY21721   2.562   3.227   6.106 -0.5802 -0.6547 -1.7228
  189SAPI   O3121722   2.579   3.303   5.900  0.6290  0.2174 -0.1881
  189SAPI   C3121723   2.571   3.178   5.848  0.1948  0.9977  0.2619
  189SAPI   O3221724   2.579   3.075   5.909  0.1943 -0.3118  0.6396
  189SAPI   C3221725   2.570   3.195   5.693 -0.3189  0.2151  0.1648
  189SAPI   H2X21726   2.664   3.248   5.667 -1.1813  1.5002 -0.4285
  189SAPI   H2Y21727   2.484   3.262   5.672 -1.7778 -1.0895  1.6961
  189SAPI   C2321728   2.985   3.597   5.758 -0.0389 -0.3462  0.4123
  189SAPI   H3R21729   2.902   3.611   5.686  0.3907 -2.3408 -0.5328
  189SAPI   H3S21730   3.033   3.503   5.723  1.8618  0.8023 -0.2285
  189SAPI   C2421731   3.074   3.716   5.750 -0.0981 -0.2034 -0.0552
  189SAPI   H4R21732   3.031   3.805   5.801  0.9434  0.0560  0.3864
  189SAPI   H4S21733   3.086   3.750   5.645  1.0140  3.1496  1.0429
  189SAPI   C2521734   3.216   3.696   5.797  0.4855 -0.4747 -0.3799
  189SAPI   H5R21735   3.250   3.749   5.887  0.3513  1.2017 -1.2744
  189SAPI   C2621736   3.316   3.621   5.745  0.4473  0.4128 -0.5221
  189SAPI   H6R21737   3.415   3.619   5.794 -0.4484 -2.6015  1.4518
  189SAPI   C2721738   3.302   3.532   5.623 -0.8053 -1.0133 -1.2467
  189SAPI   H7R21739   3.202   3.545   5.575 -0.0226  0.6270 -2.5299
  189SAPI   H7S21740   3.316   3.428   5.660 -0.9218 -0.9753 -1.0929
  189SAPI   C2821741   3.401   3.577   5.521 -0.0118 -0.2171  0.6102
  189SAPI   H8R21742   3.501   3.534   5.538 -1.1722 -2.9169  1.3229
  189SAPI   C2921743   3.374   3.637   5.404  0.1251 -0.2307 -0.3888
  189SAPI   H9R21744   3.456   3.651   5.332 -0.0913  2.5631 -0.1951
  189SAPI  C21021745   3.244   3.693   5.346 -0.4325  0.7592  0.2676
  189SAPI  H10R21746   3.197   3.741   5.434  1.6186  0.5491  1.5478
  189SAPI  H10S21747   3.176   3.609   5.322 -2.1811  1.1573  3.3060
  189SAPI  C21121748   3.268   3.802   5.232  0.0598 -0.1254  0.0552
  189SAPI  H11R21749   3.284   3.900   5.279 -1.0072  0.0957 -0.0331
  189SAPI  C21221750   3.240   3.808   5.097  0.3402  0.1071  0.2580
  189SAPI  H12R21751   3.254   3.903   5.043 -3.4478  1.0695  0.6776
  189SAPI  C21321752   3.200   3.694   5.008  0.2313  0.1763  0.5486
  189SAPI  H13R21753   3.115   3.731   4.946  0.6888 -0.8793 -0.7743
  189SAPI  H13S21754   3.171   3.600   5.060  0.1780 -0.4947 -0.6568
  189SAPI  C21421755   3.318   3.663   4.916  0.1614 -0.4375  0.4503
  189SAPI  H14R21756   3.419   3.670   4.959  0.2763 -0.1066  0.1325
  189SAPI  C21521757   3.313   3.629   4.787 -0.1042  0.0251  0.3155
  189SAPI  H15R21758   3.406   3.598   4.738  0.2933  0.4679  0.7794
  189SAPI  C21621759   3.186   3.620   4.700  0.1695 -0.7292 -0.7718
  189SAPI  H16R21760   3.164   3.725   4.672 -0.3246 -0.5578  0.2099
  189SAPI  H16S21761   3.102   3.565   4.748  0.2806 -1.3878 -1.3042
  189SAPI  C21721762   3.201   3.561   4.554 -0.0127  0.2269 -0.3884
  189SAPI  H17R21763   3.096   3.547   4.518 -1.1546 -0.0810  2.7267
  189SAPI  H17S21764   3.236   3.456   4.563  0.2360  0.4229  1.5027
  189SAPI  C21821765   3.299   3.630   4.465 -0.1877 -0.7157  0.6331
  189SAPI  H18R21766   3.405   3.632   4.498  1.3694  1.5396 -3.6228
  189SAPI  H18S21767   3.283   3.740   4.463  1.5658 -0.4272  0.7871
  189SAPI  C21921768   3.307   3.589   4.318 -0.4086 -0.2387 -0.1718
  189SAPI  H19R21769   3.212   3.615   4.266  0.0568  1.7227 -0.1317
  189SAPI  H19S21770   3.322   3.479   4.314 -1.2957 -0.3376 -2.3865
  189SAPI  C22021771   3.411   3.662   4.235 -0.0471 -0.3148 -0.2290
  189SAPI  H20R21772   3.511   3.680   4.280 -0.4825  1.1806  0.2122
  189SAPI  H20S21773   3.378   3.764   4.204  1.0727  0.0463 -0.2685
  189SAPI  H20T21774   3.437   3.607   4.142  0.2249 -0.4222 -0.0897
  189SAPI   C3321775   2.557   3.062   5.612  0.1002  0.6830 -0.2903
  189SAPI   H3X21776   2.461   3.011   5.632  0.7329  0.0428  1.3089
  189SAPI   H3Y21777   2.647   3.003   5.641  0.3954  1.7670  1.1058
  189SAPI   C3421778   2.565   3.093   5.465 -0.8633 -0.8637  0.3589
  189SAPI   H4X21779   2.589   2.998   5.412 -2.6858 -0.6646 -0.9277
  189SAPI   H4Y21780   2.651   3.160   5.441 -1.7412  1.5715  3.4003
  189SAPI   C3521781   2.441   3.153   5.403  0.0275  0.4017  0.5196
  189SAPI   H5X21782   2.407   3.252   5.442  1.3153  1.4697 -0.9462
  189SAPI   H5Y21783   2.355   3.082   5.411 -0.3413  0.3646 -2.5898
  189SAPI   C3621784   2.448   3.183   5.256 -0.3519 -0.0006  0.3214
  189SAPI   H6X21785   2.499   3.095   5.212 -1.3715 -0.2898 -0.3102
  189SAPI   H6Y21786   2.514   3.271   5.236 -2.6053  1.6936 -0.0643
  189SAPI   C3721787   2.311   3.215   5.202 -0.0799  0.4559  0.0246
  189SAPI   H7X21788   2.274   3.299   5.264 -0.5297  1.5010 -1.5925
  189SAPI   H7Y21789   2.238   3.131   5.209  0.2949  0.1735  0.5993
  189SAPI   C3821790   2.316   3.266   5.053 -0.1992  0.5044  0.0010
  189SAPI   H8X21791   2.335   3.184   4.980 -0.5925 -0.2505  0.7377
  189SAPI   H8Y21792   2.401   3.337   5.045  0.9785 -0.8860 -0.4512
  189SAPI   C3921793   2.184   3.338   5.009 -0.4775 -0.3963 -0.3005
  189SAPI   H9X21794   2.222   3.381   4.914  0.5711  1.8138  1.0300
  189SAPI   H9Y21795   2.167   3.411   5.091  2.1631 -1.5620  1.4110
  189SAPI  C31021796   2.064   3.244   4.988  0.6811  0.2547  0.3000
  189SAPI  H10X21797   2.054   3.181   5.080  1.4690 -2.0613 -1.1013
  189SAPI  H10Y21798   2.084   3.175   4.903  1.5507 -0.8819  1.3772
  189SAPI  C31121799   1.931   3.319   4.967  0.0492 -0.1133  0.0650
  189SAPI  H11X21800   1.945   3.410   4.905 -0.4867  1.2747  1.8768
  189SAPI  H11Y21801   1.887   3.365   5.059  0.8648  0.3411  0.2311
  189SAPI  C31221802   1.833   3.228   4.887  0.4714  0.6955 -0.1459
  189SAPI  H12X21803   1.890   3.176   4.806 -0.4454  0.0540 -0.3977
  189SAPI  H12Y21804   1.743   3.279   4.847  1.1667  1.9557 -0.1606
  189SAPI  C31321805   1.775   3.113   4.976 -0.2310  0.1749 -0.0586
  189SAPI  H13X21806   1.686   3.139   5.036 -0.4350  1.1592 -0.7806
  189SAPI  H13Y21807   1.861   3.068   5.032 -0.5832  1.1217  1.2847
  189SAPI  C31421808   1.727   2.996   4.893  0.2665 -0.0742 -0.1985
  189SAPI  H14X21809   1.805   2.931   4.847 -1.6395 -1.7854 -1.1865
  189SAPI  H14Y21810   1.675   3.039   4.804 -1.7293  0.1611  1.0334
  189SAPI  C31521811   1.630   2.904   4.964  0.0937 -0.4434 -0.2021
  189SAPI  H15X21812   1.576   2.848   4.884  0.4426 -0.2022 -0.6119
  189SAPI  H15Y21813   1.552   2.958   5.021 -0.6909 -2.0313  0.2878
  189SAPI  C31621814   1.703   2.806   5.049 -0.4443  0.4128  0.6943
  189SAPI  H16X21815   1.741   2.857   5.140  0.4244  1.3107 -0.1491
  189SAPI  H16Y21816   1.789   2.768   4.990 -1.2051 -0.9113  0.3967
  189SAPI  C31721817   1.615   2.683   5.088 -0.1602  0.3602  0.1446
  189SAPI  H17X21818   1.675   2.612   5.148 -0.0874  0.2962 -0.0026
  189SAPI  H17Y21819   1.597   2.632   4.991  1.7658  1.3329 -0.7814
  189SAPI  C31821820   1.486   2.710   5.159 -0.3839 -0.2408 -0.4611
  189SAPI  H18X21821   1.506   2.779   5.243  0.7090 -0.4724 -0.5173
  189SAPI  H18Y21822   1.443   2.622   5.211 -1.6281 -0.2058 -1.3637
  189SAPI  H18Z21823   1.414   2.759   5.089  1.3480 -0.2910 -2.3678
  190SAPI   C1221824   4.344   4.998   6.832 -0.0489 -0.3162  0.1013
  190SAPI    H221825   4.266   4.985   6.753 -0.9491 -2.7407  1.2854
  190SAPI    O221826   4.302   5.078   6.944 -0.4045 -0.3823  0.0191
  190SAPI   HO221827   4.334   5.167   6.933  0.3158 -0.2523  2.4602
  190SAPI   C1321828   4.367   4.856   6.870  0.0638  0.0900  0.0461
  190SAPI    H321829   4.386   4.804   6.774  3.3571 -0.5526  0.9295
  190SAPI    O321830   4.252   4.787   6.923 -0.1701  0.1537  0.3888
  190SAPI   HO321831   4.185   4.767   6.856  1.9035  1.5177 -2.2886
  190SAPI   C1421832   4.495   4.831   6.960 -0.0821 -0.4422  1.1585
  190SAPI    H421833   4.465   4.871   7.060  0.4573  0.8219  0.8257
  190SAPI    O421834   4.528   4.690   6.956 -0.1507  0.1052 -0.0544
  190SAPI   HO421835   4.522   4.664   7.048  0.1160  2.1039  0.5607
  190SAPI   C1521836   4.620   4.917   6.921  0.0387  0.7257 -0.1629
  190SAPI    H521837   4.665   4.860   6.837 -0.0629  1.9687 -1.1038
  190SAPI    O521838   4.713   4.915   7.027 -0.4473 -0.2613  0.1167
  190SAPI   HO521839   4.763   4.833   7.034 -0.2038 -0.1278 -0.0581
  190SAPI   C1621840   4.597   5.053   6.856  0.5983  0.1442  0.0695
  190SAPI    H621841   4.578   5.120   6.943 -0.7283 -0.4810  0.2831
  190SAPI    O621842   4.710   5.109   6.787  0.1857  0.2950  0.0990
  190SAPI   HO621843   4.674   5.190   6.752 -0.7991  0.4940  1.4910
  190SAPI   C1121844   4.468   5.068   6.773 -0.0649 -0.0014 -0.5729
  190SAPI    H121845   4.491   5.011   6.680 -0.9493 -0.6937 -0.3898
  190SAPI     P21846   4.342   5.255   6.628  0.1320  0.1056 -0.3500
  190SAPI   O1321847   4.353   5.401   6.608 -1.0679 -0.0647  0.0147
  190SAPI   O1421848   4.208   5.202   6.648 -0.1817  0.3986 -0.1694
  190SAPI   O1221849   4.442   5.207   6.752  0.1393 -0.2773  0.1272
  190SAPI   O1121850   4.399   5.185   6.501  0.3232 -0.3565  0.3972
  190SAPI    C121851   4.526   5.221   6.441 -0.0171 -0.1609  0.8061
  190SAPI    HA21852   4.606   5.267   6.503  0.9120  0.0069 -0.4743
  190SAPI    HB21853   4.570   5.124   6.408 -1.0904  0.1267 -1.6643
  190SAPI    C221854   4.513   5.313   6.316  0.2849  1.2746  0.4291
  190SAPI    HS21855   4.476   5.412   6.351 -1.1447  0.6075  0.9037
  190SAPI   O2121856   4.416   5.259   6.226  0.6278 -0.1176 -0.4451
  190SAPI   C2121857   4.298   5.322   6.211 -0.1013  0.3331 -0.2211
  190SAPI   O2221858   4.271   5.437   6.246 -0.0418 -0.2070  0.5514
  190SAPI   C2221859   4.214   5.254   6.110  0.2590  0.4389  0.0860
  190SAPI   H2R21860   4.265   5.160   6.079 -1.0016 -1.1832  2.5328
  190SAPI   H2S21861   4.132   5.205   6.167 -1.1685 -0.6201 -2.6521
  190SAPI    C321862   4.646   5.332   6.245  0.7353 -0.2554  0.3614
  190SAPI    HX21863   4.672   5.230   6.208 -0.9732  0.2014 -2.4231
  190SAPI    HY21864   4.724   5.370   6.314 -1.8410  0.1536  3.2750
  190SAPI   O3121865   4.629   5.420   6.133 -0.0748 -0.3472 -0.4791
  190SAPI   C3121866   4.603   5.551   6.166 -0.0878  0.8773  0.1344
  190SAPI   O3221867   4.620   5.595   6.279 -0.0595  0.1555 -0.3252
  190SAPI   C3221868   4.532   5.623   6.049  0.2310 -0.1833 -0.0086
  190SAPI   H2X21869   4.580   5.722   6.038  2.2423 -1.2035 -0.8981
  190SAPI   H2Y21870   4.423   5.630   6.067 -0.0098  0.9004 -1.6894
  190SAPI   C2321871   4.161   5.349   6.001  0.0552  0.8855 -0.6713
  190SAPI   H3R21872   4.248   5.400   5.954  0.8450  0.4340  0.2414
  190SAPI   H3S21873   4.096   5.429   6.041 -0.1451 -0.1038  1.0967
  190SAPI   C2421874   4.087   5.273   5.882 -0.3610 -0.0752 -0.1082
  190SAPI   H4R21875   3.996   5.217   5.912 -1.1901  0.3514 -1.6994
  190SAPI   H4S21876   4.159   5.195   5.849  0.6319  0.9140 -0.3432
  190SAPI   C2521877   4.062   5.356   5.762 -0.7933 -0.1245 -0.3420
  190SAPI   H5R21878   4.014   5.453   5.782  0.5304 -0.0527  2.9408
  190SAPI   C2621879   4.100   5.327   5.635  0.1884 -1.0265 -0.0280
  190SAPI   H6R21880   4.069   5.395   5.554 -2.0468  0.0728  1.6628
  190SAPI   C2721881   4.179   5.208   5.584  0.4034 -0.0084  0.2021
  190SAPI   H7R21882   4.123   5.166   5.498 -0.3403 -1.7471  1.4738
  190SAPI   H7S21883   4.172   5.126   5.658 -0.3411 -1.1794 -1.1249
  190SAPI   C2821884   4.318   5.251   5.556 -0.4557 -0.6955  0.7210
  190SAPI   H8R21885   4.392   5.258   5.637  1.8162  0.3808 -1.3235
  190SAPI   C2921886   4.375   5.274   5.434 -0.2086  1.0464 -0.3300
  190SAPI   H9R21887   4.481   5.302   5.438 -0.0155  0.6856 -2.1088
  190SAPI  C21021888   4.299   5.279   5.308  0.5980 -0.4968  0.1625
  190SAPI  H10R21889   4.310   5.388   5.290  2.7062 -0.4679  1.3690
  190SAPI  H10S21890   4.190   5.265   5.325  0.0813  3.2239  0.9213
  190SAPI  C21121891   4.352   5.200   5.193 -0.3619  0.2678  0.1289
  190SAPI  H11R21892   4.339   5.095   5.224  1.4308  0.7338  2.8506
  190SAPI  C21221893   4.407   5.231   5.074  1.0917  0.2976  0.1650
  190SAPI  H12R21894   4.428   5.144   5.010 -0.2704 -0.2813  0.4876
  190SAPI  C21321895   4.430   5.370   5.013 -0.2216  0.3399 -0.2443
  190SAPI  H13R21896   4.493   5.431   5.082 -0.0672 -0.4296  0.3131
  190SAPI  H13S21897   4.337   5.429   5.004  0.8336  1.9056 -1.3275
  190SAPI  C21421898   4.507   5.353   4.879 -0.5186 -0.6670 -0.6468
  190SAPI  H14R21899   4.615   5.370   4.890 -0.9712  1.6703  0.7873
  190SAPI  C21521900   4.448   5.343   4.759 -0.2185 -0.2261 -0.0694
  190SAPI  H15R21901   4.504   5.318   4.668 -0.3571 -3.5302  0.6357
  190SAPI  C21621902   4.300   5.317   4.740 -0.2580 -0.0359  0.4270
  190SAPI  H16R21903   4.259   5.255   4.822 -0.3070 -1.6334 -0.7567
  190SAPI  H16S21904   4.281   5.255   4.650 -3.3364 -1.1715  1.7306
  190SAPI  C21721905   4.224   5.445   4.704 -0.3220 -0.7253 -0.4594
  190SAPI  H17R21906   4.292   5.504   4.638  1.4949 -2.1568  0.0365
  190SAPI  H17S21907   4.208   5.500   4.799  1.1996 -0.6779 -0.2019
  190SAPI  C21821908   4.088   5.426   4.645 -0.7200  0.1767  0.4249
  190SAPI  H18R21909   4.027   5.370   4.720  0.6321 -0.1980  1.2687
  190SAPI  H18S21910   4.096   5.363   4.554  1.4831  0.7233  0.2024
  190SAPI  C21921911   4.040   5.563   4.592 -0.3583 -0.3269  0.3288
  190SAPI  H19R21912   4.129   5.615   4.551 -0.9504  1.7042  1.4354
  190SAPI  H19S21913   4.016   5.624   4.682 -0.7357  1.0070 -0.6485
  190SAPI  C22021914   3.931   5.549   4.480 -0.0304 -0.0747 -0.1207
  190SAPI  H20R21915   3.899   5.649   4.445  0.3009 -0.1879 -0.7745
  190SAPI  H20S21916   3.841   5.493   4.514  1.1906 -1.0967  1.5687
  190SAPI  H20T21917   3.976   5.502   4.390  1.4209  3.5989 -1.4979
  190SAPI   C3321918   4.542   5.561   5.899 -0.0799  0.3813 -1.1175
  190SAPI   H3X21919   4.519   5.453   5.910 -0.3880  0.5888  0.5377
  190SAPI   H3Y21920   4.651   5.561   5.877  0.0788  0.1929 -0.3707
  190SAPI   C3421921   4.475   5.630   5.781  0.8003  0.5153 -0.9234
  190SAPI   H4X21922   4.548   5.696   5.730  0.7720  2.3560  1.2674
  190SAPI   H4Y21923   4.399   5.695   5.828  3.3951  2.1514  1.3357
  190SAPI   C3521924   4.404   5.540   5.673  0.0565  0.7549 -0.1038
  190SAPI   H5X21925   4.350   5.466   5.736  0.4970 -0.1462 -0.7661
  190SAPI   H5Y21926   4.479   5.482   5.614 -0.0852  1.4728 -1.0241
  190SAPI   C3621927   4.306   5.610   5.577 -0.5177 -0.2959  1.2825
  190SAPI   H6X21928   4.231   5.679   5.620 -1.3228  0.8287 -1.6459
  190SAPI   H6Y21929   4.249   5.539   5.512 -0.9111 -0.3196  1.6511
  190SAPI   C3721930   4.390   5.697   5.473 -0.0031 -0.1505 -0.1312
  190SAPI   H7X21931   4.494   5.661   5.459  0.4562  1.7695 -2.0781
  190SAPI   H7Y21932   4.402   5.796   5.522 -0.7092 -0.4475  0.6755
  190SAPI   C3821933   4.321   5.724   5.337  0.0024  0.5658  0.1463
  190SAPI   H8X21934   4.213   5.746   5.353 -0.3708 -0.9410 -0.1094
  190SAPI   H8Y21935   4.333   5.627   5.284  2.7666  0.7733  0.2751
  190SAPI   C3921936   4.407   5.826   5.259  0.9146  0.2552 -0.8052
  190SAPI   H9X21937   4.512   5.796   5.239  1.7371  1.7346  1.0023
  190SAPI   H9Y21938   4.413   5.913   5.328  3.0956 -0.9906  0.6568
  190SAPI  C31021939   4.343   5.866   5.119 -0.0224 -0.7802 -0.5168
  190SAPI  H10X21940   4.312   5.777   5.060 -1.4513 -1.5986  1.3711
  190SAPI  H10Y21941   4.424   5.924   5.069 -0.2744  0.6189  0.6339
  190SAPI  C31121942   4.221   5.958   5.156  0.4085  0.3989 -0.1215
  190SAPI  H11X21943   4.260   6.049   5.206  0.9210 -0.2223  0.6257
  190SAPI  H11Y21944   4.160   5.909   5.235  3.2488  2.7019  3.9183
  190SAPI  C31221945   4.128   6.002   5.039 -0.4465  0.3501  0.2561
  190SAPI  H12X21946   4.042   6.062   5.075  0.0203  1.6498 -0.7139
  190SAPI  H12Y21947   4.089   5.910   4.992 -0.1942  1.0413 -1.3873
  190SAPI  C31321948   4.212   6.071   4.921  0.2122 -0.6699 -0.6094
  190SAPI  H13X21949   4.297   6.001   4.912  0.9480 -0.2831  2.1736
  190SAPI  H13Y21950   4.254   6.163   4.966  0.6831 -1.8368  1.4980
  190SAPI  C31421951   4.132   6.095   4.789  0.1582  0.3403 -0.5127
  190SAPI  H14X21952   4.030   6.113   4.829  1.2404  1.9260  1.8139
  190SAPI  H14Y21953   4.130   6.002   4.729  0.1322 -0.0729  0.1164
  190SAPI  C31521954   4.175   6.223   4.721  0.2770  0.4571 -0.5635
  190SAPI  H15X21955   4.281   6.210   4.690  0.1138  0.2479 -1.0470
  190SAPI  H15Y21956   4.174   6.299   4.801  2.2521 -1.0552  0.9877
  190SAPI  C31621957   4.095   6.273   4.595  0.2962  0.9583 -0.6451
  190SAPI  H16X21958   3.988   6.253   4.616  1.1569 -2.4841  1.2667
  190SAPI  H16Y21959   4.132   6.228   4.500 -0.0636  0.4723 -0.5595
  190SAPI  C31721960   4.108   6.423   4.559  0.4050  0.1028  0.4194
  190SAPI  H17X21961   4.078   6.493   4.640 -0.0166 -0.0504  0.3964
  190SAPI  H17Y21962   4.032   6.453   4.484  2.0181  1.2513 -0.8359
  190SAPI  C31821963   4.232   6.464   4.491 -0.3571 -0.9554 -0.5037
  190SAPI  H18X21964   4.321   6.472   4.558 -0.5306 -0.7301 -0.3025
  190SAPI  H18Y21965   4.218   6.567   4.452 -0.4138  0.2287  2.3839
  190SAPI  H18Z21966   4.253   6.399   4.403 -1.9777 -2.3995  0.1180
  191SAPI   C1221967   5.526   6.973   2.606  0.0845 -0.1728 -0.8722
  191SAPI    H221968   5.563   7.041   2.686 -0.0009 -1.1617  0.0325
  191SAPI    O221969   5.497   6.855   2.695 -0.1527 -0.3133  0.4472
  191SAPI   HO221970   5.580   6.807   2.696 -0.2081 -0.4494 -0.5798
  191SAPI   C1321971   5.406   7.022   2.542  0.5154  0.6245 -0.1318
  191SAPI    H321972   5.435   7.093   2.462 -0.5647 -0.2771 -1.3501
  191SAPI    O321973   5.323   7.087   2.631 -0.3064 -0.0037 -0.3617
  191SAPI   HO321974   5.308   7.038   2.713 -0.2466  0.5926  0.0142
  191SAPI   C1421975   5.335   6.909   2.472  0.2648 -0.9135  0.0642
  191SAPI    H421976   5.315   6.831   2.549 -0.8636 -1.0049 -0.3101
  191SAPI    O421977   5.213   6.954   2.414  0.4836 -0.1494  1.0446
  191SAPI   HO421978   5.158   6.982   2.488 -0.1714 -2.2704  1.4334
  191SAPI   C1521979   5.422   6.852   2.361 -0.4795 -0.2573 -0.6605
  191SAPI    H521980   5.419   6.923   2.276 -0.1411  0.0145 -0.4456
  191SAPI    O521981   5.371   6.732   2.314 -0.7549 -0.0204 -0.1108
  191SAPI   HO521982   5.413   6.723   2.229 -0.8723  0.7698 -0.2579
  191SAPI   C1621983   5.573   6.835   2.395  0.3711 -0.0744 -0.4831
  191SAPI    H621984   5.587   6.732   2.434  1.5701 -0.1540 -1.0697
  191SAPI    O621985   5.650   6.830   2.284 -0.3403  0.3956  0.0173
  191SAPI   HO621986   5.685   6.741   2.285  2.6089  1.4495  1.7952
  191SAPI   C1121987   5.624   6.931   2.499  0.8217 -0.6272  0.0471
  191SAPI    H121988   5.635   7.025   2.441  0.6406  0.3469  1.5264
  191SAPI     P21989   5.872   6.983   2.586 -0.0889 -0.2935 -0.4369
  191SAPI   O1321990   5.876   7.084   2.474 -0.1611  0.0103  0.0153
  191SAPI   O1421991   5.997   6.907   2.616  0.2866 -0.4588  0.3643
  191SAPI   O1221992   5.746   6.886   2.557  0.3769  0.3338 -0.2274
  191SAPI   O1121993   5.828   7.060   2.719  0.1953  0.1434 -0.0817
  191SAPI    C121994   5.812   6.979   2.836  0.0204 -0.8189  0.4989
  191SAPI    HA21995   5.785   6.874   2.814 -2.3670 -0.0952 -0.3944
  191SAPI    HB21996   5.906   6.990   2.893  0.4496 -0.9708 -0.1647
  191SAPI    C221997   5.705   7.024   2.942 -0.1558  0.3144  0.7481
  191SAPI    HS21998   5.611   6.985   2.897  0.8205 -1.3619  0.0596
  191SAPI   O2121999   5.702   7.166   2.973 -0.1037  0.5894  0.2015
  191SAPI   C2122000   5.578   7.216   2.981 -0.1746 -0.0387 -0.2941
  191SAPI   O2222001   5.478   7.150   2.961  0.6022 -1.0965 -0.8205
  191SAPI   C2222002   5.565   7.369   3.017  0.5954  0.2536  0.7936
  191SAPI   H2R22003   5.546   7.379   3.126  2.0132 -0.9719  1.1804
  191SAPI   H2S22004   5.661   7.421   2.996  0.2593  0.9616  0.9637
  191SAPI    C322005   5.710   6.954   3.086 -0.0325 -0.2028  0.0001
  191SAPI    HX22006   5.811   6.939   3.130 -0.7130 -0.3195  1.5526
  191SAPI    HY22007   5.683   6.849   3.062  4.0528 -1.0052 -1.9448
  191SAPI   O3122008   5.628   7.012   3.184  0.2268 -0.1875 -0.3216
  191SAPI   C3122009   5.511   6.961   3.223 -0.0996 -0.2415 -0.0374
  191SAPI   O3222010   5.461   6.861   3.179 -0.2462 -0.6004  0.2698
  191SAPI   C3222011   5.453   7.039   3.336 -0.4697 -0.2572 -0.0334
  191SAPI   H2X22012   5.528   7.032   3.418 -2.2040  1.3471  1.7992
  191SAPI   H2Y22013   5.361   6.984   3.366 -1.7067  1.3689 -0.6753
  191SAPI   C2322014   5.451   7.449   2.944 -0.4285 -0.5814  0.2604
  191SAPI   H3R22015   5.349   7.408   2.960 -1.2048  0.6863 -1.2381
  191SAPI   H3S22016   5.462   7.440   2.834 -0.8409 -3.0354  0.3493
  191SAPI   C2422017   5.458   7.603   2.987  0.9047 -0.0002  0.4337
  191SAPI   H4R22018   5.399   7.652   2.906 -0.7688 -2.4000  0.0773
  191SAPI   H4S22019   5.561   7.642   2.970  0.1985  1.4890 -0.6393
  191SAPI   C2522020   5.392   7.617   3.118  0.2686  0.1038 -0.2902
  191SAPI   H5R22021   5.333   7.531   3.154  1.5119 -0.5507  0.2781
  191SAPI   C2622022   5.387   7.726   3.204 -0.1684 -0.3915  0.0763
  191SAPI   H6R22023   5.323   7.738   3.293  1.3187  0.3872  1.0828
  191SAPI   C2722024   5.436   7.859   3.165 -0.6909 -0.4323  0.0083
  191SAPI   H7R22025   5.471   7.866   3.060  0.8468  3.3531  0.6178
  191SAPI   H7S22026   5.529   7.883   3.221 -1.9398  0.8742  1.6257
  191SAPI   C2822027   5.334   7.966   3.178 -0.2709  0.1347  0.6223
  191SAPI   H8R22028   5.277   7.981   3.084  1.9818 -2.5659 -1.3459
  191SAPI   C2922029   5.301   8.023   3.290  0.5690  0.5133  0.5460
  191SAPI   H9R22030   5.209   8.084   3.289 -0.6465 -1.1990 -1.9082
  191SAPI  C21022031   5.371   8.012   3.431  0.7064 -0.3757  0.1111
  191SAPI  H10R22032   5.446   8.092   3.441  0.5009 -0.0525 -0.8447
  191SAPI  H10S22033   5.416   7.913   3.454  0.6378  0.2098  3.1849
  191SAPI  C21122034   5.267   8.043   3.543 -0.1381  0.1940 -0.0266
  191SAPI  H11R22035   5.166   8.081   3.521 -1.2065 -1.1850  2.2298
  191SAPI  C21222036   5.287   8.023   3.673  0.4639 -0.4053  0.0623
  191SAPI  H12R22037   5.210   8.054   3.745  1.2141 -0.0597  0.7337
  191SAPI  C21322038   5.414   7.978   3.742 -0.1043  0.4263  0.0415
  191SAPI  H13R22039   5.453   7.896   3.678 -1.4090  0.7195 -1.1651
  191SAPI  H13S22040   5.384   7.933   3.839 -0.1244 -2.0437 -1.0371
  191SAPI  C21422041   5.511   8.093   3.758  0.2237  0.3353  0.0885
  191SAPI  H14R22042   5.504   8.188   3.703 -1.3692  1.0533  1.4355
  191SAPI  C21522043   5.601   8.108   3.859 -0.1049  0.6724  0.0552
  191SAPI  H15R22044   5.678   8.186   3.850  0.2762  0.1597 -1.3044
  191SAPI  C21622045   5.621   8.013   3.977 -0.1462 -0.2276  0.3127
  191SAPI  H16R22046   5.725   7.983   4.001 -0.6038 -0.4147  2.2159
  191SAPI  H16S22047   5.560   7.921   3.963  0.4646 -0.5539 -0.2539
  191SAPI  C21722048   5.554   8.079   4.099  0.0602  0.5966 -0.0702
  191SAPI  H17R22049   5.569   8.001   4.176  1.6067  0.2494 -0.6801
  191SAPI  H17S22050   5.447   8.092   4.074  0.0310  3.2141  1.0805
  191SAPI  C21822051   5.601   8.221   4.146  1.2152 -0.1387  0.7810
  191SAPI  H18R22052   5.521   8.264   4.209  0.2574  1.8348 -1.6286
  191SAPI  H18S22053   5.617   8.290   4.061 -1.4095 -0.9080 -0.4214
  191SAPI  C21922054   5.729   8.205   4.230  0.2957 -0.5563 -0.4452
  191SAPI  H19R22055   5.805   8.160   4.162  0.5387 -1.4114  0.3770
  191SAPI  H19S22056   5.723   8.125   4.306 -2.2455  2.4047  2.8372
  191SAPI  C22022057   5.775   8.339   4.301  0.1776  0.8559  0.4989
  191SAPI  H20R22058   5.714   8.368   4.390  1.3429  0.9594  1.2855
  191SAPI  H20S22059   5.765   8.418   4.223 -1.3304  0.0184 -0.1931
  191SAPI  H20T22060   5.880   8.333   4.335  0.4271  0.0517 -0.4090
  191SAPI   C3322061   5.403   7.174   3.300  0.3959 -0.3620  0.1093
  191SAPI   H3X22062   5.328   7.178   3.217  0.1602  0.5519  0.3557
  191SAPI   H3Y22063   5.488   7.241   3.276 -1.2744  2.0135  0.4461
  191SAPI   C3422064   5.343   7.247   3.424 -0.2316  0.6422  0.1755
  191SAPI   H4X22065   5.410   7.233   3.511 -1.2593  1.8649  1.1988
  191SAPI   H4Y22066   5.239   7.209   3.440 -0.1798  0.0611 -0.7779
  191SAPI   C3522067   5.341   7.402   3.396  0.4202  0.7221 -0.1027
  191SAPI   H5X22068   5.259   7.421   3.324  1.5409 -0.1716 -1.6693
  191SAPI   H5Y22069   5.440   7.438   3.363  1.6507 -1.2963  1.1286
  191SAPI   C3622070   5.286   7.471   3.527  0.1809  0.5118  0.6561
  191SAPI   H6X22071   5.201   7.415   3.569 -0.9855  0.5747 -1.4645
  191SAPI   H6Y22072   5.262   7.577   3.505  1.6812  0.6520 -0.4669
  191SAPI   C3722073   5.411   7.472   3.625 -0.3041  0.1271  0.3414
  191SAPI   H7X22074   5.502   7.490   3.564 -0.4957 -0.1732 -0.0384
  191SAPI   H7Y22075   5.413   7.369   3.667 -2.4931 -0.5665 -1.0975
  191SAPI   C3822076   5.406   7.576   3.733 -0.2231  0.5165 -0.0280
  191SAPI   H8X22077   5.298   7.603   3.738 -0.3387  0.1379 -0.4124
  191SAPI   H8Y22078   5.447   7.675   3.702 -2.4371  2.3616  2.4489
  191SAPI   C3922079   5.460   7.523   3.860 -0.8899 -0.6226 -0.6967
  191SAPI   H9X22080   5.551   7.459   3.855 -1.1043 -0.9866 -0.0879
  191SAPI   H9Y22081   5.379   7.473   3.918  0.9337 -1.2911  1.4427
  191SAPI  C31022082   5.508   7.639   3.949  0.2297  0.4228 -0.2432
  191SAPI  H10X22083   5.423   7.706   3.974 -0.0590  0.2464 -0.7137
  191SAPI  H10Y22084   5.582   7.688   3.882 -1.5762  1.4984 -1.5336
  191SAPI  C31122085   5.552   7.589   4.088 -0.5093 -0.1404 -0.6728
  191SAPI  H11X22086   5.598   7.488   4.079  0.2344 -0.0072  1.1216
  191SAPI  H11Y22087   5.464   7.582   4.155  0.4474 -1.0013  0.5596
  191SAPI  C31222088   5.663   7.674   4.157 -0.0036  0.1886 -1.0370
  191SAPI  H12X22089   5.652   7.781   4.127 -0.9216  0.8880  1.5285
  191SAPI  H12Y22090   5.763   7.639   4.125  0.3785  2.3057 -2.3918
  191SAPI  C31322091   5.679   7.664   4.305 -0.0213 -0.7088 -0.8055
  191SAPI  H13X22092   5.703   7.563   4.343 -1.2388 -0.7818 -0.1856
  191SAPI  H13Y22093   5.581   7.702   4.342 -0.6992 -2.2020 -0.9978
  191SAPI  C31422094   5.773   7.772   4.362 -0.6257 -0.1474  0.0978
  191SAPI  H14X22095   5.728   7.873   4.350 -0.1707 -0.1940 -2.6077
  191SAPI  H14Y22096   5.869   7.770   4.306 -1.0953  1.6781 -0.8565
  191SAPI  C31522097   5.801   7.740   4.510  0.1035  0.5029 -0.2108
  191SAPI  H15X22098   5.865   7.814   4.563 -1.2137  1.1245  0.5775
  191SAPI  H15Y22099   5.855   7.644   4.518  0.5310  0.7452 -0.1228
  191SAPI  C31622100   5.669   7.743   4.598  0.1369  0.7322 -0.4813
  191SAPI  H16X22101   5.618   7.645   4.588  0.8678  0.4900 -2.1260
  191SAPI  H16Y22102   5.601   7.826   4.569  0.6864  1.7246  0.8870
  191SAPI  C31722103   5.692   7.782   4.747  0.7790  0.0787 -0.0721
  191SAPI  H17X22104   5.704   7.892   4.752 -1.3822  0.3872 -0.4354
  191SAPI  H17Y22105   5.780   7.736   4.797 -1.0369 -2.9810  0.6129
  191SAPI  C31822106   5.572   7.741   4.837  0.4589  0.1999 -0.3294
  191SAPI  H18X22107   5.592   7.765   4.944 -1.2402  2.0064 -0.3422
  191SAPI  H18Y22108   5.546   7.634   4.826  2.9014 -0.4648 -0.1233
  191SAPI  H18Z22109   5.488   7.801   4.796  0.3446 -0.3498 -0.9188
  192SAPI   C1222110   1.286   3.777   2.359 -0.2721 -0.0711 -1.0847
  192SAPI    H222111   1.179   3.795   2.339 -0.4194  0.6175  0.2116
  192SAPI    O222112   1.345   3.779   2.231  0.4795 -0.2324 -0.3945
  192SAPI   HO222113   1.295   3.706   2.193 -0.3510 -1.0749  2.1166
  192SAPI   C1322114   1.352   3.875   2.464  0.4635  0.3920  0.5617
  192SAPI    H322115   1.317   3.851   2.567  0.6295  1.3839  0.8515
  192SAPI    O322116   1.315   4.006   2.438 -0.3456 -0.4428  0.2938
  192SAPI   HO322117   1.222   4.016   2.461 -0.2713  1.7077 -0.1813
  192SAPI   C1422118   1.503   3.861   2.452 -0.1896  0.4765 -0.2473
  192SAPI    H422119   1.538   3.857   2.347  0.6271  0.3384  0.0244
  192SAPI    O422120   1.583   3.955   2.528  0.4982 -0.1037 -0.3169
  192SAPI   HO422121   1.522   4.007   2.581 -1.1798  1.3657 -3.3964
  192SAPI   C1522122   1.534   3.723   2.506  0.0524 -0.1670 -0.5269
  192SAPI    H522123   1.524   3.732   2.616  0.8807 -0.0906 -0.4517
  192SAPI    O522124   1.667   3.683   2.490 -0.6425 -0.1532  0.4728
  192SAPI   HO522125   1.680   3.612   2.427  0.0513  0.8362 -0.5237
  192SAPI   C1622126   1.444   3.611   2.463 -0.0215  0.4284 -0.6332
  192SAPI    H622127   1.476   3.576   2.363 -0.7200 -0.2933 -0.6136
  192SAPI    O622128   1.456   3.505   2.558 -0.0157  0.2566  0.2174
  192SAPI   HO622129   1.526   3.445   2.530  0.4187 -0.4016  2.5010
  192SAPI   C1122130   1.299   3.643   2.429  0.0813 -0.1011  0.2262
  192SAPI    H122131   1.256   3.660   2.530  0.6073 -0.2836  0.4872
  192SAPI     P22132   1.083   3.484   2.408 -0.3465  0.0511  0.2138
  192SAPI   O1322133   1.023   3.387   2.311  0.1149  0.2632 -1.0203
  192SAPI   O1422134   1.001   3.602   2.439 -0.0280 -0.1290 -0.8028
  192SAPI   O1222135   1.235   3.539   2.352  0.5114 -0.0056  0.1327
  192SAPI   O1122136   1.122   3.395   2.541 -0.0232 -0.1845  0.1592
  192SAPI    C122137   1.014   3.364   2.629  0.1588  0.0947  0.0462
  192SAPI    HA22138   0.914   3.354   2.583  0.3774 -0.4326 -0.3267
  192SAPI    HB22139   1.020   3.265   2.679 -0.0725  0.8381  1.6021
  192SAPI    C222140   1.011   3.456   2.754 -0.5219 -0.1858  0.5450
  192SAPI    HS22141   0.979   3.557   2.718  1.9428  0.5462  0.2169
  192SAPI   O2122142   1.144   3.444   2.809  0.5801  0.6714  0.1177
  192SAPI   C2122143   1.221   3.550   2.831  0.6180 -0.2605  0.1232
  192SAPI   O2222144   1.194   3.660   2.787 -0.2858  0.0647 -0.7820
  192SAPI   C2222145   1.338   3.515   2.921 -0.1138  0.2414 -0.0239
  192SAPI   H2R22146   1.353   3.406   2.908  0.3677 -0.1135  2.9010
  192SAPI   H2S22147   1.424   3.579   2.893  1.6336 -1.0706  2.0593
  192SAPI    C322148   0.918   3.417   2.871  0.1671  0.2865 -0.6269
  192SAPI    HX22149   0.926   3.309   2.895  1.2679 -0.0061 -2.2050
  192SAPI    HY22150   0.811   3.428   2.844 -0.7521 -2.2350  1.5124
  192SAPI   O3122151   0.950   3.492   2.995  0.0292  0.7539  0.2268
  192SAPI   C3122152   0.884   3.608   3.008 -0.4876 -0.1065  0.4502
  192SAPI   O3222153   0.798   3.657   2.935 -0.5859 -0.2689 -0.1386
  192SAPI   C3222154   0.954   3.683   3.125  0.2653 -0.0687  0.5496
  192SAPI   H2X22155   0.947   3.793   3.111 -2.7268  0.0415  2.1828
  192SAPI   H2Y22156   1.060   3.651   3.138  1.3243  3.2434  0.9246
  192SAPI   C2322157   1.298   3.543   3.066 -0.2488 -0.8835  0.4248
  192SAPI   H3R22158   1.211   3.478   3.092 -0.4241 -1.5108 -1.5890
  192SAPI   H3S22159   1.260   3.647   3.060  1.2362 -0.3247  0.5294
  192SAPI   C2422160   1.404   3.534   3.178  0.3597 -0.5488 -0.5402
  192SAPI   H4R22161   1.355   3.561   3.274  1.4684  1.3855 -0.4469
  192SAPI   H4S22162   1.478   3.615   3.157 -0.5503  0.0195 -1.6624
  192SAPI   C2522163   1.466   3.398   3.194 -0.5133  0.2647  0.8722
  192SAPI   H5R22164   1.496   3.351   3.099  0.7233  0.1222  1.3141
  192SAPI   C2622165   1.494   3.326   3.296 -0.0115 -0.9976 -0.6521
  192SAPI   H6R22166   1.547   3.230   3.282  1.5464 -0.2145 -0.2790
  192SAPI   C2722167   1.474   3.365   3.439  0.8336  0.8790  0.2961
  192SAPI   H7R22168   1.408   3.290   3.488  1.8403 -0.7229 -0.6876
  192SAPI   H7S22169   1.426   3.465   3.450 -0.6468  0.4045 -1.2640
  192SAPI   C2822170   1.606   3.383   3.504  0.3785 -0.1360 -0.3646
  192SAPI   H8R22171   1.678   3.417   3.428 -0.1550  0.6277 -0.5412
  192SAPI   C2922172   1.640   3.364   3.630 -0.0902 -0.1788  0.0106
  192SAPI   H9R22173   1.743   3.391   3.659  0.5504  1.6598 -3.4756
  192SAPI  C21022174   1.554   3.306   3.734  0.0974 -0.1074  0.1541
  192SAPI  H10R22175   1.452   3.302   3.691  0.3926 -0.2215 -0.5345
  192SAPI  H10S22176   1.572   3.381   3.814  0.8115 -0.8065  0.6695
  192SAPI  C21122177   1.585   3.166   3.787 -0.7610 -0.0552 -0.2658
  192SAPI  H11R22178   1.634   3.102   3.712  0.1477  0.8118 -0.4367
  192SAPI  C21222179   1.541   3.107   3.895  0.0212 -0.2682 -0.2736
  192SAPI  H12R22180   1.565   3.001   3.910  0.2453 -0.2474 -0.4861
  192SAPI  C21322181   1.455   3.169   3.998  0.3601 -0.1161  0.5228
  192SAPI  H13R22182   1.381   3.093   4.032 -1.4213  0.7808 -1.1409
  192SAPI  H13S22183   1.386   3.252   3.972  0.2163  0.1187  1.6101
  192SAPI  C21422184   1.552   3.225   4.102 -0.1175  0.2298 -0.2878
  192SAPI  H14R22185   1.622   3.148   4.135  2.0552  1.0097 -2.7272
  192SAPI  C21522186   1.559   3.347   4.158 -0.4596  0.1541  0.0622
  192SAPI  H15R22187   1.642   3.362   4.228  1.0049 -0.4955 -1.4554
  192SAPI  C21622188   1.471   3.462   4.133  0.0962 -0.3589  0.1432
  192SAPI  H16R22189   1.373   3.429   4.092  0.3016 -0.0375 -0.6170
  192SAPI  H16S22190   1.516   3.528   4.056  1.0830 -1.0254  0.1284
  192SAPI  C21722191   1.450   3.545   4.263 -0.7838  0.1265  0.3361
  192SAPI  H17R22192   1.552   3.588   4.276 -0.4161 -0.8807  0.9385
  192SAPI  H17S22193   1.431   3.478   4.349  1.3945 -0.9808  0.0521
  192SAPI  C21822194   1.344   3.662   4.264  0.0272 -0.6521 -0.3039
  192SAPI  H18R22195   1.247   3.615   4.236  0.0363 -2.1796  1.9316
  192SAPI  H18S22196   1.386   3.731   4.188  0.2684 -1.4714 -0.9279
  192SAPI  C21922197   1.327   3.723   4.396  0.1146  0.2242 -1.2022
  192SAPI  H19R22198   1.253   3.805   4.384 -0.5885 -0.0425  0.9440
  192SAPI  H19S22199   1.417   3.782   4.425 -0.5398  0.8736 -0.4515
  192SAPI  C22022200   1.274   3.640   4.520 -0.1404  0.0772  0.0492
  192SAPI  H20R22201   1.272   3.704   4.611  1.8549 -1.8106  1.5406
  192SAPI  H20S22202   1.347   3.557   4.533  1.9079  1.7021 -0.5907
  192SAPI  H20T22203   1.173   3.602   4.496  0.7015 -4.2200  2.1974
  192SAPI   C3322204   0.881   3.649   3.264 -0.5033 -0.9645  0.4599
  192SAPI   H3X22205   0.773   3.671   3.258 -0.6581 -1.7611  0.1833
  192SAPI   H3Y22206   0.921   3.722   3.338  2.9204 -1.9218 -0.2244
  192SAPI   C3422207   0.908   3.510   3.316  0.4987 -1.4646 -0.3146
  192SAPI   H4X22208   1.016   3.504   3.344  0.2279 -2.1245  0.6459
  192SAPI   H4Y22209   0.886   3.431   3.241 -1.2688 -1.8703  0.5805
  192SAPI   C3522210   0.819   3.478   3.438 -0.0276 -0.3641 -0.3303
  192SAPI   H5X22211   0.714   3.469   3.404 -0.2874  0.2351  0.2752
  192SAPI   H5Y22212   0.829   3.557   3.516  0.5909  0.5748 -1.3339
  192SAPI   C3622213   0.846   3.345   3.512  0.4526  0.2461  0.3362
  192SAPI   H6X22214   0.946   3.348   3.560  0.3527  3.1083  0.4918
  192SAPI   H6Y22215   0.848   3.258   3.443  2.0617  1.2257 -0.9002
  192SAPI   C3722216   0.759   3.314   3.637  0.6732  0.1652  0.6033
  192SAPI   H7X22217   0.780   3.394   3.710 -1.4627 -0.3830  1.9092
  192SAPI   H7Y22218   0.794   3.221   3.687 -1.1625  0.5406  2.7534
  192SAPI   C3822219   0.607   3.297   3.615 -0.1074  0.3851  0.1478
  192SAPI   H8X22220   0.593   3.217   3.540  1.8959 -0.8006  0.9512
  192SAPI   H8Y22221   0.559   3.386   3.569 -0.5140 -0.6665 -1.5445
  192SAPI   C3922222   0.536   3.278   3.749 -0.5075 -0.0803  1.1036
  192SAPI   H9X22223   0.588   3.201   3.810 -0.2666 -0.7461  0.0756
  192SAPI   H9Y22224   0.435   3.235   3.729  0.7221 -1.9792 -1.5476
  192SAPI  C31022225   0.521   3.418   3.822 -0.4073 -0.2534 -0.8385
  192SAPI  H10X22226   0.419   3.459   3.836  0.0170  0.2069  1.1473
  192SAPI  H10Y22227   0.574   3.494   3.759  0.0656 -0.3609 -0.5759
  192SAPI  C31122228   0.561   3.409   3.976  0.5456  0.2421 -0.3409
  192SAPI  H11X22229   0.670   3.384   3.975  0.9747  1.9048  1.2806
  192SAPI  H11Y22230   0.505   3.325   4.023  2.0038 -0.4642  0.2183
  192SAPI  C31222231   0.550   3.548   4.046 -0.3849 -0.2832 -0.3610
  192SAPI  H12X22232   0.449   3.591   4.030 -0.9872 -0.9686  1.4333
  192SAPI  H12Y22233   0.617   3.621   3.994 -1.3072  0.6919 -0.2154
  192SAPI  C31322234   0.578   3.557   4.195 -0.0669  0.2607  0.0567
  192SAPI  H13X22235   0.495   3.505   4.248 -1.7906  2.3449 -0.4718
  192SAPI  H13Y22236   0.574   3.659   4.238 -0.6495 -0.0592  0.7899
  192SAPI  C31422237   0.709   3.505   4.239  0.1284  0.1946 -0.1874
  192SAPI  H14X22238   0.790   3.560   4.186  0.1083  0.4065  0.0003
  192SAPI  H14Y22239   0.720   3.398   4.211 -0.5760  0.0437  0.0987
  192SAPI  C31522240   0.750   3.525   4.387  0.6435  0.2968  0.7041
  192SAPI  H15X22241   0.677   3.470   4.449  0.2534 -3.0653 -2.4490
  192SAPI  H15Y22242   0.741   3.633   4.415 -2.7969  0.6894 -1.4064
  192SAPI  C31622243   0.895   3.479   4.408 -0.1744  0.4538 -0.2523
  192SAPI  H16X22244   0.940   3.527   4.498 -0.7309  0.4889  0.0092
  192SAPI  H16Y22245   0.951   3.521   4.322  1.2685  3.0790  1.8114
  192SAPI  C31722246   0.929   3.333   4.422 -0.5410 -0.3697  0.1125
  192SAPI  H17X22247   0.889   3.275   4.336 -2.0480 -2.5705  2.1680
  192SAPI  H17Y22248   0.875   3.294   4.511  0.2634 -2.2906 -0.1662
  192SAPI  C31822249   1.076   3.301   4.440  0.2854 -0.4077  0.4433
  192SAPI  H18X22250   1.136   3.370   4.503  3.1761 -3.1082  0.9228
  192SAPI  H18Y22251   1.135   3.315   4.347  2.0896  0.6476  1.6750
  192SAPI  H18Z22252   1.087   3.194   4.468 -1.7167 -0.9580 -0.7104
  193SOD    SOD22253   3.906   6.663   1.604 -0.0340  0.5640 -0.3669
  194SOD    SOD22254   4.892   1.300   0.803 -0.1310  0.2871  0.2701
  195SOD    SOD22255   5.737   0.310   6.501  0.1595  0.0404 -0.1543
  196SOD    SOD22256   0.721   4.265   0.711 -0.6678 -0.1220  0.5773
  197SOD    SOD22257   0.113   3.519   6.608 -0.2328 -0.6930  0.1547
  198SOD    SOD22258   2.696   0.482   6.385 -0.4451  0.0102  0.0537
  199SOD    SOD22259   5.776   0.522   6.978 -0.5484  0.0947 -0.2888
  200SOD    SOD22260   4.481   6.392   2.328  0.0250 -0.1040 -0.0912
  201SOD    SOD22261   4.163   4.560   0.281 -0.3993  0.2895  0.1179
  202SOD    SOD22262   6.887   3.085   1.517 -0.3546 -0.4013 -0.0641
  203SOD    SOD22263   5.336   0.976   1.601 -0.5976  0.0073  0.0611
  204SOD    SOD22264   4.840   5.122   6.961 -0.6268  0.2651 -0.1640
  205SOD    SOD22265   4.285   3.707   8.000  0.1622  0.4422  0.6344
  206SOD    SOD22266   3.515   1.709   7.643  0.0312 -0.0012  0.3857
  207SOD    SOD22267   5.364   6.492   0.747 -0.2332  0.0843 -0.0010
  208SOD    SOD22268   1.839   0.969   0.415 -0.2058  0.1824 -0.2255
  209SOD    SOD22269   0.191   6.140   2.727  0.6563  0.2584  0.1015
  210SOD    SOD22270   4.872   3.569   1.840 -0.1163  0.0138  0.5107
  211SOD    SOD22271   4.215   0.160   6.951 -0.2767  0.3121  0.4507
  212SOD    SOD22272   6.255   5.701   2.286  0.4610  0.1178  0.1915
  213SOD    SOD22273   3.038   2.777   7.307 -0.2058  0.8826 -0.0717
  214SOD    SOD22274   4.328   0.554   7.465  0.3574  0.1140  0.1717
  215SOD    SOD22275   0.834   5.343   6.437 -0.0913 -0.5168 -0.0937
  216SOD    SOD22276   6.184   3.725   7.176  0.1603  0.7780 -0.0002
  217SOD    SOD22277   5.615   1.857   7.070 -0.2778 -0.3789 -0.4690
  218SOD    SOD22278   0.741   0.409   7.993 -0.3613  0.5676 -0.2461
  219SOD    SOD22279   4.058   2.721   0.323 -0.0335  0.5545  0.0398
  220SOD    SOD22280   4.648   3.342   6.609  0.0449 -0.4350 -0.1053
  221SOD    SOD22281   1.133   7.060   2.117 -0.6061 -0.1596  0.3294
  222SOD    SOD22282   7.066   6.083   0.891  0.0891  0.3567  0.3348
  223SOD    SOD22283   6.288   4.163   2.388  0.1640 -0.1231 -0.3359
  224SOD    SOD22284   6.178   0.452   0.373  0.2569 -0.0994  0.0095
  225SOD    SOD22285   6.707   0.997   6.225  0.0486 -0.0126 -0.0424
  226SOD    SOD22286   4.631   0.395   1.567 -0.0637  0.9032 -0.2656
  227SOD    SOD22287   1.980   6.169   0.343  0.3706 -0.2334 -0.4353
  228SOD    SOD22288   3.122   4.965   7.567 -0.3877  0.9394 -0.0513
  229SOD    SOD22289   0.840   5.064   1.874  0.3666  0.3018 -0.0367
  230SOD    SOD22290   3.820   1.868   1.315 -0.3290  0.2383  0.1318
  231SOD    SOD22291   5.282   3.160   2.665  0.5434  0.1921  0.5062
  232SOD    SOD22292   0.385   1.879   1.591 -0.0836 -0.0826  0.1596
  233SOD    SOD22293   3.453   4.444   6.336  0.1887  0.0675 -0.1704
  234CLA    CLA22294   6.327   4.407   0.240  0.4129  0.4240  0.0728
  235CLA    CLA22295   4.380   7.004   0.281 -0.0605  0.1944 -0.1176
  236CLA    CLA22296   3.942   2.551   0.479  0.0747  0.1102 -0.4225
  237CLA    CLA22297   1.209   0.067   7.532 -0.0020 -0.1614  0.2282
  238CLA    CLA22298   4.454   3.453   7.575 -0.2110 -0.1958 -0.2504
  239CLA    CLA22299   6.387   5.735   1.034 -0.6513  0.2706  0.5734
  240CLA    CLA22300   2.591   4.034   0.308  0.1634 -0.2892 -0.4331
  241CLA    CLA22301   4.751   0.377   0.428 -0.1262  0.1806 -0.2620
  242CLA    CLA22302   2.253   4.689   0.109 -0.3774 -0.3778  0.8004
  243CLA    CLA22303   5.727   0.880   7.326 -0.7617  0.2990  0.3637
  244CLA    CLA22304   5.004   1.423   1.543  0.0160  0.0348  0.1999
  245CLA    CLA22305   5.442   0.378   0.105  0.2387  0.3596 -0.2587
  246CLA    CLA22306   2.314   3.365   0.905 -0.0313 -0.2968  0.4784
  247CLA    CLA22307   3.306   0.496   7.988 -0.0624  0.0533 -0.3098
  248CLA    CLA22308   4.731   0.474   7.120 -0.2807 -0.1183 -0.2953
  249CLA    CLA22309   4.413   2.953   7.741 -0.5777  0.2525 -0.2398
  250CLA    CLA22310   1.066   5.503   1.046 -0.0422  0.0001  0.2075
  251TIP3   OH222311   0.452   0.714   6.821  0.2258  0.4388 -0.5291
  251TIP3    H122312   0.522   0.681   6.877 -0.8833 -2.3728 -0.6691
  251TIP3    H222313   0.406   0.778   6.876  0.3853 -0.7729  1.0954
  252TIP3   OH222314   4.417   6.855   6.337 -0.0141 -0.3566 -0.0424
  252TIP3    H122315   4.459   6.914   6.274  1.7595 -0.1768  1.2508
  252TIP3    H222316   4.340   6.903   6.367 -1.3405 -0.7410 -2.5564
  253TIP3   OH222317   6.587   3.643   1.207 -0.6973 -0.0547  0.1045
  253TIP3    H122318   6.683   3.649   1.203 -0.7786  1.1536 -1.6885
  253TIP3    H222319   6.564   3.680   1.292  0.4179 -0.3185  0.5437
  254TIP3   OH222320   0.682   5.041   7.120 -0.1771  0.5087  0.2733
  254TIP3    H122321   0.706   4.957   7.159  0.4409  0.6190  0.1329
  254TIP3    H222322   0.594   5.059   7.155 -1.0946 -1.0356 -1.0682
  255TIP3   OH222323   6.238   3.666   0.715 -0.5705 -0.5892  0.1903
  255TIP3    H122324   6.182   3.598   0.752  0.4023 -1.6501 -0.2375
  255TIP3    H222325   6.326   3.629   0.717 -0.2454 -0.0341 -1.6484
  256TIP3   OH222326   0.574   4.295   1.685  0.4681  0.0234  0.4916
  256TIP3    H122327   0.581   4.384   1.651  3.2176 -0.7465 -1.3055
  256TIP3    H222328   0.658   4.281   1.730  0.0888 -1.6599  0.7197
  257TIP3   OH222329   6.924   3.835   1.858 -0.0020  0.3864 -0.2719
  257TIP3    H122330   6.962   3.887   1.929 -0.1668 -0.3655  0.3822
  257TIP3    H222331   6.896   3.754   1.900  0.5361 -0.3654 -1.3227
  258TIP3   OH222332   6.030   6.810   2.033 -0.0554  0.1926  0.3553
  258TIP3    H122333   6.078   6.869   1.975 -1.7267  0.3943 -0.8912
  258TIP3    H222334   5.984   6.868   2.094 -0.7254  0.1373 -0.0884
  259TIP3   OH222335   5.229   0.927   1.961  0.3908 -0.1672 -0.0164
  259TIP3    H122336   5.278   1.008   1.976 -0.7714  0.5819 -0.1880
  259TIP3    H222337   5.194   0.936   1.873 -0.7905 -0.2881  0.4229
  260TIP3   OH222338   3.668   0.582   1.865  0.3284  0.0942 -0.1322
  260TIP3    H122339   3.610   0.593   1.790  0.6322  1.3172 -0.2175
  260TIP3    H222340   3.613   0.600   1.941  0.1477 -0.6373 -0.0785
  261TIP3   OH222341   2.527   0.989   1.499  0.0380  0.0407 -0.4873
  261TIP3    H122342   2.535   1.004   1.405  1.4698 -0.6445 -0.5103
  261TIP3    H222343   2.597   1.041   1.538  1.6589 -2.2265 -0.1377
  262TIP3   OH222344   6.576   3.050   0.732  0.1559  0.3129 -0.0956
  262TIP3    H122345   6.638   3.040   0.804 -0.0800 -1.4503 -0.0894
  262TIP3    H222346   6.501   3.095   0.771  0.1638 -0.3368  0.6889
  263TIP3   OH222347   3.843   1.038   1.215 -0.8809  0.2661 -0.0452
  263TIP3    H122348   3.751   1.016   1.202 -1.3385  2.0734 -0.1312
  263TIP3    H222349   3.891   0.976   1.161 -2.2111  1.0752 -2.2800
  264TIP3   OH222350   3.547   3.037   7.508 -0.7919 -0.0648 -0.6980
  264TIP3    H122351   3.563   3.083   7.425  2.2454  2.9622  1.2870
  264TIP3    H222352   3.608   2.963   7.507  0.9991  1.3468 -0.3021
  265TIP3   OH222353   4.205   3.550   2.110 -0.4286  0.1151 -0.4893
  265TIP3    H122354   4.262   3.548   2.033  0.1567  0.1050 -0.0638
  265TIP3    H222355   4.124   3.590   2.079 -0.4454 -0.5107 -1.2713
  266TIP3   OH222356   5.915   1.246   1.917  0.0486  0.1482 -0.0700
  266TIP3    H122357   5.909   1.207   2.004 -0.6836 -0.9154 -0.5714
  266TIP3    H222358   5.992   1.205   1.877 -1.7781 -2.3795 -1.2933
  267TIP3   OH222359   3.693   6.441   7.664 -0.7472  0.2334  0.6859
  267TIP3    H122360   3.612   6.424   7.712 -1.0812 -1.0167 -0.2516
  267TIP3    H222361   3.668   6.503   7.596 -0.2627  2.0459  2.0688
  268TIP3   OH222362   0.641   1.231   7.290  0.2206  1.0116 -0.1269
  268TIP3    H122363   0.614   1.191   7.372  0.4145 -1.3997 -1.1607
  268TIP3    H222364   0.720   1.183   7.264 -0.7011  0.5970 -2.4464
  269TIP3   OH222365   2.728   4.008   1.519 -0.8826  0.2069 -0.0672
  269TIP3    H122366   2.720   4.094   1.559 -1.1624  0.3095 -0.3429
  269TIP3    H222367   2.671   4.011   1.442 -0.0744  0.1400 -0.6882
  270TIP3   OH222368   1.142   1.234   1.895 -0.2085 -0.2530 -0.2544
  270TIP3    H122369   1.108   1.213   1.982  1.2599  1.1788  0.7126
  270TIP3    H222370   1.182   1.320   1.905  1.1258 -0.6172 -2.0343
  271TIP3   OH222371   0.776   6.719   7.908  0.2148  0.1059  0.5819
  271TIP3    H122372   0.690   6.737   7.871  0.8187  0.2347 -0.8198
  271TIP3    H222373   0.761   6.714   8.002 -1.5970 -1.4291  0.2608
  272TIP3   OH222374   4.256   2.699   7.548 -0.0989 -0.6855  0.1713
  272TIP3    H122375   4.310   2.758   7.600  1.0810 -1.8325  0.3219
  272TIP3    H222376   4.175   2.747   7.532  0.1648  0.3250  1.6775
  273TIP3   OH222377   3.486   0.759   1.145 -0.3395 -0.4875 -0.2690
  273TIP3    H122378   3.521   0.726   1.227  0.7159 -1.7273 -1.1655
  273TIP3    H222379   3.524   0.847   1.136 -1.2146  0.0406  0.9876
  274TIP3   OH222380   6.183   0.094   1.130  0.2136 -0.7488  0.2788
  274TIP3    H122381   6.232   0.107   1.211  1.0484 -1.4610 -0.0959
  274TIP3    H222382   6.094   0.124   1.151  1.0546  1.7314  0.6144
  275TIP3   OH222383   3.356   3.547   7.752  0.1465  0.1183 -0.8030
  275TIP3    H122384   3.275   3.515   7.792 -1.1311  1.4837 -2.1391
  275TIP3    H222385   3.423   3.485   7.780 -1.4378 -1.3166  0.0055
  276TIP3   OH222386   2.451   7.003   2.234  0.6797  0.1215  0.3876
  276TIP3    H122387   2.427   7.096   2.232  3.8669  1.0421 -0.6496
  276TIP3    H222388   2.508   6.995   2.310  1.5886 -0.6435 -0.3590
  277TIP3   OH222389   1.119   4.649   7.478 -0.1607  0.0452 -0.3654
  277TIP3    H122390   1.188   4.582   7.475  1.0980  1.1929  1.2050
  277TIP3    H222391   1.038   4.598   7.483  0.7856 -1.4304  1.5130
  278TIP3   OH222392   3.729   2.411   7.679 -0.2843  0.3451 -0.8216
  278TIP3    H122393   3.799   2.446   7.625  0.4366 -0.2100 -0.2688
  278TIP3    H222394   3.758   2.427   7.769 -1.2292  0.8079 -0.5833
  279TIP3   OH222395   6.676   1.754   7.279 -0.6886  0.0357 -0.2518
  279TIP3    H122396   6.768   1.735   7.299 -0.6281  2.0883  1.8138
  279TIP3    H222397   6.629   1.675   7.305  0.3360 -0.4979  0.0532
  280TIP3   OH222398   6.972   6.903   7.064 -0.2645  0.3555  0.0102
  280TIP3    H122399   7.027   6.931   7.137 -0.5607  0.8918  0.0303
  280TIP3    H222400   6.937   6.818   7.091  0.9409 -0.2432 -0.2087
  281TIP3   OH222401   5.699   2.136   6.740  0.1282 -0.1860 -0.4539
  281TIP3    H122402   5.692   2.213   6.683 -0.1170 -0.1084 -0.3213
  281TIP3    H222403   5.742   2.070   6.686  0.3928  0.0645 -0.5492
  282TIP3   OH222404   0.196   4.167   0.957  0.4787  0.4373 -0.4563
  282TIP3    H122405   0.284   4.179   0.992  0.3145 -1.3168  0.6608
  282TIP3    H222406   0.192   4.074   0.934 -1.3315  0.3165  0.2417
  283TIP3   OH222407   0.631   2.263   7.035  0.3442  0.4725 -0.3067
  283TIP3    H122408   0.539   2.269   7.060  0.7089  0.0292  1.2472
  283TIP3    H222409   0.667   2.350   7.053  0.1204  0.8178 -1.4591
  284TIP3   OH222410   2.200   7.038   2.962  0.1895 -0.1482  0.1283
  284TIP3    H122411   2.272   7.047   3.024 -0.8556  1.6584  1.1254
  284TIP3    H222412   2.212   7.110   2.900 -0.0452 -0.6162 -0.4775
  285TIP3   OH222413   7.049   3.439   2.933  0.1885 -0.0368  0.2237
  285TIP3    H122414   7.013   3.527   2.947  2.0199  0.7403  0.3418
  285TIP3    H222415   7.132   3.454   2.887 -0.0424 -1.7972 -0.8695
  286TIP3   OH222416   0.204   0.251   7.653  0.1526 -0.4435  0.3068
  286TIP3    H122417   0.286   0.203   7.668 -0.5518 -1.9070 -0.3082
  286TIP3    H222418   0.211   0.284   7.564  0.9476  1.3065  0.9732
  287TIP3   OH222419   4.850   4.625   0.470 -0.5913 -0.2666  0.1459
  287TIP3    H122420   4.801   4.609   0.550 -1.1822 -0.4913 -0.2591
  287TIP3    H222421   4.940   4.600   0.491 -0.6044  0.3203  0.9467
  288TIP3   OH222422   6.100   2.938   0.184 -0.0439 -0.1990 -0.0299
  288TIP3    H122423   6.070   2.903   0.101 -0.4563  1.9865 -0.8741
  288TIP3    H222424   6.176   2.885   0.208  0.8348 -0.1140 -2.4227
  289TIP3   OH222425   6.292   2.753   1.747 -0.7446  0.3060  0.2769
  289TIP3    H122426   6.229   2.775   1.679  1.1997  1.9189 -1.1497
  289TIP3    H222427   6.277   2.818   1.816 -0.3932  0.9562 -0.2484
  290TIP3   OH222428   6.225   4.481   1.180  0.2771 -0.0309 -0.2148
  290TIP3    H122429   6.271   4.564   1.166 -0.2637  0.1698 -0.8783
  290TIP3    H222430   6.143   4.491   1.131  0.5944 -1.2767 -1.0465
  291TIP3   OH222431   1.499   5.373   6.900  0.2905  0.0128 -0.2713
  291TIP3    H122432   1.527   5.401   6.988 -0.9941 -0.7829  0.4263
  291TIP3    H222433   1.499   5.453   6.848  1.3256  0.4561  0.3679
  292TIP3   OH222434   5.644   2.574   7.921  0.1189  0.0690 -0.2054
  292TIP3    H122435   5.627   2.669   7.923  0.7637  0.1854  0.5743
  292TIP3    H222436   5.561   2.535   7.896 -0.4329  0.7833  0.4523
  293TIP3   OH222437   0.024   4.226   7.303  0.7931 -0.1670  0.3796
  293TIP3    H122438  -0.046   4.263   7.357  1.6505  0.1830  1.2934
  293TIP3    H222439  -0.013   4.223   7.215  0.3710  2.0825  0.4110
  294TIP3   OH222440   6.532   2.000   0.930 -0.2269 -0.2876  0.2491
  294TIP3    H122441   6.437   1.994   0.943 -0.1294 -1.0143  0.6738
  294TIP3    H222442   6.545   2.085   0.889 -1.2647 -1.0536 -1.8066
  295TIP3   OH222443   1.730   6.668   1.616 -0.2350 -0.6036 -0.4294
  295TIP3    H122444   1.684   6.591   1.584 -0.0712 -2.0534  2.4686
  295TIP3    H222445   1.818   6.636   1.635 -0.4228  0.0203  1.6704
  296TIP3   OH222446   1.352   2.599   0.490 -0.4143 -0.1550  0.1215
  296TIP3    H122447   1.346   2.684   0.533 -0.9924  0.0934 -0.4400
  296TIP3    H222448   1.397   2.617   0.408 -2.0731 -0.0771 -0.7985
  297TIP3   OH222449   6.766   4.669   7.998  0.8333 -0.4753 -0.1124
  297TIP3    H122450   6.698   4.628   8.052  2.4251 -0.1091  2.3271
  297TIP3    H222451   6.727   4.752   7.970 -0.0792 -0.7024  0.4141
  298TIP3   OH222452   3.255   6.867   0.199  0.1238  0.4781 -0.0307
  298TIP3    H122453   3.180   6.808   0.200  1.0961 -0.7943  0.8821
  298TIP3    H222454   3.284   6.870   0.291  1.1097  1.0533 -0.3438
  299TIP3   OH222455   4.534   5.718   1.437 -0.7322 -0.4052 -0.0276
  299TIP3    H122456   4.628   5.698   1.438 -0.4465  0.4516 -2.2833
  299TIP3    H222457   4.499   5.678   1.517  1.8621  0.8973  1.9146
  300TIP3   OH222458   2.251   2.890   0.575  0.0543  0.0924 -0.2911
  300TIP3    H122459   2.291   2.973   0.602 -0.1376 -0.1632  0.8289
  300TIP3    H222460   2.189   2.915   0.507 -2.1501  1.3303  2.0037
  301TIP3   OH222461   0.843   1.966   0.166 -0.1840  0.6532 -0.4987
  301TIP3    H122462   0.848   1.913   0.245 -0.8757  1.9025  0.4284
  301TIP3    H222463   0.789   1.915   0.106 -1.6803  0.6968  0.7430
  302TIP3   OH222464   3.931   3.257   1.568  0.0370 -0.1177 -0.6039
  302TIP3    H122465   3.927   3.168   1.532 -1.0338 -0.4029  0.1938
  302TIP3    H222466   3.893   3.312   1.499 -0.8395 -0.5011 -0.4367
  303TIP3   OH222467   0.731   7.023   7.759  0.3232  0.0227 -0.7819
  303TIP3    H122468   0.643   7.041   7.725 -0.4254 -0.1337  0.9950
  303TIP3    H222469   0.786   7.089   7.716 -0.8512  0.8584 -1.0725
  304TIP3   OH222470   3.519   5.290   0.132 -0.0747 -0.4729  0.0502
  304TIP3    H122471   3.449   5.238   0.172 -0.1429 -0.6652 -0.3172
  304TIP3    H222472   3.550   5.237   0.059 -0.6696  0.3416 -0.8122
  305TIP3   OH222473   3.955   4.956   0.690 -0.1805  0.6565  0.7541
  305TIP3    H122474   3.862   4.943   0.670 -0.2559 -1.8621  2.3534
  305TIP3    H222475   3.956   4.992   0.778  0.3605  0.4647  0.8313
  306TIP3   OH222476   3.474   4.054   2.601  0.0403 -0.0843 -0.1124
  306TIP3    H122477   3.385   4.019   2.595  0.1249 -1.2449  3.2654
  306TIP3    H222478   3.473   4.106   2.682  1.7665  2.1538 -1.4378
  307TIP3   OH222479   1.815   1.220   2.482  0.3785  0.0302 -0.2813
  307TIP3    H122480   1.856   1.140   2.515 -0.8242  0.0206  1.2588
  307TIP3    H222481   1.883   1.287   2.491  0.6412 -0.3445  0.5501
  308TIP3   OH222482   5.962   4.707   2.405 -0.2227  0.0184 -0.4355
  308TIP3    H122483   5.967   4.611   2.396  0.1275  0.0594 -0.6866
  308TIP3    H222484   5.886   4.731   2.352 -1.3094 -0.2833  0.9258
  309TIP3   OH222485   5.869   2.822   1.784 -0.3155 -0.5174 -0.0116
  309TIP3    H122486   5.893   2.732   1.805 -0.9535 -0.6077  0.3277
  309TIP3    H222487   5.804   2.846   1.849  0.2714  0.3875  0.2565
  310TIP3   OH222488   0.506   2.397   1.103  0.1729 -0.2239 -0.2933
  310TIP3    H122489   0.542   2.320   1.059  0.8217  0.3974 -0.8691
  310TIP3    H222490   0.425   2.416   1.054 -0.7058 -1.3085  0.6787
  311TIP3   OH222491   2.957   6.199   1.117 -0.3776 -0.1110  0.3128
  311TIP3    H122492   2.990   6.219   1.204 -0.2300 -2.9522  0.9848
  311TIP3    H222493   2.864   6.221   1.120 -0.7612 -1.7416  1.7831
  312TIP3   OH222494   0.242   1.903   1.421 -0.7134  0.2029 -0.1386
  312TIP3    H122495   0.163   1.848   1.424 -0.6163  0.0246 -0.7762
  312TIP3    H222496   0.257   1.918   1.328  0.3631 -0.2723 -0.0491
  313TIP3   OH222497   1.608   3.832   6.223  0.9742 -0.4526 -0.2331
  313TIP3    H122498   1.621   3.921   6.256  0.3135  0.0559 -1.2947
  313TIP3    H222499   1.696   3.798   6.210  1.2436  0.3727 -0.6446
  314TIP3   OH222500   6.207   1.113   7.259 -0.4570  0.3902  0.1581
  314TIP3    H122501   6.151   1.189   7.272 -2.3325 -0.3962 -2.4137
  314TIP3    H222502   6.146   1.038   7.261  0.7294 -0.6641 -1.0743
  315TIP3   OH222503   2.876   5.957   7.290  0.4624 -0.9811  0.3205
  315TIP3    H122504   2.840   5.891   7.231  1.1006 -2.8638  1.9381
  315TIP3    H222505   2.814   5.960   7.363  0.7469 -0.2098  0.5365
  316TIP3   OH222506   1.337   5.136   1.870 -0.1706 -0.3782 -0.7014
  316TIP3    H122507   1.424   5.128   1.831 -0.4861  0.6477 -1.6808
  316TIP3    H222508   1.342   5.217   1.922 -0.4545 -0.4615 -0.5418
  317TIP3   OH222509   5.388   0.022   0.320  0.4068 -0.3064  0.0059
  317TIP3    H122510   5.332   0.032   0.243  0.6873  1.1373 -0.0407
  317TIP3    H222511   5.328   0.028   0.394  0.4753  1.4112 -0.0386
  318TIP3   OH222512   3.836   3.244   7.423 -0.0973 -0.2110  0.2075
  318TIP3    H122513   3.755   3.194   7.414  0.3832 -1.1194  0.7517
  318TIP3    H222514   3.818   3.308   7.491 -1.2506  1.5021 -1.6152
  319TIP3   OH222515   0.475   0.724   0.151  0.4816  0.2388 -0.7177
  319TIP3    H122516   0.385   0.732   0.180  0.3658 -0.1755 -0.9529
  319TIP3    H222517   0.524   0.788   0.204  0.2803 -0.4923  0.3688
  320TIP3   OH222518   3.409   1.263   7.150  0.7827  0.5022 -0.5660
  320TIP3    H122519   3.420   1.355   7.173 -1.5401  0.5067  0.8514
  320TIP3    H222520   3.491   1.221   7.175  1.1488  1.8736  0.5888
  321TIP3   OH222521   5.123   0.305   7.772 -0.4215  0.2358  0.1081
  321TIP3    H122522   5.059   0.366   7.811 -0.2284  1.5047 -1.4703
  321TIP3    H222523   5.207   0.332   7.809  0.2055  3.2885 -3.0061
  322TIP3   OH222524   0.329   5.523   0.774 -0.0261  0.6508  0.2786
  322TIP3    H122525   0.322   5.550   0.682 -1.5716 -1.7641 -0.3902
  322TIP3    H222526   0.261   5.573   0.819 -3.6159 -2.4729 -1.1399
  323TIP3   OH222527   5.790   0.165   2.670  0.7372 -0.5101  0.1995
  323TIP3    H122528   5.713   0.148   2.617  0.6795  0.2451  0.0302
  323TIP3    H222529   5.821   0.078   2.696  0.6514 -0.8782 -0.8948
  324TIP3   OH222530   0.697   2.933   7.249 -0.0984 -0.6855 -0.8860
  324TIP3    H122531   0.715   3.022   7.218 -0.7122  0.4119  1.6479
  324TIP3    H222532   0.717   2.877   7.174  0.0948  1.5878 -2.6400
  325TIP3   OH222533   5.064   0.080   5.977 -0.2673  0.2284 -0.5037
  325TIP3    H122534   5.008   0.060   6.052  2.0561 -3.1974  0.5366
  325TIP3    H222535   5.147   0.109   6.015  0.7493 -0.9858 -1.7071
  326TIP3   OH222536   3.165   4.753   1.015 -0.6062 -0.5150  0.0609
  326TIP3    H122537   3.180   4.730   0.924  1.6466 -2.7995  0.8736
  326TIP3    H222538   3.219   4.830   1.031 -0.7243 -0.3306 -0.4189
  327TIP3   OH222539   5.513   1.087   1.715 -0.0937  0.2156 -0.1129
  327TIP3    H122540   5.607   1.073   1.730 -0.4829 -1.3946  1.1044
  327TIP3    H222541   5.492   1.163   1.769  0.1745 -0.5513  1.1259
  328TIP3   OH222542   1.642   0.990   1.598  0.8953  0.0199  0.1621
  328TIP3    H122543   1.639   0.899   1.569 -1.1409  0.6109 -1.7467
  328TIP3    H222544   1.668   1.039   1.520  1.1980  1.1501  0.9560
  329TIP3   OH222545   2.392   3.062   1.115  0.5016  0.1651 -0.0188
  329TIP3    H122546   2.316   3.018   1.076  1.3448 -0.4697 -0.9847
  329TIP3    H222547   2.399   3.145   1.068 -0.4650  0.9084  1.0943
  330TIP3   OH222548   3.170   4.773   7.466 -0.3046 -0.3494  1.2574
  330TIP3    H122549   3.179   4.678   7.478  2.2222 -0.1121  1.8450
  330TIP3    H222550   3.218   4.791   7.385 -1.3668  0.3789  0.7659
  331TIP3   OH222551   6.611   5.418   0.565  0.0036  0.3539 -0.3803
  331TIP3    H122552   6.585   5.358   0.635  0.1133  1.4481  0.6338
  331TIP3    H222553   6.683   5.373   0.521 -0.6836 -0.7681 -0.4201
  332TIP3   OH222554   4.707   1.317   1.224 -0.3872  0.9253 -0.1365
  332TIP3    H122555   4.749   1.233   1.211  0.6904  1.6140 -1.3984
  332TIP3    H222556   4.694   1.324   1.319 -2.3242 -1.4762 -0.1292
  333TIP3   OH222557   4.205   5.927   1.834  0.2045  0.0510 -0.0029
  333TIP3    H122558   4.182   5.834   1.827 -0.9145  0.2811  0.3646
  333TIP3    H222559   4.123   5.970   1.856  0.7033  1.1444 -0.2211
  334TIP3   OH222560   3.899   0.414   6.959  0.5227  0.4869  0.1630
  334TIP3    H122561   3.878   0.476   7.029  0.8471 -0.0858  0.7787
  334TIP3    H222562   3.873   0.459   6.878 -1.3876  0.5309  0.7544
  335TIP3   OH222563   5.490   6.417   1.865  0.3490  0.3388 -0.2588
  335TIP3    H122564   5.474   6.368   1.946  1.1837 -1.8065 -1.3023
  335TIP3    H222565   5.585   6.431   1.864  0.5665 -0.9913 -1.5263
  336TIP3   OH222566   2.096   1.310   0.080  0.0588 -0.4586 -0.8896
  336TIP3    H122567   2.144   1.249   0.136 -3.8105 -0.6613  2.6910
  336TIP3    H222568   2.164   1.355   0.029  3.7092 -2.3459  1.8686
  337TIP3   OH222569   4.394   6.624   1.569  0.2394 -0.8176 -0.0291
  337TIP3    H122570   4.399   6.693   1.503  1.3068 -1.5172 -0.7091
  337TIP3    H222571   4.423   6.545   1.524  0.8310 -1.3492  1.2285
  338TIP3   OH222572   4.550   0.184   2.213  0.2084  0.6214  0.2542
  338TIP3    H122573   4.512   0.108   2.171  1.5402 -0.1574  0.4015
  338TIP3    H222574   4.479   0.249   2.215 -0.8519 -0.4934 -0.1449
  339TIP3   OH222575   3.231   3.284   1.725  0.4566  0.2749 -0.5979
  339TIP3    H122576   3.229   3.189   1.729 -1.0845  0.2676 -0.8464
  339TIP3    H222577   3.255   3.311   1.813 -0.5796 -0.3404 -0.1075
  340TIP3   OH222578   1.043   3.628   1.747 -0.1126 -0.3534  0.3329
  340TIP3    H122579   1.119   3.581   1.782  0.2607  0.1137  0.1540
  340TIP3    H222580   1.005   3.567   1.683  0.3873 -0.4011  0.0775
  341TIP3   OH222581   3.201   5.616   7.890 -0.2666  0.2398 -0.2986
  341TIP3    H122582   3.219   5.707   7.916  0.7811  0.5055 -1.8425
  341TIP3    H222583   3.267   5.565   7.937  0.3376  0.4976 -0.8508
  342TIP3   OH222584   1.166   1.890   0.247  0.6074 -0.2063 -0.2551
  342TIP3    H122585   1.235   1.867   0.184  0.3738  0.9118 -0.9566
  342TIP3    H222586   1.089   1.845   0.214  0.9163 -1.1996  0.3489
  343TIP3   OH222587   0.735   0.671   6.419 -0.6128  0.7699  0.1258
  343TIP3    H122588   0.810   0.631   6.375 -0.4793 -0.0212  1.0472
  343TIP3    H222589   0.760   0.763   6.429 -1.1249  1.2660 -2.4470
  344TIP3   OH222590   1.958   2.271   7.272  0.2655 -0.7041  0.3942
  344TIP3    H122591   2.014   2.249   7.197 -0.3131 -2.2858  0.3925
  344TIP3    H222592   1.905   2.193   7.286 -1.0901  0.3071  1.1746
  345TIP3   OH222593   4.514   1.816   1.241 -0.0763  0.1443  0.1023
  345TIP3    H122594   4.562   1.898   1.231  0.3851 -0.1657 -0.2844
  345TIP3    H222595   4.480   1.798   1.153 -2.5251  1.3192  0.7184
  346TIP3   OH222596   6.149   0.040   2.144  0.2107 -0.1519 -0.5503
  346TIP3    H122597   6.155   0.108   2.210 -2.9026  1.3271 -1.6061
  346TIP3    H222598   6.126  -0.039   2.193 -1.3252  0.7565  0.2582
  347TIP3   OH222599   3.819   1.759   1.774  0.2609  0.4305  0.2060
  347TIP3    H122600   3.842   1.762   1.867 -0.2727  1.6954  0.3196
  347TIP3    H222601   3.728   1.789   1.770  0.5854  1.3716 -0.8119
  348TIP3   OH222602   6.074   4.370   1.437  0.9478 -0.1444  0.0152
  348TIP3    H122603   6.160   4.331   1.455  2.2590  2.0040 -1.1500
  348TIP3    H222604   6.083   4.407   1.350 -1.6236 -0.9104 -0.6534
  349TIP3   OH222605   7.134   5.182   2.932 -0.1279  0.8745 -0.1168
  349TIP3    H122606   7.130   5.278   2.938 -2.3579  0.7577  2.1545
  349TIP3    H222607   7.155   5.154   3.020  0.1150 -0.7657 -0.6740
  350TIP3   OH222608   4.128   3.457   6.877 -0.0280 -0.0822 -0.1396
  350TIP3    H122609   4.093   3.445   6.789  0.6868 -1.3910 -0.2864
  350TIP3    H222610   4.148   3.368   6.906  0.4977  0.3984  1.0310
  351TIP3   OH222611   3.468   5.634   0.854 -0.4476  0.1786 -0.3520
  351TIP3    H122612   3.435   5.663   0.770  2.8458 -0.1257 -1.9052
  351TIP3    H222613   3.390   5.602   0.901 -2.6744  2.1988 -2.4094
  352TIP3   OH222614   3.107   6.795   1.403  0.0862 -0.1443 -0.1079
  352TIP3    H122615   3.045   6.770   1.472 -1.1907  0.1658 -1.1054
  352TIP3    H222616   3.191   6.759   1.432 -0.6299 -0.9082  1.0996
  353TIP3   OH222617   0.037   4.644   0.432 -0.5374  0.3717  0.4469
  353TIP3    H122618   0.129   4.624   0.416 -0.6185 -1.6989  2.0644
  353TIP3    H222619   0.034   4.740   0.437  1.7735  0.4609  1.5508
  354TIP3   OH222620   6.105   4.859   2.103  0.5383  0.6523  0.4066
  354TIP3    H122621   6.084   4.769   2.076 -0.4401  0.7991  0.6247
  354TIP3    H222622   6.194   4.873   2.072  0.7815 -0.4665  0.5515
  355TIP3   OH222623   4.700   0.664   1.970  0.5935  0.1584  0.4667
  355TIP3    H122624   4.611   0.635   1.992  1.1380 -2.3245 -0.3104
  355TIP3    H222625   4.757   0.603   2.017  1.9158  1.5549  0.7536
  356TIP3   OH222626   5.186   0.402   7.521  0.2148 -0.5552  0.4149
  356TIP3    H122627   5.187   0.375   7.613  0.7898 -0.0066  0.5754
  356TIP3    H222628   5.132   0.337   7.478 -1.6099  0.1719  1.4563
  357TIP3   OH222629   6.498   2.898   0.484 -0.3009 -0.1609 -0.1444
  357TIP3    H122630   6.521   2.964   0.550  3.7481 -0.1264 -1.3459
  357TIP3    H222631   6.472   2.949   0.408 -5.4443 -0.1966  1.2221
  358TIP3   OH222632   5.058   1.211   0.938 -0.1242  0.0496  1.1104
  358TIP3    H122633   5.132   1.259   0.900 -1.0731  0.0189 -0.9291
  358TIP3    H222634   5.073   1.120   0.914 -0.9452  0.0842  0.3902
  359TIP3   OH222635   4.974   5.778   0.593 -0.0142  0.1958  0.1559
  359TIP3    H122636   4.973   5.717   0.666  0.4334  1.0464  0.9050
  359TIP3    H222637   5.067   5.797   0.579 -0.0810 -0.0914 -0.7663
  360TIP3   OH222638   2.628   6.166   1.392 -0.0967  0.1195 -0.1984
  360TIP3    H122639   2.573   6.228   1.439  0.7021  0.5995  0.1200
  360TIP3    H222640   2.702   6.219   1.359  0.5922 -0.6460  0.0781
  361TIP3   OH222641   3.639   0.158   0.964 -0.8311  0.1262 -0.2956
  361TIP3    H122642   3.577   0.169   0.892 -0.8014 -1.4659 -0.6059
  361TIP3    H222643   3.584   0.129   1.038 -0.5839 -0.4351 -0.3264
  362TIP3   OH222644   3.324   2.979   0.719 -0.2947 -1.1398 -0.4463
  362TIP3    H122645   3.380   2.960   0.794 -2.1220 -2.3277  0.7011
  362TIP3    H222646   3.335   3.072   0.703  0.4666 -0.9492  1.0476
  363TIP3   OH222647   2.071   1.006   7.355 -0.1172 -0.3241 -0.0143
  363TIP3    H122648   2.067   1.031   7.448 -2.4030  0.2207 -0.1996
  363TIP3    H222649   2.020   0.925   7.350 -1.6842  0.6600 -1.0277
  364TIP3   OH222650   7.089   6.311   6.369  0.6199  0.1573 -0.3792
  364TIP3    H122651   7.182   6.334   6.366  1.3402 -2.4829 -0.4299
  364TIP3    H222652   7.060   6.318   6.279  1.1908 -0.5043 -0.6240
  365TIP3   OH222653   2.844   5.571   1.522 -0.1638  0.7266 -0.2260
  365TIP3    H122654   2.846   5.643   1.584  1.8694  0.5488 -0.0245
  365TIP3    H222655   2.851   5.492   1.575  1.3337  0.5634 -0.5994
  366TIP3   OH222656   3.366   3.076   2.131  0.5368 -0.2628 -0.4680
  366TIP3    H122657   3.446   3.122   2.104  1.9824 -2.3507 -0.0278
  366TIP3    H222658   3.357   3.097   2.224 -0.0533  0.8014 -0.7495
  367TIP3   OH222659   6.090   4.846   1.358 -0.4202 -0.4496  0.6046
  367TIP3    H122660   6.184   4.839   1.377  0.2756  0.0337 -2.2102
  367TIP3    H222661   6.063   4.928   1.398  0.2225 -0.7984  1.8125
  368TIP3   OH222662   7.133   3.553   2.137 -0.2992 -0.5075 -0.3104
  368TIP3    H122663   7.189   3.527   2.064  1.8716 -3.1807  2.0492
  368TIP3    H222664   7.090   3.472   2.164 -0.1043  0.0840  2.0253
  369TIP3   OH222665   1.832   3.460   7.509 -0.4378 -0.3308 -0.3325
  369TIP3    H122666   1.920   3.455   7.546 -0.7953  1.0820  0.8271
  369TIP3    H222667   1.840   3.426   7.420  1.0323 -1.2850  0.1398
  370TIP3   OH222668   1.439   2.733   2.251  0.9028 -0.2559  0.5100
  370TIP3    H122669   1.501   2.720   2.323  0.7677  0.3716  0.7462
  370TIP3    H222670   1.354   2.743   2.293  0.9490  1.0320  0.3433
  371TIP3   OH222671   7.124   5.069   7.189 -0.2017  0.0442  0.2044
  371TIP3    H122672   7.118   5.042   7.097 -0.2628  0.5015  0.0754
  371TIP3    H222673   7.059   5.138   7.198  0.8852  1.1001  0.2028
  372TIP3   OH222674   0.148   6.205   0.529  0.4565  0.1656  0.4461
  372TIP3    H122675   0.238   6.175   0.514 -0.0716 -0.2559 -2.3513
  372TIP3    H222676   0.109   6.208   0.442 -2.1831  0.6181  1.5613
  373TIP3   OH222677   1.469   1.007   1.146 -0.2311 -0.0726 -0.3636
  373TIP3    H122678   1.563   0.992   1.155 -0.0006 -0.2220 -2.5440
  373TIP3    H222679   1.461   1.102   1.142  0.1576 -0.0903 -2.6712
  374TIP3   OH222680   4.610   3.225   2.612 -0.4633  0.0659  0.0991
  374TIP3    H122681   4.627   3.275   2.692 -0.7391 -1.6791  1.3082
  374TIP3    H222682   4.692   3.177   2.596 -1.2341 -1.5965  0.8803
  375TIP3   OH222683   6.980   4.232   1.524  0.1778 -0.3885  0.0452
  375TIP3    H122684   6.938   4.296   1.583  1.2771 -0.1247  0.5650
  375TIP3    H222685   6.914   4.215   1.457 -0.2343  1.1301  0.0171
  376TIP3   OH222686   0.668   4.161   7.306  0.6178  0.0301 -0.5933
  376TIP3    H122687   0.614   4.200   7.237  0.0627  2.3376  1.0193
  376TIP3    H222688   0.752   4.206   7.299  0.8829 -0.4230 -0.3690
  377TIP3   OH222689   0.947   0.476   1.280  0.6150  1.0861  0.1405
  377TIP3    H122690   0.897   0.557   1.284  0.2244  0.8898 -0.4451
  377TIP3    H222691   1.033   0.498   1.313  0.6647  1.8670 -0.4859
  378TIP3   OH222692   6.780   0.155   0.620 -0.2038 -0.0903  0.2614
  378TIP3    H122693   6.785   0.063   0.594 -1.6062 -0.1818  0.2459
  378TIP3    H222694   6.744   0.152   0.709  0.3304  0.4260  0.5022
  379TIP3   OH222695   2.300   0.606   1.672  0.0758 -0.0808 -0.2296
  379TIP3    H122696   2.242   0.673   1.637  0.4183  1.6365  2.2451
  379TIP3    H222697   2.388   0.633   1.645  0.1683  0.2265  0.3571
  380TIP3   OH222698   1.418   6.122   0.811  0.5093  0.4682 -0.2083
  380TIP3    H122699   1.338   6.081   0.846  0.0742  0.5230 -1.1210
  380TIP3    H222700   1.395   6.215   0.805  1.2183  0.7595  1.0830
  381TIP3   OH222701   1.661   2.737   1.895 -0.4624  0.5331 -0.2963
  381TIP3    H122702   1.641   2.668   1.959 -0.0508  1.3468  0.7346
  381TIP3    H222703   1.705   2.690   1.824 -1.4937 -0.4861 -0.2995
  382TIP3   OH222704   4.810   0.919   1.957 -0.5982  0.4466  0.8484
  382TIP3    H122705   4.859   0.952   2.032  0.8360  0.1365  0.0767
  382TIP3    H222706   4.784   0.830   1.982 -0.0328  0.3078  0.9366
  383TIP3   OH222707   0.930   0.060   7.661 -0.4642  0.3106 -0.6895
  383TIP3    H122708   0.986   0.050   7.737 -0.3911  0.1286 -0.7660
  383TIP3    H222709   0.990   0.066   7.587 -0.5237 -3.1364 -1.1799
  384TIP3   OH222710   0.907   2.402   1.967  0.1482  0.1813  0.5264
  384TIP3    H122711   0.863   2.457   2.031 -1.8768  0.3552 -0.9492
  384TIP3    H222712   0.995   2.439   1.960 -0.3244  1.5549  1.4906
  385TIP3   OH222713   5.793   3.969   6.497 -0.0250  0.6507  0.7518
  385TIP3    H122714   5.741   4.029   6.444 -1.2346 -1.1678 -0.2551
  385TIP3    H222715   5.802   4.013   6.582  1.2779  3.2752 -0.6456
  386TIP3   OH222716   5.290   4.858   1.312 -0.6725  0.3283 -0.3504
  386TIP3    H122717   5.198   4.864   1.339 -0.3529 -0.4045  0.9693
  386TIP3    H222718   5.340   4.870   1.393  0.3246 -2.1324 -0.5310
  387TIP3   OH222719   1.558   4.030   1.536 -0.5475 -0.2980  0.1147
  387TIP3    H122720   1.639   4.077   1.557  0.1186 -0.9060 -0.9913
  387TIP3    H222721   1.519   4.080   1.465  0.1733 -1.3432 -1.0826
  388TIP3   OH222722   7.112   1.735   0.164  0.0914  0.6068  0.1489
  388TIP3    H122723   7.111   1.829   0.182  1.4338  0.3352  1.8582
  388TIP3    H222724   7.104   1.694   0.250 -0.4060 -0.8564 -0.5677
  389TIP3   OH222725   5.249   3.240   0.182 -0.0246 -0.2999  0.3672
  389TIP3    H122726   5.306   3.198   0.117 -1.9151 -0.9141 -0.9954
  389TIP3    H222727   5.276   3.202   0.266  0.4739 -1.8558 -0.4474
  390TIP3   OH222728   6.201   1.638   0.529  0.1859 -0.0006  0.4392
  390TIP3    H122729   6.230   1.624   0.620  0.4569 -0.9069  0.2264
  390TIP3    H222730   6.280   1.626   0.477  0.4624  2.3789  0.1787
  391TIP3   OH222731   2.565   0.031   0.614  0.0846  0.5895  0.4713
  391TIP3    H122732   2.535   0.102   0.670 -0.9062 -0.1662  0.9181
  391TIP3    H222733   2.639  -0.008   0.661 -0.2833  0.4191  0.9180
  392TIP3   OH222734   5.167   6.837   1.597  0.4132  0.0749 -0.3541
  392TIP3    H122735   5.116   6.853   1.676 -0.2495 -2.7444 -0.0957
  392TIP3    H222736   5.127   6.892   1.530  0.8891  2.3979  1.1602
  393TIP3   OH222737   2.983   6.601   0.809  0.4295 -0.0822 -0.2323
  393TIP3    H122738   3.052   6.541   0.838  0.4108 -0.3492 -0.7376
  393TIP3    H222739   2.903   6.548   0.808  0.2844  0.1274 -0.0229
  394TIP3   OH222740   0.471   2.975   7.734 -0.5796 -0.0401 -0.5483
  394TIP3    H122741   0.393   2.933   7.696 -0.5291 -0.4742 -0.1834
  394TIP3    H222742   0.495   3.042   7.670 -0.4290 -0.8230 -1.3477
  395TIP3   OH222743   3.072   1.703   1.481  0.0454 -0.5691 -0.4783
  395TIP3    H122744   3.135   1.774   1.468 -0.9608  0.7218  1.3205
  395TIP3    H222745   3.016   1.707   1.403 -1.2501  2.0346  0.4534
  396TIP3   OH222746   6.426   6.612   2.052 -0.1174 -0.2538 -0.0807
  396TIP3    H122747   6.439   6.685   1.991 -1.8779  1.4284  1.4261
  396TIP3    H222748   6.500   6.619   2.113 -0.9477  1.1991  0.8420
  397TIP3   OH222749   6.427   2.478   1.057  0.4118  0.5031  0.5732
  397TIP3    H122750   6.437   2.395   1.104  0.6488 -0.0021 -0.3563
  397TIP3    H222751   6.332   2.488   1.047  0.2086  1.6338  2.9025
  398TIP3   OH222752   3.518   6.938   6.349 -0.6047  0.3761 -0.5624
  398TIP3    H122753   3.547   6.937   6.258  1.2149 -2.6372 -0.0757
  398TIP3    H222754   3.594   6.967   6.399 -0.7983 -0.2918  0.1556
  399TIP3   OH222755   5.686   2.328   7.132  0.1685  0.4442 -0.0393
  399TIP3    H122756   5.734   2.351   7.211 -0.7227  0.0785  0.6325
  399TIP3    H222757   5.744   2.353   7.060  0.3622  2.2243  0.6932
  400TIP3   OH222758   4.703   6.528   1.787  0.0874 -0.3393  0.3868
  400TIP3    H122759   4.720   6.531   1.881 -2.1442 -0.0886  0.8238
  400TIP3    H222760   4.648   6.451   1.774  2.6833 -2.1036 -1.2164
  401TIP3   OH222761   7.136   0.916   7.101  0.1047 -0.0060 -0.5844
  401TIP3    H122762   7.059   0.863   7.081 -0.4541 -0.5071  2.3962
  401TIP3    H222763   7.103   1.006   7.105 -0.3200 -0.1919  0.4472
  402TIP3   OH222764   6.431   2.973   0.122 -0.8370 -0.1758 -0.0349
  402TIP3    H122765   6.487   3.029   0.176 -0.8536 -0.3982  0.2132
  402TIP3    H222766   6.390   2.912   0.184 -1.8024  0.3553 -0.1272
  403TIP3   OH222767   6.213   7.077   5.763  0.1770  0.3327 -0.2552
  403TIP3    H122768   6.179   7.003   5.715  1.3996 -1.7720  1.8864
  403TIP3    H222769   6.308   7.068   5.759  0.3655  1.7451  0.1231
  404TIP3   OH222770   2.356   0.411   6.791  0.0836 -0.5288  0.0609
  404TIP3    H122771   2.345   0.427   6.697  0.3793  4.1164  0.5473
  404TIP3    H222772   2.449   0.393   6.803  0.0486 -1.1027 -0.5410
  405TIP3   OH222773   3.442   1.242   0.920  0.3095 -0.2904 -0.2068
  405TIP3    H122774   3.415   1.316   0.864 -1.3940 -1.4215 -0.9738
  405TIP3    H222775   3.429   1.165   0.865  0.8500 -1.2673  1.0009
  406TIP3   OH222776   3.546   2.598   0.717  0.5710  0.1816 -0.3819
  406TIP3    H122777   3.634   2.635   0.727  0.8372 -0.3076 -0.8743
  406TIP3    H222778   3.527   2.558   0.802  1.5295 -1.2016 -0.7815
  407TIP3   OH222779   6.831   1.087   6.478  0.5622  0.3750 -0.4786
  407TIP3    H122780   6.803   1.179   6.474 -0.3736  0.0682 -1.2153
  407TIP3    H222781   6.923   1.089   6.452  0.2115  0.9665 -1.7608
  408TIP3   OH222782   0.312   6.600   1.074 -0.4108 -0.0112 -0.1582
  408TIP3    H122783   0.362   6.596   1.155 -0.1264  1.3219 -0.2548
  408TIP3    H222784   0.226   6.633   1.100 -0.8231 -0.9924 -0.2010
  409TIP3   OH222785   4.786   3.593   6.314 -0.0000  0.0708  0.5055
  409TIP3    H122786   4.813   3.669   6.365  3.8417 -0.1004 -0.9152
  409TIP3    H222787   4.793   3.520   6.375 -0.6881  0.4765  1.0789
  410TIP3   OH222788   5.779   2.604   1.201  0.3372  0.5657  0.0361
  410TIP3    H122789   5.774   2.699   1.206  2.2643  0.7781 -1.2437
  410TIP3    H222790   5.748   2.583   1.112 -3.0551 -0.3542  1.2586
  411TIP3   OH222791   1.425   0.414   7.095  0.4307  0.5990 -0.0819
  411TIP3    H122792   1.408   0.505   7.120  2.4678  1.4870 -1.6524
  411TIP3    H222793   1.511   0.394   7.132  0.1240 -0.6296  0.0237
  412TIP3   OH222794   5.041   3.206   2.698 -0.3642 -0.3218 -0.6097
  412TIP3    H122795   5.012   3.223   2.787 -0.9920 -1.8791 -0.4805
  412TIP3    H222796   4.968   3.159   2.657  0.2377 -0.3646 -1.6842
  413TIP3   OH222797   6.116   6.493   6.537  0.1090  0.0556 -0.4039
  413TIP3    H122798   6.041   6.476   6.594 -0.3363  0.9414 -0.7156
  413TIP3    H222799   6.083   6.555   6.472 -0.4854 -3.5296 -3.8875
  414TIP3   OH222800   3.976   7.140   0.401  0.8577 -0.2832  0.3298
  414TIP3    H122801   4.040   7.188   0.452 -0.9012 -0.5055  2.9040
  414TIP3    H222802   4.028   7.095   0.333  2.7483  3.7226 -1.1606
  415TIP3   OH222803   4.248   6.167   7.479 -0.0873  0.2733  0.4168
  415TIP3    H122804   4.170   6.214   7.451 -0.4794  1.1243  2.7441
  415TIP3    H222805   4.320   6.228   7.460  0.0221 -0.3458 -1.3427
  416TIP3   OH222806   5.693   5.666   7.740  0.7479 -0.0874 -0.0587
  416TIP3    H122807   5.645   5.638   7.662 -0.7322 -0.2076  0.8558
  416TIP3    H222808   5.675   5.598   7.805  0.4149  0.9453  0.9543
  417TIP3   OH222809   1.496   1.387   1.433  0.1116  0.1200 -0.2601
  417TIP3    H122810   1.463   1.468   1.393  0.6731  0.7980  0.6091
  417TIP3    H222811   1.418   1.335   1.451 -0.3002  0.6994 -0.3576
  418TIP3   OH222812   1.380   5.133   2.179  0.4728 -0.5210 -0.1417
  418TIP3    H122813   1.356   5.218   2.141  1.7907 -0.0714 -0.0288
  418TIP3    H222814   1.351   5.139   2.270  1.3642  0.1948  0.1163
  419TIP3   OH222815   2.972   0.474   7.480 -0.5975 -0.0482 -0.3017
  419TIP3    H122816   3.065   0.453   7.485 -0.5822  0.2408  0.9090
  419TIP3    H222817   2.952   0.474   7.386  0.8864  1.0131 -0.6459
  420TIP3   OH222818   6.979   5.436   1.784  0.0464  0.2734  0.0201
  420TIP3    H122819   7.029   5.361   1.817 -1.8869 -0.0147  2.5343
  420TIP3    H222820   7.026   5.513   1.818 -0.4809  0.0479  1.2833
  421TIP3   OH222821   4.124   2.824   1.179  0.1454  0.3946 -0.5128
  421TIP3    H122822   4.091   2.762   1.244  2.2905  0.2260  0.5248
  421TIP3    H222823   4.197   2.778   1.137  1.8253  2.1535  0.3041
  422TIP3   OH222824   6.497   4.640   1.517  0.1154  0.5973  0.2911
  422TIP3    H122825   6.579   4.690   1.507 -0.7207  1.9642  0.0235
  422TIP3    H222826   6.515   4.557   1.475  1.3144  0.9520  0.0532
  423TIP3   OH222827   2.115   6.329   0.739  0.6760  0.4301 -0.2848
  423TIP3    H122828   2.122   6.424   0.730  0.0837  0.5243  0.1882
  423TIP3    H222829   2.142   6.311   0.829  0.3581  0.1964 -0.2367
  424TIP3   OH222830   0.890   1.461   7.772  0.3622 -0.6441  0.0762
  424TIP3    H122831   0.923   1.543   7.809  0.5794 -0.5985 -0.2190
  424TIP3    H222832   0.804   1.484   7.737  0.7522 -0.3512 -0.7118
  425TIP3   OH222833   0.474   5.208   1.771  0.9162  0.0999 -0.2656
  425TIP3    H122834   0.441   5.280   1.824  0.5727  2.0226 -2.9352
  425TIP3    H222835   0.553   5.179   1.817  0.1526  1.0140  1.7439
  426TIP3   OH222836   2.268   5.734   0.201  0.3288 -0.0665  0.0243
  426TIP3    H122837   2.196   5.744   0.138 -0.6982 -1.2185  0.9551
  426TIP3    H222838   2.234   5.774   0.281  0.7698 -0.5163  0.4371
  427TIP3   OH222839   2.520   0.980   7.313  0.5635 -0.0328 -0.0761
  427TIP3    H122840   2.453   1.045   7.335 -0.4804 -0.5897 -1.4476
  427TIP3    H222841   2.472   0.912   7.266  1.5310 -2.0796  1.7407
  428TIP3   OH222842   5.450   4.478   0.186  0.4766  0.4501  0.6407
  428TIP3    H122843   5.396   4.526   0.124  0.3274 -1.9464 -1.2401
  428TIP3    H222844   5.538   4.481   0.149  0.0758 -2.5882 -0.9284
  429TIP3   OH222845   5.456   0.485   5.998 -0.0128 -0.4064 -0.9082
  429TIP3    H122846   5.525   0.461   5.937 -0.1291 -2.0239 -0.4387
  429TIP3    H222847   5.376   0.449   5.960  0.1904 -3.3390  1.1189
  430TIP3   OH222848   2.463   0.679   2.179  0.1945 -0.2860 -0.0001
  430TIP3    H122849   2.427   0.621   2.246  0.7995  1.2856  1.7566
  430TIP3    H222850   2.453   0.630   2.097 -1.3708 -1.9082  1.0911
  431TIP3   OH222851   4.730   4.323   6.329 -0.4374  0.2558  0.4714
  431TIP3    H122852   4.808   4.375   6.347 -0.5766 -0.0057  1.9469
  431TIP3    H222853   4.680   4.325   6.411 -2.9415  1.9765 -0.9582
  432TIP3   OH222854   5.671   2.144   1.247  0.4402 -0.1932  0.5451
  432TIP3    H122855   5.663   2.083   1.174  0.6610  0.2186  0.1741
  432TIP3    H222856   5.752   2.117   1.292  1.0830  0.4528 -0.2102
  433TIP3   OH222857   1.278   0.325   0.631  0.2739 -0.1066 -0.2454
  433TIP3    H122858   1.202   0.383   0.641  0.5525  0.1234  0.6989
  433TIP3    H222859   1.349   0.372   0.674  0.8982 -0.4314 -0.9049
  434TIP3   OH222860   1.949   0.022   1.636  0.1303  0.2428  0.6816
  434TIP3    H122861   1.944  -0.073   1.647  1.2264  0.0477 -0.4090
  434TIP3    H222862   1.897   0.056   1.709 -0.5728 -1.1887  0.8943
  435TIP3   OH222863   5.079   7.050   1.430 -0.2145 -0.1794 -0.1489
  435TIP3    H122864   5.074   7.109   1.354 -0.9484  0.1741  0.1685
  435TIP3    H222865   4.989   7.024   1.446  0.1021 -1.4230 -0.2880
  436TIP3   OH222866   5.306   3.533   1.599 -0.2415 -0.6764  0.2994
  436TIP3    H122867   5.389   3.543   1.552 -0.1253 -0.3330  0.5826
  436TIP3    H222868   5.331   3.520   1.690 -0.4707 -1.3376  0.2777
  437TIP3   OH222869   3.541   4.367   0.685  0.0103  0.0751  0.0729
  437TIP3    H122870   3.507   4.399   0.601 -1.0674 -0.3366  0.3444
  437TIP3    H222871   3.470   4.383   0.747  0.2698 -0.9063  0.6273
  438TIP3   OH222872   7.031   4.356   2.308  0.2561 -0.0619 -0.0468
  438TIP3    H122873   7.116   4.344   2.350 -0.3815 -0.7593  1.0987
  438TIP3    H222874   7.048   4.416   2.236  2.2423 -2.2012 -1.5135
  439TIP3   OH222875   2.033   3.117   1.776 -0.0757 -0.2680 -0.1460
  439TIP3    H122876   2.048   3.089   1.686 -2.5681 -3.4658  0.2118
  439TIP3    H222877   1.943   3.089   1.795  0.7533 -0.9605  3.6866
  440TIP3   OH222878   4.723   3.081   0.801 -0.7624 -0.3038  0.4232
  440TIP3    H122879   4.706   3.117   0.888  1.0069  1.6828  0.0326
  440TIP3    H222880   4.738   3.158   0.746 -0.1931 -1.5603 -1.2530
  441TIP3   OH222881   6.221   6.599   4.791  0.3078  0.4003 -0.1595
  441TIP3    H122882   6.241   6.508   4.815 -0.5790  0.1204 -0.4361
  441TIP3    H222883   6.305   6.645   4.797  0.7637 -0.4365 -0.0098
  442TIP3   OH222884   4.506   5.139   0.676  0.6426 -0.1640 -0.3558
  442TIP3    H122885   4.413   5.115   0.673  0.4283  0.7105 -1.3809
  442TIP3    H222886   4.517   5.199   0.602  1.6909  0.9542  0.6787
  443TIP3   OH222887   1.222   3.011   7.502 -0.1342  0.2438 -0.0797
  443TIP3    H122888   1.136   2.973   7.484  0.5823 -1.3030 -0.3374
  443TIP3    H222889   1.254   2.964   7.579 -0.0907  1.8001  0.9035
  444TIP3   OH222890   7.001   0.143   7.405 -0.0227 -0.2673 -0.0471
  444TIP3    H122891   7.067   0.084   7.440  0.0061 -0.7456 -0.8628
  444TIP3    H222892   7.001   0.219   7.463 -2.1175 -2.2504  2.7967
  445TIP3   OH222893   6.342   6.474   7.540  0.2695  0.3976 -0.5054
  445TIP3    H122894   6.262   6.425   7.524  0.2612  0.0259  0.6024
  445TIP3    H222895   6.319   6.565   7.522 -1.4408  0.8230  2.9329
  446TIP3   OH222896   5.534   0.208   6.568 -0.0948  0.0884  0.1806
  446TIP3    H122897   5.521   0.150   6.493 -3.2779 -0.3202  0.9179
  446TIP3    H222898   5.533   0.150   6.644  2.6142  0.5538  0.6843
  447TIP3   OH222899   0.741   3.699   1.596 -0.1982 -0.0419 -0.1441
  447TIP3    H122900   0.802   3.631   1.568 -1.5451 -0.7980 -1.3881
  447TIP3    H222901   0.723   3.749   1.516 -1.7936 -0.3425 -0.0071
  448TIP3   OH222902   5.645   4.777   2.541 -0.2595 -0.1760 -0.2195
  448TIP3    H122903   5.589   4.719   2.489  1.3949 -0.8003 -1.3770
  448TIP3    H222904   5.697   4.718   2.596  0.6492  0.2668 -0.5873
  449TIP3   OH222905   5.012   4.741   1.903  0.2691  0.0495 -0.6911
  449TIP3    H122906   4.972   4.685   1.970  1.3624  0.0133 -0.0454
  449TIP3    H222907   4.999   4.830   1.935  2.0416 -0.0200  0.3292
  450TIP3   OH222908   2.245   6.815   6.927  0.1892  0.7848 -0.3203
  450TIP3    H122909   2.265   6.801   7.019  2.9342  0.3299 -0.8743
  450TIP3    H222910   2.169   6.760   6.910  0.2985  0.0278  1.4291
  451TIP3   OH222911   0.954   5.848   7.856 -0.4867 -0.1849  0.9168
  451TIP3    H122912   1.022   5.795   7.898  0.0746  0.7985  1.2997
  451TIP3    H222913   0.994   5.877   7.774 -1.3779 -1.6384 -0.0713
  452TIP3   OH222914   5.100   0.106   7.450  0.6312 -0.1367 -0.1303
  452TIP3    H122915   5.016   0.151   7.453  1.1478  0.8876 -0.5952
  452TIP3    H222916   5.096   0.042   7.522 -0.4576  0.0265 -0.0290
  453TIP3   OH222917   1.065   3.345   7.299  0.3171 -0.1490  1.0082
  453TIP3    H122918   1.144   3.390   7.269  0.1228 -0.3861  0.1077
  453TIP3    H222919   0.996   3.412   7.295  0.3049 -0.1613  1.0102
  454TIP3   OH222920   1.100   6.269   0.328  0.2541  0.2879  0.0027
  454TIP3    H122921   1.175   6.209   0.319  0.7678  0.8104  0.7190
  454TIP3    H222922   1.094   6.286   0.422 -1.7185 -0.9294  0.1604
  455TIP3   OH222923   4.813   5.250   0.475 -0.2187 -0.2170  0.2969
  455TIP3    H122924   4.875   5.209   0.536  0.3207  0.1532  0.0020
  455TIP3    H222925   4.829   5.344   0.483  1.0296 -0.2131 -1.6140
  456TIP3   OH222926   6.835   4.643   1.109 -0.7154 -0.4115  0.3270
  456TIP3    H122927   6.763   4.688   1.065 -0.2077  1.5765  1.4226
  456TIP3    H222928   6.832   4.554   1.074 -3.4902 -0.3197  0.0983
  457TIP3   OH222929   5.974   7.074   1.023  0.1098  0.7160  0.5856
  457TIP3    H122930   6.061   7.111   1.035  0.3076  0.7649 -0.7984
  457TIP3    H222931   5.950   7.040   1.109  0.6373  2.4931  1.4914
  458TIP3   OH222932   3.133   1.893   7.753 -0.5152 -0.2836  0.0759
  458TIP3    H122933   3.058   1.841   7.725  0.0923 -0.8031 -0.5964
  458TIP3    H222934   3.113   1.982   7.722 -0.2940 -0.6631 -1.1898
  459TIP3   OH222935   6.375   4.568   6.863  0.6771 -0.4662 -0.2336
  459TIP3    H122936   6.290   4.568   6.906  0.6308  0.2340 -0.3046
  459TIP3    H222937   6.356   4.587   6.771  0.9921  1.2595  0.0072
  460TIP3   OH222938   0.848   5.251   6.212  0.2166 -0.1181  0.2447
  460TIP3    H122939   0.834   5.182   6.148 -0.9532 -0.7821  1.1742
  460TIP3    H222940   0.849   5.332   6.161  2.0625 -0.8135 -0.9132
  461TIP3   OH222941   0.582   1.787   7.649  0.4466  0.5081  0.8573
  461TIP3    H122942   0.513   1.852   7.663  1.0663  0.9725  1.8497
  461TIP3    H222943   0.622   1.813   7.566  0.8212  1.5425  1.3475
  462TIP3   OH222944   5.746   1.525   6.475  0.4176  0.3207 -0.4775
  462TIP3    H122945   5.838   1.517   6.448  0.3030 -0.1950 -0.7353
  462TIP3    H222946   5.707   1.582   6.409  0.2255 -0.6301 -1.1996
  463TIP3   OH222947   0.504   3.919   0.070  0.2809  0.2920  0.5072
  463TIP3    H122948   0.418   3.896   0.035  0.8813 -1.0271 -0.1661
  463TIP3    H222949   0.519   3.857   0.141  1.0937 -0.1590 -0.0420
  464TIP3   OH222950   5.698   5.161   1.952 -0.0835 -0.0175 -0.2415
  464TIP3    H122951   5.751   5.104   2.008  0.1426  0.9914  0.6090
  464TIP3    H222952   5.608   5.138   1.974  0.0033 -0.2113 -0.0830
  465TIP3   OH222953   5.133   6.285   7.851  0.0610 -0.2086 -0.5252
  465TIP3    H122954   5.145   6.325   7.937 -1.2551 -0.3842 -0.2412
  465TIP3    H222955   5.120   6.192   7.870 -1.3232 -0.0951 -0.7983
  466TIP3   OH222956   2.467   3.247   0.004 -0.1114  0.4431 -0.5463
  466TIP3    H122957   2.531   3.176   0.007 -0.4860 -0.1266 -3.4826
  466TIP3    H222958   2.514   3.323   0.037  1.5651 -0.3168 -1.0714
  467TIP3   OH222959   0.369   5.871   7.393 -0.2783 -0.5662 -0.0559
  467TIP3    H122960   0.333   5.788   7.360 -3.0723 -0.0688  1.4098
  467TIP3    H222961   0.399   5.851   7.481  0.8418 -0.4009 -0.3840
  468TIP3   OH222962   2.470   3.043   1.823 -0.8540 -0.1847 -0.0606
  468TIP3    H122963   2.465   2.949   1.806  0.5602  0.0128 -1.9536
  468TIP3    H222964   2.420   3.083   1.752  1.0884  0.5465 -1.0963
  469TIP3   OH222965   4.809   1.726   2.046 -0.6128 -0.5515 -0.3820
  469TIP3    H122966   4.884   1.782   2.065 -1.7730  1.7835 -2.1416
  469TIP3    H222967   4.738   1.762   2.099 -0.8499 -1.8761  0.2324
  470TIP3   OH222968   3.673   1.229   2.605 -0.5653  0.8683  0.3287
  470TIP3    H122969   3.618   1.292   2.652 -1.6599  0.9732 -1.0052
  470TIP3    H222970   3.746   1.282   2.571  0.8474  0.5951  2.7239
  471TIP3   OH222971   6.600   0.425   2.169  0.3463  0.4433 -0.2378
  471TIP3    H122972   6.661   0.353   2.151  1.5038  0.9881  1.2650
  471TIP3    H222973   6.534   0.387   2.227 -0.4862 -0.0107 -1.4407
  472TIP3   OH222974   6.612   4.954   7.739 -0.6065 -0.0797 -0.2321
  472TIP3    H122975   6.575   4.870   7.767  1.0140 -1.0620 -0.9110
  472TIP3    H222976   6.654   4.935   7.655 -2.3003  1.9911 -1.6637
  473TIP3   OH222977   3.588   4.732   2.770  0.3034 -0.7757 -0.1822
  473TIP3    H122978   3.673   4.690   2.764  0.7896  0.0781  0.4232
  473TIP3    H222979   3.606   4.826   2.758 -0.4782 -0.5354  0.3862
  474TIP3   OH222980   6.930   5.722   0.817  0.1470  0.3479 -0.0336
  474TIP3    H122981   6.872   5.651   0.791  1.0791 -0.7699  0.8082
  474TIP3    H222982   6.882   5.769   0.885  0.5855 -1.2212  1.4434
  475TIP3   OH222983   5.061   5.009   0.236  0.0689 -0.2061  0.2034
  475TIP3    H122984   5.039   5.061   0.158 -0.7152 -0.9328 -0.0749
  475TIP3    H222985   5.079   5.075   0.304 -3.2625  0.5448  0.5563
  476TIP3   OH222986   1.961   5.718   7.164  0.3712 -0.2983  0.0708
  476TIP3    H122987   1.955   5.802   7.119 -1.9488 -0.7063 -0.5421
  476TIP3    H222988   2.039   5.676   7.127 -0.6523 -0.0272 -2.6425
  477TIP3   OH222989   4.353   3.605   1.853 -0.2790  0.0707 -0.2763
  477TIP3    H122990   4.296   3.646   1.788 -0.3378 -1.1898 -1.0623
  477TIP3    H222991   4.339   3.511   1.841  0.5995 -0.2156  0.7651
  478TIP3   OH222992   6.887   2.933   6.890 -0.6229 -0.2343 -0.2923
  478TIP3    H122993   6.923   2.860   6.840  0.2872 -0.0390  0.0617
  478TIP3    H222994   6.858   2.893   6.972 -0.6009 -0.2839 -0.3086
  479TIP3   OH222995   1.934   4.959   6.828 -0.0816  0.0893  0.1268
  479TIP3    H122996   1.982   4.876   6.825  3.3742  1.8904 -0.1118
  479TIP3    H222997   1.914   4.972   6.921 -0.9231 -1.0831  0.1347
  480TIP3   OH222998   0.504   7.017   7.402  0.4827  0.4711  0.7472
  480TIP3    H122999   0.583   7.006   7.349  0.2618 -0.6377  0.6266
  480TIP3    H223000   0.460   7.094   7.364  0.7105  0.1451 -0.1974
  481TIP3   OH223001   5.585   4.113   6.919  0.2581 -0.0017 -0.0947
  481TIP3    H123002   5.583   4.022   6.950 -2.5243  0.5649  1.8620
  481TIP3    H223003   5.495   4.143   6.932  0.5528  2.4124 -2.7842
  482TIP3   OH223004   6.844   4.955   7.889 -0.1299  0.4201  0.1103
  482TIP3    H123005   6.766   4.992   7.849  0.3218  1.3462  0.0696
  482TIP3    H223006   6.915   4.975   7.827  0.0409 -1.0813 -0.2356
  483TIP3   OH223007   6.290   2.915   7.751  1.0445 -0.2814  0.6460
  483TIP3    H123008   6.288   2.821   7.731  0.2632 -0.0496 -0.4689
  483TIP3    H223009   6.350   2.951   7.685 -1.8828  0.5592 -1.8038
  484TIP3   OH223010   3.478   6.201   1.568  0.1287  0.5298 -0.1325
  484TIP3    H123011   3.566   6.204   1.529  0.3231  0.1802  0.2678
  484TIP3    H223012   3.470   6.111   1.601 -1.5662 -0.4556 -2.9122
  485TIP3   OH223013   6.852   2.223   7.138 -0.0574 -0.1027  0.5093
  485TIP3    H123014   6.785   2.159   7.161  0.2087 -0.8785 -0.7570
  485TIP3    H223015   6.805   2.293   7.093 -0.1808 -0.0582  0.7102
  486TIP3   OH223016   6.433   6.502   5.497 -0.0218 -0.1555  0.0358
  486TIP3    H123017   6.475   6.588   5.496  1.7457 -0.9159 -2.3508
  486TIP3    H223018   6.347   6.517   5.535  0.4442  2.5461  0.2236
  487TIP3   OH223019   1.609   0.366   0.599  0.1460 -0.4258  0.0148
  487TIP3    H123020   1.668   0.379   0.673 -1.4435 -0.9755  1.4407
  487TIP3    H223021   1.592   0.454   0.566 -0.7184  0.0563  1.6268
  488TIP3   OH223022   5.987   2.523   1.845  0.7068 -0.4291 -0.1143
  488TIP3    H123023   6.040   2.566   1.913 -1.6274  0.7651  1.0746
  488TIP3    H223024   5.975   2.434   1.878 -0.8037  0.2719  1.3755
  489TIP3   OH223025   5.218   4.815   1.019  0.2126  0.8127 -0.6006
  489TIP3    H123026   5.188   4.869   0.945  0.2342  1.2343 -0.3067
  489TIP3    H223027   5.186   4.861   1.097  0.1297  0.3329 -0.3476
  490TIP3   OH223028   1.327   4.139   7.888  0.0274  0.0754 -0.2791
  490TIP3    H123029   1.263   4.208   7.908 -1.8132 -1.6871  0.3643
  490TIP3    H223030   1.356   4.158   7.799 -1.7100  0.7735 -0.7484
  491TIP3   OH223031   3.511   0.108   1.511 -0.0506  0.0816 -0.1212
  491TIP3    H123032   3.555   0.193   1.506  0.7991 -0.1589  2.2999
  491TIP3    H223033   3.494   0.095   1.604 -2.7051 -1.1764 -0.6819
  492TIP3   OH223034   6.870   0.595   7.166 -0.4225  0.5492  0.2967
  492TIP3    H123035   6.878   0.676   7.115 -0.6574 -0.0114 -0.6567
  492TIP3    H223036   6.914   0.529   7.113  1.8213  0.4638  2.1240
  493TIP3   OH223037   6.181   1.481   7.481  0.0490  0.0829 -0.1247
  493TIP3    H123038   6.200   1.575   7.486 -2.4132  0.6426  0.0683
  493TIP3    H223039   6.104   1.470   7.537 -1.2463 -1.5895 -2.1131
  494TIP3   OH223040   1.940   3.294   0.237  0.3949  0.1981 -0.0486
  494TIP3    H123041   2.008   3.311   0.172 -1.1046 -0.0987 -1.7778
  494TIP3    H223042   1.941   3.199   0.247 -0.4220  0.0911 -0.8643
  495TIP3   OH223043   0.123   6.608   6.320  0.6736 -0.4569  0.4029
  495TIP3    H123044   0.149   6.520   6.296  1.9665 -0.0402  0.2102
  495TIP3    H223045   0.096   6.649   6.238 -0.5263 -0.8521  0.5851
  496TIP3   OH223046   6.983   6.607   1.508 -0.5111 -0.1374  0.2428
  496TIP3    H123047   7.006   6.671   1.576 -1.2948 -0.2347  0.6128
  496TIP3    H223048   7.025   6.526   1.536 -2.7866 -0.8339  1.9662
  497TIP3   OH223049   1.279   7.138   1.353  0.6456 -0.1841 -0.1360
  497TIP3    H123050   1.356   7.081   1.355 -1.2188 -2.9257  1.7715
  497TIP3    H223051   1.226   7.108   1.427 -1.7545  2.3071 -0.7147
  498TIP3   OH223052   4.945   1.528   0.882  0.8148  0.5355  0.0899
  498TIP3    H123053   5.008   1.542   0.953 -0.4356 -1.1931  1.6313
  498TIP3    H223054   4.884   1.601   0.890  0.2482 -0.0462  1.3356
  499TIP3   OH223055   6.842   5.126   0.911  0.1811  0.0962  0.0456
  499TIP3    H123056   6.862   5.172   0.993  1.1677  0.9102 -0.6349
  499TIP3    H223057   6.873   5.037   0.925  0.5405  0.2891  0.4801
  500TIP3   OH223058   4.039   0.465   1.140  0.1976 -0.1537 -0.2616
  500TIP3    H123059   3.948   0.481   1.116  0.3591  0.8982 -0.2534
  500TIP3    H223060   4.066   0.392   1.084 -0.6360 -0.4633 -0.2769
  501TIP3   OH223061   2.816   2.201   7.488 -0.0855 -0.2322  0.3321
  501TIP3    H123062   2.863   2.265   7.434 -0.3338  0.0686  0.4725
  501TIP3    H223063   2.872   2.190   7.565  0.3463 -0.7796 -0.0535
  502TIP3   OH223064   6.353   0.408   1.782 -0.1578 -0.1624  0.6324
  502TIP3    H123065   6.337   0.486   1.729 -4.1371 -0.7164  0.7342
  502TIP3    H223066   6.373   0.441   1.869 -2.7823  0.8722  0.9272
  503TIP3   OH223067   6.108   3.249   7.107  0.0915  0.0810 -0.3851
  503TIP3    H123068   6.021   3.217   7.132  0.5401 -0.1599  0.9410
  503TIP3    H223069   6.156   3.169   7.082 -0.3276  0.3096 -2.0212
  504TIP3   OH223070   7.091   6.427   7.441  0.5632  0.1116 -0.1560
  504TIP3    H123071   7.159   6.493   7.429  0.6474 -0.2053 -1.6204
  504TIP3    H223072   7.081   6.387   7.354  0.6510 -1.9390  0.7300
  505TIP3   OH223073   0.582   2.714   0.272 -0.2681 -0.6333 -0.1912
  505TIP3    H123074   0.509   2.774   0.257  0.2670 -0.5634 -3.1081
  505TIP3    H223075   0.656   2.771   0.294 -0.5807 -0.5541  0.7113
  506TIP3   OH223076   2.070   2.843   1.382 -0.0689  0.0597  0.3354
  506TIP3    H123077   2.064   2.759   1.428 -1.8107  0.6107  1.2049
  506TIP3    H223078   2.158   2.843   1.345  0.5334 -1.4866  1.6037
  507TIP3   OH223079   5.042   0.544   1.500  0.4354 -0.2160  0.1245
  507TIP3    H123080   5.092   0.549   1.581  0.8112  0.1423 -0.1301
  507TIP3    H223081   5.102   0.504   1.437  0.4668  0.3913 -0.2300
  508TIP3   OH223082   1.959   1.405   0.299  0.0832 -0.2641  0.4617
  508TIP3    H123083   2.026   1.412   0.367 -1.2315 -0.0148  1.7950
  508TIP3    H223084   2.006   1.377   0.221  1.3413 -2.7760  1.9969
  509TIP3   OH223085   4.482   2.726   2.150  0.1665  0.8148  0.2092
  509TIP3    H123086   4.497   2.648   2.202  0.3174  0.9365  0.3486
  509TIP3    H223087   4.401   2.763   2.185 -0.9552 -0.2864 -1.0801
  510TIP3   OH223088   2.186   1.277   2.377  0.0838  0.9389  0.0892
  510TIP3    H123089   2.229   1.315   2.301 -0.4588 -0.3298 -0.9063
  510TIP3    H223090   2.117   1.339   2.399  0.6263  1.6101 -0.0780
  511TIP3   OH223091   1.895   4.468   7.479 -0.4676 -0.5155  0.4614
  511TIP3    H123092   1.866   4.493   7.392 -1.7650  0.3062  1.0930
  511TIP3    H223093   1.961   4.400   7.464  0.4938  0.7094 -1.1882
  512TIP3   OH223094   6.436   3.887   1.886  0.1156  0.5686  0.4216
  512TIP3    H123095   6.463   3.929   1.967  2.6192  0.2846 -0.1854
  512TIP3    H223096   6.518   3.866   1.841 -1.1667 -0.0455 -1.8006
  513TIP3   OH223097   2.328   3.947   2.414  0.3969  0.1035  0.2412
  513TIP3    H123098   2.253   3.975   2.361 -0.5211 -0.2229  1.3376
  513TIP3    H223099   2.399   3.933   2.350  0.0902  2.1906 -0.6180
  514TIP3   OH223100   3.501   1.059   0.423  0.3235  0.3845 -0.5557
  514TIP3    H123101   3.582   1.096   0.387 -0.3638  0.8286 -1.6861
  514TIP3    H223102   3.431   1.104   0.376 -0.6409  1.0282  1.3737
  515TIP3   OH223103   5.225   1.593   0.737  0.0436 -0.1291  0.1320
  515TIP3    H123104   5.139   1.554   0.755 -0.1461  0.0100 -0.4422
  515TIP3    H223105   5.264   1.606   0.823 -0.0186 -1.2955  0.3558
  516TIP3   OH223106   0.203   6.446   2.081 -0.2290  0.0101  0.1406
  516TIP3    H123107   0.129   6.458   2.140  0.0809  0.7477  0.3894
  516TIP3    H223108   0.242   6.533   2.073  1.2757 -0.5528  0.8946
  517TIP3   OH223109   0.948   6.178   7.484  0.0451 -0.3589  0.7017
  517TIP3    H123110   0.942   6.092   7.525  0.6602 -0.4709  0.5661
  517TIP3    H223111   1.012   6.225   7.537  0.9561 -0.5506 -0.1821
  518TIP3   OH223112   3.630   2.314   1.179  0.1636  1.0467 -0.2104
  518TIP3    H123113   3.719   2.295   1.148  0.4479  0.9212  0.6582
  518TIP3    H223114   3.642   2.378   1.249 -0.4852  1.4753 -0.4841
  519TIP3   OH223115   3.562   4.148   7.700  0.3624  0.3786 -0.6288
  519TIP3    H123116   3.646   4.162   7.745  0.6448  1.0160 -1.3274
  519TIP3    H223117   3.499   4.139   7.771  0.8657  0.9221 -0.0880
  520TIP3   OH223118   0.517   6.728   7.787 -0.2523  0.2619  0.2298
  520TIP3    H123119   0.515   6.811   7.739 -1.7978  0.0414 -0.1498
  520TIP3    H223120   0.468   6.667   7.731 -0.8240 -0.3866  1.4094
  521TIP3   OH223121   0.551   6.973   1.282 -0.5276 -0.3687 -0.2057
  521TIP3    H123122   0.529   7.063   1.305 -0.1907 -0.5778  0.9747
  521TIP3    H223123   0.556   6.974   1.186  0.5042  1.1172 -0.1764
  522TIP3   OH223124   1.947   5.943   7.018 -0.1238 -0.6141 -0.4661
  522TIP3    H123125   1.995   5.937   6.936  0.9632  0.9972 -0.0127
  522TIP3    H223126   1.855   5.949   6.992  0.1536 -0.7288 -1.5209
  523TIP3   OH223127   2.402   6.373   1.187  0.1243  0.6227  0.1048
  523TIP3    H123128   2.314   6.339   1.197  0.4223  0.2280  1.5732
  523TIP3    H223129   2.414   6.433   1.261  1.1917  0.4194  0.1209
  524TIP3   OH223130   3.713   5.733   0.034  0.3341 -0.3935  0.6591
  524TIP3    H123131   3.643   5.707  -0.025  0.7598 -0.9987  0.4131
  524TIP3    H223132   3.669   5.784   0.102 -0.0366  1.0339 -0.6137
  525TIP3   OH223133   6.011   5.873   6.819  0.4047  0.2439  0.7455
  525TIP3    H123134   6.095   5.837   6.791 -0.6817 -1.2639 -0.7016
  525TIP3    H223135   5.990   5.824   6.899  1.2749  1.2608  1.6425
  526TIP3   OH223136   4.327   5.129   1.902  0.0866  0.5395 -0.0697
  526TIP3    H123137   4.259   5.175   1.951  1.1384  1.1161  0.9009
  526TIP3    H223138   4.384   5.092   1.970  1.3886  1.0705 -0.8383
  527TIP3   OH223139   5.297   5.980   0.143  0.4625  0.6261  0.6386
  527TIP3    H123140   5.333   6.051   0.197  0.2074  1.5038 -0.3188
  527TIP3    H223141   5.353   5.905   0.163  0.7480  1.0916  1.6588
  528TIP3   OH223142   2.146   5.267   0.346  0.1965  0.6244  0.2825
  528TIP3    H123143   2.051   5.270   0.355  0.0837  1.3484 -0.9478
  528TIP3    H223144   2.168   5.174   0.353 -0.6180  0.4305  0.3512
  529TIP3   OH223145   0.418   4.552   2.956 -0.3674 -0.0027  0.1212
  529TIP3    H123146   0.420   4.608   2.879 -1.0815  0.1384  0.1965
  529TIP3    H223147   0.439   4.464   2.923  1.1595  0.3628  0.0697
  530TIP3   OH223148   5.755   1.236   2.652  0.3087  0.1221  0.0437
  530TIP3    H123149   5.687   1.169   2.661  1.5236 -1.0579  0.7836
  530TIP3    H223150   5.822   1.196   2.597  1.0004  0.7596  0.3931
  531TIP3   OH223151   1.910   5.109   0.408 -0.2626  0.7433 -0.3120
  531TIP3    H123152   1.943   5.021   0.428  0.5874  1.0574 -0.2743
  531TIP3    H223153   1.859   5.098   0.328 -2.2170 -0.2124  0.9847
  532TIP3   OH223154   3.153   1.781   0.637 -0.0595 -0.6859 -0.4137
  532TIP3    H123155   3.099   1.821   0.704  0.3892 -1.1678  0.2591
  532TIP3    H223156   3.181   1.853   0.581  2.1952  0.3136  1.7878
  533TIP3   OH223157   6.102   6.122   2.563 -0.1240 -0.2611 -0.6154
  533TIP3    H123158   6.154   6.061   2.615 -1.6520 -1.1969 -0.1184
  533TIP3    H223159   6.150   6.131   2.481  0.3740 -1.7642 -0.5111
  534TIP3   OH223160   3.679   1.021   6.861 -0.1308 -0.1973 -0.2839
  534TIP3    H123161   3.727   1.090   6.907  0.2804 -0.9246  0.3931
  534TIP3    H223162   3.728   0.941   6.879 -0.4359 -0.6375 -1.2998
  535TIP3   OH223163   0.119   0.821   2.860  0.5579 -0.7195  0.0214
  535TIP3    H123164   0.203   0.862   2.878  0.7919 -1.4365  0.5928
  535TIP3    H223165   0.141   0.732   2.831 -0.0219 -1.1250  0.8014
  536TIP3   OH223166   2.849   0.822   7.198 -0.0443  0.2799 -0.5330
  536TIP3    H123167   2.919   0.758   7.190  1.2781  1.3242  1.5820
  536TIP3    H223168   2.880   0.898   7.149 -1.1682 -0.3206 -2.2278
  537TIP3   OH223169   1.123   7.050   1.047 -0.5884 -0.4131  0.0803
  537TIP3    H123170   1.028   7.045   1.033 -0.6177 -0.8050  0.3882
  537TIP3    H223171   1.140   7.142   1.066 -1.5921 -0.9034  4.5506
  538TIP3   OH223172   3.148   6.497   1.289 -0.2700 -0.2521 -0.1063
  538TIP3    H123173   3.173   6.423   1.345  2.2924  1.4685  1.2356
  538TIP3    H223174   3.096   6.554   1.345  1.0892  0.7859  0.1621
  539TIP3   OH223175   2.380   6.670   6.499 -0.0837  0.2104 -0.1294
  539TIP3    H123176   2.412   6.656   6.588 -0.0173  0.0739 -0.1744
  539TIP3    H223177   2.288   6.693   6.511 -0.0694  0.2170 -0.0244
  540TIP3   OH223178   6.380   2.198   7.715  0.4001  0.4267 -0.0746
  540TIP3    H123179   6.441   2.259   7.673 -0.7190  2.0181  0.5166
  540TIP3    H223180   6.311   2.254   7.751  0.0269 -1.0884  1.7076
  541TIP3   OH223181   7.060   2.970   1.073  0.1317  0.0643 -0.6952
  541TIP3    H123182   7.012   2.906   1.021  0.3097  0.4359 -1.3260
  541TIP3    H223183   7.117   2.918   1.129  0.1055 -0.3357 -1.0400
  542TIP3   OH223184   5.798   1.943   1.509 -0.7596  0.0595  0.0588
  542TIP3    H123185   5.803   1.863   1.562 -0.2970  0.1108  0.0900
  542TIP3    H223186   5.704   1.957   1.498 -0.8592 -0.1031  0.6368
  543TIP3   OH223187   0.335   5.219   0.789 -0.0991  0.2319 -0.0054
  543TIP3    H123188   0.347   5.309   0.756  0.5089  0.3676  0.5702
  543TIP3    H223189   0.247   5.220   0.827 -0.4775  0.3100 -0.8436
  544TIP3   OH223190   6.781   6.919   2.174  0.3319 -0.6982  0.3020
  544TIP3    H123191   6.846   6.955   2.236  0.5724  1.2315 -0.9797
  544TIP3    H223192   6.828   6.912   2.092 -0.8651 -0.0095 -0.4697
  545TIP3   OH223193   5.996   5.123   1.787  0.5865 -0.5030  0.6318
  545TIP3    H123194   5.966   5.193   1.846 -0.6159 -0.5945  0.1559
  545TIP3    H223195   5.923   5.061   1.785 -0.0302  0.2051 -2.0627
  546TIP3   OH223196   2.066   5.842   0.057 -0.6676 -0.3557  0.0206
  546TIP3    H123197   2.057   5.748   0.042  0.4728 -0.4852  0.0429
  546TIP3    H223198   2.042   5.883  -0.027 -1.4157 -0.6351  0.0879
  547TIP3   OH223199   3.939   2.096   0.589  0.3098 -0.0704 -0.6070
  547TIP3    H123200   3.877   2.032   0.624 -0.3645  0.6516 -0.4816
  547TIP3    H223201   3.888   2.151   0.530  0.2437  1.9875  1.2284
  548TIP3   OH223202   4.025   2.891   7.626  0.2507  0.2309 -0.2437
  548TIP3    H123203   3.988   2.979   7.632 -0.5673 -0.1778  1.0476
  548TIP3    H223204   4.034   2.863   7.717 -2.1772 -2.1050 -0.6122
  549TIP3   OH223205   0.741   1.901   1.999  0.2131  0.0644 -0.6066
  549TIP3    H123206   0.756   1.815   2.038 -2.4349 -0.3384 -0.2881
  549TIP3    H223207   0.715   1.956   2.073  2.2715  1.3371 -0.7314
  550TIP3   OH223208   3.502   1.039   2.528 -0.2332  0.2505 -0.1318
  550TIP3    H123209   3.547   0.956   2.542 -0.1201  0.4429  0.6679
  550TIP3    H223210   3.568   1.106   2.544 -1.3045  0.6305  3.5524
  551TIP3   OH223211   2.323   5.641   0.530 -0.0045  0.0326 -0.0228
  551TIP3    H123212   2.414   5.651   0.556 -0.1389 -0.0648  0.4885
  551TIP3    H223213   2.312   5.547   0.516  0.2226  0.1393 -1.0290
  552TIP3   OH223214   3.209   6.432   2.162 -0.8095 -0.3732 -0.0433
  552TIP3    H123215   3.235   6.340   2.167 -0.9807 -0.4484 -0.5240
  552TIP3    H223216   3.133   6.439   2.220 -0.6023 -0.4651  0.2392
  553TIP3   OH223217   2.647   2.030   1.550 -0.0651 -0.7725 -0.1291
  553TIP3    H123218   2.648   2.126   1.548  0.4692 -0.7353  1.1192
  553TIP3    H223219   2.740   2.005   1.547 -0.0758 -1.1609  1.7426
  554TIP3   OH223220   3.212   6.123   2.169 -0.2973 -0.3441 -0.0633
  554TIP3    H123221   3.258   6.053   2.215  0.0123  0.2981  0.6405
  554TIP3    H223222   3.156   6.163   2.235 -0.1372  0.3513 -0.3311
  555TIP3   OH223223   3.681   6.366   1.164  0.3044 -0.1116  0.2848
  555TIP3    H123224   3.618   6.437   1.152 -0.6418 -1.1778 -1.6562
  555TIP3    H223225   3.756   6.391   1.111 -0.1185 -0.6185 -0.5783
  556TIP3   OH223226   0.647   5.409   7.376 -0.2788 -0.4131 -0.4795
  556TIP3    H123227   0.698   5.365   7.308  1.5735 -1.0234  1.2069
  556TIP3    H223228   0.690   5.494   7.387 -0.4968 -0.3589 -0.0126
  557TIP3   OH223229   1.371   5.603   1.019  0.4664  0.4600  0.2947
  557TIP3    H123230   1.420   5.546   1.078  2.8145 -0.0711 -2.0021
  557TIP3    H223231   1.279   5.583   1.038  1.1538 -1.1522  2.3032
  558TIP3   OH223232   2.217   2.435   0.748  0.2390 -0.2187  0.2338
  558TIP3    H123233   2.145   2.444   0.811 -0.2611 -1.9855 -0.0290
  558TIP3    H223234   2.176   2.398   0.670  1.3852 -1.0550  0.0015
  559TIP3   OH223235   5.987   0.516   7.609  0.6814 -0.5945  0.4655
  559TIP3    H123236   6.056   0.477   7.663 -1.1820 -1.6083  2.2292
  559TIP3    H223237   5.936   0.569   7.669  1.1457  1.9754 -1.2546
  560TIP3   OH223238   6.551   6.911   2.354  0.0575 -0.1906 -0.2318
  560TIP3    H123239   6.591   6.966   2.421  1.7152 -1.4449 -0.1185
  560TIP3    H223240   6.607   6.920   2.278 -0.7405 -0.2463 -0.8433
  561TIP3   OH223241   0.096   0.650   6.965 -0.0977  0.1702 -0.6878
  561TIP3    H123242   0.083   0.745   6.970  1.3313  0.3387  1.2846
  561TIP3    H223243   0.171   0.634   7.023  0.8328 -1.9576 -2.3588
  562TIP3   OH223244   3.279   0.605   6.889  0.3408  0.9855 -0.3492
  562TIP3    H123245   3.363   0.601   6.935  1.3252  2.2073 -1.9795
  562TIP3    H223246   3.271   0.519   6.847  0.7194  0.8237 -0.1011
  563TIP3   OH223247   4.842   5.769   7.415  0.3122  0.6227  0.2108
  563TIP3    H123248   4.924   5.739   7.374 -0.2882  1.2483 -1.5300
  563TIP3    H223249   4.808   5.691   7.459  1.4912  0.1712  0.3649
  564TIP3   OH223250   1.556   0.954   0.819  0.1157  0.4379 -0.3433
  564TIP3    H123251   1.504   0.890   0.869  1.0968  1.0387  1.5250
  564TIP3    H223252   1.554   1.034   0.872  0.8248  1.2682 -1.5080
  565TIP3   OH223253   1.054   1.705   7.160  0.4326  0.1634  0.4136
  565TIP3    H123254   0.964   1.714   7.129  0.1833 -0.0333  1.0740
  565TIP3    H223255   1.106   1.753   7.095 -0.2478  1.1669  0.5921
  566TIP3   OH223256   1.287   2.432   7.770  0.2712  0.3061  0.1428
  566TIP3    H123257   1.236   2.469   7.698  0.9780 -2.8076 -2.1840
  566TIP3    H223258   1.346   2.502   7.796 -2.4808  2.7464  0.3052
  567TIP3   OH223259   2.909   6.976   6.583  0.1331 -0.6999  0.0995
  567TIP3    H123260   2.916   6.881   6.571 -1.7814 -0.8794  0.1593
  567TIP3    H223261   2.879   6.986   6.674  0.3836 -0.0200  0.1110
  568TIP3   OH223262   6.151   1.360   6.870  0.4627  0.2406  0.3714
  568TIP3    H123263   6.140   1.271   6.904  0.1468 -0.2318 -0.9204
  568TIP3    H223264   6.139   1.351   6.775  3.1308  1.2095 -0.1216
  569TIP3   OH223265   0.208   3.208   0.711 -0.0332  0.0127 -0.2253
  569TIP3    H123266   0.173   3.180   0.795 -1.1278 -0.4159 -0.8002
  569TIP3    H223267   0.258   3.133   0.678 -0.7869 -0.3486 -0.5807
  570TIP3   OH223268   3.758   0.141   2.188 -1.0230 -0.0704  0.1619
  570TIP3    H123269   3.718   0.170   2.270  1.4539 -1.8771  2.1796
  570TIP3    H223270   3.846   0.112   2.214  1.8552  3.6690 -3.8201
  571TIP3   OH223271   2.031   5.875   6.724  0.3111 -0.3198 -0.4265
  571TIP3    H123272   2.125   5.886   6.708  0.2824  0.5772 -0.0130
  571TIP3    H223273   1.989   5.912   6.647  0.2960 -0.7301 -0.6156
  572TIP3   OH223274   0.316   2.511   6.245 -0.3547 -0.3717  0.3569
  572TIP3    H123275   0.249   2.529   6.311 -2.3350  1.6111 -1.9628
  572TIP3    H223276   0.358   2.596   6.230  2.0765 -1.3700  1.0175
  573TIP3   OH223277   0.246   6.736   2.043  0.5238  0.1266  0.0427
  573TIP3    H123278   0.268   6.739   1.950  0.8806  0.2348  0.1291
  573TIP3    H223279   0.250   6.827   2.072 -1.4957  0.3659 -0.2605
  574TIP3   OH223280   2.186   3.875   7.164  0.0418  0.8854  0.2813
  574TIP3    H123281   2.151   3.838   7.083 -0.0900 -0.1792  0.8078
  574TIP3    H223282   2.277   3.846   7.166  0.4003  1.9702 -0.1011
  575TIP3   OH223283   0.691   6.739   6.900 -0.1437  0.2524 -0.4562
  575TIP3    H123284   0.740   6.742   6.982 -1.2663  0.0090  0.2536
  575TIP3    H223285   0.739   6.796   6.840  2.5336 -2.0182 -0.6897
  576TIP3   OH223286   0.556   1.802   1.733 -0.4765 -0.7295  0.7089
  576TIP3    H123287   0.617   1.864   1.773 -1.1109 -0.4023  1.1853
  576TIP3    H223288   0.609   1.724   1.715  0.2436 -0.1983  0.4576
  577TIP3   OH223289   6.320   4.955   0.652 -0.0649 -0.0475 -0.0111
  577TIP3    H123290   6.392   4.911   0.697  2.2187  2.6642 -0.7534
  577TIP3    H223291   6.325   5.046   0.680 -2.6538  0.4536 -0.8689
  578TIP3   OH223292   0.153   4.805   1.986  0.4971 -0.2614 -0.0910
  578TIP3    H123293   0.060   4.821   1.967  0.7978  0.5860 -0.9626
  578TIP3    H223294   0.164   4.711   1.974 -0.4696 -0.5549  1.0916
  579TIP3   OH223295   6.669   2.611   1.152  0.4231  0.6325  0.3293
  579TIP3    H123296   6.741   2.550   1.165  0.1448  0.4878  1.2710
  579TIP3    H223297   6.596   2.573   1.201  0.5899  2.3087  1.9819
  580TIP3   OH223298   0.435   2.099   2.030  0.4460  0.1807 -0.1751
  580TIP3    H123299   0.371   2.145   2.084  0.6532 -1.5426  1.6488
  580TIP3    H223300   0.508   2.161   2.021 -1.1001  1.8925 -1.6921
  581TIP3   OH223301   0.571   6.990   2.010  0.5321  0.3111  0.0542
  581TIP3    H123302   0.586   6.994   1.916  0.3674  0.2992  0.0286
  581TIP3    H223303   0.476   6.998   2.021  0.5736  0.6108  0.2352
  582TIP3   OH223304   1.905   3.087   0.818  0.2644  0.4688 -0.4537
  582TIP3    H123305   1.835   3.148   0.841 -0.4864 -0.8308  0.8252
  582TIP3    H223306   1.920   3.036   0.897  1.0934 -0.8075 -1.3909
  583TIP3   OH223307   4.860   6.536   6.790  0.6577  0.2775  0.5407
  583TIP3    H123308   4.835   6.495   6.873  0.0258  0.4009  0.4172
  583TIP3    H223309   4.841   6.629   6.803 -0.1117  0.2035  0.0241
  584TIP3   OH223310   3.197   4.056   7.457 -0.7512  0.0989  0.5932
  584TIP3    H123311   3.284   4.069   7.495 -1.1406  0.3166  1.4248
  584TIP3    H223312   3.208   4.077   7.364 -0.3733  2.2394  1.0576
  585TIP3   OH223313   5.587   5.523   7.471  0.4029  0.4514 -0.0748
  585TIP3    H123314   5.645   5.459   7.513 -1.4603 -0.4971  1.1933
  585TIP3    H223315   5.596   5.506   7.377  1.7638 -0.0084  0.1232
  586TIP3   OH223316   7.122   3.905   0.333 -0.2240 -0.3941 -0.5419
  586TIP3    H123317   7.083   3.981   0.376 -1.2315 -1.0478 -0.2592
  586TIP3    H223318   7.216   3.915   0.347 -0.3472  0.7624 -0.4654
  587TIP3   OH223319   3.159   5.995   0.519  0.2393 -0.2407 -0.0290
  587TIP3    H123320   3.100   5.923   0.501  0.6684 -0.7719  0.6629
  587TIP3    H223321   3.234   5.980   0.461  1.2995 -1.5608  1.5889
  588TIP3   OH223322   5.493   4.558   7.430  0.1421 -0.1207  0.0301
  588TIP3    H123323   5.492   4.519   7.518  1.0392  1.1793  0.6469
  588TIP3    H223324   5.580   4.595   7.421 -0.2643  0.6226 -1.0289
  589TIP3   OH223325   6.288   6.571   7.899  0.0551  0.1289  0.3101
  589TIP3    H123326   6.221   6.515   7.937 -0.9570  0.8034 -0.4450
  589TIP3    H223327   6.242   6.624   7.834  1.1916  1.0647  0.2287
  590TIP3   OH223328   6.793   5.695   1.423 -0.6442 -0.2030 -0.4630
  590TIP3    H123329   6.753   5.739   1.348 -0.1457  0.3064 -0.4344
  590TIP3    H223330   6.722   5.641   1.460 -1.1725  0.3239 -0.6954
  591TIP3   OH223331   5.627   2.772   7.098 -0.1234 -0.1525  0.0594
  591TIP3    H123332   5.687   2.698   7.098  0.2151  0.1064  1.4777
  591TIP3    H223333   5.551   2.741   7.148 -1.1176 -0.3925 -1.4983
  592TIP3   OH223334   1.891   4.230   7.148 -0.0612 -0.3295  0.2634
  592TIP3    H123335   1.840   4.175   7.088 -0.5193 -0.9759  1.2305
  592TIP3    H223336   1.982   4.202   7.133  0.0147  0.5805 -1.2112
  593TIP3   OH223337   2.896   1.374   7.137  0.0273 -0.1018  0.0109
  593TIP3    H123338   2.834   1.302   7.140  0.7991 -0.7508  1.3957
  593TIP3    H223339   2.952   1.354   7.062 -0.3455 -0.4340 -0.1835
  594TIP3   OH223340   2.273   4.226   7.912 -0.2477 -0.1464 -0.2438
  594TIP3    H123341   2.323   4.303   7.939 -0.9403  0.3320 -0.2954
  594TIP3    H223342   2.252   4.242   7.820 -1.5397  0.2573  0.0944
  595TIP3   OH223343   1.961   1.415   1.502 -0.6511 -0.4463 -0.6771
  595TIP3    H123344   1.885   1.437   1.556 -0.0380 -0.3142  0.1340
  595TIP3    H223345   1.927   1.417   1.412 -1.6086 -0.3975 -0.3267
  596TIP3   OH223346   6.302   0.025   6.098 -0.4384  0.1008  0.0796
  596TIP3    H123347   6.333   0.057   6.182 -0.1668 -0.3603  0.1597
  596TIP3    H223348   6.278  -0.066   6.115 -2.2047  0.5263  0.1199
  597TIP3   OH223349   3.265   6.780   7.920 -0.5257 -0.3934 -0.5495
  597TIP3    H123350   3.204   6.825   7.861  0.4250  1.0319 -0.4846
  597TIP3    H223351   3.218   6.774   8.003 -1.0683 -0.4889 -0.8588
  598TIP3   OH223352   4.403   2.378   8.001  0.3071  0.1763  0.0557
  598TIP3    H123353   4.432   2.336   7.920 -1.4270 -1.3586  0.1672
  598TIP3    H223354   4.399   2.307   8.065 -0.1697  1.0052  0.9732
  599TIP3   OH223355   1.718   1.483   7.962 -0.0424  0.2988  0.1554
  599TIP3    H123356   1.642   1.437   7.927 -0.4790  0.7117  0.5368
  599TIP3    H223357   1.709   1.475   8.057 -0.2573  1.3454  0.2443
  600TIP3   OH223358   3.281   1.662   7.650 -0.5809 -0.0516 -0.1466
  600TIP3    H123359   3.237   1.580   7.670  0.2383 -0.2717  0.8335
  600TIP3    H223360   3.227   1.730   7.691  0.2187 -0.3608  1.4924
  601TIP3   OH223361   6.955   1.070   2.090  0.0851 -0.7059  0.6709
  601TIP3    H123362   6.939   1.032   2.004 -1.1316  0.7493  0.2001
  601TIP3    H223363   6.867   1.093   2.122  0.6356  0.1062  1.6497
  602TIP3   OH223364   4.817   0.238   2.201 -0.3039  0.1909  1.0929
  602TIP3    H123365   4.819   0.264   2.293  0.2697  1.5277  0.7410
  602TIP3    H223366   4.730   0.203   2.187 -0.3879 -0.0443  2.1521
  603TIP3   OH223367   0.254   2.531   7.753  0.5062 -0.1623  0.2302
  603TIP3    H123368   0.337   2.487   7.735  1.5508  2.0260 -0.7026
  603TIP3    H223369   0.262   2.563   7.843 -0.4267 -2.0970  1.0651
  604TIP3   OH223370   3.588   1.541   2.526 -0.0659 -0.0969 -0.7571
  604TIP3    H123371   3.511   1.544   2.470  0.1218  1.6869 -0.9827
  604TIP3    H223372   3.556   1.562   2.614  0.2487  1.6787 -1.0212
  605TIP3   OH223373   4.173   1.452   7.386 -0.3995 -0.0051  1.0259
  605TIP3    H123374   4.139   1.504   7.313 -1.0564 -0.8672  0.6965
  605TIP3    H223375   4.250   1.408   7.351 -0.3787  0.0322  1.0245
  606TIP3   OH223376   0.915   6.943   1.672 -0.0526 -0.6287  0.0556
  606TIP3    H123377   0.823   6.954   1.696 -0.2370 -1.0721 -0.4342
  606TIP3    H223378   0.913   6.893   1.591  0.6649 -1.8821  0.7768
  607TIP3   OH223379   4.830   3.620   1.629 -0.1671  0.7543 -0.8337
  607TIP3    H123380   4.916   3.661   1.617  1.1565 -2.1443 -2.1300
  607TIP3    H223381   4.788   3.626   1.543  0.0504 -0.5283 -1.0484
  608TIP3   OH223382   6.537   6.670   1.805 -0.6653 -0.4417  0.6901
  608TIP3    H123383   6.543   6.727   1.729  2.9320 -0.9605  0.4179
  608TIP3    H223384   6.605   6.701   1.865 -1.4848 -1.8038  2.4522
  609TIP3   OH223385   3.979   5.539   6.538 -0.2586 -0.0413 -0.4229
  609TIP3    H123386   4.006   5.448   6.524  1.5806  0.2961  0.6158
  609TIP3    H223387   4.053   5.591   6.509 -1.0912  1.1290 -0.5246
  610TIP3   OH223388   1.132   0.769   2.435 -0.0823 -0.3805 -0.4515
  610TIP3    H123389   1.139   0.680   2.468 -1.2206 -0.4612 -0.3647
  610TIP3    H223390   1.061   0.765   2.371 -0.6716  0.6107  0.1072
  611TIP3   OH223391   1.435   3.421   0.313  0.1996  0.0211 -0.8333
  611TIP3    H123392   1.424   3.437   0.407 -0.0161 -0.0457 -0.8467
  611TIP3    H223393   1.520   3.377   0.306  0.3281  0.2462 -0.6952
  612TIP3   OH223394   6.218   0.516   1.097  0.1349  0.2472 -0.4772
  612TIP3    H123395   6.169   0.440   1.129  0.3705 -1.0590 -2.9550
  612TIP3    H223396   6.304   0.508   1.138  0.2165 -0.9619 -0.8364
  613TIP3   OH223397   2.612   3.164   7.680  0.5488  0.2391  0.1491
  613TIP3    H123398   2.534   3.142   7.730  1.0031  0.1017  0.8148
  613TIP3    H223399   2.633   3.254   7.707  0.8530  0.1284  0.2928
  614TIP3   OH223400   6.665   2.010   1.505 -0.6895 -0.0967 -0.3112
  614TIP3    H123401   6.746   2.056   1.523 -0.5563  0.1358 -1.4556
  614TIP3    H223402   6.651   2.021   1.411 -0.8982 -1.9968 -0.5322
  615TIP3   OH223403   2.166   1.934   0.234  0.4054  0.2918 -0.1288
  615TIP3    H123404   2.239   1.873   0.225 -0.0129 -0.0021 -1.9662
  615TIP3    H223405   2.097   1.897   0.179 -0.9402  0.8702  1.1042
  616TIP3   OH223406   6.344   0.471   0.197 -0.6828  0.1819  0.4527
  616TIP3    H123407   6.390   0.546   0.158 -2.1111  0.2860 -1.1248
  616TIP3    H223408   6.404   0.397   0.185 -0.5716  0.4673 -0.8498
  617TIP3   OH223409   5.027   5.154   0.644  0.4187 -0.0717  0.2640
  617TIP3    H123410   5.053   5.245   0.660 -1.9168  0.3513  2.0166
  617TIP3    H223411   4.963   5.135   0.711 -0.5948 -2.4137 -1.2551
  618TIP3   OH223412   2.387   6.085   2.237 -0.0035  0.1396 -0.0551
  618TIP3    H123413   2.410   6.109   2.327 -2.1547 -1.1657  0.9094
  618TIP3    H223414   2.342   6.162   2.204  0.5456  0.5207  0.0547
  619TIP3   OH223415   6.412   0.069   2.430  0.1497 -0.3967 -0.0513
  619TIP3    H123416   6.328   0.027   2.450 -0.3910  0.6757  0.0059
  619TIP3    H223417   6.475   0.026   2.487 -0.0871 -2.1991 -1.0882
  620TIP3   OH223418   2.102   5.024   6.524 -0.0810 -0.5337 -0.0604
  620TIP3    H123419   2.020   5.066   6.499  1.5888  1.2433 -3.0862
  620TIP3    H223420   2.082   4.930   6.520 -2.0272 -0.1594 -0.3710
  621TIP3   OH223421   5.133   1.276   7.512  0.0637 -0.0914 -0.0023
  621TIP3    H123422   5.225   1.269   7.488 -0.0582 -3.9351  0.0758
  621TIP3    H223423   5.088   1.218   7.452 -2.2732  1.1323  0.4423
  622TIP3   OH223424   6.243   6.700   5.862 -0.1771 -0.5056  0.2854
  622TIP3    H123425   6.186   6.625   5.847 -0.1511 -0.2823 -0.9828
  622TIP3    H223426   6.183   6.773   5.880 -0.1978 -0.8403  1.7241
  623TIP3   OH223427   3.958   4.582   0.876  0.1788 -0.2368  0.1372
  623TIP3    H123428   3.871   4.555   0.907 -0.0757  1.9301  1.4785
  623TIP3    H223429   3.942   4.614   0.787 -0.4625  0.3800  0.4614
  624TIP3   OH223430   3.451   1.196   1.355 -0.3762  0.1748  0.5212
  624TIP3    H123431   3.480   1.282   1.323  0.9335 -0.8214 -1.0965
  624TIP3    H223432   3.523   1.166   1.410 -0.7886  0.0467  0.9972
  625TIP3   OH223433   1.504   4.091   7.211  0.0599 -0.0390  0.3138
  625TIP3    H123434   1.410   4.082   7.195 -0.1331  0.5093  1.1343
  625TIP3    H223435   1.514   4.079   7.305  1.0849 -2.3438 -0.0137
  626TIP3   OH223436   0.101   4.532   7.237 -0.2652 -0.3962  0.4931
  626TIP3    H123437   0.149   4.451   7.220 -0.2258 -0.2115 -0.2825
  626TIP3    H223438   0.166   4.602   7.225 -0.7635 -0.1288 -0.8079
  627TIP3   OH223439   3.070   5.061   7.357  0.6156 -0.0885  0.3962
  627TIP3    H123440   3.108   5.146   7.335 -1.7253  0.5296 -1.7402
  627TIP3    H223441   2.998   5.050   7.295  2.3843 -4.8499 -1.2408
  628TIP3   OH223442   2.421   4.873   2.652  0.2169 -0.1871 -0.4370
  628TIP3    H123443   2.343   4.921   2.623 -0.1669  0.5617  1.6187
  628TIP3    H223444   2.386   4.799   2.702  0.8081 -0.2988 -0.1833
  629TIP3   OH223445   2.155   0.499   0.758 -0.2423  0.0115  0.3138
  629TIP3    H123446   2.234   0.514   0.810  0.5585 -0.0323 -0.8488
  629TIP3    H223447   2.169   0.412   0.719 -0.4042  0.4166 -0.6749
  630TIP3   OH223448   4.288   5.554   7.205  0.6590  0.2889 -0.5511
  630TIP3    H123449   4.299   5.468   7.245  1.5813  1.0689  0.9931
  630TIP3    H223450   4.292   5.539   7.111 -1.2025 -1.5932 -0.3945
  631TIP3   OH223451   5.593   4.174   6.426 -0.2547 -0.3630 -0.8072
  631TIP3    H123452   5.585   4.209   6.337 -1.2761 -0.1131 -0.6307
  631TIP3    H223453   5.607   4.252   6.481 -0.3824 -0.4419 -0.6616
  632TIP3   OH223454   1.935   3.957   7.328 -0.9394  0.7660  0.3034
  632TIP3    H123455   1.986   3.882   7.358 -1.9318 -0.0494  0.0302
  632TIP3    H223456   1.911   3.934   7.238 -1.7118  1.1625  0.4033
  633TIP3   OH223457   2.934   6.443   7.325 -0.3733 -0.1198  0.2022
  633TIP3    H123458   2.940   6.366   7.268  1.4548  0.7979 -0.9389
  633TIP3    H223459   2.856   6.427   7.378 -0.3654 -2.4921 -0.3711
  634TIP3   OH223460   4.632   5.714   7.801 -0.1156  0.4375  0.8958
  634TIP3    H123461   4.611   5.805   7.781  1.0522  0.4681 -0.4169
  634TIP3    H223462   4.603   5.701   7.891  1.3533  2.6632  1.7694
  635TIP3   OH223463   2.087   2.919   0.347  0.5768 -0.1061 -0.5762
  635TIP3    H123464   2.119   2.846   0.293  1.7024  0.7524 -1.0966
  635TIP3    H223465   1.992   2.906   0.349  0.5249 -0.3419 -2.5203
  636TIP3   OH223466   0.954   1.235   7.954  0.5955 -0.2848  0.1353
  636TIP3    H123467   0.988   1.147   7.941  0.6312 -0.0550 -1.5762
  636TIP3    H223468   0.955   1.275   7.866 -2.8065  0.1797  0.1586
  637TIP3   OH223469   4.494   4.686   7.510  0.0992 -0.0529  0.5043
  637TIP3    H123470   4.466   4.767   7.468  0.9282 -0.0664 -0.0953
  637TIP3    H223471   4.513   4.712   7.601  0.5850  0.4791  0.2579
  638TIP3   OH223472   1.040   1.977   7.254  0.1044 -0.2455 -0.8845
  638TIP3    H123473   1.055   1.887   7.227 -2.3397 -0.4740 -1.7152
  638TIP3    H223474   0.951   1.978   7.290  1.5777  0.9505  3.4359
  639TIP3   OH223475   6.666   1.741   0.884 -0.3849  0.0019  0.6248
  639TIP3    H123476   6.641   1.739   0.791 -1.2490 -0.5220  0.8591
  639TIP3    H223477   6.632   1.825   0.916  1.7208  1.1802  0.0142
  640TIP3   OH223478   6.896   5.120   1.912 -0.1698  0.1880 -0.4133
  640TIP3    H123479   6.951   5.078   1.978 -0.5628  0.4459  0.0872
  640TIP3    H223480   6.954   5.180   1.866  0.0818  0.0825 -0.2327
  641TIP3   OH223481   1.047   1.015   0.276  0.5717 -0.1478  0.2250
  641TIP3    H123482   1.095   1.018   0.193 -3.6697  0.9290 -2.4878
  641TIP3    H223483   1.015   0.925   0.282  1.3710 -0.3872  1.0670
  642TIP3   OH223484   4.081   1.484   6.886  0.8825 -0.3878 -0.0227
  642TIP3    H123485   4.066   1.511   6.977  0.5189  1.9675 -0.7280
  642TIP3    H223486   4.176   1.473   6.881  1.1293  1.2477  0.2425
  643TIP3   OH223487   4.275   5.826   6.650 -0.3120 -0.7390 -0.0279
  643TIP3    H123488   4.336   5.890   6.614  1.6088 -1.3515  1.9408
  643TIP3    H223489   4.280   5.751   6.591  0.1464 -0.4434 -0.3678
  644TIP3   OH223490   6.549   5.324   6.909 -0.2678  0.1766  1.4942
  644TIP3    H123491   6.537   5.379   6.986 -2.5952  1.4974  0.3108
  644TIP3    H223492   6.485   5.253   6.921  0.2226 -0.3034  1.3264
  645TIP3   OH223493   5.899   2.644   7.839  0.2647  0.1362  0.5855
  645TIP3    H123494   5.936   2.586   7.772  0.5355 -0.1693  0.9937
  645TIP3    H223495   5.805   2.647   7.819  0.4045  0.3964 -0.0668
  646TIP3   OH223496   2.419   4.091   2.126  0.2725 -0.2466  0.1441
  646TIP3    H123497   2.443   4.002   2.153  1.4437  0.3125  1.0778
  646TIP3    H223498   2.503   4.132   2.104 -0.3383  0.3828 -1.0810
  647TIP3   OH223499   1.959   4.525   1.521 -0.0880 -0.0031  0.0974
  647TIP3    H123500   2.027   4.590   1.509  0.6019 -0.7958 -0.3898
  647TIP3    H223501   1.889   4.552   1.461 -0.2205  0.8233  0.6153
  648TIP3   OH223502   1.750   3.891   7.777  0.4230  0.3435 -0.0905
  648TIP3    H123503   1.805   3.846   7.841  0.6359 -0.6280 -0.9466
  648TIP3    H223504   1.678   3.927   7.829  0.5770 -0.4564  0.6988
  649TIP3   OH223505   5.066   1.966   0.213 -0.5663  0.4852 -0.2117
  649TIP3    H123506   5.142   1.962   0.270 -0.2823  0.5266 -0.5867
  649TIP3    H223507   4.992   1.944   0.270 -0.0876 -1.3126 -0.2218
  650TIP3   OH223508   2.446   5.989   0.654  0.6366  0.3977  0.0377
  650TIP3    H123509   2.505   5.955   0.586 -0.6729  0.8585 -1.4086
  650TIP3    H223510   2.419   5.912   0.703  0.9363 -0.0750 -0.5186
  651TIP3   OH223511   0.727   3.611   1.099  0.3888 -0.2119  0.3013
  651TIP3    H123512   0.759   3.699   1.081  1.7377 -0.7381  0.0223
  651TIP3    H223513   0.645   3.625   1.147  0.6491  1.1827  0.3894
  652TIP3   OH223514   4.521   4.791   1.882 -0.0521  0.0599  0.3347
  652TIP3    H123515   4.598   4.816   1.933  0.0328 -1.4065  0.9796
  652TIP3    H223516   4.488   4.712   1.925  0.3981 -1.6442 -2.2482
  653TIP3   OH223517   3.537   5.355   7.657 -0.2426 -0.4396  0.0645
  653TIP3    H123518   3.585   5.438   7.655  0.1023 -0.5920  1.4620
  653TIP3    H223519   3.560   5.312   7.574 -1.2185  1.2702 -1.1598
  654TIP3   OH223520   4.932   4.656   0.845  0.8702 -0.1389  0.1981
  654TIP3    H123521   4.994   4.729   0.844  1.1890 -0.3905 -1.4153
  654TIP3    H223522   4.869   4.677   0.776  0.9601 -1.3580 -0.2797
  655TIP3   OH223523   3.257   0.503   7.425 -0.1696 -0.5849 -0.1547
  655TIP3    H123524   3.236   0.595   7.443 -1.1417 -1.0731  1.5114
  655TIP3    H223525   3.348   0.494   7.450  0.9003  0.5454 -3.1766
  656TIP3   OH223526   7.122   3.780   1.485 -0.0681  0.2207  0.6141
  656TIP3    H123527   7.177   3.801   1.560 -0.2434 -0.4883  0.9552
  656TIP3    H223528   7.072   3.703   1.513  0.6962 -0.7703 -0.6313
  657TIP3   OH223529   6.821   1.220   7.073 -0.1326  0.7090  0.3558
  657TIP3    H123530   6.811   1.141   7.127 -2.2126  0.6172 -0.0930
  657TIP3    H223531   6.887   1.272   7.119  0.6935 -0.9244  1.0961
  658TIP3   OH223532   5.390   6.941   1.438 -0.4665 -0.2423  0.4983
  658TIP3    H123533   5.343   6.949   1.355  0.7948 -0.1248 -0.2359
  658TIP3    H223534   5.323   6.919   1.502 -1.3142 -1.4436 -0.7511
  659TIP3   OH223535   0.075   2.821   1.990 -0.7758 -0.0882 -0.0471
  659TIP3    H123536   0.119   2.850   2.071 -1.5502 -0.1465  0.4038
  659TIP3    H223537   0.059   2.727   2.004 -1.1904 -0.0311 -0.1393
  660TIP3   OH223538   1.976   0.565   7.099  0.0502  0.6247  0.5026
  660TIP3    H123539   2.052   0.593   7.049  1.7203 -0.2930  2.3614
  660TIP3    H223540   1.976   0.622   7.177  0.6890 -1.3021  1.9882
  661TIP3   OH223541   5.474   0.457   1.520  0.2266 -0.2761  0.1912
  661TIP3    H123542   5.408   0.482   1.455  0.3420  0.5419  0.3797
  661TIP3    H223543   5.489   0.364   1.504 -1.2047 -0.5625  0.3613
  662TIP3   OH223544   0.078   5.658   1.622  0.1749  0.0733 -0.1379
  662TIP3    H123545   0.137   5.659   1.697  1.1864 -0.9942 -0.8813
  662TIP3    H223546   0.003   5.711   1.649  0.9718  0.5331  1.2401
  663TIP3   OH223547   5.295   6.515   7.392  0.1089 -0.2606 -0.7623
  663TIP3    H123548   5.299   6.574   7.467  1.5240 -1.0513 -0.1745
  663TIP3    H223549   5.321   6.430   7.428 -1.1802 -1.0907 -1.7349
  664TIP3   OH223550   5.880   2.436   1.563  0.0055 -0.3429  0.1895
  664TIP3    H123551   5.833   2.439   1.646 -0.4633 -0.9889 -0.0412
  664TIP3    H223552   5.908   2.345   1.554 -1.6325 -0.7720 -1.2428
  665TIP3   OH223553   2.447   1.904   0.474 -0.1096  0.8421 -0.2495
  665TIP3    H123554   2.504   1.842   0.428  0.6837  1.0178  0.4744
  665TIP3    H223555   2.435   1.976   0.412 -0.9075  0.0578 -1.0389
  666TIP3   OH223556   4.020   5.082   2.234  0.0601 -0.4194 -0.2254
  666TIP3    H123557   4.051   5.147   2.170 -0.2497 -0.4282 -0.3905
  666TIP3    H223558   4.099   5.042   2.269  0.2469 -2.2592 -2.4886
  667TIP3   OH223559   2.481   4.586   6.487  0.5194  0.0481  0.4690
  667TIP3    H123560   2.526   4.652   6.539 -0.7469  1.5370 -0.2426
  667TIP3    H223561   2.521   4.503   6.512  0.5476  0.8087  3.1537
  668TIP3   OH223562   6.491   6.149   7.373 -0.4429 -0.2090  0.9948
  668TIP3    H123563   6.537   6.158   7.290 -0.0528 -1.4017  1.0660
  668TIP3    H223564   6.505   6.234   7.417  0.5493 -0.0648  0.4408
  669TIP3   OH223565   3.825   5.096   1.544  0.4580  0.0459 -0.3451
  669TIP3    H123566   3.879   5.148   1.604 -0.2295 -0.3214  0.6138
  669TIP3    H223567   3.856   5.120   1.457  2.1610 -0.1379  0.1774
  670TIP3   OH223568   7.121   1.523   7.568 -0.2907  0.5745 -0.1038
  670TIP3    H123569   7.036   1.491   7.538 -0.6304  1.7372 -0.4178
  670TIP3    H223570   7.101   1.593   7.630  0.4098 -1.2668  2.3871
  671TIP3   OH223571   4.203   4.616   7.720  0.0624  0.0885 -0.1797
  671TIP3    H123572   4.123   4.661   7.745  0.0405 -0.3346  0.5482
  671TIP3    H223573   4.200   4.612   7.625  0.2266  1.9068 -0.3031
  672TIP3   OH223574   4.125   3.243   7.909  0.9555 -0.5098 -0.3181
  672TIP3    H123575   4.174   3.300   7.850  0.1364  2.9603  2.0583
  672TIP3    H223576   4.189   3.218   7.976  0.5084  0.6899  0.5916
  673TIP3   OH223577   1.278   6.743   6.711 -0.6687 -0.4032  0.4243
  673TIP3    H123578   1.353   6.684   6.710  0.1071  0.5496  0.0349
  673TIP3    H223579   1.224   6.715   6.637  1.3484  1.3418 -1.8968
  674TIP3   OH223580   6.482   1.263   0.044  0.1309  0.1454 -0.0594
  674TIP3    H123581   6.537   1.221  -0.023  0.7585  1.4504 -0.3975
  674TIP3    H223582   6.418   1.313  -0.005  1.3803  2.1425  0.2478
  675TIP3   OH223583   0.177   7.123   6.751  0.0005 -0.0573 -0.2698
  675TIP3    H123584   0.174   7.074   6.669 -1.0148 -1.5241  0.6045
  675TIP3    H223585   0.156   7.213   6.725 -0.7571 -0.5742 -1.5559
  676TIP3   OH223586   6.166   5.929   1.036 -0.4753 -0.3181 -0.1893
  676TIP3    H123587   6.106   5.857   1.058 -0.1461  0.0287  2.1713
  676TIP3    H223588   6.253   5.893   1.054 -0.3845  1.2136  3.3572
  677TIP3   OH223589   3.846   6.532   0.417  1.2328 -0.1137  0.6222
  677TIP3    H123590   3.903   6.546   0.493  0.7255  0.7126  0.8567
  677TIP3    H223591   3.759   6.554   0.448  1.0714  0.6404 -0.3262
  678TIP3   OH223592   5.316   4.406   1.136 -0.3363  0.1208 -0.2000
  678TIP3    H123593   5.345   4.335   1.194  0.3958  0.4634 -0.1381
  678TIP3    H223594   5.260   4.461   1.191  1.2924  1.0914  0.5318
  679TIP3   OH223595   5.309   7.068   0.606 -0.1505 -0.3235  0.4115
  679TIP3    H123596   5.243   7.016   0.559  0.9110 -1.9468  0.6073
  679TIP3    H223597   5.387   7.012   0.607  0.8753  1.0475  1.2143
  680TIP3   OH223598   6.588   2.532   7.845 -0.3414  0.6196  0.4685
  680TIP3    H123599   6.655   2.549   7.911 -0.4409  0.6211  0.5682
  680TIP3    H223600   6.505   2.537   7.892 -0.3679 -0.1902  0.5074
  681TIP3   OH223601   0.551   4.537   0.148 -0.3570  0.6847 -0.0924
  681TIP3    H123602   0.514   4.610   0.097 -0.8321  0.3078 -0.2919
  681TIP3    H223603   0.646   4.550   0.143 -0.4218  0.9840 -0.5822
  682TIP3   OH223604   1.753   5.970   1.288  0.4525 -0.5840  0.1973
  682TIP3    H123605   1.700   5.915   1.230 -2.9416  1.0142  1.4948
  682TIP3    H223606   1.758   5.921   1.370 -1.7340  0.4662  1.0356
  683TIP3   OH223607   2.063   2.196   6.501 -0.3573  0.7359  0.0840
  683TIP3    H123608   2.019   2.129   6.448 -0.1784 -0.0961  0.9568
  683TIP3    H223609   2.145   2.214   6.454  0.4774 -1.0349  0.7674
  684TIP3   OH223610   2.077   4.261   1.567 -0.2000 -0.2514 -0.0314
  684TIP3    H123611   2.139   4.267   1.639  0.7628  0.7081 -0.9022
  684TIP3    H223612   2.019   4.337   1.579 -2.0243 -1.8008  1.4650
  685TIP3   OH223613   2.195   1.586   0.123 -0.0809 -0.4177 -0.0351
  685TIP3    H123614   2.258   1.553   0.187  0.2751  0.6953  0.2260
  685TIP3    H223615   2.213   1.537   0.043 -1.1188 -2.4743  0.9221
  686TIP3   OH223616   1.159   7.041   7.010 -0.2593 -0.1371 -0.2710
  686TIP3    H123617   1.228   7.100   6.980  0.9064 -1.3004  0.0813
  686TIP3    H223618   1.178   7.024   7.102 -1.7690  0.5442  0.2023
  687TIP3   OH223619   2.632   6.432   0.409 -0.1128  0.2477 -0.0491
  687TIP3    H123620   2.585   6.506   0.447 -0.4937  0.3006 -0.6117
  687TIP3    H223621   2.570   6.394   0.346  0.4552  0.0833 -0.5141
  688TIP3   OH223622   5.955   3.070   2.133 -0.8354  0.0277 -0.0995
  688TIP3    H123623   6.045   3.076   2.165 -1.3951 -2.4553  2.3084
  688TIP3    H223624   5.962   3.089   2.040  2.1440  0.1018  0.0326
  689TIP3   OH223625   5.544   5.476   1.462  0.0481  0.0145 -0.2605
  689TIP3    H123626   5.614   5.456   1.525 -0.5075 -0.2487  0.2809
  689TIP3    H223627   5.519   5.391   1.425  0.1528  0.1319 -0.6052
  690TIP3   OH223628   5.920   5.153   7.716  0.3920  0.3520 -0.1570
  690TIP3    H123629   5.841   5.127   7.763 -0.5958  1.6556 -1.0202
  690TIP3    H223630   5.896   5.235   7.673  1.8128  0.1079 -1.4901
  691TIP3   OH223631   4.453   4.871   0.107 -0.1075 -0.3280  1.0272
  691TIP3    H123632   4.517   4.806   0.137 -0.0397 -0.7840 -0.0611
  691TIP3    H223633   4.425   4.915   0.187  2.0084  0.3107  1.4986
  692TIP3   OH223634   2.840   1.125   7.665 -0.0350 -0.4195  0.1041
  692TIP3    H123635   2.827   1.047   7.718  2.7303 -0.4328  0.9021
  692TIP3    H223636   2.845   1.093   7.575 -0.4418 -0.9523  0.2708
  693TIP3   OH223637   0.061   5.793   7.350 -0.2878 -0.4158 -0.1622
  693TIP3    H123638   0.093   5.808   7.439 -0.4068  0.1153 -0.2028
  693TIP3    H223639   0.028   5.879   7.322 -1.2077 -0.8115 -0.3335
  694TIP3   OH223640   1.247   0.801   7.300 -0.2886  0.6526  0.4181
  694TIP3    H123641   1.165   0.760   7.328 -0.0215  0.4538  0.9125
  694TIP3    H223642   1.315   0.755   7.349  0.1900  0.3144 -0.5319
  695TIP3   OH223643   6.132   7.132   4.946  0.2748  0.7779 -0.4658
  695TIP3    H123644   6.211   7.183   4.963  0.7948 -0.3165  0.6549
  695TIP3    H223645   6.148   7.090   4.861  0.3375  1.5569 -0.8431
  696TIP3   OH223646   5.931   1.739   0.623  0.8371 -0.1291  0.6857
  696TIP3    H123647   5.984   1.789   0.560 -1.9902  1.7515 -0.4240
  696TIP3    H223648   5.930   1.650   0.589  0.4523  0.5765 -1.2927
  697TIP3   OH223649   5.674   1.625   0.161  0.0451  0.4384 -0.2286
  697TIP3    H123650   5.600   1.609   0.103 -0.5794  0.6824  0.4800
  697TIP3    H223651   5.647   1.701   0.213 -0.2723 -0.9586  1.7620
  698TIP3   OH223652   2.626   5.092   0.208  0.7811  0.6208 -0.1169
  698TIP3    H123653   2.640   4.998   0.205  1.5442  0.6332  1.9853
  698TIP3    H223654   2.532   5.102   0.193  0.4120 -0.5998  1.1708
  699TIP3   OH223655   2.427   3.817   1.335 -0.1365  0.5116 -0.1821
  699TIP3    H123656   2.391   3.770   1.260 -0.7857  1.5754 -0.5584
  699TIP3    H223657   2.458   3.748   1.394  0.6031 -0.3488 -1.5094
  700TIP3   OH223658   6.732   5.576   2.118  0.2472 -0.0434  0.0819
  700TIP3    H123659   6.704   5.602   2.030  0.2028 -0.4855 -0.0423
  700TIP3    H223660   6.650   5.561   2.166  0.2681 -0.2698  0.0502
  701TIP3   OH223661   0.492   4.605   1.946 -0.3984 -0.2707 -0.0650
  701TIP3    H123662   0.407   4.566   1.923 -0.5767  0.4056 -0.6062
  701TIP3    H223663   0.522   4.556   2.022 -0.0787 -2.2219 -1.3697
  702TIP3   OH223664   7.035   6.377   1.775 -0.0961 -0.2825  0.4316
  702TIP3    H123665   6.951   6.419   1.754  1.7669  4.0852  0.7454
  702TIP3    H223666   7.063   6.338   1.692 -0.5435  1.9591 -0.8573
  703TIP3   OH223667   3.221   5.821   6.704 -0.3635 -0.2880 -0.4728
  703TIP3    H123668   3.156   5.891   6.695 -0.5935 -0.5763 -1.1045
  703TIP3    H223669   3.183   5.761   6.768  0.9084  1.3494  1.9932
  704TIP3   OH223670   2.939   4.996   2.747 -0.4943 -0.0581 -0.2521
  704TIP3    H123671   2.963   4.908   2.777 -0.1497 -0.2083 -0.9535
  704TIP3    H223672   2.844   4.999   2.756 -0.4510 -0.2894  0.3377
  705TIP3   OH223673   7.029   0.482   6.434 -0.1877 -0.5610  0.2927
  705TIP3    H123674   6.993   0.415   6.492  0.9378  1.0393  3.0011
  705TIP3    H223675   6.974   0.559   6.450  0.3197 -0.0027 -0.5913
  706TIP3   OH223676   5.351   7.063   1.783 -0.0278 -0.2757  0.4313
  706TIP3    H123677   5.379   7.114   1.859  0.3910  2.4697 -1.3946
  706TIP3    H223678   5.395   6.979   1.792  1.2482  0.5449  2.4295
  707TIP3   OH223679   5.933   4.070   2.113 -0.7255  0.4457  0.4642
  707TIP3    H123680   5.884   3.989   2.129  0.4454 -0.6185 -1.0416
  707TIP3    H223681   5.914   4.092   2.022  1.6938 -0.1651 -0.2741
  708TIP3   OH223682   3.684   5.091   1.166  0.3068  0.3340 -0.3942
  708TIP3    H123683   3.650   5.070   1.253  2.2084 -0.2517  0.2586
  708TIP3    H223684   3.665   5.185   1.155  0.1748  0.4537  0.7222
  709TIP3   OH223685   4.969   5.144   0.010 -0.4419  0.1120 -0.3672
  709TIP3    H123686   4.886   5.120  -0.031  0.2616 -1.1013 -1.1639
  709TIP3    H223687   5.029   5.073  -0.015  0.3160 -0.0971  1.8666
  710TIP3   OH223688   0.819   4.526   7.879  0.0975 -0.8568 -0.1472
  710TIP3    H123689   0.748   4.587   7.899  0.2288 -0.7317 -0.0600
  710TIP3    H223690   0.884   4.541   7.948 -0.6510 -2.3608  0.9290
  711TIP3   OH223691   5.909   2.151   6.372 -0.1907 -0.5820 -0.1004
  711TIP3    H123692   5.916   2.100   6.291 -0.7717 -0.3441 -0.3078
  711TIP3    H223693   5.820   2.185   6.371  0.2061  0.5211 -0.0176
  712TIP3   OH223694   1.894   4.219   0.036  0.1621  0.1767  0.2974
  712TIP3    H123695   1.803   4.213   0.007 -0.3614 -0.8731  1.9912
  712TIP3    H223696   1.945   4.199  -0.043 -1.0792  0.3246 -0.5797
  713TIP3   OH223697   0.274   0.125   0.337  0.0118 -0.3560  0.0715
  713TIP3    H123698   0.180   0.135   0.357 -0.1334  0.0303 -0.7450
  713TIP3    H223699   0.290   0.031   0.345 -0.5233 -0.4692 -0.0963
  714TIP3   OH223700   3.257   3.094   1.045 -0.6077 -0.1205 -1.0296
  714TIP3    H123701   3.286   3.181   1.070 -2.5198  0.2670  0.0167
  714TIP3    H223702   3.201   3.108   0.969 -2.7941 -0.0791  0.4904
  715TIP3   OH223703   5.359   4.269   7.041  0.1586 -0.5830 -0.4354
  715TIP3    H123704   5.362   4.355   6.998 -1.7781 -0.1823  0.1425
  715TIP3    H223705   5.343   4.288   7.133 -1.5346 -1.5771 -0.4884
  716TIP3   OH223706   6.077   5.770   1.405  0.3506  0.3354  0.3340
  716TIP3    H123707   6.155   5.731   1.364 -0.9854 -1.0652 -1.0378
  716TIP3    H223708   6.077   5.860   1.373  0.2823 -0.2473 -1.4415
  717TIP3   OH223709   6.920   4.673   0.542 -0.2899 -0.0573 -0.0985
  717TIP3    H123710   6.864   4.654   0.467  0.0913 -2.0975  0.0779
  717TIP3    H223711   7.008   4.649   0.514  0.0806  0.4918  0.5479
  718TIP3   OH223712   6.894   1.971   2.039 -0.4090  0.0136  0.0349
  718TIP3    H123713   6.885   1.973   1.943  0.0824 -2.1755 -0.0976
  718TIP3    H223714   6.974   1.922   2.055  1.2949  2.9727  1.5772
  719TIP3   OH223715   4.958   5.321   6.897 -0.0127  0.6388 -0.2939
  719TIP3    H123716   4.988   5.412   6.894 -0.0291  0.6469 -0.2305
  719TIP3    H223717   5.028   5.271   6.856  0.0310  0.6714 -0.2595
  720TIP3   OH223718   4.696   1.408   1.502  0.2174  0.6296  0.4647
  720TIP3    H123719   4.784   1.444   1.512 -0.2004  1.1527  2.9567
  720TIP3    H223720   4.693   1.335   1.564 -0.7610 -0.0665 -0.3822
  721TIP3   OH223721   1.993   4.594   6.889  0.4429  0.3461 -0.3035
  721TIP3    H123722   2.022   4.618   6.801  0.8640  0.8208 -0.0438
  721TIP3    H223723   1.898   4.584   6.881  0.6058 -0.7354 -1.0546
  722TIP3   OH223724   1.153   4.836   2.523 -0.1237  0.2392  0.0816
  722TIP3    H123725   1.170   4.809   2.433  2.3865 -0.7256  0.7552
  722TIP3    H223726   1.154   4.754   2.573 -0.6541  0.8396  1.1133
  723TIP3   OH223727   3.400   2.455   1.449  0.0850 -0.0502 -0.9525
  723TIP3    H123728   3.380   2.509   1.372  1.0120  1.5933 -0.0872
  723TIP3    H223729   3.332   2.478   1.512 -1.0385 -1.8516 -1.4359
  724TIP3   OH223730   4.394   2.815   7.045  0.0095  0.0570  0.3129
  724TIP3    H123731   4.338   2.754   7.093 -0.9591  0.1642 -0.6523
  724TIP3    H223732   4.401   2.777   6.958  0.3964  0.7078  0.0562
  725TIP3   OH223733   6.915   3.122   2.458 -0.1280  0.0303  0.0595
  725TIP3    H123734   6.821   3.112   2.444 -0.4736  1.5343  1.0714
  725TIP3    H223735   6.922   3.177   2.536  1.6023 -0.3363  0.2064
  726TIP3   OH223736   6.420   1.094   0.279  0.2131 -0.3571 -0.1951
  726TIP3    H123737   6.442   1.150   0.204 -0.9445  1.2630  0.6175
  726TIP3    H223738   6.444   1.147   0.355 -3.6506  0.4087  0.6821
  727TIP3   OH223739   5.065   2.165   0.057  0.4884 -0.0942 -0.3203
  727TIP3    H123740   5.074   2.081   0.102  0.9260 -0.5404 -1.1954
  727TIP3    H223741   4.994   2.152  -0.006  1.2084 -0.1454 -1.1479
  728TIP3   OH223742   1.528   6.154   2.230 -0.1092 -0.2961  0.2090
  728TIP3    H123743   1.471   6.227   2.207 -0.3360  0.2055  2.2623
  728TIP3    H223744   1.504   6.085   2.167 -1.0734  0.7972 -0.6668
  729TIP3   OH223745   2.088   4.041   7.962 -0.2267  0.4120 -0.2951
  729TIP3    H123746   2.102   4.075   8.050 -0.0125 -0.9245  0.2003
  729TIP3    H223747   2.160   4.078   7.910  0.3922  0.1810  0.3867
  730TIP3   OH223748   2.302   3.656   6.974 -0.4664  0.1382 -0.2764
  730TIP3    H123749   2.324   3.748   6.961 -0.3507  0.0244 -0.9467
  730TIP3    H223750   2.248   3.633   6.898  0.0731 -0.5156 -0.4772
  731TIP3   OH223751   5.218   5.291   7.933  0.6716  0.0843  0.1219
  731TIP3    H123752   5.275   5.214   7.933  2.4416  1.3316 -0.5960
  731TIP3    H223753   5.130   5.255   7.947  1.3115 -2.1667 -1.0630
  732TIP3   OH223754   2.727   0.699   7.855  0.0370 -0.0356 -0.0502
  732TIP3    H123755   2.799   0.637   7.845  0.6862  0.5205  1.0798
  732TIP3    H223756   2.769   0.785   7.859 -0.7531  0.3680 -0.2040
  733TIP3   OH223757   5.499   2.172   2.067 -0.7103 -0.0639 -0.2979
  733TIP3    H123758   5.445   2.250   2.081 -2.4634 -0.8955 -1.9908
  733TIP3    H223759   5.552   2.193   1.991 -0.3802 -0.1187 -0.0824
  734TIP3   OH223760   3.848   4.413   7.697 -0.4299  0.1826  0.0007
  734TIP3    H123761   3.943   4.412   7.698 -0.3933  0.5804 -1.4136
  734TIP3    H223762   3.823   4.331   7.741  0.5706 -0.2753 -0.2522
  735TIP3   OH223763   1.384   5.945   6.853  0.0282 -0.1214 -0.2821
  735TIP3    H123764   1.439   6.018   6.882 -0.9314  0.0855  1.1282
  735TIP3    H223765   1.444   5.886   6.807  0.8221  1.5360 -1.4608
  736TIP3   OH223766   4.353   2.157   7.715  0.5334 -0.0701 -0.6131
  736TIP3    H123767   4.366   2.168   7.621  0.3099  0.9364 -0.5360
  736TIP3    H223768   4.262   2.128   7.724  0.7279 -0.7480 -0.7308
  737TIP3   OH223769   3.446   3.069   0.391  0.3940 -0.0362 -0.4406
  737TIP3    H123770   3.506   3.030   0.327 -0.6244  0.1071 -1.5109
  737TIP3    H223771   3.469   3.162   0.391  1.1960 -0.2211  0.3131
  738TIP3   OH223772   5.071   5.785   0.220  0.1837 -0.4782 -0.7538
  738TIP3    H123773   4.977   5.769   0.224  0.2814 -1.2234 -1.1201
  738TIP3    H223774   5.079   5.870   0.177 -0.3707  0.6699  1.2816
  739TIP3   OH223775   0.483   0.689   7.889 -0.5143 -0.5740  0.5714
  739TIP3    H123776   0.550   0.635   7.848 -1.1044 -0.9960  0.1344
  739TIP3    H223777   0.516   0.706   7.977  0.7730  0.3446 -0.0516
  740TIP3   OH223778   0.737   2.015   1.747 -0.1307  0.1506 -0.3476
  740TIP3    H123779   0.647   2.048   1.746 -0.9860 -2.0389 -0.2456
  740TIP3    H223780   0.752   1.987   1.837  0.5570  0.1720 -0.4439
  741TIP3   OH223781   2.325   2.433   1.822 -0.5031 -0.4909  0.0220
  741TIP3    H123782   2.282   2.515   1.846  0.3783  0.1715 -0.5977
  741TIP3    H223783   2.274   2.399   1.749 -3.4535 -2.7207  2.8259
  742TIP3   OH223784   5.848   1.472   0.313 -0.3483 -0.7042 -0.2709
  742TIP3    H123785   5.902   1.430   0.246  0.6665 -1.9141  1.2501
  742TIP3    H223786   5.796   1.536   0.264  0.7390 -1.1542 -2.1308
  743TIP3   OH223787   5.579   0.511   7.089 -0.1053  0.4865 -0.4029
  743TIP3    H123788   5.535   0.427   7.099 -0.0711  0.5774  0.6756
  743TIP3    H223789   5.567   0.554   7.174 -1.6690  2.3252 -1.4742
  744TIP3   OH223790   6.988   4.957   6.542  0.1338 -0.4083 -0.1675
  744TIP3    H123791   7.070   4.907   6.534 -0.8779 -2.4237  1.2749
  744TIP3    H223792   6.924   4.894   6.574 -2.3955  0.7670 -2.5394
  745TIP3   OH223793   0.202   6.370   1.455  0.1548  0.4723 -0.2653
  745TIP3    H123794   0.268   6.352   1.521 -1.7224  0.7822  1.7948
  745TIP3    H223795   0.175   6.460   1.473 -1.5164  0.0192 -0.4115
  746TIP3   OH223796   3.229   6.702   0.687  0.6402  0.3062  0.0796
  746TIP3    H123797   3.289   6.657   0.746  1.1653  1.5761  0.5390
  746TIP3    H223798   3.143   6.693   0.728  0.5013 -1.4159 -0.5197
  747TIP3   OH223799   6.193   4.146   7.270  0.0813  0.1482 -0.3651
  747TIP3    H123800   6.117   4.122   7.216  1.0124 -0.9975 -1.2038
  747TIP3    H223801   6.236   4.063   7.290 -0.1950  0.5163  2.1698
  748TIP3   OH223802   0.112   5.001   6.685  0.0184 -0.0252  0.1478
  748TIP3    H123803   0.065   5.083   6.669  0.0096 -0.0856 -0.1424
  748TIP3    H223804   0.078   4.941   6.619  0.8368  0.0579 -0.3544
  749TIP3   OH223805   0.121   2.728   2.267 -0.0346 -0.1379 -0.1426
  749TIP3    H123806   0.168   2.647   2.243  0.5379  0.2871 -0.4796
  749TIP3    H223807   0.147   2.744   2.357  2.7314  1.5901 -1.1281
  750TIP3   OH223808   1.283   1.491   1.924  0.0372 -0.0920  0.3423
  750TIP3    H123809   1.312   1.544   1.849  0.8208 -1.8201 -0.6205
  750TIP3    H223810   1.221   1.548   1.970  0.0233  1.2674 -1.2430
  751TIP3   OH223811   2.197   0.059   6.887  0.0125 -0.2514  0.5729
  751TIP3    H123812   2.266   0.094   6.944  1.0471 -1.0035 -0.1777
  751TIP3    H223813   2.215   0.098   6.801  0.0836 -1.1880  0.1547
  752TIP3   OH223814   5.234   5.586   0.258 -0.0474  1.0549  0.1809
  752TIP3    H123815   5.320   5.622   0.282  0.1623  0.3345  0.5385
  752TIP3    H223816   5.179   5.663   0.242  0.6265  1.5217  0.0878
  753TIP3   OH223817   6.692   3.202   0.083  1.0289  0.1270  0.6215
  753TIP3    H123818   6.693   3.298   0.078  1.0991  0.2688  2.5977
  753TIP3    H223819   6.676   3.174  -0.007  1.5823  1.9732 -0.1048
  754TIP3   OH223820   4.971   4.428   6.425  0.0332  0.4083  0.3551
  754TIP3    H123821   5.003   4.345   6.459  0.1203  1.1025  2.0954
  754TIP3    H223822   5.028   4.448   6.351 -0.2488 -1.2512 -0.3385
  755TIP3   OH223823   3.550   1.667   0.276 -0.5016 -1.3230  0.1738
  755TIP3    H123824   3.611   1.733   0.244  1.1899 -1.3597  2.9611
  755TIP3    H223825   3.464   1.710   0.275  0.2066  0.1430 -0.0961
  756TIP3   OH223826   5.993   6.704   6.413 -0.5688 -0.0735  0.4391
  756TIP3    H123827   5.923   6.763   6.385  0.9926  1.9960  0.6476
  756TIP3    H223828   6.035   6.676   6.331 -1.4167 -1.1049  0.3301
  757TIP3   OH223829   5.275   1.229   6.536 -0.3404 -0.3652 -0.5650
  757TIP3    H123830   5.323   1.288   6.478 -1.3591 -0.9307 -2.0390
  757TIP3    H223831   5.299   1.141   6.507 -1.3856 -0.6594 -0.5875
  758TIP3   OH223832   5.739   2.777   7.455 -0.1384 -0.4610 -0.1833
  758TIP3    H123833   5.657   2.824   7.444 -1.4951 -2.7945 -0.6683
  758TIP3    H223834   5.744   2.718   7.379  1.5222 -1.0218  0.3070
  759TIP3   OH223835   2.385   5.804   0.833  0.1222  0.7763  0.0169
  759TIP3    H123836   2.401   5.789   0.926 -1.2214 -0.0046  0.1545
  759TIP3    H223837   2.302   5.759   0.816  0.1494  1.2454 -1.4706
  760TIP3   OH223838   0.326   3.336   0.123 -0.0823  0.1016  0.2843
  760TIP3    H123839   0.284   3.347   0.208 -1.0786 -1.3664  0.0229
  760TIP3    H223840   0.267   3.378   0.061  0.2440  0.4801  0.2296
  761TIP3   OH223841   5.911   2.747   0.966 -0.3222  0.1934  0.1662
  761TIP3    H123842   5.862   2.664   0.965  0.1510 -0.0848 -1.2528
  761TIP3    H223843   5.924   2.769   0.874  0.0453  1.5747  0.5239
  762TIP3   OH223844   6.670   4.973   0.166 -0.5673 -0.4485 -0.4669
  762TIP3    H123845   6.583   5.004   0.191  0.1921  1.5367 -0.0766
  762TIP3    H223846   6.707   5.046   0.116  1.7967 -0.2014  1.4986
  763TIP3   OH223847   5.770   4.577   1.466  0.1993 -0.3201 -0.2215
  763TIP3    H123848   5.707   4.616   1.527 -0.6551 -1.9803  0.0362
  763TIP3    H223849   5.845   4.555   1.521  1.5142  2.5471 -0.6990
  764TIP3   OH223850   6.509   0.841   0.373  0.1883 -0.0751  0.2399
  764TIP3    H123851   6.542   0.800   0.293 -2.0489 -0.8413 -0.3677
  764TIP3    H223852   6.467   0.922   0.343 -0.7594 -0.4210  0.5958
  765TIP3   OH223853   0.706   3.153   7.091  0.8391  0.1422  0.3858
  765TIP3    H123854   0.611   3.160   7.103  0.5037  1.7913 -2.3367
  765TIP3    H223855   0.716   3.130   6.998  3.1085 -1.7418  1.0157
  766TIP3   OH223856   0.957   5.580   0.762 -0.1565 -0.5182 -0.1333
  766TIP3    H123857   1.047   5.553   0.744  0.3854  0.5938  0.7202
  766TIP3    H223858   0.942   5.553   0.853  0.8538  2.8833  1.2233
  767TIP3   OH223859   2.400   6.860   0.015 -0.3807 -0.5483 -0.5484
  767TIP3    H123860   2.417   6.888   0.105  1.9574 -0.1159 -1.0763
  767TIP3    H223861   2.328   6.916  -0.015 -2.1370 -1.6057  1.4353
  768TIP3   OH223862   3.523   6.874   0.675  0.1684 -0.3267  0.4082
  768TIP3    H123863   3.492   6.840   0.759 -0.8810  1.8289  0.9790
  768TIP3    H223864   3.542   6.966   0.692 -2.1515  0.7694 -2.1676
  769TIP3   OH223865   7.082   0.375   1.129 -0.3579 -0.9033  0.1929
  769TIP3    H123866   7.101   0.339   1.043 -0.4626 -0.7268  0.0955
  769TIP3    H223867   7.079   0.470   1.115 -1.3434 -0.9246  0.1965
  770TIP3   OH223868   0.793   5.063   1.643 -0.1242 -0.1879  0.0018
  770TIP3    H123869   0.857   5.019   1.588  0.4854 -0.2603  0.7623
  770TIP3    H223870   0.820   5.155   1.643 -0.3177 -0.1299 -0.0861
  771TIP3   OH223871   6.493   0.650   7.452  0.2108  0.1342  0.5935
  771TIP3    H123872   6.564   0.601   7.410  0.2239  0.2765  0.4458
  771TIP3    H223873   6.472   0.720   7.389 -1.1128 -0.8159 -0.0573
  772TIP3   OH223874   4.192   2.075   1.085  0.6571 -0.4424 -0.7286
  772TIP3    H123875   4.284   2.051   1.070  0.2096 -1.7735 -1.5423
  772TIP3    H223876   4.172   2.137   1.015  1.9345  2.8810  1.6093
  773TIP3   OH223877   5.096   4.184   6.446 -0.1589  0.6873 -0.1090
  773TIP3    H123878   5.182   4.143   6.457 -1.1069 -0.6916  3.3787
  773TIP3    H223879   5.053   4.130   6.380  1.0383  0.4170 -0.7095
  774TIP3   OH223880   0.886   5.754   1.975  0.9000  0.8203  0.3962
  774TIP3    H123881   0.847   5.829   2.020 -0.5174 -0.0480  0.7000
  774TIP3    H223882   0.923   5.700   2.045 -0.7332 -0.2071  0.5360
  775TIP3   OH223883   5.849   0.433   1.084  0.2927  0.5124  0.2947
  775TIP3    H123884   5.771   0.382   1.104  1.6569 -1.7120  0.2393
  775TIP3    H223885   5.817   0.523   1.075 -2.5564 -0.5352 -1.5324
  776TIP3   OH223886   2.546   2.334   1.991  0.3190  0.5612  0.2462
  776TIP3    H123887   2.567   2.395   2.061 -4.7175 -0.0991  2.8640
  776TIP3    H223888   2.501   2.387   1.925  2.5844  0.7040 -1.2979
  777TIP3   OH223889   2.392   4.443   7.460 -0.5365  0.0074 -0.8229
  777TIP3    H123890   2.395   4.373   7.526 -1.7804  1.4614  0.8719
  777TIP3    H223891   2.483   4.474   7.455 -0.5325  0.3517  0.7915
  778TIP3   OH223892   6.477   2.994   6.856  0.0156  0.1064  0.3671
  778TIP3    H123893   6.455   2.978   6.764  1.0153 -0.6605  0.2463
  778TIP3    H223894   6.552   3.052   6.853 -0.9866  1.4613  0.7495
  779TIP3   OH223895   6.536   2.657   7.534 -0.0586 -0.3389 -0.0562
  779TIP3    H123896   6.556   2.695   7.448 -2.8601 -1.0299 -1.1562
  779TIP3    H223897   6.449   2.692   7.556 -0.2853 -1.7341  1.5290
  780TIP3   OH223898   3.567   4.536   1.585  0.3857 -0.0480  0.2400
  780TIP3    H123899   3.650   4.508   1.548  0.8525  1.1703  0.3182
  780TIP3    H223900   3.544   4.467   1.648 -0.0720 -1.7932 -1.7426
  781TIP3   OH223901   4.329   0.809   1.282  0.0862 -0.5855  0.0206
  781TIP3    H123902   4.361   0.843   1.365  1.0046  0.7332 -0.8225
  781TIP3    H223903   4.342   0.715   1.287  1.4400 -0.3818  0.8343
  782TIP3   OH223904   6.941   4.966   7.585  0.5296  0.2044 -0.2945
  782TIP3    H123905   6.906   4.882   7.615 -1.9035  0.9317 -0.8158
  782TIP3    H223906   7.000   4.943   7.513 -0.8147 -1.0525 -1.0490
  783TIP3   OH223907   4.986   0.012   0.611  0.0491 -0.7116  0.6656
  783TIP3    H123908   4.934  -0.068   0.605 -0.7064 -0.2258  0.6363
  783TIP3    H223909   4.977   0.053   0.525  1.3511 -1.1435  0.3046
  784TIP3   OH223910   4.450   2.247   6.602  0.5492  0.3409  0.7228
  784TIP3    H123911   4.366   2.212   6.570  1.4325 -0.9844 -0.2368
  784TIP3    H223912   4.438   2.342   6.598 -0.5716  0.1887 -0.3726
  785TIP3   OH223913   4.467   4.344   6.962  0.0381 -0.2624 -0.2844
  785TIP3    H123914   4.498   4.428   6.927  3.4053 -0.7091  1.2055
  785TIP3    H223915   4.398   4.368   7.024  0.3452  1.3241 -0.5105
  786TIP3   OH223916   4.160   1.787   0.328 -0.1222  0.7107  0.0677
  786TIP3    H123917   4.123   1.705   0.360  1.2403 -0.0359 -0.2342
  786TIP3    H223918   4.161   1.844   0.404 -1.1458  0.4969  0.2636
  787TIP3   OH223919   4.230   2.358   7.314  0.2963  0.8308  0.0548
  787TIP3    H123920   4.145   2.315   7.326  1.4616 -1.2033  1.7647
  787TIP3    H223921   4.261   2.327   7.229 -0.4463  1.2805 -0.4013
  788TIP3   OH223922   3.559   0.933   2.075  0.3397 -0.0129 -0.8712
  788TIP3    H123923   3.489   0.960   2.135 -0.8103 -0.9884 -1.7245
  788TIP3    H223924   3.636   0.923   2.131 -0.4003  0.2937  0.2365
  789TIP3   OH223925   2.643   2.612   0.063  0.6703  0.0748 -1.1294
  789TIP3    H123926   2.557   2.587   0.028  1.0233  1.4136 -3.1705
  789TIP3    H223927   2.630   2.701   0.095  0.8353 -0.4579  0.4666
  790TIP3   OH223928   3.037   1.226   6.908 -0.0741 -0.3288  0.1799
  790TIP3    H123929   2.970   1.166   6.875 -1.1881  0.5936  0.7052
  790TIP3    H223930   3.117   1.174   6.910 -1.1462 -2.0196  1.2806
  791TIP3   OH223931   3.966   2.667   6.609 -0.3829 -0.6927 -0.0475
  791TIP3    H123932   3.990   2.657   6.517 -0.3315  1.4489 -0.3332
  791TIP3    H223933   4.037   2.719   6.646 -0.4904 -1.3959  1.1830
  792TIP3   OH223934   6.054   0.395   6.055  0.3776  0.3596 -0.3584
  792TIP3    H123935   6.097   0.428   6.133 -2.6493  2.7880  0.4702
  792TIP3    H223936   5.963   0.426   6.061 -0.6649 -1.4396 -3.6349
  793TIP3   OH223937   4.626   5.690   1.904 -0.1822  0.7539  0.5093
  793TIP3    H123938   4.658   5.633   1.834 -1.1204  0.3690  0.3846
  793TIP3    H223939   4.599   5.770   1.859 -3.8976 -0.6477 -0.1460
  794TIP3   OH223940   0.679   2.632   0.527 -0.0693 -0.3349 -0.9912
  794TIP3    H123941   0.704   2.626   0.434  0.0703  0.0410 -0.9795
  794TIP3    H223942   0.707   2.720   0.554  0.8743 -0.8247 -0.3063
  795TIP3   OH223943   0.700   1.802   7.925 -0.4477 -0.4022 -0.3748
  795TIP3    H123944   0.650   1.809   7.843 -1.9531 -2.0568  0.3218
  795TIP3    H223945   0.696   1.708   7.947  2.6485 -0.5390 -0.0120
  796TIP3   OH223946   5.370   5.266   0.168  0.0191 -0.4345  0.1055
  796TIP3    H123947   5.408   5.189   0.125  0.0079  0.3206 -1.3361
  796TIP3    H223948   5.324   5.312   0.097 -0.4622  0.5927  1.0620
  797TIP3   OH223949   2.660   2.843   2.197  0.2596  0.0913 -0.2905
  797TIP3    H123950   2.704   2.918   2.157 -0.1634 -0.5479 -2.0632
  797TIP3    H223951   2.630   2.876   2.282  1.8245  1.3082 -0.1667
  798TIP3   OH223952   1.172   6.396   0.619 -0.0597 -0.1496  0.0832
  798TIP3    H123953   1.195   6.472   0.566  0.3804 -1.1892 -1.3113
  798TIP3    H223954   1.250   6.380   0.673 -0.0016  0.1546  0.0904
  799TIP3   OH223955   0.314   5.636   1.788  0.3406 -0.0708 -0.4141
  799TIP3    H123956   0.287   5.655   1.878 -3.2940 -0.6127 -1.2281
  799TIP3    H223957   0.305   5.541   1.780 -1.8043  0.1980 -1.9464
  800TIP3   OH223958   0.948   5.885   7.561 -0.4561  0.9098  0.0353
  800TIP3    H123959   0.895   5.812   7.529 -1.8918  1.0525  1.8826
  800TIP3    H223960   1.038   5.854   7.557 -0.7779  0.0680 -1.7454
  801TIP3   OH223961   6.639   3.073   1.015 -0.4850 -0.0617 -0.1444
  801TIP3    H123962   6.602   3.012   1.079  0.8467 -1.5203 -0.6945
  801TIP3    H223963   6.609   3.159   1.044 -3.3925 -1.0321 -0.0107
  802TIP3   OH223964   3.119   0.972   0.268 -0.0825  0.6027  0.2032
  802TIP3    H123965   3.107   0.985   0.362 -1.4576  1.4512 -0.0690
  802TIP3    H223966   3.206   0.932   0.261  1.5440  3.4972  1.6316
  803TIP3   OH223967   1.957   3.391   1.491 -0.0109  0.1730 -0.0762
  803TIP3    H123968   2.004   3.385   1.408 -1.9368 -0.0075 -1.2226
  803TIP3    H223969   1.944   3.300   1.517 -0.8708  0.1712 -0.4782
  804TIP3   OH223970   6.973   2.363   1.116  0.2043 -0.3793  0.8291
  804TIP3    H123971   6.886   2.343   1.082  1.6470 -1.0540 -2.9637
  804TIP3    H223972   6.987   2.455   1.093  0.9732 -0.6604  0.1172
  805TIP3   OH223973   7.146   1.892   0.527 -0.0743 -0.2300  0.2702
  805TIP3    H123974   7.209   1.964   0.525  0.6826 -0.6300  3.4393
  805TIP3    H223975   7.156   1.855   0.615 -2.8624 -2.0429 -0.0680
  806TIP3   OH223976   6.676   1.896   7.775 -0.2305 -0.6597  0.0832
  806TIP3    H123977   6.669   1.982   7.817 -2.2232 -0.6739 -0.1509
  806TIP3    H223978   6.681   1.916   7.681  2.5141 -0.7102  0.1268
  807TIP3   OH223979   1.604   0.711   1.528  0.2180 -0.0922 -0.6262
  807TIP3    H123980   1.594   0.691   1.435  0.1575  0.9178 -0.8544
  807TIP3    H223981   1.572   0.633   1.573 -2.9176  0.5968 -1.3971
  808TIP3   OH223982   2.305   3.265   6.406 -0.0447  0.0327  0.2878
  808TIP3    H123983   2.293   3.216   6.487  1.3496  0.0630  0.5347
  808TIP3    H223984   2.399   3.265   6.392 -0.0632  1.9825 -0.1105
  809TIP3   OH223985   6.129   5.686   2.102 -0.1222 -0.2930  0.4988
  809TIP3    H123986   6.076   5.635   2.040  0.5293 -0.8798  0.4200
  809TIP3    H223987   6.134   5.773   2.063 -0.0736 -0.5449 -0.0585
  810TIP3   OH223988   6.203   3.529   1.850  0.0059 -0.6791  0.1664
  810TIP3    H123989   6.163   3.572   1.926 -1.6621 -2.8466  0.6438
  810TIP3    H223990   6.235   3.600   1.796 -2.2169  1.1376  1.0706
  811TIP3   OH223991   3.830   6.195   7.771  0.5897 -0.2404  0.1262
  811TIP3    H123992   3.871   6.169   7.688  0.1407  0.1266 -0.2139
  811TIP3    H223993   3.779   6.274   7.749  1.2412  0.4295  0.9524
  812TIP3   OH223994   3.849   3.678   2.339 -0.3007  0.3911  0.0886
  812TIP3    H123995   3.944   3.681   2.351 -0.1034 -2.4602 -0.2301
  812TIP3    H223996   3.814   3.660   2.426 -0.3352 -0.8844 -0.1697
  813TIP3   OH223997   1.862   3.085   7.509 -0.0306 -0.1138  0.2997
  813TIP3    H123998   1.945   3.132   7.501  0.4709 -1.0218  0.0378
  813TIP3    H223999   1.842   3.086   7.602 -0.7081  1.7430  0.1759
  814TIP3   OH224000   2.546   6.624   6.713  0.3288 -0.0994  0.2031
  814TIP3    H124001   2.634   6.658   6.730  0.0114  0.4463  0.8343
  814TIP3    H224002   2.525   6.570   6.789  0.9394 -2.0042 -0.9319
  815TIP3   OH224003   0.877   1.745   1.494  0.1073 -0.2453  0.1254
  815TIP3    H124004   0.856   1.706   1.410  1.7797  0.6125 -0.7301
  815TIP3    H224005   0.875   1.672   1.556 -1.6493 -0.8010 -0.5202
  816TIP3   OH224006   2.487   5.564   0.114  0.7208  0.1632 -0.7759
  816TIP3    H124007   2.423   5.629   0.146  0.3178 -0.8593  0.5765
  816TIP3    H224008   2.442   5.520   0.042 -0.1946 -0.6241  0.2355
  817TIP3   OH224009   4.958   6.022   0.458 -0.1664 -0.4080 -0.3893
  817TIP3    H124010   4.931   5.991   0.544  0.0259  0.3616 -0.0402
  817TIP3    H224011   4.997   5.946   0.415  0.6362 -0.5584  0.5788
  818TIP3   OH224012   0.090   6.109   6.800 -0.4914  0.3561 -0.2187
  818TIP3    H124013   0.049   6.025   6.820 -0.2751  0.1363 -0.6747
  818TIP3    H224014   0.095   6.111   6.704  3.0267 -0.8671 -0.2410
  819TIP3   OH224015   6.536   3.978   1.287  0.1744  0.3777  0.1052
  819TIP3    H124016   6.573   3.974   1.198  1.1104  0.6163  0.4735
  819TIP3    H224017   6.571   4.058   1.324 -0.6441  0.5525  0.5181
  820TIP3   OH224018   1.679   0.907   0.571 -0.5069 -0.3670 -0.0538
  820TIP3    H124019   1.655   0.957   0.649  0.3858  0.3541 -0.2180
  820TIP3    H224020   1.684   0.816   0.602  1.3662  0.0829  1.1348
  821TIP3   OH224021   5.672   2.284   2.504 -0.0599 -0.6078 -0.8281
  821TIP3    H124022   5.587   2.243   2.493  0.1655 -1.1924 -0.4524
  821TIP3    H224023   5.657   2.352   2.571 -0.2076 -0.7766 -0.6888
  822TIP3   OH224024   5.821   3.488   1.156  0.2553  0.2404  0.5327
  822TIP3    H124025   5.742   3.485   1.103 -0.1488 -0.2479  1.1526
  822TIP3    H224026   5.798   3.443   1.237  1.0933  0.3004  0.8185
  823TIP3   OH224027   3.490   6.961   1.581  0.2301  0.0753 -0.0689
  823TIP3    H124028   3.567   7.016   1.599 -0.7188  0.9310  1.6227
  823TIP3    H224029   3.415   7.017   1.603 -1.0101 -0.2008 -3.0639
  824TIP3   OH224030   1.162   6.765   6.961 -0.4996 -0.1228 -0.0589
  824TIP3    H124031   1.154   6.857   6.936 -4.3038  0.1932  1.5974
  824TIP3    H224032   1.191   6.721   6.882 -2.3403  2.0313 -2.0666
  825TIP3   OH224033   4.435   0.288   1.466 -0.1642 -0.0758  0.4315
  825TIP3    H124034   4.349   0.329   1.465 -0.4536 -0.4606  2.9341
  825TIP3    H224035   4.423   0.206   1.417 -1.2152 -0.1055  0.7148
  826TIP3   OH224036   5.512   2.545   1.658  0.1517 -0.2267 -0.3729
  826TIP3    H124037   5.541   2.632   1.630 -1.9174  0.7048  0.2198
  826TIP3    H224038   5.441   2.523   1.598 -1.1490 -0.2750  1.1056
  827TIP3   OH224039   5.925   0.791   2.343 -0.9331 -0.6570 -0.0073
  827TIP3    H124040   5.854   0.856   2.341  0.7449  1.2394 -0.5707
  827TIP3    H224041   5.995   0.833   2.393  1.0181 -1.0804 -2.1906
  828TIP3   OH224042   0.548   5.437   2.476 -0.6602  0.3743 -0.5148
  828TIP3    H124043   0.612   5.501   2.443  0.9692 -0.0519  1.5996
  828TIP3    H224044   0.585   5.352   2.453 -0.2883  0.1158  0.9398
  829TIP3   OH224045   5.851   2.140   0.579  0.0821  0.1920 -0.3765
  829TIP3    H124046   5.787   2.077   0.546  1.2848 -1.0542 -0.4316
  829TIP3    H224047   5.933   2.090   0.585  0.3957  0.8912  2.5525
  830TIP3   OH224048   2.038   3.904   0.746 -0.6828 -0.2328 -0.5174
  830TIP3    H124049   2.114   3.876   0.797 -1.0327 -0.6642 -0.2352
  830TIP3    H224050   1.982   3.950   0.808 -0.3419  0.6853 -0.8716
  831TIP3   OH224051   3.852   0.650   0.952 -0.4674  0.2145  0.5860
  831TIP3    H124052   3.832   0.678   1.042  0.0541 -0.3326  0.8787
  831TIP3    H224053   3.807   0.567   0.943  0.2838 -0.2097  0.6803
  832TIP3   OH224054   5.357   4.895   6.889  0.7591  0.6967 -0.4065
  832TIP3    H124055   5.329   4.944   6.811  0.2593  0.6113 -0.2822
  832TIP3    H224056   5.308   4.935   6.961 -0.0314 -0.2994 -0.3673
  833TIP3   OH224057   5.120   2.130   7.662  0.5656  0.6689  0.1873
  833TIP3    H124058   5.147   2.084   7.741 -1.7844 -0.7740  0.2311
  833TIP3    H224059   5.185   2.105   7.596  2.3183  1.5771  1.4911
  834TIP3   OH224060   3.319   0.424   7.170 -0.1555  0.9327 -0.0949
  834TIP3    H124061   3.249   0.361   7.152 -0.3605  1.3788 -0.8820
  834TIP3    H224062   3.308   0.445   7.263 -0.7427  0.5981 -0.0839
  835TIP3   OH224063   2.169   5.211   1.840 -0.1513 -0.2358  0.4488
  835TIP3    H124064   2.160   5.297   1.798 -0.8190 -0.1355  0.7716
  835TIP3    H224065   2.121   5.220   1.922  0.2501 -0.7529  0.7408
  836TIP3   OH224066   1.436   1.515   2.296 -0.3967  0.5927  0.0814
  836TIP3    H124067   1.441   1.491   2.388 -0.5855  1.5221  0.3438
  836TIP3    H224068   1.515   1.566   2.279 -0.7304  1.0681 -0.0709
  837TIP3   OH224069   0.654   0.133   0.325  0.6289 -0.4526 -0.5372
  837TIP3    H124070   0.735   0.140   0.377  0.4120  0.8801 -0.3279
  837TIP3    H224071   0.617   0.221   0.328 -0.8209 -1.0358 -0.6629
  838TIP3   OH224072   7.147   5.319   7.936  0.2830  0.2764 -0.1265
  838TIP3    H124073   7.145   5.350   7.846  0.8631  1.8118  0.3396
  838TIP3    H224074   7.233   5.346   7.969  0.2754 -0.6848  0.7453
  839TIP3   OH224075   5.923   5.647   2.930  0.1200 -0.5112 -0.5166
  839TIP3    H124076   5.935   5.580   2.996 -1.4851  1.9892  2.5718
  839TIP3    H224077   5.994   5.710   2.944  0.4329 -0.4817 -1.9879
  840TIP3   OH224078   5.435   1.720   7.979 -0.2090  0.5510  0.4589
  840TIP3    H124079   5.462   1.800   8.024 -1.0912  0.3304  1.4042
  840TIP3    H224080   5.348   1.700   8.013 -0.0115 -0.8103  0.2354
  841TIP3   OH224081   6.897   0.492   2.432  0.0026 -0.3292 -0.7418
  841TIP3    H124082   6.889   0.587   2.446  0.5505 -0.1459 -1.6065
  841TIP3    H224083   6.821   0.455   2.476  0.7257  0.3511  1.1836
  842TIP3   OH224084   1.295   0.035   0.158  0.2733  0.0279 -0.2755
  842TIP3    H124085   1.354   0.094   0.111 -0.7368 -0.5982 -2.4417
  842TIP3    H224086   1.315  -0.052   0.123 -0.3674 -0.5067  0.6361
  843TIP3   OH224087   2.360   1.273   0.901  0.1853 -0.2835 -0.1588
  843TIP3    H124088   2.388   1.349   0.954 -2.4464 -0.0951  1.1104
  843TIP3    H224089   2.412   1.200   0.935  0.0365  0.2484  1.2725
  844TIP3   OH224090   1.358   1.099   2.286 -0.0446  0.2040  0.1839
  844TIP3    H124091   1.406   1.145   2.355 -1.0885  1.2615  0.2446
  844TIP3    H224092   1.352   1.162   2.214 -2.5153  0.6666  0.6992
  845TIP3   OH224093   5.732   4.818   1.660  0.0601  0.6312 -0.0166
  845TIP3    H124094   5.711   4.906   1.627 -1.6995 -0.6339 -2.5785
  845TIP3    H224095   5.656   4.795   1.714 -0.0536  0.2336 -0.3430
  846TIP3   OH224096   5.834   3.312   6.898  0.0693 -0.6805  0.2838
  846TIP3    H124097   5.784   3.352   6.969 -0.4620 -0.4864 -0.1906
  846TIP3    H224098   5.768   3.287   6.834  0.2092 -3.6159  1.1525
  847TIP3   OH224099   6.671   3.775   1.829  0.2366 -0.1044  0.0765
  847TIP3    H124100   6.655   3.742   1.741  1.2594  1.5777 -0.7935
  847TIP3    H224101   6.760   3.810   1.826  1.6776 -2.9676  2.7533
  848TIP3   OH224102   5.366   1.598   2.474 -0.2923 -0.2471 -0.1054
  848TIP3    H124103   5.357   1.550   2.392 -1.3806  0.8813 -0.6771
  848TIP3    H224104   5.324   1.542   2.539  0.5067 -1.1146 -0.3287
  849TIP3   OH224105   1.925   1.514   7.107 -0.0275  0.2027  0.3261
  849TIP3    H124106   1.933   1.496   7.013  2.5066 -0.1750  0.5375
  849TIP3    H224107   1.851   1.575   7.114 -0.1768  0.3611 -1.9178
  850TIP3   OH224108   3.780   5.224   2.360 -0.2414  0.1067 -0.3218
  850TIP3    H124109   3.836   5.224   2.438  1.2373  0.9338 -1.3395
  850TIP3    H224110   3.817   5.156   2.304 -1.1733 -0.3426 -0.4061
  851TIP3   OH224111   6.798   4.973   0.451 -0.2444 -0.2267  0.4596
  851TIP3    H124112   6.820   4.884   0.420  0.8763 -0.0138  0.5951
  851TIP3    H224113   6.882   5.010   0.477 -0.2780  1.7406 -1.8263
  852TIP3   OH224114   6.721   4.139   1.926  0.2661 -0.3253 -0.0271
  852TIP3    H124115   6.721   4.205   1.995 -0.9367 -1.4035  1.0689
  852TIP3    H224116   6.708   4.056   1.972 -0.4783 -1.0949 -1.5394
  853TIP3   OH224117   1.032   3.355   0.648  0.7378 -0.4030 -0.1661
  853TIP3    H124118   1.058   3.415   0.719  2.4359  1.3400 -2.1230
  853TIP3    H224119   1.002   3.276   0.693  0.6636  1.0188  2.4998
  854TIP3   OH224120   2.585   5.367   7.786 -0.1458  0.4896 -0.1416
  854TIP3    H124121   2.511   5.391   7.732  0.0218  2.0123  0.2686
  854TIP3    H224122   2.658   5.357   7.724  0.3421  3.4247 -0.1717
  855TIP3   OH224123   1.629   6.301   7.501 -0.2318  0.3390 -0.2768
  855TIP3    H124124   1.589   6.362   7.439 -2.4588 -0.6742  0.0598
  855TIP3    H224125   1.640   6.353   7.581 -1.9533  0.4245 -0.0424
  856TIP3   OH224126   1.967   2.970   2.412  0.3779 -0.4082  0.2552
  856TIP3    H124127   1.908   2.975   2.337  0.6550  2.0773  0.1156
  856TIP3    H224128   1.921   2.914   2.475  0.4363 -3.0902 -1.9146
  857TIP3   OH224129   3.185   4.106   7.182  0.7583 -0.0032  0.4141
  857TIP3    H124130   3.104   4.054   7.178  0.5309  0.1559  2.3458
  857TIP3    H224131   3.209   4.118   7.090  0.2014 -2.5315 -0.1443
  858TIP3   OH224132   6.926   6.115   2.796 -0.8375 -0.9362 -0.1496
  858TIP3    H124133   6.834   6.134   2.776 -0.7336  0.0075  0.2711
  858TIP3    H224134   6.934   6.021   2.778 -1.5650 -0.7922 -1.4113
  859TIP3   OH224135   2.586   3.655   7.999  0.0443  0.0277  0.1504
  859TIP3    H124136   2.511   3.710   7.975  1.6732  2.2637 -0.1426
  859TIP3    H224137   2.639   3.651   7.920  1.3156  0.3620  0.9663
  860TIP3   OH224138   5.544   1.933   1.111  0.2884  0.2124 -0.7304
  860TIP3    H124139   5.455   1.967   1.111  0.5260  0.8654 -1.1741
  860TIP3    H224140   5.549   1.878   1.188 -0.3468  0.5833 -0.4165
  861TIP3   OH224141   0.104   5.052   1.475  0.4999  0.8170  0.4016
  861TIP3    H124142   0.163   5.111   1.428 -0.5767  0.8007 -1.0367
  861TIP3    H224143   0.129   5.062   1.567  0.8523  2.9654  0.1362
  862TIP3   OH224144   7.123   6.996   0.584 -0.6214 -0.6853  0.2600
  862TIP3    H124145   7.182   7.064   0.617 -0.3749 -1.2254  0.9626
  862TIP3    H224146   7.167   6.914   0.606  1.0348 -1.1794 -3.9358
  863TIP3   OH224147   0.091   5.940   2.828 -0.2076 -0.0598  0.2408
  863TIP3    H124148   0.089   5.888   2.908  1.8537  0.1927  0.5318
  863TIP3    H224149   0.015   5.912   2.779  0.1829 -2.5298  0.8987
  864TIP3   OH224150   5.996   4.816   1.645 -0.5698  0.2797 -0.6889
  864TIP3    H124151   5.910   4.830   1.684  0.0149  2.3509  0.0069
  864TIP3    H224152   5.995   4.867   1.564 -0.1066  0.0784 -0.8290
  865TIP3   OH224153   4.793   0.580   7.403 -0.0183  0.1354  0.8837
  865TIP3    H124154   4.780   0.554   7.312  2.5083 -0.3077  0.5844
  865TIP3    H224155   4.796   0.676   7.401 -2.7175  0.3049  0.9950
  866TIP3   OH224156   7.104   3.235   7.564  0.4920 -0.0864  0.2198
  866TIP3    H124157   7.080   3.157   7.614  0.7068 -0.5106 -0.3298
  866TIP3    H224158   7.180   3.271   7.609 -0.4738  0.6552  1.3404
  867TIP3   OH224159   2.999   2.531   0.970 -0.2444  0.5025 -0.7031
  867TIP3    H124160   3.034   2.566   1.052  0.7276  0.6744 -1.1829
  867TIP3    H224161   3.070   2.480   0.933 -0.4220  1.0210 -1.8050
  868TIP3   OH224162   4.449   6.702   7.188  0.3735  0.2399  0.0639
  868TIP3    H124163   4.531   6.665   7.221  0.1652 -0.1751  0.1211
  868TIP3    H224164   4.381   6.649   7.229  0.0653  0.8557  0.3479
  869TIP3   OH224165   5.323   5.099   0.636  0.1230 -0.0540 -0.1792
  869TIP3    H124166   5.302   5.099   0.730  1.6626 -1.4839  0.2214
  869TIP3    H224167   5.363   5.013   0.621 -0.2432  0.0882 -2.2013
  870TIP3   OH224168   4.852   2.623   7.763  0.6289 -0.5641 -0.3574
  870TIP3    H124169   4.785   2.679   7.724  0.3810 -0.0180  0.8173
  870TIP3    H224170   4.805   2.573   7.830  1.1614 -1.0732 -0.3599
  871TIP3   OH224171   7.039   2.138   0.359  0.0241  0.0220 -0.7203
  871TIP3    H124172   6.998   2.054   0.377  0.6692 -0.5032 -1.6226
  871TIP3    H224173   7.113   2.142   0.420  0.5640 -0.5150 -1.3163
  872TIP3   OH224174   6.743   5.926   7.957  0.0778 -0.0121 -0.1976
  872TIP3    H124175   6.806   5.976   7.905 -0.6355 -0.1585 -1.2461
  872TIP3    H224176   6.712   5.987   8.024  1.5005 -0.0165  0.5039
  873TIP3   OH224177   6.201   4.310   0.790 -0.8270  0.1869  0.5816
  873TIP3    H124178   6.262   4.320   0.863 -2.4544  1.1959  1.8863
  873TIP3    H224179   6.215   4.388   0.737  0.4694 -0.6247 -0.3113
  874TIP3   OH224180   5.114   5.162   7.408 -0.5301 -0.0120 -0.5207
  874TIP3    H124181   5.143   5.239   7.360 -1.4680  0.2594 -0.6746
  874TIP3    H224182   5.179   5.152   7.478 -0.9799  1.5881  0.1836
  875TIP3   OH224183   1.851   4.804   7.411  0.2001 -0.1629 -0.5329
  875TIP3    H124184   1.930   4.823   7.361 -1.0036 -1.6414 -3.1891
  875TIP3    H224185   1.858   4.711   7.433  0.6582  0.4208  2.1381
  876TIP3   OH224186   1.817   5.375   7.535  0.7890  0.0804 -0.5290
  876TIP3    H124187   1.903   5.405   7.505  0.8642  0.4666  0.0581
  876TIP3    H224188   1.767   5.455   7.549  0.1107 -0.1543 -1.4737
  877TIP3   OH224189   0.149   3.791   0.884 -0.5851  0.0905  0.2636
  877TIP3    H124190   0.128   3.699   0.901 -0.2747  0.2247  1.4686
  877TIP3    H224191   0.187   3.822   0.966 -1.5335  1.5450  0.1905
  878TIP3   OH224192   2.876   1.310   0.748 -0.2432 -0.2218 -0.4864
  878TIP3    H124193   2.862   1.394   0.703  0.4766  0.5567  0.6936
  878TIP3    H224194   2.826   1.318   0.829  1.5821 -0.0160  0.6753
  879TIP3   OH224195   0.767   0.580   6.774  0.1370 -0.0057 -0.3884
  879TIP3    H124196   0.793   0.581   6.682  2.2091  0.2438  0.1389
  879TIP3    H224197   0.808   0.658   6.811 -0.8256 -0.0011  0.7111
  880TIP3   OH224198   3.431   3.332   2.380  0.5400  0.3473 -0.0758
  880TIP3    H124199   3.473   3.248   2.396 -0.3990 -0.1440 -0.1299
  880TIP3    H224200   3.471   3.364   2.298  0.0244 -0.6321 -0.7287
  881TIP3   OH224201   3.247   6.166   1.864 -0.2068  0.0067 -0.1812
  881TIP3    H124202   3.254   6.162   1.959 -2.7038  2.3345  0.2262
  881TIP3    H224203   3.314   6.229   1.837 -0.4049  0.3794  0.1973
  882TIP3   OH224204   7.139   0.646   1.046 -0.2474 -0.0418 -0.2717
  882TIP3    H124205   7.127   0.735   1.077 -1.0540 -0.4531  0.6442
  882TIP3    H224206   7.100   0.645   0.959 -0.1758  0.5130 -0.3110
  883TIP3   OH224207   1.655   6.759   6.635 -0.0791 -0.0201 -0.8824
  883TIP3    H124208   1.670   6.722   6.548 -1.6623 -2.7547 -0.1100
  883TIP3    H224209   1.622   6.686   6.687  0.3564  1.6347  1.9303
  884TIP3   OH224210   6.129   1.272   6.624  0.0105  0.0288  0.7791
  884TIP3    H124211   6.148   1.332   6.552  0.9564 -0.5762  0.5112
  884TIP3    H224212   6.182   1.194   6.605 -1.2623 -0.9449  1.0504
  885TIP3   OH224213   4.798   2.453   7.550 -0.6375  0.4373  0.0317
  885TIP3    H124214   4.878   2.404   7.528 -0.0536  1.1429  0.5229
  885TIP3    H224215   4.824   2.508   7.624 -2.0083 -0.4309  1.2070
  886TIP3   OH224216   0.889   4.873   1.444 -0.2243  0.0993 -0.0472
  886TIP3    H124217   0.971   4.825   1.437  0.6150  1.4165  0.5050
  886TIP3    H224218   0.832   4.833   1.378  1.5407  0.5173 -1.9016
  887TIP3   OH224219   3.780   5.164   0.204  0.2651 -0.2127 -0.2570
  887TIP3    H124220   3.831   5.238   0.170  0.2973  1.4596  3.0655
  887TIP3    H224221   3.689   5.193   0.198  0.2229 -0.2137  0.3211
  888TIP3   OH224222   2.680   0.850   0.841  0.1814 -0.2735  0.1945
  888TIP3    H124223   2.702   0.911   0.771 -0.2781  0.7375  0.9032
  888TIP3    H224224   2.763   0.834   0.886  0.0485  1.1326  0.9944
  889TIP3   OH224225   3.039   0.071   7.376 -0.1202 -0.0755 -0.7098
  889TIP3    H124226   3.076   0.152   7.340 -0.2567 -0.8370 -2.6983
  889TIP3    H224227   3.114   0.021   7.406  0.2567 -0.3833 -2.0868
  890TIP3   OH224228   0.678   4.174   2.019  0.3832  0.6701  0.6011
  890TIP3    H124229   0.772   4.162   2.012  0.2102  0.0232 -1.2248
  890TIP3    H224230   0.649   4.106   2.081  0.8710 -0.6674 -0.5801
  891TIP3   OH224231   5.246   1.587   1.510  0.1681  0.0699  0.2617
  891TIP3    H124232   5.167   1.542   1.481  0.1170  0.3298 -0.0173
  891TIP3    H224233   5.318   1.540   1.468  0.2265 -0.6428  1.1236
  892TIP3   OH224234   6.859   1.016   7.269 -0.5716  0.8028 -0.5849
  892TIP3    H124235   6.787   0.996   7.329 -2.4338  0.7710 -2.7014
  892TIP3    H224236   6.935   1.026   7.326 -2.0253 -0.1238  1.6781
  893TIP3   OH224237   1.350   0.450   7.698  0.2691  0.2824 -0.3389
  893TIP3    H124238   1.389   0.363   7.696  1.3078  0.6540 -3.7385
  893TIP3    H224239   1.258   0.435   7.717  0.3193 -1.6720 -1.3239
  894TIP3   OH224240   2.351   4.877   1.963  0.4750  0.3336 -0.1103
  894TIP3    H124241   2.375   4.892   2.055  1.5271 -0.3228 -0.2566
  894TIP3    H224242   2.344   4.781   1.956 -0.8248  0.4360 -0.4340
  895TIP3   OH224243   5.752   0.532   0.052 -0.5531 -0.5510  0.5532
  895TIP3    H124244   5.689   0.461   0.044 -1.6415  0.4335  0.0127
  895TIP3    H224245   5.750   0.575  -0.034 -0.7778  0.8050  1.2039
  896TIP3   OH224246   5.066   6.423   0.080 -0.2880 -0.4705 -0.5185
  896TIP3    H124247   5.114   6.390   0.156 -0.2000 -1.2156 -0.8865
  896TIP3    H224248   4.979   6.384   0.088 -0.6799  0.4475 -0.1414
  897TIP3   OH224249   3.183   1.193   1.272  0.7245  0.4042 -0.3400
  897TIP3    H124250   3.270   1.170   1.307  0.7119 -0.7756 -1.0406
  897TIP3    H224251   3.143   1.245   1.341  0.8832 -1.4519  1.2324
  898TIP3   OH224252   4.822   4.891   0.340 -0.4913 -0.1358 -0.1629
  898TIP3    H124253   4.859   4.808   0.368  0.7253 -0.0544 -1.4523
  898TIP3    H224254   4.887   4.928   0.280 -2.0528  0.6390 -1.4646
  899TIP3   OH224255   0.166   1.700   2.030 -0.2721  0.7500  0.2199
  899TIP3    H124256   0.172   1.646   1.951 -2.5349 -1.6879  1.5471
  899TIP3    H224257   0.257   1.722   2.051  0.8627 -2.6936 -0.4103
  900TIP3   OH224258   7.120   3.307   7.221 -0.1486  0.0358  0.4176
  900TIP3    H124259   7.049   3.260   7.176 -0.5504  0.5897  0.4664
  900TIP3    H224260   7.199   3.282   7.173 -0.0793 -2.1588  1.5783
  901TIP3   OH224261   2.929   4.299   7.370 -0.2492 -0.5595  0.0042
  901TIP3    H124262   2.852   4.257   7.408 -0.3086 -0.6114 -0.1720
  901TIP3    H224263   2.937   4.259   7.283 -0.4338 -0.0454 -0.2498
  902TIP3   OH224264   1.514   3.817   8.004 -0.1092 -0.2300  0.8950
  902TIP3    H124265   1.455   3.822   7.929 -1.2082  0.5270  1.7564
  902TIP3    H224266   1.516   3.906   8.038  1.9498 -0.1371  0.6203
  903TIP3   OH224267   4.543   1.047   7.326  0.0795  0.1884 -0.3635
  903TIP3    H124268   4.581   1.072   7.410 -0.8521  0.8513 -0.1250
  903TIP3    H224269   4.618   1.025   7.271  0.6554 -1.4862  1.0028
  904TIP3   OH224270   6.826   0.512   6.781  0.0767 -0.2850 -0.1448
  904TIP3    H124271   6.811   0.589   6.726  0.5202  0.3520  0.6157
  904TIP3    H224272   6.740   0.494   6.820 -0.0099 -0.1188 -0.2554
  905TIP3   OH224273   1.615   5.779   7.607  0.4073  0.2462 -0.2870
  905TIP3    H124274   1.562   5.755   7.683 -1.1124  2.9984 -0.3575
  905TIP3    H224275   1.626   5.874   7.614  1.0797  0.4478 -2.9706
  906TIP3   OH224276   2.350   6.423   1.853 -0.3739 -0.3791 -0.0976
  906TIP3    H124277   2.290   6.482   1.899 -0.1535 -1.6215  1.8958
  906TIP3    H224278   2.435   6.440   1.892  0.2017 -0.1599 -1.3968
  907TIP3   OH224279   1.103   3.873   7.537  0.1297  0.4433  0.3234
  907TIP3    H124280   1.118   3.788   7.496 -0.7972  0.6497 -0.4908
  907TIP3    H224281   1.083   3.932   7.464 -0.0546  1.1750  0.9444
  908TIP3   OH224282   6.073   4.819   0.522  0.0562  0.6540 -0.3707
  908TIP3    H124283   5.988   4.862   0.531 -0.5692 -0.3643 -1.2169
  908TIP3    H224284   6.135   4.880   0.561 -1.2480  0.7347  1.7007
  909TIP3   OH224285   2.568   1.995   2.251 -0.0649  0.3359 -0.2313
  909TIP3    H124286   2.524   2.004   2.335 -0.5390  0.6923 -0.5135
  909TIP3    H224287   2.512   1.937   2.200  0.9595 -1.0844  0.1878
  910TIP3   OH224288   6.393   3.939   7.497 -0.6787  0.2365  0.1159
  910TIP3    H124289   6.485   3.912   7.508 -0.1924 -0.1756 -3.5933
  910TIP3    H224290   6.388   4.025   7.538  1.1673 -0.0490  1.0602
  911TIP3   OH224291   4.342   5.986   0.739  0.5334  0.1727 -0.2555
  911TIP3    H124292   4.286   5.934   0.796 -0.4997 -0.2663 -1.6232
  911TIP3    H224293   4.317   5.960   0.650  0.1127  2.8257 -1.0107
  912TIP3   OH224294   4.418   2.421   1.718  0.4291  0.2544 -1.3047
  912TIP3    H124295   4.414   2.495   1.778 -0.0755 -2.2620  2.0598
  912TIP3    H224296   4.511   2.411   1.699  1.0719 -0.6793  1.7474
  913TIP3   OH224297   6.278   1.920   0.991  0.0732 -0.2715  0.3519
  913TIP3    H124298   6.323   1.850   1.038 -1.5844 -1.0522  0.8726
  913TIP3    H224299   6.218   1.957   1.056  0.4188  1.1690 -0.1237
  914TIP3   OH224300   5.601   5.326   2.477  0.1559 -0.2851 -0.3172
  914TIP3    H124301   5.666   5.332   2.547 -0.2089 -0.4523  0.0381
  914TIP3    H224302   5.553   5.245   2.495  1.8100 -1.8105 -2.2857
  915TIP3   OH224303   5.450   3.116   2.514  0.2855  0.0653  0.0196
  915TIP3    H124304   5.479   3.198   2.472 -0.9159  0.3820 -0.2132
  915TIP3    H224305   5.444   3.053   2.442 -0.1468  0.1577 -0.0289
  916TIP3   OH224306   2.769   0.104   1.550 -0.1145  0.2815 -0.0202
  916TIP3    H124307   2.752   0.011   1.540  0.5934  0.1851 -0.4558
  916TIP3    H224308   2.848   0.119   1.498 -0.4912  1.2143 -0.3390
  917TIP3   OH224309   6.067   1.276   7.813 -0.3105 -0.5095  0.1990
  917TIP3    H124310   6.051   1.337   7.740 -0.7008  0.5092  1.1042
  917TIP3    H224311   6.068   1.190   7.772  1.6291  0.1691 -1.3439
  918TIP3   OH224312   6.021   1.049   7.627 -0.2221 -0.8068  0.6690
  918TIP3    H124313   5.966   1.042   7.549  0.2577 -1.6788  0.3920
  918TIP3    H224314   5.987   0.983   7.687  0.5879 -1.4636  0.4344
  919TIP3   OH224315   2.351   2.800   1.326 -0.6960 -0.1557 -0.0712
  919TIP3    H124316   2.326   2.709   1.308 -1.5303 -0.0333  0.3935
  919TIP3    H224317   2.402   2.826   1.249 -1.8114 -0.5150 -0.9785
  920TIP3   OH224318   2.824   6.793   1.473  0.2954 -0.1092 -0.1936
  920TIP3    H124319   2.805   6.702   1.494 -1.6080  0.4475  0.7148
  920TIP3    H224320   2.754   6.820   1.413 -0.4738  1.3143  1.2438
  921TIP3   OH224321   3.562   1.031   1.136  0.6387  0.5216  0.1871
  921TIP3    H124322   3.544   1.085   1.059 -0.6762 -1.1905 -0.7777
  921TIP3    H224323   3.506   1.067   1.204 -3.1373 -1.6876 -1.4372
  922TIP3   OH224324   0.002   0.727   7.633 -0.2431 -0.6140  0.2471
  922TIP3    H124325   0.061   0.796   7.663 -2.8041  1.1968  1.4816
  922TIP3    H224326  -0.003   0.739   7.538 -2.9902  3.1595  0.6326
  923TIP3   OH224327   4.110   2.927   6.527 -0.1790  0.3021  0.5152
  923TIP3    H124328   4.079   2.916   6.617  0.0268  1.0395  0.6781
  923TIP3    H224329   4.037   2.970   6.482 -0.7068 -1.0090  0.0479
  924TIP3   OH224330   6.072   3.303   1.691  0.1346 -0.6827 -0.0940
  924TIP3    H124331   6.129   3.368   1.732 -1.0551 -0.0379  0.5799
  924TIP3    H224332   6.074   3.325   1.598 -0.5599  0.5734  0.1750
  925TIP3   OH224333   6.894   2.355   6.470  0.0217 -0.1206  0.2547
  925TIP3    H124334   6.818   2.358   6.411  0.1835  1.5648  0.0864
  925TIP3    H224335   6.963   2.314   6.417  0.8651  3.4035 -1.6934
  926TIP3   OH224336   4.812   1.022   1.187 -0.1802 -0.3531  0.0890
  926TIP3    H124337   4.893   1.062   1.219  0.5736 -0.1832 -1.8719
  926TIP3    H224338   4.833   0.929   1.178 -0.3392 -0.3771 -0.0435
  927TIP3   OH224339   3.291   3.726   7.297 -0.2040 -1.4757 -0.3287
  927TIP3    H124340   3.295   3.772   7.381  0.0590 -0.7158 -0.7508
  927TIP3    H224341   3.372   3.750   7.252 -0.6154 -1.3956 -1.0447
  928TIP3   OH224342   6.560   0.586   2.732  0.1754  0.2152 -0.0708
  928TIP3    H124343   6.571   0.528   2.807 -0.9260 -1.8585 -1.4367
  928TIP3    H224344   6.531   0.669   2.771 -0.3423 -0.7696  1.7961
  929TIP3   OH224345   5.918   6.261   1.360  0.1097  0.3530  0.0638
  929TIP3    H124346   5.955   6.232   1.443  0.7693 -1.9069 -0.9453
  929TIP3    H224347   5.987   6.313   1.319  1.1777 -1.4438 -0.5437
  930TIP3   OH224348   0.558   3.559   7.230 -0.1026 -0.2744 -0.5125
  930TIP3    H124349   0.539   3.649   7.257 -0.3330  1.1059 -4.6236
  930TIP3    H224350   0.565   3.511   7.313 -1.6722  3.1060  1.8541
  931TIP3   OH224351   5.877   6.560   0.828  0.1755  0.6660  0.0258
  931TIP3    H124352   5.858   6.471   0.856 -0.0297  0.0345 -1.9983
  931TIP3    H224353   5.967   6.576   0.855 -0.1395  0.2767  1.3787
  932TIP3   OH224354   3.316   5.786   7.010 -0.6393 -0.4024 -0.0688
  932TIP3    H124355   3.363   5.839   6.946  0.4537 -1.0088  0.2014
  932TIP3    H224356   3.255   5.734   6.958 -0.3630 -0.2766 -0.5254
  933TIP3   OH224357   5.864   5.070   2.703 -0.2743 -0.2238  0.4145
  933TIP3    H124358   5.959   5.063   2.700 -0.3310 -0.8170 -0.5080
  933TIP3    H224359   5.847   5.164   2.710  0.3750  0.0494 -1.1658
  934TIP3   OH224360   0.358   5.185   7.844 -0.2622 -0.2376 -0.1310
  934TIP3    H124361   0.307   5.226   7.915  2.9960  2.1408  1.0887
  934TIP3    H224362   0.383   5.258   7.788  2.3545 -1.1276 -0.2277
  935TIP3   OH224363   6.839   2.318   0.457 -0.2204 -0.1591 -0.3732
  935TIP3    H124364   6.915   2.274   0.420 -0.2074 -0.3694 -0.1015
  935TIP3    H224365   6.764   2.263   0.432 -0.3659  0.4311 -1.2546
  936TIP3   OH224366   5.009   1.888   2.143 -0.0502  0.0902 -0.4924
  936TIP3    H124367   5.077   1.822   2.143 -0.8885 -0.9057  2.2824
  936TIP3    H224368   5.040   1.955   2.204 -0.9454  0.2872 -0.2358
  937TIP3   OH224369   5.905   5.744   0.593  0.6652 -0.0234  0.9008
  937TIP3    H124370   5.883   5.761   0.685 -1.0532  1.1104  0.3235
  937TIP3    H224371   5.833   5.690   0.561  1.9692 -1.6205  0.5428
  938TIP3   OH224372   2.603   1.320   7.584  0.1140  0.6527 -0.0627
  938TIP3    H124373   2.567   1.253   7.642 -0.1946  1.3101  0.5249
  938TIP3    H224374   2.693   1.292   7.569 -0.2645 -0.3596 -0.5570
  939TIP3   OH224375   0.762   1.319   1.280 -0.1432  0.8736 -0.2035
  939TIP3    H124376   0.680   1.287   1.241 -0.0152 -0.1155  0.3072
  939TIP3    H224377   0.822   1.326   1.207  0.7930 -3.1154 -0.0479
  940TIP3   OH224378   6.755   3.549   0.581  1.1121 -0.2069  0.1572
  940TIP3    H124379   6.832   3.497   0.557  1.1274 -0.5160  0.8683
  940TIP3    H224380   6.780   3.639   0.560  0.5164 -0.5984 -2.5674
  941TIP3   OH224381   6.933   1.720   7.974  0.5704  0.2683 -0.6644
  941TIP3    H124382   6.961   1.724   8.066 -1.8816 -0.8598  0.2293
  941TIP3    H224383   6.980   1.645   7.938  2.5708  1.5127 -0.7713
  942TIP3   OH224384   1.050   1.693   0.055 -0.3049  0.5460  0.0824
  942TIP3    H124385   0.976   1.636   0.032  0.8445 -0.6901 -0.6781
  942TIP3    H224386   1.069   1.741  -0.025 -0.3088  0.9095  0.2969
  943TIP3   OH224387   1.986   0.275   7.055 -0.2655  0.2360 -0.1288
  943TIP3    H124388   1.968   0.369   7.054 -0.7282  0.2124  2.0497
  943TIP3    H224389   2.053   0.263   6.987  0.1727  2.2129 -0.1119
  944TIP3   OH224390   0.433   7.117   7.918  0.2308 -0.0151  0.0459
  944TIP3    H124391   0.444   7.076   8.003  1.0011 -0.9227 -0.4749
  944TIP3    H224392   0.470   7.055   7.856  1.3243  1.4030 -0.7872
  945TIP3   OH224393   3.423   5.120   1.646  0.2072  0.5250  1.0963
  945TIP3    H124394   3.488   5.124   1.576  2.6717 -2.0678  2.9636
  945TIP3    H224395   3.474   5.133   1.727 -1.8117 -0.2578  2.5934
  946TIP3   OH224396   2.937   3.777   2.293  0.3177 -0.2386  0.5713
  946TIP3    H124397   2.929   3.750   2.202  1.1995  0.0329  0.4035
  946TIP3    H224398   3.010   3.839   2.294 -0.4833  0.7328  1.2541
  947TIP3   OH224399   1.705   2.528   2.274  0.5729  0.7579 -0.2055
  947TIP3    H124400   1.631   2.478   2.310  0.8669 -0.2280 -0.9339
  947TIP3    H224401   1.710   2.501   2.183  3.3744 -1.1481  0.3901
  948TIP3   OH224402   4.418   1.307   7.338  0.6390  0.2100 -0.6003
  948TIP3    H124403   4.453   1.268   7.419  2.7287  2.7703 -0.1459
  948TIP3    H224404   4.460   1.257   7.268  0.7750 -0.4216 -0.0864
  949TIP3   OH224405   2.241   1.181   0.308  0.3667 -0.1727 -0.6385
  949TIP3    H124406   2.212   1.156   0.396  2.0263 -1.2062 -0.3494
  949TIP3    H224407   2.236   1.277   0.308 -0.0503 -0.1835  0.4396
  950TIP3   OH224408   4.970   3.237   1.997 -0.1792  0.6229 -0.3149
  950TIP3    H124409   5.017   3.177   1.940  0.4732 -0.4747  1.3000
  950TIP3    H224410   4.991   3.208   2.086  0.6645  3.5804  0.5995
  951TIP3   OH224411   6.844   4.769   7.170 -0.0542 -0.1566 -0.3921
  951TIP3    H124412   6.792   4.689   7.177  0.1711 -0.1435  2.6547
  951TIP3    H224413   6.887   4.762   7.085 -2.4728 -1.7111 -1.6039
  952TIP3   OH224414   5.496   7.121   6.720  0.0816  0.8346 -0.1610
  952TIP3    H124415   5.410   7.147   6.752  0.9342  1.3995  1.7753
  952TIP3    H224416   5.483   7.032   6.687 -0.9224  0.2494  1.6655
  953TIP3   OH224417   2.313   3.166   0.670  0.1037  0.0944  0.4252
  953TIP3    H124418   2.325   3.216   0.751  0.3151 -1.2224  1.2492
  953TIP3    H224419   2.343   3.224   0.600 -0.0955  1.2633  1.2904
  954TIP3   OH224420   6.203   6.672   7.129 -0.1952  0.7790  0.3406
  954TIP3    H124421   6.184   6.584   7.161 -0.2944  0.5996 -0.2018
  954TIP3    H224422   6.216   6.661   7.035 -0.7937  1.4333  0.1716
  955TIP3   OH224423   1.091   5.625   7.094 -0.0430  0.6211 -0.0459
  955TIP3    H124424   1.145   5.701   7.115 -1.4729  1.2471  1.5348
  955TIP3    H224425   1.101   5.566   7.169  0.1367 -0.2606 -0.7369
  956TIP3   OH224426   4.690   3.116   6.552 -0.5469  0.7754  0.3996
  956TIP3    H124427   4.694   3.106   6.457 -1.2588  0.4833  0.3939
  956TIP3    H224428   4.730   3.037   6.587 -1.4016  0.3011  0.3378
  957TIP3   OH224429   5.407   2.756   7.344 -0.7349 -0.0179  0.3852
  957TIP3    H124430   5.335   2.706   7.383 -0.6687 -2.3801 -2.2348
  957TIP3    H224431   5.466   2.689   7.309  1.4875  1.9048  0.2125
  958TIP3   OH224432   4.987   4.718   2.783  0.3545 -0.3465  0.4955
  958TIP3    H124433   4.938   4.651   2.831  0.9175  0.1407  1.7785
  958TIP3    H224434   5.060   4.670   2.743 -1.1163 -1.0881 -1.4773
  959TIP3   OH224435   4.934   6.078   1.650 -0.0189  0.6459  0.4173
  959TIP3    H124436   4.926   6.078   1.746 -1.4876 -0.6775  0.3351
  959TIP3    H224437   4.947   5.986   1.627 -0.1153  0.8972 -0.6845
  960TIP3   OH224438   3.037   6.006   6.662 -0.0248 -0.4949  0.1642
  960TIP3    H124439   2.952   5.970   6.638 -1.2724  2.0775  0.3639
  960TIP3    H224440   3.020   6.099   6.680  3.0275  0.4219 -0.9688
  961TIP3   OH224441   5.317   0.875   1.265  0.1672  0.1723  0.4272
  961TIP3    H124442   5.276   0.863   1.179  2.7988 -2.1245 -0.6687
  961TIP3    H224443   5.244   0.899   1.323 -2.0169  0.0083 -2.0474
  962TIP3   OH224444   1.376   1.916   1.268 -0.7661 -0.2286 -0.5303
  962TIP3    H124445   1.374   1.933   1.174 -1.3710  1.2539 -0.2737
  962TIP3    H224446   1.289   1.941   1.299 -0.4690 -0.4001  0.4774
  963TIP3   OH224447   4.723   1.552   7.092 -0.3049  0.1265 -0.0853
  963TIP3    H124448   4.771   1.587   7.017  1.4919 -1.3262  0.3194
  963TIP3    H224449   4.679   1.474   7.059 -0.0159 -0.1617  0.1924
  964TIP3   OH224450   0.596   6.975   6.306 -0.1720 -0.2004 -0.0483
  964TIP3    H124451   0.659   6.969   6.377  0.3027 -0.5198 -0.4956
  964TIP3    H224452   0.631   7.042   6.248  0.0661 -0.7905 -0.5985
  965TIP3   OH224453   5.146   6.075   7.470  0.1023  0.0066 -0.2551
  965TIP3    H124454   5.153   6.018   7.546 -1.3379 -0.7118 -0.6182
  965TIP3    H224455   5.202   6.034   7.404 -0.3152 -0.5676 -0.2599
  966TIP3   OH224456   5.384   4.142   1.285  0.4356 -0.2782 -0.1613
  966TIP3    H124457   5.460   4.182   1.327  1.3414 -0.7561 -1.2851
  966TIP3    H224458   5.412   4.053   1.263 -1.2130 -1.2636  1.4022
  967TIP3   OH224459   1.537   2.992   6.727 -0.2938 -0.5038 -0.2444
  967TIP3    H124460   1.614   2.983   6.670 -0.5157  0.9495 -0.8331
  967TIP3    H224461   1.519   3.086   6.728 -1.3309 -0.6843  0.8837
  968TIP3   OH224462   2.474   1.099   0.451 -0.3208  0.1622  0.3632
  968TIP3    H124463   2.494   1.153   0.527 -0.3232  0.3743  0.2154
  968TIP3    H224464   2.404   1.146   0.406  0.7000  0.8330 -0.5917
  969TIP3   OH224465   5.938   5.768   0.282 -0.4683 -0.3795  0.1298
  969TIP3    H124466   5.921   5.835   0.348 -2.2082  0.0762 -0.7294
  969TIP3    H224467   5.985   5.813   0.212 -1.0049 -0.2190 -0.1298
  970TIP3   OH224468   3.921   5.143   2.607  0.5925 -0.4137  0.2487
  970TIP3    H124469   3.937   5.197   2.685  0.4208  0.5452 -0.3626
  970TIP3    H224470   3.954   5.057   2.630  0.2398 -0.2305  1.5140
  971TIP3   OH224471   5.934   4.563   7.961 -0.3075 -0.5118  0.2034
  971TIP3    H124472   6.028   4.547   7.967 -0.3302 -0.5096  0.5803
  971TIP3    H224473   5.913   4.548   7.869  0.2455  0.4539 -0.0977
  972TIP3   OH224474   4.862   3.409   6.527  0.2437 -0.4236  0.1664
  972TIP3    H124475   4.923   3.455   6.585  1.3300 -0.3652 -0.9790
  972TIP3    H224476   4.908   3.331   6.499 -0.6872 -1.0126  0.2264
  973TIP3   OH224477   6.833   0.846   0.594 -0.0542 -0.2942 -0.1834
  973TIP3    H124478   6.758   0.790   0.574  0.8599 -1.2968 -0.9150
  973TIP3    H224479   6.815   0.928   0.547 -0.5439 -0.6378 -0.6047
  974TIP3   OH224480   4.793   0.485   6.649  0.3176  0.0643  0.0677
  974TIP3    H124481   4.855   0.538   6.698  1.1082 -0.5651 -0.2192
  974TIP3    H224482   4.823   0.490   6.558  0.3259 -0.7382  0.0130
  975TIP3   OH224483   6.742   2.545   0.307 -0.8641  0.0793  0.9300
  975TIP3    H124484   6.774   2.465   0.348 -2.1957 -0.5515  0.7896
  975TIP3    H224485   6.739   2.609   0.377  0.0660 -0.0131  1.0754
  976TIP3   OH224486   1.174   3.602   7.049 -0.1887  0.1548  0.3750
  976TIP3    H124487   1.225   3.535   7.094  0.1026  1.1349  1.5678
  976TIP3    H224488   1.102   3.622   7.109 -1.9583 -1.1261 -1.2319
  977TIP3   OH224489   1.065   3.589   0.150  0.3844  0.0949  0.2997
  977TIP3    H124490   1.160   3.576   0.160  0.5334  0.0491 -1.0341
  977TIP3    H224491   1.050   3.678   0.182  1.1128  0.6334 -0.8149
  978TIP3   OH224492   2.901   5.895   0.626  0.4177  0.3831 -0.0076
  978TIP3    H124493   2.837   5.852   0.683  1.2019  0.1921  0.7382
  978TIP3    H224494   2.898   5.987   0.651  1.3818  0.1697  0.9778
  979TIP3   OH224495   5.852   2.761   0.708 -0.1014 -0.3301  0.3010
  979TIP3    H124496   5.765   2.722   0.703 -0.0441 -0.2624 -2.3807
  979TIP3    H224497   5.837   2.854   0.688  0.5749 -0.3054 -0.0937
  980TIP3   OH224498   0.440   3.162   0.336 -0.5330 -0.5050 -0.1690
  980TIP3    H124499   0.491   3.201   0.265 -0.1294 -0.4204  0.1638
  980TIP3    H224500   0.400   3.237   0.381  1.8322 -0.2291  1.7070
  981TIP3   OH224501   2.903   1.647   7.256 -0.0347 -0.1260 -0.3112
  981TIP3    H124502   2.937   1.575   7.204  0.2360 -0.5540  0.4378
  981TIP3    H224503   2.931   1.726   7.210  2.6465 -0.4200  0.6343
  982TIP3   OH224504   5.263   1.440   7.973  0.2902  0.3662 -0.6204
  982TIP3    H124505   5.285   1.347   7.972  0.4927  0.4040 -0.0975
  982TIP3    H224506   5.342   1.484   7.944  0.1038  0.3582 -1.1368
  983TIP3   OH224507   4.501   0.540   7.993  0.0289 -0.2836 -0.3168
  983TIP3    H124508   4.425   0.557   8.048  0.8323 -2.4943  1.6315
  983TIP3    H224509   4.560   0.488   8.048  1.5959 -1.2772 -2.7556
  984TIP3   OH224510   6.966   2.687   6.800  0.0925 -0.5978  0.9102
  984TIP3    H124511   7.007   2.669   6.715  0.4313 -2.0966  1.3649
  984TIP3    H224512   6.874   2.663   6.787 -0.2661  0.9243  0.4556
  985TIP3   OH224513   6.980   6.250   1.058  0.0702  0.7061 -0.0354
  985TIP3    H124514   6.918   6.222   1.125  0.8831  0.6581  0.7139
  985TIP3    H224515   7.062   6.208   1.083  0.3869  0.7040 -1.0613
  986TIP3   OH224516   1.638   2.348   1.692  0.1934 -0.1443  0.5726
  986TIP3    H124517   1.559   2.319   1.738 -0.1405 -0.7957 -0.3959
  986TIP3    H224518   1.682   2.268   1.665  1.4261  0.1965  1.4467
  987TIP3   OH224519   3.948   5.524   2.728 -0.4355  0.1848  0.5902
  987TIP3    H124520   3.884   5.595   2.729 -0.4319  0.2125 -0.1458
  987TIP3    H224521   3.948   5.494   2.637  2.0151  1.4713  0.0947
  988TIP3   OH224522   5.757   3.855   2.162  0.3765 -0.1329  0.0803
  988TIP3    H124523   5.804   3.804   2.228 -0.4275  0.4179  1.0998
  988TIP3    H224524   5.671   3.871   2.201 -0.8893 -1.5326 -1.9237
  989TIP3   OH224525   7.058   4.743   1.619  0.4822  0.2786 -0.5632
  989TIP3    H124526   7.067   4.787   1.534 -0.5842 -0.7982 -1.2623
  989TIP3    H224527   6.969   4.710   1.620 -0.5764  2.7849  2.2375
  990TIP3   OH224528   3.132   2.409   6.802 -0.1375  0.1327 -0.3945
  990TIP3    H124529   3.225   2.396   6.782  0.0408 -0.8351  0.8759
  990TIP3    H224530   3.087   2.391   6.720  0.6770 -1.4479 -0.5326
  991TIP3   OH224531   0.945   5.502   6.314 -0.4587 -0.1376 -0.1124
  991TIP3    H124532   0.968   5.588   6.351 -2.8460  0.9094 -0.8462
  991TIP3    H224533   1.021   5.478   6.261  0.0853  1.7675 -0.2898
  992TIP3   OH224534   0.041   1.807   0.792 -0.5073  0.3452  0.3033
  992TIP3    H124535   0.135   1.794   0.809 -0.0750 -1.6056 -2.7311
  992TIP3    H224536   0.001   1.805   0.879  2.0664 -0.7849  1.5891
  993TIP3   OH224537   5.975   1.773   1.768  0.2374  0.4654 -0.5681
  993TIP3    H124538   5.913   1.818   1.825  1.1313  1.1255 -0.0775
  993TIP3    H224539   5.921   1.715   1.714 -0.5656 -0.8934  1.5603
  994TIP3   OH224540   2.613   2.841   7.843  0.0138  0.0795 -0.3291
  994TIP3    H124541   2.537   2.866   7.790  0.1922 -1.9898 -1.6558
  994TIP3    H224542   2.581   2.843   7.933 -0.3532  3.4852 -0.3864
  995TIP3   OH224543   6.058   1.819   0.336 -0.4941 -0.4259  0.6006
  995TIP3    H124544   6.066   1.730   0.371 -0.6408 -0.7495 -0.1692
  995TIP3    H224545   6.022   1.807   0.248 -0.8118  0.4161  0.6063
  996TIP3   OH224546   1.627   3.270   1.988  0.2083  0.0593 -0.6213
  996TIP3    H124547   1.648   3.177   1.995 -2.7918 -0.7514 -0.6979
  996TIP3    H224548   1.631   3.302   2.078  1.4923 -0.0622 -0.6229
  997TIP3   OH224549   5.830   1.971   7.082  1.0244  0.0637  0.4420
  997TIP3    H124550   5.898   1.953   7.017 -0.1546  0.2968 -0.8950
  997TIP3    H224551   5.864   2.045   7.132  1.9531 -0.1213  0.1081
  998TIP3   OH224552   2.073   2.065   7.664 -0.2529 -0.0989  0.2611
  998TIP3    H124553   2.113   1.989   7.622  1.4229  0.8268  0.1011
  998TIP3    H224554   2.133   2.087   7.736 -0.3733  1.4437 -0.0910
  999TIP3   OH224555   2.086   1.138   7.114  0.0999 -0.0433  0.0898
  999TIP3    H124556   2.113   1.229   7.129  1.4539 -0.3624 -0.2682
  999TIP3    H224557   2.096   1.096   7.200  0.5523 -0.1143  0.0019
 1000TIP3   OH224558   6.356   3.438   0.968  0.6266 -0.1508 -0.0366
 1000TIP3    H124559   6.278   3.435   0.914  0.2338  2.8238  0.1999
 1000TIP3    H224560   6.338   3.506   1.033  3.0781  0.0155  0.5793
 1001TIP3   OH224561   1.287   5.824   7.079 -0.1134 -0.4894 -0.3657
 1001TIP3    H124562   1.298   5.864   6.993 -1.8441  0.4491 -0.1957
 1001TIP3    H224563   1.366   5.771   7.091 -0.0649 -1.0540 -2.7342
 1002TIP3   OH224564   4.705   5.636   0.500 -0.3771 -0.1366 -0.4197
 1002TIP3    H124565   4.772   5.584   0.545 -0.4157  0.7512  0.7122
 1002TIP3    H224566   4.644   5.662   0.570 -0.3653  1.4049 -0.9537
 1003TIP3   OH224567   1.412   5.756   7.942 -0.0555  0.3766 -0.4780
 1003TIP3    H124568   1.472   5.699   7.990 -2.0999 -0.2538  1.5115
 1003TIP3    H224569   1.398   5.831   8.001 -0.3935  1.0421 -1.3796
 1004TIP3   OH224570   5.062   5.639   0.851  0.1925 -0.2555  0.5626
 1004TIP3    H124571   5.063   5.543   0.845 -0.1483 -0.2540  0.4708
 1004TIP3    H224572   5.150   5.665   0.821  0.7002 -0.5930  1.7209
 1005TIP3   OH224573   1.521   3.111   7.116 -0.6618 -0.8437 -0.1723
 1005TIP3    H124574   1.568   3.033   7.145 -0.7081 -0.9634 -0.4180
 1005TIP3    H224575   1.466   3.135   7.191 -0.6220 -1.0275 -0.0833
 1006TIP3   OH224576   5.545   6.634   6.612 -0.7050  0.1855  0.1002
 1006TIP3    H124577   5.637   6.647   6.634 -0.7916  0.9365  0.0580
 1006TIP3    H224578   5.543   6.552   6.563 -0.2470 -0.5056  1.2134
 1007TIP3   OH224579   5.237   3.538   2.244 -0.3832  0.1017  0.1098
 1007TIP3    H124580   5.183   3.609   2.210  0.9195  1.1812  0.2037
 1007TIP3    H224581   5.176   3.481   2.290 -1.7898  0.0014 -1.7855
 1008TIP3   OH224582   7.050   0.162   6.953 -0.2345  0.4899 -0.7334
 1008TIP3    H124583   6.979   0.099   6.969  1.1502 -0.3356  3.3089
 1008TIP3    H224584   7.012   0.247   6.974 -0.4103  0.1857  0.2527
 1009TIP3   OH224585   2.501   6.606   0.064  0.1417  0.2012 -0.3712
 1009TIP3    H124586   2.477   6.697   0.049  0.4488  0.0805 -1.7691
 1009TIP3    H224587   2.595   6.603   0.048 -0.0396 -0.5476 -1.4290
 1010TIP3   OH224588   3.920   1.165   7.372 -0.6657  0.3726 -0.6234
 1010TIP3    H124589   3.907   1.160   7.466 -0.2290 -2.1744 -0.6361
 1010TIP3    H224590   4.015   1.157   7.360 -0.8211 -0.5825 -1.3089
 1011TIP3   OH224591   5.593   1.324   0.345  0.2966  0.1035 -0.2829
 1011TIP3    H124592   5.567   1.311   0.254 -0.4578 -1.0727  0.0823
 1011TIP3    H224593   5.683   1.356   0.340 -0.7511  3.1710 -1.5265
 1012TIP3   OH224594   0.390   2.058   1.754 -0.4191  0.0770 -0.3228
 1012TIP3    H124595   0.351   2.144   1.738  2.1696  1.0260 -2.0951
 1012TIP3    H224596   0.380   2.045   1.848 -0.9707  2.2689 -0.0172
 1013TIP3   OH224597   2.314   2.092   6.892  0.0918  0.0855 -0.5775
 1013TIP3    H124598   2.383   2.042   6.848  0.5292 -0.4914  0.7021
 1013TIP3    H224599   2.234   2.041   6.877 -0.1326  0.8810 -2.2696
 1014TIP3   OH224600   2.671   4.735   6.618  0.0251  0.3122 -0.0953
 1014TIP3    H124601   2.759   4.739   6.580 -0.5323 -0.1641 -1.4837
 1014TIP3    H224602   2.684   4.691   6.702  1.2007  0.8579  0.0418
 1015TIP3   OH224603   5.119   7.135   6.742 -0.0360  0.4349 -0.4797
 1015TIP3    H124604   5.122   7.045   6.774 -1.8633  1.2303  2.3437
 1015TIP3    H224605   5.071   7.131   6.660 -1.1999 -1.0614  0.2322
 1016TIP3   OH224606   3.458   0.454   1.150  0.3183 -0.3744 -0.3018
 1016TIP3    H124607   3.485   0.544   1.167 -2.7429  0.5511  0.2561
 1016TIP3    H224608   3.460   0.446   1.054 -1.7450  1.1765 -0.5302
 1017TIP3   OH224609   6.971   6.939   1.971  0.1223 -0.3273 -0.2856
 1017TIP3    H124610   6.977   6.854   2.014 -0.5991 -0.4466 -0.4151
 1017TIP3    H224611   7.034   6.994   2.018  1.2686 -1.1681 -0.7887
 1018TIP3   OH224612   5.251   4.662   2.087 -0.3489  0.3495 -0.0029
 1018TIP3    H124613   5.262   4.568   2.069  0.2124  0.5351 -0.6633
 1018TIP3    H224614   5.189   4.692   2.021 -1.4961  0.2075  0.9750
 1019TIP3   OH224615   5.452   5.785   0.324 -0.1049 -0.3334  0.1998
 1019TIP3    H124616   5.498   5.716   0.371 -2.3031 -0.3879  2.4853
 1019TIP3    H224617   5.400   5.829   0.391 -1.6438  1.1225 -1.8226
 1020TIP3   OH224618   1.160   4.031   1.314 -0.1815  0.1447  0.4979
 1020TIP3    H124619   1.187   4.123   1.321 -1.0329  0.7760 -2.6399
 1020TIP3    H224620   1.236   3.981   1.341  0.8596  1.8121  0.7831
 1021TIP3   OH224621   4.498   1.472   0.029 -0.4113 -0.0039  0.1419
 1021TIP3    H124622   4.449   1.419  -0.033  0.3168 -1.4264  0.7456
 1021TIP3    H224623   4.496   1.560  -0.009 -0.5063 -0.7024 -1.5918
 1022TIP3   OH224624   5.393   3.744   0.013 -0.4557 -1.4121 -0.0588
 1022TIP3    H124625   5.457   3.722   0.080 -1.2117  0.1095  1.2187
 1022TIP3    H224626   5.441   3.735  -0.070  1.8484  0.9350  0.8880
 1023TIP3   OH224627   5.495   2.632   2.583  0.1438 -0.1500 -0.0830
 1023TIP3    H124628   5.549   2.570   2.631 -1.4125 -1.1773  0.4080
 1023TIP3    H224629   5.442   2.675   2.650  0.4122  0.9285 -0.5374
 1024TIP3   OH224630   5.337   6.095   0.895  0.2550  0.3937  0.3610
 1024TIP3    H124631   5.409   6.036   0.912 -0.1583 -0.5948 -1.1665
 1024TIP3    H224632   5.261   6.054   0.937  0.0501  0.0216 -0.3545
 1025TIP3   OH224633   7.074   6.104   6.550  0.1199 -0.3569 -0.3425
 1025TIP3    H124634   7.160   6.063   6.539  0.1263 -0.4641  0.0806
 1025TIP3    H224635   7.066   6.163   6.475  0.4682 -0.5108 -0.5051
 1026TIP3   OH224636   6.836   4.198   2.197 -0.1987  0.1429 -0.2363
 1026TIP3    H124637   6.908   4.262   2.203  0.3849 -0.3471 -1.5614
 1026TIP3    H224638   6.865   4.125   2.252  1.6425 -1.2018 -2.7894
 1027TIP3   OH224639   2.381   1.064   1.259 -0.5098 -0.8316 -0.3206
 1027TIP3    H124640   2.296   1.033   1.230 -1.0339 -1.6806  1.9599
 1027TIP3    H224641   2.367   1.157   1.278  0.2261  0.1824 -3.9357
 1028TIP3   OH224642   5.937   5.953   2.072  0.0070  0.3482 -0.0909
 1028TIP3    H124643   5.953   5.890   2.143  0.2095 -0.6756 -1.0070
 1028TIP3    H224644   6.024   5.972   2.037 -0.1103  0.6634 -0.2135
 1029TIP3   OH224645   4.470   4.097   6.543  0.1978 -0.1917  0.1904
 1029TIP3    H124646   4.386   4.053   6.557  0.7397 -0.9548  1.1834
 1029TIP3    H224647   4.454   4.155   6.469 -0.1666 -3.1737 -2.2914
 1030TIP3   OH224648   6.905   2.528   2.122  0.4418  0.0987 -0.1442
 1030TIP3    H124649   6.819   2.521   2.162  0.0955  0.3984 -0.8052
 1030TIP3    H224650   6.925   2.440   2.090 -0.7156  0.5130 -2.1381
 1031TIP3   OH224651   4.702   1.341   2.121 -0.7451 -0.0381  0.0576
 1031TIP3    H124652   4.739   1.391   2.049 -3.0485 -0.6986 -1.6998
 1031TIP3    H224653   4.714   1.249   2.096 -0.7873 -0.3063  0.9618
 1032TIP3   OH224654   6.762   6.159   1.210  0.0237  0.1523  0.4581
 1032TIP3    H124655   6.793   6.202   1.290  1.2547  0.2123 -0.0279
 1032TIP3    H224656   6.667   6.155   1.220  0.1956 -0.5374  2.2897
 1033TIP3   OH224657   5.648   1.673   6.675  0.1825  1.0809  0.1600
 1033TIP3    H124658   5.714   1.660   6.607  1.4439  2.9662  0.9239
 1033TIP3    H224659   5.660   1.764   6.702  0.9585 -0.0400  4.1286
 1034TIP3   OH224660   6.071   3.420   7.805  0.1513  0.5224 -0.1907
 1034TIP3    H124661   6.139   3.405   7.870 -0.0620 -1.8790 -0.4360
 1034TIP3    H224662   6.080   3.348   7.743 -3.4035 -0.6727  0.4633
 1035TIP3   OH224663   5.470   2.861   0.177  0.1262 -0.0281 -0.0350
 1035TIP3    H124664   5.515   2.844   0.260 -0.1738  0.4399  0.2206
 1035TIP3    H224665   5.390   2.809   0.182  0.9225 -1.3849 -0.7621
 1036TIP3   OH224666   4.770   0.276   0.715  0.3188 -0.3992 -0.4025
 1036TIP3    H124667   4.750   0.295   0.623 -1.0677 -1.7449 -0.3988
 1036TIP3    H224668   4.862   0.302   0.725  0.4457 -0.0908 -2.1208
 1037TIP3   OH224669   0.205   4.435   1.630 -0.2958  0.7166 -0.1020
 1037TIP3    H124670   0.292   4.435   1.590 -0.0407  0.2896  0.4322
 1037TIP3    H224671   0.174   4.345   1.620 -0.6886  0.8740 -0.3136
 1038TIP3   OH224672   3.171   1.516   6.416  0.5611  0.1153 -0.5389
 1038TIP3    H124673   3.213   1.601   6.405 -0.6950  0.9000  0.4392
 1038TIP3    H224674   3.097   1.518   6.355  0.7902 -0.4530 -0.8354
 1039TIP3   OH224675   1.518   1.867   0.479 -0.2561 -0.1353  0.2339
 1039TIP3    H124676   1.607   1.881   0.511  0.0406  1.9973 -1.3591
 1039TIP3    H224677   1.519   1.897   0.388 -1.9100 -2.7921 -0.7895
 1040TIP3   OH224678   4.453   6.686   2.040 -0.1392 -0.3474 -0.3645
 1040TIP3    H124679   4.433   6.696   1.947 -0.6374 -3.8539 -0.7871
 1040TIP3    H224680   4.371   6.705   2.085  0.3508  2.3505 -0.4389
 1041TIP3   OH224681   6.615   6.855   6.559 -0.0247  0.2728 -0.3974
 1041TIP3    H124682   6.560   6.923   6.520  0.4940 -0.2498 -2.1292
 1041TIP3    H224683   6.552   6.795   6.599 -0.8030 -0.4074 -2.4907
 1042TIP3   OH224684   5.109   5.801   1.705  0.1770 -0.9928  0.7528
 1042TIP3    H124685   5.079   5.808   1.796 -2.2278 -0.1859 -0.0237
 1042TIP3    H224686   5.088   5.711   1.680  1.1530 -1.3194  1.0733
 1043TIP3   OH224687   3.980   5.323   0.657  0.0108  0.2248  0.1060
 1043TIP3    H124688   4.021   5.351   0.575 -2.3173  0.5743 -1.0144
 1043TIP3    H224689   3.923   5.250   0.631 -1.8954  1.2933  1.1075
 1044TIP3   OH224690   2.472   3.840   2.210 -0.7689 -1.0200  0.0313
 1044TIP3    H124691   2.501   3.767   2.266 -0.1476 -2.0083 -1.5148
 1044TIP3    H224692   2.438   3.797   2.131 -2.7352  0.2875  0.0952
 1045TIP3   OH224693   6.086   2.360   6.437 -0.1830 -0.1311  0.0748
 1045TIP3    H124694   6.153   2.300   6.469 -1.3010 -1.1429  0.5743
 1045TIP3    H224695   6.015   2.303   6.408 -1.8879  0.9527  1.9276
 1046TIP3   OH224696   5.710   3.371   0.600 -0.2574  0.7394 -0.3800
 1046TIP3    H124697   5.727   3.281   0.573  1.4927  0.7396  0.5929
 1046TIP3    H224698   5.737   3.424   0.525  2.3743  0.6144  0.3824
 1047TIP3   OH224699   0.996   3.143   6.965  0.0656  0.5124  0.2290
 1047TIP3    H124700   0.901   3.155   6.976  0.1402  0.6351  0.7471
 1047TIP3    H224701   1.014   3.060   7.008 -0.2029 -0.8101 -2.0466
 1048TIP3   OH224702   4.389   2.122   7.432  0.4833 -0.5988  0.0724
 1048TIP3    H124703   4.460   2.183   7.451 -0.1444 -0.3547  1.7468
 1048TIP3    H224704   4.434   2.041   7.406  1.3363 -0.1044 -0.0498
 1049TIP3   OH224705   2.474   6.479   7.803  0.1272 -0.3373 -0.3306
 1049TIP3    H124706   2.567   6.500   7.797  0.0093 -0.0452 -1.2101
 1049TIP3    H224707   2.472   6.396   7.851  0.8494 -0.4157 -0.4150
 1050TIP3   OH224708   3.738   1.579   1.492 -0.3736  0.1574  0.0858
 1050TIP3    H124709   3.793   1.630   1.433  0.5770 -1.4623 -0.4711
 1050TIP3    H224710   3.780   1.588   1.578 -0.3629  0.4876  0.0498
 1051TIP3   OH224711   4.612   5.116   2.307 -0.5488  0.5942  0.1700
 1051TIP3    H124712   4.632   5.023   2.323 -2.7804 -0.7158 -3.5331
 1051TIP3    H224713   4.697   5.154   2.283  0.0188 -1.1261 -0.7371
 1052TIP3   OH224714   3.289   0.864   7.141  0.2328  0.0557  0.7049
 1052TIP3    H124715   3.286   0.808   7.219  0.1568 -3.0968 -1.3619
 1052TIP3    H224716   3.210   0.840   7.092  1.2284  0.4652 -1.2170
 1053TIP3   OH224717   0.752   0.209   7.814  0.5051  0.6602  0.7946
 1053TIP3    H124718   0.747   0.166   7.900  0.5057 -2.8889 -0.7814
 1053TIP3    H224719   0.823   0.163   7.769  1.1052  3.0416 -0.8440
 1054TIP3   OH224720   0.257   5.631   2.056  0.3351  0.6473 -0.2420
 1054TIP3    H124721   0.251   5.706   2.115  1.2912  0.2404  0.3980
 1054TIP3    H224722   0.339   5.588   2.080  0.7316  0.4458 -1.8469
 1055TIP3   OH224723   5.760   4.477   7.503 -0.0196  0.6126 -0.1948
 1055TIP3    H124724   5.796   4.398   7.544 -0.0742 -0.2084 -1.6393
 1055TIP3    H224725   5.751   4.453   7.410 -1.7473  1.7072 -0.3484
 1056TIP3   OH224726   3.041   3.799   0.494 -0.5814  0.1525  0.5255
 1056TIP3    H124727   3.093   3.868   0.536 -0.5639  0.4035  0.1005
 1056TIP3    H224728   2.951   3.831   0.498 -0.3531  1.3091 -1.6896
 1057TIP3   OH224729   2.081   5.550   7.766 -0.8148 -0.6397  0.3581
 1057TIP3    H124730   1.987   5.539   7.779 -1.0175 -0.0274 -0.4927
 1057TIP3    H224731   2.120   5.472   7.805 -1.7230 -1.2098  0.1518
 1058TIP3   OH224732   4.759   0.717   8.007 -0.4650 -0.3941 -0.1062
 1058TIP3    H124733   4.719   0.681   7.928 -1.0438 -1.5103  0.6789
 1058TIP3    H224734   4.696   0.781   8.040 -1.5134 -1.9311  0.9612
 1059TIP3   OH224735   4.022   6.581   1.912  0.0601 -0.6795 -0.3788
 1059TIP3    H124736   3.958   6.641   1.951 -0.1754 -0.4383 -1.1127
 1059TIP3    H224737   3.968   6.512   1.871  0.3165 -1.1877  0.1374
 1060TIP3   OH224738   3.489   1.638   1.178  0.6871 -0.1348  0.3618
 1060TIP3    H124739   3.442   1.703   1.230  0.5741  0.6136 -0.6547
 1060TIP3    H224740   3.423   1.571   1.159  0.7724 -0.4945  1.3055
 1061TIP3   OH224741   5.719   0.511   7.756 -0.3268  0.0168 -0.2862
 1061TIP3    H124742   5.732   0.586   7.698 -1.1370 -1.5705 -2.6264
 1061TIP3    H224743   5.776   0.443   7.721 -0.0111 -0.6867  1.4866
 1062TIP3   OH224744   2.924   2.758   2.136  0.5323 -0.3736  0.0364
 1062TIP3    H124745   2.976   2.795   2.208  0.1972 -0.9979  0.6098
 1062TIP3    H224746   2.834   2.761   2.168  0.5421 -2.0871  0.2910
 1063TIP3   OH224747   6.608   6.250   0.647 -0.3084 -0.2739  0.1253
 1063TIP3    H124748   6.528   6.219   0.605 -0.9480  0.6305  0.6423
 1063TIP3    H224749   6.638   6.323   0.592 -1.5916  1.4462  1.5952
 1064TIP3   OH224750   3.135   0.878   1.367 -0.2657 -0.0655 -0.7662
 1064TIP3    H124751   3.124   0.858   1.460 -1.8075  2.1128 -0.4182
 1064TIP3    H224752   3.151   0.792   1.326 -1.5770 -1.3495  1.2250
 1065TIP3   OH224753   2.101   2.169   7.061 -0.6128 -0.0158 -0.1308
 1065TIP3    H124754   2.051   2.147   6.982  1.0596 -3.4145 -0.4191
 1065TIP3    H224755   2.193   2.159   7.035  0.1043  1.7509  1.5106
 1066TIP3   OH224756   3.853   4.762   7.614 -0.2872 -0.8493 -0.4715
 1066TIP3    H124757   3.930   4.736   7.563  0.4316 -0.4170  0.3558
 1066TIP3    H224758   3.884   4.761   7.705 -1.1006 -0.1134 -0.1762
 1067TIP3   OH224759   6.180   5.181   0.402 -0.3704 -0.0437 -0.2796
 1067TIP3    H124760   6.181   5.182   0.306 -1.1089  0.5171 -0.2910
 1067TIP3    H224761   6.257   5.231   0.427  0.3180 -0.9414 -0.5705
 1068TIP3   OH224762   1.436   2.630   6.884  0.5598  0.3500  0.9662
 1068TIP3    H124763   1.507   2.631   6.820  0.4744  1.7792  0.8560
 1068TIP3    H224764   1.369   2.575   6.845  1.1315 -0.0373  0.5225
 1069TIP3   OH224765   1.133   3.331   6.788  0.2161 -0.8381  0.4051
 1069TIP3    H124766   1.218   3.347   6.828 -0.2170  1.0416  0.6613
 1069TIP3    H224767   1.091   3.266   6.844  1.5992 -2.0805  0.0592
 1070TIP3   OH224768   7.030   3.195   0.486  0.8423 -0.0329 -0.2369
 1070TIP3    H124769   6.987   3.244   0.416  0.4221 -1.1471 -0.7806
 1070TIP3    H224770   6.958   3.163   0.540  1.0248 -1.1243 -0.6194
 1071TIP3   OH224771   3.798   5.694   0.504 -0.0806  0.2498  0.2072
 1071TIP3    H124772   3.820   5.609   0.466 -3.1564 -0.4769 -0.2206
 1071TIP3    H224773   3.782   5.676   0.596 -1.4489  0.1786 -0.0269
 1072TIP3   OH224774   5.794   2.180   7.639  0.5175 -0.2788  0.1838
 1072TIP3    H124775   5.803   2.127   7.560 -0.3749  0.0886 -0.1748
 1072TIP3    H224776   5.849   2.136   7.703  1.3237 -0.5332 -0.6600
 1073TIP3   OH224777   2.868   3.595   1.412 -0.5389  0.3342  0.2973
 1073TIP3    H124778   2.881   3.690   1.404 -2.5855  0.5677 -1.0615
 1073TIP3    H224779   2.773   3.585   1.418 -0.2757 -1.4941  3.3779
 1074TIP3   OH224780   3.579   0.223   2.382 -0.3884  0.4514  0.3964
 1074TIP3    H124781   3.500   0.196   2.428 -0.4892  1.7590  1.0179
 1074TIP3    H224782   3.640   0.247   2.451  0.0706  0.7650 -0.1108
 1075TIP3   OH224783   0.024   5.947   1.879  0.1355  0.1345 -0.2169
 1075TIP3    H124784   0.077   5.975   1.954  1.0409 -2.3257  0.1705
 1075TIP3    H224785   0.078   5.969   1.802  0.8293 -0.4857  0.0740
 1076TIP3   OH224786   4.268   7.030   6.462  0.0575  0.2592 -0.1426
 1076TIP3    H124787   4.271   7.105   6.401  0.5692 -0.3934 -0.9354
 1076TIP3    H224788   4.175   7.024   6.487 -0.1030  0.7421 -0.5931
 1077TIP3   OH224789   5.259   1.502   2.691  0.0811 -0.5473  0.0741
 1077TIP3    H124790   5.259   1.573   2.756  0.4244  0.2564 -0.7902
 1077TIP3    H224791   5.332   1.446   2.718 -0.8677 -1.2127  1.4109
 1078TIP3   OH224792   4.985   1.479   2.006 -0.0555  0.1479  0.0165
 1078TIP3    H124793   5.012   1.435   2.086  2.7417  1.7349  0.0694
 1078TIP3    H224794   4.926   1.549   2.035 -1.3275 -1.0268  0.3342
 1079TIP3   OH224795   0.155   6.049   2.084 -0.0263 -0.1312  0.1577
 1079TIP3    H124796   0.155   5.960   2.120 -1.1394  0.5035  1.8897
 1079TIP3    H224797   0.220   6.096   2.135  0.4605  0.1075 -0.6607
 1080TIP3   OH224798   3.714   7.102   6.501 -0.0646  0.1090  0.4769
 1080TIP3    H124799   3.798   7.057   6.486 -0.2327 -0.2968  0.7195
 1080TIP3    H224800   3.738   7.183   6.546  0.0911 -0.7181  1.9643
 1081TIP3   OH224801   2.376   1.996   2.449 -0.3417  0.0493 -0.3423
 1081TIP3    H124802   2.324   1.934   2.500  0.5629 -0.5063 -0.0749
 1081TIP3    H224803   2.312   2.045   2.397 -1.4402  1.3356  2.0491
 1082TIP3   OH224804   6.927   5.944   1.340  0.2311 -0.1714 -0.6118
 1082TIP3    H124805   6.864   6.011   1.367  2.3617  2.1831 -1.0725
 1082TIP3    H224806   6.920   5.942   1.244  1.4934  0.8844 -0.7601
 1083TIP3   OH224807   1.661   4.104   6.986  0.2469 -0.4852 -0.7641
 1083TIP3    H124808   1.659   4.197   6.963 -1.1489 -0.3097 -0.0015
 1083TIP3    H224809   1.617   4.099   7.071 -1.7665 -2.1248 -1.8411
 1084TIP3   OH224810   1.826   2.887   1.275 -1.0459  0.6662  0.3816
 1084TIP3    H124811   1.911   2.865   1.312 -0.0976  0.6413 -1.6696
 1084TIP3    H224812   1.775   2.807   1.281 -0.3605  0.2086  0.1479
 1085TIP3   OH224813   2.820   1.507   0.568 -0.7319 -0.3298  0.3190
 1085TIP3    H124814   2.791   1.596   0.585  0.1196  0.1440 -0.6161
 1085TIP3    H224815   2.868   1.512   0.486  0.0308 -1.5021  0.6618
 1086TIP3   OH224816   2.953   3.714   2.034  1.0968 -0.1917  0.2482
 1086TIP3    H124817   2.944   3.682   1.944  1.0019 -0.4008  0.3313
 1086TIP3    H224818   3.029   3.667   2.068  1.7616  0.6385 -0.0450
 1087TIP3   OH224819   6.584   2.365   7.606 -0.4023  0.1569 -0.1695
 1087TIP3    H124820   6.588   2.453   7.644  5.5283  0.3695 -0.3938
 1087TIP3    H224821   6.601   2.378   7.513  0.4621 -1.1873 -0.2241
 1088TIP3   OH224822   6.064   7.022   6.390 -0.1063 -0.3714 -0.0542
 1088TIP3    H124823   6.020   7.100   6.355 -0.7342 -0.6222  0.1482
 1088TIP3    H224824   6.047   6.954   6.325  0.9910 -0.1881 -0.5450
 1089TIP3   OH224825   2.900   4.201   7.125 -0.5413  0.0852 -0.1820
 1089TIP3    H124826   2.820   4.170   7.168  0.2959 -0.0831  1.3069
 1089TIP3    H224827   2.904   4.152   7.044 -2.0673  0.2623 -0.3933
 1090TIP3   OH224828   0.378   5.068   6.898  0.2152  0.0898 -0.4232
 1090TIP3    H124829   0.334   5.032   6.822 -0.0527 -0.8700  0.1656
 1090TIP3    H224830   0.445   5.127   6.862  0.5777 -0.8958 -1.4124
 1091TIP3   OH224831   2.359   5.877   7.536 -0.1787  0.1916 -0.0127
 1091TIP3    H124832   2.408   5.830   7.603 -0.9871 -0.1827  0.3333
 1091TIP3    H224833   2.301   5.811   7.497 -1.2436  0.8534  0.3949
 1092TIP3   OH224834   2.209   3.079   6.688 -0.2476 -0.2267  0.0800
 1092TIP3    H124835   2.281   3.016   6.696  1.0874  0.9822 -1.5777
 1092TIP3    H224836   2.223   3.140   6.760 -0.6983 -0.9812  0.8281
 1093TIP3   OH224837   1.535   1.186   2.480 -0.1660  0.9489  0.2830
 1093TIP3    H124838   1.490   1.248   2.539  0.2749  0.4825  1.1236
 1093TIP3    H224839   1.627   1.211   2.486 -0.2172  1.5058 -0.9638
 1094TIP3   OH224840   1.122   0.920   1.005  0.1506  0.5562 -0.2310
 1094TIP3    H124841   1.162   0.925   1.092  0.7635  0.5364 -0.5052
 1094TIP3    H224842   1.056   0.851   1.013 -0.4494  1.2005  0.4682
 1095TIP3   OH224843   1.130   2.522   1.910  0.2812 -0.0178 -0.0905
 1095TIP3    H124844   1.162   2.602   1.868 -0.1429  0.3688  0.3115
 1095TIP3    H224845   1.206   2.464   1.911 -0.0460 -0.6052 -2.6885
 1096TIP3   OH224846   5.334   1.227   7.135  0.2402 -0.2775  0.3712
 1096TIP3    H124847   5.397   1.197   7.200  1.5610  1.7577  0.1045
 1096TIP3    H224848   5.386   1.244   7.057 -0.8153  0.3726 -0.2153
 1097TIP3   OH224849   1.236   2.557   7.234 -0.4965 -0.0971  0.3584
 1097TIP3    H124850   1.281   2.636   7.264  0.8251 -0.2821 -1.0061
 1097TIP3    H224851   1.293   2.485   7.261  0.5419 -0.2932 -2.0798
 1098TIP3   OH224852   6.662   5.390   1.194  0.1322 -0.0044 -0.4525
 1098TIP3    H124853   6.582   5.413   1.147 -1.0549 -4.2264 -0.8948
 1098TIP3    H224854   6.634   5.374   1.284  1.1614  1.4274  0.1738
 1099TIP3   OH224855   2.899   6.105   7.648 -0.2191 -0.4280  0.7451
 1099TIP3    H124856   2.817   6.088   7.601  1.2904 -2.5536 -1.3062
 1099TIP3    H224857   2.923   6.021   7.686  1.0315  0.1747  1.3478
 1100TIP3   OH224858   0.774   6.057   0.240  0.3127 -0.0305  0.3026
 1100TIP3    H124859   0.802   6.122   0.176  0.4507  0.7698  1.1617
 1100TIP3    H224860   0.689   6.027   0.209  0.2161  0.6143 -0.0645
 1101TIP3   OH224861   6.429   4.804   0.078  0.4831 -0.2840 -0.0930
 1101TIP3    H124862   6.393   4.858   0.008 -0.8933 -0.4227  0.4785
 1101TIP3    H224863   6.444   4.866   0.150  0.6102 -0.3659 -0.0486
 1102TIP3   OH224864   5.585   0.231   1.874  0.3082  0.0879  0.2819
 1102TIP3    H124865   5.509   0.216   1.929  0.3526 -0.6006  0.1665
 1102TIP3    H224866   5.646   0.281   1.928  0.9052 -1.7069  1.3316
 1103TIP3   OH224867   3.139   3.504   2.506  0.0469  0.4112 -0.5732
 1103TIP3    H124868   3.204   3.441   2.539  0.0941  1.3327  1.2738
 1103TIP3    H224869   3.061   3.452   2.488  1.0118 -0.5912 -2.0140
 1104TIP3   OH224870   6.783   2.499   7.279  0.7390  0.1377  0.1920
 1104TIP3    H124871   6.711   2.553   7.312  0.0696  1.1956 -2.6866
 1104TIP3    H224872   6.782   2.513   7.185  3.9443 -0.8452 -0.1043
 1105TIP3   OH224873   0.259   0.698   6.346 -0.5965  0.1683 -0.3087
 1105TIP3    H124874   0.171   0.732   6.329 -0.9906 -1.3923 -1.6088
 1105TIP3    H224875   0.249   0.638   6.419 -0.6202 -0.0346 -0.4779
 1106TIP3   OH224876   7.059   3.852   7.951 -0.2275  0.4221 -0.5639
 1106TIP3    H124877   6.978   3.880   7.995 -0.2202 -0.6729  0.1970
 1106TIP3    H224878   7.068   3.912   7.877 -1.8587  0.4395 -0.7893
 1107TIP3   OH224879   4.196   6.270   1.228  0.3200  0.4311 -0.0794
 1107TIP3    H124880   4.210   6.272   1.133 -0.6403  0.2877 -0.2384
 1107TIP3    H224881   4.175   6.360   1.250  0.7318  0.5007  0.0294
 1108TIP3   OH224882   4.097   3.681   1.553  0.2510  0.2500  0.1332
 1108TIP3    H124883   4.133   3.593   1.543  1.9089  0.2442  4.3102
 1108TIP3    H224884   4.171   3.739   1.531  0.0625  0.5211  0.2089
 1109TIP3   OH224885   2.394   5.828   7.947  0.0096 -0.0393  0.5019
 1109TIP3    H124886   2.482   5.840   7.984 -0.1784  0.0612  0.9174
 1109TIP3    H224887   2.343   5.900   7.983 -0.4432 -0.5413  0.8832
 1110TIP3   OH224888   3.184   2.227   7.143  0.0950  0.3801  0.1731
 1110TIP3    H124889   3.150   2.209   7.230  0.5338 -2.8308 -0.1927
 1110TIP3    H224890   3.135   2.169   7.085  0.5999  1.6030 -1.5690
 1111TIP3   OH224891   2.363   3.501   1.216  0.2241  0.1465  0.0148
 1111TIP3    H124892   2.362   3.476   1.124  0.9864  2.5016 -0.6993
 1111TIP3    H224893   2.272   3.492   1.244 -0.4211  1.3219 -1.5552
 1112TIP3   OH224894   2.769   2.795   7.622 -0.0146 -0.3679  0.6520
 1112TIP3    H124895   2.723   2.711   7.629 -1.7632  0.4553 -0.4316
 1112TIP3    H224896   2.741   2.844   7.699 -0.4410 -0.1144  0.3395
 1113TIP3   OH224897   3.828   6.837   0.340  0.3046  0.3545  0.4318
 1113TIP3    H124898   3.915   6.872   0.323  0.2312  0.9090  1.1935
 1113TIP3    H224899   3.770   6.883   0.279  0.7157 -0.9481 -1.0073
 1114TIP3   OH224900   6.232   6.999   2.534  0.3087  0.0173  0.3302
 1114TIP3    H124901   6.299   6.933   2.552  1.0815  1.1554  1.7640
 1114TIP3    H224902   6.155   6.970   2.583  0.1929 -0.5376 -0.1693
 1115TIP3   OH224903   5.772   5.668   7.251 -0.2976  0.2191  0.1025
 1115TIP3    H124904   5.697   5.727   7.265  1.2561  2.8499 -1.7859
 1115TIP3    H224905   5.824   5.678   7.330 -0.0318  1.5070 -0.2059
 1116TIP3   OH224906   0.997   0.735   6.600 -0.1390  0.5951  0.4383
 1116TIP3    H124907   0.996   0.763   6.691 -1.2638  0.7569  0.3897
 1116TIP3    H224908   0.942   0.799   6.554 -0.5133 -0.1245 -0.1523
 1117TIP3   OH224909   7.146   3.673   1.203  0.4717 -0.3207  0.2469
 1117TIP3    H124910   7.131   3.763   1.230 -0.3456 -0.5417  0.5532
 1117TIP3    H224911   7.237   3.656   1.227  0.2942  0.0607  1.2382
 1118TIP3   OH224912   6.257   6.485   6.789 -0.0796  0.2062 -0.8577
 1118TIP3    H124913   6.186   6.522   6.841 -0.3651  1.5154 -2.1316
 1118TIP3    H224914   6.231   6.499   6.698  1.1923 -0.4923 -1.3561
 1119TIP3   OH224915   2.108   2.217   0.228 -0.6828  0.4366 -0.5240
 1119TIP3    H124916   2.120   2.125   0.253  1.9440  1.0405  0.7539
 1119TIP3    H224917   2.137   2.221   0.136 -0.8553 -0.0053 -0.6011
 1120TIP3   OH224918   3.090   2.684   7.760 -0.0055 -0.5991  0.1734
 1120TIP3    H124919   3.039   2.654   7.684 -0.0881  0.6526 -0.2872
 1120TIP3    H224920   3.024   2.702   7.827  0.1432 -2.8970  1.0261
 1121TIP3   OH224921   2.056   0.314   7.327  0.1810  0.4486  0.4867
 1121TIP3    H124922   2.142   0.340   7.295  1.6328 -1.5865  2.4412
 1121TIP3    H224923   2.016   0.267   7.254  1.4651 -0.1164  0.1254
 1122TIP3   OH224924   5.451   5.051   2.278 -0.1522 -0.5120 -0.1738
 1122TIP3    H124925   5.396   5.125   2.251  1.0529 -0.2876 -2.2484
 1122TIP3    H224926   5.473   5.070   2.369 -3.6614 -0.7857  0.8839
 1123TIP3   OH224927   5.485   4.419   2.001 -0.3828  0.1787 -0.4471
 1123TIP3    H124928   5.444   4.373   1.928  0.9231 -0.4169 -0.8396
 1123TIP3    H224929   5.522   4.498   1.961  0.9846 -0.5135 -0.6185
 1124TIP3   OH224930   3.896   6.176   0.383 -0.1896  0.1262 -0.4274
 1124TIP3    H124931   3.942   6.092   0.374 -1.5239 -1.0636  2.6515
 1124TIP3    H224932   3.817   6.165   0.331 -0.1370 -0.3634 -0.4158
 1125TIP3   OH224933   5.172   3.952   1.165 -0.4580 -0.4581  0.3079
 1125TIP3    H124934   5.093   3.900   1.176 -1.4109  0.8189 -0.2183
 1125TIP3    H224935   5.164   4.022   1.230 -0.6684  0.6934 -0.8905
 1126TIP3   OH224936   6.186   4.017   1.876 -0.2447 -0.2413  0.0761
 1126TIP3    H124937   6.162   3.926   1.893  1.0018 -0.3277  1.5708
 1126TIP3    H224938   6.281   4.016   1.869 -0.3123  0.7271 -1.4957
 1127TIP3   OH224939   6.965   3.417   0.985  0.3202  0.2316 -0.6048
 1127TIP3    H124940   6.901   3.485   1.009 -0.8019 -0.6457 -1.0069
 1127TIP3    H224941   6.918   3.335   1.001  1.4813 -0.4426 -0.6100
 1128TIP3   OH224942   3.949   3.272   0.805  0.3123 -0.5012 -0.8970
 1128TIP3    H124943   3.946   3.228   0.720  0.2692  0.9880 -1.6994
 1128TIP3    H224944   4.037   3.252   0.839  0.7509 -0.1826 -1.8180
 1129TIP3   OH224945   4.947   6.651   0.952 -0.1789 -0.0831 -0.1682
 1129TIP3    H124946   4.941   6.653   0.856  1.2158 -1.0374 -0.3000
 1129TIP3    H224947   4.948   6.743   0.978 -1.3167  0.1915 -0.9946
 1130TIP3   OH224948   3.441   5.518   1.338  0.6258 -0.3119 -0.3215
 1130TIP3    H124949   3.446   5.601   1.291  1.2753  0.7264  1.4832
 1130TIP3    H224950   3.382   5.536   1.412  1.6871 -1.0991  0.7506
 1131TIP3   OH224951   2.933   4.452   2.342  0.0512 -0.7590 -0.3996
 1131TIP3    H124952   2.933   4.516   2.414 -3.0223 -0.4676 -0.5381
 1131TIP3    H224953   2.946   4.368   2.386  1.0168 -0.3512  0.1381
 1132TIP3   OH224954   4.680   6.086   6.027  0.0313 -0.0540 -0.3170
 1132TIP3    H124955   4.707   6.176   6.049 -0.0778  0.2146 -1.2514
 1132TIP3    H224956   4.754   6.051   5.977  1.0935 -1.3069  1.9707
 1133TIP3   OH224957   3.662   0.397   1.488 -0.3830  0.3408 -0.0374
 1133TIP3    H124958   3.672   0.485   1.451  0.2471  0.3671  0.1931
 1133TIP3    H224959   3.733   0.346   1.449 -2.0066 -0.6589 -1.8912
 1134TIP3   OH224960   6.150   1.463   2.329 -0.1538  0.4419  0.5877
 1134TIP3    H124961   6.164   1.369   2.344  0.0733  0.5239  0.9188
 1134TIP3    H224962   6.163   1.475   2.235  3.2885  0.7001  0.9830
 1135TIP3   OH224963   2.959   6.102   1.915  0.2546 -0.0114 -0.4297
 1135TIP3    H124964   3.044   6.059   1.913  0.7238  0.7690  1.0439
 1135TIP3    H224965   2.896   6.030   1.911  1.0185 -0.7836  0.7980
 1136TIP3   OH224966   0.932   1.646   6.838 -0.0402  0.0495  0.2925
 1136TIP3    H124967   0.924   1.701   6.760 -0.6014 -0.5261 -0.0709
 1136TIP3    H224968   0.864   1.678   6.897 -1.0215 -0.8271 -0.3003
 1137TIP3   OH224969   2.258   5.180   7.284  0.7745  0.2866  0.3062
 1137TIP3    H124970   2.266   5.129   7.204 -2.8389  0.4835 -0.3738
 1137TIP3    H224971   2.286   5.121   7.354  0.9005 -1.0273 -0.8311
 1138TIP3   OH224972   2.759   3.762   7.154  0.2655  0.0490 -0.8015
 1138TIP3    H124973   2.683   3.705   7.169  0.1207  0.5581  0.5902
 1138TIP3    H224974   2.745   3.798   7.067 -0.6132 -0.5875 -0.9382
 1139TIP3   OH224975   6.762   3.703   0.251  0.2852 -0.3661 -0.0245
 1139TIP3    H124976   6.668   3.704   0.267  0.2944 -0.9622  0.0803
 1139TIP3    H224977   6.781   3.788   0.212 -0.3335 -0.3402 -0.2694
 1140TIP3   OH224978   5.695   6.029   0.536  0.1584 -0.1676 -0.3535
 1140TIP3    H124979   5.723   5.946   0.576 -1.5457 -0.6573 -0.0961
 1140TIP3    H224980   5.657   6.079   0.608 -0.0814  0.2526 -0.7672
 1141TIP3   OH224981   1.460   7.089   7.364  0.6116  0.6061  0.1751
 1141TIP3    H124982   1.545   7.129   7.385  1.2597 -1.0358  0.8401
 1141TIP3    H224983   1.400   7.126   7.428  1.0546  1.0098  0.3649
 1142TIP3   OH224984   5.325   2.539   2.398 -0.1607 -0.0906  0.0446
 1142TIP3    H124985   5.241   2.531   2.444 -0.8373  1.5197 -0.8455
 1142TIP3    H224986   5.386   2.568   2.466 -0.4513 -0.6381  0.5563
 1143TIP3   OH224987   4.520   5.584   2.644 -0.3298 -0.3297  0.2527
 1143TIP3    H124988   4.426   5.575   2.633 -0.5586 -0.4444  2.0217
 1143TIP3    H224989   4.556   5.501   2.612 -0.5541  0.5147 -2.5106
 1144TIP3   OH224990   5.348   0.896   2.396 -0.0869 -0.2392  0.3493
 1144TIP3    H124991   5.301   0.813   2.395  0.9152 -0.8451 -1.8261
 1144TIP3    H224992   5.289   0.957   2.351  1.8895 -1.5607 -4.6099
 1145TIP3   OH224993   5.930   5.736   7.037  0.4064  0.7037  0.3699
 1145TIP3    H124994   6.009   5.735   7.091  0.2308 -0.8047  0.6415
 1145TIP3    H224995   5.858   5.737   7.099  0.2084 -0.2418  0.1718
 1146TIP3   OH224996   5.279   3.094   7.954  0.1954  0.2763  0.4973
 1146TIP3    H124997   5.202   3.090   8.011 -0.7775  1.2643 -0.7052
 1146TIP3    H224998   5.244   3.089   7.865  1.4350  1.6654 -0.1075
 1147TIP3   OH224999   6.016   4.550   0.524 -0.3134 -0.1270  0.2560
 1147TIP3    H125000   5.946   4.553   0.589 -1.3578  0.5565 -0.8661
 1147TIP3    H225001   6.050   4.640   0.522  2.4204 -0.9502  2.6442
 1148TIP3   OH225002   1.230   4.291   0.429 -0.3442  0.0662 -0.1212
 1148TIP3    H125003   1.232   4.245   0.345  2.0899 -2.9521  1.3872
 1148TIP3    H225004   1.316   4.334   0.434  0.0924 -0.9058  1.3027
 1149TIP3   OH225005   3.454   4.503   0.440 -0.1211  0.2710 -0.2751
 1149TIP3    H125006   3.482   4.479   0.351  1.5362 -0.4633  0.4109
 1149TIP3    H225007   3.360   4.482   0.441  0.1133 -1.0257 -1.4350
 1150TIP3   OH225008   4.639   2.963   7.950 -0.5485 -0.1082  0.0907
 1150TIP3    H125009   4.569   2.929   7.895  0.4595  0.4419 -1.6096
 1150TIP3    H225010   4.674   3.037   7.901 -0.5250  1.3270  2.1634
 1151TIP3   OH225011   2.733   5.401   1.273 -0.0716 -0.1404  0.1657
 1151TIP3    H125012   2.744   5.496   1.278 -0.7232 -0.0262 -0.4764
 1151TIP3    H225013   2.750   5.380   1.181  0.0420 -0.6462  0.3001
 1152TIP3   OH225014   5.369   6.190   1.377  0.0295  0.4882  0.2844
 1152TIP3    H125015   5.340   6.188   1.468 -0.4741  0.2607  0.1213
 1152TIP3    H225016   5.458   6.225   1.381 -0.0701  0.6886  0.8417
 1153TIP3   OH225017   1.029   4.883   7.662 -0.1796 -0.2663  0.2406
 1153TIP3    H125018   0.945   4.848   7.633  0.4395 -1.8401  0.2345
 1153TIP3    H225019   1.094   4.821   7.627  0.9757  0.7952  0.4094
 1154TIP3   OH225020   3.392   4.036   6.365 -0.2231 -0.4291  0.1105
 1154TIP3    H125021   3.324   3.976   6.395  0.9139 -1.4835  0.6570
 1154TIP3    H225022   3.449   4.047   6.441  1.1625 -0.9236 -0.8323
 1155TIP3   OH225023   2.209   5.865   0.421  0.0910 -0.2081 -0.7742
 1155TIP3    H125024   2.241   5.934   0.480 -0.4749 -0.2519 -0.4106
 1155TIP3    H225025   2.244   5.784   0.458 -1.8854 -0.4499  0.6650
 1156TIP3   OH225026   0.449   5.921   1.042  0.3349 -0.6171  0.3333
 1156TIP3    H125027   0.437   5.894   0.951 -1.7986 -0.5332  0.5215
 1156TIP3    H225028   0.364   5.903   1.083  1.2560 -0.6766  2.3237
 1157TIP3   OH225029   5.919   2.354   1.237  0.0903 -0.2604  0.1649
 1157TIP3    H125030   5.848   2.289   1.237  0.5732 -0.8020 -0.0373
 1157TIP3    H225031   5.877   2.435   1.264 -0.5662 -0.6196  0.2589
 1158TIP3   OH225032   5.769   2.260   1.943  0.1032  0.3214  0.5468
 1158TIP3    H125033   5.751   2.185   1.886  0.1235  1.1539 -0.6087
 1158TIP3    H225034   5.708   2.328   1.913  1.0300  1.2124  0.6076
 1159TIP3   OH225035   4.573   3.620   1.170  0.3752  0.5924 -0.4666
 1159TIP3    H125036   4.489   3.573   1.178  0.1810  0.8836 -0.7483
 1159TIP3    H225037   4.548   3.708   1.143  0.6854  1.1265  0.9226
 1160TIP3   OH225038   4.915   3.727   0.727  0.3561 -0.0755 -0.1153
 1160TIP3    H125039   4.995   3.775   0.745 -0.4386  1.5181 -0.6438
 1160TIP3    H225040   4.890   3.754   0.639 -1.4860  0.5848  0.5526
 1161TIP3   OH225041   2.823   4.829   1.016 -0.2711 -0.1041  0.2433
 1161TIP3    H125042   2.814   4.865   0.927  0.2958 -0.6592 -0.0496
 1161TIP3    H225043   2.857   4.901   1.068  1.5178 -0.3627 -0.4848
 1162TIP3   OH225044   5.914   5.816   1.103 -0.5191  0.3368 -0.3576
 1162TIP3    H125045   5.862   5.817   1.183 -1.2517  0.1571 -0.8165
 1162TIP3    H225046   5.948   5.727   1.096 -0.0110  0.4975  0.0251
 1163TIP3   OH225047   1.782   3.853   1.943  0.6611 -0.5845  0.0744
 1163TIP3    H125048   1.702   3.832   1.991 -0.1852 -1.4887 -1.6434
 1163TIP3    H225049   1.791   3.948   1.952  0.4098 -0.6848  1.7749
 1164TIP3   OH225050   4.504   0.635   0.914 -0.0839  0.7480 -0.0729
 1164TIP3    H125051   4.587   0.595   0.888 -0.6138 -0.2348 -0.3136
 1164TIP3    H225052   4.498   0.714   0.860  1.6192  1.9325  1.3720
 1165TIP3   OH225053   3.392   4.874   0.851 -0.5990 -0.7284  0.2196
 1165TIP3    H125054   3.352   4.952   0.814 -1.3922 -0.7223  1.0421
 1165TIP3    H225055   3.486   4.890   0.847 -0.6506 -0.7081 -1.6959
 1166TIP3   OH225056   0.932   0.775   7.194  0.7979 -0.2262 -0.0221
 1166TIP3    H125057   0.882   0.700   7.225 -1.3529  0.8990 -0.5994
 1166TIP3    H225058   1.008   0.736   7.149 -1.6634 -2.2430 -2.8203
 1167TIP3   OH225059   6.650   3.257   7.487 -0.3780 -0.3622 -0.3819
 1167TIP3    H125060   6.711   3.283   7.555 -0.3433 -1.3007 -0.0551
 1167TIP3    H225061   6.597   3.336   7.471  1.9000  0.9995 -1.7993
 1168TIP3   OH225062   4.721   1.706   0.917  0.5179  0.0302  0.0304
 1168TIP3    H125063   4.693   1.674   1.003 -0.0666 -0.7599 -0.4416
 1168TIP3    H225064   4.650   1.682   0.858  1.2075 -0.0372 -0.7957
 1169TIP3   OH225065   1.568   2.393   6.318  0.2879  0.3401 -0.0911
 1169TIP3    H125066   1.629   2.463   6.340  1.7952 -0.2807 -1.9588
 1169TIP3    H225067   1.496   2.437   6.272  1.7992  0.6615 -2.3496
 1170TIP3   OH225068   5.646   0.227   2.257 -0.0562  0.2005 -0.7047
 1170TIP3    H125069   5.649   0.138   2.221 -1.5351 -0.6460  1.0752
 1170TIP3    H225070   5.571   0.268   2.214 -0.0210  0.2136 -0.7529
 1171TIP3   OH225071   7.051   6.856   1.233  0.1921 -0.5616  0.0328
 1171TIP3    H125072   6.988   6.785   1.245  0.0509 -0.4882 -0.2782
 1171TIP3    H225073   7.060   6.865   1.138 -1.9463  1.7263 -0.0602
 1172TIP3   OH225074   0.324   5.945   0.434  0.0535  0.2411  0.0928
 1172TIP3    H125075   0.294   5.971   0.347  1.2882  1.6540  0.0482
 1172TIP3    H225076   0.374   6.020   0.466 -0.9032  0.0093  2.3005
 1173TIP3   OH225077   4.580   6.642   6.933  0.2817  0.0697  0.1519
 1173TIP3    H125078   4.509   6.705   6.930 -0.2159 -0.3098  2.1497
 1173TIP3    H225079   4.617   6.651   7.021  1.7424 -0.7736 -0.3304
 1174TIP3   OH225080   3.707   2.650   7.383 -0.1737 -0.0579 -0.0186
 1174TIP3    H125081   3.741   2.574   7.336 -1.4343  0.0637 -1.1598
 1174TIP3    H225082   3.618   2.662   7.351  0.3621  2.6449 -0.8008
 1175TIP3   OH225083   7.139   6.815   1.692  0.2388 -0.2559  0.0848
 1175TIP3    H125084   7.185   6.895   1.666 -1.4228 -0.1357 -2.9278
 1175TIP3    H225085   7.068   6.845   1.748 -0.0827  0.3428 -0.6309
 1176TIP3   OH225086   2.318   2.250   6.370  0.5926  0.1147  0.5802
 1176TIP3    H125087   2.325   2.340   6.337  0.7198 -0.0676  0.0876
 1176TIP3    H225088   2.407   2.226   6.393  0.6263 -0.0358  0.2951
 1177TIP3   OH225089   1.828   2.100   7.781 -0.9910  0.4146  0.3150
 1177TIP3    H125090   1.909   2.127   7.739 -1.0460  1.4409  0.8316
 1177TIP3    H225091   1.792   2.033   7.723 -0.3097  0.7069 -0.4661
 1178TIP3   OH225092   6.167   2.353   7.812 -0.1099  0.2268 -0.1815
 1178TIP3    H125093   6.111   2.381   7.739 -0.8072 -1.2794 -0.2512
 1178TIP3    H225094   6.126   2.392   7.890 -0.5135  0.1911 -0.3728
 1179TIP3   OH225095   7.037   0.381   7.536 -0.2958  0.0021 -0.5539
 1179TIP3    H125096   7.027   0.472   7.508 -1.8331 -0.0461 -0.2477
 1179TIP3    H225097   7.095   0.386   7.612 -0.8354  0.8040 -0.1793
 1180TIP3   OH225098   0.113   1.163   1.050  0.0323 -0.1934  0.0185
 1180TIP3    H125099   0.053   1.238   1.055 -0.2898 -0.5124  1.3628
 1180TIP3    H225100   0.187   1.188   1.105  0.3761 -0.4879 -0.3038
 1181TIP3   OH225101   6.854   3.950   1.205 -0.8692 -0.5130  0.2841
 1181TIP3    H125102   6.773   3.948   1.156  0.3941 -0.3852 -1.9336
 1181TIP3    H225103   6.923   3.947   1.139  0.9545 -0.5356  2.0642
 1182TIP3   OH225104   1.301   1.570   0.898 -0.4598  0.0639  0.4325
 1182TIP3    H125105   1.335   1.544   0.812  2.3734  0.0698  1.4244
 1182TIP3    H225106   1.207   1.580   0.886 -0.2368 -0.6647 -2.4685
 1183TIP3   OH225107   0.536   2.241   7.613  0.0562 -0.0858  1.0960
 1183TIP3    H125108   0.583   2.223   7.531 -2.8748  0.1568 -0.7852
 1183TIP3    H225109   0.590   2.307   7.657  0.7021  1.4105 -1.6996
 1184TIP3   OH225110   0.780   0.352   1.474 -0.3352  0.0379  0.0088
 1184TIP3    H125111   0.760   0.440   1.507 -0.1869 -0.2189  0.8104
 1184TIP3    H225112   0.844   0.366   1.405  0.6958  0.4858  1.0136
 1185TIP3   OH225113   0.430   5.395   1.529  0.3852  0.6797 -0.4555
 1185TIP3    H125114   0.465   5.316   1.487  0.8252 -0.3514  1.7347
 1185TIP3    H225115   0.502   5.427   1.583 -0.8543  0.6576  1.2569
 1186TIP3   OH225116   3.868   3.360   7.025 -0.0935 -0.5000 -0.2529
 1186TIP3    H125117   3.930   3.288   7.032 -0.0944 -0.4798 -0.0034
 1186TIP3    H225118   3.841   3.360   6.934 -0.8699 -1.4662 -0.0453
 1187TIP3   OH225119   6.086   0.336   7.805 -0.2271 -0.7042 -0.0815
 1187TIP3    H125120   6.039   0.293   7.877  0.3638 -0.3787  0.5145
 1187TIP3    H225121   6.160   0.380   7.848 -0.3824  0.2609 -0.7750
 1188TIP3   OH225122   5.234   1.680   2.902  0.3550  0.1911  0.0110
 1188TIP3    H125123   5.158   1.701   2.848  0.3003  0.1732  0.0805
 1188TIP3    H225124   5.261   1.764   2.940  0.3921  0.2034 -0.0425
 1189TIP3   OH225125   0.743   4.640   1.309  0.1406 -0.2206  0.0771
 1189TIP3    H125126   0.655   4.673   1.288 -0.1901 -0.8717  0.3946
 1189TIP3    H225127   0.768   4.589   1.231  0.2954  0.0795 -0.0696
 1190TIP3   OH225128   5.855   5.863   6.373  0.4941  0.5477 -0.1608
 1190TIP3    H125129   5.901   5.779   6.369  0.4523  0.4668  0.7879
 1190TIP3    H225130   5.871   5.903   6.288  2.0680  0.3944  0.0358
 1191TIP3   OH225131   2.530   2.276   1.644  0.0189 -0.0971  0.1234
 1191TIP3    H125132   2.549   2.309   1.732  0.5357  1.0125 -0.3795
 1191TIP3    H225133   2.446   2.317   1.621  1.0242  1.5266 -0.7947
 1192TIP3   OH225134   1.782   5.267   6.621  0.5011  0.1183  0.2236
 1192TIP3    H125135   1.760   5.186   6.667  0.2836  0.5952  0.9672
 1192TIP3    H225136   1.768   5.247   6.529 -2.7614  0.2781  0.5809
 1193TIP3   OH225137   3.938   6.118   7.533 -0.0435 -0.6123  0.3074
 1193TIP3    H125138   3.993   6.041   7.545  0.1237 -0.6207 -0.4517
 1193TIP3    H225139   3.856   6.084   7.499  0.7080 -0.3129 -1.9420
 1194TIP3   OH225140   5.573   5.674   2.548 -0.3232 -0.3010  0.3480
 1194TIP3    H125141   5.590   5.702   2.458  1.9251 -0.1102  0.7735
 1194TIP3    H225142   5.491   5.625   2.543 -0.4853  0.0957 -1.7160
 1195TIP3   OH225143   0.965   6.994   0.011 -0.0096  0.0341  0.4592
 1195TIP3    H125144   0.985   7.074  -0.038  1.9608 -1.4011 -1.2791
 1195TIP3    H225145   0.970   7.020   0.103  0.9358  1.8359 -0.0517
 1196TIP3   OH225146   5.131   3.310   7.057  0.0702 -0.4847  0.3163
 1196TIP3    H125147   5.124   3.283   6.965 -1.3979  1.1356 -0.1106
 1196TIP3    H225148   5.041   3.309   7.089  0.4499 -0.0662  1.4512
 1197TIP3   OH225149   1.054   0.505   0.717 -0.2804  0.1259  0.4642
 1197TIP3    H125150   0.980   0.565   0.717  1.4029  2.3508  1.6106
 1197TIP3    H225151   1.084   0.504   0.808  1.4819 -0.1935 -0.0753
 1198TIP3   OH225152   7.127   2.383   0.197  0.3162  0.5280 -0.2333
 1198TIP3    H125153   7.136   2.398   0.103  0.4323  2.1259 -0.0113
 1198TIP3    H225154   7.089   2.296   0.204 -0.3254  0.6380 -1.7882
 1199TIP3   OH225155   6.939   6.570   2.529  0.2924 -0.0251  0.1732
 1199TIP3    H125156   7.009   6.577   2.594 -1.0020  0.4924  1.5792
 1199TIP3    H225157   6.901   6.658   2.526 -0.0783 -0.2122 -0.8209
 1200TIP3   OH225158   0.673   4.273   6.866 -0.6976  0.2740  0.2016
 1200TIP3    H125159   0.647   4.274   6.774  0.5669 -0.6022 -0.2035
 1200TIP3    H225160   0.768   4.259   6.864 -0.3962  1.7830  1.6138
 1201TIP3   OH225161   4.393   2.451   1.153  0.0898 -0.2454  0.4283
 1201TIP3    H125162   4.358   2.535   1.123  1.6173  0.0861 -0.5621
 1201TIP3    H225163   4.485   2.470   1.173  0.3431 -1.5959  0.6115
 1202TIP3   OH225164   6.001   1.117   0.583 -0.4739 -0.4377 -0.0971
 1202TIP3    H125165   6.009   1.110   0.488 -1.0241 -1.3373 -0.0977
 1202TIP3    H225166   6.053   1.193   0.607  0.2138 -0.5960 -1.0466
 1203TIP3   OH225167   3.139   3.320   0.514  0.0727  0.0033  0.5231
 1203TIP3    H125168   3.096   3.265   0.579  0.7662 -1.3121 -0.1099
 1203TIP3    H225169   3.144   3.407   0.555 -2.1628 -0.0604  1.0493
 1204TIP3   OH225170   6.721   3.920   3.193 -0.3892  0.3252  0.2483
 1204TIP3    H125171   6.683   3.833   3.184  1.3630 -0.5662  0.9093
 1204TIP3    H225172   6.796   3.919   3.134  0.5295  0.8174  1.3562
 1205TIP3   OH225173   5.481   7.019   7.902 -0.2652 -0.5971  0.1159
 1205TIP3    H125174   5.397   6.979   7.924  0.5122 -2.1464  0.4299
 1205TIP3    H225175   5.515   7.051   7.985  0.4778 -2.0694  0.4067
 1206TIP3   OH225176   6.940   4.722   2.451 -0.3185  0.2205  0.1449
 1206TIP3    H125177   7.016   4.675   2.417 -1.9925 -1.9938 -0.8468
 1206TIP3    H225178   6.947   4.715   2.546  1.5919  1.6746  0.1758
 1207TIP3   OH225179   2.599   3.536   1.356  0.5591  0.2861 -0.2595
 1207TIP3    H125180   2.623   3.443   1.357  2.0781  0.6412 -0.2287
 1207TIP3    H225181   2.524   3.541   1.297 -1.7424 -1.4115  2.3174
 1208TIP3   OH225182   0.993   6.709   0.351 -0.3910 -0.5275  0.0043
 1208TIP3    H125183   0.901   6.707   0.376 -0.4766 -0.1551 -0.2882
 1208TIP3    H225184   1.012   6.801   0.335 -0.0498 -0.6393 -0.2462
 1209TIP3   OH225185   3.798   0.150   0.670 -0.4049  0.0619 -0.1535
 1209TIP3    H125186   3.778   0.152   0.576 -0.1910  0.5171 -0.1935
 1209TIP3    H225187   3.725   0.196   0.711 -0.0722  0.6310 -0.1837
 1210TIP3   OH225188   6.487   6.350   5.260 -0.3404 -0.6744 -0.3587
 1210TIP3    H125189   6.567   6.388   5.223 -1.5166  0.4526 -1.8663
 1210TIP3    H225190   6.469   6.403   5.338 -0.1600 -0.2728 -0.5838
 1211TIP3   OH225191   2.158   2.744   6.893  0.1906  0.0446 -0.0687
 1211TIP3    H125192   2.203   2.802   6.831  0.7322 -0.2400  0.0543
 1211TIP3    H225193   2.073   2.785   6.906  0.5911  0.8476  0.0671
 1212TIP3   OH225194   6.912   2.649   0.799 -0.1857 -0.0124 -0.3389
 1212TIP3    H125195   6.874   2.717   0.854  1.9423  0.1668  1.0235
 1212TIP3    H225196   6.985   2.691   0.754  2.1288 -1.6068  1.6585
 1213TIP3   OH225197   0.381   3.660   7.008  0.1651 -0.2155 -0.2878
 1213TIP3    H125198   0.443   3.663   7.081 -0.2215  1.9685  0.0152
 1213TIP3    H225199   0.299   3.632   7.047 -1.0569  4.3662  1.0981
 1214TIP3   OH225200   4.535   5.682   0.718 -0.2342  0.0123 -0.2964
 1214TIP3    H125201   4.495   5.766   0.740 -1.1186 -0.4627 -0.0536
 1214TIP3    H225202   4.575   5.653   0.800 -1.8331 -0.8256  0.2309
 1215TIP3   OH225203   1.502   3.740   1.071  0.0099 -0.0911  0.5927
 1215TIP3    H125204   1.498   3.645   1.077  0.3126 -0.2131 -0.7518
 1215TIP3    H225205   1.588   3.763   1.107  0.9078 -0.5597 -1.1575
 1216TIP3   OH225206   7.036   5.017   6.918 -0.4089  0.4887  0.1204
 1216TIP3    H125207   6.988   4.948   6.872  0.6000  0.8355 -1.5130
 1216TIP3    H225208   6.977   5.092   6.918  0.3746  1.2254 -2.7344
 1217TIP3   OH225209   4.922   2.861   0.233  0.4659  0.0166 -0.4827
 1217TIP3    H125210   4.832   2.842   0.260  0.6260  0.4207  0.3577
 1217TIP3    H225211   4.917   2.865   0.138 -0.1111 -1.4445 -0.5540
 1218TIP3   OH225212   6.757   1.452   0.336  0.7411  0.1154 -1.2363
 1218TIP3    H125213   6.795   1.384   0.280 -1.4555 -2.2085 -0.0960
 1218TIP3    H225214   6.686   1.490   0.284 -0.3312 -1.0116 -0.6579
 1219TIP3   OH225215   5.254   2.936   0.638 -0.3292 -0.0803 -0.7017
 1219TIP3    H125216   5.301   3.019   0.638 -0.6832  0.1462  0.4883
 1219TIP3    H225217   5.188   2.944   0.569  0.1725  0.3048 -1.1383
 1220TIP3   OH225218   2.717   2.313   7.016  0.2407 -0.4756 -0.7475
 1220TIP3    H125219   2.803   2.344   7.045  0.0286 -1.0069  0.5230
 1220TIP3    H225220   2.732   2.222   6.991 -0.0459 -0.7210 -0.0378
 1221TIP3   OH225221   1.767   3.241   7.271 -0.0399  0.0584  0.3341
 1221TIP3    H125222   1.746   3.149   7.284  0.7610 -0.5527 -2.0792
 1221TIP3    H225223   1.861   3.247   7.288  0.3722 -0.1104 -1.5944
 1222TIP3   OH225224   1.990   6.829   7.956 -0.4782  0.1434  0.0099
 1222TIP3    H125225   2.054   6.787   7.899 -1.1249  0.2992 -0.8471
 1222TIP3    H225226   2.014   6.799   8.044  1.7678  1.4850 -0.0672
 1223TIP3   OH225227   5.752   1.682   7.076 -0.1902 -0.2027  0.2043
 1223TIP3    H125228   5.828   1.739   7.064  1.3453 -2.0064  0.7711
 1223TIP3    H225229   5.756   1.622   7.001 -3.6879  2.3010 -2.2594
 1224TIP3   OH225230   0.332   5.666   7.879 -0.3828  0.0407 -0.3441
 1224TIP3    H125231   0.422   5.659   7.911  0.6476  3.1651 -2.1888
 1224TIP3    H225232   0.316   5.582   7.834  1.5990 -0.5642 -0.0013
 1225TIP3   OH225233   1.067   3.839   0.580 -0.5232  0.1636 -0.2521
 1225TIP3    H125234   1.057   3.799   0.494 -1.0833 -2.6109  0.9906
 1225TIP3    H225235   1.160   3.829   0.600 -0.1281  1.9925 -1.0113
 1226TIP3   OH225236   2.181   3.963   1.957 -0.0477 -0.7650  0.3240
 1226TIP3    H125237   2.163   3.870   1.944 -0.7723 -0.4104 -1.5758
 1226TIP3    H225238   2.178   4.001   1.869 -0.5855  1.1959  1.1190
 1227TIP3   OH225239   6.124   0.226   1.626 -0.2431 -0.3759  0.0358
 1227TIP3    H125240   6.205   0.276   1.641  0.1088 -0.6856 -0.8074
 1227TIP3    H225241   6.152   0.149   1.577 -1.1722 -0.0760 -0.9992
 1228TIP3   OH225242   5.853   4.123   1.815 -0.3044 -0.3767 -0.2020
 1228TIP3    H125243   5.849   4.113   1.720  1.7460  0.0351 -0.3780
 1228TIP3    H225244   5.862   4.033   1.848 -0.4959 -0.4809 -0.4338
 1229TIP3   OH225245   1.126   4.578   0.956 -0.3191  0.0229 -0.0973
 1229TIP3    H125246   1.088   4.622   0.880 -0.3414  0.5328  0.2063
 1229TIP3    H225247   1.208   4.625   0.972  0.6719 -1.3076 -0.9919
 1230TIP3   OH225248   0.460   4.122   2.666 -0.0458  0.5659  0.2445
 1230TIP3    H125249   0.540   4.108   2.616  2.3313 -1.4268  4.1207
 1230TIP3    H225250   0.439   4.036   2.703 -2.8859  1.4385  0.9535
 1231TIP3   OH225251   6.150   1.512   7.084  0.6354 -0.3986 -0.0608
 1231TIP3    H125252   6.186   1.600   7.075 -2.2996  0.8005 -1.1542
 1231TIP3    H225253   6.166   1.471   6.998 -0.4208  0.0912 -0.5052
 1232TIP3   OH225254   3.545   5.766   1.117 -0.3764  0.3267 -0.4388
 1232TIP3    H125255   3.597   5.831   1.070  0.9628 -0.7528 -0.5392
 1232TIP3    H225256   3.521   5.702   1.050 -0.3387 -0.0898 -0.0607
 1233TIP3   OH225257   7.059   2.022   7.439  0.4178 -0.3503  0.5664
 1233TIP3    H125258   7.112   2.045   7.363 -0.8041  0.2955 -0.1100
 1233TIP3    H225259   7.123   1.992   7.504  1.5168 -0.5292 -0.5569
 1234TIP3   OH225260   1.455   0.740   7.949  0.4343 -0.0549  0.5327
 1234TIP3    H125261   1.526   0.754   7.887 -0.1558  0.4471 -0.0492
 1234TIP3    H225262   1.458   0.817   8.007 -1.5718  1.6848 -1.4482
 1235TIP3   OH225263   0.442   2.438   1.380 -0.2909  0.1421  0.2559
 1235TIP3    H125264   0.467   2.411   1.291 -0.0520  0.3078  0.2688
 1235TIP3    H225265   0.445   2.358   1.431 -1.4520 -0.1399 -0.1050
 1236TIP3   OH225266   6.988   3.869   7.231 -0.0959 -0.0601  0.3699
 1236TIP3    H125267   6.988   3.851   7.137  0.4641  1.4876  0.0281
 1236TIP3    H225268   7.041   3.799   7.269 -0.9234 -1.1129 -0.3556
 1237TIP3   OH225269   0.262   6.907   6.887  0.0293  0.5776 -0.3915
 1237TIP3    H125270   0.177   6.864   6.896 -0.2370  0.7736 -1.7835
 1237TIP3    H225271   0.242   6.992   6.847  0.8902  0.5597 -0.8841
 1238TIP3   OH225272   0.715   3.321   1.215 -0.6887 -0.4736 -0.6506
 1238TIP3    H125273   0.647   3.350   1.156 -1.4950 -3.1064 -1.1697
 1238TIP3    H225274   0.668   3.285   1.291  0.2690  1.0391  0.7323
 1239TIP3   OH225275   0.044   3.397   6.802 -0.3874  0.3984  0.2444
 1239TIP3    H125276   0.073   3.308   6.818  0.4873  1.1229  3.2896
 1239TIP3    H225277  -0.051   3.395   6.814 -0.2408  0.0451  1.4632
 1240TIP3   OH225278   4.043   0.109   0.741  0.0370 -0.0021  0.4193
 1240TIP3    H125279   3.952   0.118   0.712  0.1920 -0.3949 -0.2052
 1240TIP3    H225280   4.095   0.145   0.669  0.4330 -1.0135  0.1808
 1241TIP3   OH225281   1.602   1.457   7.633  0.3057 -0.5647 -0.6365
 1241TIP3    H125282   1.675   1.508   7.667  0.4946 -0.1304 -1.6441
 1241TIP3    H225283   1.554   1.428   7.710  0.7543  0.3152 -0.0162
 1242TIP3   OH225284   2.552   3.684   6.676 -0.2465  0.1683 -0.1697
 1242TIP3    H125285   2.577   3.620   6.609  1.2972  1.7419 -1.1913
 1242TIP3    H225286   2.470   3.721   6.644 -0.2147 -0.0418 -0.5056
 1243TIP3   OH225287   0.597   4.202   0.470 -0.4290  0.4962  0.4593
 1243TIP3    H125288   0.518   4.151   0.450 -2.3154  3.1345  0.6093
 1243TIP3    H225289   0.626   4.237   0.386 -0.6795  1.2056  0.6607
 1244TIP3   OH225290   1.041   2.529   1.232 -0.1816  0.2697 -0.1337
 1244TIP3    H125291   0.997   2.587   1.295 -0.8935  0.2088 -0.5610
 1244TIP3    H225292   1.092   2.588   1.177  2.4656  0.1597  1.9718
 1245TIP3   OH225293   2.318   1.162   7.416 -0.2490  0.0600  0.6857
 1245TIP3    H125294   2.361   1.139   7.498  0.0402  1.1289  0.8468
 1245TIP3    H225295   2.254   1.092   7.402  0.9675 -1.1148  0.8532
 1246TIP3   OH225296   5.700   6.938   1.538 -0.0147 -0.7667 -0.2055
 1246TIP3    H125297   5.742   6.852   1.532  1.1548 -0.1922 -0.5934
 1246TIP3    H225298   5.608   6.919   1.556 -0.2740 -2.1982 -2.5923
 1247TIP3   OH225299   2.589   4.656   0.985  0.8122  0.5159  0.3637
 1247TIP3    H125300   2.661   4.705   1.025  1.7461 -1.2444  0.9724
 1247TIP3    H225301   2.560   4.596   1.054  1.3170 -1.4184 -1.0055
 1248TIP3   OH225302   4.374   4.169   0.503  0.1063  0.2993 -0.4193
 1248TIP3    H125303   4.402   4.119   0.580 -0.4272  1.4249  0.5406
 1248TIP3    H225304   4.440   4.237   0.492  0.8144 -0.5466 -1.7041
 1249TIP3   OH225305   2.955   2.930   7.463  0.3064  0.1962 -0.6222
 1249TIP3    H125306   2.896   2.894   7.528  2.3394  0.8659  1.7559
 1249TIP3    H225307   2.944   3.025   7.471  1.5196  0.3248 -0.2651
 1250TIP3   OH225308   3.840   1.421   7.684 -0.9544 -0.3382  0.1574
 1250TIP3    H125309   3.879   1.497   7.727 -0.3771 -1.2604  1.3371
 1250TIP3    H225310   3.747   1.425   7.706 -1.1138  0.5731 -0.6511
 1251TIP3   OH225311   6.011   0.154   7.976 -0.8158 -1.1627  0.3953
 1251TIP3    H125312   5.918   0.135   7.964 -1.7818  0.9207  3.4789
 1251TIP3    H225313   6.039   0.093   8.044 -0.0713 -1.2738  0.0025
 1252TIP3   OH225314   5.572   1.932   6.847 -0.3353  0.6716 -0.1067
 1252TIP3    H125315   5.609   2.017   6.825 -1.0949  1.5869  1.9220
 1252TIP3    H225316   5.478   1.948   6.853 -0.7291 -0.8144 -1.7598
 1253TIP3   OH225317   6.239   5.926   2.727  0.6968 -0.4237 -0.2032
 1253TIP3    H125318   6.318   5.928   2.782  0.9754 -1.0030 -0.5632
 1253TIP3    H225319   6.259   5.860   2.660  0.6127  0.7095 -1.3804
 1254TIP3   OH225320   2.957   0.761   0.164 -0.0712 -0.1914 -0.0501
 1254TIP3    H125321   3.012   0.816   0.220  2.0552  0.7003 -2.8037
 1254TIP3    H225322   2.978   0.671   0.192  0.6489  0.2311  0.8374
 1255TIP3   OH225323   4.457   5.275   1.709  0.2817  0.1595 -0.0587
 1255TIP3    H125324   4.439   5.368   1.720  1.4206  0.3379  0.4641
 1255TIP3    H225325   4.454   5.239   1.797  3.7532  0.4986  0.3438
 1256TIP3   OH225326   3.681   5.000   6.619 -0.2782  0.6536 -0.0707
 1256TIP3    H125327   3.750   5.020   6.556 -1.1227  2.0668 -0.6035
 1256TIP3    H225328   3.686   5.071   6.683  0.9808 -1.0895  1.8905
 1257TIP3   OH225329   0.510   5.806   2.587 -0.1031 -0.5023 -0.3721
 1257TIP3    H125330   0.568   5.834   2.516 -0.7664  0.6155 -0.5042
 1257TIP3    H225331   0.550   5.726   2.621  1.9628  0.6446  0.0657
 1258TIP3   OH225332   4.505   5.707   7.553 -0.3946 -0.0457 -0.1212
 1258TIP3    H125333   4.434   5.768   7.576 -1.3431 -1.4747  0.9119
 1258TIP3    H225334   4.545   5.685   7.637  0.5564 -0.1291 -0.5905
 1259TIP3   OH225335   0.062   2.076   7.208 -0.4109 -0.2237  0.2404
 1259TIP3    H125336   0.128   2.070   7.139  1.3906 -0.9448  1.9282
 1259TIP3    H225337   0.016   2.157   7.190  3.0621  2.0635  0.7324
 1260TIP3   OH225338   3.597   4.101   0.667  0.2865  0.5595  0.6318
 1260TIP3    H125339   3.567   4.191   0.675 -0.0928  0.4330  0.6670
 1260TIP3    H225340   3.535   4.050   0.719  1.4178  0.4544  1.9242
 1261TIP3   OH225341   6.474   7.010   5.053  0.6951 -0.2530 -0.4020
 1261TIP3    H125342   6.446   6.986   5.142  0.0774 -0.1412 -0.5597
 1261TIP3    H225343   6.513   7.097   5.062 -0.4159  0.2632 -0.4161
 1262TIP3   OH225344   4.721   5.322   1.931 -0.4552  0.1589 -0.3660
 1262TIP3    H125345   4.712   5.242   1.879 -1.2850  0.7333 -1.1464
 1262TIP3    H225346   4.750   5.387   1.867 -0.8686  0.7288  0.0238
 1263TIP3   OH225347   6.720   5.622   7.660 -0.1722 -0.1833  0.4735
 1263TIP3    H125348   6.649   5.633   7.723 -0.1391  2.9732  0.1280
 1263TIP3    H225349   6.680   5.642   7.575  1.0914  1.7660  0.2851
 1264TIP3   OH225350   5.838   0.619   7.215 -0.6388 -0.2940  0.1762
 1264TIP3    H125351   5.806   0.687   7.274  0.1326 -1.0852  1.5684
 1264TIP3    H225352   5.826   0.538   7.264  4.5890 -0.6410  1.5043
 1265TIP3   OH225353   4.444   7.049   1.101  0.2252  0.0574 -0.1880
 1265TIP3    H125354   4.438   7.116   1.033 -0.9276 -0.1174 -0.2833
 1265TIP3    H225355   4.537   7.027   1.105  0.2385 -0.5053 -2.2730
 1266TIP3   OH225356   2.927   6.908   7.889 -0.2815 -0.0772  0.3440
 1266TIP3    H125357   2.891   6.948   7.969 -0.9274  3.1426 -1.3709
 1266TIP3    H225358   2.995   6.969   7.860 -1.0861 -0.3162 -2.3423
 1267TIP3   OH225359   1.694   6.647   7.000  0.4924  0.3802 -0.3652
 1267TIP3    H125360   1.649   6.731   6.990 -1.6343 -0.4796  1.2132
 1267TIP3    H225361   1.659   6.592   6.930 -1.7171 -0.5305  1.3164
 1268TIP3   OH225362   2.719   1.440   7.822  0.7554 -0.1148 -0.3049
 1268TIP3    H125363   2.759   1.358   7.851 -1.6033 -0.7643  1.4234
 1268TIP3    H225364   2.683   1.419   7.735 -0.6512 -1.2674  0.5157
 1269TIP3   OH225365   1.253   6.315   7.332 -0.4237 -1.0056  0.2341
 1269TIP3    H125366   1.293   6.230   7.315  1.7596 -0.1208  0.5655
 1269TIP3    H225367   1.199   6.332   7.255  0.6245 -1.8652 -0.7295
 1270TIP3   OH225368   1.395   4.571   7.845 -0.1057 -0.2790 -0.6121
 1270TIP3    H125369   1.325   4.635   7.849 -1.3199 -1.6128  1.6307
 1270TIP3    H225370   1.352   4.489   7.822  1.2932 -0.5391 -2.6284
 1271TIP3   OH225371   4.190   1.705   6.544  0.0143 -0.8220 -0.4289
 1271TIP3    H125372   4.277   1.667   6.534 -0.5959 -1.7425 -3.1741
 1271TIP3    H225373   4.131   1.630   6.537 -1.0464 -0.2223  1.4323
 1272TIP3   OH225374   0.269   3.187   1.923 -0.9354  0.2867 -0.4141
 1272TIP3    H125375   0.282   3.205   1.830 -3.0962 -0.1643 -0.8727
 1272TIP3    H225376   0.340   3.129   1.947  0.1666  1.1121 -1.5462
 1273TIP3   OH225377   3.692   5.380   1.559  0.1357  0.2181  0.4895
 1273TIP3    H125378   3.688   5.317   1.487 -1.1003  2.1987 -1.2904
 1273TIP3    H225379   3.676   5.328   1.637 -2.4603 -1.5175 -1.0260
 1274TIP3   OH225380   4.675   4.075   6.709 -0.1678 -0.3192 -0.3070
 1274TIP3    H125381   4.584   4.055   6.684 -0.8355 -0.1197  1.7208
 1274TIP3    H225382   4.722   4.083   6.626 -2.1099  0.0581 -1.4425
 1275TIP3   OH225383   4.677   0.733   1.230 -0.0896 -0.0397  0.3999
 1275TIP3    H125384   4.649   0.785   1.305  1.4338  2.8347 -0.8582
 1275TIP3    H225385   4.631   0.771   1.156  1.2589 -0.3068 -0.6123
 1276TIP3   OH225386   4.810   5.678   0.220  0.3974 -0.0376  0.5149
 1276TIP3    H125387   4.802   5.585   0.198 -2.1564 -0.3854  2.3510
 1276TIP3    H225388   4.786   5.682   0.313  0.7131  2.4260  0.5477
 1277TIP3   OH225389   5.802   3.841   7.595 -0.6532  0.5400  0.1875
 1277TIP3    H125390   5.851   3.918   7.565 -0.4281  0.5537  0.5793
 1277TIP3    H225391   5.736   3.877   7.655  0.1339  0.3322  1.2023
 1278TIP3   OH225392   4.025   5.287   6.476  0.1445  0.2237  0.0140
 1278TIP3    H125393   4.086   5.245   6.536 -0.6470 -1.2184 -0.1675
 1278TIP3    H225394   3.966   5.217   6.447 -0.7623  1.3034 -0.8596
 1279TIP3   OH225395   3.744   1.527   7.036 -0.6581 -0.0407 -0.1667
 1279TIP3    H125396   3.815   1.487   7.086 -0.7673 -0.0830 -0.0461
 1279TIP3    H225397   3.719   1.604   7.087  2.3958  2.7273 -2.4033
 1280TIP3   OH225398   6.008   4.092   7.062 -0.3416  0.3231 -0.6798
 1280TIP3    H125399   5.930   4.147   7.055 -3.0467 -3.3981 -2.7214
 1280TIP3    H225400   6.044   4.090   6.973  0.9234  0.3514 -0.1908
 1281TIP3   OH225401   4.217   3.364   6.474  0.1760  0.0786  0.0897
 1281TIP3    H125402   4.252   3.370   6.385  1.6802  0.6500  0.6708
 1281TIP3    H225403   4.180   3.450   6.491 -1.0079 -0.3399 -0.3153
 1282TIP3   OH225404   0.867   5.021   2.354  0.2614  0.1027  0.6077
 1282TIP3    H125405   0.949   4.988   2.317  0.5902  0.0260  1.3940
 1282TIP3    H225406   0.820   4.943   2.383  0.7201  0.2536  1.8089
 1283TIP3   OH225407   6.487   6.693   4.816  0.4644  0.4282 -0.0620
 1283TIP3    H125408   6.567   6.655   4.855 -0.7859 -1.3595  0.9039
 1283TIP3    H225409   6.504   6.787   4.815  1.7734  0.3071  2.1265
 1284TIP3   OH225410   1.626   2.458   0.947  0.3603  0.2091 -0.3971
 1284TIP3    H125411   1.594   2.371   0.970 -0.9606  0.5940 -0.6969
 1284TIP3    H225412   1.614   2.464   0.852 -2.1131  1.6596 -0.0779
 1285TIP3   OH225413   6.641   0.370   0.252 -0.3872  0.2181 -0.1228
 1285TIP3    H125414   6.593   0.299   0.295  0.2984 -0.0044  0.2887
 1285TIP3    H225415   6.692   0.327   0.184 -2.6723  0.7387 -2.3248
 1286TIP3   OH225416   0.884   5.564   7.584 -0.6004  0.7152  0.3215
 1286TIP3    H125417   0.954   5.525   7.531 -2.6624 -1.5642 -0.9502
 1286TIP3    H225418   0.827   5.608   7.521 -3.5833 -2.7788  0.2598
 1287TIP3   OH225419   6.863   1.466   7.490 -0.0788 -0.1318  0.0859
 1287TIP3    H125420   6.786   1.446   7.437 -0.8430 -0.7191  1.3552
 1287TIP3    H225421   6.845   1.551   7.528  0.0073 -0.1656  0.2025
 1288TIP3   OH225422   4.278   5.009   2.280 -0.0199 -0.3584  0.7742
 1288TIP3    H125423   4.332   5.038   2.353  0.1762 -1.9922  1.3210
 1288TIP3    H225424   4.340   4.998   2.208  0.0502 -0.2859  0.8224
 1289TIP3   OH225425   5.058   3.055   6.590 -0.2383  0.3589  0.0087
 1289TIP3    H125426   5.077   2.962   6.605 -0.1823  0.4241  0.3446
 1289TIP3    H225427   5.128   3.084   6.532 -1.3214 -0.2727 -1.6817
 1290TIP3   OH225428   3.839   4.460   1.575  0.0139  0.1558 -0.5961
 1290TIP3    H125429   3.894   4.487   1.649 -1.2352  0.3877  0.2639
 1290TIP3    H225430   3.831   4.365   1.584 -0.9932  0.3005  0.1930
 1291TIP3   OH225431   5.026   4.412   0.967  0.5310 -0.6081  0.4189
 1291TIP3    H125432   5.117   4.402   0.937  0.9495 -0.3402  1.5611
 1291TIP3    H225433   4.996   4.493   0.925  1.0044 -0.3990  0.4739
 1292TIP3   OH225434   0.395   4.247   1.455  0.5377 -0.3365  0.1733
 1292TIP3    H125435   0.470   4.255   1.515 -0.1428 -0.7749  1.1039
 1292TIP3    H225436   0.422   4.179   1.393  0.6049 -1.0846  0.9950
 1293TIP3   OH225437   0.247   3.939   2.492 -0.1870 -0.2628  0.1735
 1293TIP3    H125438   0.197   3.935   2.411  1.4579 -2.6345 -0.8551
 1293TIP3    H225439   0.331   3.978   2.466  0.5863 -1.6248  0.5617
 1294TIP3   OH225440   2.199   1.557   1.806  0.5157  0.6501 -0.0007
 1294TIP3    H125441   2.131   1.602   1.857 -0.3731  0.7625 -1.2388
 1294TIP3    H225442   2.271   1.546   1.868 -0.2147  1.4919  1.0561
 1295TIP3   OH225443   2.853   3.039   1.364 -0.2445  0.9589 -0.3518
 1295TIP3    H125444   2.877   3.005   1.450  0.5781  0.8911 -0.5980
 1295TIP3    H225445   2.819   2.964   1.316  1.9272  0.3494 -1.0259
 1296TIP3   OH225446   7.107   6.538   6.766 -0.4836  0.1074 -0.2551
 1296TIP3    H125447   7.162   6.466   6.796 -0.5433  0.0894 -0.1872
 1296TIP3    H225448   7.163   6.590   6.708 -0.9626 -1.0288 -1.8223
 1297TIP3   OH225449   3.188   0.453   1.012  0.5584  0.0859 -0.0400
 1297TIP3    H125450   3.104   0.439   0.967 -0.9821  1.0630  2.3589
 1297TIP3    H225451   3.217   0.539   0.981  0.0645  0.2658 -0.0185
 1298TIP3   OH225452   6.838   4.447   1.624  0.2536 -0.8698  0.0451
 1298TIP3    H125453   6.749   4.440   1.657 -0.8279 -0.0394 -2.4792
 1298TIP3    H225454   6.839   4.529   1.573  3.1564  0.4721  1.9469
 1299TIP3   OH225455   1.428   0.059   6.712 -0.2880  0.3709  0.2474
 1299TIP3    H125456   1.476   0.060   6.630  0.7425 -2.0572  0.7347
 1299TIP3    H225457   1.424  -0.033   6.737 -3.3630  0.6600  1.3548
 1300TIP3   OH225458   6.763   5.812   6.429  0.2139 -0.1715  0.3604
 1300TIP3    H125459   6.807   5.876   6.373 -0.0689  0.2884  0.6572
 1300TIP3    H225460   6.689   5.859   6.466 -1.7463 -1.4859 -1.6830
 1301TIP3   OH225461   3.794   0.580   0.132  0.0244  0.1710 -0.0692
 1301TIP3    H125462   3.879   0.587   0.177 -0.2984  1.1544  0.4254
 1301TIP3    H225463   3.770   0.488   0.140  0.4237  0.1437  0.9639
 1302TIP3   OH225464   2.367   4.780   6.752  0.1561 -0.3087 -0.7683
 1302TIP3    H125465   2.359   4.761   6.659 -1.1958 -0.4966 -0.6406
 1302TIP3    H225466   2.430   4.851   6.758 -1.8225  1.6651 -2.0898
 1303TIP3   OH225467   6.958   5.241   0.121 -0.2730  0.3433 -0.1998
 1303TIP3    H125468   6.955   5.146   0.135  0.0384  0.1406 -1.4166
 1303TIP3    H225469   7.020   5.253   0.050  0.3867  1.5511  0.5527
 1304TIP3   OH225470   3.155   0.226   1.198  0.1494  0.2007 -0.1953
 1304TIP3    H125471   3.155   0.305   1.144  0.1745 -1.3859 -2.6552
 1304TIP3    H225472   3.241   0.186   1.184 -0.0550 -0.5481  0.5730
 1305TIP3   OH225473   2.147   0.790   1.571  0.5341 -0.7140  0.3167
 1305TIP3    H125474   2.161   0.884   1.559  0.8676 -0.7944  0.0640
 1305TIP3    H225475   2.057   0.776   1.543  0.7319 -0.5979 -0.4031
 1306TIP3   OH225476   2.167   6.271   1.044 -0.7324 -0.0830  0.0035
 1306TIP3    H125477   2.165   6.175   1.037  0.6353 -0.0813 -0.6735
 1306TIP3    H225478   2.079   6.294   1.072 -1.5765 -1.4178 -1.4029
 1307TIP3   OH225479   6.737   4.083   6.318  0.4003  0.0435 -0.1088
 1307TIP3    H125480   6.700   4.065   6.404 -0.8134 -0.5919 -0.7274
 1307TIP3    H225481   6.761   3.998   6.283 -1.4827 -0.0417 -1.3777
 1308TIP3   OH225482   2.276   3.582   0.648 -0.6636  0.1675 -0.3352
 1308TIP3    H125483   2.288   3.529   0.570  0.3326  0.7509 -0.5886
 1308TIP3    H225484   2.263   3.518   0.718 -0.7629 -0.3748 -0.8424
 1309TIP3   OH225485   5.308   2.742   7.893  0.6447  0.8190  0.5120
 1309TIP3    H125486   5.225   2.695   7.889  2.2411 -2.1817 -0.6460
 1309TIP3    H225487   5.298   2.802   7.967 -1.3625 -1.8520  2.6050
 1310TIP3   OH225488   5.049   3.957   7.688 -0.4137 -0.2997  0.1833
 1310TIP3    H125489   5.048   3.890   7.620 -2.5933 -2.4014  2.1028
 1310TIP3    H225490   5.141   3.964   7.714 -0.2077 -3.3727  0.6043
 1311TIP3   OH225491   4.165   1.666   1.491 -0.0150  0.8454 -0.5139
 1311TIP3    H125492   4.210   1.751   1.490 -0.9102  1.3322 -0.9537
 1311TIP3    H225493   4.233   1.603   1.518 -0.0205  2.0678  2.8585
 1312TIP3   OH225494   2.577   3.137   0.428  0.0239 -0.4354  0.5882
 1312TIP3    H125495   2.561   3.130   0.522 -1.5306 -0.0802  0.3880
 1312TIP3    H225496   2.602   3.228   0.414  0.9125 -0.6498  0.7278
 1313TIP3   OH225497   2.494   5.451   1.000  0.1288  0.5237  0.0368
 1313TIP3    H125498   2.455   5.415   0.921  0.7857 -0.3422  0.0931
 1313TIP3    H225499   2.584   5.420   0.999  0.2224  0.7174  0.9938
 1314TIP3   OH225500   0.133   3.793   7.406 -0.2801 -0.3827  0.1945
 1314TIP3    H125501   0.227   3.780   7.400 -0.4196 -0.7701 -1.8820
 1314TIP3    H225502   0.096   3.739   7.336 -2.2553 -1.9713  2.2979
 1315TIP3   OH225503   0.363   1.493   6.778  0.1154  0.4414 -0.1875
 1315TIP3    H125504   0.368   1.536   6.693 -0.3003  0.5047 -0.1840
 1315TIP3    H225505   0.449   1.504   6.816  0.2477  0.5768 -0.5225
 1316TIP3   OH225506   4.197   3.106   7.525  0.1607  0.4807 -0.3562
 1316TIP3    H125507   4.277   3.103   7.577 -0.7958 -0.0317  1.1292
 1316TIP3    H225508   4.152   3.024   7.544  0.0495 -0.0141 -2.4862
 1317TIP3   OH225509   4.616   0.787   6.928 -0.1370 -0.2029  0.8762
 1317TIP3    H125510   4.697   0.755   6.967  0.0348  1.2265  1.7756
 1317TIP3    H225511   4.548   0.764   6.992 -0.8355 -3.2272 -0.7835
 1318TIP3   OH225512   4.966   5.789   2.452  0.2209  0.1236  0.1014
 1318TIP3    H125513   4.919   5.728   2.508 -1.7333  1.7059  0.2849
 1318TIP3    H225514   5.011   5.848   2.513  0.8671 -0.2140 -0.0478
 1319TIP3   OH225515   6.738   3.486   7.296  0.0186  0.1715 -0.5608
 1319TIP3    H125516   6.762   3.470   7.205  0.4859 -0.2371 -0.3716
 1319TIP3    H225517   6.649   3.450   7.304  0.1614 -0.2265 -0.7381
 1320TIP3   OH225518   1.950   2.768   7.368 -0.3708 -0.5169  0.0889
 1320TIP3    H125519   1.862   2.774   7.330 -0.7582 -0.9380  0.8862
 1320TIP3    H225520   2.008   2.806   7.302 -1.0611 -0.9213 -0.7696
 1321TIP3   OH225521   6.573   5.709   7.059  0.3205 -0.2030 -0.6039
 1321TIP3    H125522   6.548   5.719   7.152 -1.0200  1.6597 -1.0920
 1321TIP3    H225523   6.604   5.796   7.034 -1.0801 -0.1554 -2.3549
 1322TIP3   OH225524   4.696   6.589   7.643 -0.0065  0.3785 -0.0054
 1322TIP3    H125525   4.632   6.524   7.613  1.1114 -0.3065 -0.9796
 1322TIP3    H225526   4.749   6.541   7.706  0.0210  0.7338  0.2421
 1323TIP3   OH225527   5.415   2.655   0.479 -0.5917 -0.0558  0.1797
 1323TIP3    H125528   5.484   2.711   0.444 -1.4757  0.0793 -1.4629
 1323TIP3    H225529   5.343   2.715   0.498 -0.6300 -0.3222  0.9235
 1324TIP3   OH225530   4.257   0.496   0.968  0.9619  0.4081 -0.1842
 1324TIP3    H125531   4.220   0.541   1.044  1.3555  1.2971 -0.4946
 1324TIP3    H225532   4.346   0.529   0.961  0.3873  1.7811 -2.0698
 1325TIP3   OH225533   4.775   6.286   7.008  0.7696 -0.4171 -0.5034
 1325TIP3    H125534   4.826   6.268   7.087 -1.8618 -0.5930  1.2678
 1325TIP3    H225535   4.719   6.209   6.997 -0.5362  0.5823 -1.1656
 1326TIP3   OH225536   5.476   1.732   1.727  0.7491 -0.3152 -0.1078
 1326TIP3    H125537   5.474   1.786   1.648 -0.3825  1.9779  1.3726
 1326TIP3    H225538   5.444   1.790   1.796  0.6970 -2.5466  1.8564
 1327TIP3   OH225539   3.128   3.452   7.076  0.1244  0.4267 -0.1093
 1327TIP3    H125540   3.140   3.531   7.130  1.3792 -0.6814  1.3224
 1327TIP3    H225541   3.137   3.379   7.138 -1.4459 -0.8616 -1.3148
 1328TIP3   OH225542   3.972   5.680   2.069 -0.2039 -0.2474 -0.6509
 1328TIP3    H125543   4.027   5.658   2.145 -0.9731 -1.0676 -0.3214
 1328TIP3    H225544   3.904   5.738   2.104  0.8298  1.3702 -1.1959
 1329TIP3   OH225545   1.145   2.109   0.409 -0.0111 -0.8002 -0.2936
 1329TIP3    H125546   1.159   2.036   0.349  3.5059 -1.2945  0.9266
 1329TIP3    H225547   1.185   2.082   0.491  0.2816  1.9833  0.5973
 1330TIP3   OH225548   2.822   0.634   1.194 -0.2526  0.3402  0.4645
 1330TIP3    H125549   2.746   0.692   1.186 -0.7688 -0.3748  0.0340
 1330TIP3    H225550   2.821   0.605   1.285 -1.0058 -0.3244  0.2598
 1331TIP3   OH225551   3.431   0.360   2.160 -0.1414 -0.5361 -0.2555
 1331TIP3    H125552   3.437   0.316   2.076  1.0052 -0.5238 -0.1996
 1331TIP3    H225553   3.482   0.306   2.220 -1.2919 -0.7701  0.5429
 1332TIP3   OH225554   1.835   5.339   7.000 -0.5921  0.6839  0.6532
 1332TIP3    H125555   1.773   5.380   7.060 -2.5087 -0.3507 -0.4918
 1332TIP3    H225556   1.866   5.262   7.048 -0.2109  1.1845  1.2230
 1333TIP3   OH225557   3.581   1.284   1.720  0.0689 -0.2137  0.4623
 1333TIP3    H125558   3.672   1.282   1.689 -0.7748 -1.5011 -2.2245
 1333TIP3    H225559   3.572   1.205   1.773  0.3350 -0.4573  0.1451
 1334TIP3   OH225560   2.557   0.595   7.618 -0.4376 -0.1665 -0.1687
 1334TIP3    H125561   2.611   0.639   7.684 -1.2740  0.3199  0.2113
 1334TIP3    H225562   2.612   0.524   7.585  1.1055  1.3705 -1.0636
 1335TIP3   OH225563   4.298   3.391   7.290  0.0704 -0.5986  0.3038
 1335TIP3    H125564   4.224   3.443   7.260 -0.0448 -1.4301 -0.9267
 1335TIP3    H225565   4.318   3.425   7.377 -0.7726  0.6650  0.0274
 1336TIP3   OH225566   3.415   2.571   1.733  0.3279 -0.1799  0.5268
 1336TIP3    H125567   3.319   2.572   1.735  0.3072 -1.2435  0.7365
 1336TIP3    H225568   3.439   2.490   1.779  1.3821  1.1038  2.3896
 1337TIP3   OH225569   0.795   6.067   1.588  0.1152  0.2968  0.7887
 1337TIP3    H125570   0.786   6.097   1.498  1.4707 -0.6547  0.3109
 1337TIP3    H225571   0.791   5.971   1.582 -3.1871  0.2117  2.1585
 1338TIP3   OH225572   3.351   6.125   7.448  0.6687 -0.3278 -0.6674
 1338TIP3    H125573   3.348   6.171   7.365  0.5012 -0.5194 -0.7674
 1338TIP3    H225574   3.309   6.041   7.431 -0.1998 -0.0067 -0.1575
 1339TIP3   OH225575   6.192   1.135   1.933 -0.3610  0.2697 -0.0144
 1339TIP3    H125576   6.201   1.206   1.997 -1.9367  0.5256 -0.0372
 1339TIP3    H225577   6.176   1.057   1.986  4.1155 -0.7892  0.2241
 1340TIP3   OH225578   5.352   3.551   1.862 -0.1481  0.8612  0.1402
 1340TIP3    H125579   5.363   3.639   1.825  0.9705  0.1237 -1.4013
 1340TIP3    H225580   5.402   3.552   1.943  1.8877  0.9756 -1.0599
 1341TIP3   OH225581   5.923   7.138   7.654  0.2905 -0.0798 -0.4889
 1341TIP3    H125582   5.838   7.097   7.637 -0.3100  0.7651  0.4007
 1341TIP3    H225583   5.960   7.087   7.726 -0.0415  0.3412 -0.0130
 1342TIP3   OH225584   2.154   6.748   6.653 -0.5629  0.0716  0.1730
 1342TIP3    H125585   2.096   6.818   6.684  1.9068  2.4473 -0.1257
 1342TIP3    H225586   2.106   6.667   6.671 -2.4496  1.6661  3.1973
 1343TIP3   OH225587   5.878   3.082   7.838 -0.3829  0.1413  0.3962
 1343TIP3    H125588   5.822   3.005   7.833  0.3051 -0.2858 -1.5020
 1343TIP3    H225589   5.906   3.086   7.930 -1.1129 -1.3632  0.7046
 1344TIP3   OH225590   4.651   5.134   0.285 -0.0102 -0.2046  0.2689
 1344TIP3    H125591   4.696   5.052   0.263 -0.1242 -0.0897 -0.3956
 1344TIP3    H225592   4.704   5.172   0.355  1.6269  0.5238 -1.3015
 1345TIP3   OH225593   4.862   4.407   2.284  0.7747 -0.2979  0.5656
 1345TIP3    H125594   4.787   4.359   2.249  0.1250 -0.2363  1.8236
 1345TIP3    H225595   4.824   4.490   2.315  1.3750 -0.2266  1.1222
 1346TIP3   OH225596   0.475   2.892   7.997 -0.0310  0.4029  0.3136
 1346TIP3    H125597   0.492   2.920   7.907 -2.6569  0.6009 -0.2130
 1346TIP3    H225598   0.418   2.816   7.987  2.5506 -1.8920  1.8172
 1347TIP3   OH225599   4.851   2.019   1.585  0.0951  0.0607 -0.6222
 1347TIP3    H125600   4.837   1.986   1.496  0.4670  1.0123 -1.0423
 1347TIP3    H225601   4.908   1.955   1.626 -1.4248 -1.2795 -0.5078
 1348TIP3   OH225602   6.106   0.987   2.134 -0.2036 -0.0832 -0.2173
 1348TIP3    H125603   6.124   1.059   2.194  0.6568 -0.0878 -0.4565
 1348TIP3    H225604   6.018   0.957   2.158 -0.5465  0.9883 -0.0648
 1349TIP3   OH225605   1.201   0.314   1.170  0.1644 -0.1894  0.1178
 1349TIP3    H125606   1.120   0.269   1.193 -0.3392  0.1395 -0.9588
 1349TIP3    H225607   1.271   0.255   1.201 -0.4812 -1.3384 -0.5596
 1350TIP3   OH225608   6.962   0.092   6.604  0.0495 -0.4774  0.0045
 1350TIP3    H125609   6.927   0.169   6.559  0.5749 -0.5253 -0.4971
 1350TIP3    H225610   7.004   0.128   6.683 -0.1228 -0.2998  0.0150
 1351TIP3   OH225611   4.602   5.323   2.593 -0.1081 -0.0685 -0.0942
 1351TIP3    H125612   4.537   5.264   2.554  1.2441 -0.9664 -1.0552
 1351TIP3    H225613   4.686   5.279   2.581  0.5431  0.1822  2.7699
 1352TIP3   OH225614   5.457   6.070   2.643  0.4421  0.2418 -0.8048
 1352TIP3    H125615   5.450   5.982   2.679 -0.8081 -0.0328 -1.6672
 1352TIP3    H225616   5.389   6.120   2.688  1.1321  0.7726 -0.3335
 1353TIP3   OH225617   6.213   5.680   0.067  0.8829 -0.1787 -0.2547
 1353TIP3    H125618   6.192   5.752   0.008 -0.2189  1.3069  1.8029
 1353TIP3    H225619   6.282   5.715   0.124  0.3491 -0.7163  0.7555
 1354TIP3   OH225620   3.418   2.270   0.290 -0.5888 -0.3927  0.2533
 1354TIP3    H125621   3.468   2.273   0.209 -2.3933  0.7009 -0.8879
 1354TIP3    H225622   3.397   2.361   0.309 -1.2149 -0.7365  1.3019
 1355TIP3   OH225623   6.352   6.690   2.383  0.0726  0.1047 -0.2277
 1355TIP3    H125624   6.429   6.739   2.411  0.0349  0.0624 -0.0506
 1355TIP3    H225625   6.341   6.622   2.450 -0.5192  0.5335  0.1177
 1356TIP3   OH225626   5.359   3.378   7.685 -0.7306 -0.2981  0.6202
 1356TIP3    H125627   5.354   3.365   7.590 -3.0230  0.0056  0.6400
 1356TIP3    H225628   5.298   3.314   7.721  0.1306 -0.4307  1.9184
 1357TIP3   OH225629   2.969   5.783   0.200  0.1650 -0.2702  0.7000
 1357TIP3    H125630   2.983   5.877   0.185  0.2441 -0.6972 -2.4337
 1357TIP3    H225631   3.057   5.747   0.210  0.3437 -0.3737 -0.9792
 1358TIP3   OH225632   0.894   2.893   2.268  0.4349 -0.1935  0.3969
 1358TIP3    H125633   0.964   2.829   2.278  1.9663  1.3929  0.3012
 1358TIP3    H225634   0.818   2.854   2.312  1.3870 -1.9136  0.5830
 1359TIP3   OH225635   2.594   1.784   1.131  0.5312 -0.6382  0.2589
 1359TIP3    H125636   2.561   1.791   1.220 -0.4978 -0.6340 -0.1115
 1359TIP3    H225637   2.664   1.850   1.126  1.5610 -1.6112  1.4640
 1360TIP3   OH225638   5.283   5.588   1.466  0.0093  0.1279  0.2571
 1360TIP3    H125639   5.373   5.553   1.471  0.9233  2.3415  0.4614
 1360TIP3    H225640   5.244   5.540   1.392  1.2832 -1.0236  0.2770
 1361TIP3   OH225641   3.673   6.987   0.146 -0.0397 -0.2711 -0.1971
 1361TIP3    H125642   3.591   6.990   0.096 -0.7136  1.0706  0.9342
 1361TIP3    H225643   3.739   7.017   0.084 -0.7382  0.6068 -0.5426
 1362TIP3   OH225644   5.726   6.650   2.793  0.0552 -0.0830 -0.4069
 1362TIP3    H125645   5.656   6.633   2.857  0.2541 -0.1574 -0.2089
 1362TIP3    H225646   5.802   6.673   2.846  0.3581 -0.6362 -0.5935
 1363TIP3   OH225647   6.143   0.326   6.863 -0.7007  0.4704  0.0908
 1363TIP3    H125648   6.211   0.295   6.803 -1.2647  0.7868 -0.7224
 1363TIP3    H225649   6.100   0.247   6.894 -0.6380  0.3273 -0.1878
 1364TIP3   OH225650   4.705   4.275   7.207 -0.1037 -0.5373  0.0817
 1364TIP3    H125651   4.704   4.342   7.275  1.2462 -1.1817  0.7788
 1364TIP3    H225652   4.683   4.321   7.127  0.6255  0.7173  0.5768
 1365TIP3   OH225653   5.989   4.524   1.645 -0.3299 -0.1269  0.1644
 1365TIP3    H125654   6.031   4.609   1.632 -0.9744 -0.0220 -1.3583
 1365TIP3    H225655   6.037   4.465   1.587 -0.9253 -0.4537 -0.0003
 1366TIP3   OH225656   6.608   0.150   1.138  0.0978  0.0781 -0.1443
 1366TIP3    H125657   6.549   0.128   1.210 -0.8102  0.3698 -0.7804
 1366TIP3    H225658   6.682   0.195   1.180 -0.0971 -0.3433  0.6653
 1367TIP3   OH225659   4.886   4.158   1.910 -0.2674  0.4418  0.4924
 1367TIP3    H125660   4.891   4.251   1.934  0.4221  0.6717 -0.4508
 1367TIP3    H225661   4.844   4.158   1.824  1.5958  0.0984 -0.4815
 1368TIP3   OH225662   3.859   5.573   1.647 -0.2620  0.2669  0.1170
 1368TIP3    H125663   3.811   5.494   1.620 -1.0377 -0.1000  2.3544
 1368TIP3    H225664   3.918   5.590   1.574 -0.3778 -2.1276 -0.6470
 1369TIP3   OH225665   2.110   5.978   7.609  0.2142 -0.1409 -0.2339
 1369TIP3    H125666   2.076   5.891   7.592  2.4906 -1.1607 -0.0019
 1369TIP3    H225667   2.200   5.975   7.575  0.3245  2.1392 -0.2888
 1370TIP3   OH225668   5.472   6.463   1.425 -0.1683  0.1471  0.2710
 1370TIP3    H125669   5.417   6.401   1.473  0.0353 -0.7897 -0.6440
 1370TIP3    H225670   5.420   6.543   1.421 -0.3534  0.1221  1.6716
 1371TIP3   OH225671   6.643   4.583   7.139 -0.0469 -0.3005 -0.4073
 1371TIP3    H125672   6.640   4.594   7.044 -2.5872  1.1191 -0.2326
 1371TIP3    H225673   6.562   4.537   7.161  0.3749 -0.3788  1.1092
 1372TIP3   OH225674   4.699   0.189   7.198  0.2208  0.6005  0.2569
 1372TIP3    H125675   4.692   0.278   7.162  1.9938  0.2766 -0.9921
 1372TIP3    H225676   4.719   0.203   7.290 -0.3589  1.4832  0.2678
 1373TIP3   OH225677   2.895   1.870   2.513  0.6529 -0.1052 -0.4691
 1373TIP3    H125678   2.912   1.915   2.596 -0.0355 -0.2015 -0.2693
 1373TIP3    H225679   2.939   1.924   2.447  0.1325  0.6671 -0.1932
 1374TIP3   OH225680   6.198   5.467   1.324 -0.1254  0.0928  0.1309
 1374TIP3    H125681   6.254   5.544   1.337  0.2357 -0.2246  0.5119
 1374TIP3    H225682   6.256   5.402   1.284 -0.9798  0.7274 -2.3092
 1375TIP3   OH225683   3.957   6.322   7.970 -0.2424  0.1036 -0.0909
 1375TIP3    H125684   3.885   6.337   8.032  0.5932 -2.7190  1.7641
 1375TIP3    H225685   3.925   6.254   7.912  0.0178  0.7174 -0.9700
 1376TIP3   OH225686   5.779   2.882   1.154 -0.1202  0.0785 -0.1204
 1376TIP3    H125687   5.692   2.913   1.127  0.1777  1.9154  0.8316
 1376TIP3    H225688   5.819   2.849   1.074 -1.2461  0.3314 -0.8087
 1377TIP3   OH225689   3.618   6.885   1.051  0.1872  0.0137 -0.2808
 1377TIP3    H125690   3.676   6.939   0.997 -0.6133  0.4728 -0.6974
 1377TIP3    H225691   3.551   6.853   0.990 -0.3155 -0.0447  0.2935
 1378TIP3   OH225692   5.120   5.070   1.168  0.0940 -0.4360 -0.2855
 1378TIP3    H125693   5.043   5.113   1.131  0.0406  1.1652  1.5115
 1378TIP3    H225694   5.088   5.031   1.250  1.2514  0.7664  0.7983
 1379TIP3   OH225695   5.118   3.060   0.945 -0.0767  0.4655  0.4007
 1379TIP3    H125696   5.066   3.104   1.013 -0.2973 -0.3165  0.7387
 1379TIP3    H225697   5.148   3.132   0.889  1.5656  1.3522  2.2720
 1380TIP3   OH225698   2.271   1.220   7.857 -0.0581 -0.0858  0.2051
 1380TIP3    H125699   2.325   1.286   7.814 -1.9299  1.3846 -0.0546
 1380TIP3    H225700   2.331   1.173   7.914  1.6959  0.6560 -0.9408
 1381TIP3   OH225701   3.015   0.116   0.878 -0.1274 -0.5341  0.6684
 1381TIP3    H125702   2.980   0.197   0.915  1.3290 -0.2581  1.4875
 1381TIP3    H225703   3.090   0.144   0.825 -2.2034 -0.8623 -2.8148
 1382TIP3   OH225704   3.377   6.214   1.035  0.4426 -0.2733 -0.2894
 1382TIP3    H125705   3.418   6.244   0.954  0.8386 -0.1419 -0.0451
 1382TIP3    H225706   3.301   6.271   1.046  0.5945 -0.0515 -0.3801
 1383TIP3   OH225707   6.400   3.104   2.311  0.6398 -0.1019  0.2214
 1383TIP3    H125708   6.351   3.186   2.300  0.5823  0.0497  1.4786
 1383TIP3    H225709   6.333   3.038   2.329  0.8245 -0.0437  1.1629
 1384TIP3   OH225710   0.030   3.353   1.235 -0.7694 -0.3478 -0.0023
 1384TIP3    H125711   0.116   3.381   1.205 -0.5889 -2.0589 -1.2791
 1384TIP3    H225712  -0.031   3.417   1.197 -0.2113 -0.2944 -0.8392
 1385TIP3   OH225713   5.665   0.553   6.745 -0.0219  0.2388 -0.6076
 1385TIP3    H125714   5.614   0.634   6.753 -0.6358 -0.2434  0.6674
 1385TIP3    H225715   5.700   0.555   6.656 -0.2631  1.7635 -0.6882
 1386TIP3   OH225716   3.643   3.343   0.895  0.1674  0.1439  0.9756
 1386TIP3    H125717   3.554   3.336   0.930 -0.9941  0.4955 -1.6516
 1386TIP3    H225718   3.677   3.254   0.899 -0.6537 -0.1727  1.1962
 1387TIP3   OH225719   0.877   0.813   2.297  0.4755 -0.1436  0.3665
 1387TIP3    H125720   0.868   0.909   2.298 -0.4626 -0.2074  1.8206
 1387TIP3    H225721   0.829   0.784   2.375 -0.1485 -1.8873 -0.6069
 1388TIP3   OH225722   0.507   0.564   1.485  0.2168 -0.4556 -0.5199
 1388TIP3    H125723   0.509   0.605   1.399  0.6297  2.5853  0.8196
 1388TIP3    H225724   0.588   0.592   1.527  0.1358 -2.0759  0.8084
 1389TIP3   OH225725   6.718   0.025   1.997  0.2065 -0.0743  0.6983
 1389TIP3    H125726   6.653  -0.036   2.031 -0.1812  0.4674  0.9370
 1389TIP3    H225727   6.711   0.102   2.054  0.0439  0.5599 -0.1598
 1390TIP3   OH225728   4.966   6.605   0.679 -0.4175  0.6230  0.5948
 1390TIP3    H125729   5.014   6.620   0.598 -0.6754  1.2931  0.5648
 1390TIP3    H225730   4.921   6.522   0.665 -0.4564  0.7330  0.0563
 1391TIP3   OH225731   2.192   3.737   2.926 -0.5624 -0.5516  0.0414
 1391TIP3    H125732   2.286   3.745   2.910 -0.7110  0.5558 -0.3863
 1391TIP3    H225733   2.176   3.792   3.002 -0.8824 -0.6588  0.0531
 1392TIP3   OH225734   0.530   2.008   1.479  0.5416 -0.3030  0.0934
 1392TIP3    H125735   0.545   2.098   1.508 -0.3928 -0.3682  0.8314
 1392TIP3    H225736   0.592   1.996   1.407 -0.0934  1.3040 -0.7861
 1393TIP3   OH225737   0.082   6.728   6.556  0.7496 -0.1364 -0.7932
 1393TIP3    H125738   0.090   6.820   6.530 -0.6481 -0.2997 -1.9213
 1393TIP3    H225739   0.111   6.679   6.479  0.3737 -0.6430 -0.6166
 1394TIP3   OH225740   1.849   3.955   2.469 -0.7995 -0.0943  0.1175
 1394TIP3    H125741   1.825   4.009   2.394  0.4885 -0.7581 -0.8050
 1394TIP3    H225742   1.765   3.924   2.503 -1.4353  0.6130 -0.7467
 1395TIP3   OH225743   0.959   4.074   2.288  0.1183  0.0271 -0.1493
 1395TIP3    H125744   0.920   4.087   2.202 -1.5351  1.2876  0.7439
 1395TIP3    H225745   0.935   3.985   2.313 -0.6585  0.1616 -0.3936
 1396TIP3   OH225746   0.586   4.970   7.947 -0.2523 -0.1394  0.0529
 1396TIP3    H125747   0.508   4.945   7.997 -1.2735 -0.6288 -1.6825
 1396TIP3    H225748   0.568   5.059   7.917 -0.1833 -0.2757 -0.4003
 1397TIP3   OH225749   1.441   2.288   1.853 -0.4277 -0.2242  0.2379
 1397TIP3    H125750   1.413   2.313   1.941 -0.7553  0.4876 -0.0648
 1397TIP3    H225751   1.493   2.209   1.867 -0.6657 -0.2545  1.0469
 1398TIP3   OH225752   2.677   5.713   7.680 -0.0757 -0.2221  0.1013
 1398TIP3    H125753   2.590   5.700   7.719 -0.8260  0.0978 -1.3801
 1398TIP3    H225754   2.712   5.624   7.670  1.0899 -0.2649  3.3944
 1399TIP3   OH225755   1.895   3.448   0.471  0.3979  0.1517  0.4328
 1399TIP3    H125756   1.962   3.408   0.526 -0.2511 -1.1689  0.2918
 1399TIP3    H225757   1.907   3.408   0.385 -0.3563  0.1430  0.3286
 1400TIP3   OH225758   6.188   2.924   2.373 -0.0879  0.5714 -0.0636
 1400TIP3    H125759   6.138   2.849   2.406 -1.3892  1.3687 -0.1793
 1400TIP3    H225760   6.265   2.885   2.332 -0.8981 -0.7279 -0.4113
 1401TIP3   OH225761   5.599   4.157   7.258 -0.5067 -0.4842 -0.2756
 1401TIP3    H125762   5.545   4.200   7.192 -2.0061 -1.8329  0.0358
 1401TIP3    H225763   5.546   4.157   7.338  0.0999 -1.4858  0.1522
 1402TIP3   OH225764   3.228   2.083   2.033  0.3029 -0.2316  0.2893
 1402TIP3    H125765   3.321   2.092   2.010 -0.4208  0.1468 -3.0360
 1402TIP3    H225766   3.228   2.065   2.127  3.5986  2.1939  0.9338
 1403TIP3   OH225767   3.238   1.135   1.593  0.9915  0.0014  0.1532
 1403TIP3    H125768   3.295   1.146   1.669  0.7090  0.9182  0.2445
 1403TIP3    H225769   3.294   1.151   1.518  1.0675 -0.0209  0.2054
 1404TIP3   OH225770   6.605   0.650   0.173 -0.1366 -0.5622 -0.1639
 1404TIP3    H125771   6.631   0.562   0.201  0.5399 -0.6900 -1.1217
 1404TIP3    H225772   6.653   0.663   0.091  1.0966  1.3548  0.8051
 1405TIP3   OH225773   0.085   5.262   0.897  0.1442 -0.2635  0.5670
 1405TIP3    H125774   0.018   5.233   0.959  0.4071 -0.4054  0.7852
 1405TIP3    H225775   0.035   5.301   0.825 -0.1542  0.0799  0.9557
 1406TIP3   OH225776   2.597   2.324   7.276  0.1539 -0.1748  0.1223
 1406TIP3    H125777   2.619   2.348   7.186 -2.1340 -0.4336 -0.5751
 1406TIP3    H225778   2.505   2.297   7.272 -0.2687  0.5953  2.6912
 1407TIP3   OH225779   5.380   4.649   2.643 -0.1408 -0.4769 -0.4676
 1407TIP3    H125780   5.304   4.596   2.665 -0.2985 -0.1331 -0.1671
 1407TIP3    H225781   5.436   4.591   2.592  0.8959 -1.7728  2.0091
 1408TIP3   OH225782   4.709   3.219   7.565 -0.9030 -0.1179  0.2176
 1408TIP3    H125783   4.731   3.302   7.524  0.8254 -1.0310 -0.7977
 1408TIP3    H225784   4.617   3.228   7.590 -0.4778  2.4744  1.1273
 1409TIP3   OH225785   5.239   5.403   1.269  0.3787 -0.2541  0.0604
 1409TIP3    H125786   5.272   5.446   1.190 -2.1799  0.7703 -0.5538
 1409TIP3    H225787   5.279   5.316   1.268  0.5513 -0.2069 -2.2728
 1410TIP3   OH225788   0.421   6.143   0.566 -0.0128 -0.2795  0.4331
 1410TIP3    H125789   0.466   6.209   0.514  3.1895 -1.5798  1.2848
 1410TIP3    H225790   0.412   6.182   0.653 -3.1505  0.9734 -0.3379
 1411TIP3   OH225791   5.980   6.959   7.946 -0.0831 -1.2275 -0.3246
 1411TIP3    H125792   5.906   6.906   7.915 -0.3477 -2.5287  2.2416
 1411TIP3    H225793   5.961   6.973   8.039  1.4248  1.0334 -0.3021
 1412TIP3   OH225794   6.010   2.118   7.810 -0.1774 -0.2871 -1.1718
 1412TIP3    H125795   6.080   2.070   7.854 -0.9059 -0.1623  0.1769
 1412TIP3    H225796   6.045   2.207   7.799  0.8813 -0.8861 -2.9791
 1413TIP3   OH225797   0.449   0.781   1.976 -0.4531  0.3840  0.2946
 1413TIP3    H125798   0.394   0.730   1.917 -2.9771  2.0407  1.0743
 1413TIP3    H225799   0.433   0.742   2.063 -0.1079  0.6620  0.4848
 1414TIP3   OH225800   4.140   4.406   0.767  1.0005 -0.3714  0.3193
 1414TIP3    H125801   4.094   4.343   0.712  1.6470  0.2701 -1.0073
 1414TIP3    H225802   4.071   4.456   0.811  0.4240  0.1707 -1.1574
 1415TIP3   OH225803   0.879   6.866   1.392 -0.2233 -0.7638 -0.2405
 1415TIP3    H125804   0.838   6.789   1.353 -0.9236 -0.2685 -0.4908
 1415TIP3    H225805   0.962   6.875   1.344  0.2202 -1.7872  0.2971
 1416TIP3   OH225806   1.021   1.582   0.826  0.3949 -0.5723 -0.1750
 1416TIP3    H125807   1.022   1.529   0.746 -0.7130  0.1131 -0.6645
 1416TIP3    H225808   0.983   1.665   0.799  0.3868 -0.1866  0.9871
 1417TIP3   OH225809   6.281   6.701   7.429  0.1425  0.6756  0.2924
 1417TIP3    H125810   6.341   6.737   7.364 -0.9179  0.3350 -0.9287
 1417TIP3    H225811   6.245   6.778   7.474 -3.1819  1.5053 -3.2555
 1418TIP3   OH225812   6.302   1.956   0.476  0.0006  0.1392 -0.5788
 1418TIP3    H125813   6.268   1.898   0.409  0.1591  0.7800 -1.2268
 1418TIP3    H225814   6.309   1.901   0.554  0.8114 -0.8919 -1.3480
 1419TIP3   OH225815   3.937   7.034   0.002  0.3669  0.0063  0.8064
 1419TIP3    H125816   3.969   6.957   0.050  0.1585  0.4265  1.6275
 1419TIP3    H225817   3.976   7.025  -0.085  0.4225 -0.9839  0.9148
 1420TIP3   OH225818   6.479   1.446   2.173 -0.1829 -0.7903  0.1369
 1420TIP3    H125819   6.404   1.502   2.152 -0.0081  0.3247  2.2357
 1420TIP3    H225820   6.441   1.358   2.183 -1.4347 -0.1023  2.0127
 1421TIP3   OH225821   3.699   2.726   1.304  0.3721  0.2439 -0.3121
 1421TIP3    H125822   3.652   2.719   1.221  1.0336  1.3187 -0.7996
 1421TIP3    H225823   3.697   2.820   1.324  1.5803  0.1947  0.0891
 1422TIP3   OH225824   6.137   3.833   6.968  0.3139  0.6680 -0.5241
 1422TIP3    H125825   6.178   3.830   6.882  0.3790  1.7075 -0.5382
 1422TIP3    H225826   6.044   3.848   6.950 -0.1927 -1.9610 -0.5047
 1423TIP3   OH225827   4.164   4.875   1.854 -0.3692  0.3110  0.5784
 1423TIP3    H125828   4.146   4.879   1.948  2.5979 -0.7049  1.3225
 1423TIP3    H225829   4.252   4.912   1.845  0.3924 -1.7391 -1.4195
 1424TIP3   OH225830   7.017   3.660   0.202  0.5265 -0.1518 -0.1152
 1424TIP3    H125831   6.924   3.673   0.223  0.9165  2.5679  0.2597
 1424TIP3    H225832   7.059   3.742   0.227  2.9734 -1.1312 -0.7580
 1425TIP3   OH225833   4.112   2.351   6.666 -0.1370 -1.3566 -0.4423
 1425TIP3    H125834   4.141   2.263   6.642  1.2921 -1.5826  1.8329
 1425TIP3    H225835   4.188   2.391   6.708 -1.2670  0.3659  0.0684
 1426TIP3   OH225836   1.617   5.783   0.586  0.0517  0.4490 -0.9165
 1426TIP3    H125837   1.542   5.774   0.526 -0.1013  0.4113 -0.7183
 1426TIP3    H225838   1.627   5.696   0.625  0.5448  0.3013 -1.3523
 1427TIP3   OH225839   6.848   1.672   7.689  1.4712  0.0151 -0.1215
 1427TIP3    H125840   6.794   1.746   7.717  3.5908  1.2923  0.8670
 1427TIP3    H225841   6.938   1.706   7.692  2.6247 -2.8616  1.2390
 1428TIP3   OH225842   0.741   0.650   1.601  0.6480 -0.5244  0.1958
 1428TIP3    H125843   0.808   0.702   1.557 -0.0545  0.4896  0.2745
 1428TIP3    H225844   0.703   0.710   1.665 -3.1036  0.3769 -2.5346
 1429TIP3   OH225845   3.942   2.535   7.575  0.0932  0.2331 -0.5637
 1429TIP3    H125846   3.988   2.618   7.586  1.8372 -0.7080 -0.5349
 1429TIP3    H225847   3.969   2.503   7.488 -1.1459  0.0286 -0.9021
 1430TIP3   OH225848   0.554   4.009   7.479 -0.3706 -0.1727  0.3745
 1430TIP3    H125849   0.603   4.062   7.417 -0.4604 -0.6524 -0.1175
 1430TIP3    H225850   0.489   4.068   7.516 -0.6499  0.0002 -0.3666
 1431TIP3   OH225851   4.317   4.138   7.404 -0.7568  0.6087  0.0132
 1431TIP3    H125852   4.363   4.090   7.473  0.5250 -1.5913 -2.2187
 1431TIP3    H225853   4.225   4.120   7.419 -0.3859 -1.2708  0.1874
 1432TIP3   OH225854   0.644   0.875   7.315 -0.0310  0.1251  0.1026
 1432TIP3    H125855   0.706   0.867   7.388 -0.8184 -1.0080  0.6821
 1432TIP3    H225856   0.693   0.848   7.238  0.7315  1.0688  0.2323
 1433TIP3   OH225857   1.428   3.275   0.668 -0.0045  0.6249  0.3359
 1433TIP3    H125858   1.519   3.304   0.663 -0.2408  1.1664 -1.6697
 1433TIP3    H225859   1.378   3.348   0.632 -1.0638 -0.4294 -0.3967
 1434TIP3   OH225860   6.513   3.871   0.624 -0.1915 -0.0419  0.6101
 1434TIP3    H125861   6.516   3.806   0.694 -1.2428 -0.0791  0.6466
 1434TIP3    H225862   6.457   3.941   0.659 -1.2432 -0.3458 -0.3904
 1435TIP3   OH225863   1.632   4.272   7.965  0.3064  0.0589 -0.2426
 1435TIP3    H125864   1.553   4.269   8.019  0.7979 -0.1547  0.4812
 1435TIP3    H225865   1.671   4.357   7.985  1.0658 -0.4676  0.5973
 1436TIP3   OH225866   3.566   3.671   2.042  0.2108 -0.2542  0.4258
 1436TIP3    H125867   3.535   3.692   2.130 -1.1660 -2.4793  0.5494
 1436TIP3    H225868   3.632   3.738   2.023 -0.8143  1.4218  2.3604
 1437TIP3   OH225869   0.923   3.189   1.550  0.6956  0.0368 -0.4861
 1437TIP3    H125870   0.915   3.273   1.505 -0.1990 -0.3006 -0.9763
 1437TIP3    H225871   0.833   3.161   1.565  0.9113 -1.8298 -2.2374
 1438TIP3   OH225872   3.686   4.894   0.198  0.2785 -0.5144 -0.0701
 1438TIP3    H125873   3.694   4.989   0.191  0.3135 -0.6266 -1.9300
 1438TIP3    H225874   3.607   4.880   0.251  0.9553  0.5229  1.2777
 1439TIP3   OH225875   5.954   2.432   2.306 -0.0804  0.4270 -0.0728
 1439TIP3    H125876   6.046   2.415   2.325 -0.1797 -0.3472 -0.2702
 1439TIP3    H225877   5.953   2.520   2.269  0.4682  0.7937  0.7635
 1440TIP3   OH225878   6.799   5.271   7.899  0.4807  0.4936 -0.9136
 1440TIP3    H125879   6.830   5.313   7.819  1.0530 -2.0684 -2.1502
 1440TIP3    H225880   6.869   5.285   7.962  0.5690  1.5102 -1.2157
 1441TIP3   OH225881   3.552   7.051   0.373 -0.2704 -0.0789 -0.3580
 1441TIP3    H125882   3.599   7.012   0.299  0.9637  0.5410  0.0747
 1441TIP3    H225883   3.598   7.133   0.391  0.0947 -0.6685  1.7232
 1442TIP3   OH225884   3.421   3.807   6.850  0.3760  0.3752 -0.0828
 1442TIP3    H125885   3.425   3.901   6.837 -1.0801  0.5513  0.5828
 1442TIP3    H225886   3.358   3.795   6.921  0.0347 -1.1321 -0.6034
 1443TIP3   OH225887   5.057   5.239   1.688  0.4082 -0.7198 -0.2013
 1443TIP3    H125888   5.039   5.216   1.597 -1.3955 -0.2917  0.0288
 1443TIP3    H225889   5.129   5.180   1.713  0.7793 -0.9979 -1.8091
 1444TIP3   OH225890   4.679   0.213   6.633 -0.1052  0.0385  0.2772
 1444TIP3    H125891   4.720   0.298   6.650  0.6178  0.1669 -1.7865
 1444TIP3    H225892   4.738   0.150   6.675  0.2384  0.4534  0.4319
 1445TIP3   OH225893   6.125   3.593   7.349  0.5968 -0.0003  0.3254
 1445TIP3    H125894   6.076   3.621   7.427 -0.1550  0.2564 -0.2192
 1445TIP3    H225895   6.155   3.505   7.369  0.7335  0.2037  1.0496
 1446TIP3   OH225896   2.039   1.147   1.188 -0.5592 -0.1952 -0.6078
 1446TIP3    H125897   2.063   1.055   1.184 -1.2629 -0.3940 -0.3259
 1446TIP3    H225898   2.112   1.190   1.233 -1.4880 -1.0598  1.8640
 1447TIP3   OH225899   6.118   1.461   1.010 -0.3999 -0.1989  0.2187
 1447TIP3    H125900   6.097   1.395   0.944 -0.9450 -0.4247  0.6136
 1447TIP3    H225901   6.058   1.533   0.993 -1.2400 -0.6757  1.0919
 1448TIP3   OH225902   3.325   0.242   7.826  0.1604 -0.2863  0.3749
 1448TIP3    H125903   3.230   0.233   7.813  0.1785  0.6227 -0.4862
 1448TIP3    H225904   3.336   0.329   7.863  0.6702 -0.3561  0.3979
 1449TIP3   OH225905   6.568   1.616   0.638  0.6588  0.1919 -0.0201
 1449TIP3    H125906   6.614   1.540   0.674 -0.1622  0.0993  0.8826
 1449TIP3    H225907   6.482   1.614   0.680  1.3204  2.8142  1.7367
 1450TIP3   OH225908   5.601   2.853   0.414  0.3502  0.2778  0.2770
 1450TIP3    H125909   5.690   2.847   0.380  0.2762  1.7678 -0.2436
 1450TIP3    H225910   5.585   2.947   0.425 -1.4530  0.1054 -0.4967
 1451TIP3   OH225911   0.205   5.035   1.737  0.3171 -0.4006 -0.0234
 1451TIP3    H125912   0.203   5.000   1.826  1.6991 -2.2684 -0.6686
 1451TIP3    H225913   0.292   5.073   1.728  0.2706 -0.4318 -0.6513
 1452TIP3   OH225914   3.432   2.898   1.446  0.0026  0.5296 -0.3471
 1452TIP3    H125915   3.479   2.870   1.524 -2.1633  0.5031  1.0448
 1452TIP3    H225916   3.470   2.984   1.424  0.6970  0.4990  0.6820
 1453TIP3   OH225917   2.964   4.721   0.457 -0.0969  0.1411  0.6035
 1453TIP3    H125918   2.936   4.630   0.462 -0.1309  0.1789  1.3549
 1453TIP3    H225919   2.891   4.770   0.496 -0.1713  0.5137  0.0105
 1454TIP3   OH225920   4.704   1.582   1.184  0.2050 -0.3018 -0.1903
 1454TIP3    H125921   4.707   1.488   1.204 -0.5779 -0.8195 -2.1776
 1454TIP3    H225922   4.611   1.604   1.187  0.3222  0.2432 -0.4116
 1455TIP3   OH225923   5.402   5.303   6.738  0.5032  0.4515  0.1023
 1455TIP3    H125924   5.362   5.385   6.708  1.2545  1.1674  1.0062
 1455TIP3    H225925   5.493   5.308   6.708  0.3314 -0.4956 -0.6428
 1456TIP3   OH225926   0.194   4.801   0.709 -0.1813 -0.6484 -0.0508
 1456TIP3    H125927   0.183   4.712   0.741  0.4489 -0.6743  0.1204
 1456TIP3    H225928   0.245   4.845   0.778 -0.5758 -0.1238 -0.0823
 1457TIP3   OH225929   0.232   0.229   1.023  0.0478 -0.1726  0.1167
 1457TIP3    H125930   0.266   0.300   1.079 -1.7735  0.3792  0.5789
 1457TIP3    H225931   0.308   0.202   0.971  1.1500  1.1125  0.9750
 1458TIP3   OH225932   4.396   3.246   7.811  0.3718 -0.0997  0.3480
 1458TIP3    H125933   4.393   3.150   7.809  0.6715 -0.0985 -0.1447
 1458TIP3    H225934   4.438   3.271   7.729 -0.6593  0.4988 -0.0097
 1459TIP3   OH225935   3.020   6.004   0.908 -0.8834 -0.7902  0.4638
 1459TIP3    H125936   3.018   6.067   0.980 -0.9766 -0.4563  0.1691
 1459TIP3    H225937   2.962   6.041   0.841  0.5105 -0.2371 -0.4880
 1460TIP3   OH225938   0.755   3.958   0.389 -0.2729  0.5071 -0.0065
 1460TIP3    H125939   0.746   3.971   0.483  0.3610 -1.1632  0.3224
 1460TIP3    H225940   0.694   3.887   0.369 -0.2960  0.7514 -0.8225
 1461TIP3   OH225941   5.809   0.707   1.729  0.0071 -0.3669 -0.2416
 1461TIP3    H125942   5.787   0.639   1.665  1.0990  0.1398 -1.1903
 1461TIP3    H225943   5.890   0.676   1.769  1.0443  0.7955 -1.3594
 1462TIP3   OH225944   6.460   7.019   7.766  0.3229 -0.7460  0.5127
 1462TIP3    H125945   6.528   6.962   7.729 -0.8972 -2.5382  0.8765
 1462TIP3    H225946   6.392   7.022   7.698 -0.0797 -0.5958  0.9173
 1463TIP3   OH225947   1.032   0.112   0.149 -0.1942  0.0769  0.3192
 1463TIP3    H125948   1.123   0.087   0.164 -0.0589 -0.3622 -1.0703
 1463TIP3    H225949   0.981   0.051   0.203  0.3255  2.2536  3.6100
 1464TIP3   OH225950   3.664   2.027   0.628 -0.4389 -0.2927  0.3446
 1464TIP3    H125951   3.640   2.040   0.536 -0.9319 -1.0397  0.3613
 1464TIP3    H225952   3.623   2.101   0.673 -0.8096 -0.3118  0.0535
 1465TIP3   OH225953   5.102   3.065   1.818 -0.0623  0.5154  0.0020
 1465TIP3    H125954   5.062   3.012   1.749  0.8780  1.5069 -1.3717
 1465TIP3    H225955   5.129   3.002   1.885  0.8538 -0.7526 -1.4909
 1466TIP3   OH225956   1.631   2.163   7.972 -0.1101 -0.3207  0.2455
 1466TIP3    H125957   1.698   2.156   7.904 -0.6455 -0.1497 -0.3041
 1466TIP3    H225958   1.549   2.143   7.928 -0.3574 -1.2367  1.0640
 1467TIP3   OH225959   6.584   4.852   0.795 -0.0494 -0.0096  0.5249
 1467TIP3    H125960   6.583   4.805   0.712 -0.7438  2.3151 -0.8861
 1467TIP3    H225961   6.676   4.873   0.810  0.1378 -0.8719  0.6382
 1468TIP3   OH225962   1.276   2.832   7.002  0.4023  0.0118 -0.0701
 1468TIP3    H125963   1.306   2.852   7.091  2.4033 -0.0655 -0.6953
 1468TIP3    H225964   1.332   2.761   6.972  0.5178  0.7820 -1.8121
 1469TIP3   OH225965   3.466   6.369   1.795  0.1873  0.2758  0.2112
 1469TIP3    H125966   3.446   6.357   1.703 -0.0714  0.6766  0.2155
 1469TIP3    H225967   3.561   6.356   1.801  0.3987  1.4337 -0.3131
 1470TIP3   OH225968   0.139   6.904   0.255  0.0283  0.1335  0.3011
 1470TIP3    H125969   0.075   6.974   0.237  2.2348  2.3105  0.4280
 1470TIP3    H225970   0.102   6.856   0.329 -2.4223 -0.0506 -0.9400
 1471TIP3   OH225971   5.641   4.148   2.046  0.0875  0.2722  0.8666
 1471TIP3    H125972   5.661   4.241   2.057  1.1012  0.1123  0.4762
 1471TIP3    H225973   5.698   4.120   1.974 -2.6072  0.1325 -1.3922
 1472TIP3   OH225974   6.597   0.719   7.696 -0.0297 -0.1227 -0.4195
 1472TIP3    H125975   6.650   0.640   7.701 -0.9044 -0.8985 -2.1779
 1472TIP3    H225976   6.557   0.715   7.609 -0.2502  2.1753 -0.4822
 1473TIP3   OH225977   1.625   6.206   0.995  0.0305  0.0589 -0.2127
 1473TIP3    H125978   1.667   6.147   0.932  2.1115  0.4239  0.7406
 1473TIP3    H225979   1.531   6.190   0.983  0.3822 -0.7708 -2.5097
 1474TIP3   OH225980   1.727   5.985   0.454 -0.0970 -0.1896 -0.3422
 1474TIP3    H125981   1.710   5.903   0.500 -1.4625  1.0149  1.4608
 1474TIP3    H225982   1.784   5.961   0.381 -1.4221 -2.9098 -0.5931
 1475TIP3   OH225983   4.330   3.404   0.434  0.5630  0.7172  0.2602
 1475TIP3    H125984   4.402   3.463   0.411 -0.7422  2.4473  0.3628
 1475TIP3    H225985   4.265   3.461   0.474 -0.3846 -0.9890  1.2788
 1476TIP3   OH225986   1.870   1.997   2.095 -0.0026  0.2776  0.2925
 1476TIP3    H125987   1.847   2.043   2.176  1.3076  1.0335  0.2604
 1476TIP3    H225988   1.851   1.905   2.115 -0.1643  0.5101  1.3032
 1477TIP3   OH225989   3.193   7.065   1.481 -0.0049  0.1880  0.2840
 1477TIP3    H125990   3.173   6.985   1.432  0.1885 -0.6738  1.5344
 1477TIP3    H225991   3.146   7.054   1.564  1.7630  0.3331  1.3554
 1478TIP3   OH225992   0.540   3.323   1.489  0.1209 -0.3913 -0.2565
 1478TIP3    H125993   0.517   3.402   1.539  1.1411 -1.1604  1.5079
 1478TIP3    H225994   0.456   3.277   1.478 -0.2078  0.0528  0.3042
 1479TIP3   OH225995   5.410   1.690   6.391  0.0812 -0.0423 -0.1412
 1479TIP3    H125996   5.390   1.783   6.400 -2.4037 -0.5945  0.7354
 1479TIP3    H225997   5.452   1.683   6.305 -0.9472  1.6962 -0.8327
 1480TIP3   OH225998   2.696   2.077   1.992 -0.6062 -0.1902  0.0682
 1480TIP3    H125999   2.637   2.034   2.054 -0.6082 -2.5309 -1.4147
 1480TIP3    H226000   2.673   2.169   1.996 -1.8634 -0.5258  2.1465
 1481TIP3   OH226001   0.696   3.183   7.931 -0.4817 -0.1934  0.2166
 1481TIP3    H126002   0.721   3.113   7.991 -1.1954  0.0408  0.7972
 1481TIP3    H226003   0.699   3.263   7.983  3.2858  0.7469 -1.1407
 1482TIP3   OH226004   2.549   3.589   7.235 -0.2927 -0.3280  0.6970
 1482TIP3    H126005   2.553   3.574   7.330 -1.8812 -1.3467  0.6390
 1482TIP3    H226006   2.551   3.501   7.198 -0.5650  0.0268 -0.1660
 1483TIP3   OH226007   4.458   0.060   7.485  0.9493 -0.3180 -0.4103
 1483TIP3    H126008   4.503  -0.023   7.504  1.0488  0.0398  1.0742
 1483TIP3    H226009   4.378   0.056   7.537  0.9464  0.5098 -0.3371
 1484TIP3   OH226010   2.517   2.879   0.095  0.1119 -0.2239 -0.1794
 1484TIP3    H126011   2.570   2.958   0.084 -1.6737  1.0785  0.1398
 1484TIP3    H226012   2.502   2.873   0.189 -0.9580 -0.0927 -0.3280
 1485TIP3   OH226013   4.866   1.727   1.556 -0.0363 -0.3736 -0.3978
 1485TIP3    H126014   4.905   1.640   1.566 -1.6462 -0.8938  2.6492
 1485TIP3    H226015   4.904   1.778   1.628 -0.8613  0.7290 -0.7347
 1486TIP3   OH226016   4.288   2.630   7.209  0.0073  0.1624  0.1074
 1486TIP3    H126017   4.222   2.628   7.278  0.7368 -0.4238  0.8082
 1486TIP3    H226018   4.305   2.538   7.189 -0.0985  0.3230 -0.7766
 1487TIP3   OH226019   2.583   4.024   7.064  0.1159 -0.5577 -0.0091
 1487TIP3    H126020   2.593   4.117   7.082 -0.5637 -0.4000 -0.4110
 1487TIP3    H226021   2.663   3.999   7.018  0.6593 -0.3610  0.8191
 1488TIP3   OH226022   0.526   2.531   1.705  0.2586 -0.2695 -0.2268
 1488TIP3    H126023   0.599   2.473   1.684 -0.4147 -0.8668 -0.9619
 1488TIP3    H226024   0.460   2.512   1.639 -1.4017 -1.2102  1.6029
 1489TIP3   OH226025   1.672   3.290   0.320 -0.2118 -0.6273  0.4703
 1489TIP3    H126026   1.700   3.354   0.385 -1.1810 -0.0325  0.3299
 1489TIP3    H226027   1.731   3.302   0.246 -1.1960  1.0643 -0.0873
 1490TIP3   OH226028   6.260   3.939   2.310  0.2823  0.0775  0.0187
 1490TIP3    H126029   6.329   3.901   2.255 -1.2362 -1.9142 -0.6298
 1490TIP3    H226030   6.182   3.888   2.289 -1.7293  2.9868 -0.1170
 1491TIP3   OH226031   2.437   0.436   2.355  0.0688  0.0719  0.1335
 1491TIP3    H126032   2.430   0.376   2.430  0.9006 -0.0059  0.1552
 1491TIP3    H226033   2.378   0.399   2.289 -2.9834  1.6699  1.7138
 1492TIP3   OH226034   4.514   2.043   7.939  1.0231  0.2755  0.3546
 1492TIP3    H126035   4.568   2.003   7.871 -0.9402 -1.2214 -0.4141
 1492TIP3    H226036   4.456   2.102   7.891  2.7191  2.9351  1.3043
 1493TIP3   OH226037   5.367   4.014   1.933 -0.3755  0.6866 -0.9918
 1493TIP3    H126038   5.378   4.013   2.028  0.9613 -0.7890 -1.1083
 1493TIP3    H226039   5.430   4.079   1.902  1.4467 -0.9794 -1.0087
 1494TIP3   OH226040   3.232   5.740   0.148 -0.4091 -0.1937  0.1840
 1494TIP3    H126041   3.242   5.797   0.072 -1.0537 -0.7807 -0.3511
 1494TIP3    H226042   3.307   5.763   0.205 -0.6679  1.1880  0.0091
 1495TIP3   OH226043   6.951   1.590   6.686  0.3105 -0.0753 -0.1723
 1495TIP3    H126044   6.925   1.568   6.596  2.3857  1.9979 -1.4159
 1495TIP3    H226045   7.047   1.597   6.681  0.6017 -0.9860  2.5250
 1496TIP3   OH226046   3.047   3.255   1.283 -0.1307 -1.0212  0.6318
 1496TIP3    H126047   3.011   3.171   1.310 -0.1539 -0.8404  1.1791
 1496TIP3    H226048   2.982   3.291   1.223  0.0552 -1.5545  0.0983
 1497TIP3   OH226049   6.321   3.670   1.106  0.4994  0.4191 -0.1249
 1497TIP3    H126050   6.284   3.692   1.192  0.4478 -0.6790  0.1427
 1497TIP3    H226051   6.415   3.660   1.122  0.2172 -2.1288  0.3369
 1498TIP3   OH226052   2.239   1.365   7.077  0.6956  0.4300  0.3097
 1498TIP3    H126053   2.238   1.435   7.011 -3.4062  1.0029  0.7472
 1498TIP3    H226054   2.257   1.410   7.159 -0.7149  0.8127  0.4235
 1499TIP3   OH226055   4.601   3.897   1.544  0.2917  0.3379  0.0288
 1499TIP3    H126056   4.642   3.828   1.492 -0.2419 -0.5832  0.8107
 1499TIP3    H226057   4.654   3.902   1.623 -0.0070  0.4265  0.2256
 1500TIP3   OH226058   1.435   5.831   1.540 -0.6707  0.6447 -0.3834
 1500TIP3    H126059   1.525   5.816   1.511 -1.5553 -2.0245 -2.1358
 1500TIP3    H226060   1.390   5.864   1.462 -1.9733 -1.6732 -0.7042
 1501TIP3   OH226061   5.435   5.079   1.958 -0.4483  0.1171  0.0328
 1501TIP3    H126062   5.373   5.151   1.964 -0.9063 -0.2751  0.0705
 1501TIP3    H226063   5.399   5.022   1.890  0.4287  0.4210 -0.7172
 1502TIP3   OH226064   6.783   3.118   0.535  0.4816 -0.0951  0.1767
 1502TIP3    H126065   6.812   3.030   0.511 -1.3914 -0.3659 -1.2835
 1502TIP3    H226066   6.757   3.110   0.627  1.3655 -0.7729  0.3842
 1503TIP3   OH226067   1.108   4.360   7.392 -0.1339 -0.0539 -0.8071
 1503TIP3    H126068   1.124   4.401   7.307 -0.2041  1.2012 -0.2467
 1503TIP3    H226069   1.191   4.317   7.414  0.4075  0.9560 -0.8130
 1504TIP3   OH226070   6.154   0.788   1.501 -0.6190  0.1570  0.0476
 1504TIP3    H126071   6.169   0.869   1.452  0.1534 -0.2742 -0.4466
 1504TIP3    H226072   6.077   0.749   1.459 -1.4853  1.0139  0.8004
 1505TIP3   OH226073   0.093   1.236   0.648 -0.2660 -0.1015  0.6904
 1505TIP3    H126074   0.110   1.254   0.555 -0.8956  0.4278  0.6712
 1505TIP3    H226075   0.034   1.161   0.647  0.0695 -0.3704  0.6835
 1506TIP3   OH226076   3.897   0.700   1.738  0.1383 -0.1969  0.7157
 1506TIP3    H126077   3.816   0.663   1.772 -0.3095 -0.9033 -1.0278
 1506TIP3    H226078   3.888   0.795   1.753 -2.3651  0.1367 -1.9876
 1507TIP3   OH226079   5.435   0.525   7.558  0.2023  0.0729  0.2113
 1507TIP3    H126080   5.345   0.498   7.540 -0.0169  1.3204 -0.7079
 1507TIP3    H226081   5.426   0.597   7.621  0.5154  0.4360 -0.1515
 1508TIP3   OH226082   0.529   6.983   0.790 -0.3808 -0.2781  0.2592
 1508TIP3    H126083   0.567   6.896   0.781 -1.1841 -0.7158  0.9988
 1508TIP3    H226084   0.595   7.042   0.753 -0.2855 -1.2769 -1.2459
 1509TIP3   OH226085   6.342   4.673   1.948 -0.5244 -0.5748  0.0094
 1509TIP3    H126086   6.287   4.655   2.024  0.0016  0.9248  0.7868
 1509TIP3    H226087   6.352   4.768   1.948  0.7795 -0.6876 -1.0220
 1510TIP3   OH226088   1.651   5.494   1.551 -0.3944 -0.5062  0.8795
 1510TIP3    H126089   1.645   5.555   1.624 -1.4535 -0.0341  0.4099
 1510TIP3    H226090   1.571   5.441   1.557 -1.8910  1.3244 -1.4855
 1511TIP3   OH226091   0.728   2.930   0.071  0.8192  0.1871  0.8133
 1511TIP3    H126092   0.772   2.855   0.031 -0.3464 -0.2629  0.3263
 1511TIP3    H226093   0.635   2.918   0.050  0.7085  2.3375 -0.2120
 1512TIP3   OH226094   0.995   6.860   7.790  0.8990 -0.4976 -0.0292
 1512TIP3    H126095   0.909   6.819   7.801  0.9898 -1.0659 -1.2536
 1512TIP3    H226096   0.994   6.934   7.851 -1.3583  0.9109 -1.6291
 1513TIP3   OH226097   5.165   0.499   0.005  0.2216  0.1286 -0.7817
 1513TIP3    H126098   5.106   0.532   0.073  2.0425  0.7310  0.5859
 1513TIP3    H226099   5.235   0.454   0.053  1.2900  0.0823 -2.2920
 1514TIP3   OH226100   2.311   2.640   7.160 -0.9617  0.0861  0.2443
 1514TIP3    H126101   2.246   2.599   7.217  0.2241 -0.9048  0.9124
 1514TIP3    H226102   2.367   2.569   7.130 -0.8368  0.7557 -1.2382
 1515TIP3   OH226103   6.550   0.425   0.931 -0.2339  0.0618  0.4003
 1515TIP3    H126104   6.542   0.465   1.017 -1.1736  0.3633  0.1813
 1515TIP3    H226105   6.473   0.454   0.883 -0.5491 -1.3872 -0.0254
 1516TIP3   OH226106   6.517   4.048   2.087  0.1612  0.0739 -0.1949
 1516TIP3    H126107   6.512   4.138   2.055  1.1023  0.1819 -0.0720
 1516TIP3    H226108   6.516   4.056   2.182  0.8358  0.0126 -0.1728
 1517TIP3   OH226109   4.696   3.286   0.613 -0.0054  0.0328 -0.3786
 1517TIP3    H126110   4.769   3.348   0.609  0.7646 -0.7326  1.1167
 1517TIP3    H226111   4.630   3.329   0.667 -0.7714  0.7683 -1.8133
 1518TIP3   OH226112   1.679   1.486   0.972  0.0640  0.0167  0.7128
 1518TIP3    H126113   1.638   1.565   1.009  1.2687 -0.0258  2.2426
 1518TIP3    H226114   1.767   1.514   0.948  0.2064 -0.6528  0.4384
 1519TIP3   OH226115   1.706   2.783   7.218 -0.1057 -0.2525  0.4722
 1519TIP3    H126116   1.689   2.691   7.200  0.6227 -0.3941  0.4863
 1519TIP3    H226117   1.685   2.828   7.136 -0.6365 -0.4000  0.5223
 1520TIP3   OH226118   0.301   1.362   1.177  0.2671  0.1478  0.2165
 1520TIP3    H126119   0.207   1.375   1.183  0.1001 -0.1488 -1.3113
 1520TIP3    H226120   0.329   1.420   1.106  0.8830 -1.2408 -0.7297
 1521TIP3   OH226121   6.372   3.714   0.450 -0.6845  0.5888  0.0576
 1521TIP3    H126122   6.343   3.642   0.507 -0.4069  0.4071 -0.0294
 1521TIP3    H226123   6.419   3.773   0.508  0.2167  0.0496 -0.1101
 1522TIP3   OH226124   1.758   6.771   0.240 -0.5177 -0.3429 -0.1995
 1522TIP3    H126125   1.722   6.813   0.163 -0.4744  0.7929  0.3748
 1522TIP3    H226126   1.691   6.781   0.308  0.3133  0.6218  0.5098
 1523TIP3   OH226127   3.840   2.537   1.840 -0.0534  0.4926 -0.3502
 1523TIP3    H126128   3.891   2.584   1.907  0.9379 -2.1160  0.8404
 1523TIP3    H226129   3.790   2.473   1.890  1.1726 -1.9518 -2.1029
 1524TIP3   OH226130   6.720   0.103   1.483  0.1852  0.4300  0.7928
 1524TIP3    H126131   6.685   0.192   1.482 -1.1679 -0.0780  0.9846
 1524TIP3    H226132   6.706   0.072   1.573 -0.0299 -0.2159  0.5487
 1525TIP3   OH226133   1.720   6.666   7.401 -0.2235  0.5247  0.7689
 1525TIP3    H126134   1.663   6.719   7.345 -0.4220  0.9028  1.3128
 1525TIP3    H226135   1.661   6.626   7.465 -0.1224 -0.6751  0.1377
 1526TIP3   OH226136   3.191   3.492   7.390  0.5901 -0.3010 -0.7103
 1526TIP3    H126137   3.274   3.444   7.390  1.7654  1.3912  2.7620
 1526TIP3    H226138   3.216   3.581   7.363  0.0609  0.3343  0.7954
 1527TIP3   OH226139   0.378   4.277   2.879 -0.3101  0.4295  0.3331
 1527TIP3    H126140   0.282   4.274   2.877 -0.2925 -0.8201  0.5379
 1527TIP3    H226141   0.405   4.208   2.819  0.4756  0.6811  0.3872
 1528TIP3   OH226142   0.245   6.660   7.717 -0.0050 -0.0692  0.3751
 1528TIP3    H126143   0.242   6.752   7.744  0.6489 -0.5633  2.3444
 1528TIP3    H226144   0.156   6.628   7.734  0.3767 -0.3522  2.0290
 1529TIP3   OH226145   2.697   1.139   7.169 -0.5564  0.2485 -0.8207
 1529TIP3    H126146   2.683   1.100   7.083 -0.4941  0.0403 -0.7356
 1529TIP3    H226147   2.626   1.105   7.223 -0.3701  0.0746 -0.6860
 1530TIP3   OH226148   4.911   2.374   0.543  0.0373 -0.2549  0.6497
 1530TIP3    H126149   4.824   2.335   0.533  0.4635 -0.7715 -1.3168
 1530TIP3    H226150   4.970   2.300   0.549  0.7893 -0.0531 -2.5000
 1531TIP3   OH226151   3.413   0.798   7.961  0.5716  1.1818 -0.4167
 1531TIP3    H126152   3.368   0.714   7.965  0.4313  1.3052  1.0909
 1531TIP3    H226153   3.503   0.779   7.984  1.1481  1.0800 -2.5538
 1532TIP3   OH226154   0.975   6.987   1.936  0.2976 -0.1111  0.0515
 1532TIP3    H126155   0.966   7.007   1.843  1.3896 -1.4867 -0.3841
 1532TIP3    H226156   0.937   6.901   1.947 -0.2064  0.2114  0.9826
 1533TIP3   OH226157   3.133   3.289   2.222 -0.1858 -0.0058 -0.2156
 1533TIP3    H126158   3.077   3.225   2.178 -0.8740  0.8895 -0.6579
 1533TIP3    H226159   3.156   3.247   2.305 -1.0189 -0.6339 -0.2919
 1534TIP3   OH226160   6.836   5.407   0.836 -0.1609  0.1205 -0.6407
 1534TIP3    H126161   6.802   5.328   0.877  0.8570  0.7406  1.5189
 1534TIP3    H226162   6.908   5.376   0.781  0.8821 -0.4229  0.9467
 1535TIP3   OH226163   0.546   5.619   0.377 -0.2634 -0.3240  0.7877
 1535TIP3    H126164   0.539   5.650   0.467 -2.1649 -1.7136  1.1859
 1535TIP3    H226165   0.468   5.564   0.364  0.9583 -1.7709 -1.0640
 1536TIP3   OH226166   0.715   5.267   1.883 -0.0033 -0.1150 -0.1590
 1536TIP3    H126167   0.731   5.351   1.839 -1.2870 -0.0941 -0.6245
 1536TIP3    H226168   0.709   5.290   1.976 -2.0788  0.6244 -0.4266
 1537TIP3   OH226169   4.272   3.190   0.615 -0.1244 -0.2160  0.1483
 1537TIP3    H126170   4.303   3.110   0.573  0.7880  0.2800 -0.1376
 1537TIP3    H226171   4.326   3.260   0.578  0.2090  0.3238  1.5819
 1538TIP3   OH226172   2.293   0.399   7.221  0.4532 -0.6180 -0.4903
 1538TIP3    H126173   2.329   0.387   7.309 -2.1867 -1.0294  0.6301
 1538TIP3    H226174   2.368   0.426   7.168  1.9088  0.9109  2.1232
 1539TIP3   OH226175   4.597   5.784   7.317  0.2458  1.0946  0.8131
 1539TIP3    H126176   4.689   5.781   7.344 -0.5066 -2.1236  3.7285
 1539TIP3    H226177   4.549   5.745   7.390 -3.0065 -1.1664 -2.1746
 1540TIP3   OH226178   1.080   2.547   7.022  0.1911  0.3398 -0.0925
 1540TIP3    H126179   1.142   2.547   7.094  1.4470  1.9937 -1.0983
 1540TIP3    H226180   1.134   2.537   6.943 -1.2194 -2.9338 -0.8631
 1541TIP3   OH226181   6.102   5.883   2.327 -0.0742  0.2202  0.0735
 1541TIP3    H126182   6.023   5.903   2.376  0.5293  0.5688  0.9302
 1541TIP3    H226183   6.148   5.967   2.320  0.8219 -0.1963  0.6959
 1542TIP3   OH226184   3.324   4.805   2.763  0.2667 -0.2505  0.3365
 1542TIP3    H126185   3.414   4.775   2.776  0.9106  1.4931  0.0973
 1542TIP3    H226186   3.329   4.900   2.766 -1.5058 -0.1009 -0.1576
 1543TIP3   OH226187   2.184   6.569   1.296 -0.1272 -0.2927 -0.3980
 1543TIP3    H126188   2.194   6.476   1.312  0.9637 -0.4460 -1.8117
 1543TIP3    H226189   2.195   6.610   1.382  2.1364 -1.2925 -0.1539
 1544TIP3   OH226190   2.840   0.082   6.514  0.1977 -0.1507  0.0934
 1544TIP3    H126191   2.889   0.104   6.593  0.7690 -0.1606 -0.2528
 1544TIP3    H226192   2.847  -0.013   6.507  1.2206 -0.0325 -0.6501
 1545TIP3   OH226193   3.411   4.617   0.773  0.9162 -0.1658 -0.0466
 1545TIP3    H126194   3.369   4.703   0.772  0.8331 -0.1803 -2.0867
 1545TIP3    H226195   3.497   4.633   0.811  1.2210  1.0042 -1.1483
 1546TIP3   OH226196   0.101   3.383   6.222  0.1619  0.3234 -0.3372
 1546TIP3    H126197   0.110   3.338   6.306 -1.1623  1.0178  0.1988
 1546TIP3    H226198   0.014   3.359   6.191 -0.0418  1.4679 -0.6689
 1547TIP3   OH226199   4.960   1.531   7.934 -0.3203  0.0559 -0.0486
 1547TIP3    H126200   4.949   1.616   7.892 -0.9070  0.5906  1.1422
 1547TIP3    H226201   5.052   1.509   7.921 -0.1945  0.8069 -0.4758
 1548TIP3   OH226202   0.076   4.264   7.828 -0.1291 -0.3740 -0.0469
 1548TIP3    H126203   0.101   4.209   7.902 -0.4573 -0.8605 -0.2950
 1548TIP3    H226204   0.146   4.330   7.823 -1.0620  0.8498  1.8763
 1549TIP3   OH226205   5.030   0.368   7.218  0.0748 -0.3414 -0.1194
 1549TIP3    H126206   4.946   0.399   7.184 -0.1242  0.8002  1.3052
 1549TIP3    H226207   5.006   0.304   7.286  0.2776  1.0033  1.2589
 1550TIP3   OH226208   1.769   5.095   0.941 -0.2883 -0.1229  0.0550
 1550TIP3    H126209   1.859   5.123   0.953 -0.1214 -0.3726 -0.5930
 1550TIP3    H226210   1.730   5.162   0.884 -0.4568 -0.1271  0.1629
 1551TIP3   OH226211   6.481   6.031   0.125  0.5796  0.2530 -0.2459
 1551TIP3    H126212   6.447   6.071   0.205 -0.1767  0.9219 -0.8792
 1551TIP3    H226213   6.497   6.106   0.066  1.2152 -0.2200 -0.6923
 1552TIP3   OH226214   5.910   3.145   7.270 -0.7731 -0.0621 -0.5126
 1552TIP3    H126215   5.952   3.088   7.334 -1.0692  0.7102  0.3943
 1552TIP3    H226216   5.849   3.088   7.224 -0.7856 -0.5712  0.1174
 1553TIP3   OH226217   4.484   6.402   2.084  0.1080 -0.0341  0.1818
 1553TIP3    H126218   4.396   6.385   2.052  0.8304  0.4727 -2.3229
 1553TIP3    H226219   4.502   6.493   2.059  2.3090 -0.9590 -2.0081
 1554TIP3   OH226220   1.778   3.190   1.632  0.1285  0.3042 -0.3986
 1554TIP3    H126221   1.726   3.118   1.597  0.3216  1.4536 -3.3584
 1554TIP3    H226222   1.715   3.262   1.643  0.3573  0.4278  0.1128
 1555TIP3   OH226223   1.399   3.906   7.777 -0.3811 -0.0212 -0.4387
 1555TIP3    H126224   1.401   3.942   7.689 -1.1426 -0.1393 -0.5139
 1555TIP3    H226225   1.364   3.976   7.831  0.8365  0.3299 -0.0780
 1556TIP3   OH226226   2.862   4.662   7.503  0.0085 -0.8865 -0.4260
 1556TIP3    H126227   2.852   4.661   7.598 -2.6772  1.7273 -0.5349
 1556TIP3    H226228   2.931   4.727   7.487 -0.1367 -0.7034 -0.3019
 1557TIP3   OH226229   4.077   0.023   1.228  0.0433 -0.4939 -0.3329
 1557TIP3    H126230   4.150   0.081   1.248 -1.1620  0.8206  0.4358
 1557TIP3    H226231   4.095  -0.009   1.139  1.1325  0.4359 -0.4632
 1558TIP3   OH226232   0.939   1.160   0.902 -0.7090  0.4213 -0.0356
 1558TIP3    H126233   1.012   1.121   0.854  0.5016  0.3072  1.7833
 1558TIP3    H226234   0.893   1.085   0.940  0.5294  0.5902  1.9421
 1559TIP3   OH226235   3.540   2.379   2.416 -0.2209 -0.1151 -0.5893
 1559TIP3    H126236   3.480   2.353   2.486 -0.3461  0.3607 -0.5179
 1559TIP3    H226237   3.533   2.309   2.351 -0.4416 -0.3345 -0.3310
 1560TIP3   OH226238   6.060   2.489   7.607  0.2367  0.2422  0.3388
 1560TIP3    H126239   6.098   2.414   7.561 -1.1013 -0.1484 -0.1861
 1560TIP3    H226240   5.976   2.504   7.562  0.2471  1.7231  0.7745
 1561TIP3   OH226241   3.847   4.223   0.298  0.0446 -0.0522  0.1211
 1561TIP3    H126242   3.905   4.151   0.272  1.4657  1.0229  0.1523
 1561TIP3    H226243   3.906   4.299   0.305 -0.5481  0.2673  4.1890
 1562TIP3   OH226244   3.881   1.891   2.467 -0.5405 -0.4082  0.4136
 1562TIP3    H126245   3.959   1.936   2.499 -0.9275  0.8051 -0.2919
 1562TIP3    H226246   3.915   1.821   2.411  0.0586 -0.9535  1.4092
 1563TIP3   OH226247   6.532   0.193   7.623 -0.1366 -0.4702 -0.2420
 1563TIP3    H126248   6.478   0.267   7.593  0.8793 -0.2066 -1.4916
 1563TIP3    H226249   6.609   0.195   7.567  0.3186 -1.9758  0.2865
 1564TIP3   OH226250   0.145   5.562   0.299 -0.1308 -0.1710 -0.0612
 1564TIP3    H126251   0.139   5.593   0.389 -0.5409  1.0400 -0.4843
 1564TIP3    H226252   0.058   5.527   0.279  0.3341 -1.6825  0.4189
 1565TIP3   OH226253   1.094   2.849   1.851 -0.1931 -0.5133 -0.3656
 1565TIP3    H126254   1.057   2.883   1.769 -0.6914  0.7981  0.3833
 1565TIP3    H226255   1.187   2.868   1.846 -0.0674 -1.2310 -0.9946
 1566TIP3   OH226256   0.504   4.409   7.430 -0.4197 -0.1931  0.1521
 1566TIP3    H126257   0.520   4.473   7.499 -2.1495 -0.3063  0.6771
 1566TIP3    H226258   0.591   4.396   7.390  0.2701  1.2261  1.0928
 1567TIP3   OH226259   4.296   6.535   2.329 -0.4813  0.3390 -0.6699
 1567TIP3    H126260   4.283   6.609   2.271 -0.2103 -0.6499 -2.0622
 1567TIP3    H226261   4.230   6.471   2.302  0.2336 -0.4897 -0.5053
 1568TIP3   OH226262   1.584   3.372   1.729 -0.6082  0.0517 -0.1929
 1568TIP3    H126263   1.491   3.397   1.731 -0.8446 -0.8385  1.0041
 1568TIP3    H226264   1.606   3.355   1.821  0.8007  0.4475 -0.4474
 1569TIP3   OH226265   2.861   4.598   0.780  0.0001 -0.1027  0.0891
 1569TIP3    H126266   2.824   4.580   0.867 -0.6225 -2.0092 -0.5113
 1569TIP3    H226267   2.922   4.670   0.795 -1.4795  0.8959  1.7434
 1570TIP3   OH226268   4.095   0.866   6.549 -0.1218  0.1856  0.3155
 1570TIP3    H126269   4.189   0.880   6.559  0.2101 -0.8774 -0.9799
 1570TIP3    H226270   4.063   0.945   6.506  0.0929  0.7100  1.0942
 1571TIP3   OH226271   2.504   1.967   7.118 -0.2182  0.2329 -0.3524
 1571TIP3    H126272   2.494   2.025   7.043 -1.9359  0.7272  0.2252
 1571TIP3    H226273   2.571   2.008   7.172  2.4201 -1.0598 -2.4148
 1572TIP3   OH226274   3.467   4.212   1.540  0.4904  0.2616  0.2288
 1572TIP3    H126275   3.432   4.127   1.566  0.8255  0.0182 -0.1031
 1572TIP3    H226276   3.506   4.248   1.620  0.2115  0.1732  0.4056
 1573TIP3   OH226277   0.947   6.113   1.813  0.1171 -0.0636 -0.3369
 1573TIP3    H126278   1.002   6.190   1.794  2.7350 -1.4453  1.1054
 1573TIP3    H226279   0.898   6.098   1.732 -0.3755  2.9728 -0.7213
 1574TIP3   OH226280   6.617   3.350   1.131 -0.2990 -0.2044 -0.4239
 1574TIP3    H126281   6.590   3.433   1.092  1.9667  1.4494  1.1613
 1574TIP3    H226282   6.544   3.325   1.187 -0.5791  1.4076 -0.0098
 1575TIP3   OH226283   3.521   2.685   1.025  0.0722  0.4844 -0.2781
 1575TIP3    H126284   3.615   2.700   1.018 -0.0723  1.2493 -0.7476
 1575TIP3    H226285   3.483   2.745   0.961 -0.7361  0.2315 -0.0399
 1576TIP3   OH226286   6.480   3.854   3.003  0.0430 -0.1733 -0.3594
 1576TIP3    H126287   6.554   3.861   2.943 -0.0394 -0.0172 -0.4439
 1576TIP3    H226288   6.512   3.893   3.085 -0.5228  1.5645 -0.9294
 1577TIP3   OH226289   5.405   0.060   7.705 -0.0558  0.2717  0.0914
 1577TIP3    H126290   5.426   0.148   7.737  0.7931  0.7538 -1.6832
 1577TIP3    H226291   5.422   0.003   7.780  2.1425  1.3051  0.4613
 1578TIP3   OH226292   5.908   3.151   0.480  0.3686  0.1147 -0.1237
 1578TIP3    H126293   6.003   3.140   0.485  0.2273 -0.8276  1.6539
 1578TIP3    H226294   5.885   3.126   0.391  1.4852 -2.7364  0.2770
 1579TIP3   OH226295   3.157   0.641   1.262 -0.9928 -0.2568  0.3714
 1579TIP3    H126296   3.117   0.579   1.201 -1.0473  1.5363 -1.4928
 1579TIP3    H226297   3.250   0.640   1.239 -0.6587 -1.0329  1.6472
 1580TIP3   OH226298   1.833   0.818   0.929  0.1426 -0.6654  0.2480
 1580TIP3    H126299   1.851   0.912   0.919 -0.6390 -0.1355  3.1114
 1580TIP3    H226300   1.762   0.801   0.867 -2.3253  1.5644  2.2460
 1581TIP3   OH226301   3.018   1.075   0.817  0.7126  0.5179 -0.0784
 1581TIP3    H126302   2.980   1.161   0.799 -1.9590 -0.7638 -1.0970
 1581TIP3    H226303   3.012   1.066   0.912  1.9148  1.7912  0.1510
 1582TIP3   OH226304   5.815   3.046   0.702  0.5880  0.0150  0.1052
 1582TIP3    H126305   5.857   3.063   0.618  0.1951  1.0298  0.1045
 1582TIP3    H226306   5.873   3.087   0.766  0.5698 -0.2183  0.2703
 1583TIP3   OH226307   3.643   6.705   0.482 -0.6094  0.2194  0.4032
 1583TIP3    H126308   3.713   6.746   0.432 -0.2239 -0.7720  0.1112
 1583TIP3    H226309   3.601   6.778   0.528  0.8608  0.7979  0.9005
 1584TIP3   OH226310   2.933   0.764   0.975 -0.5117  0.3885 -0.2982
 1584TIP3    H126311   2.958   0.824   1.046 -2.0572  0.7181  0.0034
 1584TIP3    H226312   2.916   0.681   1.020  2.2044 -0.5390 -0.7811
 1585TIP3   OH226313   2.901   0.539   0.639 -0.1953  0.5822  0.2711
 1585TIP3    H126314   2.941   0.612   0.686 -1.4461  0.9999  0.7204
 1585TIP3    H226315   2.976   0.490   0.604  0.8643  0.0013  3.0404
 1586TIP3   OH226316   0.898   5.546   7.874 -0.1910 -0.0041 -0.2050
 1586TIP3    H126317   0.906   5.580   7.785  1.0166  0.4341  0.0493
 1586TIP3    H226318   0.981   5.568   7.915 -0.7828 -0.0914  1.0785
 1587TIP3   OH226319   3.376   4.412   7.141  0.1392 -0.1262 -0.1237
 1587TIP3    H126320   3.372   4.328   7.187  0.2798  0.4575  0.9771
 1587TIP3    H226321   3.455   4.454   7.173 -0.0497  0.5343 -0.4978
 1588TIP3   OH226322   0.408   6.461   7.655 -0.4285 -0.0968 -0.0539
 1588TIP3    H126323   0.433   6.462   7.562  1.5356  1.1461  0.4298
 1588TIP3    H226324   0.334   6.521   7.661  0.9177  1.6680 -0.4848
 1589TIP3   OH226325   6.594   5.684   0.376 -0.1108 -0.0537  0.3451
 1589TIP3    H126326   6.614   5.601   0.421  1.0531  0.0767  0.1015
 1589TIP3    H226327   6.567   5.743   0.446  1.8687  0.2046  0.9432
 1590TIP3   OH226328   4.889   0.499   2.129 -0.4333 -0.1555 -0.0197
 1590TIP3    H126329   4.884   0.404   2.135 -0.3246 -0.2668 -1.3794
 1590TIP3    H226330   4.859   0.530   2.214 -0.4637 -1.4008  0.4448
 1591TIP3   OH226331   5.993   6.525   0.512 -0.1562  0.6028  0.5559
 1591TIP3    H126332   6.077   6.540   0.556  0.7296  1.5081 -1.3021
 1591TIP3    H226333   5.937   6.596   0.543  0.1337  0.6711  0.9376
 1592TIP3   OH226334   1.095   4.522   1.732  0.1296  0.9737  0.3018
 1592TIP3    H126335   1.035   4.554   1.664  0.3348  0.9480  0.1090
 1592TIP3    H226336   1.121   4.600   1.780 -0.0085  0.9937  0.3441
 1593TIP3   OH226337   2.305   4.104   0.319  0.3603  0.1099 -0.1271
 1593TIP3    H126338   2.311   4.193   0.354 -0.5480 -0.3812  1.4152
 1593TIP3    H226339   2.395   4.080   0.297  0.7750  0.9844  0.5566
 1594TIP3   OH226340   0.921   0.769   6.893 -0.1010  0.2163  0.2272
 1594TIP3    H126341   0.985   0.805   6.955  0.4753  0.0664 -0.2689
 1594TIP3    H226342   0.882   0.845   6.851  1.5808  0.2954 -1.2905
 1595TIP3   OH226343   6.814   0.487   0.940 -0.5531  0.0793  0.1886
 1595TIP3    H126344   6.727   0.455   0.960 -0.4623 -0.6025 -0.4782
 1595TIP3    H226345   6.819   0.572   0.984 -2.1391  0.8938 -1.1109
 1596TIP3   OH226346   0.541   0.462   7.589 -0.9902  0.0584  0.1926
 1596TIP3    H126347   0.534   0.411   7.508 -1.9833  1.3206 -0.5552
 1596TIP3    H226348   0.618   0.518   7.575 -0.4311 -0.5886  0.6425
 1597TIP3   OH226349   3.611   2.137   1.683 -0.0530  0.4895 -0.7679
 1597TIP3    H126350   3.702   2.134   1.714 -0.5744 -1.5067  0.7733
 1597TIP3    H226351   3.617   2.116   1.590  1.2060  2.6091 -1.2448
 1598TIP3   OH226352   3.688   1.091   1.513 -1.1652  0.1537  0.1163
 1598TIP3    H126353   3.727   1.174   1.542 -0.7934  0.5059 -1.3243
 1598TIP3    H226354   3.763   1.032   1.502 -1.2416  0.1817 -0.5990
 1599TIP3   OH226355   6.239   3.238   0.576  0.1805  0.3062 -0.2378
 1599TIP3    H126356   6.249   3.152   0.536 -0.1344  0.2016 -0.0979
 1599TIP3    H226357   6.267   3.226   0.667 -0.5387  0.1704 -0.0231
 1600TIP3   OH226358   2.164   1.564   1.193  0.1903 -0.1191 -0.3655
 1600TIP3    H126359   2.165   1.659   1.184  1.3349  0.0438  1.1241
 1600TIP3    H226360   2.145   1.532   1.104  1.8374  1.4485 -1.3631
 1601TIP3   OH226361   2.858   6.169   0.727 -0.1645  0.2784  0.2296
 1601TIP3    H126362   2.763   6.164   0.739 -0.2181 -0.9201 -0.5438
 1601TIP3    H226363   2.876   6.263   0.717 -1.3074  0.4927  0.0502
 1602TIP3   OH226364   4.851   4.762   7.379 -0.4861 -0.4188 -0.0598
 1602TIP3    H126365   4.823   4.851   7.357 -0.0427 -0.3944 -0.5470
 1602TIP3    H226366   4.908   4.772   7.455  1.1090 -0.0563 -1.2557
 1603TIP3   OH226367   0.993   0.426   7.128 -0.0249 -0.2010 -0.1270
 1603TIP3    H126368   1.066   0.364   7.125  0.0018 -0.1909  0.2450
 1603TIP3    H226369   1.033   0.511   7.113 -0.0672 -0.2727 -0.6834
 1604TIP3   OH226370   0.659   7.011   1.754 -0.1105  0.0210  0.2053
 1604TIP3    H126371   0.647   6.933   1.700  2.0857 -1.3646  1.5241
 1604TIP3    H226372   0.650   7.084   1.694 -3.2651 -1.1384 -0.8962
 1605TIP3   OH226373   3.207   2.565   2.331 -0.4793 -0.0804  0.1896
 1605TIP3    H126374   3.158   2.643   2.358 -0.6498 -0.6040  1.4830
 1605TIP3    H226375   3.157   2.492   2.366  0.4663 -0.6992  0.3014
 1606TIP3   OH226376   6.158   3.735   2.603  0.0467  0.1469  0.0543
 1606TIP3    H126377   6.104   3.814   2.602 -2.5090 -1.2789  3.6784
 1606TIP3    H226378   6.098   3.665   2.631  2.8127 -2.5284 -0.1772
 1607TIP3   OH226379   5.588   5.479   1.989  0.3900  0.0136  0.0732
 1607TIP3    H126380   5.529   5.407   1.965  0.1818  0.5945 -1.2158
 1607TIP3    H226381   5.529   5.550   2.014  0.5212  0.5541 -1.0980
 1608TIP3   OH226382   3.456   1.482   2.097  0.9518 -0.4435  0.1684
 1608TIP3    H126383   3.495   1.423   2.162 -1.0315 -0.7243  1.1987
 1608TIP3    H226384   3.408   1.424   2.038  2.3325 -0.1431 -1.3126
 1609TIP3   OH226385   3.318   3.382   1.968  0.4279  0.1166 -0.1083
 1609TIP3    H126386   3.382   3.386   2.039  1.5027 -1.9486 -0.8738
 1609TIP3    H226387   3.244   3.333   2.005  0.0345  0.9579  0.2361
 1610TIP3   OH226388   3.207   6.214   1.528  0.2882 -0.0773 -0.0817
 1610TIP3    H126389   3.298   6.214   1.558  0.1200  2.1623  0.5608
 1610TIP3    H226390   3.156   6.242   1.604 -0.4706  2.7290 -1.5066
 1611TIP3   OH226391   1.308   3.220   2.679  0.6552 -0.0436  0.1915
 1611TIP3    H126392   1.261   3.290   2.634  0.6476  0.6507  1.2616
 1611TIP3    H226393   1.240   3.155   2.700  0.4768  0.1355  0.1668
 1612TIP3   OH226394   6.562   1.596   2.381  0.7666  0.1525 -0.4647
 1612TIP3    H126395   6.483   1.604   2.434  0.6236  0.9327 -0.7795
 1612TIP3    H226396   6.547   1.519   2.327  0.2852  0.2069 -0.4110
 1613TIP3   OH226397   0.644   5.289   7.674 -0.0297  0.4534  0.2444
 1613TIP3    H126398   0.622   5.346   7.600  2.0303 -0.0672 -0.8305
 1613TIP3    H226399   0.703   5.341   7.728 -0.1905  0.2277  0.6397
 1614TIP3   OH226400   4.988   3.222   6.844 -0.1081  0.0722  0.1474
 1614TIP3    H126401   4.991   3.141   6.895 -2.2350  0.4995  1.0238
 1614TIP3    H226402   4.998   3.193   6.753 -0.3435 -1.1315  0.4882
 1615TIP3   OH226403   3.426   1.504   0.832  0.0442 -0.5659 -0.0278
 1615TIP3    H126404   3.337   1.516   0.800  0.1501 -0.9500 -0.4742
 1615TIP3    H226405   3.430   1.556   0.913  0.6984  3.0422 -2.1676
 1616TIP3   OH226406   5.262   1.520   0.248  0.1199  0.1086 -0.7665
 1616TIP3    H126407   5.177   1.557   0.224  0.3570  0.0495 -1.7141
 1616TIP3    H226408   5.276   1.449   0.186 -0.3800 -1.7011  1.0969
 1617TIP3   OH226409   0.613   3.503   7.507 -0.1907 -0.8472 -0.0345
 1617TIP3    H126410   0.660   3.464   7.581 -1.1073 -1.2329  0.3634
 1617TIP3    H226411   0.604   3.596   7.532 -0.6471 -1.0081  0.4443
 1618TIP3   OH226412   1.637   6.718   1.012 -0.2582 -0.4737 -0.0967
 1618TIP3    H126413   1.726   6.702   0.979 -0.3663 -1.0417 -0.1346
 1618TIP3    H226414   1.628   6.813   1.012 -0.0529 -0.4374 -1.1700
 1619TIP3   OH226415   4.470   3.507   6.859  0.1260  0.1857  0.4813
 1619TIP3    H126416   4.396   3.471   6.908 -2.4888  2.6999 -1.2593
 1619TIP3    H226417   4.476   3.454   6.780 -0.5785  0.6214  0.1259
 1620TIP3   OH226418   5.177   0.863   1.031 -0.1131 -0.3248 -0.3792
 1620TIP3    H126419   5.081   0.856   1.024 -0.4053 -0.2278  2.5479
 1620TIP3    H226420   5.204   0.898   0.946 -2.5497 -1.2610 -1.6410
 1621TIP3   OH226421   5.378   2.359   2.201 -0.0600  0.2277 -0.6546
 1621TIP3    H126422   5.468   2.339   2.227  0.2435 -1.9650 -2.9335
 1621TIP3    H226423   5.348   2.424   2.265  2.7043  0.1443  0.8974
 1622TIP3   OH226424   1.068   2.295   7.915  0.0861  0.3264 -0.0027
 1622TIP3    H126425   1.085   2.341   7.997 -0.7256 -0.3205  0.5391
 1622TIP3    H226426   1.134   2.330   7.855  2.5065 -1.1538  1.6187
 1623TIP3   OH226427   5.752   4.801   7.887 -0.5302 -0.5657  0.4196
 1623TIP3    H126428   5.836   4.784   7.930 -1.5955  0.9592  3.3993
 1623TIP3    H226429   5.700   4.724   7.907 -0.9017 -0.0199  1.6864
 1624TIP3   OH226430   5.895   1.757   6.742 -0.0664  0.3703 -0.1125
 1624TIP3    H126431   5.967   1.726   6.687  0.5708  0.3958  0.6911
 1624TIP3    H226432   5.868   1.840   6.703  0.6865  0.6178 -0.1195
 1625TIP3   OH226433   5.777   4.788   2.233  0.0477 -0.1074 -0.1671
 1625TIP3    H126434   5.828   4.724   2.181 -1.5534 -2.5197  1.0502
 1625TIP3    H226435   5.691   4.788   2.192  0.0110  1.3399 -0.1316
 1626TIP3   OH226436   4.691   3.167   2.981  0.2925  0.2019 -0.5638
 1626TIP3    H126437   4.712   3.237   2.919  2.1534  1.2364  1.1154
 1626TIP3    H226438   4.766   3.108   2.978  0.1005 -0.0967  0.2124
 1627TIP3   OH226439   0.208   3.971   6.705 -0.3429  0.5153  0.8276
 1627TIP3    H126440   0.299   3.997   6.714  0.2315 -1.1299  0.1448
 1627TIP3    H226441   0.168   4.041   6.653  0.5248  1.2261  1.0946
 1628TIP3   OH226442   6.583   4.379   1.433 -0.7498 -0.6495  0.2276
 1628TIP3    H126443   6.543   4.357   1.348 -1.3431 -0.9117  0.5713
 1628TIP3    H226444   6.675   4.357   1.422 -0.7787 -0.4907 -0.4194
 1629TIP3   OH226445   2.953   3.381   0.290  0.5340  0.3419 -0.0052
 1629TIP3    H126446   3.020   3.364   0.356  0.7146 -0.0139 -0.2712
 1629TIP3    H226447   2.968   3.471   0.263  0.7574  0.3405  0.1107
 1630TIP3   OH226448   2.557   1.615   1.716 -0.2790  0.0414  0.1558
 1630TIP3    H126449   2.635   1.652   1.757 -0.5279 -0.2300  0.8897
 1630TIP3    H226450   2.582   1.526   1.691  0.0250  0.3670 -0.7516
 1631TIP3   OH226451   4.687   0.903   0.692  0.8100  0.0874 -0.6875
 1631TIP3    H126452   4.751   0.831   0.693  0.8876  0.1574 -0.4901
 1631TIP3    H226453   4.603   0.861   0.709  0.6730 -0.1248 -1.8037
 1632TIP3   OH226454   3.689   2.512   6.976 -0.7720  0.3284 -0.1294
 1632TIP3    H126455   3.702   2.421   6.949 -1.5869  0.1545  0.0311
 1632TIP3    H226456   3.648   2.554   6.901  0.3450  0.7831 -0.5097
 1633TIP3   OH226457   3.134   5.294   7.212  0.3294  0.8602  0.7735
 1633TIP3    H126458   3.147   5.318   7.120 -0.1576  0.3449  0.5695
 1633TIP3    H226459   3.125   5.378   7.257 -2.3534  1.1308 -0.0825
 1634TIP3   OH226460   4.115   3.614   7.115  0.3010 -0.3852 -0.6479
 1634TIP3    H126461   4.107   3.555   7.040  0.7048  0.5229 -1.4175
 1634TIP3    H226462   4.091   3.559   7.190 -0.9770 -1.0730 -1.5156
 1635TIP3   OH226463   5.112   2.415   0.160  0.3698  0.1784 -0.4772
 1635TIP3    H126464   5.118   2.328   0.121  0.8540  1.3471 -3.2488
 1635TIP3    H226465   5.027   2.449   0.132  0.7936  1.1315 -0.6403
 1636TIP3   OH226466   4.103   4.651   2.061 -0.1764  0.1577 -0.3506
 1636TIP3    H126467   4.164   4.649   1.987 -0.2072 -1.4629 -0.3723
 1636TIP3    H226468   4.114   4.565   2.102  0.2937  1.2478  1.9151
 1637TIP3   OH226469   5.022   3.262   1.145  0.1268  0.0888  0.1503
 1637TIP3    H126470   4.946   3.312   1.174  0.0379 -0.4857  0.9469
 1637TIP3    H226471   5.097   3.315   1.170  0.0130  0.2355  0.1804
 1638TIP3   OH226472   5.204   2.740   0.210 -0.8658 -0.4902 -0.1817
 1638TIP3    H126473   5.181   2.647   0.217 -0.7448 -0.3736  3.3577
 1638TIP3    H226474   5.121   2.787   0.223 -0.5923 -0.1036  0.1910
 1639TIP3   OH226475   3.987   3.944   7.211 -0.2996  0.0272 -0.4549
 1639TIP3    H126476   3.984   3.854   7.244 -3.3636  0.2521  0.2083
 1639TIP3    H226477   4.000   3.998   7.290 -0.4497  0.2331 -0.5691
 1640TIP3   OH226478   5.622   1.040   7.562 -0.0417 -0.2427 -0.4606
 1640TIP3    H126479   5.542   1.004   7.600  1.3618 -2.0317  0.9831
 1640TIP3    H226480   5.642   0.982   7.489  0.7373 -0.8007  0.1651
 1641TIP3   OH226481   5.160   1.763   0.065 -0.0565 -0.0905  0.1120
 1641TIP3    H126482   5.092   1.710   0.107  1.6625 -0.4343  2.7337
 1641TIP3    H226483   5.145   1.851   0.100  1.6272 -0.4547  1.9309
 1642TIP3   OH226484   2.316   5.383   7.101 -0.0446 -0.0535  0.4906
 1642TIP3    H126485   2.301   5.343   7.187 -1.5294 -0.1089  0.2274
 1642TIP3    H226486   2.345   5.311   7.045  0.1037 -0.1842  0.7370
 1643TIP3   OH226487   2.238   6.457   0.169  0.7973  0.0640 -0.4764
 1643TIP3    H126488   2.315   6.437   0.116  0.0462 -3.3136 -0.5333
 1643TIP3    H226489   2.184   6.513   0.113  2.3180  0.9092 -1.1578
 1644TIP3   OH226490   5.100   6.554   1.156 -0.2313  0.1093  0.2407
 1644TIP3    H126491   5.060   6.591   1.078  1.4149  0.2219 -0.6025
 1644TIP3    H226492   5.118   6.463   1.133 -2.1117 -0.6307  1.4675
 1645TIP3   OH226493   5.229   1.008   0.797 -0.2536 -0.3812  0.3035
 1645TIP3    H126494   5.224   1.094   0.755 -0.8647 -1.4468 -1.9808
 1645TIP3    H226495   5.318   0.978   0.779 -0.1164 -0.3381  0.8958
 1646TIP3   OH226496   0.656   6.145   7.809 -0.3821  0.4185 -0.3115
 1646TIP3    H126497   0.572   6.167   7.849 -1.3665 -3.3324  0.0767
 1646TIP3    H226498   0.721   6.165   7.876 -1.2967  0.7057  0.5085
 1647TIP3   OH226499   6.406   2.036   2.106 -0.0495 -0.5012 -0.1694
 1647TIP3    H126500   6.449   1.958   2.142  1.2939  0.3591  0.1363
 1647TIP3    H226501   6.364   2.077   2.181 -1.0334 -1.0900 -0.3868
 1648TIP3   OH226502   5.023   3.826   0.477  0.1411 -0.1731 -0.4741
 1648TIP3    H126503   5.003   3.838   0.385  1.1787 -1.8755 -0.9687
 1648TIP3    H226504   5.040   3.915   0.510 -2.4481  0.6992 -1.3201
 1649TIP3   OH226505   2.000   1.703   1.922 -0.2421 -0.2604 -0.4352
 1649TIP3    H126506   1.952   1.705   2.004  0.8755  0.2115  0.2353
 1649TIP3    H226507   1.959   1.771   1.869 -0.4522 -0.0041  0.0497
 1650TIP3   OH226508   6.461   5.259   1.607  0.5282  0.2547  0.2816
 1650TIP3    H126509   6.466   5.210   1.689 -1.0527 -0.6836 -0.1293
 1650TIP3    H226510   6.375   5.300   1.609 -0.9010 -2.2528 -2.1377
 1651TIP3   OH226511   4.385   2.139   0.158  0.6210 -0.0576  0.2327
 1651TIP3    H126512   4.430   2.075   0.104 -1.4459 -0.9761 -0.4881
 1651TIP3    H226513   4.413   2.118   0.248 -0.7697 -2.7451  0.1546
 1652TIP3   OH226514   1.705   3.196   0.945  0.3531 -0.9363 -0.4717
 1652TIP3    H126515   1.692   3.287   0.917 -2.7422 -1.2132 -0.3460
 1652TIP3    H226516   1.724   3.201   1.038  0.4662 -0.3915 -0.5229
 1653TIP3   OH226517   1.792   2.607   7.019 -0.4807 -0.0955 -0.2272
 1653TIP3    H126518   1.845   2.541   7.064  0.3688  0.9465  0.3324
 1653TIP3    H226519   1.829   2.612   6.931 -0.3474 -0.1318 -0.1728
 1654TIP3   OH226520   1.046   2.768   0.625 -0.2531 -0.5873 -0.0988
 1654TIP3    H126521   0.964   2.815   0.612 -0.9375 -2.3416 -2.8652
 1654TIP3    H226522   1.032   2.720   0.707 -1.5385 -0.0175  0.0548
 1655TIP3   OH226523   3.985   3.609   7.734  0.2073  0.3993  0.4535
 1655TIP3    H126524   4.022   3.533   7.689  0.1879  0.8961 -0.4229
 1655TIP3    H226525   3.894   3.585   7.752  0.5555 -0.2902  1.3860
 1656TIP3   OH226526   2.838   3.480   7.196 -0.1268 -0.0169 -0.6984
 1656TIP3    H126527   2.807   3.555   7.145  0.1978 -0.1098 -1.0328
 1656TIP3    H226528   2.794   3.405   7.157 -0.8817  0.0504 -0.0144
 1657TIP3   OH226529   0.904   4.196   0.375 -0.1790  0.2720 -0.0101
 1657TIP3    H126530   0.847   4.120   0.367 -0.0673  0.2281 -0.3969
 1657TIP3    H226531   0.892   4.244   0.294  0.6914  0.0109 -0.3154
 1658TIP3   OH226532   6.475   7.113   2.145  0.2342 -0.3199 -0.0582
 1658TIP3    H126533   6.447   7.184   2.088 -0.4318 -0.6225 -0.1169
 1658TIP3    H226534   6.453   7.143   2.234  2.7386  0.8597  0.2612
 1659TIP3   OH226535   5.695   0.247   0.896 -0.3432  0.0475  0.7403
 1659TIP3    H126536   5.687   0.236   0.991 -1.8142  1.2580  0.7860
 1659TIP3    H226537   5.729   0.162   0.865  0.1497 -0.3650  2.3262
 1660TIP3   OH226538   1.130   1.134   1.521 -0.5778  0.3924  0.1745
 1660TIP3    H126539   1.095   1.219   1.548 -0.9179 -0.0663  1.2193
 1660TIP3    H226540   1.220   1.134   1.554  0.1394  1.1660 -1.6437
 1661TIP3   OH226541   4.455   4.596   7.838  0.3791 -0.1857  0.1737
 1661TIP3    H126542   4.512   4.672   7.852 -0.8053  0.7235  0.2168
 1661TIP3    H226543   4.379   4.632   7.792  0.3322 -1.5677 -0.8883
 1662TIP3   OH226544   6.602   1.589   1.585  0.0177 -0.0516 -0.4905
 1662TIP3    H126545   6.653   1.520   1.629 -3.2532 -3.4605 -1.4504
 1662TIP3    H226546   6.545   1.623   1.654 -0.9983 -1.1502 -0.7481
 1663TIP3   OH226547   6.051   0.341   1.926 -0.0621 -0.0760 -0.3626
 1663TIP3    H126548   5.967   0.347   1.972 -0.0129 -0.2298 -0.2529
 1663TIP3    H226549   6.028   0.303   1.841 -0.1965  0.4954 -0.5867
 1664TIP3   OH226550   1.372   1.684   7.033 -0.0839  0.4811  0.6502
 1664TIP3    H126551   1.303   1.745   7.005 -0.2151  0.8516  1.7437
 1664TIP3    H226552   1.389   1.630   6.955 -0.4075  1.4972 -0.1399
 1665TIP3   OH226553   1.838   0.028   0.819  0.0548 -0.3436 -0.3451
 1665TIP3    H126554   1.888   0.028   0.738  2.8872  1.5573  1.2239
 1665TIP3    H226555   1.829   0.121   0.841  0.4424 -0.8106  2.0640
 1666TIP3   OH226556   3.420   1.945   7.338  0.2209  0.1787 -0.2013
 1666TIP3    H126557   3.449   1.964   7.249 -1.7660  0.4367 -0.8451
 1666TIP3    H226558   3.338   1.994   7.348 -1.0359 -1.9619  0.7694
 1667TIP3   OH226559   3.771   0.988   2.701  0.4944  0.1186 -0.2827
 1667TIP3    H126560   3.773   1.080   2.677  0.0590  0.1723 -0.1088
 1667TIP3    H226561   3.729   0.945   2.626  3.6746 -0.4240 -1.9440
 1668TIP3   OH226562   2.111   1.005   7.958  0.1536 -0.3731  0.0509
 1668TIP3    H126563   2.144   1.081   7.910 -1.0576  0.0247 -0.2009
 1668TIP3    H226564   2.017   1.022   7.967  0.0613 -1.2935  1.0165
 1669TIP3   OH226565   2.644   4.249   7.931 -0.1873 -0.3472 -0.3076
 1669TIP3    H126566   2.583   4.323   7.937 -0.7752 -0.8386 -0.0512
 1669TIP3    H226567   2.730   4.289   7.925 -0.4976  0.3582 -0.1804
 1670TIP3   OH226568   1.472   6.912   6.773  0.4781  0.0911  0.2151
 1670TIP3    H126569   1.526   6.843   6.733 -0.0226 -0.0811 -0.1775
 1670TIP3    H226570   1.385   6.872   6.783  0.7204 -0.0638  2.0228
 1671TIP3   OH226571   3.575   1.112   6.625  0.1793 -0.0774 -0.1336
 1671TIP3    H126572   3.653   1.086   6.577 -1.1207  0.1802 -2.5464
 1671TIP3    H226573   3.603   1.115   6.716  3.1380  0.5949 -0.9491
 1672TIP3   OH226574   3.358   0.283   0.446 -0.3579 -0.1876 -0.0944
 1672TIP3    H126575   3.339   0.373   0.419  1.6967  0.4328  0.3658
 1672TIP3    H226576   3.330   0.230   0.371  1.1788  1.1106 -1.6827
 1673TIP3   OH226577   4.313   0.295   7.368  0.2445  0.2573 -0.4596
 1673TIP3    H126578   4.353   0.242   7.436 -2.1303 -2.9550 -1.3345
 1673TIP3    H226579   4.354   0.265   7.287  0.7167  1.7139 -0.7970
 1674TIP3   OH226580   5.691   7.036   7.555 -0.6331  0.2051 -0.3704
 1674TIP3    H126581   5.662   6.951   7.588  1.3069 -0.6185 -0.6447
 1674TIP3    H226582   5.638   7.051   7.477  0.8835 -2.1563 -1.9854
 1675TIP3   OH226583   5.837   6.635   0.229  0.6853  0.2325 -0.0445
 1675TIP3    H126584   5.767   6.623   0.165 -0.2208 -0.2307  0.9728
 1675TIP3    H226585   5.918   6.629   0.179  0.0558 -1.6218 -0.9402
 1676TIP3   OH226586   2.764   3.729   6.438 -0.1014 -0.4940 -0.3747
 1676TIP3    H126587   2.726   3.643   6.455  0.3462 -0.8537 -1.1720
 1676TIP3    H226588   2.830   3.714   6.371  0.1954  0.4238 -0.3031
 1677TIP3   OH226589   6.352   4.094   2.609 -0.3729  0.2178  0.2510
 1677TIP3    H126590   6.370   4.000   2.603 -1.0721 -0.1258  2.6680
 1677TIP3    H226591   6.338   4.110   2.702  0.4818  2.8899  0.0060
 1678TIP3   OH226592   0.399   0.311   6.472 -0.0680  0.2476  0.0859
 1678TIP3    H126593   0.486   0.281   6.445 -0.4889 -0.8959 -0.0443
 1678TIP3    H226594   0.416   0.385   6.530  1.0452 -0.6554  0.9517
 1679TIP3   OH226595   3.082   2.201   6.313  0.5221  0.4685  0.4658
 1679TIP3    H126596   3.055   2.280   6.267 -0.2249 -0.1312 -0.1632
 1679TIP3    H226597   3.159   2.170   6.265 -0.7673 -0.6404 -1.0120
 1680TIP3   OH226598   5.775   6.143   7.831 -0.1111  0.1229 -0.0330
 1680TIP3    H126599   5.754   6.236   7.845 -0.0868  0.1095  0.0950
 1680TIP3    H226600   5.790   6.109   7.919 -2.3336 -0.5403  0.1259
 1681TIP3   OH226601   0.884   4.884   6.941 -0.4101 -0.3433  0.0337
 1681TIP3    H126602   0.966   4.928   6.918 -1.4996  0.5886 -2.4277
 1681TIP3    H226603   0.852   4.932   7.017  0.7606  0.0329  0.3113
 1682TIP3   OH226604   4.666   4.455   1.574 -0.4601  0.0548  0.4628
 1682TIP3    H126605   4.600   4.521   1.596 -0.5335  0.3684 -0.6056
 1682TIP3    H226606   4.616   4.377   1.550 -0.5723  0.7628 -1.8783
 1683TIP3   OH226607   1.477   3.991   7.515  0.4052  0.1488 -0.2299
 1683TIP3    H126608   1.529   3.911   7.519  0.6586  0.3388  0.4512
 1683TIP3    H226609   1.534   4.059   7.551 -0.6898  0.1450  1.6649
 1684TIP3   OH226610   2.102   4.173   3.035 -0.1421 -0.3121  0.6505
 1684TIP3    H126611   2.041   4.133   2.972  1.7080 -0.9356 -0.8276
 1684TIP3    H226612   2.116   4.262   3.001  0.7287 -0.5931  0.2650
 1685TIP3   OH226613   7.122   3.044   2.177 -0.1374  0.4194  0.6183
 1685TIP3    H126614   7.216   3.039   2.195 -0.1814  0.5126  0.8747
 1685TIP3    H226615   7.094   2.953   2.170  0.4389  0.3497 -1.9743
 1686TIP3   OH226616   7.144   6.823   0.978 -0.2212  0.5349 -0.1864
 1686TIP3    H126617   7.086   6.838   0.903 -1.4035  0.8790  0.7597
 1686TIP3    H226618   7.178   6.734   0.964 -0.4424  0.5762 -1.0946
 1687TIP3   OH226619   2.324   4.612   1.837 -0.7342  0.4474 -0.0546
 1687TIP3    H126620   2.356   4.522   1.833 -0.0847  0.6942 -2.6128
 1687TIP3    H226621   2.229   4.603   1.843 -0.6407 -0.4002  0.2866
 1688TIP3   OH226622   2.067   3.734   1.876 -0.6371 -0.3034 -0.7180
 1688TIP3    H126623   2.061   3.648   1.834  0.3552 -0.9414  0.4012
 1688TIP3    H226624   1.977   3.755   1.900 -1.1783 -0.1099 -2.7269
 1689TIP3   OH226625   0.673   6.246   7.556 -0.0778 -0.4348  0.4003
 1689TIP3    H126626   0.661   6.187   7.631  2.2599 -3.0469 -1.0869
 1689TIP3    H226627   0.768   6.246   7.542 -0.3381  1.0382 -1.7437
 1690TIP3   OH226628   5.600   3.296   2.326  0.0259 -0.2604 -0.1453
 1690TIP3    H126629   5.629   3.387   2.322 -0.3098 -0.1151  0.5197
 1690TIP3    H226630   5.553   3.281   2.244 -0.3563  0.3247 -0.0372
 1691TIP3   OH226631   5.266   6.320   1.107  0.1661  0.2435  0.2742
 1691TIP3    H126632   5.325   6.365   1.047  0.2839 -0.3085 -0.0278
 1691TIP3    H226633   5.321   6.254   1.150 -0.0757  0.1715  0.4771
 1692TIP3   OH226634   5.056   4.991   2.012  0.2802  0.0680  0.5453
 1692TIP3    H126635   4.991   5.052   2.049 -0.3480 -0.6282  0.6168
 1692TIP3    H226636   5.096   5.040   1.940 -2.1382 -0.3546 -1.1926
 1693TIP3   OH226637   3.144   4.011   0.797  0.7209  0.5395 -0.0681
 1693TIP3    H126638   3.071   4.071   0.778  0.6140  0.2696 -0.5032
 1693TIP3    H226639   3.175   4.040   0.883 -0.2144  0.3437  0.3521
 1694TIP3   OH226640   4.086   1.309   0.476 -0.0812  0.5440  0.3202
 1694TIP3    H126641   4.029   1.260   0.534  1.9676 -0.7214  1.3975
 1694TIP3    H226642   4.163   1.330   0.529  2.0885 -1.0596 -1.9431
 1695TIP3   OH226643   6.264   3.599   2.392  0.0271  0.8200  0.4561
 1695TIP3    H126644   6.357   3.624   2.392  0.6525 -1.3267  0.6106
 1695TIP3    H226645   6.233   3.627   2.478  1.0736 -0.1919  1.1981
 1696TIP3   OH226646   4.334   5.102   7.673 -0.3684 -0.1423 -0.1989
 1696TIP3    H126647   4.322   5.196   7.666  0.2625 -0.1307 -1.2673
 1696TIP3    H226648   4.245   5.068   7.688 -0.8780  0.4658 -1.7029
 1697TIP3   OH226649   4.921   5.994   6.797 -0.3447  0.5179 -0.1467
 1697TIP3    H126650   4.863   5.976   6.723  0.8054  4.4872 -2.2900
 1697TIP3    H226651   4.992   5.930   6.788 -0.7412  0.2595 -1.8876
 1698TIP3   OH226652   2.226   3.780   0.432  0.2036  0.2069 -0.6724
 1698TIP3    H126653   2.138   3.816   0.436  0.7977  1.7072 -0.5553
 1698TIP3    H226654   2.236   3.730   0.513 -0.4382  0.2690 -0.5542
 1699TIP3   OH226655   2.560   6.120   7.119  0.7572 -0.1570 -0.0662
 1699TIP3    H126656   2.490   6.108   7.183  0.4653  0.5775 -0.2421
 1699TIP3    H226657   2.599   6.033   7.110  0.7647 -0.2811  1.0589
 1700TIP3   OH226658   0.895   0.326   6.876  0.2407  0.4335  0.1495
 1700TIP3    H126659   0.851   0.405   6.846 -1.2202 -0.6464 -0.7227
 1700TIP3    H226660   0.930   0.349   6.962 -1.3976  1.6245  0.5503
 1701TIP3   OH226661   1.520   1.946   6.923 -0.3646 -0.1293 -0.4445
 1701TIP3    H126662   1.431   1.980   6.934 -0.8917 -0.8788 -2.1546
 1701TIP3    H226663   1.523   1.913   6.834  1.4563 -0.6963 -0.2230
 1702TIP3   OH226664   6.192   0.260   5.282 -0.0712 -0.3795 -0.0013
 1702TIP3    H126665   6.103   0.243   5.251 -0.5465 -0.0868  1.1516
 1702TIP3    H226666   6.203   0.203   5.358  1.0205 -0.9876 -0.5845
 1703TIP3   OH226667   6.587   1.953   1.787 -0.0825 -0.1489 -0.4785
 1703TIP3    H126668   6.581   1.857   1.791 -0.2973 -0.1704 -1.2480
 1703TIP3    H226669   6.681   1.970   1.775 -0.0212 -0.2545 -0.1582
 1704TIP3   OH226670   4.370   5.818   7.059 -0.2336  0.0308 -0.2443
 1704TIP3    H126671   4.459   5.786   7.043  0.3187  1.8831 -1.1048
 1704TIP3    H226672   4.368   5.837   7.153  0.8292  1.4949 -0.4908
 1705TIP3   OH226673   4.056   2.270   7.821 -0.1645  0.3313  0.7193
 1705TIP3    H126674   4.095   2.357   7.824  0.2766  0.1096  2.1916
 1705TIP3    H226675   4.001   2.271   7.742 -0.7504  2.1923  1.1090
 1706TIP3   OH226676   6.910   6.906   0.054 -0.2350  0.6353  0.1119
 1706TIP3    H126677   6.925   6.988   0.007  0.5158  0.1613 -0.5064
 1706TIP3    H226678   6.818   6.909   0.079 -0.2145  1.6704  0.1133
 1707TIP3   OH226679   2.497   5.894   0.211 -0.2962 -0.1769 -0.0949
 1707TIP3    H126680   2.539   5.889   0.297  1.0934 -0.7946 -0.7645
 1707TIP3    H226681   2.426   5.830   0.215 -0.1293 -0.3286  0.5398
 1708TIP3   OH226682   5.325   6.588   0.539  0.3985 -0.1533 -0.2731
 1708TIP3    H126683   5.252   6.576   0.478  0.3399  2.7494 -0.9313
 1708TIP3    H226684   5.396   6.622   0.484  1.4434 -0.5737  0.7766
 1709TIP3   OH226685   2.619   2.785   0.490 -0.5110 -0.3385 -0.3219
 1709TIP3    H126686   2.543   2.792   0.434 -0.6452  0.4492 -0.0509
 1709TIP3    H226687   2.693   2.814   0.435 -0.5847  0.0496 -0.2199
 1710TIP3   OH226688   0.220   3.275   7.082  0.1834 -0.2383  0.1797
 1710TIP3    H126689   0.174   3.215   7.023 -2.0578  0.7060  0.8491
 1710TIP3    H226690   0.307   3.285   7.044 -0.2541 -1.8532 -1.3688
 1711TIP3   OH226691   5.004   5.628   1.177  0.0100  0.1801  0.2079
 1711TIP3    H126692   5.042   5.649   1.092 -0.6922  0.1857 -0.1128
 1711TIP3    H226693   5.035   5.540   1.197 -0.6350 -0.2317 -0.5376
 1712TIP3   OH226694   1.477   3.409   1.098 -0.8505  0.0587 -0.5494
 1712TIP3    H126695   1.385   3.432   1.109 -0.5645  1.6263 -1.2693
 1712TIP3    H226696   1.505   3.379   1.185 -1.8403  0.2937 -0.1420
 1713TIP3   OH226697   4.693   5.899   6.228  0.2178  0.2702 -0.4556
 1713TIP3    H126698   4.764   5.845   6.192  0.8924  0.3328  0.7104
 1713TIP3    H226699   4.670   5.959   6.157  1.4077  0.3089 -0.8318
 1714TIP3   OH226700   1.516   6.161   6.979 -0.3553  0.4723  0.2269
 1714TIP3    H126701   1.508   6.148   7.074 -0.3201  0.5592  0.2415
 1714TIP3    H226702   1.511   6.255   6.967 -0.6197  0.4457  0.1169
 1715TIP3   OH226703   5.204   2.511   7.207  0.0690  0.0912  0.1686
 1715TIP3    H126704   5.254   2.554   7.137  0.9438  0.1856  0.8284
 1715TIP3    H226705   5.172   2.430   7.168 -0.5507  0.7508 -0.7244
 1716TIP3   OH226706   0.804   0.615   7.923 -0.2106 -0.7028 -0.3839
 1716TIP3    H126707   0.861   0.634   7.849  1.3787 -0.6950  0.7827
 1716TIP3    H226708   0.762   0.698   7.943  0.5709 -0.3063 -0.3176
 1717TIP3   OH226709   6.358   1.465   7.271 -0.3582 -0.6344  0.3644
 1717TIP3    H126710   6.275   1.468   7.319 -1.5404 -0.1082 -1.6000
 1717TIP3    H226711   6.363   1.550   7.226  0.3180 -1.3706 -1.0171
 1718TIP3   OH226712   1.911   1.937   0.817  0.2692 -0.0806  0.8850
 1718TIP3    H126713   1.830   1.961   0.774 -0.1567 -2.6447  0.0706
 1718TIP3    H226714   1.980   1.965   0.758 -0.2778 -2.6615 -1.1764
 1719TIP3   OH226715   2.306   5.163   0.127 -1.1039 -0.5672  0.0679
 1719TIP3    H126716   2.278   5.230   0.190 -0.3781 -0.6410  0.4802
 1719TIP3    H226717   2.247   5.089   0.144  0.0206 -1.1520  1.7237
 1720TIP3   OH226718   3.200   0.220   0.708 -0.0534 -0.2633  0.2591
 1720TIP3    H126719   3.207   0.307   0.669  0.5155 -0.1819  0.5288
 1720TIP3    H226720   3.283   0.177   0.685 -0.0870 -0.5235  0.6198
 1721TIP3   OH226721   5.793   4.247   7.039  0.1003 -0.4047  0.0029
 1721TIP3    H126722   5.759   4.242   7.129  1.8121 -0.3875  0.6848
 1721TIP3    H226723   5.738   4.186   6.989  0.4631 -2.0453  1.5159
 1722TIP3   OH226724   2.991   3.892   0.020  0.7325 -0.1449  0.2474
 1722TIP3    H126725   2.994   3.839  -0.060 -0.6523  0.4708 -0.2601
 1722TIP3    H226726   2.900   3.886   0.048  0.6333  1.6005  0.4021
 1723TIP3   OH226727   4.830   6.377   7.412  0.6352  0.3723 -0.1476
 1723TIP3    H126728   4.852   6.333   7.330  0.4516  0.6948 -0.3723
 1723TIP3    H226729   4.885   6.334   7.478 -1.2459 -1.8462  0.0787
 1724TIP3   OH226730   3.690   6.758   1.494  0.1331 -0.0046  0.4253
 1724TIP3    H126731   3.631   6.682   1.502 -1.4005  1.1002  0.0150
 1724TIP3    H226732   3.635   6.833   1.516  0.9449  1.2184 -1.5288
 1725TIP3   OH226733   0.101   0.604   1.977 -0.2052  0.3396  0.4534
 1725TIP3    H126734   0.059   0.636   2.057  1.2669 -0.2778  1.5058
 1725TIP3    H226735   0.187   0.573   2.006  1.1230  1.8046 -1.6626
 1726TIP3   OH226736   6.788   4.198   0.290  0.1927 -0.2159  0.1177
 1726TIP3    H126737   6.785   4.138   0.364 -0.3751 -0.0225  0.2605
 1726TIP3    H226738   6.703   4.186   0.247  0.2630  0.1428 -0.1228
 1727TIP3   OH226739   1.527   4.175   6.367  0.4365 -0.5997  0.4849
 1727TIP3    H126740   1.502   4.200   6.456  1.4345 -1.7034  1.1014
 1727TIP3    H226741   1.614   4.136   6.376  0.3905 -1.1047 -0.9187
 1728TIP3   OH226742   6.784   0.247   0.068  0.0488 -0.4506  0.3010
 1728TIP3    H126743   6.743   0.195  -0.001 -0.4078 -0.9791  0.9599
 1728TIP3    H226744   6.878   0.240   0.050 -0.0572 -0.7197 -0.1679
 1729TIP3   OH226745   2.617   0.404   0.468  0.0483 -0.1848 -0.2698
 1729TIP3    H126746   2.656   0.375   0.551  2.8614 -2.6841 -2.2674
 1729TIP3    H226747   2.526   0.375   0.474  0.1276 -0.2182  1.9523
 1730TIP3   OH226748   7.114   0.668   2.194  0.1863  0.4925  0.2567
 1730TIP3    H126749   7.157   0.754   2.197  1.9495 -0.3703  0.7240
 1730TIP3    H226750   7.028   0.686   2.154  0.8407  2.3283 -0.4335
 1731TIP3   OH226751   3.844   3.755   1.462  0.6680 -0.0856  0.3203
 1731TIP3    H126752   3.802   3.696   1.525 -0.1939  0.1365 -0.0253
 1731TIP3    H226753   3.936   3.755   1.486  0.5986 -1.1948  0.6296
 1732TIP3   OH226754   1.381   6.910   1.112 -0.1759  0.4882 -0.1254
 1732TIP3    H126755   1.304   6.967   1.113  0.1544  0.9433  1.0911
 1732TIP3    H226756   1.447   6.960   1.064 -0.4040  0.4034 -0.5347
 1733TIP3   OH226757   0.502   3.471   2.018 -0.3328 -0.1191 -0.3706
 1733TIP3    H126758   0.457   3.555   2.013  1.9524  1.1993 -0.1806
 1733TIP3    H226759   0.595   3.494   2.019  0.4056 -2.7092 -1.4924
 1734TIP3   OH226760   7.012   1.779   1.703  0.4846  0.1675  0.1090
 1734TIP3    H126761   6.993   1.687   1.721  1.5679 -0.3205 -1.0953
 1734TIP3    H226762   7.076   1.804   1.770  2.4093 -0.8472 -1.2383
 1735TIP3   OH226763   5.052   3.958   1.985 -0.1202 -0.0722 -0.0959
 1735TIP3    H126764   5.088   3.971   1.898  0.8677  1.1409  0.4645
 1735TIP3    H226765   4.994   4.034   1.999  0.0522 -0.0302  0.4434
 1736TIP3   OH226766   6.996   3.864   0.852  0.6512  0.1346 -0.4439
 1736TIP3    H126767   7.090   3.874   0.832  0.2882  2.5733 -1.2954
 1736TIP3    H226768   6.953   3.930   0.797 -1.4565 -0.0603  0.8703
 1737TIP3   OH226769   3.405   5.522   0.031  0.3703  0.0016  0.2494
 1737TIP3    H126770   3.378   5.574   0.107  0.4989 -0.3494  0.5391
 1737TIP3    H226771   3.435   5.439   0.068 -1.0691 -0.7911 -0.2998
 1738TIP3   OH226772   5.251   0.697   0.558  0.1314 -0.1673 -0.1636
 1738TIP3    H126773   5.204   0.691   0.475 -0.1160 -0.3084 -0.0133
 1738TIP3    H226774   5.281   0.608   0.575 -1.6756 -0.5873  0.9788
 1739TIP3   OH226775   6.955   6.834   0.781  0.7007 -0.1148 -0.4613
 1739TIP3    H126776   6.881   6.893   0.767  0.8446 -0.2163 -1.8115
 1739TIP3    H226777   7.010   6.845   0.703  0.9929 -1.6177 -0.5114
 1740TIP3   OH226778   0.407   4.871   1.916  0.5455  0.1394 -0.6270
 1740TIP3    H126779   0.429   4.781   1.938  2.2119  0.3058 -1.5039
 1740TIP3    H226780   0.311   4.875   1.924  0.5795 -1.2781  0.8892
 1741TIP3   OH226781   5.426   5.222   1.339 -0.2635 -0.6544 -0.3661
 1741TIP3    H126782   5.499   5.189   1.286  0.9926  0.0210  0.8752
 1741TIP3    H226783   5.415   5.157   1.408  1.9028  1.0808  1.8020
 1742TIP3   OH226784   6.964   2.775   7.822  0.1477  0.5241 -0.2378
 1742TIP3    H126785   6.869   2.771   7.827  0.1714 -2.9970 -0.0852
 1742TIP3    H226786   6.990   2.825   7.899 -1.5435  2.3452 -0.7772
 1743TIP3   OH226787   2.926   2.568   7.316 -0.1164 -0.1374 -0.5116
 1743TIP3    H126788   2.834   2.567   7.343  0.7869 -0.8990  2.9190
 1743TIP3    H226789   2.923   2.548   7.222 -3.3514 -1.8378 -0.1954
 1744TIP3   OH226790   3.371   3.932   1.567 -0.4364 -0.1855 -0.3775
 1744TIP3    H126791   3.416   3.903   1.646 -1.1921 -1.2767 -0.3319
 1744TIP3    H226792   3.356   3.853   1.516 -1.2874  0.2956 -0.9132
 1745TIP3   OH226793   5.907   5.044   0.227  0.0612  0.1461  0.0749
 1745TIP3    H126794   5.905   4.949   0.214 -0.9295  0.1511  0.1113
 1745TIP3    H226795   5.977   5.058   0.291 -1.8350 -0.9129  2.5794
 1746TIP3   OH226796   6.994   2.773   2.213 -0.0184 -0.1108  0.0977
 1746TIP3    H126797   6.966   2.683   2.196  0.3934 -0.2192  0.0020
 1746TIP3    H226798   7.081   2.765   2.252 -1.2166  0.0703  3.0758
 1747TIP3   OH226799   1.477   6.956   1.363  0.4889 -0.2604  0.1685
 1747TIP3    H126800   1.447   6.934   1.274 -0.2956  1.1778  0.0465
 1747TIP3    H226801   1.571   6.938   1.361  1.4328  3.5764 -2.3486
 1748TIP3   OH226802   6.226   5.500   7.777  0.1121 -0.0703 -0.3447
 1748TIP3    H126803   6.294   5.494   7.844 -1.6181  1.8878  1.7518
 1748TIP3    H226804   6.247   5.579   7.728  0.2588 -0.3925 -0.8090
 1749TIP3   OH226805   1.766   4.118   1.911  0.2086  0.3911 -0.2003
 1749TIP3    H126806   1.681   4.114   1.953  0.2953  3.8267  0.5473
 1749TIP3    H226807   1.750   4.161   1.827  1.2397  1.7269  0.2473
 1750TIP3   OH226808   5.269   0.282   0.946 -0.0976 -0.0283 -0.2293
 1750TIP3    H126809   5.257   0.188   0.957 -1.4010  0.1005 -0.3158
 1750TIP3    H226810   5.251   0.297   0.853 -5.0645  0.8795  0.5677
 1751TIP3   OH226811   6.039   3.768   1.675  0.1452 -0.4415 -0.2899
 1751TIP3    H126812   6.053   3.788   1.768 -1.1781 -1.7768  0.2278
 1751TIP3    H226813   6.105   3.702   1.655 -0.8645 -1.6694  0.2903
 1752TIP3   OH226814   5.047   0.507   1.024  0.0303  0.2103  0.3590
 1752TIP3    H126815   5.076   0.587   1.068 -1.3819  1.0061 -0.1022
 1752TIP3    H226816   5.126   0.453   1.019  0.7958  1.1693  1.5337
 1753TIP3   OH226817   5.414   3.120   7.148 -0.1886 -0.4394 -0.1368
 1753TIP3    H126818   5.343   3.184   7.161  0.4633  0.4444 -0.8125
 1753TIP3    H226819   5.456   3.148   7.067 -1.3052 -3.0859 -1.7463
 1754TIP3   OH226820   3.340   1.191   0.275 -0.3600 -0.0571 -0.2087
 1754TIP3    H126821   3.394   1.263   0.242  2.2680 -1.6009  0.4369
 1754TIP3    H226822   3.254   1.230   0.288  0.2232  2.2520 -2.4881
 1755TIP3   OH226823   2.128   6.729   7.382  0.4361 -0.2787 -0.2738
 1755TIP3    H126824   2.123   6.672   7.305  2.5120  0.3346 -0.9370
 1755TIP3    H226825   2.222   6.739   7.398  0.0573 -0.2217  2.2507
 1756TIP3   OH226826   3.496   0.227   0.698  0.5724 -0.1920  0.2216
 1756TIP3    H126827   3.448   0.144   0.712  1.5197 -0.8076 -0.0939
 1756TIP3    H226828   3.483   0.247   0.606  1.5486 -0.7717 -0.0499
 1757TIP3   OH226829   2.458   0.016   0.073 -0.4334  0.0628 -0.5114
 1757TIP3    H126830   2.376   0.065   0.077 -0.2017  0.4249 -0.2005
 1757TIP3    H226831   2.518   0.064   0.130  0.0518 -0.1002 -0.8800
 1758TIP3   OH226832   5.925   6.321   2.622 -0.0820  0.2660 -0.1838
 1758TIP3    H126833   5.992   6.255   2.609 -1.6923 -1.9890  1.9705
 1758TIP3    H226834   5.903   6.315   2.715 -0.5907  3.6540  0.0450
 1759TIP3   OH226835   0.070   5.358   2.171 -0.0133  0.4081 -0.1177
 1759TIP3    H126836   0.099   5.419   2.103  1.1008 -0.6705 -0.6442
 1759TIP3    H226837   0.076   5.408   2.252 -0.7389  1.5174 -0.7068
 1760TIP3   OH226838   0.393   1.761   7.289 -0.0097 -0.1481  0.0713
 1760TIP3    H126839   0.358   1.703   7.356  0.8837  0.1255  0.7965
 1760TIP3    H226840   0.443   1.703   7.231 -2.6503 -0.7689 -1.7637
 1761TIP3   OH226841   2.401   0.835   0.565  0.0845 -0.2921 -0.0621
 1761TIP3    H126842   2.487   0.801   0.541  1.2620 -0.3040  3.5512
 1761TIP3    H226843   2.407   0.930   0.552  0.3803 -0.3714 -0.4943
 1762TIP3   OH226844   3.053   6.224   7.893 -0.2110  0.5879 -0.0055
 1762TIP3    H126845   2.982   6.222   7.829 -0.8846 -2.3297  0.6940
 1762TIP3    H226846   3.131   6.198   7.843 -0.7811 -1.9426  0.2849
 1763TIP3   OH226847   1.098   0.581   7.368  0.1191  0.2389 -0.3833
 1763TIP3    H126848   1.183   0.540   7.385  0.9856  1.1927 -2.1169
 1763TIP3    H226849   1.036   0.508   7.364  0.7427 -0.4404  1.2664
 1764TIP3   OH226850   2.725   1.426   1.994  0.3949 -0.0166 -0.9217
 1764TIP3    H126851   2.750   1.379   2.073  0.5238 -1.1984 -1.6271
 1764TIP3    H226852   2.692   1.511   2.024  2.0662  0.2482  0.2629
 1765TIP3   OH226853   0.222   5.849   1.187  0.5110  0.5842  0.5756
 1765TIP3    H126854   0.185   5.866   1.273 -0.5722  0.8925  0.0701
 1765TIP3    H226855   0.212   5.755   1.174 -3.6415  1.0537 -1.0352
 1766TIP3   OH226856   6.808   1.277   7.682 -0.3737 -0.2470 -0.1318
 1766TIP3    H126857   6.880   1.310   7.629 -1.2110  0.3825 -0.9206
 1766TIP3    H226858   6.807   1.183   7.665  1.2142 -0.5276  1.1121
 1767TIP3   OH226859   6.984   6.625   6.325 -0.8638  0.3026 -0.4499
 1767TIP3    H126860   7.079   6.633   6.331 -0.9081  5.8273 -1.6994
 1767TIP3    H226861   6.956   6.592   6.411  2.0242 -2.7414 -0.4718
 1768TIP3   OH226862   0.917   5.110   7.762  0.1127  0.2658 -0.3460
 1768TIP3    H126863   0.898   5.131   7.671 -0.4199 -0.8152 -0.5082
 1768TIP3    H226864   0.954   5.021   7.758  2.1656  1.0283  0.2850
 1769TIP3   OH226865   4.414   5.968   7.922  0.4179  0.0210  0.0543
 1769TIP3    H126866   4.441   6.051   7.962  0.4627  0.8372 -1.6088
 1769TIP3    H226867   4.452   5.901   7.979 -1.2876  1.0553  2.5986
 1770TIP3   OH226868   0.235   1.816   7.969  0.3217  0.6988  0.2537
 1770TIP3    H126869   0.142   1.803   7.951  0.1390  1.3467  0.7129
 1770TIP3    H226870   0.251   1.907   7.947  0.4642  1.0608  1.7792
 1771TIP3   OH226871   3.373   3.581   0.749 -0.1901  0.8896 -0.1908
 1771TIP3    H126872   3.298   3.581   0.689 -0.0064  0.1293 -0.4234
 1771TIP3    H226873   3.334   3.572   0.836 -0.3127 -1.4512 -0.4210
 1772TIP3   OH226874   5.237   0.757   0.030  0.5623 -0.3982  0.2466
 1772TIP3    H126875   5.206   0.682  -0.021 -0.6560  0.2880 -0.0554
 1772TIP3    H226876   5.325   0.732   0.058 -0.1984 -2.3912  1.0395
 1773TIP3   OH226877   5.833   5.284   0.378 -0.5568  0.2272 -0.5207
 1773TIP3    H126878   5.855   5.240   0.296 -1.5323  1.8994 -1.7338
 1773TIP3    H226879   5.783   5.219   0.427 -0.0624 -0.7518 -1.2730
 1774TIP3   OH226880   3.530   5.972   0.895 -0.4525 -0.3511 -0.7777
 1774TIP3    H126881   3.470   6.034   0.939 -1.1503 -0.9616 -0.8461
 1774TIP3    H226882   3.514   5.985   0.802 -0.2568 -0.2998 -0.8036
 1775TIP3   OH226883   5.903   6.039   0.360 -0.6268  0.2108  0.3630
 1775TIP3    H126884   5.817   6.069   0.391 -0.9067  0.5104 -0.6487
 1775TIP3    H226885   5.965   6.069   0.427 -1.2298  0.6062  0.7589
 1776TIP3   OH226886   4.761   3.345   1.872  0.0788  0.5356 -0.1675
 1776TIP3    H126887   4.709   3.266   1.861  0.0247  0.3430  1.3312
 1776TIP3    H226888   4.846   3.314   1.903 -0.2061  1.0860  1.2456
 1777TIP3   OH226889   0.655   3.125   1.621  0.0556 -0.3173 -0.2961
 1777TIP3    H126890   0.611   3.126   1.706  1.0740 -0.5802  0.2513
 1777TIP3    H226891   0.610   3.192   1.569  1.4854  2.2517  1.5397
 1778TIP3   OH226892   2.010   2.578   6.204  0.3033  0.1226  0.8135
 1778TIP3    H126893   1.992   2.647   6.267  0.4056  0.5683  0.3576
 1778TIP3    H226894   1.952   2.596   6.130 -0.3001 -0.7747  1.0467
 1779TIP3   OH226895   4.156   6.581   7.201  0.2406  0.0877 -0.3263
 1779TIP3    H126896   4.172   6.573   7.107  0.5385 -0.1217 -0.2597
 1779TIP3    H226897   4.072   6.537   7.215  0.5995 -0.6276 -0.3684
 1780TIP3   OH226898   4.478   6.903   6.999  0.3854 -0.1496 -0.0746
 1780TIP3    H126899   4.563   6.936   7.030 -0.1336  1.0968  0.0615
 1780TIP3    H226900   4.455   6.835   7.061 -0.0989  1.5368  1.7013
 1781TIP3   OH226901   2.300   1.785   7.098  0.3851  0.1884  0.2294
 1781TIP3    H126902   2.367   1.853   7.086  0.1039  0.4911  0.3444
 1781TIP3    H226903   2.232   1.809   7.035  0.3620 -0.0878  0.1506
 1782TIP3   OH226904   5.070   0.624   7.414  0.4227 -0.0172  0.0289
 1782TIP3    H126905   5.112   0.544   7.445 -0.7746 -0.2286  1.1968
 1782TIP3    H226906   5.029   0.599   7.331  2.7973  0.2900 -1.3407
 1783TIP3   OH226907   6.733   1.823   0.524 -0.0274 -0.1389  0.3213
 1783TIP3    H126908   6.666   1.760   0.551 -1.0480  1.3410  1.4152
 1783TIP3    H226909   6.810   1.800   0.575  1.0768 -3.0891 -2.3378
 1784TIP3   OH226910   1.413   2.989   1.643  0.2292  0.9020 -0.1567
 1784TIP3    H126911   1.340   2.944   1.600  0.1491  0.8080  0.0729
 1784TIP3    H226912   1.371   3.039   1.714  0.5721 -0.5834  1.1316
 1785TIP3   OH226913   6.666   6.627   2.171  0.3242 -0.6338 -0.0753
 1785TIP3    H126914   6.750   6.599   2.135 -0.2838 -1.2246 -1.0870
 1785TIP3    H226915   6.680   6.719   2.196  0.6779 -0.0145 -2.2853
 1786TIP3   OH226916   4.241   6.423   1.957 -0.7395  0.3586  0.0663
 1786TIP3    H126917   4.169   6.481   1.933 -0.3896  0.7100 -0.1426
 1786TIP3    H226918   4.276   6.393   1.873 -0.1320  0.8229  0.1515
 1787TIP3   OH226919   2.234   3.405   0.180 -0.0213 -0.3642 -0.1580
 1787TIP3    H126920   2.310   3.376   0.129  1.8718  1.7314  1.2630
 1787TIP3    H226921   2.184   3.458   0.119  2.2287  2.1507 -0.0042
 1788TIP3   OH226922   1.424   0.157   1.207 -0.7493 -0.1438 -0.3947
 1788TIP3    H126923   1.421   0.099   1.283 -1.0742  0.0746 -0.2363
 1788TIP3    H226924   1.464   0.237   1.240  2.0264 -1.0945 -1.1876
 1789TIP3   OH226925   4.548   3.144   6.259 -0.2309 -0.4966 -0.5517
 1789TIP3    H126926   4.482   3.099   6.312  0.5610 -0.8501  0.1394
 1789TIP3    H226927   4.559   3.088   6.182 -1.1887 -0.1137 -0.9908
 1790TIP3   OH226928   6.182   2.708   2.056 -0.2275  0.3475 -0.5298
 1790TIP3    H126929   6.256   2.698   2.116 -0.9519 -0.4404  0.2571
 1790TIP3    H226930   6.197   2.793   2.014 -0.1291  1.3400  1.4009
 1791TIP3   OH226931   1.782   1.970   0.529  0.0455  0.1761  0.3048
 1791TIP3    H126932   1.785   1.939   0.438 -0.4807  2.7484 -0.6662
 1791TIP3    H226933   1.864   2.018   0.541  0.7765 -1.3107  1.7263
 1792TIP3   OH226934   2.241   4.382   0.986 -0.0438 -0.4742  0.6309
 1792TIP3    H126935   2.209   4.470   1.006 -0.1129 -0.8295  2.1509
 1792TIP3    H226936   2.165   4.338   0.948 -0.0917  0.0080  0.1388
 1793TIP3   OH226937   4.563   6.121   1.458  0.2645 -0.5120  0.6660
 1793TIP3    H126938   4.640   6.131   1.402  0.1462  1.0392  0.7388
 1793TIP3    H226939   4.572   6.190   1.524 -1.7029  0.3924  0.0714
 1794TIP3   OH226940   0.697   2.391   0.795 -0.3922  0.0977  0.7705
 1794TIP3    H126941   0.728   2.370   0.706  0.4517 -1.6471  1.4315
 1794TIP3    H226942   0.608   2.423   0.782  0.2580  1.3817 -0.8396
 1795TIP3   OH226943   0.120   6.231   0.899  0.1395  0.0017 -0.0994
 1795TIP3    H126944   0.182   6.259   0.965  0.5269  2.2388 -1.2968
 1795TIP3    H226945   0.128   6.297   0.829 -1.1311 -1.5388 -1.8066
 1796TIP3   OH226946   6.306   5.279   0.679 -0.1730 -0.2420  0.2675
 1796TIP3    H126947   6.389   5.280   0.726  0.7033 -2.3804 -1.1228
 1796TIP3    H226948   6.330   5.270   0.587 -1.9210  0.8466 -0.3487
 1797TIP3   OH226949   1.827   0.589   0.101  0.3802 -0.6404 -0.0306
 1797TIP3    H126950   1.918   0.592   0.072 -0.5724 -0.2538 -3.4204
 1797TIP3    H226951   1.784   0.529   0.041 -2.1819  1.5208 -0.5662
 1798TIP3   OH226952   0.441   6.688   6.824  0.2640 -0.0182 -0.9309
 1798TIP3    H126953   0.376   6.753   6.851 -0.5845 -1.9024  2.0042
 1798TIP3    H226954   0.521   6.714   6.869  0.1149 -0.5621 -0.3365
 1799TIP3   OH226955   1.059   2.760   0.078  0.2648  0.3810  0.0801
 1799TIP3    H126956   1.100   2.834   0.035 -0.2614  0.4072 -0.3820
 1799TIP3    H226957   0.969   2.757   0.044 -0.2237  0.4955  1.2755
 1800TIP3   OH226958   0.380   2.456   0.382  0.4541 -0.1159 -0.3040
 1800TIP3    H126959   0.300   2.493   0.343 -0.3836 -2.2131 -0.6852
 1800TIP3    H226960   0.445   2.526   0.373 -0.7493  0.8616 -1.9915
 1801TIP3   OH226961   3.533   4.013   1.134 -0.7837 -0.3114  0.1172
 1801TIP3    H126962   3.481   3.935   1.113 -0.6605 -0.3550 -0.0264
 1801TIP3    H226963   3.623   3.981   1.141 -0.6790 -0.1228 -0.3155
 1802TIP3   OH226964   0.697   6.591   2.385  0.6934 -0.4724  0.0151
 1802TIP3    H126965   0.723   6.603   2.476  0.2381  0.0659  0.0837
 1802TIP3    H226966   0.732   6.667   2.339 -0.8250  0.3456  0.1364
 1803TIP3   OH226967   4.893   5.463   0.634 -0.0581  0.1785  0.3553
 1803TIP3    H126968   4.922   5.410   0.708 -0.4309  0.7505  0.9169
 1803TIP3    H226969   4.973   5.482   0.585 -0.0544 -2.0266 -0.6265
 1804TIP3   OH226970   3.496   5.064   2.430  0.4754  0.0538 -0.1963
 1804TIP3    H126971   3.451   5.143   2.458 -0.1972 -1.0557  2.1176
 1804TIP3    H226972   3.455   5.041   2.347  0.7645  2.1464 -0.9660
 1805TIP3   OH226973   0.579   5.576   7.974 -0.4683  0.2319  0.1419
 1805TIP3    H126974   0.666   5.564   7.935 -0.0655  2.5703  0.1626
 1805TIP3    H226975   0.568   5.500   8.031  0.4772 -1.4083 -1.7354
 1806TIP3   OH226976   4.239   4.696   0.083  0.1373  0.1702 -0.0019
 1806TIP3    H126977   4.176   4.762   0.052  0.9281  1.0731  0.2582
 1806TIP3    H226978   4.322   4.744   0.090 -0.0500  0.2539  4.0955
 1807TIP3   OH226979   4.539   6.695   6.658 -0.6404 -0.7202  0.4905
 1807TIP3    H126980   4.465   6.637   6.641 -1.0873 -0.5366  1.7425
 1807TIP3    H226981   4.565   6.675   6.748 -0.1199  0.2684  0.5720
 1808TIP3   OH226982   5.543   2.997   7.380 -0.4696  0.2024  0.2083
 1808TIP3    H126983   5.505   2.913   7.356  0.0065 -0.4288  1.5826
 1808TIP3    H226984   5.502   3.060   7.320 -0.9376 -0.9717 -0.7373
 1809TIP3   OH226985   4.037   1.427   1.538  0.6510 -0.0272 -0.0536
 1809TIP3    H126986   4.071   1.409   1.626  0.9045  0.1838 -0.1066
 1809TIP3    H226987   4.082   1.507   1.511  2.3921 -1.3475 -1.3381
 1810TIP3   OH226988   2.382   1.685   0.837  0.6748  0.1629 -0.6714
 1810TIP3    H126989   2.354   1.739   0.911  1.1883  0.1005 -0.4284
 1810TIP3    H226990   2.425   1.609   0.877  2.3289  0.8656 -1.0254
 1811TIP3   OH226991   5.504   1.931   0.118  0.2630 -0.8560  0.5735
 1811TIP3    H126992   5.534   2.021   0.109 -0.6816 -0.6039 -0.1279
 1811TIP3    H226993   5.525   1.908   0.209  0.8597 -0.0735  0.6458
 1812TIP3   OH226994   3.126   3.559   1.295 -0.4095  0.4551  0.3525
 1812TIP3    H126995   3.115   3.482   1.238 -1.3614  1.8318 -1.4129
 1812TIP3    H226996   3.052   3.554   1.356 -2.5053  1.6612 -1.9026
 1813TIP3   OH226997   1.551   4.705   7.685 -0.5218 -0.0932  0.1564
 1813TIP3    H126998   1.498   4.667   7.755  1.0167  0.9167  1.9304
 1813TIP3    H226999   1.575   4.630   7.630 -2.4051 -0.7858  0.2115
 1814TIP3   OH227000   1.544   2.181   0.507 -0.5307  0.0535  0.1075
 1814TIP3    H127001   1.588   2.099   0.483  0.2130  0.3616  0.3683
 1814TIP3    H227002   1.570   2.243   0.438 -1.1078  0.0686 -0.1026
 1815TIP3   OH227003   3.853   4.357   6.509 -0.1193  0.2261  0.1129
 1815TIP3    H127004   3.854   4.426   6.575  0.0236 -0.8792  1.3176
 1815TIP3    H227005   3.759   4.343   6.492 -0.1983 -0.1351  0.8091
 1816TIP3   OH227006   1.267   5.239   1.061 -0.0561 -0.2497  0.1879
 1816TIP3    H127007   1.233   5.325   1.087 -1.2325 -0.9757  1.1703
 1816TIP3    H227008   1.295   5.251   0.970  0.0747  1.2430  0.3976
 1817TIP3   OH227009   5.734   4.110   0.243  0.3440  0.0997 -0.7562
 1817TIP3    H127010   5.667   4.042   0.244  0.4129  0.0173 -1.2708
 1817TIP3    H227011   5.781   4.099   0.326 -0.0775 -0.0430 -0.5344
 1818TIP3   OH227012   6.838   6.289   2.260 -0.2421 -0.0197 -0.5344
 1818TIP3    H127013   6.890   6.284   2.340 -0.2989 -1.6009 -0.5725
 1818TIP3    H227014   6.891   6.340   2.199  1.3574 -1.6932 -0.6134
 1819TIP3   OH227015   3.745   4.401   0.028  0.0434 -0.4755  0.2181
 1819TIP3    H127016   3.775   4.326  -0.023  1.5189  0.1358  0.1394
 1819TIP3    H227017   3.670   4.367   0.078  1.3323 -2.3273  1.0196
 1820TIP3   OH227018   6.882   0.436   0.682  0.2433  0.1699  0.4182
 1820TIP3    H127019   6.878   0.341   0.673  1.3022  0.1690 -0.2111
 1820TIP3    H227020   6.852   0.453   0.772 -0.5444 -0.6903  0.3380
 1821TIP3   OH227021   4.985   1.528   1.252  0.1836 -0.0062 -0.0245
 1821TIP3    H127022   4.897   1.538   1.216  0.7533  1.0097 -1.1990
 1821TIP3    H227023   4.971   1.491   1.340 -1.3834 -0.0722 -0.2738
 1822TIP3   OH227024   6.117   0.825   7.002  0.1895 -0.3281  0.2081
 1822TIP3    H127025   6.083   0.812   7.091 -1.5520 -2.7512 -0.6838
 1822TIP3    H227026   6.098   0.916   6.982 -0.0386  0.0713  2.0459
 1823TIP3   OH227027   4.372   6.940   7.384  0.2978  0.0271  0.4942
 1823TIP3    H127028   4.455   6.940   7.337  0.4186  0.3872  0.7071
 1823TIP3    H227029   4.326   7.018   7.353  0.0755 -0.1243  0.4407
 1824TIP3   OH227030   3.371   3.034   7.915 -0.3922  0.2758  0.5604
 1824TIP3    H127031   3.383   3.118   7.870 -1.2841  1.6564  2.7154
 1824TIP3    H227032   3.434   3.036   7.986  0.7545 -1.6950 -0.3298
 1825TIP3   OH227033   2.599   4.088   6.413 -0.3576 -0.2952 -0.3303
 1825TIP3    H127034   2.604   4.085   6.317 -0.5499  0.1118 -0.3546
 1825TIP3    H227035   2.552   4.169   6.432 -2.5603 -1.5938  0.0450
 1826TIP3   OH227036   5.429   3.223   2.824 -0.8223 -0.6189 -0.2495
 1826TIP3    H127037   5.502   3.274   2.791  0.5291 -2.4285 -0.2108
 1826TIP3    H227038   5.386   3.280   2.887  1.2986  0.1025  0.6402
 1827TIP3   OH227039   5.173   2.704   1.714 -0.1373  0.0418  0.6429
 1827TIP3    H127040   5.225   2.744   1.644  2.9605  0.3730  2.8821
 1827TIP3    H227041   5.186   2.610   1.704 -1.7370 -0.0684 -0.6089
 1828TIP3   OH227042   4.986   6.753   7.805  0.1763  0.7434 -0.3806
 1828TIP3    H127043   4.894   6.733   7.819  0.1471  1.2940  0.2961
 1828TIP3    H227044   4.986   6.821   7.737  0.0276  1.2345  0.0971
 1829TIP3   OH227045   0.783   2.684   7.945 -0.0327  0.4002 -0.3618
 1829TIP3    H127046   0.755   2.687   7.854  1.2882 -0.7239 -0.8401
 1829TIP3    H227047   0.804   2.592   7.961  1.3751  0.8392  0.5510
 1830TIP3   OH227048   0.665   6.537   0.127 -0.3394 -0.1654 -0.2435
 1830TIP3    H127049   0.629   6.481   0.058 -1.0072 -2.9408  2.1588
 1830TIP3    H227050   0.756   6.509   0.135 -0.7030 -1.0578  1.0369
 1831TIP3   OH227051   4.130   5.737   7.334 -0.2714  0.1081 -0.0893
 1831TIP3    H127052   4.156   5.829   7.333 -0.8011  0.2533 -1.4041
 1831TIP3    H227053   4.199   5.692   7.287 -1.5010  0.2735 -2.1476
 1832TIP3   OH227054   1.509   2.549   1.578 -0.1506  0.5414  0.3245
 1832TIP3    H127055   1.583   2.504   1.618 -0.6694  0.3277  1.0429
 1832TIP3    H227056   1.497   2.506   1.493 -1.4068 -1.5197  1.4878
 1833TIP3   OH227057   6.550   5.256   0.810 -0.7897  0.0703 -0.0314
 1833TIP3    H127058   6.618   5.211   0.760 -0.4386 -0.3534  0.8037
 1833TIP3    H227059   6.514   5.189   0.868 -0.7035  0.7008  0.7796
 1834TIP3   OH227060   0.868   2.598   1.672  0.1757 -0.2276  0.7373
 1834TIP3    H127061   0.947   2.630   1.628  1.0227  2.9129  4.0377
 1834TIP3    H227062   0.808   2.672   1.671 -1.5061 -1.5276  1.0395
 1835TIP3   OH227063   1.603   4.914   7.525  0.0824 -0.1372  0.3714
 1835TIP3    H127064   1.678   4.889   7.471  0.8681  1.9406  0.4204
 1835TIP3    H227065   1.593   4.841   7.586  1.9403 -0.5885  0.2145
 1836TIP3   OH227066   3.197   1.104   7.685 -0.3141  0.2315 -0.3664
 1836TIP3    H127067   3.164   1.189   7.714 -1.9423 -0.6305  0.4774
 1836TIP3    H227068   3.241   1.122   7.602  0.7207  2.1112  0.5308
 1837TIP3   OH227069   4.092   5.568   0.768  0.2559 -0.2668 -0.1196
 1837TIP3    H127070   4.055   5.486   0.736 -0.8619  0.5195 -0.9692
 1837TIP3    H227071   4.187   5.555   0.767  0.0726 -1.7398  0.3565
 1838TIP3   OH227072   2.533   3.371   2.726 -0.2184  0.3717  0.0397
 1838TIP3    H127073   2.563   3.458   2.753 -0.2781  0.4980 -0.3017
 1838TIP3    H227074   2.534   3.320   2.807  0.4940  0.4931  0.1127
 1839TIP3   OH227075   0.816   0.923   6.519  0.0873  0.4973 -0.9823
 1839TIP3    H127076   0.726   0.952   6.538 -0.5955 -1.9284 -0.1101
 1839TIP3    H227077   0.871   0.975   6.577 -0.8441  1.3323 -0.8230
 1840TIP3   OH227078   2.101   4.986   0.105 -0.3357  0.0533  0.3137
 1840TIP3    H127079   2.115   4.892   0.113  0.7330  0.2032  0.2805
 1840TIP3    H227080   2.005   4.995   0.100 -0.4365 -1.0582 -0.1058
 1841TIP3   OH227081   5.453   3.200   6.904  0.1401 -0.2419 -0.2342
 1841TIP3    H127082   5.378   3.238   6.857  0.3050  1.0327  0.4827
 1841TIP3    H227083   5.528   3.220   6.849  0.1121 -0.3458 -0.3094
 1842TIP3   OH227084   7.080   2.707   7.430  0.1755 -0.7923  0.0438
 1842TIP3    H127085   7.139   2.711   7.505 -1.1198 -0.4086  1.0952
 1842TIP3    H227086   7.053   2.616   7.424 -0.1443 -0.7230  0.4014
 1843TIP3   OH227087   3.423   4.155   7.288 -0.1041  0.0834  0.2568
 1843TIP3    H127088   3.364   4.113   7.226 -0.8822  0.7464  0.5264
 1843TIP3    H227089   3.508   4.156   7.244 -0.8322  1.3892 -1.2063
 1844TIP3   OH227090   5.237   3.976   0.102  0.4164  0.4281  0.1388
 1844TIP3    H127091   5.304   3.915   0.134  1.0742  0.3666 -1.2793
 1844TIP3    H227092   5.270   4.063   0.126 -0.0235  0.3015  1.2579
 1845TIP3   OH227093   3.466   4.170   2.213  0.5902 -0.4114  0.2143
 1845TIP3    H127094   3.531   4.203   2.275  1.7828 -0.5819 -0.9052
 1845TIP3    H227095   3.388   4.152   2.267  1.3359  0.1333  1.5217
 1846TIP3   OH227096   6.186   5.677   0.583 -0.2249  0.0150 -0.0422
 1846TIP3    H127097   6.104   5.723   0.602 -0.8280 -0.3130 -1.6882
 1846TIP3    H227098   6.159   5.599   0.536  0.9090 -1.2642  1.3293
 1847TIP3   OH227099   0.730   1.127   7.752 -0.4761 -0.0821  0.3200
 1847TIP3    H127100   0.790   1.160   7.686  0.3132  1.0061  1.5407
 1847TIP3    H227101   0.657   1.091   7.702  0.3454  0.2215 -1.1454
 1848TIP3   OH227102   0.765   1.671   7.321  0.2664 -0.1451 -0.1069
 1848TIP3    H127103   0.767   1.725   7.242 -0.4086  0.6672  0.4194
 1848TIP3    H227104   0.795   1.730   7.391 -0.0079 -0.5937  0.3931
 1849TIP3   OH227105   0.698   5.954   0.700  0.4083  0.0872  0.2976
 1849TIP3    H127106   0.610   5.990   0.696  0.6419  0.6603  0.0846
 1849TIP3    H227107   0.708   5.905   0.619  0.6371  0.8830 -0.1660
 1850TIP3   OH227108   1.896   0.668   0.475  0.6286  0.4990 -0.0410
 1850TIP3    H127109   1.900   0.573   0.462 -0.6892  0.2920  0.8777
 1850TIP3    H227110   1.937   0.682   0.561 -1.2059  0.4526  0.8998
 1851TIP3   OH227111   3.137   2.893   6.260 -0.5177 -0.1433 -0.0729
 1851TIP3    H127112   3.216   2.844   6.237 -1.1143 -1.2111  0.0745
 1851TIP3    H227113   3.122   2.951   6.185  0.8202  0.6343  0.2286
 1852TIP3   OH227114   1.482   5.487   0.697  0.0227  0.0963 -0.0141
 1852TIP3    H127115   1.394   5.463   0.725  0.0190 -0.0285 -0.1356
 1852TIP3    H227116   1.520   5.531   0.773 -0.2822  0.5027 -0.0961
 1853TIP3   OH227117   1.608   1.803   2.484 -0.3390  0.3101  0.1415
 1853TIP3    H127118   1.677   1.869   2.476 -0.8536  0.8809  0.3347
 1853TIP3    H227119   1.618   1.748   2.407 -2.0967  2.7189 -1.9588
 1854TIP3   OH227120   0.338   0.086   6.280 -0.7922 -0.5962  0.8632
 1854TIP3    H127121   0.298   0.114   6.198  1.5446  0.4511  0.0056
 1854TIP3    H227122   0.318   0.156   6.342 -1.2019 -0.6257  0.7686
 1855TIP3   OH227123   3.694   1.333   7.977  0.1892 -0.2072  0.2914
 1855TIP3    H127124   3.669   1.242   7.990  1.8304 -0.8200 -0.5393
 1855TIP3    H227125   3.789   1.330   7.967  0.1014  1.3555 -1.5945
 1856TIP3   OH227126   5.830   6.661   7.316  0.1476  0.8738  0.1398
 1856TIP3    H127127   5.871   6.741   7.348 -0.8455  1.4215  0.0577
 1856TIP3    H227128   5.845   6.597   7.386  0.5670  1.2410  0.3920
 1857TIP3   OH227129   1.086   4.647   0.687 -0.1707 -0.2061 -0.1637
 1857TIP3    H127130   1.047   4.601   0.612 -0.3244 -0.2629 -0.0485
 1857TIP3    H227131   1.181   4.634   0.677 -0.1894 -0.1983 -0.3576
 1858TIP3   OH227132   6.941   6.592   1.224  0.0143 -0.0845  0.4218
 1858TIP3    H127133   6.939   6.603   1.319 -1.8465  3.1686  0.1862
 1858TIP3    H227134   6.850   6.571   1.201  0.1592  0.4698 -0.7174
 1859TIP3   OH227135   3.662   0.399   7.262 -0.3258  0.4023  0.0426
 1859TIP3    H127136   3.675   0.494   7.266  0.8123  0.2061  2.0285
 1859TIP3    H227137   3.748   0.362   7.278 -0.9237 -0.9739  0.2474
 1860TIP3   OH227138   1.342   4.640   0.347 -0.2099 -0.1559 -0.4599
 1860TIP3    H127139   1.247   4.646   0.333 -0.4498 -1.0898  0.5835
 1860TIP3    H227140   1.376   4.605   0.265 -0.8907 -0.6097 -0.5592
 1861TIP3   OH227141   1.780   6.707   6.405 -0.0078  0.6720 -0.8051
 1861TIP3    H127142   1.862   6.753   6.386  0.4475 -0.2806 -1.1918
 1861TIP3    H227143   1.802   6.614   6.399 -0.5056  0.3291  1.6230
 1862TIP3   OH227144   6.980   3.283   2.218 -0.9832 -0.6193 -0.4944
 1862TIP3    H127145   7.039   3.208   2.222  1.2851  1.0416  3.7031
 1862TIP3    H227146   6.912   3.262   2.282 -0.7988  0.5018  0.0841
 1863TIP3   OH227147   4.775   1.736   0.607  0.3892  0.2431 -0.1136
 1863TIP3    H127148   4.807   1.797   0.673 -0.1513  0.1523  0.2406
 1863TIP3    H227149   4.683   1.760   0.595  0.1058 -0.6506  0.2040
 1864TIP3   OH227150   0.455   1.293   1.429 -0.1142  1.5214 -0.5250
 1864TIP3    H127151   0.425   1.298   1.338  0.5318  2.2593 -0.7116
 1864TIP3    H227152   0.376   1.273   1.479 -0.8450  2.9161 -1.0606
 1865TIP3   OH227153   4.827   5.406   0.240  0.2696 -0.0383 -0.3651
 1865TIP3    H127154   4.919   5.407   0.270  0.3956  2.0192 -0.6465
 1865TIP3    H227155   4.794   5.321   0.267  2.5578 -1.2749 -1.1847
 1866TIP3   OH227156   3.477   3.718   2.302 -0.0516 -0.2812  0.4983
 1866TIP3    H127157   3.527   3.766   2.368 -0.4392  2.9442 -1.3405
 1866TIP3    H227158   3.386   3.724   2.332 -0.0639 -0.0841  0.4260
 1867TIP3   OH227159   5.498   5.391   7.245  0.5875  0.0046  0.6792
 1867TIP3    H127160   5.526   5.413   7.156 -1.6773  1.6335  0.2803
 1867TIP3    H227161   5.499   5.295   7.247  2.8750 -0.0515 -0.3028
 1868TIP3   OH227162   5.088   6.615   6.651 -0.8360  0.1749 -0.9121
 1868TIP3    H127163   5.018   6.579   6.705 -1.0359  0.1756 -1.1669
 1868TIP3    H227164   5.043   6.656   6.577 -0.6013  0.8131 -0.7073
 1869TIP3   OH227165   2.915   4.582   1.070 -0.7290  0.1290  0.1196
 1869TIP3    H127166   2.921   4.677   1.070 -0.6911  0.1332 -0.6344
 1869TIP3    H227167   2.906   4.558   1.163  1.5581  0.7131  0.5490
 1870TIP3   OH227168   2.411   2.366   0.447  0.0944 -0.2045  0.0644
 1870TIP3    H127169   2.376   2.430   0.386 -2.5228 -1.3623  0.2362
 1870TIP3    H227170   2.433   2.417   0.525 -1.5514  0.5849  0.0535
 1871TIP3   OH227171   4.816   2.996   1.152 -0.1471  0.3838 -0.0941
 1871TIP3    H127172   4.728   3.033   1.150 -0.0170  0.7825  0.8682
 1871TIP3    H227173   4.874   3.072   1.156  0.2392  0.1220 -0.6477
 1872TIP3   OH227174   2.528   3.526   7.519 -0.1973  0.5723  0.5615
 1872TIP3    H127175   2.454   3.466   7.524 -0.5620  0.9011 -0.6446
 1872TIP3    H227176   2.584   3.501   7.592 -0.2243 -1.3877 -0.0450
 1873TIP3   OH227177   6.090   5.624   1.124 -0.2005 -0.5789  0.2974
 1873TIP3    H127178   6.169   5.665   1.087 -0.7867  0.4704  0.1505
 1873TIP3    H227179   6.123   5.564   1.191  0.6857  0.7724  1.1248
 1874TIP3   OH227180   0.164   2.590   6.453  0.0707 -0.1351  0.1693
 1874TIP3    H127181   0.229   2.598   6.523 -0.1253  1.0864  0.2219
 1874TIP3    H227182   0.080   2.598   6.498 -0.1512 -1.8638  0.1212
 1875TIP3   OH227183   5.022   1.842   1.742  0.2687 -0.0056 -0.1705
 1875TIP3    H127184   5.072   1.771   1.782  2.0269  0.6415 -1.1021
 1875TIP3    H227185   5.028   1.914   1.804 -0.6335 -0.3407  0.3088
 1876TIP3   OH227186   5.853   1.835   2.056  0.1436  0.5037  0.0237
 1876TIP3    H127187   5.912   1.904   2.027  1.5493 -0.5549  0.2808
 1876TIP3    H227188   5.794   1.879   2.118  1.0002  1.4771  0.1759
 1877TIP3   OH227189   0.383   3.009   1.660  0.0127  0.5700 -0.4877
 1877TIP3    H127190   0.455   3.010   1.723 -0.2410 -1.5936 -0.0755
 1877TIP3    H227191   0.315   2.957   1.703 -1.6151  2.0997 -1.0956
 1878TIP3   OH227192   5.096   4.483   0.480 -0.0345 -0.2302 -0.2843
 1878TIP3    H127193   5.101   4.395   0.444  0.3711 -0.2830 -0.0993
 1878TIP3    H227194   5.129   4.475   0.569  3.0068  0.6576 -1.2120
 1879TIP3   OH227195   6.791   5.568   1.035 -0.5031  0.1391 -0.6748
 1879TIP3    H127196   6.813   5.512   0.960  0.8772  0.4257 -0.5146
 1879TIP3    H227197   6.741   5.512   1.094  0.4876 -0.8020 -0.7117
 1880TIP3   OH227198   1.302   3.089   0.502  0.1286 -0.4395 -0.7665
 1880TIP3    H127199   1.341   3.159   0.555 -1.0155 -0.3105 -0.0549
 1880TIP3    H227200   1.267   3.134   0.425  0.6949 -0.4480 -1.0320
 1881TIP3   OH227201   6.032   3.536   1.427  0.2943  0.2142  0.4038
 1881TIP3    H127202   5.948   3.520   1.383  0.5940 -0.4428  0.0500
 1881TIP3    H227203   6.080   3.454   1.416  1.6758  1.1563 -0.9245
 1882TIP3   OH227204   7.034   5.672   1.137 -0.8281 -0.3153  0.2745
 1882TIP3    H127205   6.959   5.625   1.102 -1.4725  0.0832  1.0749
 1882TIP3    H227206   7.051   5.631   1.221  0.7531 -1.3161 -0.4881
 1883TIP3   OH227207   4.517   1.846   0.477 -0.3804  0.2446  0.4719
 1883TIP3    H127208   4.453   1.791   0.523 -4.3519  4.0534  0.1758
 1883TIP3    H227209   4.496   1.835   0.385  2.0866 -1.2016 -0.0047
 1884TIP3   OH227210   1.163   1.829   6.902 -0.2525 -0.0525 -0.4671
 1884TIP3    H127211   1.125   1.794   6.821  1.8971 -0.9506 -1.1732
 1884TIP3    H227212   1.187   1.920   6.879  1.0787 -0.5434 -1.1686
 1885TIP3   OH227213   0.570   1.473   7.409 -0.0881 -0.3043 -0.1229
 1885TIP3    H127214   0.626   1.544   7.378  0.5687 -0.4064  0.7922
 1885TIP3    H227215   0.598   1.396   7.359 -0.5558 -0.0128 -0.8537
 1886TIP3   OH227216   2.678   4.978   2.699 -0.2149  0.2636 -0.5083
 1886TIP3    H127217   2.584   4.973   2.713 -0.1693  2.6670  1.3220
 1886TIP3    H227218   2.688   5.033   2.622 -0.2638 -1.6980 -1.9901
 1887TIP3   OH227219   4.369   4.102   1.866 -0.8841 -0.2444  0.2474
 1887TIP3    H127220   4.370   4.142   1.953  0.8175 -0.5757  0.4235
 1887TIP3    H227221   4.352   4.175   1.806  1.3815  0.6831  0.6270
 1888TIP3   OH227222   5.329   2.000   7.775 -0.0151  0.2147  0.5900
 1888TIP3    H127223   5.370   1.961   7.852  1.4306  0.8288  0.1583
 1888TIP3    H227224   5.375   1.962   7.701 -0.6239  0.4873  0.0597
 1889TIP3   OH227225   5.273   4.043   6.944 -0.1372  0.0871 -0.2835
 1889TIP3    H127226   5.270   4.126   6.993 -1.9239 -0.0900 -0.0105
 1889TIP3    H227227   5.284   3.976   7.011  0.3407  0.0437 -0.4070
 1890TIP3   OH227228   2.680   5.879   7.093  0.2562  0.4322 -0.2495
 1890TIP3    H127229   2.627   5.803   7.116  1.3393  0.0434  1.0915
 1890TIP3    H227230   2.703   5.866   7.001  0.0374 -0.6286 -0.1584
 1891TIP3   OH227231   1.894   2.923   0.599  0.5354 -0.5505  0.0753
 1891TIP3    H127232   1.893   2.992   0.666  1.8922  0.3853 -0.8334
 1891TIP3    H227233   1.924   2.845   0.646 -1.9121 -0.8332  1.3357
 1892TIP3   OH227234   5.511   4.551   2.437  0.4147  0.6780  0.2046
 1892TIP3    H127235   5.430   4.502   2.424  0.4436  0.3935  1.0084
 1892TIP3    H227236   5.558   4.543   2.355  0.4674 -0.7533  0.3627
 1893TIP3   OH227237   2.526   0.431   7.067  0.4525 -0.3337  0.1735
 1893TIP3    H127238   2.598   0.462   7.124  0.0446  0.6096  0.1970
 1893TIP3    H227239   2.569   0.413   6.984  0.9937 -1.3653  0.6506
 1894TIP3   OH227240   6.153   1.975   1.737 -0.3417 -0.1019 -0.0142
 1894TIP3    H127241   6.112   2.059   1.754  2.7290  2.0101 -1.9189
 1894TIP3    H227242   6.080   1.914   1.727 -2.7445  2.4308  0.7229
 1895TIP3   OH227243   0.987   3.828   0.258 -0.2522 -0.2912 -0.2156
 1895TIP3    H127244   0.910   3.838   0.314  0.0009 -0.5442  0.1862
 1895TIP3    H227245   0.987   3.907   0.203 -2.2651 -1.4828 -2.0820
 1896TIP3   OH227246   7.072   6.483   0.265  0.3960  0.1113  0.0275
 1896TIP3    H127247   7.007   6.482   0.195 -0.3409  0.3385  0.6971
 1896TIP3    H227248   7.069   6.572   0.299  1.0016  0.0967  0.1193
 1897TIP3   OH227249   2.316   2.620   7.549 -0.0350  0.0836 -0.4496
 1897TIP3    H127250   2.240   2.587   7.501 -0.3421 -2.1263  1.3947
 1897TIP3    H227251   2.369   2.665   7.482 -1.2347 -1.3792 -2.4995
 1898TIP3   OH227252   2.014   0.904   1.850 -0.1305  0.2685 -0.0415
 1898TIP3    H127253   2.097   0.950   1.844  2.5425 -3.7521  1.3445
 1898TIP3    H227254   1.989   0.884   1.760  1.9812 -0.7748 -0.4416
 1899TIP3   OH227255   0.908   3.432   2.079  0.1344 -0.5701 -0.0455
 1899TIP3    H127256   0.854   3.363   2.040 -1.9000  0.8669  0.0635
 1899TIP3    H227257   0.929   3.400   2.167 -1.7638 -0.6082  0.4337
 1900TIP3   OH227258   1.793   3.069   7.766 -1.0498 -0.3894  0.1602
 1900TIP3    H127259   1.757   2.989   7.804 -2.2236  0.0210 -0.0471
 1900TIP3    H227260   1.740   3.139   7.803  0.2176  0.3412  0.6374
 1901TIP3   OH227261   3.468   2.960   1.148  0.0666  0.5622 -0.0002
 1901TIP3    H127262   3.394   3.014   1.119 -0.2365 -0.6627 -1.6938
 1901TIP3    H227263   3.501   3.003   1.226 -0.9775  2.4432 -0.5477
 1902TIP3   OH227264   5.692   2.015   2.218  0.1477 -0.7203 -0.4828
 1902TIP3    H127265   5.602   2.042   2.199  0.3244 -0.8271 -1.5238
 1902TIP3    H227266   5.699   2.023   2.313 -1.0612 -1.0154 -0.3407
 1903TIP3   OH227267   6.294   0.496   0.824 -0.1479  0.1636 -0.1564
 1903TIP3    H127268   6.276   0.476   0.915  0.4473 -0.1670 -0.1080
 1903TIP3    H227269   6.220   0.549   0.796 -0.6906 -0.3368  0.3131
 1904TIP3   OH227270   3.013   4.146   7.939 -0.1270 -0.3868  0.2296
 1904TIP3    H127271   3.048   4.137   7.850 -1.4106  0.7561 -0.4073
 1904TIP3    H227272   3.012   4.056   7.973 -0.3075 -0.9353 -1.1678
 1905TIP3   OH227273   1.288   4.942   0.749  0.1481  0.0664 -0.3870
 1905TIP3    H127274   1.326   4.899   0.672  0.2558  1.4054 -1.1210
 1905TIP3    H227275   1.343   4.913   0.822  1.7092  0.8122 -1.2074
 1906TIP3   OH227276   6.969   3.490   2.433 -0.0306 -0.1094 -0.1176
 1906TIP3    H127277   6.993   3.441   2.355 -1.3026 -1.2484  0.1855
 1906TIP3    H227278   6.876   3.474   2.445 -0.8581  3.3610 -0.6791
 1907TIP3   OH227279   4.299   1.883   1.418 -0.1496 -0.9311 -0.7575
 1907TIP3    H127280   4.369   1.851   1.362  0.4191  0.2808 -0.7668
 1907TIP3    H227281   4.276   1.969   1.382  0.2802 -0.0894  0.8584
 1908TIP3   OH227282   6.895   2.352   0.740 -0.4895 -0.2433 -0.2636
 1908TIP3    H127283   6.860   2.361   0.651  0.5709  1.5924 -0.5512
 1908TIP3    H227284   6.871   2.434   0.783  0.6293 -0.3184  0.5480
 1909TIP3   OH227285   2.633   6.000   1.070  0.0335  0.2537  0.4486
 1909TIP3    H127286   2.650   5.906   1.069 -0.4775  0.1586 -0.2101
 1909TIP3    H227287   2.540   6.008   1.050 -0.7600  0.7716  3.7760
 1910TIP3   OH227288   2.385   0.846   7.623 -0.2583 -0.3168  0.1906
 1910TIP3    H127289   2.400   0.790   7.699  0.7937  0.5134  0.6046
 1910TIP3    H227290   2.460   0.831   7.566 -1.0730 -0.9952 -0.7567
 1911TIP3   OH227291   5.682   5.312   1.179  0.0308 -0.2502  0.2419
 1911TIP3    H127292   5.765   5.321   1.133  1.8724 -0.8480  3.1911
 1911TIP3    H227293   5.665   5.398   1.217  0.8847 -0.8255  2.0248
 1912TIP3   OH227294   5.902   1.789   0.100  0.0380 -0.2282 -0.2973
 1912TIP3    H127295   5.838   1.722   0.124 -1.4161  0.8278 -1.0649
 1912TIP3    H227296   5.850   1.857   0.056  1.1964  2.0615  1.6523
 1913TIP3   OH227297   0.683   2.017   2.232  0.7763 -0.0191  0.3850
 1913TIP3    H127298   0.663   2.108   2.251 -0.3460 -0.1906  0.1039
 1913TIP3    H227299   0.775   2.006   2.257  1.2671  1.4689 -0.6832
 1914TIP3   OH227300   4.027   1.015   0.323  0.5347 -0.3657  0.3465
 1914TIP3    H127301   3.999   1.100   0.357  0.7995  0.1236 -0.6167
 1914TIP3    H227302   4.110   0.997   0.367  0.5004 -0.1051  0.5157
 1915TIP3   OH227303   1.629   2.650   6.705 -0.0716  0.3306  0.3372
 1915TIP3    H127304   1.725   2.653   6.704 -0.0920  1.1356  0.5134
 1915TIP3    H227305   1.603   2.683   6.619 -0.2160  1.4001  0.7831
 1916TIP3   OH227306   5.118   0.973   1.424 -0.3812  0.4475  0.5061
 1916TIP3    H127307   5.056   0.915   1.379 -0.6874 -0.1020  1.6096
 1916TIP3    H227308   5.077   1.059   1.420 -0.3742  0.4264 -0.3078
 1917TIP3   OH227309   6.101   0.726   7.468  0.1351 -0.9087 -0.0237
 1917TIP3    H127310   6.048   0.668   7.521  0.4130 -2.2772 -1.1802
 1917TIP3    H227311   6.165   0.764   7.529 -0.5550 -1.2078  0.8853
 1918TIP3   OH227312   2.978   4.641   1.638  0.2680  0.5781 -0.1498
 1918TIP3    H127313   2.939   4.720   1.601 -0.6039  1.0498  1.6511
 1918TIP3    H227314   3.008   4.591   1.562  0.4716  2.4322 -1.3542
 1919TIP3   OH227315   0.404   2.224   7.231  0.4349 -0.0117 -0.0885
 1919TIP3    H127316   0.358   2.171   7.166  1.2740 -0.1801 -0.5593
 1919TIP3    H227317   0.462   2.162   7.275 -0.1030  0.1071  0.8092
 1920TIP3   OH227318   0.830   5.985   6.487 -0.6775  0.4438  0.2965
 1920TIP3    H127319   0.891   5.962   6.417  0.4388  1.2854  0.9621
 1920TIP3    H227320   0.743   5.971   6.449 -0.1214 -2.0837 -0.2513
 1921TIP3   OH227321   5.098   6.938   7.365  0.1495 -0.1354 -0.1087
 1921TIP3    H127322   5.011   6.901   7.355 -0.4434  1.1170  0.1300
 1921TIP3    H227323   5.118   6.977   7.280  0.7595 -0.9621 -0.3578
 1922TIP3   OH227324   6.439   5.954   7.729  0.3766 -0.2449  0.2036
 1922TIP3    H127325   6.476   5.954   7.641  0.3614  2.3594  0.0997
 1922TIP3    H227326   6.501   6.005   7.781 -0.2193 -0.7165  1.4084
 1923TIP3   OH227327   1.594   0.596   1.035  0.0103 -0.5211 -0.0038
 1923TIP3    H127328   1.657   0.523   1.033 -0.6132 -1.0859  0.4885
 1923TIP3    H227329   1.605   0.639   0.951  0.8436 -0.7949 -0.0535
 1924TIP3   OH227330   1.906   5.362   7.985  0.4882 -0.6799 -0.4188
 1924TIP3    H127331   1.878   5.303   7.915  0.0255 -1.5278  0.4449
 1924TIP3    H227332   1.834   5.362   8.047  0.6991  0.4217 -0.1516
 1925TIP3   OH227333   6.590   2.670   2.048  0.1814 -0.0209 -0.1081
 1925TIP3    H127334   6.569   2.627   1.965 -1.5458  0.8372 -0.1536
 1925TIP3    H227335   6.651   2.740   2.023  1.2689 -1.0149 -0.3330
 1926TIP3   OH227336   3.508   2.347   0.560 -0.3713  0.2102  0.6314
 1926TIP3    H127337   3.538   2.438   0.564  1.1455 -0.2173 -0.0941
 1926TIP3    H227338   3.503   2.328   0.466 -1.0103 -0.3497  0.7744
 1927TIP3   OH227339   0.440   6.959   7.664 -0.3767 -0.0385  0.5802
 1927TIP3    H127340   0.457   6.996   7.577  0.7645 -0.4495  0.6159
 1927TIP3    H227341   0.345   6.966   7.674 -0.2692  2.5697  0.4682
 1928TIP3   OH227342   2.848   2.826   2.444  0.2191  0.3428 -0.5607
 1928TIP3    H127343   2.776   2.888   2.460 -1.3437 -1.0249 -1.8448
 1928TIP3    H227344   2.812   2.741   2.471  2.3972 -0.0560  1.4356
 1929TIP3   OH227345   2.866   6.449   0.279  0.1088  0.4692  1.0394
 1929TIP3    H127346   2.774   6.443   0.305 -0.2302  1.8458  0.3082
 1929TIP3    H227347   2.905   6.509   0.342 -0.3136  2.4548 -0.4678
 1930TIP3   OH227348   4.392   5.557   0.498  0.4418  0.1897  0.2285
 1930TIP3    H127349   4.454   5.485   0.485  1.7202  0.8991  2.1140
 1930TIP3    H227350   4.420   5.600   0.578 -1.7786  1.3148  0.4917
 1931TIP3   OH227351   3.514   3.802   7.153  0.4349  0.1722 -0.0158
 1931TIP3    H127352   3.540   3.723   7.107  1.8355 -0.0361  1.0803
 1931TIP3    H227353   3.579   3.868   7.127  0.7702  0.2634  1.0017
 1932TIP3   OH227354   6.090   2.122   6.986  0.3636 -0.1817  0.2693
 1932TIP3    H127355   6.126   2.038   6.958 -1.0000 -1.5270  2.3232
 1932TIP3    H227356   6.060   2.163   6.905 -0.9368 -2.6579 -0.5895
 1933TIP3   OH227357   5.613   6.227   1.076 -0.0585 -0.5987 -0.2951
 1933TIP3    H127358   5.567   6.144   1.083  0.6149 -1.1134 -1.7640
 1933TIP3    H227359   5.705   6.204   1.084  0.1560 -0.0393 -1.1022
 1934TIP3   OH227360   1.774   0.362   7.930 -0.5605 -0.3043 -0.3751
 1934TIP3    H127361   1.683   0.355   7.900 -0.4260 -1.4826 -0.5623
 1934TIP3    H227362   1.786   0.286   7.986  0.4208 -0.3534 -0.6407
 1935TIP3   OH227363   0.843   5.136   0.282 -0.4567  0.4349 -0.6659
 1935TIP3    H127364   0.900   5.116   0.356 -0.9049  0.0220 -0.4290
 1935TIP3    H227365   0.887   5.209   0.237 -0.5273  1.1468  0.3858
 1936TIP3   OH227366   5.334   4.572   1.755  0.0720  0.1106  0.2277
 1936TIP3    H127367   5.371   4.540   1.673 -0.4464  0.1469 -0.0238
 1936TIP3    H227368   5.257   4.517   1.770 -0.8176  1.1939 -0.1936
 1937TIP3   OH227369   1.689   3.591   1.341 -0.0449  0.0999  0.6559
 1937TIP3    H127370   1.756   3.544   1.290 -1.5186  0.4150 -1.7317
 1937TIP3    H227371   1.681   3.676   1.297 -2.0689  0.0259  0.8115
 1938TIP3   OH227372   1.634   3.757   7.554  0.1983  0.1049 -0.0563
 1938TIP3    H127373   1.558   3.734   7.607  0.4006  0.5175  0.4193
 1938TIP3    H227374   1.708   3.750   7.614  0.3445  1.2737 -0.0858
 1939TIP3   OH227375   5.201   6.870   6.748 -0.1531  0.6217 -0.3053
 1939TIP3    H127376   5.172   6.785   6.783 -2.4698  1.3725 -0.2520
 1939TIP3    H227377   5.209   6.855   6.653 -1.0231  0.4641 -0.3570
 1940TIP3   OH227378   3.955   1.815   6.401 -0.4384  0.2254 -0.1498
 1940TIP3    H127379   3.891   1.755   6.363 -2.2393  1.0432  1.4052
 1940TIP3    H227380   4.022   1.758   6.439 -0.4352 -0.6716 -1.4432
 1941TIP3   OH227381   5.253   1.747   0.490 -0.5937  0.7265 -0.4915
 1941TIP3    H127382   5.298   1.673   0.449 -2.4274  0.2561 -1.7481
 1941TIP3    H227383   5.217   1.711   0.571 -0.1939  0.6614 -0.3372
 1942TIP3   OH227384   0.847   1.600   1.261 -0.0207 -0.3154  0.2670
 1942TIP3    H127385   0.814   1.647   1.184 -0.6394  0.1530  0.7998
 1942TIP3    H227386   0.904   1.531   1.225 -1.9372 -1.4639 -0.7401
 1943TIP3   OH227387   6.010   0.698   1.246 -0.0986 -0.2009  0.0280
 1943TIP3    H127388   5.921   0.670   1.225 -0.0637  0.6828 -1.4437
 1943TIP3    H227389   6.066   0.628   1.210 -0.1900 -1.1924  1.7191
 1944TIP3   OH227390   4.735   1.868   7.126  0.0446  0.2183  0.6371
 1944TIP3    H127391   4.646   1.885   7.096  0.1707 -0.5912 -0.2550
 1944TIP3    H227392   4.746   1.773   7.118  0.4424  0.0887  2.3414
 1945TIP3   OH227393   2.059   4.848   0.537 -0.2567  0.8087 -0.2049
 1945TIP3    H127394   1.966   4.850   0.561 -0.3867 -2.0328 -0.0932
 1945TIP3    H227395   2.100   4.797   0.607  1.0117  0.2696 -1.3071
 1946TIP3   OH227396   4.322   4.429   0.121  0.9006 -0.0594 -0.4868
 1946TIP3    H127397   4.335   4.511   0.072 -0.5635 -0.4643 -1.6417
 1946TIP3    H227398   4.409   4.392   0.129  1.8213  2.2679  1.3180
 1947TIP3   OH227399   5.760   2.871   2.041 -0.2044 -0.2091  0.0603
 1947TIP3    H127400   5.806   2.951   2.066 -0.1342 -0.1856 -0.1393
 1947TIP3    H227401   5.669   2.898   2.032 -0.2614 -0.2610  0.4804
 1948TIP3   OH227402   6.968   3.795   2.517  0.2609 -0.6085  0.3078
 1948TIP3    H127403   6.923   3.787   2.601 -0.9318 -0.6030 -0.3001
 1948TIP3    H227404   6.973   3.705   2.484  0.4303 -0.5721  0.2317
 1949TIP3   OH227405   3.807   1.519   0.331  0.3759  0.0928 -0.0311
 1949TIP3    H127406   3.854   1.596   0.364  0.3342 -0.3481  1.1190
 1949TIP3    H227407   3.716   1.547   0.326  0.5886  0.6122 -1.2027
 1950TIP3   OH227408   2.187   1.414   7.423 -0.1579  0.7112 -0.2898
 1950TIP3    H127409   2.235   1.473   7.365  0.2073  1.2519  0.5312
 1950TIP3    H227410   2.215   1.326   7.397  1.3948  1.0180  0.2338
 1951TIP3   OH227411   6.659   6.535   5.154 -0.7138 -0.5943 -0.3722
 1951TIP3    H127412   6.648   6.589   5.232  1.6986 -1.6055  0.7589
 1951TIP3    H227413   6.683   6.597   5.085 -0.4505  0.0570  0.2975
 1952TIP3   OH227414   0.980   1.087   1.299 -0.8246 -0.1505 -0.2609
 1952TIP3    H127415   1.058   1.080   1.354  1.0638  2.6402 -2.3087
 1952TIP3    H227416   0.930   1.160   1.337 -2.6988 -2.0067  1.1273
 1953TIP3   OH227417   2.370   4.918   7.887 -0.1131 -0.0248 -0.0572
 1953TIP3    H127418   2.335   4.906   7.975 -0.4752  1.9563  0.1157
 1953TIP3    H227419   2.439   4.983   7.897  1.3371 -1.3528 -0.9411
 1954TIP3   OH227420   1.226   6.629   0.496  0.0390  0.3784  0.4574
 1954TIP3    H127421   1.297   6.679   0.455 -0.1952 -0.3163 -0.8580
 1954TIP3    H227422   1.149   6.652   0.445 -0.5570  0.6015  1.4456
 1955TIP3   OH227423   4.494   4.045   0.710  0.1864  0.2737  0.2988
 1955TIP3    H127424   4.547   4.033   0.789 -0.9714  2.3515  1.4761
 1955TIP3    H227425   4.473   3.956   0.681 -1.6144 -0.6975  3.9668
 1956TIP3   OH227426   7.138   4.197   2.624 -0.1714 -0.2270  0.4779
 1956TIP3    H127427   7.198   4.139   2.672 -0.7934  0.4546  2.1271
 1956TIP3    H227428   7.179   4.283   2.627 -0.9755  0.1450  1.1924
 1957TIP3   OH227429   6.184   7.026   6.965  0.5265  0.0195  0.2618
 1957TIP3    H127430   6.175   6.992   7.055 -0.9403 -0.0233  0.1327
 1957TIP3    H227431   6.148   7.115   6.970 -0.5715 -0.3636 -0.4819
 1958TIP3   OH227432   4.441   0.581   7.259 -0.3995  0.8753 -0.1982
 1958TIP3    H127433   4.391   0.621   7.187 -1.7973 -1.1725 -0.4327
 1958TIP3    H227434   4.523   0.553   7.219 -0.1118  1.9478 -0.3985
 1959TIP3   OH227435   0.663   4.768   2.216  0.2120 -0.5446  0.0967
 1959TIP3    H127436   0.733   4.719   2.257 -1.6204 -1.1948  2.7364
 1959TIP3    H227437   0.583   4.736   2.258 -1.5253  1.3273 -1.5239
 1960TIP3   OH227438   5.895   6.962   2.217 -0.1671 -0.2676 -0.4014
 1960TIP3    H127439   5.912   7.026   2.287  1.2065 -1.0288  0.0074
 1960TIP3    H227440   5.822   6.909   2.251 -1.4179  1.1438 -0.8130
 1961TIP3   OH227441   3.781   3.312   0.405  0.0627  0.0323 -0.1155
 1961TIP3    H127442   3.713   3.309   0.472 -2.5521 -0.5922 -2.6162
 1961TIP3    H227443   3.858   3.273   0.447 -1.3431 -0.0848  2.5521
 1962TIP3   OH227444   3.574   1.468   7.696 -0.2411 -0.0680  0.1481
 1962TIP3    H127445   3.536   1.515   7.771 -1.8106  0.0875 -0.7036
 1962TIP3    H227446   3.499   1.436   7.647  0.7715 -0.8953 -0.9236
 1963TIP3   OH227447   0.522   0.916   7.710  0.0359  0.1984  0.3876
 1963TIP3    H127448   0.536   0.849   7.777 -1.1071 -1.0414 -0.5519
 1963TIP3    H227449   0.489   0.992   7.758 -0.2293 -0.4722  1.2873
 1964TIP3   OH227450   2.561   3.634   2.362  0.1040 -0.0389  0.0605
 1964TIP3    H127451   2.561   3.572   2.289 -0.2535  2.6159 -2.3992
 1964TIP3    H227452   2.499   3.598   2.425 -0.8369 -1.6702 -1.7061
 1965TIP3   OH227453   3.366   5.615   1.606 -0.1793  0.2082 -0.4132
 1965TIP3    H127454   3.448   5.647   1.643 -0.6004  0.5127  0.2620
 1965TIP3    H227455   3.351   5.531   1.648 -0.3738  0.2934 -0.3145
 1966TIP3   OH227456   1.520   4.832   2.267 -0.2797  0.0752 -0.0456
 1966TIP3    H127457   1.474   4.752   2.295 -0.7440  0.8843  1.6203
 1966TIP3    H227458   1.532   4.882   2.347 -0.8352  2.1421 -1.1824
 1967TIP3   OH227459   0.004   5.492   7.320 -0.0709 -0.5950 -0.4430
 1967TIP3    H127460   0.071   5.556   7.343 -1.4258  1.1535 -1.1552
 1967TIP3    H227461   0.021   5.471   7.228 -0.6638  0.1026 -0.7222
 1968TIP3   OH227462   0.051   2.031   1.854 -0.2643 -0.3427 -0.0430
 1968TIP3    H127463   0.045   2.104   1.916  1.3946  0.9546 -1.3124
 1968TIP3    H227464   0.030   2.071   1.769 -0.9822 -1.7436 -0.5482
 1969TIP3   OH227465   5.596   4.769   0.161 -0.3855 -0.3095 -0.2258
 1969TIP3    H127466   5.618   4.694   0.106 -0.7463  0.0130 -0.8233
 1969TIP3    H227467   5.500   4.771   0.163 -0.3979 -0.8768  1.2119
 1970TIP3   OH227468   7.060   3.538   6.499 -0.7366  0.4413 -0.1362
 1970TIP3    H127469   7.006   3.469   6.460  0.4100 -0.4778 -0.1414
 1970TIP3    H227470   7.037   3.617   6.449 -2.0147  0.0677 -0.1795
 1971TIP3   OH227471   1.586   1.770   1.676  0.1702  0.4147 -0.9289
 1971TIP3    H127472   1.583   1.772   1.772 -1.8112  0.5644 -0.9517
 1971TIP3    H227473   1.502   1.807   1.649  1.1375  1.4138 -2.7548
 1972TIP3   OH227474   6.397   5.473   0.081 -0.8997 -0.5314 -0.5963
 1972TIP3    H127475   6.412   5.565   0.101  0.7138 -0.9097  0.1249
 1972TIP3    H227476   6.302   5.462   0.086 -1.2363  1.3664 -2.0907
 1973TIP3   OH227477   4.057   4.317   2.017 -0.6310  0.2778  0.2723
 1973TIP3    H127478   4.071   4.278   1.930 -1.9761 -1.2929  0.7054
 1973TIP3    H227479   4.144   4.342   2.047  0.4171 -2.7546  0.0676
 1974TIP3   OH227480   1.445   2.692   1.168  0.0655 -0.4207 -0.8404
 1974TIP3    H127481   1.439   2.783   1.197 -1.7230 -1.3145  1.9181
 1974TIP3    H227482   1.375   2.683   1.103 -0.4657 -0.0961 -0.3190
 1975TIP3   OH227483   5.339   0.095   5.804  0.2857  0.3351 -0.0012
 1975TIP3    H127484   5.340   0.115   5.711 -0.0104 -0.8420 -0.2810
 1975TIP3    H227485   5.249   0.113   5.831 -0.0799 -0.8958 -0.3349
 1976TIP3   OH227486   2.934   0.119   0.584  0.2354  0.3413 -0.1160
 1976TIP3    H127487   2.986   0.075   0.651  1.0740  1.9892  0.3775
 1976TIP3    H227488   2.872   0.173   0.633  0.7081  1.3966 -0.6491
 1977TIP3   OH227489   1.642   2.998   7.368 -0.7944  0.2692  0.7134
 1977TIP3    H127490   1.698   3.007   7.446  1.2496  0.0470 -0.6474
 1977TIP3    H227491   1.676   2.921   7.323 -1.5220  0.7580 -0.7238
 1978TIP3   OH227492   5.620   2.087   1.820 -0.0083 -0.8251  0.0482
 1978TIP3    H127493   5.552   2.126   1.766  1.1482 -0.7089 -1.4039
 1978TIP3    H227494   5.584   2.003   1.848 -2.9292  1.3938  4.0111
 1979TIP3   OH227495   2.834   2.197   1.739  0.1911  0.0741  0.5217
 1979TIP3    H127496   2.926   2.211   1.763  0.1576  1.5259 -0.0801
 1979TIP3    H227497   2.802   2.133   1.802  1.3723  0.2113  1.2950
 1980TIP3   OH227498   0.623   3.434   0.042 -0.2366 -0.2062  0.3474
 1980TIP3    H127499   0.536   3.473   0.032  0.2855  0.8688 -0.2102
 1980TIP3    H227500   0.658   3.473   0.123  0.3401  0.6052 -0.2816
 1981TIP3   OH227501   6.535   5.915   2.781  0.2223 -0.0001 -0.1017
 1981TIP3    H127502   6.580   5.999   2.791 -0.8900  0.6735 -0.4852
 1981TIP3    H227503   6.536   5.899   2.687 -2.3663  1.2666 -0.4557
 1982TIP3   OH227504   0.015   2.097   0.114 -0.1666  0.0043 -0.1068
 1982TIP3    H127505  -0.046   2.112   0.186 -1.3560  2.8984 -1.5593
 1982TIP3    H227506   0.102   2.098   0.155 -0.8575  0.7460  1.3985
 1983TIP3   OH227507   5.141   4.240   1.520  0.2834 -0.3105  0.0119
 1983TIP3    H127508   5.204   4.215   1.452 -0.5462 -1.3598 -0.4085
 1983TIP3    H227509   5.072   4.287   1.472  0.6614  0.7262  0.4490
 1984TIP3   OH227510   6.770   4.738   6.657  0.8912  0.5601 -0.2128
 1984TIP3    H127511   6.725   4.692   6.586  1.2144  0.5028 -0.3832
 1984TIP3    H227512   6.707   4.804   6.687  0.8460  0.7510 -0.7194
 1985TIP3   OH227513   0.101   6.441   0.695 -0.2695  0.6711  0.0070
 1985TIP3    H127514   0.183   6.452   0.647 -1.6425  3.6748 -1.9865
 1985TIP3    H227515   0.063   6.361   0.659  1.4398 -0.4184  0.5208
 1986TIP3   OH227516   4.698   3.573   0.921 -0.3690 -1.1336  0.2075
 1986TIP3    H127517   4.654   3.586   1.005  2.8842  0.1801  1.8692
 1986TIP3    H227518   4.789   3.554   0.944  1.0394  0.8870 -2.9933
 1987TIP3   OH227519   3.760   0.731   6.984 -0.4567 -0.0897 -0.3254
 1987TIP3    H127520   3.711   0.802   7.026 -1.5482  0.1331 -1.8628
 1987TIP3    H227521   3.695   0.662   6.971  0.2081 -0.7226 -0.3235
 1988TIP3   OH227522   6.470   3.743   1.453 -0.4858 -0.0724 -0.5672
 1988TIP3    H127523   6.504   3.829   1.429  1.3783 -0.9024 -1.1889
 1988TIP3    H227524   6.393   3.731   1.398  0.3356  0.4561 -1.8889
 1989TIP3   OH227525   2.713   2.022   7.300  0.3045  0.0664  0.4345
 1989TIP3    H127526   2.758   2.073   7.368  0.8694 -1.2290  1.0663
 1989TIP3    H227527   2.783   1.979   7.252 -0.1516  0.0266 -0.2024
 1990TIP3   OH227528   0.381   6.774   0.484 -0.0462  0.5835  0.1001
 1990TIP3    H127529   0.351   6.696   0.531  1.1017  0.1708  0.1741
 1990TIP3    H227530   0.476   6.762   0.475 -0.0349  1.3519 -1.0382
 1991TIP3   OH227531   0.697   4.659   2.737 -0.1192 -0.3289 -0.3698
 1991TIP3    H127532   0.767   4.723   2.721  0.0961 -0.4744 -0.0268
 1991TIP3    H227533   0.644   4.699   2.805  0.4865 -0.8667  0.4379
 1992TIP3   OH227534   0.073   0.919   1.440  0.3464 -0.4755  0.6634
 1992TIP3    H127535   0.003   0.919   1.505 -0.7596 -0.9721 -0.4940
 1992TIP3    H227536   0.103   0.828   1.436  0.9251 -0.3054  0.9988
 1993TIP3   OH227537   5.499   3.898   2.292 -0.7401 -0.6456 -0.2111
 1993TIP3    H127538   5.490   3.812   2.332 -0.4230 -2.0179 -2.8392
 1993TIP3    H227539   5.412   3.917   2.257 -0.2383 -1.1372 -1.8264
 1994TIP3   OH227540   5.621   3.679   7.856  0.2865  0.3796 -0.1347
 1994TIP3    H127541   5.679   3.608   7.830 -2.1717 -1.8273 -0.0410
 1994TIP3    H227542   5.652   3.755   7.808  2.3471 -1.0096 -1.1400
 1995TIP3   OH227543   5.847   1.136   2.201 -0.2606  0.4807  0.5332
 1995TIP3    H127544   5.760   1.175   2.211 -1.2902 -2.1797  3.1124
 1995TIP3    H227545   5.882   1.130   2.290  0.8694 -2.0738  0.0069
 1996TIP3   OH227546   4.106   4.333   1.186 -0.4316  0.4448  0.8807
 1996TIP3    H127547   4.045   4.273   1.228 -0.9110  0.1795 -0.1573
 1996TIP3    H227548   4.084   4.419   1.222  0.0796  0.0557  2.1751
 1997TIP3   OH227549   0.043   0.043   1.109  0.0346 -0.3073 -0.3923
 1997TIP3    H127550   0.109   0.107   1.084 -0.9277  1.5178  1.4781
 1997TIP3    H227551  -0.040   0.078   1.076 -0.7302  0.3109  1.9759
 1998TIP3   OH227552   3.160   3.452   7.928 -0.0775 -0.1890 -0.3089
 1998TIP3    H127553   3.145   3.358   7.916  0.7271 -0.1891 -1.4361
 1998TIP3    H227554   3.161   3.464   8.023 -1.3299 -1.1222 -0.1531
 1999TIP3   OH227555   0.650   3.819   1.365  0.5218  0.1652  0.2429
 1999TIP3    H127556   0.696   3.873   1.300 -1.9366  1.1917 -0.7567
 1999TIP3    H227557   0.615   3.881   1.428 -1.2573 -0.3349 -0.2018
 2000TIP3   OH227558   6.220   5.983   7.397  0.3395 -0.1220  1.0491
 2000TIP3    H127559   6.217   6.033   7.479  1.0943  0.4900  0.7177
 2000TIP3    H227560   6.309   5.946   7.395  1.1325  1.6705 -0.4996
 2001TIP3   OH227561   3.542   0.363   0.175 -0.1318 -0.2694  0.2845
 2001TIP3    H127562   3.503   0.406   0.251 -0.1467  1.3221 -0.5703
 2001TIP3    H227563   3.477   0.375   0.105  0.3444 -0.7445 -0.2497
 2002TIP3   OH227564   0.214   0.529   6.750 -0.1380 -0.2404 -0.3211
 2002TIP3    H127565   0.300   0.572   6.748 -0.5455  0.5756 -2.3616
 2002TIP3    H227566   0.167   0.573   6.821  0.9983 -0.4988  0.6291
 2003TIP3   OH227567   2.035   2.542   0.475  0.2456 -0.1249  0.5315
 2003TIP3    H127568   2.025   2.583   0.389 -1.2760  1.9110  1.6096
 2003TIP3    H227569   1.974   2.468   0.473 -0.3930  0.3974  0.1080
 2004TIP3   OH227570   3.096   1.984   6.642 -0.4125  0.3746  0.0627
 2004TIP3    H127571   3.072   1.891   6.635 -0.0222  0.3267 -0.7857
 2004TIP3    H227572   3.192   1.983   6.641 -0.4125  0.8173 -0.4323
 2005TIP3   OH227573   0.923   3.112   1.175 -0.3213 -0.1911 -0.8150
 2005TIP3    H127574   0.888   3.177   1.236 -1.3255  0.2027 -1.7539
 2005TIP3    H227575   0.984   3.161   1.120  0.4968 -0.5186 -0.2145
 2006TIP3   OH227576   5.143   1.484   6.616 -0.5756  0.1903 -0.4172
 2006TIP3    H127577   5.163   1.394   6.591 -1.3069  0.1218 -0.8165
 2006TIP3    H227578   5.143   1.484   6.711  1.0213  0.1534 -0.3912
 2007TIP3   OH227579   2.065   0.867   6.992  0.3134 -0.4069  0.5019
 2007TIP3    H127580   2.004   0.861   6.918  0.9328 -0.3675 -0.0214
 2007TIP3    H227581   2.059   0.959   7.020  0.4748 -0.2865  0.1500
 2008TIP3   OH227582   5.831   6.086   6.511 -0.0599 -0.3419  0.5453
 2008TIP3    H127583   5.840   5.992   6.495  1.8770  0.0253 -0.9303
 2008TIP3    H227584   5.763   6.114   6.448 -0.0262 -0.6111  0.3849
 2009TIP3   OH227585   4.477   0.444   6.974  0.9220 -0.2873 -0.0656
 2009TIP3    H127586   4.564   0.451   7.015 -0.1502  1.7698  2.0996
 2009TIP3    H227587   4.485   0.496   6.894  1.0531  2.3690  1.5253
 2010TIP3   OH227588   6.279   0.343   7.260 -0.1000  0.2335 -0.1786
 2010TIP3    H127589   6.229   0.268   7.229 -1.3893  0.4140  1.3678
 2010TIP3    H227590   6.237   0.418   7.220  0.0033  0.2715 -0.2168
 2011TIP3   OH227591   2.748   2.976   0.906 -0.1536  0.2958 -0.1955
 2011TIP3    H127592   2.744   2.890   0.862  0.2203  0.4879 -0.6079
 2011TIP3    H227593   2.819   2.968   0.969 -1.0347 -0.1555  0.7672
 2012TIP3   OH227594   0.555   1.477   1.640 -0.3875 -0.4933  0.5823
 2012TIP3    H127595   0.592   1.406   1.588 -1.0604 -0.5322  0.1503
 2012TIP3    H227596   0.584   1.459   1.729 -1.5790 -2.0235  0.7027
 2013TIP3   OH227597   4.518   4.050   7.242  0.2666  0.2858  0.1075
 2013TIP3    H127598   4.511   4.141   7.271 -0.3057  0.5006 -0.6655
 2013TIP3    H227599   4.456   4.002   7.297  0.9724  0.2476  0.8999
 2014TIP3   OH227600   1.718   0.939   7.232 -0.2327 -0.5094 -0.4412
 2014TIP3    H127601   1.710   0.896   7.147 -0.1606  0.0997 -0.7595
 2014TIP3    H227602   1.769   1.018   7.215 -2.5841  1.1346 -0.4180
 2015TIP3   OH227603   5.555   3.038   0.780 -0.7126  0.4309  0.2197
 2015TIP3    H127604   5.640   3.080   0.765 -0.7107  0.5341  0.5105
 2015TIP3    H227605   5.504   3.058   0.702  0.4450 -1.9889 -1.2923
 2016TIP3   OH227606   0.618   1.389   0.230  0.9206 -0.0885 -0.4992
 2016TIP3    H127607   0.627   1.471   0.278  1.4243 -0.6510  0.3970
 2016TIP3    H227608   0.667   1.325   0.282  0.7677 -0.9015 -1.3224
 2017TIP3   OH227609   0.879   4.337   1.366  0.0296 -0.4489  0.4115
 2017TIP3    H127610   0.884   4.397   1.440 -1.0500 -0.9851  0.9346
 2017TIP3    H227611   0.903   4.390   1.290 -0.2314  0.4583  0.9569
 2018TIP3   OH227612   6.383   0.657   7.070 -0.8850 -0.0660 -0.0200
 2018TIP3    H127613   6.402   0.705   7.151  0.5505  0.3604 -0.5699
 2018TIP3    H227614   6.291   0.634   7.077 -1.3396  1.7989  0.7808
 2019TIP3   OH227615   5.727   1.023   1.945 -0.7784 -0.8142  0.6160
 2019TIP3    H127616   5.639   1.006   1.978 -0.6383  0.8483  1.9929
 2019TIP3    H227617   5.761   1.093   2.001  2.0903 -2.5521  1.2907
 2020TIP3   OH227618   0.189   4.660   1.454  0.5042 -0.0734  0.1836
 2020TIP3    H127619   0.271   4.686   1.496 -0.6027 -0.5242  2.8428
 2020TIP3    H227620   0.137   4.621   1.525 -2.4696  1.2270 -1.1043
 2021TIP3   OH227621   3.142   2.548   1.706  0.0331  0.3902 -0.7937
 2021TIP3    H127622   3.055   2.559   1.668 -0.3323 -0.8901 -0.3888
 2021TIP3    H227623   3.144   2.456   1.734  1.4600  0.4441 -0.6595
 2022TIP3   OH227624   2.242   1.901   1.355  0.2369 -0.6571 -0.0394
 2022TIP3    H127625   2.179   1.970   1.332  0.0039 -1.0491 -0.6037
 2022TIP3    H227626   2.189   1.831   1.392  0.1607 -1.4813 -1.6078
 2023TIP3   OH227627   4.344   3.829   1.528 -0.2003 -0.4304  0.0936
 2023TIP3    H127628   4.429   3.875   1.527 -0.1751 -0.4793 -0.0118
 2023TIP3    H227629   4.335   3.794   1.439  0.0446 -1.1196  0.3408
 2024TIP3   OH227630   2.307   6.832   0.959 -0.2850 -0.6057  0.4934
 2024TIP3    H127631   2.222   6.788   0.972 -0.8024  0.2824  0.2119
 2024TIP3    H227632   2.350   6.825   1.044 -0.4266 -1.4984  0.5027
 2025TIP3   OH227633   2.520   5.351   6.622  0.7094  0.4314 -0.1299
 2025TIP3    H127634   2.533   5.422   6.560  2.0355  0.2697 -0.0624
 2025TIP3    H227635   2.424   5.342   6.629  0.4891 -0.3434 -3.0251
 2026TIP3   OH227636   5.875   3.859   6.881  0.7240  0.0398  0.0382
 2026TIP3    H127637   5.796   3.844   6.934 -0.1114 -1.9994 -1.6343
 2026TIP3    H227638   5.852   3.932   6.824  1.3253  1.6913  1.8225
 2027TIP3   OH227639   2.638   4.508   1.540  0.1000 -0.2615  0.6602
 2027TIP3    H127640   2.725   4.546   1.555  1.0695 -1.4853 -1.4541
 2027TIP3    H227641   2.648   4.416   1.563 -0.7686 -0.3432  0.7291
 2028TIP3   OH227642   4.465   5.264   0.444  0.0593 -0.5207  0.0704
 2028TIP3    H127643   4.389   5.262   0.385  1.2982 -1.2199 -1.5743
 2028TIP3    H227644   4.540   5.273   0.385  1.2718  0.1581  1.6586
 2029TIP3   OH227645   7.059   3.565   0.682 -0.5903 -0.4171 -0.2350
 2029TIP3    H127646   7.058   3.578   0.777  1.6115 -1.2054 -0.0500
 2029TIP3    H227647   7.128   3.500   0.667  0.9987  1.6130 -2.5594
 2030TIP3   OH227648   6.783   0.745   7.971  0.1741  0.2421  0.1807
 2030TIP3    H127649   6.804   0.698   7.891 -1.5501 -0.7017  0.2276
 2030TIP3    H227650   6.843   0.709   8.037  0.3121 -0.3561 -0.2676
 2031TIP3   OH227651   4.768   1.181   7.204  0.2614 -0.5887  0.2905
 2031TIP3    H127652   4.856   1.143   7.209  1.1312  1.1055 -0.9552
 2031TIP3    H227653   4.767   1.247   7.273  0.0732 -0.4056  0.1119
 2032TIP3   OH227654   3.004   0.171   7.754  0.3867  0.1266  0.1224
 2032TIP3    H127655   2.983   0.236   7.820 -1.2024 -0.4204  0.2150
 2032TIP3    H227656   2.921   0.154   7.710  0.8284 -1.5484 -0.1527
 2033TIP3   OH227657   2.959   0.147   2.496  0.2351  0.2959  0.1315
 2033TIP3    H127658   2.966   0.087   2.571  0.3138  0.0702 -0.0552
 2033TIP3    H227659   2.870   0.182   2.501 -0.1395 -0.5652 -0.3043
 2034TIP3   OH227660   6.489   3.320   7.070 -0.4388  0.2019 -0.5124
 2034TIP3    H127661   6.454   3.314   6.981  0.6105  0.6576 -0.9725
 2034TIP3    H227662   6.580   3.292   7.061 -0.2901  0.3906  0.3908
 2035TIP3   OH227663   4.049   5.948   1.542 -0.0812  0.2562 -0.6791
 2035TIP3    H127664   3.987   5.875   1.551 -1.8067  1.8410  1.2758
 2035TIP3    H227665   4.007   6.021   1.587  2.5416  1.9031 -0.6951
 2036TIP3   OH227666   4.415   2.587   0.162  0.3374 -0.1452 -0.0032
 2036TIP3    H127667   4.335   2.568   0.210 -0.7435  1.2371 -1.1700
 2036TIP3    H227668   4.426   2.514   0.101 -1.0044  0.4588 -1.0116
 2037TIP3   OH227669   1.931   6.409   1.110  0.4896  0.2834 -0.2943
 2037TIP3    H127670   1.903   6.479   1.168  2.0636  1.7240 -1.1853
 2037TIP3    H227671   1.880   6.420   1.031 -0.0968 -0.3359 -0.0169
 2038TIP3   OH227672   4.210   1.714   1.206  1.2619  0.5328  0.0733
 2038TIP3    H127673   4.192   1.774   1.278  1.2430  1.0987 -0.4038
 2038TIP3    H227674   4.170   1.631   1.234 -0.8669  1.3697 -0.3327
 2039TIP3   OH227675   6.284   6.572   1.770  0.4495 -0.7072 -0.1724
 2039TIP3    H127676   6.238   6.524   1.839  1.6526 -0.6246  0.7281
 2039TIP3    H227677   6.368   6.597   1.811 -0.2615  2.5277 -0.4566
 2040TIP3   OH227678   1.088   1.424   6.989 -0.7058 -0.5025  0.2189
 2040TIP3    H127679   1.032   1.500   7.006 -1.7317 -0.8428 -1.4824
 2040TIP3    H227680   1.148   1.453   6.921 -0.2912 -0.8479  0.4327
 2041TIP3   OH227681   1.907   2.638   6.739  0.2549 -0.0978 -0.3444
 2041TIP3    H127682   1.973   2.575   6.710  0.1758  0.4340 -1.7615
 2041TIP3    H227683   1.949   2.724   6.728  0.2780  0.1471  1.3335
 2042TIP3   OH227684   5.932   2.159   2.196  0.4225  0.1842 -0.0505
 2042TIP3    H127685   5.929   2.228   2.129  2.1747  0.0163 -0.3414
 2042TIP3    H227686   5.851   2.110   2.183 -0.3890  1.5864 -0.4801
 2043TIP3   OH227687   2.767   6.964   0.641 -0.4722  0.0590 -0.0882
 2043TIP3    H127688   2.862   6.963   0.651 -0.3343  2.3027 -0.6397
 2043TIP3    H227689   2.734   6.921   0.721  0.9712 -2.3123 -0.6672
 2044TIP3   OH227690   2.046   1.091   2.197 -0.2997  0.6018 -0.1966
 2044TIP3    H127691   2.082   1.135   2.274 -0.7839 -0.4362  0.6436
 2044TIP3    H227692   2.120   1.085   2.137  0.5444 -0.1275  0.8835
 2045TIP3   OH227693   2.377   5.398   7.602  0.0459 -0.6818  0.0948
 2045TIP3    H127694   2.424   5.424   7.523  0.0265  0.0234  0.3114
 2045TIP3    H227695   2.369   5.303   7.595 -0.1866 -0.5984 -0.8764
 2046TIP3   OH227696   1.170   4.270   1.414  0.3695  0.2942 -0.5550
 2046TIP3    H127697   1.099   4.328   1.386  0.4232  1.3772  1.3661
 2046TIP3    H227698   1.233   4.328   1.457  0.9008 -1.0508  0.5600
 2047TIP3   OH227699   2.712   4.063   7.421  0.2218 -0.5099 -0.1290
 2047TIP3    H127700   2.764   3.984   7.404 -0.5471 -1.1055  0.2205
 2047TIP3    H227701   2.756   4.105   7.495  0.5317 -0.7005 -0.2032
 2048TIP3   OH227702   2.675   1.344   1.057  0.2373 -0.2189  0.4428
 2048TIP3    H127703   2.765   1.376   1.061  0.3683 -0.4327 -0.4249
 2048TIP3    H227704   2.676   1.262   1.105  0.3066  0.2037  1.1682
 2049TIP3   OH227705   6.004   4.528   1.035  0.0016  0.5024 -0.4008
 2049TIP3    H127706   5.978   4.470   0.963 -1.1052  1.7605 -1.0436
 2049TIP3    H227707   5.922   4.550   1.079  0.7674 -1.4352  2.2548
 2050TIP3   OH227708   6.118   5.835   2.945 -0.5276  0.4351  0.0204
 2050TIP3    H127709   6.125   5.873   2.858  0.6582  2.3657  0.8845
 2050TIP3    H227710   6.208   5.808   2.966 -1.0992 -1.5937  0.0027
 2051TIP3   OH227711   2.671   0.116   7.187  0.0807  0.3873  0.1186
 2051TIP3    H127712   2.721   0.116   7.105 -0.0083 -0.0578  0.0594
 2051TIP3    H227713   2.686   0.203   7.224  1.9733 -0.1783  0.7729
 2052TIP3   OH227714   6.846   4.825   0.755 -0.3432  0.1543 -0.3647
 2052TIP3    H127715   6.877   4.769   0.684  0.2522 -1.6481  1.2435
 2052TIP3    H227716   6.923   4.875   0.782  0.1134 -1.0770  0.6976
 2053TIP3   OH227717   4.255   2.796   0.483  0.7637 -0.0444  0.5517
 2053TIP3    H127718   4.303   2.732   0.536  0.1714 -0.0028  1.1453
 2053TIP3    H227719   4.298   2.793   0.398  1.2097 -0.7042  0.7924
 2054TIP3   OH227720   5.092   4.923   0.751 -0.0979  0.5028  0.1017
 2054TIP3    H127721   5.158   4.875   0.700  0.0058  0.7277  0.0242
 2054TIP3    H227722   5.080   5.005   0.703 -2.2924 -0.5528 -1.3620
 2055TIP3   OH227723   6.914   0.962   7.732  0.1596  0.0630 -0.0339
 2055TIP3    H127724   6.831   0.943   7.776  0.9479  0.1775  1.5930
 2055TIP3    H227725   6.981   0.938   7.796  1.3383  3.5414  0.2786
 2056TIP3   OH227726   1.482   4.171   1.928  0.2109  0.2461  0.1483
 2056TIP3    H127727   1.460   4.153   2.019 -2.4594 -1.6699 -0.7478
 2056TIP3    H227728   1.448   4.096   1.879  1.0088  1.4696 -2.5083
 2057TIP3   OH227729   7.075   4.206   0.576 -0.0669 -0.5276  0.1663
 2057TIP3    H127730   7.121   4.231   0.495  0.9027 -0.0009  0.8542
 2057TIP3    H227731   7.128   4.134   0.612  0.0047 -0.1743  0.7766
 2058TIP3   OH227732   3.476   4.615   7.476 -0.4630  0.5852  0.1119
 2058TIP3    H127733   3.494   4.610   7.382 -0.4839  2.0466  0.0086
 2058TIP3    H227734   3.449   4.526   7.500 -1.5930  0.4526 -1.4980
 2059TIP3   OH227735   5.283   3.315   7.434  0.4113 -0.5196  0.1264
 2059TIP3    H127736   5.208   3.374   7.441 -0.5621 -1.5962 -0.6799
 2059TIP3    H227737   5.244   3.228   7.425  1.8044 -1.2949  1.2521
 2060TIP3   OH227738   4.142   5.426   7.819  0.3884  0.1891 -0.1806
 2060TIP3    H127739   4.056   5.457   7.846  0.8712 -0.0646  1.8120
 2060TIP3    H227740   4.142   5.433   7.724 -1.2677  1.6466 -0.1093
 2061TIP3   OH227741   5.523   5.829   1.951 -0.2279 -0.1245 -0.2401
 2061TIP3    H127742   5.493   5.791   2.034  1.6288 -1.3981 -0.1056
 2061TIP3    H227743   5.505   5.761   1.886  1.7213 -0.6953 -0.2462
 2062TIP3   OH227744   1.033   3.907   7.812  0.7642 -0.2529 -0.9046
 2062TIP3    H127745   1.065   3.914   7.722  0.1500 -1.2271 -1.2103
 2062TIP3    H227746   0.946   3.867   7.804  0.4720  0.1566  0.0850
 2063TIP3   OH227747   4.767   3.163   7.830 -0.0449  0.2496 -0.2114
 2063TIP3    H127748   4.775   3.251   7.866 -0.1919  0.5268 -0.8376
 2063TIP3    H227749   4.738   3.177   7.739  0.0771 -0.4355 -0.3598
 2064TIP3   OH227750   3.689   4.870   0.574  0.2610  0.3970  0.5063
 2064TIP3    H127751   3.713   4.782   0.602  0.8722  0.3300 -0.2014
 2064TIP3    H227752   3.652   4.858   0.487  0.7270  0.8844  0.2358
 2065TIP3   OH227753   0.362   4.572   2.654 -0.2645 -0.4296 -0.0388
 2065TIP3    H127754   0.370   4.661   2.618  1.5151 -0.2567  0.6861
 2065TIP3    H227755   0.423   4.520   2.602 -0.9898 -1.1645 -0.1808
 2066TIP3   OH227756   1.351   2.339   0.597  0.2307 -0.2441 -0.8921
 2066TIP3    H127757   1.411   2.268   0.573  1.1704  1.0302 -2.5370
 2066TIP3    H227758   1.388   2.416   0.554 -0.7896  1.2489  0.7730
 2067TIP3   OH227759   5.557   1.205   1.033  0.0582 -0.1491 -0.0870
 2067TIP3    H127760   5.546   1.144   0.960 -1.0263  0.4099 -0.4145
 2067TIP3    H227761   5.476   1.196   1.083  0.0006  0.8287  0.0097
 2068TIP3   OH227762   1.430   6.030   0.516 -0.2498 -0.5140 -0.1094
 2068TIP3    H127763   1.509   5.977   0.511  0.0681 -0.1922  1.1728
 2068TIP3    H227764   1.404   6.026   0.608 -1.5373 -0.3447 -0.4549
 2069TIP3   OH227765   2.614   1.572   7.274 -0.4889 -0.0715 -0.1109
 2069TIP3    H127766   2.612   1.658   7.316 -0.4550 -0.8500  1.5710
 2069TIP3    H227767   2.707   1.554   7.260 -0.3709 -0.5736  1.1949
 2070TIP3   OH227768   5.305   3.957   7.770  0.7027  0.0468 -0.2313
 2070TIP3    H127769   5.342   3.946   7.858 -0.1480 -0.6088  0.0490
 2070TIP3    H227770   5.330   3.878   7.724  0.3507 -0.0288 -0.2943
 2071TIP3   OH227771   5.334   4.170   0.483 -0.4872  0.1688  0.1174
 2071TIP3    H127772   5.350   4.141   0.573  2.8724  0.7666 -0.1719
 2071TIP3    H227773   5.293   4.256   0.493  0.0504  0.3306  1.0979
 2072TIP3   OH227774   2.835   5.012   1.915  0.0577 -0.0235  0.8234
 2072TIP3    H127775   2.827   4.995   2.009  0.2782  0.0085  0.8474
 2072TIP3    H227776   2.924   5.044   1.904 -0.1954  0.6342  0.7007
 2073TIP3   OH227777   6.946   6.041   7.689 -0.0134  0.1034 -0.3977
 2073TIP3    H127778   7.026   6.083   7.719  0.0690  0.6996 -1.3897
 2073TIP3    H227779   6.963   5.948   7.698  0.9126  0.2162 -0.8826
 2074TIP3   OH227780   3.338   3.801   0.425 -0.1256 -0.1806 -0.0571
 2074TIP3    H127781   3.305   3.841   0.345  0.8888  0.5482 -0.1332
 2074TIP3    H227782   3.357   3.874   0.483 -0.1268 -0.6612  0.5668
 2075TIP3   OH227783   3.078   6.630   0.178 -0.2454  0.5838 -0.3514
 2075TIP3    H127784   3.011   6.562   0.187 -1.0679  1.3329 -0.6662
 2075TIP3    H227785   3.159   6.588   0.207 -0.6076 -0.7362 -1.1803
 2076TIP3   OH227786   1.080   6.214   1.429  0.6972  0.0228  0.2076
 2076TIP3    H127787   1.025   6.289   1.448  0.7513  0.5185 -1.4290
 2076TIP3    H227788   1.024   6.155   1.379  1.4146  0.2277 -0.8823
 2077TIP3   OH227789   0.402   0.972   7.222 -0.5426  0.2778  0.0033
 2077TIP3    H127790   0.355   0.958   7.304  1.4681  1.0194  1.3679
 2077TIP3    H227791   0.490   0.936   7.238  0.7525  2.7806 -0.8108
 2078TIP3   OH227792   3.717   1.784   1.101  0.2729  0.0603 -0.6057
 2078TIP3    H127793   3.645   1.741   1.149  1.5955 -2.3437 -0.6276
 2078TIP3    H227794   3.674   1.822   1.025 -0.9801 -1.7137 -0.8661
 2079TIP3   OH227795   0.109   4.740   0.092  0.4599  0.1224 -0.2036
 2079TIP3    H127796   0.128   4.834   0.090 -0.5632  0.3580  0.5894
 2079TIP3    H227797   0.029   4.731   0.042  1.0334 -0.4662 -1.0410
 2080TIP3   OH227798   5.564   5.308   0.748 -0.0566  0.5143 -0.2377
 2080TIP3    H127799   5.548   5.254   0.825  1.8088  0.9476  0.4977
 2080TIP3    H227800   5.657   5.327   0.750 -0.1895  1.6119 -1.9172
 2081TIP3   OH227801   0.096   4.594   0.860 -0.1066  0.4615 -0.1141
 2081TIP3    H127802   0.039   4.543   0.802  0.0974 -0.1510  0.2088
 2081TIP3    H227803   0.036   4.647   0.912 -0.3560  0.1746 -0.1072
 2082TIP3   OH227804   2.504   0.608   6.357  0.0418  0.5582  0.5426
 2082TIP3    H127805   2.486   0.701   6.368 -1.4441  0.3989 -0.2117
 2082TIP3    H227806   2.438   0.564   6.410  1.1155 -0.0816  1.3822
 2083TIP3   OH227807   1.242   6.641   7.215 -0.1529  0.0752  0.7011
 2083TIP3    H127808   1.275   6.720   7.172  1.9996 -1.3058 -0.3095
 2083TIP3    H227809   1.147   6.643   7.198  0.0318  1.7710 -0.3721
 2084TIP3   OH227810   5.600   4.502   7.757  0.8813  0.2810  0.2962
 2084TIP3    H127811   5.526   4.441   7.761  0.7990  0.4460  2.0891
 2084TIP3    H227812   5.658   4.464   7.692  0.5566 -1.4148  0.9361
 2085TIP3   OH227813   3.938   0.883   1.533 -0.4152  0.3272 -0.0050
 2085TIP3    H127814   3.977   0.916   1.452 -0.3975 -0.3435 -0.2810
 2085TIP3    H227815   3.952   0.788   1.529 -0.2471  0.3081  0.8746
 2086TIP3   OH227816   4.272   6.454   7.805 -0.0555 -0.4269  0.1986
 2086TIP3    H127817   4.263   6.474   7.898  1.5134 -2.2865  0.8095
 2086TIP3    H227818   4.247   6.362   7.798  1.1800 -0.7013 -0.9588
 2087TIP3   OH227819   5.195   5.625   7.732  0.2925 -0.2143  0.0803
 2087TIP3    H127820   5.127   5.565   7.701 -0.2061  0.4108 -0.0801
 2087TIP3    H227821   5.234   5.581   7.807  1.0288 -1.4412 -0.9782
 2088TIP3   OH227822   0.255   2.974   2.203 -0.0615  0.3236 -0.5825
 2088TIP3    H127823   0.310   2.933   2.269  0.0006 -0.7508 -1.2763
 2088TIP3    H227824   0.311   2.978   2.125 -1.2673 -1.9045 -1.6713
 2089TIP3   OH227825   2.951   2.919   1.067  0.3126  0.1478 -0.4267
 2089TIP3    H127826   2.979   2.929   1.158  1.3196  0.0224 -0.7162
 2089TIP3    H227827   2.992   2.838   1.037 -1.5470 -0.8521 -0.4413
 2090TIP3   OH227828   1.378   3.275   6.933 -0.1992 -0.3241  0.0428
 2090TIP3    H127829   1.429   3.261   6.853  1.0049  0.0701  0.7126
 2090TIP3    H227830   1.399   3.198   6.987 -0.3942 -0.2079  0.2808
 2091TIP3   OH227831   5.392   6.294   1.644  0.0337  0.0110 -0.0379
 2091TIP3    H127832   5.382   6.214   1.695  1.5550  0.5303  1.1480
 2091TIP3    H227833   5.434   6.356   1.704 -2.0519  2.0858 -0.5509
 2092TIP3   OH227834   0.249   5.023   0.580 -0.1029 -0.4703 -0.3394
 2092TIP3    H127835   0.226   4.945   0.630  3.0378 -0.3593  1.5625
 2092TIP3    H227836   0.274   5.087   0.646  2.9091  0.1655 -1.9313
 2093TIP3   OH227837   6.435   5.036   0.936 -0.1568 -0.0719 -0.2213
 2093TIP3    H127838   6.429   5.020   1.030  0.5508  0.6181 -0.0482
 2093TIP3    H227839   6.484   4.962   0.902 -0.8722 -0.5935 -0.1327
 2094TIP3   OH227840   6.344   2.624   7.973  0.4857 -0.0307  0.3878
 2094TIP3    H127841   6.251   2.602   7.965  0.7571 -0.7459 -1.2107
 2094TIP3    H227842   6.344   2.710   8.015 -0.7960 -0.9208  2.3461
 2095TIP3   OH227843   5.284   5.892   6.412 -0.3844 -0.0719  0.0776
 2095TIP3    H127844   5.374   5.923   6.406 -0.8502  1.5404  0.9448
 2095TIP3    H227845   5.236   5.962   6.456 -2.0557 -0.9276 -0.2580
 2096TIP3   OH227846   6.089   2.554   0.301 -0.3319  0.0544  0.1496
 2096TIP3    H127847   6.066   2.609   0.376  1.2310  1.3984 -0.3025
 2096TIP3    H227848   6.172   2.513   0.325  1.6503  2.6025 -1.7627
 2097TIP3   OH227849   6.119   2.959   2.743  0.2296 -0.6823 -0.8037
 2097TIP3    H127850   6.215   2.966   2.749  0.0403  2.5899  0.4567
 2097TIP3    H227851   6.095   2.903   2.817  1.1104 -0.4225 -0.3016
 2098TIP3   OH227852   6.306   4.072   0.704  0.1470 -0.2531 -0.0346
 2098TIP3    H127853   6.349   4.093   0.621 -0.5540  3.2293  0.3411
 2098TIP3    H227854   6.287   4.157   0.743  0.1758 -1.7587  3.5995
 2099TIP3   OH227855   6.918   2.140   1.532  0.3599  0.3744  1.1783
 2099TIP3    H127856   6.913   2.232   1.504  0.1627  0.4759  1.5419
 2099TIP3    H227857   7.006   2.113   1.505  0.1720  0.4573  0.4474
 2100TIP3   OH227858   2.488   0.173   0.878  0.1715 -0.1742  0.3248
 2100TIP3    H127859   2.510   0.266   0.881 -0.0457 -0.1334  0.8481
 2100TIP3    H227860   2.394   0.171   0.863  0.3067 -0.3253 -0.5194
 2101TIP3   OH227861   6.219   3.586   0.195  0.1846 -0.7055 -0.3376
 2101TIP3    H127862   6.241   3.494   0.181  0.3177 -0.8316  0.6609
 2101TIP3    H227863   6.241   3.603   0.287 -1.8818 -0.2612  0.1210
 2102TIP3   OH227864   6.935   0.350   6.173 -0.0780  0.4929  0.2490
 2102TIP3    H127865   6.906   0.339   6.263 -1.1118 -0.0888 -0.1338
 2102TIP3    H227866   6.902   0.272   6.128 -1.5136  1.8048 -1.1001
 2103TIP3   OH227867   0.325   1.038   0.183  0.4709  0.3010  0.3224
 2103TIP3    H127868   0.256   1.059   0.246 -1.2159 -1.0308 -0.9876
 2103TIP3    H227869   0.357   0.952   0.211  2.9078  1.6121  1.9331
 2104TIP3   OH227870   5.253   5.700   6.214  0.1722 -0.1020 -0.4896
 2104TIP3    H127871   5.250   5.775   6.275 -0.8135  1.0783 -1.9232
 2104TIP3    H227872   5.342   5.666   6.223  1.5816  2.8885 -1.6426
 2105TIP3   OH227873   0.182   6.348   8.000  0.1499 -0.2018 -0.2614
 2105TIP3    H127874   0.086   6.349   7.991  0.1960  0.5093 -0.7799
 2105TIP3    H227875   0.205   6.440   8.010  0.8389 -0.3204 -0.7347
 2106TIP3   OH227876   7.084   4.282   0.973 -0.2993  0.0556  0.3805
 2106TIP3    H127877   7.175   4.261   0.998  0.0963 -0.0735 -1.0915
 2106TIP3    H227878   7.093   4.336   0.895 -1.5070 -2.2382 -1.4695
 2107TIP3   OH227879   3.613   4.590   6.404  0.2441  0.3669  0.1442
 2107TIP3    H127880   3.692   4.625   6.365  0.2243  0.0553 -0.1871
 2107TIP3    H227881   3.624   4.602   6.499 -0.0809  1.8941  0.0057
 2108TIP3   OH227882   1.827   5.915   2.633 -0.3838  0.2506 -0.1623
 2108TIP3    H127883   1.769   5.975   2.586 -0.1532 -0.5031 -1.4381
 2108TIP3    H227884   1.908   5.964   2.644  0.1024 -0.1143 -1.9686
 2109TIP3   OH227885   3.060   1.484   6.854  0.0163  0.1652  0.0475
 2109TIP3    H127886   3.072   1.390   6.863  0.9581  0.2265 -0.4998
 2109TIP3    H227887   3.100   1.521   6.933 -0.6070  0.1066  0.4042
 2110TIP3   OH227888   5.494   1.518   1.111 -0.1715  0.5060 -0.1954
 2110TIP3    H127889   5.527   1.446   1.056  2.0043  0.7116  0.7270
 2110TIP3    H227890   5.463   1.583   1.048  1.2989  0.3006 -1.1991
 2111TIP3   OH227891   2.172   6.959   0.192 -0.4128  0.0840 -0.2152
 2111TIP3    H127892   2.231   7.032   0.176 -1.3204  0.7969 -0.3540
 2111TIP3    H227893   2.222   6.900   0.249  0.4571  0.6292 -0.3985
 2112TIP3   OH227894   5.017   1.079   6.523  0.0773 -0.3286 -0.3847
 2112TIP3    H127895   5.086   1.145   6.533 -2.0805  1.9586  0.7745
 2112TIP3    H227896   5.062   1.001   6.491  2.9973  1.3177 -0.6464
 2113TIP3   OH227897   4.716   0.128   1.268  0.1311  0.1284 -0.6480
 2113TIP3    H127898   4.714   0.046   1.219 -1.1163 -0.0661 -0.2945
 2113TIP3    H227899   4.771   0.186   1.215  0.4943 -0.7244 -1.2232
 2114TIP3   OH227900   1.843   1.207   7.530  0.6643 -0.1086 -0.1105
 2114TIP3    H127901   1.818   1.269   7.462  2.2795  0.0789 -0.5718
 2114TIP3    H227902   1.802   1.125   7.503  1.5995 -0.1395 -1.5443
 2115TIP3   OH227903   4.955   6.549   7.188  0.0672  0.2913 -0.0627
 2115TIP3    H127904   5.015   6.524   7.117  1.1945 -0.5897  1.1656
 2115TIP3    H227905   4.959   6.477   7.250 -1.4113  0.7521  0.6112
 2116TIP3   OH227906   3.279   5.884   1.053 -0.3768 -0.0955 -0.4986
 2116TIP3    H127907   3.214   5.891   0.984  0.9324 -1.0033 -1.8907
 2116TIP3    H227908   3.363   5.879   1.007  0.6438  0.3172  1.1986
 2117TIP3   OH227909   4.706   0.035   0.833  0.5158 -0.7776  0.1618
 2117TIP3    H127910   4.627  -0.004   0.794  1.3104 -3.1728  0.7426
 2117TIP3    H227911   4.704   0.126   0.806 -3.0245 -0.4378  1.0528
 2118TIP3   OH227912   6.040   1.099   1.085 -0.4857 -0.3801  0.1260
 2118TIP3    H127913   6.117   1.157   1.084  0.0934 -1.1229 -1.0080
 2118TIP3    H227914   5.966   1.158   1.070  0.1439  0.0358 -1.5746
 2119TIP3   OH227915   1.549   4.196   7.716 -0.5362  0.1687 -0.1699
 2119TIP3    H127916   1.585   4.274   7.674 -0.5954  0.3489  0.1079
 2119TIP3    H227917   1.577   4.203   7.807  0.0086 -0.4752 -0.2823
 2120TIP3   OH227918   3.809   0.086   7.339  0.3585 -0.1445  0.2367
 2120TIP3    H127919   3.856   0.023   7.285 -0.7158  1.0782 -2.3138
 2120TIP3    H227920   3.859   0.168   7.329 -0.0498  0.1841  0.8192
 2121TIP3   OH227921   4.212   5.097   7.307 -0.3075 -0.0200 -0.1541
 2121TIP3    H127922   4.193   5.056   7.222  1.5033 -0.9702 -0.1410
 2121TIP3    H227923   4.271   5.170   7.285  0.3792 -0.4300  0.2894
 2122TIP3   OH227924   5.606   4.835   7.260 -0.1470  0.1060  0.6245
 2122TIP3    H127925   5.616   4.787   7.178  0.8746  0.0131  0.7917
 2122TIP3    H227926   5.634   4.924   7.239  1.9509 -0.3331  1.2861
 2123TIP3   OH227927   2.696   3.380   0.451  0.3472 -0.4223  0.9806
 2123TIP3    H127928   2.673   3.449   0.512 -0.2869  0.1182  0.1554
 2123TIP3    H227929   2.792   3.379   0.450  0.4224  1.9891 -0.6546
 2124TIP3   OH227930   1.491   0.681   1.250 -0.0541 -0.8772 -0.6464
 2124TIP3    H127931   1.520   0.624   1.179  1.6111 -1.6999  0.6168
 2124TIP3    H227932   1.546   0.759   1.243 -1.3394 -0.0006 -1.4915
 2125TIP3   OH227933   2.061   3.136   6.457 -0.4382 -0.0861  0.0603
 2125TIP3    H127934   2.107   3.105   6.379 -1.2134  0.1504 -0.5033
 2125TIP3    H227935   2.118   3.112   6.530  1.5453  1.9112 -0.7266
 2126TIP3   OH227936   5.734   2.493   0.187  0.3862 -0.3144 -0.3385
 2126TIP3    H127937   5.711   2.408   0.152  1.8295 -0.5137 -0.9034
 2126TIP3    H227938   5.723   2.553   0.114 -1.2951  0.1278  0.2453
 2127TIP3   OH227939   2.016   7.005   6.861  0.6033  0.5086  0.2071
 2127TIP3    H127940   2.086   7.067   6.884  1.9210 -0.3925 -1.1621
 2127TIP3    H227941   2.040   6.924   6.907  0.8949 -0.0189 -0.8449
 2128TIP3   OH227942   4.678   3.950   1.872  1.1893  0.8952 -0.2425
 2128TIP3    H127943   4.653   4.031   1.827 -1.4332  0.7718  0.7858
 2128TIP3    H227944   4.745   3.977   1.935  1.3276  2.0053 -0.8447
 2129TIP3   OH227945   1.292   4.507   1.504 -0.6395  0.1148  0.5403
 2129TIP3    H127946   1.258   4.590   1.472 -1.4485  0.1459  1.4009
 2129TIP3    H227947   1.263   4.503   1.596 -2.4705 -2.0351 -0.0206
 2130TIP3   OH227948   6.843   0.184   2.597 -0.7999 -0.2887 -0.4360
 2130TIP3    H127949   6.920   0.188   2.540  1.9537  1.3543  2.9655
 2130TIP3    H227950   6.783   0.249   2.561  0.4154  0.0559 -1.9639
 2131TIP3   OH227951   5.765   6.173   7.157 -0.0614 -0.0937  0.1773
 2131TIP3    H127952   5.731   6.262   7.171  0.4729  0.3743 -1.3468
 2131TIP3    H227953   5.795   6.146   7.244 -0.9075  0.9237  0.8153
 2132TIP3   OH227954   4.620   5.698   7.044  0.1125  0.0634 -0.3025
 2132TIP3    H127955   4.706   5.661   7.025  1.0795  2.0598 -0.0211
 2132TIP3    H227956   4.613   5.694   7.140 -0.2706 -0.3781 -0.3413
 2133TIP3   OH227957   1.062   4.687   0.251  0.4951 -0.3499 -0.2734
 2133TIP3    H127958   0.972   4.668   0.225 -1.3390  1.5967  3.7831
 2133TIP3    H227959   1.088   4.760   0.195 -1.1421  0.2036 -0.3824
 2134TIP3   OH227960   5.751   4.965   0.719 -0.1845  0.2191 -0.0035
 2134TIP3    H127961   5.834   4.987   0.763 -1.4079  1.3238  1.9284
 2134TIP3    H227962   5.777   4.909   0.646  2.0664 -1.3750  1.8527
 2135TIP3   OH227963   1.900   5.249   0.646 -0.1436 -0.5541  0.1796
 2135TIP3    H127964   1.812   5.217   0.666  0.2077 -0.2613  2.3892
 2135TIP3    H227965   1.934   5.187   0.581 -1.2693 -1.8142  0.7560
 2136TIP3   OH227966   6.639   2.035   7.173  0.0088  0.3812 -0.1887
 2136TIP3    H127967   6.613   2.030   7.081 -0.5422  0.7903 -0.0556
 2136TIP3    H227968   6.674   1.948   7.192 -0.1266  0.2073 -0.7050
 2137TIP3   OH227969   7.117   6.550   2.768 -0.0870 -0.2594 -0.1119
 2137TIP3    H127970   7.109   6.473   2.824  2.5497 -1.9623 -1.8501
 2137TIP3    H227971   7.156   6.617   2.824  0.5562 -1.2485  0.6526
 2138TIP3   OH227972   6.388   3.107   1.476 -0.8055  0.3042 -0.0346
 2138TIP3    H127973   6.431   3.023   1.463 -0.9783  0.3339 -0.8285
 2138TIP3    H227974   6.331   3.094   1.553 -0.9021 -0.3231 -0.2114
 2139TIP3   OH227975   6.841   0.614   1.627 -0.1960 -0.0248 -0.2838
 2139TIP3    H127976   6.925   0.596   1.668 -0.0416  0.3969 -0.4092
 2139TIP3    H227977   6.791   0.533   1.637  0.5371 -0.5797 -0.9984
 2140TIP3   OH227978   0.645   4.308   7.693  0.3237  0.1382 -0.0129
 2140TIP3    H127979   0.706   4.381   7.676  0.1299 -0.0589 -1.7835
 2140TIP3    H227980   0.559   4.347   7.682  0.2187 -0.3409 -0.9947
 2141TIP3   OH227981   4.811   1.872   1.322 -0.1615 -0.2525  1.0233
 2141TIP3    H127982   4.754   1.938   1.283  1.8892  1.6227  1.0219
 2141TIP3    H227983   4.751   1.811   1.366 -2.3074 -0.2980 -1.7521
 2142TIP3   OH227984   0.782   0.904   0.903 -0.3045  0.4000  0.0194
 2142TIP3    H127985   0.701   0.934   0.863 -0.4749  1.1180  0.8685
 2142TIP3    H227986   0.773   0.927   0.996  0.6163 -0.0475  0.2329
 2143TIP3   OH227987   6.038   2.818   7.395 -0.4289 -0.4250  0.2152
 2143TIP3    H127988   5.947   2.797   7.416 -0.4118 -1.7167 -0.8681
 2143TIP3    H227989   6.040   2.826   7.299  0.5109  0.0407  0.2550
 2144TIP3   OH227990   1.260   3.487   0.530 -0.2951 -0.0750  0.2267
 2144TIP3    H127991   1.239   3.576   0.556 -0.5024 -0.2048  0.5044
 2144TIP3    H227992   1.190   3.433   0.567  0.2849 -0.4554  0.7887
 2145TIP3   OH227993   5.434   1.276   7.523  0.4513 -0.1718 -0.4903
 2145TIP3    H127994   5.454   1.206   7.462  3.1469 -0.9377  1.1141
 2145TIP3    H227995   5.495   1.346   7.501  0.0507  0.3534  0.0278
 2146TIP3   OH227996   4.244   5.723   1.276  0.1987 -0.0285  0.3384
 2146TIP3    H127997   4.333   5.719   1.310  1.0393  0.5721 -1.6478
 2146TIP3    H227998   4.225   5.817   1.270 -1.3161 -0.1308  2.4387
 2147TIP3   OH227999   2.023   3.648   7.274 -0.0384  0.3884  0.2788
 2147TIP3    H128000   2.082   3.575   7.256  0.0264  0.3992  0.4452
 2147TIP3    H228001   2.077   3.726   7.263  0.5049  0.3537  2.2865
 2148TIP3   OH228002   6.140   4.498   7.014  0.1071  0.2452  0.1538
 2148TIP3    H128003   6.130   4.487   7.108 -0.4928 -3.4052 -0.1766
 2148TIP3    H228004   6.053   4.526   6.984 -0.6982 -1.7836  0.4312
 2149TIP3   OH228005   2.897   5.765   2.218 -0.2429  0.1210 -0.2307
 2149TIP3    H128006   2.883   5.674   2.243  1.2168 -0.1873 -0.4532
 2149TIP3    H228007   2.944   5.803   2.293 -0.5586  0.6058 -0.2761
 2150TIP3   OH228008   1.992   6.605   7.691  0.0700  0.4046  0.3260
 2150TIP3    H128009   2.074   6.566   7.659 -0.4837 -0.4013 -0.1530
 2150TIP3    H228010   1.958   6.654   7.616 -0.9838 -1.0840 -0.2117
 2151TIP3   OH228011   1.191   2.133   7.410 -0.0596 -0.4656  0.7257
 2151TIP3    H128012   1.209   2.068   7.478 -2.5357 -0.7531  1.1910
 2151TIP3    H228013   1.119   2.096   7.359 -2.5238  2.4105  1.8476
 2152TIP3   OH228014   4.999   3.473   0.952 -0.7908  0.2273 -0.2674
 2152TIP3    H128015   5.080   3.510   0.917 -1.9137  2.6798 -0.4913
 2152TIP3    H228016   5.028   3.411   1.019  1.2583 -0.1107 -1.3791
 2153TIP3   OH228017   2.233   2.406   6.809 -0.0162 -0.6149 -0.0885
 2153TIP3    H128018   2.222   2.315   6.783 -1.0789 -0.6204  0.3529
 2153TIP3    H228019   2.204   2.457   6.733 -2.8164 -0.6345  0.8709
 2154TIP3   OH228020   0.100   0.916   2.001  0.0347 -0.2499  0.0679
 2154TIP3    H128021   0.151   0.897   1.922 -0.7112 -0.8277 -0.2914
 2154TIP3    H228022   0.148   0.874   2.072  1.8234  1.9695  0.2863
 2155TIP3   OH228023   5.745   2.519   7.545 -0.3572  0.2586  0.2515
 2155TIP3    H128024   5.657   2.488   7.564 -0.1104 -1.2999 -0.8810
 2155TIP3    H228025   5.740   2.614   7.553 -1.9814  0.1560  0.7964
 2156TIP3   OH228026   4.588   3.374   7.106  0.3725 -0.0801 -0.0827
 2156TIP3    H128027   4.560   3.413   7.189  1.1679 -1.5267  0.8907
 2156TIP3    H228028   4.511   3.384   7.049  0.1194  1.7553  0.4942
 2157TIP3   OH228029   4.443   1.607   1.059 -0.0104 -0.5241 -0.0095
 2157TIP3    H128030   4.372   1.668   1.083  1.1926  1.1343 -0.4724
 2157TIP3    H228031   4.469   1.634   0.971  2.4277  0.1953  0.8451
 2158TIP3   OH228032   6.164   5.428   1.764 -0.4520 -0.5632  0.5143
 2158TIP3    H128033   6.204   5.355   1.811  0.9745 -0.7651 -0.9349
 2158TIP3    H228034   6.090   5.454   1.819  0.1192 -1.8814  1.9855
 2159TIP3   OH228035   0.980   6.631   1.597  0.3502 -0.8392  0.5606
 2159TIP3    H128036   0.893   6.621   1.557  0.9850 -1.5497 -0.7203
 2159TIP3    H228037   0.972   6.587   1.682 -0.4895 -1.0601  0.3797
 2160TIP3   OH228038   6.130   0.720   0.753  0.9079  0.5843  0.1382
 2160TIP3    H128039   6.146   0.805   0.793  0.5392  1.1152 -0.8172
 2160TIP3    H228040   6.037   0.721   0.730  1.3785  0.8328 -1.9316
 2161TIP3   OH228041   1.012   2.697   7.401 -0.0498  0.2337 -0.2932
 2161TIP3    H128042   0.991   2.618   7.350  1.2644 -0.7990  0.7035
 2161TIP3    H228043   1.070   2.666   7.470  1.4637  2.2685 -0.5610
 2162TIP3   OH228044   2.923   5.824   7.696  0.1186  0.5369  0.2428
 2162TIP3    H128045   2.965   5.815   7.610  0.1098 -1.7820  0.4150
 2162TIP3    H228046   2.852   5.759   7.695 -0.9243  1.6100  1.4163
 2163TIP3   OH228047   6.566   6.069   7.094  0.1526  0.4634 -0.6315
 2163TIP3    H128048   6.487   6.065   7.040  0.7346  2.0657 -1.6999
 2163TIP3    H228049   6.636   6.042   7.035  0.5072 -0.3357  0.1276
 2164TIP3   OH228050   0.084   6.323   1.210 -0.3282 -0.0003 -0.2025
 2164TIP3    H128051   0.040   6.397   1.168  0.0723  0.0238 -0.5887
 2164TIP3    H228052   0.113   6.357   1.294  0.0450  0.3529 -0.4664
 2165TIP3   OH228053   1.133   5.465   6.874  0.0163  0.0338 -0.2724
 2165TIP3    H128054   1.107   5.531   6.939 -0.0169 -1.2250  1.0409
 2165TIP3    H228055   1.215   5.429   6.908  0.5782  0.0961 -1.5134
 2166TIP3   OH228056   5.162   0.144   0.153  0.1661 -0.0633 -0.0137
 2166TIP3    H128057   5.114   0.123   0.233  0.6532 -1.2103 -0.0016
 2166TIP3    H228058   5.210   0.224   0.174 -2.7106  1.9497 -0.4532
 2167TIP3   OH228059   1.443   4.755   6.473 -0.2796 -0.0423 -0.5019
 2167TIP3    H128060   1.439   4.662   6.496 -0.7140  0.3998  1.4275
 2167TIP3    H228061   1.356   4.775   6.437 -0.3736 -0.2691 -0.4026
 2168TIP3   OH228062   3.751   6.623   1.789 -0.3903  0.1024  0.4873
 2168TIP3    H128063   3.749   6.537   1.832 -0.9183 -0.6593 -0.9939
 2168TIP3    H228064   3.699   6.679   1.846 -3.7732 -1.6383 -0.6264
 2169TIP3   OH228065   3.512   3.630   1.104 -0.1765 -0.4153  0.4149
 2169TIP3    H128066   3.591   3.678   1.078  0.0373 -1.2764 -0.5968
 2169TIP3    H228067   3.531   3.600   1.193  0.3199  0.0343  0.4690
 2170TIP3   OH228068   0.965   3.876   1.422  0.0159  1.0815 -0.5585
 2170TIP3    H128069   0.885   3.927   1.408 -0.6277  0.5842  1.0902
 2170TIP3    H228070   1.036   3.937   1.401 -0.6816  3.1411  2.4066
 2171TIP3   OH228071   2.258   0.855   7.229 -0.1088  0.7568 -0.0906
 2171TIP3    H128072   2.230   0.767   7.254  0.1116  0.9155  0.7588
 2171TIP3    H228073   2.177   0.906   7.224 -0.4233  0.1416 -2.2338
 2172TIP3   OH228074   0.494   7.133   2.852 -0.6466  0.0115 -0.8089
 2172TIP3    H128075   0.486   7.057   2.910 -1.1032  0.2801 -0.5082
 2172TIP3    H228076   0.519   7.097   2.767  1.9350 -0.2489 -0.0060
 2173TIP3   OH228077   0.220   1.260   8.009 -0.3849  0.9755  0.0041
 2173TIP3    H128078   0.229   1.179   8.058 -0.5677  0.9720  0.0329
 2173TIP3    H228079   0.129   1.262   7.982  0.2085 -0.1020 -2.2500
 2174TIP3   OH228080   6.704   6.806   7.282 -0.2526 -0.3286 -0.1715
 2174TIP3    H128081   6.640   6.812   7.211  0.0974  1.9050 -0.3696
 2174TIP3    H228082   6.752   6.725   7.264 -1.2885 -0.6795 -1.5190
 2175TIP3   OH228083   6.567   0.010   6.516 -0.1678 -0.7980 -0.2034
 2175TIP3    H128084   6.509   0.076   6.480  0.9830  0.0930 -0.4855
 2175TIP3    H228085   6.594   0.045   6.601  0.0293 -1.1606 -0.1125
 2176TIP3   OH228086   4.217   5.737   2.749  0.6134 -0.0735  0.3481
 2176TIP3    H128087   4.132   5.758   2.787  1.2216  1.2582  1.0310
 2176TIP3    H228088   4.197   5.706   2.661 -0.6097 -0.2845  0.6865
 2177TIP3   OH228089   5.009   2.806   7.056 -0.0264 -0.1864 -0.4957
 2177TIP3    H128090   5.018   2.732   6.995  1.4835 -0.3122 -0.1518
 2177TIP3    H228091   5.095   2.848   7.056  0.2768 -0.6567  2.1220
 2178TIP3   OH228092   3.600   4.321   1.746  0.0608  0.7090  0.4995
 2178TIP3    H128093   3.563   4.327   1.834  0.1599  0.1441  0.5847
 2178TIP3    H228094   3.683   4.275   1.758 -1.2121 -1.9730 -0.2143
 2179TIP3   OH228095   3.880   2.684   1.627 -0.0063  0.1542  0.1870
 2179TIP3    H128096   3.853   2.623   1.695  1.2113 -2.4209 -1.5069
 2179TIP3    H228097   3.834   2.655   1.548  0.3724  1.6368 -0.6309
 2180TIP3   OH228098   0.311   0.892   6.637  0.6637  0.3728  0.1245
 2180TIP3    H128099   0.364   0.866   6.712  1.1230 -1.0227 -0.6553
 2180TIP3    H228100   0.360   0.861   6.561 -0.7863 -0.0887 -0.6576
 2181TIP3   OH228101   1.201   3.276   2.053  0.1736  0.0138  0.1304
 2181TIP3    H128102   1.164   3.354   2.095 -0.5078 -0.4763  0.4620
 2181TIP3    H228103   1.129   3.213   2.052  0.6642 -0.5485 -0.2987
 2182TIP3   OH228104   4.578   3.448   1.592 -0.2730 -0.4431  0.9785
 2182TIP3    H128105   4.627   3.368   1.612 -0.5080 -0.7228  0.4590
 2182TIP3    H228106   4.637   3.519   1.615  1.4258 -0.7529 -2.0031
 2183TIP3   OH228107   2.904   4.632   2.026  0.8352  0.2445  0.1793
 2183TIP3    H128108   2.902   4.558   2.086  0.7273  0.8986  1.0135
 2183TIP3    H228109   2.979   4.684   2.054  0.9267  0.4459 -0.4120
 2184TIP3   OH228110   4.477   6.741   0.782  0.2953  0.4813 -0.0345
 2184TIP3    H128111   4.416   6.668   0.778  1.1805 -0.2221 -1.1714
 2184TIP3    H228112   4.518   6.744   0.695 -0.4081  2.9332 -0.3816
 2185TIP3   OH228113   0.471   0.811   6.424  0.0425  0.0153 -0.3127
 2185TIP3    H128114   0.402   0.783   6.363  0.4891  0.3655 -0.9962
 2185TIP3    H228115   0.548   0.760   6.398 -0.0450 -0.6574  0.6932
 2186TIP3   OH228116   3.633   1.817   0.834 -0.1937 -0.1933  0.0801
 2186TIP3    H128117   3.589   1.751   0.781 -1.0509  0.5549 -0.1560
 2186TIP3    H228118   3.621   1.899   0.786 -1.5661  0.6321  1.7226
 2187TIP3   OH228119   4.374   5.920   7.624  0.3404 -0.0815 -0.0193
 2187TIP3    H128120   4.362   5.952   7.713  2.4309 -0.1666  0.3427
 2187TIP3    H228121   4.423   5.990   7.580  2.0101 -1.2971 -0.1866
 2188TIP3   OH228122   6.019   0.100   6.958  0.2930 -0.4336 -1.1181
 2188TIP3    H128123   5.967   0.174   6.990  2.0403 -0.0597  1.0245
 2188TIP3    H228124   5.953   0.036   6.928 -1.2919  1.1794 -1.2570
 2189TIP3   OH228125   4.271   6.181   7.783  0.0813  0.5517  0.3874
 2189TIP3    H128126   4.212   6.152   7.714 -0.6475  0.3006  1.0937
 2189TIP3    H228127   4.276   6.106   7.844  2.7228 -0.2279 -0.6295
 2190TIP3   OH228128   4.781   1.193   6.484 -0.2495  0.5388  0.3386
 2190TIP3    H128129   4.862   1.143   6.493 -0.0163  0.7238 -0.6497
 2190TIP3    H228130   4.717   1.129   6.453 -0.2169  0.6277  0.0903
 2191TIP3   OH228131   1.283   0.357   7.433 -0.2010  0.5611  0.4542
 2191TIP3    H128132   1.281   0.264   7.455  1.2107  0.0812 -1.2432
 2191TIP3    H228133   1.311   0.400   7.514 -2.5936 -0.2311  1.8105
 2192TIP3   OH228134   4.955   2.279   1.566 -0.1018 -0.3942 -0.0742
 2192TIP3    H128135   4.943   2.302   1.474  1.0264 -0.7042 -0.3131
 2192TIP3    H228136   4.918   2.191   1.575 -0.3760 -0.2905 -0.1846
 2193TIP3   OH228137   3.410   3.729   0.064  0.7000 -0.1281 -0.4056
 2193TIP3    H128138   3.498   3.754   0.035  0.4987  2.4826  0.9195
 2193TIP3    H228139   3.351   3.768  -0.000  0.4570 -0.4196 -0.3622
 2194TIP3   OH228140   1.644   3.462   0.869 -0.6190 -0.1882 -0.0741
 2194TIP3    H128141   1.601   3.442   0.952  0.9632  0.7267  1.0224
 2194TIP3    H228142   1.689   3.545   0.884  0.3236 -0.3702 -1.5955
 2195TIP3   OH228143   0.422   5.297   3.009  0.8218 -0.1476  0.1640
 2195TIP3    H128144   0.382   5.321   2.925  1.6909 -0.6865 -0.4215
 2195TIP3    H228145   0.348   5.286   3.069  0.0795 -1.0680 -0.8724
 2196TIP3   OH228146   0.263   3.597   6.425  0.0578  0.5227  0.0935
 2196TIP3    H128147   0.304   3.530   6.479 -0.4952 -1.2057 -1.5430
 2196TIP3    H228148   0.297   3.582   6.337  0.3575  2.7952 -0.2563
 2197TIP3   OH228149   2.631   6.858   0.871  0.0239 -0.2791 -0.0772
 2197TIP3    H128150   2.655   6.810   0.950 -2.1632  0.9846  1.4799
 2197TIP3    H228151   2.558   6.809   0.834 -1.9193  1.3908  1.2714
 2198TIP3   OH228152   6.142   6.274   0.458 -0.2842  0.2047  0.2665
 2198TIP3    H128153   6.186   6.252   0.540 -1.9624  0.6343  1.3322
 2198TIP3    H228154   6.081   6.345   0.482 -0.8554  0.2872 -1.3304
 2199TIP3   OH228155   6.741   3.976   0.478  0.1823 -0.2779  0.0872
 2199TIP3    H128156   6.796   3.908   0.516 -1.1689  0.4867  3.8131
 2199TIP3    H228157   6.652   3.941   0.483 -0.5661  1.7079  2.2768
 2200TIP3   OH228158   6.043   4.921   7.606  0.1800 -0.3561  0.4700
 2200TIP3    H128159   6.066   4.865   7.680  0.6662  1.7724  2.0114
 2200TIP3    H228160   5.985   4.987   7.643  0.5233  0.8283 -1.0178
 2201TIP3   OH228161   5.234   4.582   6.985  0.1175  0.3363  0.3447
 2201TIP3    H128162   5.172   4.652   6.966  1.4925  1.5546  0.1766
 2201TIP3    H228163   5.273   4.606   7.069 -0.9924 -1.4260  1.4111
 2202TIP3   OH228164   0.184   3.547   7.216  0.2685  0.1233 -0.1186
 2202TIP3    H128165   0.180   3.502   7.300 -0.1757 -0.1798 -0.3019
 2202TIP3    H228166   0.172   3.479   7.150 -1.1563  0.5897 -0.3807
 2203TIP3   OH228167   5.651   6.443   7.228  0.0656  0.3264 -0.1198
 2203TIP3    H128168   5.697   6.507   7.281  0.9527 -0.0228 -0.4396
 2203TIP3    H228169   5.642   6.484   7.142 -0.7188  0.6043  0.0820
 2204TIP3   OH228170   0.942   7.028   0.297  0.1537  0.4932 -0.1524
 2204TIP3    H128171   0.881   6.961   0.327 -0.4488  1.1715  0.1825
 2204TIP3    H228172   0.998   7.046   0.373 -0.6789  1.4459  0.2597
 2205TIP3   OH228173   5.714   0.834   6.727 -0.5865  0.1753 -0.0112
 2205TIP3    H128174   5.644   0.897   6.707 -1.4971 -0.8605 -0.1426
 2205TIP3    H228175   5.710   0.824   6.822 -2.5612 -2.0051 -0.2274
 2206TIP3   OH228176   0.871   5.902   1.004  0.2961  0.0136 -0.5738
 2206TIP3    H128177   0.804   5.834   1.013  1.3876 -1.0915 -0.6089
 2206TIP3    H228178   0.945   5.858   0.964  0.6834  1.4743 -1.5638
 2207TIP3   OH228179   1.468   3.340   7.632 -0.3720 -0.4812  0.6534
 2207TIP3    H128180   1.560   3.326   7.656 -0.3490 -2.2715 -0.2484
 2207TIP3    H228181   1.450   3.270   7.568 -2.1884  0.2142  0.3537
 2208TIP3   OH228182   1.893   3.131   2.073 -0.1994 -0.3862  0.0058
 2208TIP3    H128183   1.836   3.093   2.006 -0.3345  0.5974 -0.4498
 2208TIP3    H228184   1.834   3.156   2.144 -0.2656  0.1122 -0.2245
 2209TIP3   OH228185   6.309   3.696   1.679 -0.1726 -0.2217 -0.1130
 2209TIP3    H128186   6.356   3.706   1.596 -1.5528 -0.7501 -0.9950
 2209TIP3    H228187   6.313   3.782   1.719  2.6666 -0.5332  0.5173
 2210TIP3   OH228188   3.856   0.186   1.183 -0.5756  0.4865  0.0587
 2210TIP3    H128189   3.815   0.146   1.106  0.6095 -1.1135  0.2012
 2210TIP3    H228190   3.936   0.135   1.196  0.3265  2.0851  1.0955
 2211TIP3   OH228191   4.447   6.225   0.459 -0.2823 -0.2115 -0.1780
 2211TIP3    H128192   4.396   6.195   0.384  0.0224 -0.0041 -0.4679
 2211TIP3    H228193   4.488   6.306   0.429  1.2620 -1.0425 -0.3766
 2212TIP3   OH228194   0.234   5.370   0.096  0.4219  0.3257 -0.3857
 2212TIP3    H128195   0.325   5.373   0.065  0.4855 -0.6773 -0.3424
 2212TIP3    H228196   0.240   5.385   0.190  0.7278 -1.2821 -0.1172
 2213TIP3   OH228197   1.357   0.840   7.624  0.2518  0.2841 -0.1220
 2213TIP3    H128198   1.432   0.786   7.597  1.8619  1.6486  1.4150
 2213TIP3    H228199   1.317   0.792   7.697  0.5419  0.2850  0.0366
 2214TIP3   OH228200   0.143   6.554   2.534  0.2291 -0.1615 -0.5086
 2214TIP3    H128201   0.171   6.643   2.555 -2.6890  1.0501 -1.3537
 2214TIP3    H228202   0.078   6.533   2.601 -0.1561 -1.0880 -1.1534
 2215TIP3   OH228203   5.805   5.558   0.946 -0.3098  0.3636 -0.2444
 2215TIP3    H128204   5.875   5.511   0.992 -1.1303  0.5606  1.2331
 2215TIP3    H228205   5.806   5.520   0.857 -0.4369 -1.9475  0.6685
 2216TIP3   OH228206   6.787   4.048   2.502 -0.4810 -0.0680  0.9282
 2216TIP3    H128207   6.773   3.956   2.523 -0.0698 -0.1335  0.9282
 2216TIP3    H228208   6.825   4.048   2.415  0.4001  0.0373  1.2977
 2217TIP3   OH228209   4.408   3.548   0.098 -0.3363  0.6089 -0.9895
 2217TIP3    H128210   4.503   3.559   0.106 -0.2498 -0.0392 -1.0698
 2217TIP3    H228211   4.394   3.454   0.105 -0.6972  0.3571 -3.8100
 2218TIP3   OH228212   6.090   1.711   6.565  0.2248  0.0594  0.2708
 2218TIP3    H128213   6.140   1.779   6.521  0.2278 -0.3135 -0.3135
 2218TIP3    H228214   6.134   1.630   6.541 -1.2533 -0.3883 -1.1242
 2219TIP3   OH228215   1.615   3.034   1.443 -0.2068 -0.2074 -0.2669
 2219TIP3    H128216   1.529   3.024   1.483 -0.0885 -0.4355 -0.0656
 2219TIP3    H228217   1.665   2.960   1.476  0.5297  0.7350  0.8070
 2220TIP3   OH228218   6.044   3.213   7.658 -0.5081  0.6877  0.0051
 2220TIP3    H128219   6.086   3.130   7.633 -2.3613 -0.0808 -0.7383
 2220TIP3    H228220   5.974   3.187   7.717 -0.8999  1.7707  0.0329
 2221TIP3   OH228221   1.596   5.148   1.717  0.0459 -0.0991 -0.4245
 2221TIP3    H128222   1.573   5.241   1.720 -1.1762 -0.4047  0.5783
 2221TIP3    H228223   1.683   5.143   1.755 -1.2222  0.2922  2.8584
 2222TIP3   OH228224   0.419   4.144   6.651 -0.5500 -0.1373 -0.5159
 2222TIP3    H128225   0.506   4.162   6.615 -0.0951 -2.0127 -0.4716
 2222TIP3    H228226   0.373   4.227   6.646  1.7332  1.3125  0.8492
 2223TIP3   OH228227   6.592   2.692   7.281 -0.1051  0.2519  0.2186
 2223TIP3    H128228   6.522   2.662   7.223  0.4800  0.3531 -0.5593
 2223TIP3    H228229   6.621   2.775   7.243 -0.3713  0.8218  1.2239
 2224TIP3   OH228230   1.654   5.018   2.030 -0.7717  0.4567 -0.4202
 2224TIP3    H128231   1.656   4.936   1.980 -1.3265  0.5750 -0.6388
 2224TIP3    H228232   1.591   5.002   2.100  1.1448 -0.2661  1.2416
 2225TIP3   OH228233   2.898   4.920   7.596 -0.2135  0.3818 -0.1329
 2225TIP3    H128234   2.880   4.969   7.676 -0.1540  1.3193 -0.6817
 2225TIP3    H228235   2.813   4.912   7.553 -0.4004 -0.8863  0.4316
 2226TIP3   OH228236   3.863   2.450   7.242 -0.0729  0.0086  0.0103
 2226TIP3    H128237   3.845   2.417   7.154 -0.2575 -0.0346  0.0634
 2226TIP3    H228238   3.884   2.543   7.229 -2.2978  0.5814  0.1356
 2227TIP3   OH228239   1.346   0.817   1.490  0.2666 -0.6139 -0.7062
 2227TIP3    H128240   1.434   0.814   1.530  1.1110  0.5607 -2.3548
 2227TIP3    H228241   1.305   0.893   1.531  0.8882  0.1969 -1.5494
 2228TIP3   OH228242   1.576   2.052   1.385  0.2156 -0.4902 -0.0165
 2228TIP3    H128243   1.509   1.984   1.379  1.2031 -1.4243 -0.8305
 2228TIP3    H228244   1.633   2.023   1.457 -0.2783  0.3526  0.7422
 2229TIP3   OH228245   0.516   3.596   6.772 -0.1386 -0.2258 -0.3988
 2229TIP3    H128246   0.456   3.628   6.839  0.2200 -0.2416 -0.0639
 2229TIP3    H228247   0.572   3.534   6.817  3.4817  3.3724  0.7101
 2230TIP3   OH228248   5.772   1.977   7.895  0.4733  0.2153  0.1226
 2230TIP3    H128249   5.731   2.056   7.930  1.8623  0.3913  1.4294
 2230TIP3    H228250   5.862   2.002   7.875  0.0929 -0.2229 -2.4935
 2231TIP3   OH228251   1.897   0.708   7.620  0.5424 -0.3451 -0.1037
 2231TIP3    H128252   1.961   0.731   7.687 -0.3713 -0.5500  0.8708
 2231TIP3    H228253   1.881   0.614   7.634 -1.6859  0.1577  1.2388
 2232TIP3   OH228254   2.848   1.072   7.393  0.3305  0.1928  0.2317
 2232TIP3    H128255   2.919   1.037   7.338 -0.5666 -0.9591 -0.2379
 2232TIP3    H228256   2.787   1.111   7.331  1.2155  2.5679  0.7344
 2233TIP3   OH228257   4.479   7.057   0.694  0.0968 -0.6134 -0.3731
 2233TIP3    H128258   4.451   6.966   0.682  0.1762 -0.7402  0.3556
 2233TIP3    H228259   4.537   7.075   0.620  1.0097 -1.5279  0.1023
 2234TIP3   OH228260   6.286   3.678   2.915 -0.4123  0.2579  0.4688
 2234TIP3    H128261   6.340   3.655   2.841 -1.0639 -0.8545  0.3211
 2234TIP3    H228262   6.343   3.731   2.971  0.5130 -0.0816 -0.1353
 2235TIP3   OH228263   0.967   0.675   1.010 -0.3361 -0.5604 -0.0974
 2235TIP3    H128264   0.920   0.734   0.951  1.1359  2.4209  1.4864
 2235TIP3    H228265   0.915   0.676   1.091  0.4785 -0.1771  0.4371
 2236TIP3   OH228266   2.146   0.383   1.894  0.4277 -0.0777  0.2478
 2236TIP3    H128267   2.055   0.359   1.877 -0.0420  0.1898  2.1651
 2236TIP3    H228268   2.140   0.468   1.938  1.7069  0.6216 -0.8546
 2237TIP3   OH228269   6.640   1.716   7.992  0.6838  0.0987 -0.2581
 2237TIP3    H128270   6.735   1.725   7.999  1.0303 -1.6916 -1.9443
 2237TIP3    H228271   6.611   1.793   7.944  1.2226  0.8140  0.5475
 2238TIP3   OH228272   5.190   1.888   7.200  0.2345 -0.0462 -0.2068
 2238TIP3    H128273   5.149   1.802   7.184 -0.6996  0.6697 -1.9705
 2238TIP3    H228274   5.274   1.882   7.155  1.2897 -0.8404  1.7618
 2239TIP3   OH228275   5.838   4.989   7.201 -0.4089  0.4089  0.5017
 2239TIP3    H128276   5.836   4.935   7.122  0.0070 -1.3556  1.6455
 2239TIP3    H228277   5.883   4.935   7.266  2.0325  2.9676  1.1460
 2240TIP3   OH228278   6.883   0.584   0.419 -0.3975 -0.3480 -0.2787
 2240TIP3    H128279   6.790   0.561   0.428 -0.2932 -0.6638  0.0381
 2240TIP3    H228280   6.925   0.546   0.496 -0.7224  3.9124  2.3287
 2241TIP3   OH228281   4.437   1.266   1.769  0.0514  0.5067  0.2425
 2241TIP3    H128282   4.439   1.348   1.819  1.1595  0.1317  0.8605
 2241TIP3    H228283   4.525   1.230   1.780 -0.2207 -0.4418 -0.5730
 2242TIP3   OH228284   0.782   5.636   0.256  0.6385 -0.2376  0.0357
 2242TIP3    H128285   0.791   5.625   0.162  1.2967  2.7948 -0.3766
 2242TIP3    H228286   0.689   5.625   0.273  0.4515 -0.4139 -1.0349
 2243TIP3   OH228287   5.008   4.906   1.372 -0.0552 -0.0159  0.0296
 2243TIP3    H128288   4.992   4.865   1.458 -1.8109 -0.3097 -0.4073
 2243TIP3    H228289   4.971   4.845   1.309  1.3703  0.1217 -0.9873
 2244TIP3   OH228290   2.305   4.991   0.463  0.1405 -0.1160 -0.3041
 2244TIP3    H128291   2.355   4.933   0.406 -0.9943  0.3256 -1.8350
 2244TIP3    H228292   2.216   4.956   0.460 -0.1448  0.5110  0.4202
 2245TIP3   OH228293   4.522   0.740   6.657  0.1944 -0.5420 -0.5797
 2245TIP3    H128294   4.539   0.716   6.749 -0.8171  0.3537 -0.1435
 2245TIP3    H228295   4.573   0.819   6.643  1.5932 -1.5261 -1.2903
 2246TIP3   OH228296   5.839   6.485   7.527  0.2397  0.0301  0.1189
 2246TIP3    H128297   5.867   6.500   7.617 -0.6278 -1.4489  0.6682
 2246TIP3    H228298   5.785   6.406   7.531 -0.8979  0.6617 -1.4849
 2247TIP3   OH228299   2.582   6.198   0.784 -0.1463  0.7130 -0.4654
 2247TIP3    H128300   2.558   6.108   0.805 -1.3125  1.5593  2.2895
 2247TIP3    H228301   2.513   6.227   0.724 -1.3646  0.5590  0.8084
 2248TIP3   OH228302   3.637   5.008   0.812  0.4188  0.2793  0.3089
 2248TIP3    H128303   3.717   5.014   0.864 -0.1725  1.8933  1.0969
 2248TIP3    H228304   3.665   4.972   0.728  2.0044  1.0272  0.4840
 2249TIP3   OH228305   6.657   2.184   0.280 -0.2181 -0.0629 -0.2328
 2249TIP3    H128306   6.570   2.209   0.251 -0.1413  2.5479  1.4980
 2249TIP3    H228307   6.715   2.217   0.211 -0.4797 -0.7927 -0.8240
 2250TIP3   OH228308   1.112   3.904   1.742 -0.2597  0.4011  0.1017
 2250TIP3    H128309   1.076   3.816   1.728 -2.2027  1.4097 -1.6950
 2250TIP3    H228310   1.140   3.904   1.834 -1.1253 -1.7635  0.4240
 2251TIP3   OH228311   6.736   0.372   1.755  0.7039 -0.0802  0.0551
 2251TIP3    H128312   6.831   0.356   1.753  0.6330 -0.4381 -0.5470
 2251TIP3    H228313   6.724   0.432   1.829  1.3188 -0.5398  0.5361
 2252TIP3   OH228314   5.891   6.913   7.411 -0.3117 -0.0157  0.0174
 2252TIP3    H128315   5.823   6.958   7.461  0.6010  0.2885  1.0420
 2252TIP3    H228316   5.884   6.948   7.322 -1.2832  0.2328  0.1836
 2253TIP3   OH228317   3.073   5.920   1.670 -0.2029 -0.5862  0.1154
 2253TIP3    H128318   3.102   5.886   1.586  3.0116 -2.2212  1.7279
 2253TIP3    H228319   3.086   6.015   1.663  0.0447 -0.7032 -1.2048
 2254TIP3   OH228320   3.152   2.006   7.370 -0.3049  0.4103  0.6705
 2254TIP3    H128321   3.104   2.080   7.408 -1.0470  0.7863 -0.9439
 2254TIP3    H228322   3.090   1.933   7.376  0.2531  0.0066  1.8215
 2255TIP3   OH228323   4.560   2.764   0.845 -0.1030  1.1025 -0.2451
 2255TIP3    H128324   4.622   2.727   0.782  1.2628  1.4402  0.8537
 2255TIP3    H228325   4.509   2.827   0.795  1.0758  1.4952 -0.9839
 2256TIP3   OH228326   5.576   3.798   6.934  0.0792 -0.5202 -0.1958
 2256TIP3    H128327   5.512   3.822   6.867  0.2770 -0.2382 -0.2897
 2256TIP3    H228328   5.530   3.739   6.993  0.2521 -1.8280 -1.3064
 2257TIP3   OH228329   4.235   4.905   1.180 -0.2804 -0.1562  0.6402
 2257TIP3    H128330   4.234   4.950   1.265  2.1130 -0.7095  1.0288
 2257TIP3    H228331   4.320   4.861   1.177 -1.3791 -2.3394 -0.9444
 2258TIP3   OH228332   4.580   6.297   7.269 -0.0718 -0.1099  0.8366
 2258TIP3    H128333   4.557   6.321   7.180 -3.5146  1.7774  2.0416
 2258TIP3    H228334   4.605   6.205   7.264 -0.6299 -0.1825 -1.9898
 2259TIP3   OH228335   6.231   5.184   6.266 -0.4824  0.2734 -0.2810
 2259TIP3    H128336   6.263   5.134   6.341  0.4847  0.6217 -0.4432
 2259TIP3    H228337   6.305   5.185   6.205 -1.8212 -1.5848 -2.0761
 2260TIP3   OH228338   4.299   4.612   7.178 -0.4875 -0.0704 -0.6409
 2260TIP3    H128339   4.225   4.551   7.177 -0.0877 -0.6199 -3.1319
 2260TIP3    H228340   4.287   4.665   7.099  1.6447 -0.0158 -0.9703
 2261TIP3   OH228341   5.867   7.028   0.209  0.4161  0.2158  0.1962
 2261TIP3    H128342   5.784   7.065   0.178  0.8473 -0.2477 -1.6351
 2261TIP3    H228343   5.842   6.964   0.275 -1.2322 -3.3451 -3.4585
 2262TIP3   OH228344   4.178   0.636   1.557 -0.5664 -0.0465  0.1826
 2262TIP3    H128345   4.271   0.651   1.542 -0.7233  0.5662 -0.1797
 2262TIP3    H228346   4.148   0.593   1.477 -0.6164 -0.1587  0.2617
 2263TIP3   OH228347   6.350   2.414   2.016  0.0626  0.2273  0.5449
 2263TIP3    H128348   6.429   2.388   1.968 -1.2668 -2.7964 -0.2911
 2263TIP3    H228349   6.377   2.415   2.108  1.4542  0.9511  0.1495
 2264TIP3   OH228350   4.913   2.683   0.948  0.5936  0.2410  0.8712
 2264TIP3    H128351   4.859   2.615   0.910 -1.3368  1.2386  1.7168
 2264TIP3    H228352   4.912   2.754   0.884  1.0441  0.2222  0.8351
 2265TIP3   OH228353   5.981   0.161   7.324 -0.0030  0.4214 -0.0254
 2265TIP3    H128354   6.035   0.161   7.403 -0.2444 -1.1280  0.1551
 2265TIP3    H228355   5.944   0.249   7.321  1.9247  1.3063  0.2510
 2266TIP3   OH228356   6.172   2.114   2.308 -0.2364  0.6714  0.5382
 2266TIP3    H128357   6.100   2.107   2.246  1.7384 -1.2403 -1.8012
 2266TIP3    H228358   6.173   2.205   2.336 -2.4897  1.1036 -0.6444
 2267TIP3   OH228359   4.513   6.199   0.858 -0.1721  0.2235  0.2601
 2267TIP3    H128360   4.495   6.273   0.800 -0.0338  0.8140  0.9569
 2267TIP3    H228361   4.475   6.123   0.814  1.9357  0.2268 -1.7614
 2268TIP3   OH228362   3.825   2.264   6.158 -0.1190  0.0368  0.1087
 2268TIP3    H128363   3.789   2.279   6.245 -1.4623 -0.0322 -0.4055
 2268TIP3    H228364   3.818   2.349   6.114 -0.2243 -0.1300 -0.2003
 2269TIP3   OH228365   0.265   6.836   1.421  0.8608  0.7001  0.3487
 2269TIP3    H128366   0.355   6.852   1.393  0.3726  2.5883 -0.2902
 2269TIP3    H228367   0.214   6.906   1.380 -1.0268 -0.7333  0.0936
 2270TIP3   OH228368   5.840   1.454   0.587 -0.5993  0.0923 -0.1513
 2270TIP3    H128369   5.818   1.434   0.496 -1.2312 -0.2053  0.0641
 2270TIP3    H228370   5.756   1.460   0.631 -0.3652  1.6570  0.1317
 2271TIP3   OH228371   1.640   6.231   1.258  0.3837 -0.0200  0.0032
 2271TIP3    H128372   1.678   6.145   1.271 -0.4893 -0.4538 -0.2620
 2271TIP3    H228373   1.635   6.241   1.163  2.4168  1.2068 -0.0377
 2272TIP3   OH228374   4.828   1.527   0.416  0.4932 -0.5217  0.2857
 2272TIP3    H128375   4.800   1.564   0.499  1.9561 -1.7045  1.3617
 2272TIP3    H228376   4.748   1.491   0.377 -1.1156  3.7180 -0.9732
 2273TIP3   OH228377   1.366   4.519   7.471  0.0291 -0.0105 -0.2407
 2273TIP3    H128378   1.371   4.492   7.379 -0.1066 -0.5585 -0.0920
 2273TIP3    H228379   1.441   4.476   7.512  0.1320  0.2944 -0.1067
 2274TIP3   OH228380   1.488   1.836   7.491  0.1887  0.1025 -0.2429
 2274TIP3    H128381   1.499   1.741   7.479  1.7138  0.1276  0.7168
 2274TIP3    H228382   1.514   1.873   7.407  0.0607 -0.2993 -0.4657
 2275TIP3   OH228383   1.180   2.679   1.036  0.2292 -0.1109 -0.2575
 2275TIP3    H128384   1.142   2.762   1.010 -1.9662 -0.5390  1.2723
 2275TIP3    H228385   1.173   2.623   0.958 -0.2229  0.4889 -0.6508
 2276TIP3   OH228386   4.599   0.895   7.627  0.0334 -0.2824  0.7068
 2276TIP3    H128387   4.687   0.931   7.624 -0.1346  0.2187  1.3952
 2276TIP3    H228388   4.573   0.902   7.719 -1.0276  0.3326  0.3824
 2277TIP3   OH228389   3.076   4.393   7.103  0.6692  0.5571  0.3104
 2277TIP3    H128390   3.161   4.358   7.077  0.5296  0.6419 -0.2779
 2277TIP3    H228391   3.016   4.318   7.100  0.0078  1.0975 -2.5822
 2278TIP3   OH228392   6.125   5.053   2.632  0.0601  0.0809  0.2755
 2278TIP3    H128393   6.133   4.992   2.558 -0.0440 -0.0813  0.3996
 2278TIP3    H228394   6.176   5.013   2.702  0.9552  0.6963 -0.0059
 2279TIP3   OH228395   5.210   2.599   0.760  0.0327 -0.0710  0.5975
 2279TIP3    H128396   5.140   2.655   0.726 -0.5100 -0.5990  0.8030
 2279TIP3    H228397   5.223   2.533   0.692 -0.5667 -0.7161  1.0889
 2280TIP3   OH228398   5.204   3.433   1.260  0.2333  0.2936 -0.5000
 2280TIP3    H128399   5.290   3.470   1.242  0.0329 -0.0386 -2.2806
 2280TIP3    H228400   5.162   3.498   1.318  2.0392 -0.0850  1.3632
 2281TIP3   OH228401   6.990   2.772   7.131  0.4867  0.4199  0.2588
 2281TIP3    H128402   6.952   2.692   7.095  0.9793  0.3898 -0.2087
 2281TIP3    H228403   6.926   2.802   7.195  0.8453 -1.0492  1.3872
 2282TIP3   OH228404   1.505   0.180   0.044  0.3791 -0.0366 -0.1386
 2282TIP3    H128405   1.593   0.156   0.071  1.9652  1.0507 -3.7962
 2282TIP3    H228406   1.506   0.276   0.039 -1.6041  0.1442  1.2470
 2283TIP3   OH228407   1.745   3.051   6.535 -0.0385  0.1154  1.0870
 2283TIP3    H128408   1.764   3.145   6.541  0.5305 -0.0354  1.7892
 2283TIP3    H228409   1.831   3.009   6.542 -0.1943 -0.4305 -0.0864
 2284TIP3   OH228410   3.306   4.520   6.494  0.6192 -0.7070 -0.4096
 2284TIP3    H128411   3.243   4.454   6.522  0.3917  0.0586  0.9371
 2284TIP3    H228412   3.292   4.595   6.552  2.7256 -0.4770 -0.1014
 2285TIP3   OH228413   0.200   1.540   7.765  0.2566 -0.1544  0.0914
 2285TIP3    H128414   0.125   1.547   7.705  0.8334  2.0613 -0.4375
 2285TIP3    H228415   0.161   1.545   7.852 -0.3037 -0.1396 -0.1549
 2286TIP3   OH228416   2.769   0.844   1.957 -0.0283 -0.1112 -0.1435
 2286TIP3    H128417   2.774   0.810   1.868 -1.5595 -0.9815  0.0756
 2286TIP3    H228418   2.743   0.935   1.946  0.5354  0.0071 -0.5943
 2287TIP3   OH228419   4.402   1.841   0.200 -0.0046  0.6605  0.0053
 2287TIP3    H128420   4.364   1.842   0.113 -2.3558  0.8550  0.9675
 2287TIP3    H228421   4.331   1.813   0.258  2.0156 -1.5672  1.6580
 2288TIP3   OH228422   6.898   6.092   7.401 -0.4078  0.0996 -0.0979
 2288TIP3    H128423   6.949   6.099   7.482 -2.3116 -1.1670  1.3155
 2288TIP3    H228424   6.854   6.176   7.392  2.0560  1.3446 -1.5365
 2289TIP3   OH228425   1.851   2.367   0.703 -0.0323  0.1679  0.2021
 2289TIP3    H128426   1.848   2.363   0.608  1.7518 -1.3584  0.1533
 2289TIP3    H228427   1.777   2.314   0.732  0.1420 -0.3914 -0.3498
 2290TIP3   OH228428   2.524   0.607   1.288 -0.2799 -0.2310 -0.2884
 2290TIP3    H128429   2.506   0.522   1.249 -1.3800  0.2767 -0.9216
 2290TIP3    H228430   2.597   0.591   1.348 -1.4704 -1.9426  0.7846
 2291TIP3   OH228431   2.576   6.701   1.777 -0.0523  0.6160  0.0158
 2291TIP3    H128432   2.498   6.735   1.821 -1.0495 -2.1197  0.5045
 2291TIP3    H228433   2.542   6.645   1.707  1.4569 -0.4048  0.0570
 2292TIP3   OH228434   0.175   5.308   3.149 -0.4394 -0.1863  0.0553
 2292TIP3    H128435   0.122   5.258   3.211 -1.5607 -1.2511 -1.6656
 2292TIP3    H228436   0.112   5.358   3.098  0.5204  1.3494  0.3115
 2293TIP3   OH228437   0.801   4.753   7.534  0.8141 -0.0042 -0.1881
 2293TIP3    H128438   0.786   4.801   7.452 -0.0639  0.4496  0.2116
 2293TIP3    H228439   0.718   4.708   7.550 -0.0462  2.1089  1.8326
 2294TIP3   OH228440   4.196   5.427   6.976 -0.4539  0.2994  0.7324
 2294TIP3    H128441   4.152   5.512   6.967 -0.4220  0.1152 -1.8751
 2294TIP3    H228442   4.134   5.364   6.941  0.5431 -0.3885  0.1635
 2295TIP3   OH228443   2.416   2.475   0.004 -0.2986 -0.0042  0.1569
 2295TIP3    H128444   2.452   2.395  -0.035 -1.1591 -0.2900 -0.0642
 2295TIP3    H228445   2.357   2.510  -0.062 -0.2115  0.6266  0.4022
 2296TIP3   OH228446   2.537   1.073   7.721 -0.0361 -0.0573  0.1753
 2296TIP3    H128447   2.464   1.029   7.764 -0.4510  0.5269  0.0917
 2296TIP3    H228448   2.595   1.003   7.693 -1.8837 -0.7922 -2.1954
 2297TIP3   OH228449   2.765   5.927   7.891 -0.2187  0.7231 -0.3701
 2297TIP3    H128450   2.852   5.901   7.862 -0.9079 -0.0717 -1.8690
 2297TIP3    H228451   2.719   5.844   7.906 -1.1367  1.1114 -0.9820
 2298TIP3   OH228452   6.839   6.010   0.973  0.8391  0.3950  0.4030
 2298TIP3    H128453   6.768   5.999   0.909  0.6312  1.4267  0.4465
 2298TIP3    H228454   6.798   6.054   1.047  1.8754  2.7385 -0.3065
 2299TIP3   OH228455   5.886   4.153   0.793  0.3361  0.3452  0.4196
 2299TIP3    H128456   5.845   4.234   0.824  0.8487  0.5320  0.6220
 2299TIP3    H228457   5.945   4.181   0.723 -1.1495 -0.1276 -1.0852
 2300TIP3   OH228458   2.006   5.203   1.005  0.2466 -0.1454  0.3753
 2300TIP3    H128459   2.018   5.290   0.966 -0.6535  0.2311  0.9013
 2300TIP3    H228460   2.091   5.183   1.045  0.4370  0.5309  0.3178
 2301TIP3   OH228461   2.124   0.031   7.355 -0.5814  0.4706 -0.1468
 2301TIP3    H128462   2.132   0.126   7.355 -0.0842  0.4287 -0.1449
 2301TIP3    H228463   2.203  -0.001   7.311 -0.6809  0.0533 -0.0325
 2302TIP3   OH228464   6.171   6.861   4.702 -0.3446 -0.0527 -0.0474
 2302TIP3    H128465   6.083   6.898   4.703 -0.8403 -1.1344  2.3455
 2302TIP3    H228466   6.158   6.767   4.713  1.0927 -0.3669 -0.8135
 2303TIP3   OH228467   0.519   4.216   7.071 -0.3024 -0.1034  0.0400
 2303TIP3    H128468   0.446   4.168   7.032 -0.5009 -0.1665  0.4889
 2303TIP3    H228469   0.574   4.241   6.996 -1.8003  1.6750 -0.5515
 2304TIP3   OH228470   4.337   5.888   0.467  0.3690 -0.0838 -0.2300
 2304TIP3    H128471   4.430   5.901   0.486  0.3992  0.0586 -0.4745
 2304TIP3    H228472   4.327   5.793   0.464  0.7610 -0.1031 -1.4124
 2305TIP3   OH228473   4.763   5.186   0.781  0.1840 -0.5465  0.7578
 2305TIP3    H128474   4.738   5.239   0.857 -0.8842  1.0462 -0.6432
 2305TIP3    H228475   4.680   5.159   0.743  0.7069 -1.0888 -0.0203
 2306TIP3   OH228476   0.519   3.941   2.118 -0.2530  0.0891 -0.6333
 2306TIP3    H128477   0.441   3.894   2.089 -0.2493  0.3060 -1.0079
 2306TIP3    H228478   0.511   3.946   2.213 -0.9260  0.5313 -0.7132
 2307TIP3   OH228479   1.572   2.795   0.786  0.4306 -0.3451 -0.3908
 2307TIP3    H128480   1.665   2.818   0.782  0.3234 -0.0480 -1.3355
 2307TIP3    H228481   1.570   2.700   0.777  0.6286 -0.3318 -0.5722
 2308TIP3   OH228482   0.560   1.525   1.294 -0.0065 -0.0354  0.1829
 2308TIP3    H128483   0.654   1.522   1.275 -0.0625  0.4540 -0.1841
 2308TIP3    H228484   0.540   1.439   1.331  0.1168 -1.0315 -1.9281
 2309TIP3   OH228485   5.554   6.667   1.610  0.1825 -0.1857 -0.0700
 2309TIP3    H128486   5.646   6.660   1.638  0.2514 -0.3013 -0.3227
 2309TIP3    H228487   5.525   6.577   1.599  0.8235 -0.1633 -2.5085
 2310TIP3   OH228488   0.372   6.008   2.704  0.2507  0.0468 -0.2400
 2310TIP3    H128489   0.450   6.049   2.740 -0.9507 -0.1772  2.9595
 2310TIP3    H228490   0.398   5.917   2.688  1.1664  0.4623 -1.2310
 2311TIP3   OH228491   1.060   6.574   7.913  0.3127 -0.3362 -0.1064
 2311TIP3    H128492   1.042   6.482   7.895  0.7453 -0.0924 -1.9854
 2311TIP3    H228493   0.978   6.619   7.891  0.1530 -0.2351  0.6549
 2312TIP3   OH228494   6.506   1.328   0.787  0.4956 -0.0944  0.1051
 2312TIP3    H128495   6.553   1.300   0.866  1.6948 -1.1385 -0.9265
 2312TIP3    H228496   6.428   1.273   0.785  0.0399  0.5082  0.9782
 2313TIP3   OH228497   3.717   5.797   1.516  0.2269 -0.0237  0.1966
 2313TIP3    H128498   3.687   5.857   1.584 -2.4551 -0.0329 -0.8326
 2313TIP3    H228499   3.750   5.721   1.563  2.5365  1.6812  1.5050
 2314TIP3   OH228500   4.177   2.513   7.905  0.3682 -0.1972  0.5081
 2314TIP3    H128501   4.107   2.532   7.968 -0.4267  2.4638 -0.9889
 2314TIP3    H228502   4.237   2.455   7.952 -1.5184 -0.4891  2.7453
 2315TIP3   OH228503   3.519   6.773   7.194  0.2816 -0.2428  0.0466
 2315TIP3    H128504   3.514   6.827   7.273  0.6783 -0.6495  0.3520
 2315TIP3    H228505   3.447   6.804   7.140  0.8048  0.9479 -0.0057
 2316TIP3   OH228506   7.095   5.251   2.592 -0.2572 -0.2091  0.5311
 2316TIP3    H128507   7.163   5.236   2.657  0.2941 -0.6661 -0.1371
 2316TIP3    H228508   7.132   5.316   2.532  0.0325 -1.2349 -0.4405
 2317TIP3   OH228509   5.230   3.989   2.294 -0.1361  0.0183 -0.3431
 2317TIP3    H128510   5.272   4.038   2.365 -0.1302 -1.0217  0.3919
 2317TIP3    H228511   5.161   4.047   2.263 -0.1514  0.4836  0.5288
 2318TIP3   OH228512   2.915   4.868   2.410  0.3715  0.6922 -0.2395
 2318TIP3    H128513   2.986   4.920   2.372  1.7141  0.3332  1.6151
 2318TIP3    H228514   2.845   4.931   2.427  1.4807  1.6783  0.7967
 2319TIP3   OH228515   3.972   7.061   6.364  0.2669  0.5805 -0.5233
 2319TIP3    H128516   3.995   7.154   6.365  2.5173  0.0729  0.3239
 2319TIP3    H228517   4.028   7.023   6.296  0.1794 -0.3190 -0.1103
 2320TIP3   OH228518   1.053   0.455   6.561  0.0341  0.7020  0.5813
 2320TIP3    H128519   1.055   0.550   6.569 -1.3339  0.6433  1.9995
 2320TIP3    H228520   0.983   0.438   6.497 -0.0760  0.6431  0.7157
 2321TIP3   OH228521   2.694   0.045   0.360  0.1983 -0.3139 -0.1900
 2321TIP3    H128522   2.786   0.064   0.345 -0.1833  1.2481 -0.7479
 2321TIP3    H228523   2.682   0.056   0.454 -0.1508  3.4062 -0.5051
 2322TIP3   OH228524   6.113   6.912   7.563  0.3464 -0.4621 -0.5587
 2322TIP3    H128525   6.042   6.914   7.500 -0.6399  0.2208  0.5475
 2322TIP3    H228526   6.177   6.975   7.530  0.6661 -1.3672 -1.7659
 2323TIP3   OH228527   0.090   2.074   1.150  0.5602 -0.1682 -0.0596
 2323TIP3    H128528   0.155   2.091   1.082 -0.1905  0.5595 -0.6281
 2323TIP3    H228529   0.053   1.989   1.128 -0.7531  0.7078 -1.5206
 2324TIP3   OH228530   3.681   6.070   0.247 -0.7627 -0.0391  0.1213
 2324TIP3    H128531   3.716   6.045   0.162 -3.2483 -0.6117 -0.8101
 2324TIP3    H228532   3.630   5.994   0.276 -1.4797  0.8336  1.2556
 2325TIP3   OH228533   3.889   6.656   6.997 -1.1811 -0.0841  0.1921
 2325TIP3    H128534   3.902   6.601   7.075 -0.4786 -1.3518 -0.7711
 2325TIP3    H228535   3.822   6.610   6.946 -2.3488  1.2500  0.4799
 2326TIP3   OH228536   5.307   2.849   0.949  0.2332 -0.6525 -0.1391
 2326TIP3    H128537   5.323   2.873   0.857 -0.8529 -1.1461 -0.4797
 2326TIP3    H228538   5.246   2.915   0.980  0.6024 -0.4866  0.2400
 2327TIP3   OH228539   2.459   2.069   7.741  0.0370 -0.5320 -0.1580
 2327TIP3    H128540   2.539   2.031   7.778  0.1698 -0.1149 -0.0077
 2327TIP3    H228541   2.482   2.091   7.651  0.5676  0.9561  0.3104
 2328TIP3   OH228542   2.094   4.658   7.844 -0.2231 -0.1628  0.8063
 2328TIP3    H128543   2.141   4.666   7.927  1.2561  1.9807 -0.1662
 2328TIP3    H228544   2.002   4.655   7.869  0.2470 -1.1913  2.5919
 2329TIP3   OH228545   3.171   3.638   6.230 -0.5817 -0.2775 -0.1154
 2329TIP3    H128546   3.258   3.619   6.265 -1.3339 -1.6192  1.1416
 2329TIP3    H228547   3.185   3.713   6.172  1.2503  0.0910  0.7077
 2330TIP3   OH228548   6.551   2.222   1.918  0.3677  0.2650  0.2241
 2330TIP3    H128549   6.594   2.156   1.863  2.1053  0.2346  1.5421
 2330TIP3    H228550   6.495   2.171   1.977  2.5001 -0.2580  1.9583
 2331TIP3   OH228551   0.827   6.592   1.326  0.0122 -0.0535 -0.1740
 2331TIP3    H128552   0.847   6.511   1.373 -2.9276 -0.5865  0.3553
 2331TIP3    H228553   0.853   6.574   1.236  3.5489  0.1345  0.6714
 2332TIP3   OH228554   2.142   5.753   1.693 -0.3774  0.2340 -0.3236
 2332TIP3    H128555   2.143   5.750   1.597 -2.0694 -0.1732 -0.3617
 2332TIP3    H228556   2.121   5.664   1.720 -2.3583  0.8384  0.3087
 2333TIP3   OH228557   0.941   4.866   1.826 -0.2918  0.0435  0.3740
 2333TIP3    H128558   1.030   4.848   1.796 -0.0695  0.6869  0.6365
 2333TIP3    H228559   0.918   4.789   1.878  0.2814  0.0821  0.6913
 2334TIP3   OH228560   0.142   0.402   1.585  0.3751  0.2289  0.5783
 2334TIP3    H128561   0.182   0.317   1.564  1.3751  0.6839  0.5941
 2334TIP3    H228562   0.059   0.401   1.538  1.5252  0.2790 -1.6162
 2335TIP3   OH228563   2.025   6.701   0.189  0.2334 -0.0260 -0.1889
 2335TIP3    H128564   2.057   6.773   0.243 -1.1651  1.3394 -1.0629
 2335TIP3    H228565   1.936   6.685   0.221  0.4484 -1.2139 -0.1690
 2336TIP3   OH228566   5.039   3.559   0.411  0.3391 -0.2305 -0.4595
 2336TIP3    H128567   5.017   3.641   0.455  1.4639 -0.3519  0.3892
 2336TIP3    H228568   5.085   3.585   0.331  0.7805 -0.0153 -0.1430
 2337TIP3   OH228569   6.373   4.059   1.582  0.3811 -0.3065  0.0869
 2337TIP3    H128570   6.466   4.052   1.602  0.4222  0.5468  0.1980
 2337TIP3    H228571   6.359   4.151   1.562  0.1141 -0.8478 -2.6394
 2338TIP3   OH228572   1.522   4.938   1.572 -0.3286 -0.3390 -0.1429
 2338TIP3    H128573   1.539   5.022   1.614  0.1937 -1.1758  1.4088
 2338TIP3    H228574   1.428   4.924   1.584 -0.1496 -0.6765  1.0301
 2339TIP3   OH228575   4.472   6.298   2.538 -0.2147  0.0038 -0.5720
 2339TIP3    H128576   4.549   6.243   2.551 -1.1215 -1.1414  0.2284
 2339TIP3    H228577   4.398   6.240   2.557 -1.3204  0.8396 -2.1064
 2340TIP3   OH228578   5.157   3.656   1.402  0.2420  0.1910  0.2244
 2340TIP3    H128579   5.124   3.739   1.435 -0.8014 -0.2920  0.4495
 2340TIP3    H228580   5.206   3.618   1.475  1.4430  0.9768 -0.1555
 2341TIP3   OH228581   3.415   0.582   2.449  0.2403 -0.2355 -0.0439
 2341TIP3    H128582   3.486   0.543   2.397  0.7430  1.7534 -0.9642
 2341TIP3    H228583   3.367   0.636   2.386 -1.3406 -0.5563  0.8475
 2342TIP3   OH228584   1.716   1.906   1.093  0.1603  0.2013  0.1316
 2342TIP3    H128585   1.769   1.875   1.020 -1.8544  0.8308 -1.7244
 2342TIP3    H228586   1.662   1.831   1.117 -0.3084  0.4522 -0.1269
 2343TIP3   OH228587   1.771   6.219   0.278 -0.0435 -0.5533  0.5069
 2343TIP3    H128588   1.700   6.172   0.321 -0.2129 -1.0711 -0.3199
 2343TIP3    H228589   1.729   6.265   0.205  0.5939 -1.6606 -0.6021
 2344TIP3   OH228590   6.870   0.958   1.850  0.9642 -0.1577 -0.2319
 2344TIP3    H128591   6.812   0.927   1.781  1.2791  1.0013 -1.0352
 2344TIP3    H228592   6.954   0.970   1.808  1.3681 -0.1988  0.5416
 2345TIP3   OH228593   1.966   1.981   8.000 -0.5095 -0.0688  0.2072
 2345TIP3    H128594   2.006   1.912   7.948 -0.0581 -0.3171  0.8690
 2345TIP3    H228595   1.907   2.026   7.939 -0.1760 -0.5004 -0.4476
 2346TIP3   OH228596   5.447   5.809   7.629  0.0006 -0.0313  0.1260
 2346TIP3    H128597   5.469   5.767   7.713 -0.7202 -2.6706 -0.9110
 2346TIP3    H228598   5.359   5.844   7.643  0.0785 -0.0117  0.6160
 2347TIP3   OH228599   1.041   0.967   7.926 -0.5769  0.4153 -0.0925
 2347TIP3    H128600   1.083   0.894   7.881  2.7796 -0.9035  4.3707
 2347TIP3    H228601   0.950   0.939   7.938 -0.0038 -1.9352 -0.6777
 2348TIP3   OH228602   0.490   5.032   1.284  0.5128 -0.5756 -0.0769
 2348TIP3    H128603   0.541   5.093   1.338 -1.9500 -1.3080  3.3873
 2348TIP3    H228604   0.426   5.088   1.240  1.9095 -0.0853 -1.5699
 2349TIP3   OH228605   6.552   0.224   6.271  0.3772 -0.3517 -0.6107
 2349TIP3    H128606   6.457   0.222   6.284  0.2335  0.0153 -1.5008
 2349TIP3    H228607   6.563   0.249   6.179  1.3526  0.6534 -0.2411
 2350TIP3   OH228608   3.996   5.833   1.144 -0.3209  0.5023 -0.2111
 2350TIP3    H128609   4.030   5.901   1.203 -1.7847 -0.9198  2.5206
 2350TIP3    H228610   3.902   5.829   1.165 -1.0774  0.3547 -3.2430
 2351TIP3   OH228611   4.769   3.417   1.186  0.1127  0.3760 -0.1660
 2351TIP3    H128612   4.719   3.346   1.224  1.0864 -1.5474 -2.2003
 2351TIP3    H228613   4.704   3.483   1.161 -1.1550 -1.0076 -0.6357
 2352TIP3   OH228614   4.636   3.657   1.899 -0.1560 -0.3390 -0.0291
 2352TIP3    H128615   4.549   3.627   1.872 -0.3063  0.1480 -0.0936
 2352TIP3    H228616   4.628   3.752   1.907  0.8976 -0.0056 -2.1131
 2353TIP3   OH228617   6.933   5.306   1.483 -0.2438 -0.3669 -0.5862
 2353TIP3    H128618   6.995   5.330   1.552 -0.7543 -2.4067  0.6774
 2353TIP3    H228619   6.856   5.361   1.499 -0.6549 -1.3267  1.0262
 2354TIP3   OH228620   0.731   4.671   1.051  0.3091  0.2109  0.4737
 2354TIP3    H128621   0.792   4.689   0.979 -0.3003 -0.0330 -0.1071
 2354TIP3    H228622   0.712   4.757   1.088  1.2628  0.2629  0.8839
 2355TIP3   OH228623   1.645   5.295   0.147 -0.4908 -0.4734  0.2188
 2355TIP3    H128624   1.602   5.369   0.103 -1.5308 -2.4361 -2.3078
 2355TIP3    H228625   1.575   5.251   0.195 -0.1954 -0.6636  0.4768
 2356TIP3   OH228626   3.404   2.254   0.806  0.0560 -0.1917  0.0806
 2356TIP3    H128627   3.444   2.304   0.877 -0.3022  0.8391 -0.4228
 2356TIP3    H228628   3.397   2.317   0.734 -1.1841 -0.7363 -0.2962
 2357TIP3   OH228629   4.185   2.512   0.262 -0.1932  0.2820 -0.3429
 2357TIP3    H128630   4.161   2.473   0.345 -0.1130  1.6697  0.3608
 2357TIP3    H228631   4.177   2.441   0.198 -1.9080 -0.3822  0.5576
 2358TIP3   OH228632   6.745   0.445   7.644  0.3103 -0.1890  0.7017
 2358TIP3    H128633   6.835   0.418   7.628  0.2601  0.9363 -2.0001
 2358TIP3    H228634   6.694   0.396   7.579 -0.6338  1.3085  0.2738
 2359TIP3   OH228635   6.060   2.081   7.263  0.0862 -0.6077 -0.6655
 2359TIP3    H128636   6.133   2.082   7.325  0.0809  1.1989 -0.6325
 2359TIP3    H228637   6.101   2.086   7.177  0.1275 -3.8846 -0.9502
 2360TIP3   OH228638   0.302   1.914   6.741  0.2336 -0.5583 -0.1545
 2360TIP3    H128639   0.314   1.919   6.836 -0.3486 -0.4691 -0.0791
 2360TIP3    H228640   0.236   1.981   6.722 -0.7408 -1.5704 -0.4184
 2361TIP3   OH228641   7.134   1.909   7.924  0.1834  0.2519 -0.2896
 2361TIP3    H128642   7.153   1.992   7.967  0.2905 -0.0464  0.2479
 2361TIP3    H228643   7.041   1.893   7.942 -0.1208  0.7822 -1.3151
 2362TIP3   OH228644   1.397   1.309   0.342 -0.2399 -0.4274 -0.6005
 2362TIP3    H128645   1.375   1.266   0.425  1.9971 -0.5015  0.0045
 2362TIP3    H228646   1.367   1.399   0.354  0.1147 -0.4151  0.3443
 2363TIP3   OH228647   4.666   4.550   0.983 -0.3678  0.2584 -0.0433
 2363TIP3    H128648   4.584   4.578   0.941 -0.3094 -0.5011 -0.6822
 2363TIP3    H228649   4.729   4.617   0.959 -0.5928  0.3905 -0.2792
 2364TIP3   OH228650   4.928   0.810   1.337  0.5886  0.0224 -0.1695
 2364TIP3    H128651   4.853   0.810   1.398  0.8338  1.8131  0.1819
 2364TIP3    H228652   4.944   0.717   1.320  0.6119 -0.5874  2.6397
 2365TIP3   OH228653   4.595   5.828   0.072  0.0478  0.3793 -0.0997
 2365TIP3    H128654   4.671   5.770   0.069 -0.6440 -0.6681  1.4218
 2365TIP3    H228655   4.608   5.882   0.150 -0.5560  0.4730 -0.0542
 2366TIP3   OH228656   0.637   5.257   1.365 -0.4755  0.1326  0.3787
 2366TIP3    H128657   0.703   5.326   1.361  0.0726 -0.4571 -1.7425
 2366TIP3    H228658   0.578   5.276   1.293 -0.4056 -1.4945 -0.1510
 2367TIP3   OH228659   6.258   2.458   1.723 -0.0187  0.9332  0.0288
 2367TIP3    H128660   6.162   2.461   1.719 -0.1874 -0.6947  1.5959
 2367TIP3    H228661   6.282   2.528   1.784 -0.4189 -0.1372  1.4588
 2368TIP3   OH228662   4.951   6.858   1.751 -0.3531 -0.3283 -0.0313
 2368TIP3    H128663   4.927   6.769   1.725  1.1524 -0.9766  0.6902
 2368TIP3    H228664   4.922   6.865   1.842 -0.8070  0.0712 -0.2002
 2369TIP3   OH228665   6.652   4.442   2.257  0.1861  0.0336  0.5630
 2369TIP3    H128666   6.680   4.509   2.196 -0.6738  0.1772  0.3124
 2369TIP3    H228667   6.732   4.395   2.281  0.7251  0.8644  0.4059
 2370TIP3   OH228668   6.057   5.337   1.521  0.2519  0.0480  0.1453
 2370TIP3    H128669   6.084   5.367   1.608  1.0476 -3.0867  1.1303
 2370TIP3    H228670   6.122   5.374   1.461  1.8017 -0.5218  1.4057
 2371TIP3   OH228671   4.484   5.386   2.070  0.3929 -0.3438  0.0937
 2371TIP3    H128672   4.565   5.360   2.026  0.4371 -1.2379  0.6769
 2371TIP3    H228673   4.511   5.456   2.130  1.0121 -1.5845  1.2988
 2372TIP3   OH228674   3.669   2.497   0.313  0.3886  0.1218  0.6342
 2372TIP3    H128675   3.755   2.535   0.329  0.8199  0.3970 -1.9474
 2372TIP3    H228676   3.610   2.572   0.309  0.6770  0.2835 -1.1654
 2373TIP3   OH228677   7.133   2.476   7.906 -0.0747  0.1227 -0.1491
 2373TIP3    H128678   7.042   2.481   7.878 -0.4107  0.9784  0.9965
 2373TIP3    H228679   7.167   2.396   7.866 -1.4088 -0.3445 -0.3804
 2374TIP3   OH228680   3.229   1.886   1.803 -0.5178 -0.4592 -0.2371
 2374TIP3    H128681   3.282   1.806   1.808  0.0372 -0.2198 -1.7637
 2374TIP3    H228682   3.268   1.945   1.866 -0.3871 -1.0864  0.2767
 2375TIP3   OH228683   4.000   6.308   1.749 -0.8404  0.6315 -0.4337
 2375TIP3    H128684   4.093   6.328   1.743 -0.8784  0.6529 -0.9322
 2375TIP3    H228685   3.978   6.268   1.665 -1.4542  1.3539 -0.6294
 2376TIP3   OH228686   0.957   5.566   0.447  0.2919  0.1321  0.0086
 2376TIP3    H128687   0.956   5.588   0.540  1.9501 -2.1215  0.6588
 2376TIP3    H228688   0.909   5.637   0.405 -1.8806  0.4459  2.7136
 2377TIP3   OH228689   6.278   2.041   7.475 -0.0089  0.5142 -0.1163
 2377TIP3    H128690   6.317   2.064   7.559 -0.4208  0.2235  0.1566
 2377TIP3    H228691   6.293   1.947   7.466  0.7388  0.6837 -0.7410
 2378TIP3   OH228692   6.788   1.079   6.826 -0.3734  0.1047 -0.0205
 2378TIP3    H128693   6.813   1.122   6.907  0.5117  1.0072 -0.7519
 2378TIP3    H228694   6.721   1.015   6.852  0.6960 -0.4219  1.5801
 2379TIP3   OH228695   0.520   5.833   2.104 -0.3156 -0.8957  0.2037
 2379TIP3    H128696   0.472   5.900   2.153  0.2673  0.2085 -0.6824
 2379TIP3    H228697   0.516   5.864   2.013 -0.0882 -2.1147 -0.2346
 2380TIP3   OH228698   5.064   4.254   0.354  0.3320 -0.3427  0.9214
 2380TIP3    H128699   4.978   4.232   0.389 -0.0848 -1.5241 -0.6886
 2380TIP3    H228700   5.113   4.171   0.357  0.5179 -0.3127 -0.4922
 2381TIP3   OH228701   0.071   3.310   6.524 -0.4820  0.6276 -0.1782
 2381TIP3    H128702   0.127   3.239   6.554 -1.5809  0.3107  1.2458
 2381TIP3    H228703  -0.018   3.278   6.536 -1.0058  1.3053 -1.9232
 2382TIP3   OH228704   4.773   3.211   1.524  0.1065 -0.2291 -0.0574
 2382TIP3    H128705   4.859   3.211   1.481 -0.0090 -0.7072 -0.2859
 2382TIP3    H228706   4.791   3.180   1.613  0.3606  0.8552  0.2856
 2383TIP3   OH228707   5.767   4.520   0.372 -0.5418  0.2436 -0.1954
 2383TIP3    H128708   5.848   4.496   0.327  0.5298  0.5537  1.4816
 2383TIP3    H228709   5.734   4.437   0.407 -0.1073  0.3460  0.4526
 2384TIP3   OH228710   1.857   5.718   7.860 -0.2277 -0.6570  0.1945
 2384TIP3    H128711   1.890   5.788   7.803 -0.4571 -0.7486 -0.0565
 2384TIP3    H228712   1.822   5.764   7.936 -1.8266 -0.3475 -0.6635
 2385TIP3   OH228713   4.137   5.221   0.007 -0.3928  0.2666 -0.3614
 2385TIP3    H128714   4.164   5.280  -0.063 -0.4719  1.6976  0.7752
 2385TIP3    H228715   4.200   5.149   0.003  1.3819  1.7322 -0.1116
 2386TIP3   OH228716   1.822   4.044   7.568  0.0609  0.3294 -0.0678
 2386TIP3    H128717   1.876   4.007   7.498 -0.1558  0.7872 -0.4794
 2386TIP3    H228718   1.785   3.967   7.612  2.3035 -0.0934  1.2609
 2387TIP3   OH228719   3.621   0.683   1.382 -0.2449 -0.0357 -0.0561
 2387TIP3    H128720   3.581   0.687   1.469 -0.5359  0.1755 -0.1988
 2387TIP3    H228721   3.714   0.701   1.398 -0.0894 -1.0708  0.3468
 2388TIP3   OH228722   6.701   6.015   2.271 -0.2296 -0.0051  0.1301
 2388TIP3    H128723   6.699   6.097   2.222 -0.0843  0.6544  1.1860
 2388TIP3    H228724   6.753   6.035   2.349 -0.8404 -0.8782  0.7884
 2389TIP3   OH228725   4.352   5.177   2.802  0.2031  0.3222  0.1255
 2389TIP3    H128726   4.313   5.250   2.754 -0.2470 -0.3552 -0.5565
 2389TIP3    H228727   4.440   5.206   2.823  0.4891  0.5528 -1.3084
 2390TIP3   OH228728   0.333   1.568   1.837 -0.1414  0.1237 -0.3796
 2390TIP3    H128729   0.282   1.512   1.779  0.2583 -0.0052 -0.6093
 2390TIP3    H228730   0.425   1.552   1.812  0.1562 -1.0875  1.2958
 2391TIP3   OH228731   5.786   0.485   6.149 -0.0858 -0.0443  0.1358
 2391TIP3    H128732   5.723   0.452   6.213 -2.2773 -0.7698 -2.2364
 2391TIP3    H228733   5.765   0.578   6.140  0.8575  0.2883  1.0689
 2392TIP3   OH228734   1.945   2.914   1.015 -0.0241  0.2526  0.1000
 2392TIP3    H128735   1.905   2.829   0.997  1.2669 -0.0975 -1.3921
 2392TIP3    H228736   1.916   2.937   1.103 -1.0313 -1.3670  0.2156
 2393TIP3   OH228737   3.761   3.495   7.852  0.7416 -0.0906 -0.4252
 2393TIP3    H128738   3.674   3.467   7.881  1.6951 -2.2772  0.6189
 2393TIP3    H228739   3.821   3.457   7.917  2.6321 -0.6813 -2.3774
 2394TIP3   OH228740   6.912   1.646   0.999 -0.2913  0.3575  0.2285
 2394TIP3    H128741   6.842   1.696   0.957 -3.1743 -0.2798  3.7945
 2394TIP3    H228742   6.923   1.569   0.944 -0.3822  1.7832 -1.8790
 2395TIP3   OH228743   6.484   3.553   7.612  0.2829 -0.5958  0.7987
 2395TIP3    H128744   6.538   3.595   7.678 -2.7363 -0.3577  3.3239
 2395TIP3    H228745   6.400   3.538   7.655 -1.2992 -2.1215 -2.4578
 2396TIP3   OH228746   3.179   6.779   1.019  0.0468  0.3536  0.0712
 2396TIP3    H128747   3.221   6.844   1.076  0.1691  1.2103 -0.9545
 2396TIP3    H228748   3.086   6.803   1.020  0.0140  0.2259  0.0933
 2397TIP3   OH228749   2.942   4.360   0.162 -0.2708  1.0962  0.3588
 2397TIP3    H128750   2.852   4.391   0.175  0.1752  2.5783  0.1625
 2397TIP3    H228751   2.943   4.322   0.074 -1.0712 -0.4241  0.9763
 2398TIP3   OH228752   5.526   6.685   2.980 -0.0706 -0.1296 -0.2243
 2398TIP3    H128753   5.495   6.714   3.066  0.3058  2.3802 -0.8587
 2398TIP3    H228754   5.452   6.702   2.921 -0.4006 -2.0242 -0.4043
 2399TIP3   OH228755   1.818   5.924   6.490 -0.3433  0.2576  0.3799
 2399TIP3    H128756   1.741   5.979   6.479  0.0128  0.4123 -1.9291
 2399TIP3    H228757   1.783   5.838   6.512 -0.9802  0.9853  2.4295
 2400TIP3   OH228758   5.866   2.160   0.141 -0.0907  0.2962  0.2132
 2400TIP3    H128759   5.877   2.255   0.137 -0.6189  0.3481 -0.2388
 2400TIP3    H228760   5.773   2.148   0.163 -0.3056 -0.1091 -0.8584
 2401TIP3   OH228761   6.930   3.977   1.597 -0.1269 -0.0248  0.4570
 2401TIP3    H128762   6.956   4.069   1.599  0.9444 -0.3242  0.9034
 2401TIP3    H228763   6.942   3.946   1.686  1.5318 -1.1217 -0.1111
 2402TIP3   OH228764   5.805   2.342   6.579 -0.5078 -0.2273  0.1713
 2402TIP3    H128765   5.792   2.362   6.487  2.0981 -0.6169 -0.3483
 2402TIP3    H228766   5.811   2.427   6.622  2.1816  0.0992 -0.7014
 2403TIP3   OH228767   5.266   5.615   1.914  0.3382 -0.5739 -0.3262
 2403TIP3    H128768   5.173   5.614   1.939  0.2394  0.6053 -0.6155
 2403TIP3    H228769   5.265   5.631   1.820  0.8054 -2.2273 -0.6511
 2404TIP3   OH228770   5.675   3.341   1.650  0.1046 -0.2073 -0.3074
 2404TIP3    H128771   5.746   3.301   1.701 -0.1592  1.1418  1.2022
 2404TIP3    H228772   5.595   3.304   1.687 -0.0669  0.3798 -0.0692
 2405TIP3   OH228773   3.979   3.726   7.371  0.2522 -0.6392 -0.3613
 2405TIP3    H128774   4.034   3.741   7.447  1.8053  1.3220 -1.7720
 2405TIP3    H228775   3.997   3.636   7.345 -0.1170 -1.2521  1.4033
 2406TIP3   OH228776   6.973   6.842   2.485 -0.2623  0.3840 -0.2605
 2406TIP3    H128777   6.951   6.882   2.400 -1.1263  0.3567 -0.0652
 2406TIP3    H228778   7.018   6.911   2.533 -2.6971  1.5645  0.4814
 2407TIP3   OH228779   6.574   1.409   1.367 -0.2243  0.5003  0.1236
 2407TIP3    H128780   6.486   1.434   1.339 -0.2665 -0.8353 -1.0272
 2407TIP3    H228781   6.576   1.430   1.460 -1.9722  0.0114  0.3010
 2408TIP3   OH228782   3.883   0.940   7.194 -0.5942  0.3020 -0.1064
 2408TIP3    H128783   3.797   0.914   7.226 -1.3933 -0.1199 -2.4146
 2408TIP3    H228784   3.918   0.998   7.262 -2.4019 -0.0501  1.1766
 2409TIP3   OH228785   1.657   6.976   7.023 -0.8848  0.4016 -0.7030
 2409TIP3    H128786   1.695   7.056   7.061  0.7405 -0.6578  0.0039
 2409TIP3    H228787   1.650   6.995   6.929  1.7054  0.5822 -0.9255
 2410TIP3   OH228788   6.535   6.559   6.933  0.5930  0.1175  0.1911
 2410TIP3    H128789   6.498   6.528   6.850  0.3394 -1.3083  0.8087
 2410TIP3    H228790   6.630   6.558   6.918  0.5240  0.6937 -0.3476
 2411TIP3   OH228791   6.480   5.193   6.590 -0.1998  0.1134  0.1185
 2411TIP3    H128792   6.411   5.162   6.531 -0.1068  0.2977 -0.0902
 2411TIP3    H228793   6.498   5.119   6.647 -1.6257  0.5283  1.1709
 2412TIP3   OH228794   4.887   5.661   7.035  0.8535  0.2283 -0.1598
 2412TIP3    H128795   4.977   5.629   7.043  1.0285  1.1896  2.8159
 2412TIP3    H228796   4.881   5.692   6.944  3.2098 -0.6514 -0.7015
 2413TIP3   OH228797   4.518   1.594   7.303 -0.1290 -0.4677  0.6208
 2413TIP3    H128798   4.483   1.510   7.332  1.4595 -1.6478 -0.7018
 2413TIP3    H228799   4.557   1.575   7.218 -0.9558  1.9339 -0.3690
 2414TIP3   OH228800   3.120   3.870   1.150 -0.2410 -0.0491 -0.5262
 2414TIP3    H128801   3.084   3.871   1.239 -0.0587 -1.3487 -0.4187
 2414TIP3    H228802   3.068   3.934   1.102 -0.9488  0.0047  0.2943
 2415TIP3   OH228803   2.674   1.940   0.847  0.5841  0.8039 -0.4365
 2415TIP3    H128804   2.583   1.908   0.843  0.8514 -0.0814  0.1734
 2415TIP3    H228805   2.666   2.029   0.880 -0.0406  0.5790  0.0489
 2416TIP3   OH228806   5.113   4.602   0.237 -0.0001 -0.4062 -0.5195
 2416TIP3    H128807   5.107   4.561   0.323 -2.1817  0.2080 -0.3183
 2416TIP3    H228808   5.098   4.531   0.175  2.0076 -0.9368 -0.4774
 2417TIP3   OH228809   3.326   0.591   0.602 -0.2279 -0.0960 -0.0167
 2417TIP3    H128810   3.323   0.686   0.614  0.3177 -0.1025  0.1998
 2417TIP3    H228811   3.341   0.556   0.690  2.7103 -0.2036 -0.4458
 2418TIP3   OH228812   2.362   4.229   1.211  0.8593 -0.0935 -0.4878
 2418TIP3    H128813   2.291   4.213   1.150  0.4444 -2.2154  0.4613
 2418TIP3    H228814   2.335   4.306   1.260 -0.2695 -0.2218 -0.8888
 2419TIP3   OH228815   1.195   5.003   1.662  0.0674  0.5134  0.5289
 2419TIP3    H128816   1.101   5.014   1.647  0.7775  3.2101 -3.5619
 2419TIP3    H228817   1.211   5.048   1.745 -2.0209  2.0263  0.1943
 2420TIP3   OH228818   7.052   3.526   1.616  0.1738  0.0951 -0.6106
 2420TIP3    H128819   7.069   3.518   1.710 -0.1411  1.2139 -0.4413
 2420TIP3    H228820   6.962   3.496   1.605 -0.4834  1.7950 -0.2182
 2421TIP3   OH228821   2.833   3.806   1.687  0.1399 -0.2982  0.8888
 2421TIP3    H128822   2.925   3.829   1.681  0.3221 -1.3447 -1.3041
 2421TIP3    H228823   2.789   3.864   1.624 -0.7868  0.4710  2.1940
 2422TIP3   OH228824   6.585   0.735   0.613 -0.4890 -0.2774  0.4983
 2422TIP3    H128825   6.558   0.762   0.525  0.9530  0.8150  0.3658
 2422TIP3    H228826   6.560   0.808   0.669  2.3511  0.9831  0.3145
 2423TIP3   OH228827   5.493   6.412   2.533 -0.6563 -0.1544  0.4851
 2423TIP3    H128828   5.551   6.349   2.490  0.1020 -0.6168  2.0866
 2423TIP3    H228829   5.531   6.498   2.512 -0.2214 -0.3732  0.3605
 2424TIP3   OH228830   0.944   6.472   0.208  0.5830  0.1247  0.5393
 2424TIP3    H128831   1.002   6.404   0.243 -0.3723 -0.7469  0.4732
 2424TIP3    H228832   0.972   6.552   0.253  2.0209 -0.2061  0.2953
 2425TIP3   OH228833   1.570   1.527   6.861 -0.1040 -0.0252  0.2031
 2425TIP3    H128834   1.600   1.575   6.784  2.2703  0.0006  1.0498
 2425TIP3    H228835   1.592   1.436   6.843  3.0999  0.2831  1.8430
 2426TIP3   OH228836   4.533   6.419   1.433 -0.2282 -0.1404  0.2782
 2426TIP3    H128837   4.629   6.424   1.433 -0.1807 -0.8863  0.2361
 2426TIP3    H228838   4.509   6.424   1.340 -0.2479  0.3166  0.3075
 2427TIP3   OH228839   4.978   5.489   2.057  0.5551  0.0583 -0.4204
 2427TIP3    H128840   5.007   5.576   2.085  1.9488 -0.5396  0.0796
 2427TIP3    H228841   4.957   5.443   2.138  0.1660 -0.2002 -0.6635
 2428TIP3   OH228842   0.900   2.926   2.619  0.3968  0.2072  0.5528
 2428TIP3    H128843   0.920   2.833   2.613 -0.1361  0.1817 -1.3692
 2428TIP3    H228844   0.805   2.931   2.613  0.4563  0.9023  0.1409
 2429TIP3   OH228845   1.842   4.535   1.005 -0.2460 -0.6789  0.1762
 2429TIP3    H128846   1.814   4.612   0.956  0.0272 -1.2725 -0.9588
 2429TIP3    H228847   1.890   4.482   0.941  0.7426 -1.1539  1.2754
 2430TIP3   OH228848   5.875   0.769   0.426 -0.3395  0.6260 -0.5761
 2430TIP3    H128849   5.865   0.861   0.403 -0.8150  1.5937  2.8734
 2430TIP3    H228850   5.880   0.769   0.522 -1.7801 -3.0497 -0.3273
 2431TIP3   OH228851   6.986   3.229   1.677  0.3524 -0.3514  0.2461
 2431TIP3    H128852   7.066   3.272   1.647  1.3490 -1.5321  1.0743
 2431TIP3    H228853   7.005   3.206   1.768 -1.3213  0.2040  0.7662
 2432TIP3   OH228854   6.179   0.535   2.076  0.3376 -0.2657  0.1766
 2432TIP3    H128855   6.146   0.456   2.033 -1.0509 -0.1264  0.9152
 2432TIP3    H228856   6.119   0.548   2.150  1.0804  0.9863  0.5800
 2433TIP3   OH228857   0.433   4.710   2.345 -0.5758  0.2219  0.2389
 2433TIP3    H128858   0.441   4.748   2.432 -0.6224 -1.1130  0.8482
 2433TIP3    H228859   0.379   4.632   2.357  0.9030 -0.9986 -0.6336
 2434TIP3   OH228860   3.608   4.539   7.214  0.0200  0.0726  0.1585
 2434TIP3    H128861   3.663   4.548   7.136 -0.9547  0.6331 -0.4807
 2434TIP3    H228862   3.668   4.508   7.282  0.8181 -0.7895 -0.9030
 2435TIP3   OH228863   6.823   1.201   0.198 -0.3661 -0.1899 -0.3949
 2435TIP3    H128864   6.782   1.122   0.233  1.1874 -1.9924 -2.3649
 2435TIP3    H228865   6.826   1.186   0.104  0.8350  1.8193 -0.7290
 2436TIP3   OH228866   1.560   4.931   2.512  0.3086  0.4872  0.1371
 2436TIP3    H128867   1.652   4.945   2.491  0.4797 -1.3657 -0.6151
 2436TIP3    H228868   1.561   4.865   2.581 -0.4131 -1.5495 -1.6624
 2437TIP3   OH228869   0.093   6.103   7.111 -0.0641 -0.1161  0.1881
 2437TIP3    H128870   0.108   6.179   7.054  1.3535 -1.1189 -0.8712
 2437TIP3    H228871   0.013   6.063   7.077  0.3881 -0.3116 -0.6691
 2438TIP3   OH228872   6.104   3.745   1.961 -0.2984 -0.7920  0.3931
 2438TIP3    H128873   6.010   3.748   1.946 -0.3935 -2.5252  0.3966
 2438TIP3    H228874   6.113   3.747   2.057 -0.2612  0.2221  0.3809
 2439TIP3   OH228875   3.633   5.795   0.308  0.0420 -0.0005  0.0168
 2439TIP3    H128876   3.564   5.733   0.331 -1.3407  1.2763 -0.5010
 2439TIP3    H228877   3.698   5.785   0.378 -0.5720 -1.3538  0.4327
 2440TIP3   OH228878   0.954   5.193   1.024 -0.1027 -0.7153  0.1998
 2440TIP3    H128879   1.014   5.267   1.033 -1.1158 -0.0759  2.3661
 2440TIP3    H228880   0.875   5.231   0.985  0.3528 -1.2921 -1.3881
 2441TIP3   OH228881   4.698   3.952   7.426  0.2024 -0.0104 -0.3684
 2441TIP3    H128882   4.677   4.003   7.348  1.0826  1.8621  0.5513
 2441TIP3    H228883   4.719   4.017   7.492 -0.3220 -1.5485  1.4024
 2442TIP3   OH228884   1.719   3.140   1.225  0.5088 -0.5219 -0.0503
 2442TIP3    H128885   1.733   3.049   1.252  0.7025  0.2584  2.8262
 2442TIP3    H228886   1.673   3.180   1.298  1.1214  1.9117 -0.8863
 2443TIP3   OH228887   6.900   5.411   7.648 -0.3527  0.2297 -0.4514
 2443TIP3    H128888   6.851   5.492   7.658  1.0234  1.2519 -1.5632
 2443TIP3    H228889   6.903   5.395   7.553  1.5223  0.2928 -0.4539
 2444TIP3   OH228890   4.137   6.522   1.312 -0.1003  0.4498 -0.4935
 2444TIP3    H128891   4.106   6.591   1.371 -1.0927  0.5761 -1.1420
 2444TIP3    H228892   4.086   6.534   1.232 -0.3195 -1.0455 -0.6144
 2445TIP3   OH228893   6.489   5.897   7.461  0.1027  0.0793  0.2350
 2445TIP3    H128894   6.509   5.988   7.439  0.2037 -0.0845 -0.3580
 2445TIP3    H228895   6.564   5.847   7.429 -0.3437 -0.3118 -0.2034
 2446TIP3   OH228896   3.101   3.189   7.913  0.3982  0.4895 -0.4111
 2446TIP3    H128897   3.084   3.152   8.000  0.3432  2.0153  0.2496
 2446TIP3    H228898   3.166   3.129   7.875  2.3800  1.1344  1.6909
 2447TIP3   OH228899   6.716   4.272   7.734  0.7585  0.2824 -0.1716
 2447TIP3    H128900   6.712   4.270   7.829  0.5612  0.2391 -0.1789
 2447TIP3    H228901   6.777   4.202   7.711 -0.0194 -0.4382 -0.1162
 2448TIP3   OH228902   3.140   0.772   7.386 -0.1126  0.2513 -0.4608
 2448TIP3    H128903   3.074   0.772   7.455  1.4222 -1.4491  1.1044
 2448TIP3    H228904   3.111   0.703   7.325 -0.1230 -0.0503 -0.1184
 2449TIP3   OH228905   2.411   4.174   0.845  0.3214 -0.1627  0.2228
 2449TIP3    H128906   2.382   4.265   0.837 -0.7692 -0.3997  1.1158
 2449TIP3    H228907   2.432   4.147   0.756 -1.0668  0.4303 -0.3152
 2450TIP3   OH228908   0.042   2.961   0.498 -0.1090 -0.3828  0.2130
 2450TIP3    H128909   0.096   2.968   0.419 -0.4917 -0.8143 -0.0974
 2450TIP3    H228910   0.021   3.051   0.522  1.0045 -0.1934  0.5228
 2451TIP3   OH228911   5.585   1.530   1.856  0.3360  0.3069 -0.1058
 2451TIP3    H128912   5.615   1.457   1.801 -0.7565 -0.3713  0.1475
 2451TIP3    H228913   5.570   1.602   1.795  0.9014  0.1494 -0.4367
 2452TIP3   OH228914   4.148   1.468   0.757 -0.5504  0.5144 -0.4792
 2452TIP3    H128915   4.060   1.463   0.793 -0.2499 -1.1192  0.1152
 2452TIP3    H228916   4.201   1.506   0.826 -0.2322 -1.3900  0.3991
 2453TIP3   OH228917   6.091   4.233   7.778  0.1053 -0.0779 -0.1524
 2453TIP3    H128918   6.153   4.272   7.840  0.9413  1.9405 -2.1228
 2453TIP3    H228919   6.106   4.139   7.786  0.7942  0.1519  2.0249
 2454TIP3   OH228920   3.516   5.977   1.745  0.1940 -0.6352  0.4606
 2454TIP3    H128921   3.455   5.903   1.740 -0.2108 -0.2390 -1.5022
 2454TIP3    H228922   3.514   6.004   1.836  0.5515 -3.1974  1.3126
 2455TIP3   OH228923   0.176   0.378   0.209 -0.2115  0.6164 -0.3343
 2455TIP3    H128924   0.248   0.341   0.261 -2.0594 -1.0896  1.1930
 2455TIP3    H228925   0.194   0.350   0.120  1.5659  1.1792 -0.1957
 2456TIP3   OH228926   6.418   1.684   7.711  0.6531 -0.5225 -0.3294
 2456TIP3    H128927   6.475   1.758   7.732 -0.6281  0.0975  1.1547
 2456TIP3    H228928   6.478   1.612   7.692  1.9235  0.5002 -0.3566
 2457TIP3   OH228929   6.103   0.022   5.437 -0.6859 -0.1397  0.1459
 2457TIP3    H128930   6.021   0.023   5.485 -1.6475 -0.5247 -1.4185
 2457TIP3    H228931   6.079  -0.006   5.349  0.7961  1.6953 -0.9161
 2458TIP3   OH228932   6.421   3.404   7.393 -0.0491  0.5451 -0.0720
 2458TIP3    H128933   6.328   3.382   7.382  0.1142  0.2719 -1.0025
 2458TIP3    H228934   6.423   3.463   7.468 -0.6670 -1.5825  1.7231
 2459TIP3   OH228935   6.049   2.833   7.117 -0.5052  0.4075 -0.1758
 2459TIP3    H128936   5.966   2.862   7.080  0.4602  0.6067 -2.3759
 2459TIP3    H228937   6.109   2.906   7.101  1.3010 -1.5213 -3.3596
 2460TIP3   OH228938   1.308   6.767   7.816  0.4933  0.2556 -0.1735
 2460TIP3    H128939   1.213   6.760   7.819  0.5715 -0.5585  0.8253
 2460TIP3    H228940   1.325   6.859   7.796 -0.5002  0.3252 -0.7405
 2461TIP3   OH228941   5.077   2.952   0.441  0.3992 -0.3852  0.5364
 2461TIP3    H128942   5.050   2.898   0.367  2.1592 -0.3317 -0.1717
 2461TIP3    H228943   4.995   2.987   0.476 -0.4844 -0.6591 -1.1812
 2462TIP3   OH228944   5.487   1.394   6.392  0.3022 -0.4733 -0.2632
 2462TIP3    H128945   5.520   1.403   6.302  1.3085 -0.1769  0.1232
 2462TIP3    H228946   5.478   1.484   6.423  3.9859 -0.4778  1.3320
 2463TIP3   OH228947   2.734   0.186   7.871  0.1745 -0.3398 -0.2562
 2463TIP3    H128948   2.690   0.261   7.912 -1.4118 -0.8233 -0.9718
 2463TIP3    H228949   2.786   0.147   7.941  1.7288  1.8870 -0.0786
 2464TIP3   OH228950   6.031   5.474   0.132 -0.3938  0.1764 -0.3353
 2464TIP3    H128951   6.073   5.553   0.098 -1.2732  0.1376 -1.5777
 2464TIP3    H228952   6.005   5.425   0.054 -0.4949 -1.0071  0.4115
 2465TIP3   OH228953   4.112   0.287   7.878  0.5693 -0.2731 -0.2349
 2465TIP3    H128954   4.103   0.286   7.973  0.0629 -0.6972 -0.2868
 2465TIP3    H228955   4.023   0.282   7.845  0.6998  0.5249 -0.7411
 2466TIP3   OH228956   2.038   6.502   6.737  0.0824  0.8667  0.8075
 2466TIP3    H128957   1.995   6.475   6.655  0.9043  2.5341 -0.2441
 2466TIP3    H228958   1.983   6.466   6.806 -1.2486  0.2912 -0.4946
 2467TIP3   OH228959   0.903   3.821   2.339 -0.0349  0.2991 -0.2933
 2467TIP3    H128960   0.811   3.797   2.345 -0.0329  0.3998  0.1689
 2467TIP3    H228961   0.950   3.738   2.342 -0.0888  0.2777 -0.0780
 2468TIP3   OH228962   0.854   3.687   2.002 -0.6354  0.2513  0.4040
 2468TIP3    H128963   0.858   3.591   2.000  0.9112  0.2869  0.7253
 2468TIP3    H228964   0.893   3.713   1.918 -0.8943  0.6124  0.3962
 2469TIP3   OH228965   3.208   2.288   7.751  0.2089  0.5592  0.9082
 2469TIP3    H128966   3.300   2.306   7.732  0.7948 -1.3857  1.6733
 2469TIP3    H228967   3.187   2.345   7.825  0.9139  0.6794  1.0225
 2470TIP3   OH228968   4.733   6.246   1.264  0.1154 -0.3259  0.2327
 2470TIP3    H128969   4.767   6.309   1.200  0.2753  0.1157  0.7455
 2470TIP3    H228970   4.641   6.236   1.240 -0.1849  0.9198  0.7824
 2471TIP3   OH228971   1.060   5.889   0.559  0.1124  0.2163  0.2199
 2471TIP3    H128972   1.060   5.970   0.610  1.2937  0.9984 -0.9738
 2471TIP3    H228973   0.967   5.864   0.555 -0.2484  1.3448  0.8398
 2472TIP3   OH228974   6.551   0.810   1.217  0.8479  0.3137  0.1728
 2472TIP3    H128975   6.583   0.844   1.301 -1.7596  1.6191  0.7414
 2472TIP3    H228976   6.514   0.724   1.239 -2.0222  1.6344  1.0007
 2473TIP3   OH228977   0.470   3.490   6.291  0.1804 -0.0502  0.0921
 2473TIP3    H128978   0.454   3.399   6.264 -0.7387 -0.3875  1.6051
 2473TIP3    H228979   0.529   3.483   6.366 -0.7420  0.4964  0.8984
 2474TIP3   OH228980   7.098   1.010   0.609 -0.1991 -0.1530  0.1236
 2474TIP3    H128981   7.029   0.953   0.642 -1.0257 -0.1144 -1.4021
 2474TIP3    H228982   7.174   0.954   0.599 -0.5434 -0.6230  0.1203
 2475TIP3   OH228983   4.388   1.586   0.500  0.0636  0.3578 -0.1759
 2475TIP3    H128984   4.297   1.581   0.469 -1.1130  1.2766  2.7960
 2475TIP3    H228985   4.401   1.504   0.548  0.7268  0.3661 -0.3359
 2476TIP3   OH228986   0.408   1.823   2.060  0.1958 -0.2024 -0.2007
 2476TIP3    H128987   0.437   1.782   1.979 -2.1752 -1.0218 -0.7029
 2476TIP3    H228988   0.461   1.902   2.067  3.0410 -1.9345 -0.5868
 2477TIP3   OH228989   5.598   0.307   7.506 -0.0755  0.4589 -0.2364
 2477TIP3    H128990   5.562   0.225   7.471  1.2253 -0.4859  0.5751
 2477TIP3    H228991   5.521   0.364   7.516 -1.1661 -1.0303  0.2000
 2478TIP3   OH228992   5.342   0.755   1.651 -0.3912 -0.0579  0.0448
 2478TIP3    H128993   5.402   0.763   1.726 -0.7160  0.0152  0.2973
 2478TIP3    H228994   5.298   0.671   1.665  0.7147 -0.8255 -0.9234
 2479TIP3   OH228995   4.146   6.204   0.951  0.0103  0.0607 -0.2983
 2479TIP3    H128996   4.184   6.239   0.870 -1.3962  2.6551  0.0406
 2479TIP3    H228997   4.061   6.168   0.924 -0.0025 -0.0325 -0.1330
 2480TIP3   OH228998   3.003   1.918   0.813 -0.1911 -0.1143  0.0899
 2480TIP3    H128999   3.031   1.962   0.893 -0.8873 -1.5551  1.1882
 2480TIP3    H229000   2.921   1.962   0.789 -0.1699  0.0949  0.3951
 2481TIP3   OH229001   4.890   5.148   1.461 -0.1988  0.3373 -0.3259
 2481TIP3    H129002   4.919   5.063   1.428 -0.0785 -0.0412  0.7314
 2481TIP3    H229003   4.796   5.137   1.478  0.1515 -0.1491  1.4708
 2482TIP3   OH229004   1.352   1.325   2.126 -0.0503 -0.2040  0.2223
 2482TIP3    H129005   1.397   1.378   2.192  0.6838 -0.3426 -0.1612
 2482TIP3    H229006   1.311   1.389   2.068  0.5590 -0.0484 -0.0483
 2483TIP3   OH229007   3.587   6.569   7.453  0.2386 -0.7323 -0.9863
 2483TIP3    H129008   3.551   6.530   7.373  0.2556 -0.3730 -1.1713
 2483TIP3    H229009   3.520   6.632   7.481 -0.1859 -1.5080 -0.2010
 2484TIP3   OH229010   2.457   3.838   7.229 -0.1459  0.2234  0.2274
 2484TIP3    H129011   2.508   3.902   7.180 -0.1570 -0.9577 -1.3694
 2484TIP3    H229012   2.489   3.753   7.201 -0.9368 -0.5191  1.4417
 2485TIP3   OH229013   1.120   2.475   7.552  0.2992 -0.2254 -0.1977
 2485TIP3    H129014   1.043   2.437   7.594 -0.4873  1.0228 -0.4556
 2485TIP3    H229015   1.106   2.459   7.458  0.8733 -0.9074 -0.1724
 2486TIP3   OH229016   1.004   5.031   0.491  0.7101 -0.3586 -0.0076
 2486TIP3    H129017   0.970   5.070   0.571 -0.0178 -0.4260 -0.2758
 2486TIP3    H229018   1.089   4.994   0.516 -0.0067 -1.3875  1.0189
 2487TIP3   OH229019   6.250   3.628   7.762 -0.1646  0.0197 -0.3211
 2487TIP3    H129020   6.176   3.569   7.771 -1.6589  1.8840  0.1738
 2487TIP3    H229021   6.238   3.670   7.677  0.3798  0.2752 -0.2748
 2488TIP3   OH229022   3.580   6.285   0.877 -0.1219 -0.1292  0.1193
 2488TIP3    H129023   3.633   6.248   0.806 -1.3216  1.0348 -1.4620
 2488TIP3    H229024   3.643   6.313   0.943  1.1528  0.0839 -1.1491
 2489TIP3   OH229025   6.660   6.715   0.954 -0.5037 -0.0982  0.0583
 2489TIP3    H129026   6.678   6.807   0.969  1.1808 -0.2960 -0.6117
 2489TIP3    H229027   6.698   6.696   0.869 -1.2458 -1.3111 -0.0350
 2490TIP3   OH229028   3.463   1.548   7.213 -0.1859  0.5332  0.0744
 2490TIP3    H129029   3.461   1.602   7.134  1.4264 -0.7501 -0.8887
 2490TIP3    H229030   3.495   1.608   7.281  1.6956  0.8383 -1.0017
 2491TIP3   OH229031   4.399   1.318   1.374 -0.3548  0.2493  0.2336
 2491TIP3    H129032   4.407   1.394   1.431  0.9116  0.3520 -0.0413
 2491TIP3    H229033   4.461   1.254   1.410  0.1548  0.1640 -0.7600
 2492TIP3   OH229034   1.103   2.253   7.135  0.3191 -0.1824  0.1584
 2492TIP3    H129035   1.142   2.290   7.056 -1.1689 -0.0310 -0.5274
 2492TIP3    H229036   1.177   2.243   7.195  1.4813 -0.2674 -1.2257
 2493TIP3   OH229037   1.150   5.265   7.558  0.2222 -0.8870  0.1420
 2493TIP3    H129038   1.224   5.222   7.602  0.2117 -0.5122  0.5393
 2493TIP3    H229039   1.120   5.202   7.493  0.2838 -1.4273  0.6311
 2494TIP3   OH229040   1.788   7.020   6.720  0.6005  0.0048 -0.1758
 2494TIP3    H129041   1.737   6.944   6.693 -2.2495  0.8869  2.1618
 2494TIP3    H229042   1.846   6.987   6.787 -0.4295 -0.2178  0.6338
 2495TIP3   OH229043   3.715   3.151   7.839 -0.4497 -0.0382 -0.3707
 2495TIP3    H129044   3.624   3.163   7.810 -0.9505 -3.2918 -0.6004
 2495TIP3    H229045   3.718   3.189   7.927 -1.4481  1.8704 -1.1172
 2496TIP3   OH229046   0.578   6.191   6.931 -0.1904 -0.4374  0.5134
 2496TIP3    H129047   0.557   6.240   6.852 -1.6367  2.4897  2.5183
 2496TIP3    H229048   0.653   6.237   6.969 -0.3672 -0.9461  1.5238
 2497TIP3   OH229049   2.639   2.572   2.093 -0.4490 -0.0226 -0.2417
 2497TIP3    H129050   2.681   2.576   2.008 -0.5380 -0.4820 -0.3089
 2497TIP3    H229051   2.635   2.663   2.122 -0.6720  0.1685 -0.8512
 2498TIP3   OH229052   6.387   3.598   7.177  0.0791 -0.2442 -0.5468
 2498TIP3    H129053   6.407   3.508   7.203 -0.5376 -0.6334 -1.3706
 2498TIP3    H229054   6.472   3.640   7.167  0.3605 -0.3381  1.1071
 2499TIP3   OH229055   4.434   1.946   0.998 -0.1775 -0.2291  0.0366
 2499TIP3    H129056   4.410   1.906   0.914 -0.7425  1.1253 -0.4762
 2499TIP3    H229057   4.465   2.033   0.975 -0.6022  0.2680  1.2585
 2500TIP3   OH229058   4.488   4.317   1.214  0.0211  0.0110 -0.1761
 2500TIP3    H129059   4.467   4.324   1.121 -0.5088 -0.1275 -0.0698
 2500TIP3    H229060   4.428   4.378   1.257  0.4498  0.2744  0.0521
 2501TIP3   OH229061   5.004   4.099   0.896  0.1926 -0.0158 -0.6612
 2501TIP3    H129062   5.095   4.106   0.926 -0.7203  2.2895  2.0173
 2501TIP3    H229063   4.977   4.011   0.922  1.4036 -0.4306 -0.7399
 2502TIP3   OH229064   2.213   0.678   1.296 -0.2816 -0.1383 -0.6266
 2502TIP3    H129065   2.298   0.637   1.281  0.3928  1.6071 -1.8795
 2502TIP3    H229066   2.215   0.703   1.389 -0.1508 -1.6181 -0.2036
 2503TIP3   OH229067   0.863   4.329   0.948  0.5161  0.2569 -0.0082
 2503TIP3    H129068   0.868   4.374   1.033  1.1209  0.3759 -0.0967
 2503TIP3    H229069   0.953   4.300   0.932  0.5668  0.9129 -0.9703
 2504TIP3   OH229070   0.796   3.532   6.808  0.4168  0.6534 -0.1758
 2504TIP3    H129071   0.889   3.556   6.804  0.0900  2.4686  1.5056
 2504TIP3    H229072   0.792   3.468   6.880  0.2971  0.9368  0.0685
 2505TIP3   OH229073   6.941   6.545   0.765 -0.0970 -0.1582  0.1116
 2505TIP3    H129074   6.984   6.539   0.851  1.3469  1.3270 -0.4452
 2505TIP3    H229075   6.937   6.639   0.748 -1.4195 -0.3913 -0.9580
 2506TIP3   OH229076   2.108   6.957   7.673  0.1464 -0.2383 -0.0204
 2506TIP3    H129077   2.081   7.047   7.690 -1.2402 -1.1725  3.4946
 2506TIP3    H229078   2.029   6.912   7.644  0.7763 -0.4317 -1.5301
 2507TIP3   OH229079   5.323   5.356   2.018 -0.1704  0.1596  0.3271
 2507TIP3    H129080   5.292   5.447   2.013 -1.1639 -0.1756  0.2896
 2507TIP3    H229081   5.308   5.331   2.109  3.3964  1.1446  1.3567
 2508TIP3   OH229082   5.478   3.198   1.747 -0.0254  0.0828 -0.1694
 2508TIP3    H129083   5.471   3.109   1.712  0.2799  0.3283 -0.8627
 2508TIP3    H229084   5.395   3.211   1.794 -1.1527  0.3076 -2.1209
 2509TIP3   OH229085   0.765   0.882   0.025  0.3915 -0.7735 -0.0363
 2509TIP3    H129086   0.709   0.957   0.045 -1.0493 -1.9403  0.4678
 2509TIP3    H229087   0.824   0.876   0.100 -0.6047 -1.1257  0.7512
 2510TIP3   OH229088   2.360   4.602   7.707 -0.2961 -0.5134 -0.1206
 2510TIP3    H129089   2.359   4.545   7.630  0.7687  0.1190 -0.6157
 2510TIP3    H229090   2.271   4.638   7.710  0.0798  0.7770 -2.0839
 2511TIP3   OH229091   2.412   3.274   7.272  0.8872 -0.1727 -0.3668
 2511TIP3    H129092   2.483   3.314   7.222  0.4515 -0.4424 -1.2141
 2511TIP3    H229093   2.429   3.180   7.267  0.7347 -0.2112 -0.1803
 2512TIP3   OH229094   4.196   0.583   0.692  0.0272 -0.1338 -0.0027
 2512TIP3    H129095   4.104   0.601   0.672  0.3427  0.5634 -0.8639
 2512TIP3    H229096   4.212   0.632   0.773  0.2750  1.7494 -1.1383
 2513TIP3   OH229097   1.962   6.966   0.371 -0.1048 -0.0343 -0.0053
 2513TIP3    H129098   2.033   6.969   0.307 -0.2047 -0.0913 -0.1202
 2513TIP3    H229099   1.887   6.934   0.321 -0.1953 -0.0322  0.1298
 2514TIP3   OH229100   3.055   0.710   0.440 -0.3083 -0.4200 -0.3995
 2514TIP3    H129101   2.981   0.678   0.491  0.3789  0.9841  1.6285
 2514TIP3    H229102   3.128   0.653   0.465 -0.1467 -0.2204 -0.4041
 2515TIP3   OH229103   6.345   4.474   0.552  0.3411 -0.5000 -0.6756
 2515TIP3    H129104   6.313   4.451   0.466  0.7834  0.1956 -1.0379
 2515TIP3    H229105   6.434   4.506   0.537  0.3173 -0.0867 -0.0109
 2516TIP3   OH229106   1.936   6.724   0.583 -0.7176  0.2958 -0.2901
 2516TIP3    H129107   1.917   6.631   0.568 -0.7026  0.3034 -0.3564
 2516TIP3    H229108   1.858   6.770   0.552 -0.2649  0.3833 -1.3270
 2517TIP3   OH229109   6.935   0.646   0.153  0.3673 -0.2859 -0.2320
 2517TIP3    H129110   6.905   0.614   0.238 -1.2397 -1.4436 -1.1710
 2517TIP3    H229111   6.981   0.572   0.114 -0.7245 -0.5018 -1.1828
 2518TIP3   OH229112   5.218   6.656   7.608  0.2178  0.2812  0.4574
 2518TIP3    H129113   5.149   6.629   7.548  0.3646 -0.4490  0.6076
 2518TIP3    H229114   5.178   6.648   7.695 -0.2953  2.2011  0.4494
 2519TIP3   OH229115   0.092   2.838   1.514 -0.2721 -0.1510 -0.3211
 2519TIP3    H129116   0.161   2.833   1.580 -1.2035  0.0725  0.7001
 2519TIP3    H229117   0.093   2.753   1.471  1.8529  0.4488 -1.6218
 2520TIP3   OH229118   1.956   1.677   0.258  0.7343  0.4332  0.1672
 2520TIP3    H129119   2.043   1.660   0.222  0.1176 -1.0266 -0.7519
 2520TIP3    H229120   1.922   1.590   0.279 -0.0628  1.0574  1.6523
 2521TIP3   OH229121   6.668   5.941   0.769 -0.1357  0.0675 -0.0388
 2521TIP3    H129122   6.685   5.853   0.736  0.0302  0.2698 -0.4941
 2521TIP3    H229123   6.585   5.967   0.728 -0.2506  0.0760  0.1938
 2522TIP3   OH229124   3.811   3.031   0.138  0.1984  0.2622  0.4918
 2522TIP3    H129125   3.828   2.965   0.205  0.2442 -0.2771 -0.0449
 2522TIP3    H229126   3.887   3.026   0.080 -0.4478 -0.1958 -0.3395
 2523TIP3   OH229127   0.965   0.342   0.022  0.1591 -0.0287 -0.1853
 2523TIP3    H129128   1.048   0.351  -0.025  1.1312  2.7596  1.8261
 2523TIP3    H229129   0.974   0.261   0.072  0.7033 -0.9427 -1.7045
 2524TIP3   OH229130   1.565   2.531   0.673  0.1899  0.2747  0.4233
 2524TIP3    H129131   1.617   2.532   0.593 -0.1701  0.4541  0.1914
 2524TIP3    H229132   1.480   2.567   0.648 -0.7477 -1.8543  0.3310
 2525TIP3   OH229133   1.496   3.026   0.963  0.2007 -0.4093 -0.2564
 2525TIP3    H129134   1.497   2.955   0.899  2.1972 -1.9842  1.3777
 2525TIP3    H229135   1.580   3.070   0.951 -0.5542  1.0277 -0.5016
 2526TIP3   OH229136   6.119   0.235   7.556 -0.1931  0.8979 -0.3562
 2526TIP3    H129137   6.138   0.321   7.593 -0.9555  1.6470 -1.5886
 2526TIP3    H229138   6.068   0.190   7.623  1.5856  0.7626  0.9506
 2527TIP3   OH229139   1.123   4.373   7.108  0.3095  0.1029  0.1588
 2527TIP3    H129140   1.099   4.282   7.093  0.1435  0.1818 -0.0680
 2527TIP3    H229141   1.051   4.424   7.070  0.0901  0.3215  0.8526
 2528TIP3   OH229142   0.733   4.847   0.371  0.1484  0.3688  0.0300
 2528TIP3    H129143   0.788   4.923   0.391 -1.0234  1.3314 -0.2161
 2528TIP3    H229144   0.646   4.871   0.404  0.1625 -1.7220  1.7757
 2529TIP3   OH229145   5.108   3.570   7.187 -0.1853  0.0732 -0.1792
 2529TIP3    H129146   5.090   3.546   7.278 -0.3339 -0.1179 -0.2574
 2529TIP3    H229147   5.178   3.510   7.160  0.5428  0.7707  0.1042
 2530TIP3   OH229148   1.138   5.004   6.967 -0.1490  0.5112 -0.4622
 2530TIP3    H129149   1.145   4.970   6.878 -0.3511 -0.3047 -0.1787
 2530TIP3    H229150   1.184   5.088   6.965  0.2663  0.2717 -1.2147
 2531TIP3   OH229151   1.322   6.304   2.092  0.1912 -0.8754 -0.2202
 2531TIP3    H129152   1.269   6.232   2.060  0.8589 -1.7988  0.6654
 2531TIP3    H229153   1.266   6.381   2.083 -1.4733 -1.8566  1.0553
 2532TIP3   OH229154   3.883   2.252   1.421  0.0148  0.0186 -0.3245
 2532TIP3    H129155   3.973   2.284   1.425  0.0872 -0.2060 -0.0683
 2532TIP3    H229156   3.831   2.318   1.467  0.0591  0.1155 -0.4147
 2533TIP3   OH229157   3.473   3.509   0.454 -0.2657  0.4772 -0.3047
 2533TIP3    H129158   3.543   3.501   0.519 -0.8298 -1.8732  0.1194
 2533TIP3    H229159   3.429   3.591   0.477  0.7725  0.7096  1.0236
 2534TIP3   OH229160   6.960   5.861   5.781 -0.6047 -0.0752  0.0966
 2534TIP3    H129161   6.904   5.903   5.847 -2.5405  2.1842 -2.7043
 2534TIP3    H229162   7.043   5.909   5.787  0.7033 -2.4366  3.2646
 2535TIP3   OH229163   5.693   1.303   7.022  0.1194  0.5844  0.1375
 2535TIP3    H129164   5.610   1.300   6.974  0.5766  1.2181 -0.7428
 2535TIP3    H229165   5.739   1.378   6.983  0.2934  1.4647  1.9671
 2536TIP3   OH229166   6.276   0.133   6.341  0.1051 -0.0531  0.1130
 2536TIP3    H129167   6.252   0.205   6.399 -0.6425  0.0673 -0.3325
 2536TIP3    H229168   6.193   0.093   6.315  0.5130 -1.1584  0.4427
 2537TIP3   OH229169   3.227   1.067   7.410  0.6494 -0.4306  0.5432
 2537TIP3    H129170   3.170   1.101   7.341  0.1095 -1.2529  0.5729
 2537TIP3    H229171   3.219   0.972   7.403  3.7688 -0.6951 -0.9277
 2538TIP3   OH229172   5.667   4.554   0.006  0.2714 -0.1617 -0.1997
 2538TIP3    H129173   5.761   4.544  -0.003  0.0401 -3.6397 -0.1397
 2538TIP3    H229174   5.633   4.536  -0.082 -0.4044 -0.1973  0.0635
 2539TIP3   OH229175   3.356   6.997   2.544 -0.1675 -0.7380 -0.1226
 2539TIP3    H129176   3.416   7.009   2.471  0.0118 -1.3640 -0.0862
 2539TIP3    H229177   3.319   6.910   2.530 -0.3221 -0.7558  0.3904
 2540TIP3   OH229178   4.307   7.084   2.192 -0.3306 -0.0377 -0.5607
 2540TIP3    H129179   4.301   7.179   2.198 -0.5737 -0.1000  0.4572
 2540TIP3    H229180   4.296   7.054   2.283  0.9565 -0.9721 -0.6901
 2541TIP3   OH229181   1.310   0.833   0.225  0.9642  0.0202  0.1606
 2541TIP3    H129182   1.256   0.872   0.155  1.6734 -1.9517 -1.5798
 2541TIP3    H229183   1.394   0.877   0.217  0.5026  1.0981  1.0213
 2542TIP3   OH229184   6.368   5.695   1.340  0.1029 -0.4273  0.2478
 2542TIP3    H129185   6.346   5.717   1.249 -0.6110  0.1435  0.5433
 2542TIP3    H229186   6.455   5.731   1.353  0.5018 -1.1136 -0.4103
 2543TIP3   OH229187   3.161   4.787   1.812 -0.4635  0.2013  0.3793
 2543TIP3    H129188   3.204   4.808   1.729  0.9664  2.4089  1.5644
 2543TIP3    H229189   3.085   4.735   1.788 -0.2402  0.9880 -2.3268
 2544TIP3   OH229190   5.720   6.251   2.461  0.0211  0.3780  0.0549
 2544TIP3    H129191   5.728   6.172   2.408  0.2963  0.4656 -0.0363
 2544TIP3    H229192   5.805   6.260   2.504  0.2130  0.9641 -0.4234
 2545TIP3   OH229193   6.823   4.025   7.863  0.1650  0.0845 -0.6682
 2545TIP3    H129194   6.852   4.083   7.933 -0.7585  0.0532 -0.2467
 2545TIP3    H229195   6.897   4.021   7.803  0.4070  1.3473 -0.4777
 2546TIP3   OH229196   4.321   3.882   6.604  0.4945 -0.0342  0.4515
 2546TIP3    H129197   4.348   3.853   6.691  1.8651 -0.7253 -0.1606
 2546TIP3    H229198   4.260   3.814   6.574  3.2630 -2.1717 -0.7500
 2547TIP3   OH229199   5.417   2.181   2.462 -0.0611  0.2735 -0.8661
 2547TIP3    H129200   5.410   2.118   2.391 -1.7927 -0.4532 -0.0833
 2547TIP3    H229201   5.327   2.198   2.489  0.5651 -0.3654  1.9086
 2548TIP3   OH229202   2.852   3.549   0.684  0.0004 -0.0500  0.3292
 2548TIP3    H129203   2.815   3.637   0.680 -0.6556 -0.3267  0.1790
 2548TIP3    H229204   2.942   3.558   0.652  0.6371  0.9285  2.2210
 2549TIP3   OH229205   5.227   6.135   1.819  0.2100  0.1430 -0.1701
 2549TIP3    H129206   5.132   6.129   1.809  0.3306  0.2070 -1.7197
 2549TIP3    H229207   5.261   6.061   1.767  1.0225  0.5875 -0.2841
 2550TIP3   OH229208   2.360   5.045   1.762  0.0736 -0.6408  0.4897
 2550TIP3    H129209   2.283   5.098   1.782 -0.0923 -0.9688  0.7404
 2550TIP3    H229210   2.358   4.975   1.827 -1.3039 -2.6012 -1.4987
 2551TIP3   OH229211   5.581   4.144   7.592  0.5359 -0.9411 -0.7232
 2551TIP3    H129212   5.592   4.080   7.663  1.0140 -0.9629 -0.8127
 2551TIP3    H229213   5.656   4.203   7.601  0.2583 -0.5670 -0.8253
 2552TIP3   OH229214   7.020   1.518   1.796 -0.0073 -0.3354 -0.0544
 2552TIP3    H129215   7.020   1.470   1.879 -4.3364 -0.4074  0.1237
 2552TIP3    H229216   6.992   1.453   1.731 -2.0500  0.9226 -0.5105
 2553TIP3   OH229217   4.098   5.899   7.571 -0.1779  0.4507  0.5180
 2553TIP3    H129218   4.085   5.822   7.516  0.2150  2.2099 -2.2082
 2553TIP3    H229219   4.192   5.903   7.586 -0.0978  0.8399 -0.0609
 2554TIP3   OH229220   5.914   5.313   1.050 -0.5324 -0.2587  0.0352
 2554TIP3    H129221   5.894   5.219   1.057  1.1138 -0.5633  1.1982
 2554TIP3    H229222   5.961   5.321   0.966 -1.3582 -0.3187 -0.4457
 2555TIP3   OH229223   4.324   3.492   1.529 -0.6663 -0.3562 -0.6558
 2555TIP3    H129224   4.300   3.409   1.569 -0.4007  0.4455  1.2669
 2555TIP3    H229225   4.417   3.502   1.549 -0.9589  0.9304  0.1628
 2556TIP3   OH229226   5.029   3.510   1.995  0.1217  0.4793 -0.5857
 2556TIP3    H129227   5.028   3.415   2.010  0.9894  0.3588 -1.2160
 2556TIP3    H229228   5.121   3.534   1.999 -0.2600  1.9186  3.0504
 2557TIP3   OH229229   0.246   6.094   2.376  0.1900 -0.2799 -0.6584
 2557TIP3    H129230   0.303   6.105   2.300 -0.6355 -2.3017 -1.6603
 2557TIP3    H229231   0.288   6.145   2.445  1.4654  0.8738 -2.2102
 2558TIP3   OH229232   6.598   4.641   1.844  0.2306  0.3541  0.5141
 2558TIP3    H129233   6.620   4.708   1.778 -2.2320  1.3750  0.6244
 2558TIP3    H229234   6.512   4.666   1.876  0.2229 -1.6194  2.2732
 2559TIP3   OH229235   5.805   2.605   7.230  0.2119 -0.3056 -0.0066
 2559TIP3    H129236   5.827   2.542   7.299  2.4167  0.3054 -0.0765
 2559TIP3    H229237   5.875   2.595   7.165 -0.3402  1.0111 -0.8418
 2560TIP3   OH229238   1.540   5.465   7.568  0.2391  0.2750  0.3758
 2560TIP3    H129239   1.512   5.541   7.517  0.7545 -0.2499 -0.7461
 2560TIP3    H229240   1.543   5.495   7.658 -2.5387  0.7441  0.4100
 2561TIP3   OH229241   4.194   0.477   7.656  0.5599 -0.4762  0.5282
 2561TIP3    H129242   4.161   0.556   7.700 -0.2503 -0.0134 -0.8280
 2561TIP3    H229243   4.181   0.407   7.719  0.5427  0.3438  1.4635
 2562TIP3   OH229244   0.551   0.914   0.305 -0.4432  0.1941 -0.8460
 2562TIP3    H129245   0.509   0.913   0.390 -0.6418 -2.9585 -0.8882
 2562TIP3    H229246   0.562   1.007   0.285 -1.0170  1.0310  2.2567
 2563TIP3   OH229247   0.013   6.215   0.296 -0.3693  0.0530 -0.0973
 2563TIP3    H129248   0.042   6.195   0.207 -0.2640 -1.0441  0.1719
 2563TIP3    H229249  -0.024   6.303   0.290  1.5484  0.8596 -0.7842
 2564TIP3   OH229250   1.371   5.339   6.590 -0.4153 -0.1866 -0.3061
 2564TIP3    H129251   1.381   5.277   6.663 -2.3329  0.1977  0.3438
 2564TIP3    H229252   1.400   5.423   6.625  0.3994 -0.3447 -0.5867
 2565TIP3   OH229253   3.892   6.116   7.200 -0.2080 -0.4495 -0.7599
 2565TIP3    H129254   3.829   6.186   7.182  0.8286  1.0208  0.9927
 2565TIP3    H229255   3.839   6.042   7.227 -1.2925 -0.0687 -1.7438
 2566TIP3   OH229256   1.815   4.737   0.653  0.0431  0.0494  0.1017
 2566TIP3    H129257   1.868   4.658   0.641  0.5913  0.6873 -2.2806
 2566TIP3    H229258   1.816   4.753   0.748 -0.6349 -3.1279  0.7394
 2567TIP3   OH229259   3.771   3.068   0.940  0.2069  0.0838 -0.4438
 2567TIP3    H129260   3.843   3.127   0.918  0.4493 -0.2778 -0.6340
 2567TIP3    H229261   3.781   3.052   1.034 -1.9575  3.1576  0.4687
 2568TIP3   OH229262   1.513   6.513   0.479  0.3590 -0.4082 -0.4511
 2568TIP3    H129263   1.491   6.443   0.418 -0.7997 -1.2329  0.8428
 2568TIP3    H229264   1.601   6.540   0.453  0.1118 -1.0755 -2.1301
 2569TIP3   OH229265   1.157   6.118   2.006  0.1675  0.0606  0.0729
 2569TIP3    H129266   1.084   6.101   1.946  0.0827 -0.0512  0.2091
 2569TIP3    H229267   1.182   6.032   2.039  1.0171 -0.0214 -0.7385
 2570TIP3   OH229268   2.658   4.514   7.426  0.3122 -0.3432  0.0245
 2570TIP3    H129269   2.717   4.580   7.464 -1.7765  1.4759  0.3101
 2570TIP3    H229270   2.717   4.446   7.392  2.4778  0.6125  1.6348
 2571TIP3   OH229271   1.556   4.851   0.653  0.1469 -0.0480  0.4044
 2571TIP3    H129272   1.639   4.810   0.628  1.0816  1.6205  0.6277
 2571TIP3    H229273   1.511   4.867   0.570 -0.0606 -1.1278  0.2931
 2572TIP3   OH229274   4.155   2.000   7.532 -0.8041 -0.5748 -0.5145
 2572TIP3    H129275   4.209   2.037   7.462  0.7711  1.0543  1.4690
 2572TIP3    H229276   4.177   1.907   7.533 -1.0923 -0.7089 -2.3154
 2573TIP3   OH229277   4.304   3.104   6.434  0.0393 -0.3672 -0.1550
 2573TIP3    H129278   4.241   3.037   6.461 -0.0755 -0.2506 -0.1391
 2573TIP3    H229279   4.271   3.185   6.472 -0.1039 -0.2085 -0.6193
 2574TIP3   OH229280   3.575   4.792   7.651 -0.1265 -0.7365  0.1173
 2574TIP3    H129281   3.668   4.800   7.633 -0.0095 -0.7868  0.6689
 2574TIP3    H229282   3.542   4.733   7.583 -0.4053  1.8325 -2.1397
 2575TIP3   OH229283   5.254   3.032   2.219 -0.2270 -1.0077  0.2905
 2575TIP3    H129284   5.312   3.104   2.196  1.2747 -1.8027  1.4097
 2575TIP3    H229285   5.255   2.975   2.142  0.7013 -1.1257  0.3786
 2576TIP3   OH229286   5.704   6.887   7.825 -0.4724 -0.4378 -0.0443
 2576TIP3    H129287   5.678   6.824   7.758  1.9719  0.6410 -2.1587
 2576TIP3    H229288   5.627   6.942   7.837 -0.5467  0.2516 -3.1169
 2577TIP3   OH229289   2.777   1.957   1.179 -0.4647  0.1288 -0.2857
 2577TIP3    H129290   2.840   1.989   1.114 -0.4435  0.8359  0.0792
 2577TIP3    H229291   2.721   2.032   1.197 -1.2382 -0.4172 -0.3960
 2578TIP3   OH229292   5.655   2.408   2.258 -0.1556  0.2911 -0.1113
 2578TIP3    H129293   5.744   2.415   2.224 -0.3900  0.5233 -0.6925
 2578TIP3    H229294   5.664   2.358   2.339  0.3373 -0.8235 -0.8401
 2579TIP3   OH229295   2.263   2.560   7.815 -0.3921  0.4267 -0.9343
 2579TIP3    H129296   2.167   2.562   7.817 -0.4168 -0.5861  0.7686
 2579TIP3    H229297   2.286   2.597   7.730 -2.2918  0.6705 -1.3846
 2580TIP3   OH229298   0.299   3.162   1.163 -0.3219  0.1918 -0.0652
 2580TIP3    H129299   0.292   3.159   1.258 -2.6281 -0.7657 -0.2084
 2580TIP3    H229300   0.336   3.077   1.138  1.1819  0.7993 -0.0109
 2581TIP3   OH229301   3.796   6.734   1.216 -0.0671 -0.1704 -0.0704
 2581TIP3    H129302   3.717   6.756   1.166  0.1862  1.5783  0.2356
 2581TIP3    H229303   3.769   6.739   1.308  0.0867 -0.8685  0.0175
 2582TIP3   OH229304   4.870   3.035   7.419 -0.1755 -0.0747  0.1090
 2582TIP3    H129305   4.823   3.027   7.336 -2.4699 -1.1760  1.3940
 2582TIP3    H229306   4.823   3.105   7.466  0.5888  0.0057  0.7717
 2583TIP3   OH229307   5.376   6.387   6.904  0.3101  0.1056  0.0754
 2583TIP3    H129308   5.390   6.341   6.987  0.0031  0.7329  0.4930
 2583TIP3    H229309   5.455   6.438   6.891  0.1331  0.4419  0.2840
 2584TIP3   OH229310   2.777   4.987   2.171 -0.3053  0.4606 -0.1284
 2584TIP3    H129311   2.773   5.067   2.224 -0.0588 -0.5904  1.5794
 2584TIP3    H229312   2.816   4.922   2.230 -0.1666 -0.8282 -1.5892
 2585TIP3   OH229313   4.891   3.874   0.218 -0.0259 -0.2790 -0.4449
 2585TIP3    H129314   4.946   3.853   0.143 -0.0248 -2.1766  0.0393
 2585TIP3    H229315   4.804   3.889   0.181  0.1186 -0.5402 -0.8909
 2586TIP3   OH229316   2.485   1.278   1.713  0.1818  0.1871  0.5474
 2586TIP3    H129317   2.550   1.220   1.672  0.7560  0.2843  1.3017
 2586TIP3    H229318   2.536   1.338   1.766 -0.3858  1.6763 -0.5412
 2587TIP3   OH229319   4.986   2.938   1.603  0.0613 -0.2305  0.1391
 2587TIP3    H129320   4.901   2.963   1.640 -0.3401 -0.1166 -0.8304
 2587TIP3    H229321   4.966   2.869   1.541  0.9754 -1.9160  1.6219
 2588TIP3   OH229322   5.107   4.336   7.780 -0.1206 -0.1295  0.6201
 2588TIP3    H129323   5.063   4.251   7.788 -0.1181 -0.2360 -0.3449
 2588TIP3    H229324   5.044   4.390   7.732 -0.2307  0.5004  1.4588
 2589TIP3   OH229325   3.362   0.049   1.286 -0.0537 -0.4209  0.0267
 2589TIP3    H129326   3.302   0.024   1.357 -0.6278 -0.1407 -0.3484
 2589TIP3    H229327   3.441   0.079   1.331 -0.0876 -1.0650  0.5225
 2590TIP3   OH229328   2.054   3.994   0.244  0.1044 -0.0525 -0.8040
 2590TIP3    H129329   2.035   3.997   0.338 -2.4308 -1.0127 -1.1928
 2590TIP3    H229330   2.137   4.041   0.234  0.3996  0.1338  1.8853
 2591TIP3   OH229331   0.778   3.941   2.645  0.3045  0.1008 -0.1023
 2591TIP3    H129332   0.853   3.888   2.672 -0.5038 -0.0784  1.9444
 2591TIP3    H229333   0.710   3.878   2.624 -0.0149  0.3016  0.3297
 2592TIP3   OH229334   6.244   2.986   0.995 -0.7294 -0.1002  0.4940
 2592TIP3    H129335   6.170   2.981   1.055 -1.0721 -3.0073 -0.0477
 2592TIP3    H229336   6.295   2.907   1.013  0.9680  0.6343 -0.7940
 2593TIP3   OH229337   0.583   4.673   0.624  0.6613 -0.2438  0.5232
 2593TIP3    H129338   0.631   4.729   0.686  2.2023 -1.6816  0.6891
 2593TIP3    H229339   0.551   4.734   0.557  1.2744  0.9870  1.3093
 2594TIP3   OH229340   1.529   4.947   0.903  0.7843  0.4175  0.0593
 2594TIP3    H129341   1.540   4.920   0.812  0.1665 -0.6666  0.2879
 2594TIP3    H229342   1.581   5.027   0.911  2.4951 -0.5550 -0.7348
 2595TIP3   OH229343   5.703   6.553   2.269 -0.3630  0.3359 -0.0593
 2595TIP3    H129344   5.742   6.545   2.356 -0.6739  1.1887  0.1671
 2595TIP3    H229345   5.644   6.477   2.263  0.3446 -0.2423  0.1007
 2596TIP3   OH229346   2.064   4.756   6.651 -0.2645 -0.3712  0.8331
 2596TIP3    H129347   2.128   4.766   6.580  1.0769  0.4143  2.0889
 2596TIP3    H229348   1.980   4.746   6.607  0.7537 -1.7695 -0.8869
 2597TIP3   OH229349   6.791   6.284   7.796 -0.5241  0.1530 -0.4522
 2597TIP3    H129350   6.817   6.198   7.763 -0.6452 -0.2589  0.4787
 2597TIP3    H229351   6.825   6.346   7.732 -0.6705 -0.5977 -1.2811
 2598TIP3   OH229352   6.653   5.000   2.019 -0.0262  0.5540 -0.1623
 2598TIP3    H129353   6.695   5.044   1.945 -1.0072  0.6816 -0.6655
 2598TIP3    H229354   6.725   4.957   2.066  0.8465  1.9514 -0.1628
 2599TIP3   OH229355   3.184   0.817   1.903 -0.0129  0.1097 -0.2589
 2599TIP3    H129356   3.120   0.746   1.911  0.8818 -0.7595 -0.6659
 2599TIP3    H229357   3.176   0.866   1.984  0.9956 -1.8535  1.1006
 2600TIP3   OH229358   0.700   2.095   0.717  0.6308  0.3725 -0.4039
 2600TIP3    H129359   0.630   2.049   0.764  1.0337  1.5108  1.4015
 2600TIP3    H229360   0.657   2.136   0.643 -0.1212 -1.0609 -0.7964
 2601TIP3   OH229361   2.854   3.001   0.580  0.3018  0.2323  0.5301
 2601TIP3    H129362   2.820   3.002   0.490 -0.1601  0.2247  0.6998
 2601TIP3    H229363   2.941   2.963   0.573  0.4211  0.5998  0.0287
 2602TIP3   OH229364   5.806   5.030   2.436 -0.4354 -0.3723 -1.0700
 2602TIP3    H129365   5.748   4.961   2.405 -0.7766  0.0626 -1.4126
 2602TIP3    H229366   5.815   5.014   2.530  0.4716 -1.6114 -1.3378
 2603TIP3   OH229367   0.959   3.104   2.071  0.3142 -0.2315  0.2229
 2603TIP3    H129368   0.939   3.025   2.121 -0.7753  0.1536  0.4160
 2603TIP3    H229369   0.877   3.126   2.027  0.5546  0.9037  0.3223
 2604TIP3   OH229370   6.967   5.573   2.534 -0.0985  0.1930  0.9764
 2604TIP3    H129371   7.009   5.569   2.620 -0.2495  1.4689  1.1284
 2604TIP3    H229372   7.021   5.516   2.478  0.0005 -0.6386  1.9067
 2605TIP3   OH229373   0.866   6.881   0.564  0.3285  0.4974 -0.0021
 2605TIP3    H129374   0.924   6.836   0.626  0.0510  2.7222  2.0203
 2605TIP3    H229375   0.778   6.864   0.596  0.1219  0.9239 -0.3321
 2606TIP3   OH229376   5.641   4.675   1.099  0.2219  0.4815 -0.0249
 2606TIP3    H129377   5.645   4.580   1.103 -0.3624  0.4848  1.1418
 2606TIP3    H229378   5.722   4.704   1.141  1.0302  0.5218 -1.5404
 2607TIP3   OH229379   1.152   3.517   0.840 -0.6589 -0.1204 -0.1777
 2607TIP3    H129380   1.175   3.608   0.824  0.9360 -0.8483 -2.5043
 2607TIP3    H229381   1.179   3.501   0.930 -0.3878  1.5120  0.0631
 2608TIP3   OH229382   6.061   1.431   0.033  0.0056 -0.5910  0.1445
 2608TIP3    H129383   6.013   1.506  -0.003  0.0601 -0.7278 -0.2186
 2608TIP3    H229384   6.050   1.362  -0.032  1.7005 -0.2578 -0.5392
 2609TIP3   OH229385   4.913   4.667   7.127 -0.1989 -0.5972  0.0591
 2609TIP3    H129386   4.890   4.702   7.213 -1.2779 -3.4123  1.0409
 2609TIP3    H229387   4.992   4.615   7.143  0.1218 -0.4063 -0.8610
 2610TIP3   OH229388   6.408   5.353   2.366 -0.2137 -0.1386 -0.1668
 2610TIP3    H129389   6.406   5.416   2.294 -1.0798 -0.3655 -0.3536
 2610TIP3    H229390   6.499   5.350   2.393 -0.2904  1.8320  0.4195
 2611TIP3   OH229391   4.109   6.822   7.274  0.2144 -0.0366  0.1333
 2611TIP3    H129392   4.159   6.750   7.237  3.1277  1.3516  1.0176
 2611TIP3    H229393   4.155   6.842   7.356 -2.0351  1.1915  1.1714
 2612TIP3   OH229394   4.197   6.740   2.153  0.3254 -0.1325 -0.0038
 2612TIP3    H129395   4.157   6.823   2.128 -1.4745 -0.1485  2.3852
 2612TIP3    H229396   4.128   6.675   2.138  2.1570 -1.5793 -3.2295
 2613TIP3   OH229397   5.001   0.212   1.473  0.1681 -0.2052 -0.7501
 2613TIP3    H129398   5.009   0.302   1.442 -3.0339  1.4523  2.4987
 2613TIP3    H229399   5.077   0.198   1.529  0.3184  0.7564 -0.7071
 2614TIP3   OH229400   0.294   6.187   1.125 -0.7946  0.2599  0.3680
 2614TIP3    H129401   0.322   6.125   1.193  0.4826 -1.4670 -1.6177
 2614TIP3    H229402   0.232   6.246   1.170 -0.6541 -1.3038  2.7827
 2615TIP3   OH229403   0.054   2.721   7.689 -0.3585  0.1119 -0.2643
 2615TIP3    H129404  -0.008   2.717   7.761 -0.6641 -1.6825 -0.5864
 2615TIP3    H229405   0.111   2.645   7.701  0.7209  0.7808 -0.9221
 2616TIP3   OH229406   2.147   0.943   7.620 -0.7353  0.0838 -0.0873
 2616TIP3    H129407   2.108   0.923   7.705  2.5473  0.3979  1.6757
 2616TIP3    H229408   2.238   0.915   7.629  0.7365  3.5465 -2.1568
 2617TIP3   OH229409   6.118   1.163   1.672  0.1580  0.3010 -0.4319
 2617TIP3    H129410   6.055   1.093   1.688 -0.5512  1.1365  0.5787
 2617TIP3    H229411   6.181   1.155   1.744 -0.7418  1.5667  0.5365
 2618TIP3   OH229412   0.310   3.535   2.288  0.7229  0.2267 -0.0723
 2618TIP3    H129413   0.252   3.461   2.270  1.6500 -0.4424 -0.4018
 2618TIP3    H229414   0.303   3.549   2.382  0.2032  0.0142 -0.0756
 2619TIP3   OH229415   6.656   6.414   0.086 -0.2376 -0.1590  0.0488
 2619TIP3    H129416   6.673   6.334   0.037  0.0745  0.1798 -0.3982
 2619TIP3    H229417   6.704   6.402   0.168  0.3475 -0.1514 -0.2888
 2620TIP3   OH229418   6.413   4.262   1.180 -0.4279  0.2954  0.4637
 2620TIP3    H129419   6.386   4.353   1.188 -1.9887  0.1155 -1.8330
 2620TIP3    H229420   6.448   4.254   1.091  0.2434 -1.2251  0.8286
 2621TIP3   OH229421   3.640   1.228   6.362  0.2303  0.1318  0.5576
 2621TIP3    H129422   3.706   1.294   6.386  0.0396  0.3307  0.5378
 2621TIP3    H229423   3.557   1.275   6.365  0.2364  0.2803 -0.9324
 2622TIP3   OH229424   5.114   2.279   1.902  0.3612 -0.1699  0.5372
 2622TIP3    H129425   5.180   2.243   1.962  1.6196  1.5422  0.2625
 2622TIP3    H229426   5.067   2.203   1.869  1.6811 -1.3836  1.3461
 2623TIP3   OH229427   2.116   0.121   0.313 -0.1460 -0.6421  0.3225
 2623TIP3    H129428   2.188   0.089   0.367  0.8685  1.5031  0.3251
 2623TIP3    H229429   2.152   0.122   0.224  0.3170  1.6046  0.4855
 2624TIP3   OH229430   0.086   5.249   6.867 -0.0109 -0.3270  0.2045
 2624TIP3    H129431   0.008   5.198   6.847 -0.1362 -0.9887  2.1851
 2624TIP3    H229432   0.155   5.184   6.880  0.2215  0.0780  1.1049
 2625TIP3   OH229433   5.300   4.767   0.614 -0.5688 -0.0680 -0.6535
 2625TIP3    H129434   5.394   4.785   0.619 -0.5268 -0.0578 -1.3570
 2625TIP3    H229435   5.293   4.687   0.563 -0.9721  0.4012 -1.3650
 2626TIP3   OH229436   0.914   4.034   2.003  0.3608  0.0866 -0.2111
 2626TIP3    H129437   0.857   3.996   1.936  1.0060 -0.6522 -0.3556
 2626TIP3    H229438   0.997   3.988   1.992  0.6105  0.2802  0.8052
 2627TIP3   OH229439   3.663   6.030   7.501 -0.1997 -0.8387 -0.1573
 2627TIP3    H129440   3.579   6.075   7.502 -0.1554 -0.7416 -0.6326
 2627TIP3    H229441   3.664   5.981   7.418  0.6686  0.0370 -0.6853
 2628TIP3   OH229442   0.677   4.265   0.197  0.5001 -0.6036 -0.2427
 2628TIP3    H129443   0.655   4.358   0.204  0.9696 -0.4047 -1.2138
 2628TIP3    H229444   0.698   4.252   0.104  1.0522 -1.5342 -0.0035
 2629TIP3   OH229445   6.285   0.884   0.568  0.1989  0.6378 -0.1619
 2629TIP3    H129446   6.215   0.823   0.592 -0.3493  1.5525  0.6380
 2629TIP3    H229447   6.339   0.835   0.506 -0.8410 -0.2780 -0.3807
 2630TIP3   OH229448   2.874   6.685   7.739 -0.4333 -0.2392 -0.2285
 2630TIP3    H129449   2.883   6.756   7.803 -0.0557 -0.0232 -0.5175
 2630TIP3    H229450   2.907   6.607   7.784  3.7121  0.5975 -1.4124
 2631TIP3   OH229451   2.002   2.701   0.696 -0.0532 -0.2243 -0.0062
 2631TIP3    H129452   2.007   2.633   0.629 -2.7969  0.4387 -1.0014
 2631TIP3    H229453   2.092   2.712   0.725  1.1240 -1.2518 -2.8764
 2632TIP3   OH229454   4.938   0.646   6.803  0.1418 -0.1608 -0.5234
 2632TIP3    H129455   4.932   0.741   6.792  1.8892  0.0751  0.2389
 2632TIP3    H229456   4.907   0.629   6.892 -1.6239 -0.5261 -1.1641
 2633TIP3   OH229457   3.859   6.783   7.389 -0.6038  0.0519  0.7511
 2633TIP3    H129458   3.801   6.738   7.328 -1.7806  1.8270  0.4657
 2633TIP3    H229459   3.944   6.786   7.346 -0.4073 -2.0501  0.9015
 2634TIP3   OH229460   3.478   0.116   6.554 -0.3049 -0.1118 -0.9269
 2634TIP3    H129461   3.542   0.056   6.516  0.1026  0.1451 -0.6526
 2634TIP3    H229462   3.454   0.076   6.638 -1.0248 -0.5576 -1.3379
 2635TIP3   OH229463   7.110   2.339   7.181 -0.1994  0.8975 -0.1303
 2635TIP3    H129464   7.020   2.309   7.168 -1.1139  3.2638  0.2722
 2635TIP3    H229465   7.113   2.424   7.138  1.1813  1.8972  1.8133
 2636TIP3   OH229466   3.074   1.685   6.663 -0.2138  0.3313  0.2395
 2636TIP3    H129467   3.125   1.667   6.584 -0.4008 -1.2079  0.4439
 2636TIP3    H229468   3.075   1.603   6.712 -3.5273 -0.0818 -0.1262
 2637TIP3   OH229469   4.715   4.055   2.692 -0.3570  0.1717  0.6918
 2637TIP3    H129470   4.655   4.093   2.628  0.9270  2.8158  0.9244
 2637TIP3    H229471   4.660   4.037   2.768 -0.9573  2.5908  0.9332
 2638TIP3   OH229472   1.031   3.802   2.615  0.7493 -0.3681  0.1484
 2638TIP3    H129473   1.012   3.741   2.543 -2.0506  2.3606 -1.6648
 2638TIP3    H229474   1.088   3.752   2.673  0.9213 -3.7176 -2.5432
 2639TIP3   OH229475   4.776   2.088   7.331 -0.1428  0.2333 -0.1551
 2639TIP3    H129476   4.757   2.010   7.280  1.2920  0.3894 -0.9845
 2639TIP3    H229477   4.870   2.104   7.317 -0.0314  1.1437  1.3382
 2640TIP3   OH229478   2.658   6.318   2.413  0.3156  0.1902  0.5773
 2640TIP3    H129479   2.711   6.335   2.490  1.6044 -1.0445 -0.0052
 2640TIP3    H229480   2.709   6.257   2.360 -1.9350 -1.5826  0.2664
 2641TIP3   OH229481   6.221   5.583   6.982  0.0140  0.2888 -0.0206
 2641TIP3    H129482   6.314   5.581   6.958 -0.0815 -0.9211 -0.3714
 2641TIP3    H229483   6.183   5.510   6.934 -1.7287  2.5262 -2.3012
 2642TIP3   OH229484   1.775   6.874   1.287  0.1327 -0.3012  0.5829
 2642TIP3    H129485   1.802   6.900   1.199  1.6952  0.7467  1.3295
 2642TIP3    H229486   1.762   6.779   1.281 -0.8124 -0.1133 -0.9996
 2643TIP3   OH229487   0.840   2.335   6.472 -0.0147  0.1662  0.2354
 2643TIP3    H129488   0.906   2.361   6.536 -0.7659 -0.0078  1.1170
 2643TIP3    H229489   0.873   2.254   6.434  0.9129  0.8018 -0.3336
 2644TIP3   OH229490   2.034   3.274   0.964  0.4737 -0.0188  0.2378
 2644TIP3    H129491   2.011   3.202   0.906  1.1571 -1.4867  1.7071
 2644TIP3    H229492   2.129   3.281   0.957  0.5880 -0.3387  1.2662
 2645TIP3   OH229493   3.220   7.035   7.514  0.1179  0.4326 -0.2284
 2645TIP3    H129494   3.210   6.974   7.587  0.1848  0.5551 -0.1159
 2645TIP3    H229495   3.313   7.028   7.489  0.1604  0.5977 -0.1186
 2646TIP3   OH229496   5.904   4.768   0.175 -0.4668 -0.1637 -0.2398
 2646TIP3    H129497   5.977   4.706   0.182  1.3863  1.6414 -2.2822
 2646TIP3    H229498   5.826   4.715   0.196  1.3298 -2.2463  1.6767
 2647TIP3   OH229499   5.131   6.751   0.233 -1.1686  0.5004  0.0971
 2647TIP3    H129500   5.042   6.748   0.198 -1.8923  1.7292  1.7175
 2647TIP3    H229501   5.136   6.677   0.293 -0.1937 -1.1130 -1.8472
 2648TIP3   OH229502   5.199   6.172   0.507 -0.4622 -0.2351  0.0208
 2648TIP3    H129503   5.208   6.216   0.423  1.2647 -0.9152 -0.2016
 2648TIP3    H229504   5.152   6.091   0.488 -0.8651  0.0269 -0.1157
 2649TIP3   OH229505   4.225   3.875   7.060 -0.2394 -0.2213  0.4383
 2649TIP3    H129506   4.137   3.880   7.096 -0.4317 -0.2216 -0.0251
 2649TIP3    H229507   4.267   3.804   7.109 -0.6589 -0.5547  0.3237
 2650TIP3   OH229508   6.111   5.599   7.306 -0.4133  0.2436  0.2488
 2650TIP3    H129509   6.119   5.583   7.212  0.3001 -0.3841  0.4013
 2650TIP3    H229510   6.143   5.518   7.347  0.0364  0.8070  1.0387
 2651TIP3   OH229511   3.316   1.166   6.565  0.2048  0.2198 -0.3733
 2651TIP3    H129512   3.411   1.164   6.577  0.0294 -0.5969  1.1987
 2651TIP3    H229513   3.297   1.086   6.516  0.2743  0.0473 -0.1238
 2652TIP3   OH229514   5.490   4.877   1.042 -0.3282  0.0400 -0.2532
 2652TIP3    H129515   5.532   4.814   1.101 -0.6358 -1.8512 -1.9664
 2652TIP3    H229516   5.399   4.847   1.038 -0.7106  1.1895 -0.3677
 2653TIP3   OH229517   6.068   6.389   1.578 -0.1999  0.5205 -0.0391
 2653TIP3    H129518   6.091   6.444   1.654 -1.6245  0.4806  0.4533
 2653TIP3    H229519   6.074   6.448   1.503  0.0457  0.8828  0.2631
 2654TIP3   OH229520   3.047   5.164   1.520 -0.6668 -0.7228  0.0446
 2654TIP3    H129521   3.128   5.142   1.474  0.7471 -0.3030  2.2128
 2654TIP3    H229522   3.012   5.080   1.550 -0.9395 -0.8789 -0.6786
 2655TIP3   OH229523   2.313   5.379   0.511 -0.1329 -1.1033  0.1766
 2655TIP3    H129524   2.395   5.351   0.470 -0.6315 -1.1955 -0.7878
 2655TIP3    H229525   2.245   5.336   0.460 -0.8311 -0.1731  0.3003
 2656TIP3   OH229526   5.578   1.218   2.216 -0.2718 -0.4834  0.2979
 2656TIP3    H129527   5.505   1.201   2.275 -1.3291  0.6615 -0.6051
 2656TIP3    H229528   5.538   1.219   2.129  0.6611  0.9145 -0.1524
 2657TIP3   OH229529   3.424   3.337   1.083  0.1220  0.2823 -0.3438
 2657TIP3    H129530   3.435   3.335   1.178  0.9380  1.1316 -0.4059
 2657TIP3    H229531   3.375   3.418   1.066  0.8672  0.6607 -0.7180
 2658TIP3   OH229532   4.950   0.919   6.749 -0.6085 -0.0306 -0.3992
 2658TIP3    H129533   4.865   0.958   6.769 -0.2299  1.4510 -1.5060
 2658TIP3    H229534   4.982   0.969   6.673  1.3025 -0.4687  0.0719
 2659TIP3   OH229535   5.653   4.264   1.418  0.1754 -0.0863 -0.0678
 2659TIP3    H129536   5.701   4.188   1.385 -0.9374 -0.5730 -0.5932
 2659TIP3    H229537   5.721   4.322   1.453  1.1745 -0.6080 -1.0985
 2660TIP3   OH229538   0.948   1.986   2.318 -0.1118 -0.2368  0.7111
 2660TIP3    H129539   0.945   2.052   2.387 -0.4145 -0.4495  0.9015
 2660TIP3    H229540   1.006   1.918   2.353 -1.8256 -1.2976  1.6107
 2661TIP3   OH229541   3.557   5.191   1.863 -0.2001  0.1159  0.4800
 2661TIP3    H129542   3.487   5.254   1.876 -1.5306 -1.0202 -0.8432
 2661TIP3    H229543   3.561   5.142   1.945 -0.2747  0.8237  0.9134
 2662TIP3   OH229544   1.774   0.375   1.052  0.3281  0.0933  0.0597
 2662TIP3    H129545   1.832   0.302   1.073  0.0943 -0.1422 -0.1015
 2662TIP3    H229546   1.704   0.335   0.999 -0.6337  0.1373  1.2561
 2663TIP3   OH229547   0.784   4.458   0.606 -0.0111  0.0747  0.2521
 2663TIP3    H129548   0.739   4.541   0.593  0.7406  0.5175  0.4068
 2663TIP3    H229549   0.873   4.474   0.573  0.4196 -0.3624  1.1586
 2664TIP3   OH229550   2.320   2.556   0.249 -0.6573 -0.7889  0.6086
 2664TIP3    H129551   2.344   2.513   0.167  0.6160 -0.9914  1.0678
 2664TIP3    H229552   2.236   2.598   0.230  0.3791  0.5709 -1.3291
 2665TIP3   OH229553   1.492   1.282   1.050 -0.3716 -0.7424 -0.2508
 2665TIP3    H129554   1.403   1.308   1.073 -0.5313 -1.1306 -0.4142
 2665TIP3    H229555   1.531   1.361   1.011  0.7452  0.7580  3.4356
 2666TIP3   OH229556   2.406   3.424   1.926 -0.4629  0.1345  0.0958
 2666TIP3    H129557   2.404   3.410   1.831  0.1839  1.5205 -0.1409
 2666TIP3    H229558   2.317   3.403   1.955 -0.4893 -0.9777 -0.6919
 2667TIP3   OH229559   1.817   5.354   1.204  0.4791  0.4080 -0.1224
 2667TIP3    H129560   1.807   5.269   1.247  1.4133  1.2225  1.8735
 2667TIP3    H229561   1.836   5.333   1.113  0.3267 -1.5072  0.2392
 2668TIP3   OH229562   4.201   0.989   0.745  0.4049  0.4975 -0.3575
 2668TIP3    H129563   4.123   1.046   0.745  1.0323  1.3907  0.2604
 2668TIP3    H229564   4.179   0.919   0.806  0.5716  1.4762  0.8730
 2669TIP3   OH229565   0.949   1.418   1.041 -0.4574 -0.1022 -0.1181
 2669TIP3    H129566   0.936   1.333   0.998  0.8456  0.0468 -0.8601
 2669TIP3    H229567   0.992   1.472   0.975 -0.2764  0.7902  0.7096
 2670TIP3   OH229568   3.226   0.208   1.551 -0.3353 -0.1418 -0.0563
 2670TIP3    H129569   3.250   0.274   1.486 -2.8827  0.6545 -0.2769
 2670TIP3    H229570   3.254   0.125   1.512 -1.0111  0.3976 -1.7841
 2671TIP3   OH229571   0.959   3.079   7.731  0.2929 -0.1555  0.0367
 2671TIP3    H129572   0.947   3.018   7.659  1.7178  0.1726 -0.5207
 2671TIP3    H229573   0.872   3.088   7.770 -0.0329 -2.2428 -0.0880
 2672TIP3   OH229574   0.763   3.512   0.849 -0.2955  0.4472  0.3027
 2672TIP3    H129575   0.762   3.416   0.841 -1.7551  0.5383 -1.0671
 2672TIP3    H229576   0.758   3.528   0.943 -2.3616 -0.8490  0.4780
 2673TIP3   OH229577   1.906   6.104   6.325  0.0804 -0.4560 -0.3788
 2673TIP3    H129578   1.875   6.027   6.372  2.7817 -1.9077 -0.7814
 2673TIP3    H229579   1.972   6.143   6.383 -0.5636  1.0195 -0.5999
 2674TIP3   OH229580   3.057   1.170   1.840 -0.4803  0.0914 -0.2279
 2674TIP3    H129581   2.981   1.228   1.838  1.0588  2.2956  0.9132
 2674TIP3    H229582   3.088   1.167   1.750 -0.8730  0.6642 -0.3868
 2675TIP3   OH229583   3.829   4.462   1.195  0.2774 -0.3167 -0.3209
 2675TIP3    H129584   3.750   4.473   1.248  1.6348  0.6106  1.6591
 2675TIP3    H229585   3.833   4.369   1.175 -0.7841 -0.5378  0.4448
 2676TIP3   OH229586   7.008   6.748   7.811 -0.1094  0.4379 -0.5035
 2676TIP3    H129587   7.039   6.765   7.901 -1.2111 -0.1100 -0.0060
 2676TIP3    H229588   6.913   6.756   7.817 -0.2205 -0.0291 -1.5475
 2677TIP3   OH229589   6.846   3.611   7.532 -0.1900 -0.4163  0.4754
 2677TIP3    H129590   6.813   3.567   7.454 -3.0183 -1.5173  2.1600
 2677TIP3    H229591   6.856   3.542   7.597 -0.7968  0.8418  1.9821
 2678TIP3   OH229592   5.209   6.939   0.872  0.0613  0.0716 -0.2107
 2678TIP3    H129593   5.187   7.013   0.816  0.9936 -0.3963 -1.2452
 2678TIP3    H229594   5.126   6.912   0.911 -0.6966  0.2066 -1.6522
 2679TIP3   OH229595   6.875   4.074   0.723  0.1096 -0.5684  0.2439
 2679TIP3    H129596   6.820   4.059   0.646 -0.7035  2.3721  0.1349
 2679TIP3    H229597   6.942   4.135   0.693  0.3236 -0.0809  1.6369
 2680TIP3   OH229598   4.993   4.823   7.611 -0.0184 -1.0070 -0.0056
 2680TIP3    H129599   4.967   4.888   7.677 -0.6961 -0.6147 -0.6466
 2680TIP3    H229600   5.039   4.756   7.661 -0.9291 -0.9540  0.9480
 2681TIP3   OH229601   5.205   2.255   6.680 -0.0468 -0.2100 -0.0566
 2681TIP3    H129602   5.166   2.210   6.755 -3.1144  4.5420  1.6319
 2681TIP3    H229603   5.141   2.244   6.610  0.1373 -0.0580 -0.2502
 2682TIP3   OH229604   5.839   5.591   6.449 -0.3503  0.1468  0.2030
 2682TIP3    H129605   5.830   5.575   6.355  1.1771 -0.5749  0.1511
 2682TIP3    H229606   5.850   5.503   6.487 -1.6060  0.3781  1.1480
 2683TIP3   OH229607   2.100   6.453   0.411 -0.0325  0.4789 -0.2946
 2683TIP3    H129608   2.076   6.527   0.355  0.3125  1.2422  0.5538
 2683TIP3    H229609   2.188   6.429   0.382  0.0292  0.6824 -0.2776
 2684TIP3   OH229610   6.191   6.587   5.595  0.2131 -0.8843  0.0329
 2684TIP3    H129611   6.097   6.568   5.597  0.4158 -2.2159 -1.3057
 2684TIP3    H229612   6.210   6.626   5.680 -1.4812 -0.8861  0.4443
 2685TIP3   OH229613   4.962   6.273   6.709  0.8588 -0.2082 -0.3194
 2685TIP3    H129614   4.900   6.329   6.756  1.5305 -0.1641  0.5281
 2685TIP3    H229615   4.960   6.190   6.757  1.1650 -0.3422 -0.5331
 2686TIP3   OH229616   6.148   4.737   7.802  0.1368  0.3891  0.1694
 2686TIP3    H129617   6.155   4.730   7.897 -1.5253  0.1265  0.3081
 2686TIP3    H229618   6.125   4.649   7.772 -2.7645  1.1136 -0.0501
 2687TIP3   OH229619   6.928   0.017   7.948 -0.6583 -0.4207  0.5069
 2687TIP3    H129620   6.843   0.017   7.904 -0.5221 -1.1724  0.2294
 2687TIP3    H229621   6.991   0.042   7.881 -0.4167 -1.8278  0.1781
 2688TIP3   OH229622   4.226   6.623   0.670 -0.5957  0.4003 -0.1017
 2688TIP3    H129623   4.240   6.661   0.583  0.2110  0.7903  0.1922
 2688TIP3    H229624   4.143   6.576   0.662 -0.5973  0.5403 -1.0475
 2689TIP3   OH229625   4.641   6.553   2.409 -0.1168 -0.4299 -0.0957
 2689TIP3    H129626   4.715   6.505   2.371  1.5924  0.9104  1.3363
 2689TIP3    H229627   4.677   6.641   2.426 -2.4853  0.7270 -0.6736
 2690TIP3   OH229628   7.063   2.556   6.574 -0.1588 -0.2103 -0.8651
 2690TIP3    H129629   7.010   2.501   6.517 -0.1112 -1.1767 -0.0015
 2690TIP3    H229630   7.120   2.495   6.621  0.3400  0.6303 -0.3443
 2691TIP3   OH229631   4.219   5.396   1.522  0.0367  0.3031  0.4447
 2691TIP3    H129632   4.139   5.417   1.475  0.3730 -1.5704 -1.0824
 2691TIP3    H229633   4.194   5.327   1.583  0.3201  0.2860  0.5436
 2692TIP3   OH229634   1.052   1.155   0.527  0.1515 -0.4668  0.3644
 2692TIP3    H129635   1.145   1.150   0.550  0.5823  0.1424 -1.1064
 2692TIP3    H229636   1.042   1.091   0.457  0.0483  1.1175 -1.1494
 2693TIP3   OH229637   2.914   5.235   7.893  0.7655  0.7069  0.1049
 2693TIP3    H129638   2.909   5.328   7.917  0.5373  0.5008  0.8751
 2693TIP3    H229639   2.907   5.188   7.976 -0.0153 -0.0251 -0.3582
 2694TIP3   OH229640   6.130   6.283   0.816 -0.0848  0.1514 -0.7030
 2694TIP3    H129641   6.036   6.280   0.835 -0.2548  0.3881 -1.4399
 2694TIP3    H229642   6.156   6.373   0.835  0.6654 -0.5939  2.3324
 2695TIP3   OH229643   3.939   3.652   2.073 -0.0411 -0.5538 -0.3028
 2695TIP3    H129644   3.905   3.648   2.162  1.4394  1.6220  0.4288
 2695TIP3    H229645   3.867   3.689   2.022  0.0565  0.9070  0.5708
 2696TIP3   OH229646   6.025   3.880   7.227 -0.7108 -0.6087  0.2249
 2696TIP3    H129647   5.931   3.860   7.222 -0.7662 -0.2237 -0.3363
 2696TIP3    H229648   6.035   3.960   7.175  0.1976 -1.5536 -1.0920
 2697TIP3   OH229649   3.946   6.050   1.913 -0.1882  0.0687 -0.4603
 2697TIP3    H129650   3.875   6.055   1.977 -0.5050  0.9488 -0.8596
 2697TIP3    H229651   3.908   6.086   1.832  0.8962  1.1773 -0.5081
 2698TIP3   OH229652   1.880   0.143   1.135  0.1204  0.8010  0.5328
 2698TIP3    H129653   1.969   0.108   1.131 -0.0917  0.3389 -1.0342
 2698TIP3    H229654   1.842   0.104   1.213  0.7761 -0.3292  0.3124
 2699TIP3   OH229655   1.259   3.792   0.922 -0.8478  0.1694 -0.1559
 2699TIP3    H129656   1.226   3.878   0.951 -1.4933 -0.2129  0.2624
 2699TIP3    H229657   1.327   3.771   0.986 -0.4934  0.4940 -0.4218
 2700TIP3   OH229658   4.489   6.783   1.348 -0.2227  0.0772  0.1710
 2700TIP3    H129659   4.547   6.716   1.312  0.7951  0.9580  0.0988
 2700TIP3    H229660   4.429   6.804   1.276  0.1184 -0.0301 -0.1480
 2701TIP3   OH229661   0.013   2.507   6.920 -0.3391  0.1324 -0.6829
 2701TIP3    H129662  -0.071   2.547   6.899  0.7376  2.0841 -1.4965
 2701TIP3    H229663   0.033   2.452   6.844  0.2178  1.5955 -1.6396
 2702TIP3   OH229664   0.506   3.136   6.548  0.1246  0.4246 -0.3838
 2702TIP3    H129665   0.537   3.046   6.535 -1.4568 -0.0514 -1.1604
 2702TIP3    H229666   0.481   3.139   6.641  1.7006  0.6006  0.0670
 2703TIP3   OH229667   0.475   0.178   7.734  0.2283 -0.0598 -0.0733
 2703TIP3    H129668   0.440   0.117   7.798 -0.9407 -0.1854 -0.7853
 2703TIP3    H229669   0.570   0.175   7.746  0.1054 -1.0144  0.7863
 2704TIP3   OH229670   2.684   6.268   1.117 -0.1464 -0.1117  0.3374
 2704TIP3    H129671   2.674   6.187   1.068  1.8525  1.0603 -2.2283
 2704TIP3    H229672   2.600   6.278   1.163 -1.4213 -2.3004 -1.2923
 2705TIP3   OH229673   3.548   2.796   1.657  0.2784 -0.2574 -0.1794
 2705TIP3    H129674   3.528   2.705   1.679  1.9802 -0.6511 -0.1796
 2705TIP3    H229675   3.478   2.847   1.698 -0.1286 -1.4809  0.6746
 2706TIP3   OH229676   1.337   1.846   1.664  0.2288 -0.1289 -0.4587
 2706TIP3    H129677   1.325   1.941   1.653  0.8001 -0.1184 -1.1070
 2706TIP3    H229678   1.256   1.808   1.631 -0.8220  0.1986  1.6212
 2707TIP3   OH229679   2.557   4.597   0.183  0.2380 -0.3533  0.3383
 2707TIP3    H129680   2.591   4.508   0.195  1.9519  0.1501 -0.4594
 2707TIP3    H229681   2.469   4.584   0.147  0.6870 -1.7331 -0.3498
 2708TIP3   OH229682   4.847   4.187   0.162 -0.1710  0.4723 -0.1157
 2708TIP3    H129683   4.928   4.222   0.200 -0.1444  0.4065 -0.1116
 2708TIP3    H229684   4.802   4.144   0.235  0.3401 -0.5018 -0.3549
 2709TIP3   OH229685   3.436   2.261   6.485  0.0992 -0.1049 -0.2034
 2709TIP3    H129686   3.398   2.174   6.497  0.7328 -0.1988  1.2371
 2709TIP3    H229687   3.429   2.303   6.571  0.3740  1.0489 -0.7185
 2710TIP3   OH229688   0.198   6.433   0.270  0.1324 -0.5609  0.0461
 2710TIP3    H129689   0.222   6.511   0.219 -0.5616 -0.5049 -0.2074
 2710TIP3    H229690   0.102   6.435   0.272  0.1300 -1.0936  0.5380
 2711TIP3   OH229691   3.145   3.574   2.172  0.6691 -0.0421  0.0927
 2711TIP3    H129692   3.161   3.598   2.263 -0.6894 -1.2331  0.6790
 2711TIP3    H229693   3.152   3.479   2.170  0.3036 -0.0673 -0.9648
 2712TIP3   OH229694   3.883   0.430   0.564 -0.8395 -0.1353 -0.2552
 2712TIP3    H129695   3.860   0.516   0.599  0.3589  0.2409 -0.3226
 2712TIP3    H229696   3.838   0.368   0.620 -0.5088  0.5025  0.7347
 2713TIP3   OH229697   4.677   1.289   0.889  0.1962 -0.1770 -0.4595
 2713TIP3    H129698   4.594   1.253   0.859  0.1189 -0.0808 -0.3601
 2713TIP3    H229699   4.665   1.303   0.983 -0.5699  2.2233 -0.8494
 2714TIP3   OH229700   6.842   2.145   7.506 -0.5193 -0.5281 -1.1010
 2714TIP3    H129701   6.871   2.236   7.515  0.1227 -0.8042 -0.2186
 2714TIP3    H229702   6.921   2.097   7.485 -1.0975 -0.7031 -2.9994
 2715TIP3   OH229703   0.075   2.101   1.555 -0.2205 -0.2054  0.4740
 2715TIP3    H129704   0.046   2.010   1.547 -0.8999 -0.1775  2.1848
 2715TIP3    H229705   0.153   2.106   1.500 -1.0626 -1.3887 -0.9052
 2716TIP3   OH229706   3.745   3.874   1.227 -0.0705  0.1962  0.0715
 2716TIP3    H129707   3.768   3.839   1.313  0.4699 -1.2473 -0.6419
 2716TIP3    H229708   3.803   3.829   1.166 -0.5588  1.0838 -1.0822
 2717TIP3   OH229709   5.283   2.642   2.120  0.2828  0.2449 -0.4213
 2717TIP3    H129710   5.333   2.664   2.199  0.5494  1.0664 -0.7957
 2717TIP3    H229711   5.326   2.564   2.085 -1.2865 -1.5424  1.4792
 2718TIP3   OH229712   5.978   0.128   1.341  0.1219  0.1275  0.5248
 2718TIP3    H129713   6.047   0.101   1.401 -0.4805  2.0962  2.2077
 2718TIP3    H229714   5.897   0.120   1.391 -0.6807 -0.2809 -0.7682
 2719TIP3   OH229715   6.263   2.611   1.458  0.1346  0.5325  0.1589
 2719TIP3    H129716   6.172   2.640   1.448  0.1575  0.0738 -1.6063
 2719TIP3    H229717   6.256   2.521   1.490 -0.0098  0.6386  0.4332
 2720TIP3   OH229718   0.334   0.122   0.719 -0.4535  0.1364 -1.6093
 2720TIP3    H129719   0.239   0.135   0.723 -0.4830 -0.1964  1.0417
 2720TIP3    H229720   0.345   0.034   0.684 -1.3901 -1.1612  1.0548
 2721TIP3   OH229721   1.124   0.206   0.437 -0.1380 -0.1318 -0.1603
 2721TIP3    H129722   1.145   0.113   0.432  0.6343 -0.1073  1.7309
 2721TIP3    H229723   1.182   0.240   0.504 -1.1691  1.4932 -0.0356
 2722TIP3   OH229724   3.054   2.467   7.080 -0.0527  0.2327 -0.2413
 2722TIP3    H129725   3.092   2.461   6.992  2.4656 -0.7797  0.8066
 2722TIP3    H229726   3.099   2.398   7.130 -2.0680  0.1746  1.6289
 2723TIP3   OH229727   0.712   2.785   7.006 -0.1445 -0.2170  0.0732
 2723TIP3    H129728   0.691   2.809   6.916  0.1548 -2.7111 -0.7218
 2723TIP3    H229729   0.803   2.811   7.018  0.4621 -1.7163 -1.0684
 2724TIP3   OH229730   5.644   0.285   0.294  0.0731  0.4581  0.3642
 2724TIP3    H129731   5.644   0.366   0.345  1.3769  1.0149 -0.4771
 2724TIP3    H229732   5.563   0.290   0.242 -0.3058  0.7747  0.9707
 2725TIP3   OH229733   3.245   5.365   7.576 -0.0732  0.4529  0.0442
 2725TIP3    H129734   3.333   5.371   7.613  0.4080 -0.1376 -0.9864
 2725TIP3    H229735   3.220   5.273   7.588 -0.1470  0.3935 -0.5591
 2726TIP3   OH229736   2.219   2.974   0.910 -0.8899 -0.0533  0.5953
 2726TIP3    H129737   2.252   3.000   0.824 -2.0387 -1.7488 -0.4177
 2726TIP3    H229738   2.126   2.956   0.896 -0.8521 -1.4781  1.9014
 2727TIP3   OH229739   5.631   6.335   0.242 -0.5460 -0.3725  0.1491
 2727TIP3    H129740   5.671   6.318   0.157 -0.5111 -0.4758  0.1856
 2727TIP3    H229741   5.537   6.344   0.222 -0.2127  3.2687 -0.4403
 2728TIP3   OH229742   3.524   6.842   6.796 -0.5423  0.3490 -0.3961
 2728TIP3    H129743   3.514   6.773   6.730  1.9729  0.6618 -1.2410
 2728TIP3    H229744   3.461   6.820   6.864  0.2431 -2.8954 -0.5644
 2729TIP3   OH229745   3.875   1.825   0.359 -0.4838 -0.1295 -0.0134
 2729TIP3    H129746   3.905   1.916   0.362 -0.5550 -0.0944 -0.3002
 2729TIP3    H229747   3.882   1.794   0.449  0.1838 -0.0436 -0.0272
 2730TIP3   OH229748   2.165   5.608   2.353  0.2904  0.3499  0.0655
 2730TIP3    H129749   2.252   5.586   2.387  0.2674 -0.3556 -0.3221
 2730TIP3    H229750   2.142   5.535   2.296  0.4161  1.5985 -1.6776
 2731TIP3   OH229751   6.339   2.435   7.387 -0.1175 -0.5039  0.1473
 2731TIP3    H129752   6.398   2.386   7.330  0.6512  1.2757 -0.6533
 2731TIP3    H229753   6.388   2.444   7.469  0.7804  0.9070 -0.4900
 2732TIP3   OH229754   3.433   2.012   7.994  0.1427  0.1188  0.2232
 2732TIP3    H129755   3.354   1.958   7.991  0.5883 -0.5081 -0.9019
 2732TIP3    H229756   3.496   1.961   8.044  0.3160 -0.0587 -0.1748
 2733TIP3   OH229757   5.145   5.534   0.535 -0.2199 -0.6824 -0.5438
 2733TIP3    H129758   5.174   5.587   0.461 -0.7865  0.0758 -0.2329
 2733TIP3    H229759   5.222   5.482   0.558  0.5270  0.3682 -0.5471
 2734TIP3   OH229760   4.015   4.448   0.141  0.2755  0.7299  0.3459
 2734TIP3    H129761   3.921   4.433   0.152  0.1352  1.5886  0.4424
 2734TIP3    H229762   4.030   4.437   0.047 -0.0454  1.1715  0.2361
 2735TIP3   OH229763   5.595   1.521   0.660  0.2663  0.4700  0.3402
 2735TIP3    H129764   5.599   1.592   0.724 -1.2671  0.6081  0.3171
 2735TIP3    H229765   5.540   1.555   0.590  0.3968 -0.3583 -0.1781
 2736TIP3   OH229766   4.607   6.998   2.014 -0.1150  0.5803  0.4808
 2736TIP3    H129767   4.555   6.962   1.942 -0.8928 -0.3559  1.4773
 2736TIP3    H229768   4.575   6.953   2.091  2.0257  0.1418  1.1803
 2737TIP3   OH229769   5.976   6.327   6.860 -0.0516  0.5201 -0.3908
 2737TIP3    H129770   5.904   6.267   6.880  1.5435 -0.5646  2.7745
 2737TIP3    H229771   6.038   6.274   6.810 -0.7706  1.0338 -1.8654
 2738TIP3   OH229772   6.396   6.389   0.835  0.2672 -0.0290 -0.6969
 2738TIP3    H129773   6.416   6.345   0.917  0.0518  1.7486  0.3631
 2738TIP3    H229774   6.435   6.333   0.768  1.1825 -1.0985  0.6660
 2739TIP3   OH229775   6.197   4.312   1.922  0.2936  0.0899  0.3171
 2739TIP3    H129776   6.122   4.360   1.886 -0.5487 -0.7139  0.9492
 2739TIP3    H229777   6.211   4.240   1.862 -0.6080 -0.7940  1.1308
 2740TIP3   OH229778   0.789   1.298   1.585  0.1083 -0.0664 -0.0305
 2740TIP3    H129779   0.805   1.204   1.591  4.0898  0.4019 -0.3341
 2740TIP3    H229780   0.773   1.314   1.492  1.5125 -0.2887 -0.3395
 2741TIP3   OH229781   1.859   5.103   1.888 -0.3115 -0.1413 -0.5672
 2741TIP3    H129782   1.781   5.081   1.939 -0.3999  0.6777 -0.3414
 2741TIP3    H229783   1.907   5.165   1.943  1.4210 -1.9500  0.0945
 2742TIP3   OH229784   4.030   0.155   7.092 -0.3917 -0.2377  0.2839
 2742TIP3    H129785   3.983   0.074   7.113  0.8540 -1.0480  0.0524
 2742TIP3    H229786   3.994   0.181   7.007 -0.2748 -0.9753 -0.0011
 2743TIP3   OH229787   0.704   2.834   1.642  0.1527 -0.1220  0.5423
 2743TIP3    H129788   0.697   2.930   1.652  0.9823  0.0362 -0.3147
 2743TIP3    H229789   0.701   2.819   1.548  1.4253 -0.8091  0.5846
 2744TIP3   OH229790   1.967   3.746   0.527 -0.6773  0.3255  0.0109
 2744TIP3    H129791   1.975   3.765   0.621  0.7168 -2.1518  0.4661
 2744TIP3    H229792   1.950   3.652   0.523 -1.3724  0.4937 -2.2327
 2745TIP3   OH229793   2.793   6.481   0.645  0.0895 -0.3141 -0.3516
 2745TIP3    H129794   2.826   6.569   0.628 -1.1574 -0.2948 -3.1009
 2745TIP3    H229795   2.756   6.452   0.562  0.0732 -3.3005  0.5796
 2746TIP3   OH229796   2.265   2.789   0.003  0.0466 -0.7718  0.1989
 2746TIP3    H129797   2.340   2.833   0.043 -1.0884  1.1197  0.3615
 2746TIP3    H229798   2.303   2.733  -0.064  1.6593 -0.5672  0.8921
 2747TIP3   OH229799   3.900   0.580   1.484  0.9211  0.0066 -0.1808
 2747TIP3    H129800   3.898   0.592   1.578  2.1253 -0.4989 -0.0719
 2747TIP3    H229801   3.925   0.488   1.472 -2.2101 -0.8711 -0.9867
 2748TIP3   OH229802   2.348   4.339   0.444  0.0651  0.4054 -0.1721
 2748TIP3    H129803   2.323   4.430   0.431 -0.1002  0.3751 -0.0684
 2748TIP3    H229804   2.443   4.342   0.458  0.3959  0.3611 -2.2129
 2749TIP3   OH229805   5.216   0.690   2.744  0.1109 -0.2765  0.0806
 2749TIP3    H129806   5.150   0.704   2.677 -0.0783 -1.5634 -0.0255
 2749TIP3    H229807   5.251   0.602   2.726  1.4147  0.1244  0.5084
 2750TIP3   OH229808   1.823   2.525   1.449 -0.3308  0.7768 -0.1804
 2750TIP3    H129809   1.802   2.432   1.438 -0.7822  0.9446 -0.8072
 2750TIP3    H229810   1.779   2.568   1.376  0.3638  1.4165 -0.2342
 2751TIP3   OH229811   3.796   2.762   6.795 -0.0981  0.3233 -0.0356
 2751TIP3    H129812   3.739   2.686   6.808 -1.0369  0.9745 -0.2657
 2751TIP3    H229813   3.857   2.735   6.726  1.0549 -1.0138  1.4259
 2752TIP3   OH229814   6.068   1.734   0.892 -0.2883  0.0497  0.6741
 2752TIP3    H129815   6.052   1.716   0.799 -1.7782 -1.7487  1.2033
 2752TIP3    H229816   6.086   1.828   0.896 -0.2544  0.1743 -1.4221
 2753TIP3   OH229817   4.200   2.852   0.197  0.0347 -0.3524 -1.0012
 2753TIP3    H129818   4.175   2.886   0.111  0.0062 -1.1087 -1.2997
 2753TIP3    H229819   4.295   2.866   0.201  0.2945 -1.7035 -1.8084
 2754TIP3   OH229820   5.409   1.415   1.387  0.0935 -0.2129 -0.1480
 2754TIP3    H129821   5.390   1.328   1.352 -1.1419 -0.0603  0.1043
 2754TIP3    H229822   5.473   1.452   1.326  1.0053 -1.4622 -0.0057
 2755TIP3   OH229823   0.015   5.571   1.932  0.2681  0.5666  0.4252
 2755TIP3    H129824  -0.004   5.656   1.972 -1.6245 -0.6007  2.2261
 2755TIP3    H229825   0.110   5.568   1.926  0.3855  2.8626  0.1165
 2756TIP3   OH229826   0.747   3.840   7.768  0.4070 -0.4792 -0.1233
 2756TIP3    H129827   0.746   3.798   7.681  2.3681 -1.6820  0.3625
 2756TIP3    H229828   0.715   3.772   7.827  2.0292 -0.7918  0.4536
 2757TIP3   OH229829   3.993   5.688   0.291  0.3392  0.4497  0.0960
 2757TIP3    H129830   3.968   5.673   0.199  0.0341 -1.3509  0.4346
 2757TIP3    H229831   3.912   5.674   0.340  1.0267 -1.1863  0.8370
 2758TIP3   OH229832   2.919   0.373   0.953  0.0604 -0.6417 -0.0852
 2758TIP3    H129833   2.871   0.327   1.022  0.2691  0.9613  1.1959
 2758TIP3    H229834   2.867   0.452   0.936  1.9835  0.9839  1.1273
 2759TIP3   OH229835   4.111   5.217   0.891 -0.9352  0.0008 -0.4326
 2759TIP3    H129836   4.163   5.293   0.916  1.9431 -1.2295 -2.1669
 2759TIP3    H229837   4.052   5.250   0.823 -1.3459  1.1243  0.4474
 2760TIP3   OH229838   5.523   4.850   0.414 -0.2226 -0.2476 -0.0719
 2760TIP3    H129839   5.547   4.845   0.321  1.2344 -0.1794  0.2912
 2760TIP3    H229840   5.541   4.941   0.439  0.7896 -0.6357  0.6451
 2761TIP3   OH229841   6.169   6.124   1.448  0.8582 -0.3274  0.1489
 2761TIP3    H129842   6.151   6.130   1.354  0.5693 -0.1857  0.2151
 2761TIP3    H229843   6.197   6.212   1.473  0.0037 -0.1188  0.3930
 2762TIP3   OH229844   1.911   6.821   7.542 -0.2164 -0.1359 -0.4488
 2762TIP3    H129845   1.837   6.810   7.482  0.3128 -0.5417 -1.0325
 2762TIP3    H229846   1.984   6.779   7.498 -0.1206 -1.6953  1.1126
 2763TIP3   OH229847   3.604   1.586   1.882 -0.4122  0.6026 -0.1440
 2763TIP3    H129848   3.614   1.496   1.853  1.6937  0.6530  0.2802
 2763TIP3    H229849   3.573   1.580   1.972  2.2155  0.1535  0.8206
 2764TIP3   OH229850   2.887   5.040   0.098  0.1266 -0.2071  0.1312
 2764TIP3    H129851   2.846   4.979   0.159 -0.7409  1.5124  1.3411
 2764TIP3    H229852   2.842   5.026   0.015 -0.3345 -0.9091  0.4931
 2765TIP3   OH229853   6.058   1.330   7.284 -0.0570 -0.2281  0.7662
 2765TIP3    H129854   6.078   1.381   7.205 -0.4876 -0.0834  0.7491
 2765TIP3    H229855   6.070   1.391   7.356  1.7137 -0.7270  0.9412
 2766TIP3   OH229856   6.367   2.861   1.307 -0.6088  0.2362  0.1591
 2766TIP3    H129857   6.358   2.793   1.375  0.5573  2.2129  2.4236
 2766TIP3    H229858   6.279   2.868   1.269 -0.6101 -3.0137 -0.7378
 2767TIP3   OH229859   3.423   5.091   7.252 -0.2293  0.0587  0.3378
 2767TIP3    H129860   3.446   5.173   7.295 -1.0242 -0.0648  1.0398
 2767TIP3    H229861   3.340   5.110   7.207 -0.7637 -0.5249  1.0528
 2768TIP3   OH229862   1.183   6.519   1.439  0.1630  0.1985 -0.5226
 2768TIP3    H129863   1.125   6.520   1.515  0.2305  1.4530 -0.4665
 2768TIP3    H229864   1.255   6.461   1.465  0.5251  1.1304  0.6541
 2769TIP3   OH229865   2.495   6.385   6.479  0.0382 -0.3690  0.0035
 2769TIP3    H129866   2.516   6.476   6.499  0.6691 -0.6385  0.6342
 2769TIP3    H229867   2.469   6.348   6.564 -0.4916 -0.6993 -0.3031
 2770TIP3   OH229868   6.128   7.142   0.177  0.1866 -0.2781  0.1474
 2770TIP3    H129869   6.186   7.067   0.166  1.9031  0.6604  2.2479
 2770TIP3    H229870   6.046   7.105   0.210  0.2656 -1.3891 -0.8407
 2771TIP3   OH229871   3.613   4.084   0.295 -0.2587  0.1395  0.0308
 2771TIP3    H129872   3.681   4.145   0.325  0.7364 -1.4408  1.1229
 2771TIP3    H229873   3.648   4.048   0.213 -0.1666 -0.0736  0.1654
 2772TIP3   OH229874   0.426   0.328   1.317  1.1225  0.5117  0.1069
 2772TIP3    H129875   0.446   0.407   1.367 -3.7864  2.7276 -0.8228
 2772TIP3    H229876   0.453   0.350   1.227  2.9513 -0.4101  0.3835
 2773TIP3   OH229877   2.557   5.621   7.183  0.1084  0.9435  0.3056
 2773TIP3    H129878   2.550   5.612   7.088  0.4542  0.7096  0.2992
 2773TIP3    H229879   2.637   5.573   7.206 -0.9845 -0.6934  0.9446
 2774TIP3   OH229880   2.350   5.129   6.611  0.2066 -0.5880  0.3902
 2774TIP3    H129881   2.433   5.092   6.579  0.1390 -0.6064  0.2335
 2774TIP3    H229882   2.283   5.081   6.563  0.0191 -1.9164  1.8892
 2775TIP3   OH229883   6.131   5.959   0.151  0.3590 -0.0286  0.6772
 2775TIP3    H129884   6.135   5.941   0.057  0.3319  1.5450  0.3492
 2775TIP3    H229885   6.216   5.997   0.172  0.4842 -0.6777  1.3698
 2776TIP3   OH229886   5.593   2.178   0.196  0.4401  0.6438 -0.4239
 2776TIP3    H129887   5.592   2.195   0.290  0.7310 -0.6229 -0.1683
 2776TIP3    H229888   5.525   2.235   0.161 -1.8266 -0.9812  0.9797
 2777TIP3   OH229889   1.148   1.327   0.146 -0.2955  0.0840 -0.0033
 2777TIP3    H129890   1.082   1.325   0.077 -1.2403  1.7089  0.8075
 2777TIP3    H229891   1.157   1.236   0.174 -1.8426 -0.2215 -0.4425
 2778TIP3   OH229892   0.316   0.763   0.812 -0.2558 -0.2369 -0.0156
 2778TIP3    H129893   0.268   0.831   0.765 -0.9430  0.0694  1.1164
 2778TIP3    H229894   0.328   0.694   0.746 -2.3440 -0.3783 -0.3315
 2779TIP3   OH229895   3.626   2.165   7.842 -0.0323  0.3250  0.0037
 2779TIP3    H129896   3.549   2.117   7.873  0.1363 -1.5811 -2.2548
 2779TIP3    H229897   3.591   2.236   7.789 -0.3744 -1.5772 -2.5091
 2780TIP3   OH229898   0.805   0.102   1.580  0.0266  0.2331 -0.5063
 2780TIP3    H129899   0.795   0.188   1.540  1.1918  1.4123  1.6070
 2780TIP3    H229900   0.799   0.041   1.506 -1.8429  1.9988 -1.9380
 2781TIP3   OH229901   4.115   4.238   1.731 -0.8601  0.5049 -0.2773
 2781TIP3    H129902   4.142   4.147   1.719  1.5179  0.7372  2.2569
 2781TIP3    H229903   4.159   4.285   1.661 -1.1451 -0.1337 -0.8995
 2782TIP3   OH229904   3.571   5.622   7.851 -0.4018 -0.7191  0.1152
 2782TIP3    H129905   3.498   5.659   7.800 -0.0414 -0.4121 -0.1785
 2782TIP3    H229906   3.528   5.570   7.919 -1.0344  2.2281  2.1805
 2783TIP3   OH229907   4.702   2.809   7.633  0.3701 -0.1030 -0.0995
 2783TIP3    H129908   4.638   2.833   7.699 -1.3682 -2.3625 -0.8120
 2783TIP3    H229909   4.656   2.820   7.550  1.5050 -0.1080 -0.7476
 2784TIP3   OH229910   5.804   4.080   6.731 -0.0112  0.1991  0.6740
 2784TIP3    H129911   5.868   4.145   6.759 -1.6240  2.7309 -1.1011
 2784TIP3    H229912   5.720   4.114   6.762 -1.0127 -0.5721 -1.0253
 2785TIP3   OH229913   2.690   3.092   0.010  0.1574 -0.2135 -0.1845
 2785TIP3    H129914   2.720   3.089  -0.081 -0.7216  2.0840 -0.6221
 2785TIP3    H229915   2.740   3.163   0.049 -0.9215  0.1671  0.5395
 2786TIP3   OH229916   5.252   0.077   1.587 -0.7592  0.5665  0.6414
 2786TIP3    H129917   5.287   0.026   1.660  0.6227  1.5199  0.6730
 2786TIP3    H229918   5.191   0.018   1.544 -0.9454 -0.3114  2.0499
 2787TIP3   OH229919   3.144   2.978   0.515 -0.6256 -0.2568 -0.0553
 2787TIP3    H129920   3.195   3.028   0.451  1.3052 -0.5191  1.1711
 2787TIP3    H229921   3.198   2.980   0.594 -1.3557 -2.7108  0.5869
 2788TIP3   OH229922   3.689   5.433   1.249 -0.1542  0.1563 -0.5275
 2788TIP3    H129923   3.619   5.456   1.310 -1.0003  0.4429 -1.5984
 2788TIP3    H229924   3.750   5.507   1.255 -0.4463  0.3868 -0.3652
 2789TIP3   OH229925   1.711   2.479   2.001  0.0740  0.6102 -0.1638
 2789TIP3    H129926   1.795   2.453   1.965  1.4174  0.0340  3.0109
 2789TIP3    H229927   1.651   2.409   1.974  0.6584  0.8106 -2.1221
 2790TIP3   OH229928   4.891   0.823   1.687  0.0657 -0.2298 -0.4427
 2790TIP3    H129929   4.917   0.740   1.726  2.1111  0.4706 -0.1992
 2790TIP3    H229930   4.869   0.879   1.762  2.2036  0.5346 -0.3220
 2791TIP3   OH229931   4.135   3.084   1.891  0.2333 -0.0858  0.0012
 2791TIP3    H129932   4.109   3.069   1.982  1.0808  1.6564  0.5738
 2791TIP3    H229933   4.191   3.009   1.869 -0.4461 -0.8119  0.7124
 2792TIP3   OH229934   2.981   2.780   0.235 -0.3445 -0.3576  0.0147
 2792TIP3    H129935   2.934   2.702   0.264 -0.7325  0.0692  0.5687
 2792TIP3    H229936   2.922   2.852   0.256 -0.3748  0.0255 -1.3214
 2793TIP3   OH229937   4.389   5.439   0.036 -0.4586  0.3686  0.2240
 2793TIP3    H129938   4.381   5.520   0.087 -3.9968 -0.2173  0.8006
 2793TIP3    H229939   4.343   5.457  -0.046  0.7988 -0.3494 -0.6794
 2794TIP3   OH229940   1.323   1.555   7.583  0.1369  1.3390  0.3051
 2794TIP3    H129941   1.361   1.480   7.628 -0.3806 -0.5993 -2.2321
 2794TIP3    H229942   1.357   1.548   7.493 -1.3342  3.1288 -0.4483
 2795TIP3   OH229943   6.998   7.090   1.620  0.4116  0.0550  0.4698
 2795TIP3    H129944   6.925   7.038   1.586  0.4853  0.5886 -0.5436
 2795TIP3    H229945   7.009   7.160   1.556  0.4708  1.1952  1.6820
 2796TIP3   OH229946   5.748   0.850   0.901  0.2914  0.3657  0.0019
 2796TIP3    H129947   5.735   0.930   0.850  0.8947  0.8484  0.5897
 2796TIP3    H229948   5.808   0.797   0.849  0.9273  0.8698  0.2177
 2797TIP3   OH229949   1.550   3.714   0.494 -0.1898 -0.6377 -0.3782
 2797TIP3    H129950   1.556   3.707   0.398 -0.0655 -1.0495 -0.3436
 2797TIP3    H229951   1.570   3.626   0.525  0.2096 -0.3965  0.0476
 2798TIP3   OH229952   5.427   4.563   0.437  0.1209  0.4348  0.2952
 2798TIP3    H129953   5.451   4.519   0.356  1.6739  0.2031  0.8447
 2798TIP3    H229954   5.456   4.653   0.424  0.7545  0.3001  0.7333
 2799TIP3   OH229955   6.398   1.801   7.458 -0.1169  0.3575  0.1789
 2799TIP3    H129956   6.484   1.835   7.482  0.3039 -0.6519  0.1482
 2799TIP3    H229957   6.377   1.738   7.527 -0.7119  0.3866  0.0367
 2800TIP3   OH229958   6.690   7.107   0.321  0.1394  0.0462 -0.1238
 2800TIP3    H129959   6.781   7.125   0.296 -0.5291  0.3499 -2.5644
 2800TIP3    H229960   6.655   7.193   0.346  0.6656 -0.1780  1.5084
 2801TIP3   OH229961   4.665   5.991   1.897  0.1341  0.0782  0.0060
 2801TIP3    H129962   4.639   6.039   1.976 -0.2984  1.0066 -0.6956
 2801TIP3    H229963   4.584   5.981   1.847  0.0704 -1.9635  0.4182
 2802TIP3   OH229964   2.784   5.458   7.594 -0.5271  0.0694 -0.1142
 2802TIP3    H129965   2.782   5.449   7.499 -0.2333 -2.3002  0.0274
 2802TIP3    H229966   2.874   5.482   7.615 -0.7509  1.2307 -0.4582
 2803TIP3   OH229967   1.137   6.824   1.268  0.4897  0.0322 -0.1460
 2803TIP3    H129968   1.134   6.868   1.183  0.4490 -1.5219 -0.9873
 2803TIP3    H229969   1.134   6.730   1.247  0.3387 -0.3891  1.5787
 2804TIP3   OH229970   5.142   4.208   7.423  0.3429 -0.4079  0.9565
 2804TIP3    H129971   5.060   4.253   7.440 -0.9203 -1.4991 -1.6810
 2804TIP3    H229972   5.118   4.116   7.412  1.7608 -0.6286 -0.7050
 2805TIP3   OH229973   3.987   6.779   7.637  0.7622  0.1821 -0.4485
 2805TIP3    H129974   3.948   6.709   7.689 -1.5240  1.6431 -0.0364
 2805TIP3    H229975   3.943   6.774   7.553  0.6277  1.0503 -0.4412
 2806TIP3   OH229976   0.109   0.117   5.809  0.6948 -0.6117  0.7065
 2806TIP3    H129977   0.064   0.121   5.725  0.9225  0.9056  0.6203
 2806TIP3    H229978   0.088   0.030   5.844 -0.8801 -0.5911 -0.0993
 2807TIP3   OH229979   6.840   1.447   0.583 -0.5175 -0.2177 -1.1446
 2807TIP3    H129980   6.829   1.458   0.488  1.2528 -0.9990 -1.4811
 2807TIP3    H229981   6.884   1.527   0.611 -0.2801 -0.3427 -1.1510
 2808TIP3   OH229982   4.118   4.010   7.719  0.0764  0.0664 -0.3341
 2808TIP3    H129983   4.213   4.004   7.722  0.0814 -0.2528 -0.8787
 2808TIP3    H229984   4.093   4.054   7.800  0.6294 -0.5483  0.1798
 2809TIP3   OH229985   1.116   0.537   0.381 -0.1687  0.3333 -0.1507
 2809TIP3    H129986   1.103   0.618   0.430  0.4004  0.2901  0.0706
 2809TIP3    H229987   1.114   0.468   0.447  1.1283  0.3203 -0.1163
 2810TIP3   OH229988   3.486   2.056   1.907  0.1483 -0.2193 -0.1152
 2810TIP3    H129989   3.527   2.097   1.831 -1.5502  1.5605 -0.1601
 2810TIP3    H229990   3.554   1.998   1.943  1.5557  0.1897 -1.9723
 2811TIP3   OH229991   3.751   7.061   0.881 -0.3496 -0.5131 -0.5356
 2811TIP3    H129992   3.707   7.145   0.890  1.6552  0.6603 -1.1992
 2811TIP3    H229993   3.778   7.057   0.789  1.2930 -0.9576 -0.0743
 2812TIP3   OH229994   0.649   1.122   0.764  0.7091 -0.0187 -0.1426
 2812TIP3    H129995   0.596   1.192   0.724 -0.5495  0.0131  1.4779
 2812TIP3    H229996   0.726   1.168   0.798 -0.7440  0.9047  2.1193
 2813TIP3   OH229997   1.579   0.161   6.915 -0.2031  0.1752  0.1067
 2813TIP3    H129998   1.662   0.148   6.870 -0.8033 -0.4172 -0.8469
 2813TIP3    H229999   1.513   0.146   6.849 -1.1173 -0.8469  1.2061
 2814TIP3   OH230000   3.506   5.958   0.611 -0.5290 -0.6251  0.6935
 2814TIP3    H130001   3.469   6.026   0.555  1.3621 -0.6766 -0.7042
 2814TIP3    H230002   3.459   5.878   0.585 -1.7232 -0.1611  1.3136
 2815TIP3   OH230003   4.413   4.958   1.707  0.1781 -0.1797 -0.7792
 2815TIP3    H130004   4.463   4.895   1.760  0.7805 -0.4336 -1.6277
 2815TIP3    H230005   4.393   5.030   1.767  1.0871 -0.3366 -0.2733
 2816TIP3   OH230006   4.530   5.845   6.798 -0.9837  0.5582 -0.7038
 2816TIP3    H130007   4.557   5.809   6.882  0.3032 -1.8824 -2.0603
 2816TIP3    H230008   4.471   5.780   6.761  0.6567  0.1812 -2.8486
 2817TIP3   OH230009   0.174   0.925   7.713 -0.4807 -0.1031 -0.7079
 2817TIP3    H130010   0.134   1.012   7.705 -0.7860 -0.2553 -0.8946
 2817TIP3    H230011   0.254   0.939   7.763  0.5951  0.6335 -2.5266
 2818TIP3   OH230012   5.549   5.923   0.931 -0.0353 -0.5032  0.4275
 2818TIP3    H130013   5.633   5.905   0.889 -0.8377 -2.5821 -0.4037
 2818TIP3    H230014   5.566   5.908   1.024  0.7881  0.2520  0.4132
 2819TIP3   OH230015   5.173   0.674   2.120  0.3585 -0.0482  0.0137
 2819TIP3    H130016   5.182   0.764   2.090  0.1258  0.1560  0.5366
 2819TIP3    H230017   5.087   0.672   2.163  1.1974  0.0026  1.7742
 2820TIP3   OH230018   1.213   5.630   0.637 -0.2640 -0.1084  0.2038
 2820TIP3    H130019   1.181   5.702   0.583 -1.1373 -0.2861  0.4641
 2820TIP3    H230020   1.302   5.615   0.607  0.4201  1.9544  1.0699
 2821TIP3   OH230021   4.830   5.391   7.973  0.6449  0.0676  0.1947
 2821TIP3    H130022   4.873   5.306   7.965  1.5767  0.5328  0.1426
 2821TIP3    H230023   4.800   5.394   8.065  1.3553  0.0278  0.4308
 2822TIP3   OH230024   6.242   1.976   7.844 -0.5332  0.1849  0.1227
 2822TIP3    H130025   6.270   1.989   7.935 -1.8059  0.8595  0.4446
 2822TIP3    H230026   6.291   2.042   7.795 -1.0942  0.9655  0.5873
 2823TIP3   OH230027   5.856   6.102   1.127 -0.1480 -0.7512  0.6642
 2823TIP3    H130028   5.899   6.018   1.119  0.5830 -0.7102  3.3196
 2823TIP3    H230029   5.911   6.153   1.186 -1.4023  1.0350  0.4135
 2824TIP3   OH230030   0.585   3.475   6.541 -0.5068  0.6197 -0.0767
 2824TIP3    H130031   0.560   3.531   6.614  0.1667 -0.1292  0.7460
 2824TIP3    H230032   0.664   3.431   6.570  0.8958  1.7045 -1.9883
 2825TIP3   OH230033   0.868   3.381   0.310 -0.2300  0.2406  0.3881
 2825TIP3    H130034   0.955   3.375   0.272 -0.3310 -1.9437  0.3939
 2825TIP3    H230035   0.860   3.303   0.366 -1.0701  1.9432  2.8142
 2826TIP3   OH230036   3.348   0.395   1.406 -0.4810  0.0860  0.1199
 2826TIP3    H130037   3.354   0.397   1.311  2.0110  0.2608  0.2092
 2826TIP3    H230038   3.439   0.402   1.436 -0.8963 -2.6896  2.4922
 2827TIP3   OH230039   0.722   2.732   1.323 -0.1862 -0.1279 -0.2826
 2827TIP3    H130040   0.664   2.745   1.248 -0.8795  1.7482  0.5095
 2827TIP3    H230041   0.671   2.678   1.383 -0.0553 -0.7164 -0.6943
 2828TIP3   OH230042   7.062   0.253   0.084  0.5766 -0.0613  0.4903
 2828TIP3    H130043   7.084   0.343   0.057  0.1221 -0.7403 -2.5036
 2828TIP3    H230044   7.141   0.203   0.064  0.6224 -0.4340  1.5934
 2829TIP3   OH230045   2.955   1.511   6.284  0.0080 -0.1340  0.2719
 2829TIP3    H130046   2.919   1.448   6.222  0.3447 -0.4180  0.3652
 2829TIP3    H230047   2.918   1.595   6.256  0.1229 -0.2644 -0.2902
 2830TIP3   OH230048   6.491   4.943   1.210  0.0713 -0.4078 -0.2767
 2830TIP3    H130049   6.423   4.921   1.273  0.3930  0.4499  0.3846
 2830TIP3    H230050   6.555   4.995   1.259  0.9647 -0.7782 -1.0007
 2831TIP3   OH230051   0.197   4.445   2.395  0.1827  0.3227 -0.1516
 2831TIP3    H130052   0.180   4.403   2.479  1.0325  0.6956  0.2213
 2831TIP3    H230053   0.285   4.416   2.371 -0.4420 -0.5937 -1.4241
 2832TIP3   OH230054   6.193   5.353   7.431 -0.1262 -0.8622 -0.4744
 2832TIP3    H130055   6.254   5.384   7.497 -0.2640 -1.1600 -0.2025
 2832TIP3    H230056   6.189   5.258   7.444  0.9305 -1.1238 -1.8406
 2833TIP3   OH230057   6.548   4.551   0.112 -0.7573  0.0326 -0.2124
 2833TIP3    H130058   6.527   4.643   0.124 -1.6752 -0.1689 -0.1594
 2833TIP3    H230059   6.475   4.504   0.153 -0.3728 -0.7165 -0.3578
 2834TIP3   OH230060   4.068   6.429   2.240  0.2823 -0.7287  0.8460
 2834TIP3    H130061   3.995   6.371   2.263 -0.8781  0.8702  1.3949
 2834TIP3    H230062   4.081   6.417   2.146 -0.1504 -1.6141  0.8938
 2835TIP3   OH230063   2.006   6.103   2.300 -0.0962  0.1896 -0.0280
 2835TIP3    H130064   1.932   6.138   2.251 -1.4920 -1.8449  0.5175
 2835TIP3    H230065   2.077   6.165   2.284 -1.4758  1.3960 -1.7856
 2836TIP3   OH230066   5.537   5.125   7.163  0.1251 -0.6456 -0.6097
 2836TIP3    H130067   5.588   5.117   7.082  0.3282  0.2163 -0.5772
 2836TIP3    H230068   5.464   5.065   7.151  0.8115 -1.4465 -0.9163
 2837TIP3   OH230069   5.998   3.683   2.872  0.3695  0.0635 -0.0833
 2837TIP3    H130070   5.986   3.611   2.811 -0.8115  0.2931 -0.1322
 2837TIP3    H230071   6.091   3.679   2.895  0.2218 -1.8086  0.3324
 2838TIP3   OH230072   6.864   1.903   0.280 -0.2626  0.4936  0.4697
 2838TIP3    H130073   6.821   1.850   0.346  1.0497 -1.0163  0.1835
 2838TIP3    H230074   6.819   1.988   0.283 -1.6230 -0.2355  1.7813
 2839TIP3   OH230075   6.667   6.981   1.016 -0.2614 -0.0208 -0.7324
 2839TIP3    H130076   6.734   6.979   1.083  1.8000 -1.7820 -2.6960
 2839TIP3    H230077   6.611   7.055   1.040  1.9819  1.1323  1.3400
 2840TIP3   OH230078   5.552   3.865   1.638  0.6111 -0.2065  0.7954
 2840TIP3    H130079   5.589   3.800   1.699  2.9005 -0.8298 -1.1237
 2840TIP3    H230080   5.627   3.920   1.614 -0.4728  0.6964 -0.6267
 2841TIP3   OH230081   7.119   0.825   7.954 -0.4726  0.1122 -0.5476
 2841TIP3    H130082   7.062   0.751   7.972  0.8520 -0.4746  1.5267
 2841TIP3    H230083   7.199   0.786   7.919 -0.9667  0.8641 -2.6738
 2842TIP3   OH230084   3.335   0.671   0.941  0.4903 -0.7277  0.1768
 2842TIP3    H130085   3.396   0.702   1.008  1.4769 -1.5046 -0.3348
 2842TIP3    H230086   3.389   0.620   0.881 -0.8092 -2.1465  0.1546
 2843TIP3   OH230087   4.611   5.005   2.684  0.2863  0.4060 -0.0932
 2843TIP3    H130088   4.683   5.055   2.724  1.9213 -0.8205 -1.3973
 2843TIP3    H230089   4.646   4.917   2.672 -1.6642 -0.4040 -0.2232
 2844TIP3   OH230090   6.198   5.878   7.061 -0.0471 -0.4789  0.1101
 2844TIP3    H130091   6.219   5.806   7.002  0.6972 -0.0760 -0.1255
 2844TIP3    H230092   6.235   5.956   7.019  0.9330 -0.2483  1.3171
 2845TIP3   OH230093   3.849   0.694   2.079  0.4963  0.2981  0.1192
 2845TIP3    H130094   3.804   0.668   1.999 -1.2887 -0.3382  1.2734
 2845TIP3    H230095   3.939   0.713   2.051 -0.2008  0.6163 -2.0961
 2846TIP3   OH230096   1.224   1.448   6.750 -0.3915  0.7591 -1.0220
 2846TIP3    H130097   1.206   1.535   6.714  0.9624  1.3138 -0.3948
 2846TIP3    H230098   1.234   1.392   6.673 -2.9096  0.7459 -1.4450
 2847TIP3   OH230099   1.683   1.626   7.125  0.0551 -0.7071 -0.2963
 2847TIP3    H130100   1.639   1.570   7.061  1.1307 -2.0176  0.0548
 2847TIP3    H230101   1.641   1.712   7.115 -1.1471 -1.3801 -1.3627
 2848TIP3   OH230102   5.903   2.871   1.409 -0.1293 -0.2568 -0.3523
 2848TIP3    H130103   5.941   2.783   1.416 -1.6731 -0.8901  0.3679
 2848TIP3    H230104   5.870   2.875   1.319 -0.6474 -0.6628 -0.1825
 2849TIP3   OH230105   4.988   1.773   7.778 -0.0669  0.0567 -0.0393
 2849TIP3    H130106   4.933   1.801   7.705  0.8503  1.3431 -0.2535
 2849TIP3    H230107   4.974   1.840   7.845 -1.7753 -1.6688  1.4832
 2850TIP3   OH230108   2.934   2.702   6.378 -0.4204 -0.4299 -0.1488
 2850TIP3    H130109   2.988   2.775   6.348  0.0710  0.0608  1.7910
 2850TIP3    H230110   2.851   2.713   6.330 -0.6916  1.9403  0.7008
 2851TIP3   OH230111   0.842   6.840   2.305 -0.2029  0.6843 -0.5361
 2851TIP3    H130112   0.920   6.870   2.350  0.2979  0.6150 -1.3407
 2851TIP3    H230113   0.787   6.918   2.298  0.0387  0.8610 -0.4757
 2852TIP3   OH230114   5.959   7.058   1.610  0.5204 -0.1177 -0.0743
 2852TIP3    H130115   5.868   7.083   1.595  0.4596 -0.7368 -0.8009
 2852TIP3    H230116   5.954   6.988   1.675  0.6265  1.0921  1.2822
 2853TIP3   OH230117   1.114   6.935   2.313 -0.1777 -0.7323 -0.0530
 2853TIP3    H130118   1.069   6.952   2.396 -3.0072  2.6805 -2.0189
 2853TIP3    H230119   1.203   6.911   2.339 -1.0733 -0.4021  3.9456
 2854TIP3   OH230120   0.140   1.555   1.471 -0.4814 -0.4689 -0.1512
 2854TIP3    H130121   0.234   1.570   1.484 -0.6183  0.1628  0.2039
 2854TIP3    H230122   0.105   1.642   1.452 -1.0582 -0.6261  0.1545
 2855TIP3   OH230123   3.218   4.294   0.609 -0.2170  0.3611 -0.6280
 2855TIP3    H130124   3.253   4.224   0.554 -1.7029 -1.3332  0.4575
 2855TIP3    H230125   3.182   4.357   0.547 -0.7012 -0.8671 -1.6490
 2856TIP3   OH230126   3.490   1.734   7.024 -0.0268 -0.4275  0.8209
 2856TIP3    H130127   3.576   1.767   7.049 -0.8254  0.7010  2.2357
 2856TIP3    H230128   3.433   1.811   7.025 -1.0578 -1.1405 -0.1320
 2857TIP3   OH230129   6.675   0.964   7.497 -0.3055  1.0318 -0.3971
 2857TIP3    H130130   6.711   0.893   7.550  0.1097  2.9699  2.1291
 2857TIP3    H230131   6.581   0.961   7.512 -0.5898 -0.2460 -2.0772
 2858TIP3   OH230132   0.863   5.706   1.304 -0.2176 -0.0655  0.6361
 2858TIP3    H130133   0.791   5.710   1.240 -0.1845  0.4056  0.6221
 2858TIP3    H230134   0.871   5.613   1.325 -1.9246  0.0063  1.8712
 2859TIP3   OH230135   4.571   3.842   6.458 -0.4662 -0.5671  0.3122
 2859TIP3    H130136   4.511   3.884   6.519  0.8065  0.2369  1.0462
 2859TIP3    H230137   4.631   3.911   6.431  0.4114 -1.4409 -0.0450
 2860TIP3   OH230138   1.064   4.073   2.563 -0.0000 -0.3280  0.1302
 2860TIP3    H130139   1.021   4.089   2.479  1.4410 -0.4481 -0.6550
 2860TIP3    H230140   1.050   3.980   2.580  0.1035 -0.4026 -0.1993
 2861TIP3   OH230141   3.708   0.932   0.554 -0.5815 -0.1701  0.2062
 2861TIP3    H130142   3.635   0.966   0.502 -0.3643  1.5298  0.9637
 2861TIP3    H230143   3.669   0.912   0.639 -0.2118  0.6433  0.5791
 2862TIP3   OH230144   4.419   1.212   0.872 -0.3708  0.3650 -0.6091
 2862TIP3    H130145   4.397   1.267   0.947 -0.7988 -1.4280  0.6630
 2862TIP3    H230146   4.384   1.126   0.895  1.0726 -0.6705 -2.0705
 2863TIP3   OH230147   4.630   4.734   0.262  0.0227  0.1350 -0.5293
 2863TIP3    H130148   4.673   4.650   0.272  2.0062  0.9476 -1.5950
 2863TIP3    H230149   4.694   4.798   0.296 -1.5232  1.1997  0.4921
 2864TIP3   OH230150   5.304   3.690   7.712  0.2626  0.3605 -0.0925
 2864TIP3    H130151   5.223   3.663   7.670  0.2260  1.1040 -0.5235
 2864TIP3    H230152   5.361   3.614   7.706 -0.7342 -0.5311  1.1396
 2865TIP3   OH230153   2.790   2.848   1.865  0.5760  0.5527  0.8344
 2865TIP3    H130154   2.747   2.876   1.946  0.9443  0.3666  1.0997
 2865TIP3    H230155   2.882   2.838   1.889  0.7668  0.9450  0.2723
 2866TIP3   OH230156   0.085   3.874   1.746 -0.2694  0.0157  0.1999
 2866TIP3    H130157   0.011   3.834   1.792 -0.4706  0.4879  0.2914
 2866TIP3    H230158   0.126   3.930   1.813 -0.4942  0.6174 -0.1614
 2867TIP3   OH230159   6.995   7.040   2.289  0.2019 -0.6894  0.0801
 2867TIP3    H130160   7.081   7.007   2.317 -0.8171 -1.5861  2.4207
 2867TIP3    H230161   6.991   7.128   2.326  0.4827 -0.2540 -0.8983
 2868TIP3   OH230162   5.380   3.681   2.422 -0.2218 -0.7271 -0.3258
 2868TIP3    H130163   5.356   3.606   2.367 -0.9548 -1.2639  0.6972
 2868TIP3    H230164   5.368   3.651   2.512 -1.3540  0.8823  0.1062
 2869TIP3   OH230165   1.226   6.045   7.249  0.0833 -1.0078  0.2143
 2869TIP3    H130166   1.144   6.083   7.217  1.1052  0.8744 -0.3022
 2869TIP3    H230167   1.255   5.988   7.178  0.0114 -0.4234 -0.2938
 2870TIP3   OH230168   0.529   0.100   1.664 -0.0096  0.4818 -0.0060
 2870TIP3    H130169   0.612   0.147   1.669 -1.4791  3.2304  0.2053
 2870TIP3    H230170   0.464   0.161   1.700 -2.2944 -1.1602 -1.1017
 2871TIP3   OH230171   2.641   2.180   0.111  0.0971  0.2647 -0.0447
 2871TIP3    H130172   2.571   2.180   0.177 -0.3158 -0.8395 -0.4611
 2871TIP3    H230173   2.606   2.127   0.040  0.9129  0.6730 -0.7581
 2872TIP3   OH230174   6.366   4.975   7.883  0.7277 -0.1275  0.6265
 2872TIP3    H130175   6.295   5.021   7.837  0.2341 -1.7202 -0.2669
 2872TIP3    H230176   6.443   4.991   7.829  0.2488 -1.5740 -0.5589
 2873TIP3   OH230177   1.793   5.778   1.483 -0.4219  0.2394 -0.2466
 2873TIP3    H130178   1.799   5.689   1.448  1.5666 -0.0170  0.6115
 2873TIP3    H230179   1.779   5.765   1.577  0.0776  0.8321 -0.0892
 2874TIP3   OH230180   0.593   0.648   0.995 -0.5945  0.2635 -0.1404
 2874TIP3    H130181   0.529   0.694   0.940 -0.3937  0.4630 -0.2086
 2874TIP3    H230182   0.645   0.596   0.934 -1.7486 -1.1975  0.0772
 2875TIP3   OH230183   6.418   2.715   6.955  0.2610 -0.8057 -0.0870
 2875TIP3    H130184   6.468   2.791   6.926  0.2282 -0.7368  0.0319
 2875TIP3    H230185   6.387   2.739   7.043 -2.5060  0.4170 -1.2572
 2876TIP3   OH230186   4.288   6.190   1.465  0.1354  0.1220  0.1298
 2876TIP3    H130187   4.296   6.208   1.371  1.0647  1.1238  0.3776
 2876TIP3    H230188   4.374   6.157   1.490 -0.4148 -1.1120  0.4431
 2877TIP3   OH230189   5.425   0.647   0.262 -0.1558 -0.2681  0.2578
 2877TIP3    H130190   5.501   0.589   0.261  0.8274  0.9878  0.0941
 2877TIP3    H230191   5.350   0.588   0.254  0.8621 -1.4438 -1.3225
 2878TIP3   OH230192   3.769   5.865   2.222 -0.6982  0.6826 -0.3364
 2878TIP3    H130193   3.675   5.847   2.218 -0.6102  0.4912 -1.9965
 2878TIP3    H230194   3.778   5.951   2.180  0.0721 -0.2033 -2.0751
 2879TIP3   OH230195   1.505   0.446   7.922  0.6183 -0.1819 -0.5174
 2879TIP3    H130196   1.451   0.442   7.843 -0.3477 -1.1357  0.1559
 2879TIP3    H230197   1.478   0.528   7.965  0.2555 -0.2641 -0.5790
 2880TIP3   OH230198   5.119   5.385   0.804 -0.2909 -0.2704  0.0516
 2880TIP3    H130199   5.148   5.348   0.887 -0.0954  1.3395  0.7354
 2880TIP3    H230200   5.198   5.420   0.763 -0.7537  1.3564  0.4763
 2881TIP3   OH230201   1.269   6.003   1.370 -0.2807 -0.2737 -0.2409
 2881TIP3    H130202   1.195   6.063   1.382 -1.4471 -1.4569 -1.1510
 2881TIP3    H230203   1.237   5.939   1.306  1.8532 -0.3045 -1.3662
 2882TIP3   OH230204   4.620   4.326   0.701 -0.5658 -0.5739  0.0336
 2882TIP3    H130205   4.711   4.332   0.731 -0.2480 -1.8547 -0.5978
 2882TIP3    H230206   4.585   4.249   0.747 -0.5390 -1.6259 -1.6179
 2883TIP3   OH230207   4.855   1.857   0.338 -0.0641  0.3560 -0.5291
 2883TIP3    H130208   4.840   1.900   0.422  0.9745  0.4694 -0.3880
 2883TIP3    H230209   4.804   1.776   0.343  0.3260  0.1620  0.3748
 2884TIP3   OH230210   6.448   2.464   6.553 -0.3853 -0.4363 -0.1270
 2884TIP3    H130211   6.497   2.413   6.489 -0.6648  0.3457 -0.9725
 2884TIP3    H230212   6.461   2.555   6.527  0.3053 -0.0342  1.5059
 2885TIP3   OH230213   5.232   6.954   0.004  0.0606 -0.0664  0.1950
 2885TIP3    H130214   5.170   6.944  -0.068  0.1347  0.2399  0.0891
 2885TIP3    H230215   5.193   6.904   0.076 -0.3190  0.1354  0.1348
 2886TIP3   OH230216   5.352   1.178   1.202 -0.1471 -0.0804 -0.0943
 2886TIP3    H130217   5.256   1.176   1.200 -0.1687  0.6038  0.1558
 2886TIP3    H230218   5.377   1.092   1.237 -0.6546 -0.4118 -0.5359
 2887TIP3   OH230219   6.842   1.682   2.375  0.3966 -0.3924  0.0355
 2887TIP3    H130220   6.870   1.638   2.295 -1.6110 -0.0531 -0.9017
 2887TIP3    H230221   6.768   1.630   2.407 -0.4731  0.9016  0.2284
 2888TIP3   OH230222   5.862   0.294   6.678 -0.8852  0.7313 -0.1505
 2888TIP3    H130223   5.876   0.200   6.663 -0.8788  0.8685 -1.0408
 2888TIP3    H230224   5.915   0.313   6.755  1.0259  0.4815 -1.3263
 2889TIP3   OH230225   3.653   2.404   1.993 -0.3159 -0.6895  0.1495
 2889TIP3    H130226   3.574   2.387   1.943 -0.5613 -2.3847  1.0307
 2889TIP3    H230227   3.675   2.320   2.033  2.9677 -0.7787 -1.4649
 2890TIP3   OH230228   2.869   5.740   6.880  0.0052  0.0994 -0.2247
 2890TIP3    H130229   2.888   5.821   6.833  0.8832  1.5990  2.4783
 2890TIP3    H230230   2.955   5.698   6.891  0.2653  1.0489  2.0320
 2891TIP3   OH230231   2.849   0.763   1.667 -0.0877  0.5816 -0.0982
 2891TIP3    H130232   2.908   0.836   1.649 -1.3071  1.2367 -1.7272
 2891TIP3    H230233   2.892   0.713   1.736  0.7183  2.9220  1.2123
 2892TIP3   OH230234   5.233   2.966   1.501  0.4426 -0.6780  0.4520
 2892TIP3    H130235   5.146   2.941   1.532  0.4712 -0.7179  0.4999
 2892TIP3    H230236   5.228   2.956   1.406 -0.8984  3.1670 -0.0660
 2893TIP3   OH230237   2.347   6.777   7.195  0.5198 -0.0372  0.0038
 2893TIP3    H130238   2.415   6.713   7.214  2.4378  1.3412 -1.8091
 2893TIP3    H230239   2.376   6.858   7.237 -0.7832  0.2168  0.4725
 2894TIP3   OH230240   1.670   4.002   0.969 -0.1579  0.0157 -0.0111
 2894TIP3    H130241   1.606   3.973   1.033  0.2280  0.4559  0.5916
 2894TIP3    H230242   1.619   4.025   0.891 -0.5134 -1.7194 -0.3218
 2895TIP3   OH230243   0.830   2.866   0.304 -0.0420 -0.1569  0.3901
 2895TIP3    H130244   0.772   2.898   0.234 -0.2208 -1.0625  0.1109
 2895TIP3    H230245   0.914   2.853   0.262 -0.4346 -1.7881  0.0463
 2896TIP3   OH230246   2.348   0.362   0.451 -0.0745 -0.3512 -0.1836
 2896TIP3    H130247   2.307   0.447   0.437 -1.9058 -1.5148 -2.7987
 2896TIP3    H230248   2.276   0.305   0.477  0.9577 -1.2873  0.6967
 2897TIP3   OH230249   5.459   1.239   1.973 -0.0200  0.2376 -0.4032
 2897TIP3    H130250   5.487   1.330   1.967 -2.0103  0.8918 -0.5732
 2897TIP3    H230251   5.364   1.244   1.980 -0.4395 -1.9001 -2.8277
 2898TIP3   OH230252   3.582   0.766   7.529 -0.2772 -0.1542  0.1400
 2898TIP3    H130253   3.523   0.822   7.581 -0.0396  0.1385  0.1025
 2898TIP3    H230254   3.554   0.677   7.549 -1.3023 -0.0066 -0.5578
 2899TIP3   OH230255   2.726   5.648   6.602 -0.2269 -0.1795  0.6419
 2899TIP3    H130256   2.690   5.613   6.521 -1.2413 -0.1503  1.0740
 2899TIP3    H230257   2.650   5.664   6.658  0.5026 -0.8783  1.8769
 2900TIP3   OH230258   5.516   0.950   1.442  0.3512  0.0499  0.7743
 2900TIP3    H130259   5.459   0.886   1.399  1.6071 -0.0124 -0.9260
 2900TIP3    H230260   5.603   0.910   1.438  0.7527  0.7596  2.0112
 2901TIP3   OH230261   4.315   3.454   6.189  0.2688 -0.0061 -0.6490
 2901TIP3    H130262   4.247   3.521   6.193 -1.0009 -1.2888  2.2688
 2901TIP3    H230263   4.285   3.392   6.123  0.2681  1.0539 -1.6721
 2902TIP3   OH230264   4.299   6.562   6.602  0.1699 -0.4335  0.0010
 2902TIP3    H130265   4.239   6.628   6.635  0.9286 -1.1207  3.1339
 2902TIP3    H230266   4.254   6.479   6.617  0.7465 -0.8191 -0.3530
 2903TIP3   OH230267   3.027   5.034   0.582 -0.1784  0.6738 -0.5393
 2903TIP3    H130268   2.964   5.046   0.653  1.3293  2.0664  0.6711
 2903TIP3    H230269   2.982   5.065   0.504 -1.9108 -0.9674 -0.2451
 2904TIP3   OH230270   5.809   6.982   7.117 -0.6112 -0.0266  0.6692
 2904TIP3    H130271   5.833   7.057   7.063 -1.3569  1.1196  1.8830
 2904TIP3    H230272   5.863   6.910   7.083  1.2312  1.3985  0.4448
 2905TIP3   OH230273   1.537   0.940   0.101  0.2660 -0.1033 -0.1554
 2905TIP3    H130274   1.617   0.897   0.131 -0.2617 -0.1518  1.2819
 2905TIP3    H230275   1.551   1.033   0.119  0.5204  0.0642 -1.1699
 2906TIP3   OH230276   1.933   5.899   7.362  0.5349  0.0468  0.7651
 2906TIP3    H130277   1.961   5.808   7.372 -1.3863 -0.8140 -0.9107
 2906TIP3    H230278   2.010   5.944   7.327  0.9373 -1.4314 -0.3786
 2907TIP3   OH230279   7.029   0.700   0.762  0.1911 -0.5514  0.0886
 2907TIP3    H130280   7.069   0.636   0.702 -1.3836 -0.5911 -0.9896
 2907TIP3    H230281   6.942   0.716   0.725 -1.1846 -1.1534  2.8053
 2908TIP3   OH230282   5.809   3.506   7.765 -0.0899 -0.1064 -0.2625
 2908TIP3    H130283   5.870   3.483   7.834 -1.3553 -0.1969  0.8656
 2908TIP3    H230284   5.769   3.423   7.739  1.1635 -0.2498 -1.9429
 2909TIP3   OH230285   3.728   1.803   7.122 -0.1168  0.2869  0.3018
 2909TIP3    H130286   3.711   1.861   7.197  0.4118  0.7206  0.0817
 2909TIP3    H230287   3.806   1.838   7.081  0.8998 -1.2562  0.8419
 2910TIP3   OH230288   6.607   5.916   2.026  0.2306 -0.5679 -0.7729
 2910TIP3    H130289   6.563   5.992   1.987 -0.1214  2.1943  4.1779
 2910TIP3    H230290   6.695   5.947   2.048  1.9087 -3.3366 -2.8791
 2911TIP3   OH230291   2.516   4.844   2.194 -0.3744  0.1050  0.6563
 2911TIP3    H130292   2.562   4.836   2.278  0.3700 -0.4336  0.2143
 2911TIP3    H230293   2.562   4.783   2.136 -1.2754  0.0094  0.0226
 2912TIP3   OH230294   3.295   4.713   0.158  0.0606  0.7216 -0.2923
 2912TIP3    H130295   3.230   4.719   0.088 -0.2637 -0.9786 -0.1802
 2912TIP3    H230296   3.247   4.736   0.238 -0.0053  0.9457 -0.3944
 2913TIP3   OH230297   0.151   5.982   0.158  0.4825  0.1386 -0.0387
 2913TIP3    H130298   0.214   5.917   0.128 -0.5424 -0.5321 -0.7936
 2913TIP3    H230299   0.074   5.931   0.184 -1.1864  1.0916 -2.6703
 2914TIP3   OH230300   2.154   3.338   1.897 -0.9734  0.0677 -0.1728
 2914TIP3    H130301   2.097   3.401   1.854 -0.6450 -0.8187 -2.0529
 2914TIP3    H230302   2.122   3.252   1.868  0.6983 -0.4874 -0.5444
 2915TIP3   OH230303   6.628   3.152   7.816 -0.5782  0.0039  0.4157
 2915TIP3    H130304   6.601   3.060   7.807  1.1427 -0.3521 -2.1389
 2915TIP3    H230305   6.549   3.202   7.796 -1.0291 -0.9367 -0.2235
 2916TIP3   OH230306   3.246   1.566   0.456  0.3873  0.3836  0.0976
 2916TIP3    H130307   3.336   1.598   0.448 -0.2898  2.7883  1.1671
 2916TIP3    H230308   3.219   1.592   0.544 -1.0209 -1.2533  0.1927
 2917TIP3   OH230309   3.786   3.342   1.335  0.2862  0.0312  0.3384
 2917TIP3    H130310   3.812   3.393   1.258 -0.1197 -1.0807 -0.5733
 2917TIP3    H230311   3.693   3.323   1.320  0.2027 -0.1814  1.1130
 2918TIP3   OH230312   0.798   4.065   1.322 -0.0583  0.3006 -0.4421
 2918TIP3    H130313   0.852   4.143   1.329 -1.0433  1.2391 -2.5804
 2918TIP3    H230314   0.713   4.096   1.293 -0.4913 -1.5593 -1.3268
 2919TIP3   OH230315   2.766   0.303   0.709  0.5574 -0.2224 -0.0014
 2919TIP3    H130316   2.701   0.320   0.777  0.1397  0.1392 -0.4792
 2919TIP3    H230317   2.806   0.389   0.692  0.0659 -0.1365 -0.7988
 2920TIP3   OH230318   2.498   1.560   1.348 -0.0606 -0.0515 -0.1439
 2920TIP3    H130319   2.502   1.648   1.385  0.0861 -0.7000  1.4586
 2920TIP3    H230320   2.422   1.519   1.389 -0.4480 -0.5160 -1.2763
 2921TIP3   OH230321   5.768   4.523   2.638 -0.0869  0.0853  0.2898
 2921TIP3    H130322   5.722   4.495   2.559 -1.3271  2.4205  0.1227
 2921TIP3    H230323   5.841   4.461   2.645 -1.3275 -1.6925 -1.2784
 2922TIP3   OH230324   3.622   3.221   0.628  0.1670 -0.2959 -0.3878
 2922TIP3    H130325   3.528   3.214   0.644  0.2779 -0.2146  0.3550
 2922TIP3    H230326   3.658   3.254   0.711  1.1059 -2.3296  0.0646
 2923TIP3   OH230327   1.419   3.431   2.128 -0.1886 -0.0925  0.5334
 2923TIP3    H130328   1.367   3.388   2.060 -0.4584  0.8351  0.1416
 2923TIP3    H230329   1.354   3.473   2.184  0.0502 -0.5752  1.1864
 2924TIP3   OH230330   3.063   1.006   0.557 -0.6479  0.5029 -0.2388
 2924TIP3    H130331   2.995   0.948   0.523 -0.3876 -0.4830  0.8631
 2924TIP3    H230332   3.040   1.018   0.649  0.5136  0.3646  0.0849
 2925TIP3   OH230333   6.237   4.616   2.530  0.4239 -0.0821 -0.2058
 2925TIP3    H130334   6.154   4.585   2.566  0.9058  1.5449  2.6368
 2925TIP3    H230335   6.213   4.694   2.479 -0.2647 -2.4039 -3.7584
 2926TIP3   OH230336   3.383   0.887   7.706 -0.3278 -0.2357  0.3255
 2926TIP3    H130337   3.409   0.839   7.785  0.9809  0.1287  0.1313
 2926TIP3    H230338   3.309   0.941   7.734 -0.7677 -1.1279  0.9450
 2927TIP3   OH230339   0.541   6.447   7.897 -0.1612 -0.0990 -0.1844
 2927TIP3    H130340   0.488   6.473   7.822  0.3147 -0.3974 -0.6266
 2927TIP3    H230341   0.499   6.367   7.929 -2.6887  1.9696  2.2413
 2928TIP3   OH230342   3.496   0.673   1.643 -0.3306  0.2794  0.4458
 2928TIP3    H130343   3.406   0.639   1.636 -0.6129  0.7261  1.6176
 2928TIP3    H230344   3.486   0.768   1.637  0.5548  0.2706 -3.8027
 2929TIP3   OH230345   2.773   3.347   0.092  0.0450  0.4079 -0.1650
 2929TIP3    H130346   2.798   3.419   0.035  2.5244  0.7926  1.2666
 2929TIP3    H230347   2.821   3.362   0.173 -0.9268 -1.7847  0.9178
 2930TIP3   OH230348   3.131   5.036   1.933  0.4386  0.8319 -0.0246
 2930TIP3    H130349   3.137   5.079   1.848 -1.3882  0.7183 -0.2546
 2930TIP3    H230350   3.156   4.946   1.917  1.1737  1.0602 -0.1987
 2931TIP3   OH230351   2.109   7.075   1.005  0.3005  0.0623  0.0672
 2931TIP3    H130352   2.110   7.024   1.086 -0.5344  0.3212  0.2521
 2931TIP3    H230353   2.176   7.035   0.950 -1.1681 -2.0628 -0.3024
 2932TIP3   OH230354   5.632   6.494   6.937 -0.4721 -0.0163 -0.5062
 2932TIP3    H130355   5.714   6.542   6.936  0.5745 -1.6704  0.8928
 2932TIP3    H230356   5.643   6.426   6.870  0.3997 -1.8538  1.4011
 2933TIP3   OH230357   3.664   6.560   0.732  0.0350 -0.5907 -0.0443
 2933TIP3    H130358   3.638   6.600   0.650  2.0913 -0.3382 -0.6250
 2933TIP3    H230359   3.582   6.531   0.772 -1.0383 -0.3623 -1.9768
 2934TIP3   OH230360   0.103   6.510   5.757  0.8602  0.1918 -0.4106
 2934TIP3    H130361   0.082   6.601   5.777 -0.0464 -0.0390 -0.2492
 2934TIP3    H230362   0.195   6.500   5.781  0.5418  0.6452  1.1091
 2935TIP3   OH230363   0.113   3.385   1.510  0.0943 -0.3915  0.0761
 2935TIP3    H130364   0.091   3.359   1.421  1.5419  0.1939 -0.4796
 2935TIP3    H230365   0.034   3.429   1.543  0.8757  3.4835 -2.5444
 2936TIP3   OH230366   6.679   4.370   6.632 -0.0230 -0.0615  0.0374
 2936TIP3    H130367   6.602   4.338   6.679 -0.2881 -1.0249 -0.9745
 2936TIP3    H230368   6.741   4.297   6.636  0.0612 -0.0517 -0.8066
 2937TIP3   OH230369   4.850   4.719   7.843  0.0077  0.2432  0.0869
 2937TIP3    H130370   4.896   4.648   7.798 -1.1360 -0.0130 -0.7271
 2937TIP3    H230371   4.875   4.710   7.935  1.6537  0.1938 -0.3393
 2938TIP3   OH230372   2.862   0.950   6.861  0.3564  0.3209 -0.0763
 2938TIP3    H130373   2.953   0.924   6.877  1.0593  1.4879 -1.8979
 2938TIP3    H230374   2.817   0.868   6.841  1.3261 -0.1256 -0.4787
 2939TIP3   OH230375   3.026   5.528   7.686  0.5022 -0.6623 -0.1636
 2939TIP3    H130376   3.062   5.552   7.771 -0.9861 -0.2282  0.3725
 2939TIP3    H230377   3.102   5.500   7.635  1.5028 -0.3338  1.0943
 2940TIP3   OH230378   6.417   5.703   0.717  0.4274 -0.2669  0.1418
 2940TIP3    H130379   6.329   5.680   0.689 -0.2173  1.3756  0.6857
 2940TIP3    H230380   6.408   5.720   0.811  0.9679  1.3358 -0.0555
 2941TIP3   OH230381   4.591   4.053   0.109 -0.3490 -0.1414 -0.3657
 2941TIP3    H130382   4.538   4.128   0.137  1.7387  1.2289  0.1200
 2941TIP3    H230383   4.637   4.084   0.031  0.2811 -1.0295 -0.3612
 2942TIP3   OH230384   0.184   5.710   0.086 -0.7010 -0.0819 -0.2190
 2942TIP3    H130385   0.156   5.678   0.172  1.1197 -0.7064  0.1874
 2942TIP3    H230386   0.200   5.631   0.035  0.9596  0.1918 -0.1770
 2943TIP3   OH230387   6.945   6.465   6.550  0.0680 -0.6956 -0.0209
 2943TIP3    H130388   6.992   6.403   6.494 -0.8813 -2.7596  1.3079
 2943TIP3    H230389   6.998   6.471   6.629 -0.1095 -0.2226  0.0653
 2944TIP3   OH230390   6.705   6.509   1.141 -0.1135  0.6595 -0.3739
 2944TIP3    H130391   6.708   6.580   1.077  0.5803  0.8589 -0.1242
 2944TIP3    H230392   6.682   6.432   1.090  0.1859  0.8608 -0.8198
 2945TIP3   OH230393   5.114   0.102   7.012 -0.0962  0.3730 -0.0663
 2945TIP3    H130394   5.099   0.046   6.936 -2.4217  0.2109  0.4440
 2945TIP3    H230395   5.069   0.184   6.991  3.3052  2.2382 -0.8280
 2946TIP3   OH230396   6.549   4.921   6.771 -0.1098  0.1133 -0.1869
 2946TIP3    H130397   6.457   4.895   6.764  0.2576 -0.9731 -1.8857
 2946TIP3    H230398   6.572   4.905   6.862 -0.7958 -2.7143 -0.4130
 2947TIP3   OH230399   2.666   1.318   0.152 -0.3252 -0.0055 -0.2019
 2947TIP3    H130400   2.716   1.249   0.197  0.0741  0.8107  0.6429
 2947TIP3    H230401   2.732   1.382   0.127 -0.7728  0.3797 -0.4031
 2948TIP3   OH230402   7.029   6.362   7.961  0.3416  0.7216 -0.3208
 2948TIP3    H130403   7.036   6.451   7.924 -0.7107  1.4529  1.1451
 2948TIP3    H230404   6.952   6.325   7.917  0.2565  0.8654 -0.2957
 2949TIP3   OH230405   5.669   6.720   0.037  0.1396  0.2855 -0.1397
 2949TIP3    H130406   5.697   6.776  -0.034 -0.3733 -1.0331 -1.4285
 2949TIP3    H230407   5.585   6.757   0.065  1.7150  2.6371  1.9377
 2950TIP3   OH230408   4.071   6.935   0.241  0.4435  0.1792  0.1459
 2950TIP3    H130409   4.157   6.977   0.246  0.2262  0.6888 -0.1694
 2950TIP3    H230410   4.089   6.841   0.240  1.0024  0.2858 -0.0248
 2951TIP3   OH230411   1.014   5.210   1.779  0.7360 -0.0132 -0.2257
 2951TIP3    H130412   0.967   5.273   1.724  0.1410  0.3983  0.7163
 2951TIP3    H230413   1.080   5.263   1.823 -1.0288  0.4392  2.0856
 2952TIP3   OH230414   2.075   5.559   0.054 -0.3297 -0.1807 -0.2771
 2952TIP3    H130415   2.020   5.491   0.015 -0.3295 -0.5236  0.3112
 2952TIP3    H230416   2.035   5.577   0.139  0.1809 -0.0852 -0.0496
 2953TIP3   OH230417   2.747   5.937   6.628 -0.4678  0.7966  0.3546
 2953TIP3    H130418   2.693   5.956   6.551  0.7687 -2.1299 -1.4128
 2953TIP3    H230419   2.741   5.842   6.638  1.8309  0.7629  2.0365
 2954TIP3   OH230420   5.759   5.118   7.998  0.1669  0.1838 -0.1401
 2954TIP3    H130421   5.763   5.023   8.010  0.7654  0.4123  1.7682
 2954TIP3    H230422   5.801   5.154   8.076 -0.9210  2.0359 -0.3409
 2955TIP3   OH230423   1.943   2.347   2.378  0.1337  0.1339 -0.5142
 2955TIP3    H130424   1.990   2.319   2.457 -1.3473  0.0818  0.3827
 2955TIP3    H230425   1.976   2.436   2.361  1.0270 -0.1467 -0.3088
 2956TIP3   OH230426   5.318   6.918   7.508  0.0743 -0.0347  0.2642
 2956TIP3    H130427   5.261   6.915   7.431 -1.2693  1.5400  1.1525
 2956TIP3    H230428   5.273   6.865   7.573 -0.6682  1.6084  1.1278
 2957TIP3   OH230429   7.145   2.589   1.375 -0.2714  0.4347 -0.1701
 2957TIP3    H130430   7.149   2.495   1.355 -0.1474  0.0360  1.5924
 2957TIP3    H230431   7.123   2.630   1.291 -3.2832 -1.4230 -0.4440
 2958TIP3   OH230432   6.603   3.937   7.998  1.0149  0.5161  0.4237
 2958TIP3    H130433   6.633   3.940   8.089  1.9054 -2.1823  0.3167
 2958TIP3    H230434   6.684   3.946   7.946  1.2411 -2.6206  0.0572
 2959TIP3   OH230435   6.639   4.506   0.410 -0.8998  0.2893  0.0406
 2959TIP3    H130436   6.648   4.506   0.315 -0.4760  0.6191  0.0793
 2959TIP3    H230437   6.598   4.590   0.431 -1.3647  0.0512  0.1227
 2960TIP3   OH230438   6.997   2.900   1.601  0.1234  0.7200  0.2505
 2960TIP3    H130439   7.014   2.891   1.695  0.0795 -0.2758  0.1743
 2960TIP3    H230440   7.083   2.889   1.560  0.3948  2.5925  0.2317
 2961TIP3   OH230441   1.154   5.796   1.249  0.4094  0.0820  0.4637
 2961TIP3    H130442   1.063   5.809   1.223  0.7620  1.3791 -0.2014
 2961TIP3    H230443   1.174   5.706   1.222  0.2723  0.8019 -2.3203
 2962TIP3   OH230444   0.083   3.155   0.946  0.3216  0.0319 -0.1395
 2962TIP3    H130445   0.115   3.190   1.030  3.2041 -0.0893 -1.0655
 2962TIP3    H230446   0.021   3.086   0.971 -2.2162  2.7354  1.7747
 2963TIP3   OH230447   5.282   1.320   0.804  0.3437 -0.6561  1.0688
 2963TIP3    H130448   5.375   1.333   0.823  0.2303  0.7683  0.8061
 2963TIP3    H230449   5.263   1.384   0.735 -0.1708 -2.9122 -1.0269
 2964TIP3   OH230450   0.542   0.416   7.877  0.3092 -0.1765 -0.0052
 2964TIP3    H130451   0.536   0.352   7.806  0.8956 -0.5050  0.2317
 2964TIP3    H230452   0.457   0.414   7.919  0.2839 -0.7108 -0.0772
 2965TIP3   OH230453   1.757   5.623   2.499  0.1657 -0.0367 -0.1647
 2965TIP3    H130454   1.745   5.682   2.574  1.4053 -0.1667  0.1562
 2965TIP3    H230455   1.844   5.585   2.512  0.2573 -0.3312 -1.4861
 2966TIP3   OH230456   1.790   1.436   7.337 -0.0746  0.3230  0.7213
 2966TIP3    H130457   1.841   1.470   7.410  0.5808  1.7064 -0.3362
 2966TIP3    H230458   1.844   1.453   7.260 -1.4412  0.3535 -0.2666
 2967TIP3   OH230459   3.013   1.272   7.809 -0.1047 -0.2058  0.2423
 2967TIP3    H130460   2.992   1.211   7.738 -1.7399  0.1080  0.4312
 2967TIP3    H230461   3.014   1.219   7.888  0.2121 -0.2901  0.1822
 2968TIP3   OH230462   3.097   4.769   0.735  0.6120  0.3151 -0.4366
 2968TIP3    H130463   3.096   4.731   0.648 -1.0035  1.4474 -0.9660
 2968TIP3    H230464   3.106   4.863   0.720  1.1680  0.4577  0.6661
 2969TIP3   OH230465   1.652   6.474   1.477 -0.3837 -0.2782  0.0842
 2969TIP3    H130466   1.706   6.397   1.498 -0.9477 -1.2156 -1.6959
 2969TIP3    H230467   1.564   6.449   1.506 -0.2420  0.4741  1.2109
 2970TIP3   OH230468   4.495   6.225   1.118  0.0461 -0.1295  0.4241
 2970TIP3    H130469   4.514   6.185   1.033  0.8172  0.5154  0.2857
 2970TIP3    H230470   4.428   6.291   1.100  0.9396  0.7141  0.1296
 2971TIP3   OH230471   2.514   1.144   6.651 -0.1588 -0.0325  0.1098
 2971TIP3    H130472   2.574   1.125   6.580 -0.4085 -1.7441  0.3090
 2971TIP3    H230473   2.440   1.187   6.609  0.3916  0.4108 -0.4162
 2972TIP3   OH230474   5.162   4.702   7.782 -0.4055  0.4113  0.1094
 2972TIP3    H130475   5.195   4.656   7.860  0.4810  0.7359 -0.0576
 2972TIP3    H230476   5.189   4.646   7.709 -1.4831 -0.0362  0.0363
 2973TIP3   OH230477   1.733   0.734   1.912 -0.1135 -0.0155  0.0909
 2973TIP3    H130478   1.797   0.770   1.974  0.1729  1.7935 -1.1833
 2973TIP3    H230479   1.712   0.648   1.947  1.3701  0.2311  1.7327
 2974TIP3   OH230480   2.032   2.034   0.579 -0.6653  0.2388  0.7179
 2974TIP3    H130481   2.077   2.114   0.556  1.0472 -0.1963  2.3069
 2974TIP3    H230482   2.101   1.974   0.608 -1.9714 -1.5206  0.4093
 2975TIP3   OH230483   0.646   5.175   2.464  0.0487  0.0089 -0.0745
 2975TIP3    H130484   0.723   5.121   2.479 -0.3618 -0.6152 -0.1416
 2975TIP3    H230485   0.573   5.121   2.494 -0.4429  0.2160 -0.8478
 2976TIP3   OH230486   7.084   4.922   0.882  0.2754  0.2135 -0.6363
 2976TIP3    H130487   7.075   4.839   0.929  1.1498  0.4781  0.0327
 2976TIP3    H230488   7.128   4.980   0.944  2.2664  0.3146 -2.0377
 2977TIP3   OH230489   4.839   5.154   2.497  0.0848  0.3015  0.4965
 2977TIP3    H130490   4.934   5.149   2.495  0.0981  0.6984 -0.1638
 2977TIP3    H230491   4.809   5.065   2.482  0.3492 -0.1058  2.1868
 2978TIP3   OH230492   5.888   4.514   2.149  0.2092  0.2899  0.0707
 2978TIP3    H130493   5.935   4.503   2.067 -1.0421  0.7591 -0.7278
 2978TIP3    H230494   5.939   4.463   2.213  0.0026 -1.8965 -1.4219
 2979TIP3   OH230495   3.245   4.131   2.368  0.1059 -0.2345 -0.0349
 2979TIP3    H130496   3.160   4.167   2.390 -1.1983 -2.7698 -0.5144
 2979TIP3    H230497   3.258   4.060   2.431  1.6275 -0.2454 -0.3157
 2980TIP3   OH230498   4.254   4.909   2.787 -0.7567 -0.1523 -0.1668
 2980TIP3    H130499   4.318   4.853   2.832 -0.3321 -0.8866 -1.6051
 2980TIP3    H230500   4.283   4.998   2.806  1.1765 -0.4538 -1.3248
 2981TIP3   OH230501   5.147   5.645   7.053  0.7753  0.6109 -0.2344
 2981TIP3    H130502   5.142   5.578   6.984  0.1430 -2.0370  2.1655
 2981TIP3    H230503   5.146   5.728   7.006 -1.8438 -0.9424 -3.3291
 2982TIP3   OH230504   5.308   3.787   0.338 -0.5923 -0.1198 -0.9161
 2982TIP3    H130505   5.273   3.705   0.301  1.8507 -1.2641 -0.8722
 2982TIP3    H230506   5.254   3.803   0.416 -2.5454 -0.4263 -2.1419
 2983TIP3   OH230507   1.787   0.049   2.138 -0.2347 -0.4192  0.0472
 2983TIP3    H130508   1.694   0.028   2.125 -0.1882 -1.0025  0.5805
 2983TIP3    H230509   1.822  -0.028   2.184  0.6686 -0.5121 -0.7775
 2984TIP3   OH230510   6.239   0.875   7.642  0.7102  0.4041  0.4409
 2984TIP3    H130511   6.167   0.939   7.648 -1.2629 -1.7878  2.0145
 2984TIP3    H230512   6.267   0.862   7.733 -1.3633 -3.3589  0.7686
 2985TIP3   OH230513   4.515   0.246   1.728 -0.5922  0.0752  0.5098
 2985TIP3    H130514   4.506   0.286   1.814 -2.1161  0.0611  0.3687
 2985TIP3    H230515   4.446   0.285   1.675  1.2518  1.2627 -1.2015
 2986TIP3   OH230516   3.075   6.536   1.914 -0.2277  0.0353 -0.3677
 2986TIP3    H130517   3.048   6.619   1.953 -2.1474 -0.5870 -0.2811
 2986TIP3    H230518   3.122   6.491   1.984 -1.2268  0.0819  0.3444
 2987TIP3   OH230519   6.379   3.214   1.217  0.3822  0.2431 -0.2757
 2987TIP3    H130520   6.315   3.152   1.181  0.3328 -1.2852  2.2087
 2987TIP3    H230521   6.393   3.184   1.307  2.3862  2.3162  0.1860
 2988TIP3   OH230522   3.296   6.624   7.030  0.1959  0.1456 -0.1527
 2988TIP3    H130523   3.308   6.599   6.938 -1.0603  1.4098 -0.7021
 2988TIP3    H230524   3.315   6.718   7.031  0.9954 -0.0027  1.0670
 2989TIP3   OH230525   1.407   2.861   1.997 -0.4033 -0.0560  0.2449
 2989TIP3    H130526   1.492   2.846   1.956 -0.9490 -1.5861 -0.4235
 2989TIP3    H230527   1.406   2.801   2.072 -0.1523  1.3733  1.4382
 2990TIP3   OH230528   4.657   3.582   7.782  0.0226  0.4514  0.3851
 2990TIP3    H130529   4.610   3.544   7.709  0.5039 -0.5032  0.5575
 2990TIP3    H230530   4.663   3.675   7.761 -0.7073  0.3516 -0.2990
 2991TIP3   OH230531   2.716   5.738   0.783 -0.0009 -0.1709 -0.0994
 2991TIP3    H130532   2.753   5.670   0.838  0.4339  1.2441  1.4235
 2991TIP3    H230533   2.624   5.713   0.772  0.2912 -1.2986 -0.0952
 2992TIP3   OH230534   0.191   5.767   7.645  0.0766 -0.0163  0.9333
 2992TIP3    H130535   0.103   5.745   7.676 -0.0188 -0.0652  0.6315
 2992TIP3    H230536   0.242   5.780   7.724 -0.0138 -0.7364  1.1098
 2993TIP3   OH230537   1.402   5.282   1.374 -0.3468  0.1995 -0.4051
 2993TIP3    H130538   1.428   5.233   1.296  0.4460  0.6754 -0.4458
 2993TIP3    H230539   1.327   5.233   1.409  0.1255 -0.7733 -0.7139
 2994TIP3   OH230540   6.837   0.756   2.429  0.1921  0.4871  0.3174
 2994TIP3    H130541   6.769   0.790   2.371 -1.4115  1.6531  2.7112
 2994TIP3    H230542   6.916   0.802   2.402 -0.5216  1.1195 -0.7977
 2995TIP3   OH230543   3.659   5.092   2.123  0.5148  0.0141 -0.2588
 2995TIP3    H130544   3.702   5.136   2.195  0.5750  1.0611 -0.9203
 2995TIP3    H230545   3.569   5.080   2.152  0.6919 -0.1599  0.2348
 2996TIP3   OH230546   4.694   1.143   1.826  0.6615 -0.0289  0.2859
 2996TIP3    H130547   4.719   1.076   1.889 -0.1314 -0.0240  0.6156
 2996TIP3    H230548   4.772   1.197   1.816  0.9309 -0.2940  0.9258
 2997TIP3   OH230549   4.040   5.950   0.293  0.5674 -1.2133  0.1011
 2997TIP3    H130550   3.978   5.949   0.221 -0.5306 -0.8412  1.0157
 2997TIP3    H230551   4.039   5.861   0.327 -0.4738 -0.9051  0.9297
 2998TIP3   OH230552   6.196   1.850   2.576  1.1867  0.0299 -0.9070
 2998TIP3    H130553   6.102   1.837   2.593  1.4227 -0.5682  0.0240
 2998TIP3    H230554   6.232   1.877   2.660  1.9591 -0.3555 -1.1077
 2999TIP3   OH230555   1.619   2.343   7.647 -0.2368  0.1245  0.1090
 2999TIP3    H130556   1.602   2.249   7.657 -1.9519  0.2934 -0.7597
 2999TIP3    H230557   1.638   2.354   7.554  0.2390  0.6016  0.2604
 3000TIP3   OH230558   7.144   6.021   0.697  0.6560 -0.2537  0.2213
 3000TIP3    H130559   7.194   6.095   0.662 -1.1863  0.6478 -0.6497
 3000TIP3    H230560   7.121   5.970   0.620  1.0650 -1.2092  0.7214
 3001TIP3   OH230561   4.547   2.746   7.401 -0.3402 -0.1876 -0.1736
 3001TIP3    H130562   4.560   2.651   7.401  1.0794 -0.0145  0.0290
 3001TIP3    H230563   4.516   2.766   7.313 -1.9579 -0.9867  0.1950
 3002TIP3   OH230564   0.697   5.077   0.659  0.0687 -0.2173  0.1089
 3002TIP3    H130565   0.618   5.073   0.606  0.5388 -0.3290 -0.5912
 3002TIP3    H230566   0.741   5.156   0.630  0.6587 -0.6325 -0.1451
 3003TIP3   OH230567   6.397   1.746   6.718 -0.4366 -0.3686  0.0413
 3003TIP3    H130568   6.422   1.680   6.654  1.2910 -0.0243  0.3171
 3003TIP3    H230569   6.414   1.830   6.674 -1.0700 -0.1197  0.2641
 3004TIP3   OH230570   6.590   2.018   1.204 -0.5263  0.0892  0.6227
 3004TIP3    H130571   6.574   1.978   1.118 -0.0336 -0.4255  0.7622
 3004TIP3    H230572   6.537   2.097   1.204 -0.2900  0.2584 -0.2817
 3005TIP3   OH230573   1.377   1.873   0.097 -0.0229 -0.3908 -0.0132
 3005TIP3    H130574   1.445   1.926   0.138 -1.6256  0.7160  1.3600
 3005TIP3    H230575   1.391   1.884   0.003  0.2589  1.7874  0.2264
 3006TIP3   OH230576   2.990   3.929   7.159 -0.1719 -0.8353  0.2333
 3006TIP3    H130577   2.963   3.843   7.189 -0.4238 -0.4391  1.1634
 3006TIP3    H230578   2.928   3.951   7.090  0.3593 -1.7099 -0.5642
 3007TIP3   OH230579   5.804   5.981   2.819  0.5236  0.1354 -0.0465
 3007TIP3    H130580   5.747   6.053   2.845 -1.0683 -1.3087  0.6441
 3007TIP3    H230581   5.844   5.952   2.901  1.4603  0.4494 -0.3787
 3008TIP3   OH230582   6.281   4.296   7.963  0.8665  0.0428  0.1082
 3008TIP3    H130583   6.320   4.209   7.974  0.4428 -0.1164  0.4030
 3008TIP3    H230584   6.281   4.334   8.051 -1.2633 -0.6811  0.4956
 3009TIP3   OH230585   3.611   4.122   7.102  0.1355 -0.4496  0.3368
 3009TIP3    H130586   3.659   4.043   7.080  0.8309 -0.6556  2.3717
 3009TIP3    H230587   3.607   4.171   7.020  1.1920 -1.7991 -0.5696
 3010TIP3   OH230588   5.530   1.801   6.094  0.7549  0.0343 -0.1856
 3010TIP3    H130589   5.603   1.800   6.156 -0.3139  1.7949  1.2257
 3010TIP3    H230590   5.499   1.892   6.097  0.2966  0.0280 -2.9315
 3011TIP3   OH230591   6.542   4.781   0.525 -0.3785  0.2774 -0.3603
 3011TIP3    H130592   6.455   4.780   0.487 -1.7773  3.1823  2.3176
 3011TIP3    H230593   6.593   4.836   0.466 -1.0515  0.5699 -0.6805
 3012TIP3   OH230594   2.686   4.249   1.646  0.2230  0.3440 -0.3609
 3012TIP3    H130595   2.617   4.207   1.697 -0.3192  0.9572 -0.5717
 3012TIP3    H230596   2.733   4.304   1.708 -0.3049  0.9275 -0.4623
 3013TIP3   OH230597   1.812   0.419   2.403 -0.2777  0.1728 -0.0900
 3013TIP3    H130598   1.738   0.431   2.462 -0.6485  2.7076 -0.9359
 3013TIP3    H230599   1.875   0.487   2.429 -0.3968  1.2787 -2.4342
 3014TIP3   OH230600   4.741   3.478   7.458  0.5177  0.1369  0.1641
 3014TIP3    H130601   4.687   3.504   7.383  0.1658  0.2473  0.4506
 3014TIP3    H230602   4.678   3.457   7.527  0.8053 -1.1692  0.0519
 3015TIP3   OH230603   3.579   5.154   7.875 -0.1847 -0.1382  0.0642
 3015TIP3    H130604   3.543   5.215   7.811  2.3557  0.0128 -1.3413
 3015TIP3    H230605   3.526   5.075   7.866  0.3844 -0.2877 -2.6373
 3016TIP3   OH230606   1.105   1.781   7.450 -0.4911  0.5914 -0.1168
 3016TIP3    H130607   1.142   1.869   7.447 -2.2623  1.3521 -1.5818
 3016TIP3    H230608   1.167   1.727   7.401 -0.6570  1.5799 -1.4673
 3017TIP3   OH230609   5.320   4.908   7.175  0.3138 -0.3160  0.2299
 3017TIP3    H130610   5.372   4.828   7.175  2.5714  1.0304  1.3173
 3017TIP3    H230611   5.269   4.903   7.256  1.3259 -0.1777  0.9004
 3018TIP3   OH230612   3.416   4.864   1.919  0.4429  0.2730  0.0206
 3018TIP3    H130613   3.497   4.819   1.943 -1.4273 -2.0986  2.4074
 3018TIP3    H230614   3.362   4.797   1.877 -1.0539  1.2210  0.3516
 3019TIP3   OH230615   7.140   1.308   0.370 -0.0409  0.3011 -0.1542
 3019TIP3    H130616   7.119   1.319   0.277 -1.7393 -0.2418  0.1276
 3019TIP3    H230617   7.061   1.337   0.416  1.0301  1.2337  1.1749
 3020TIP3   OH230618   3.657   4.725   1.965 -0.1619  0.1081  0.2686
 3020TIP3    H130619   3.667   4.631   1.947 -0.8663  0.1004 -0.1194
 3020TIP3    H230620   3.710   4.740   2.043  0.1780 -0.5591  0.1765
 3021TIP3   OH230621   1.513   5.039   6.492 -0.7077  0.2554 -0.8365
 3021TIP3    H130622   1.606   5.041   6.513 -1.1101 -1.3921  1.5325
 3021TIP3    H230623   1.491   4.946   6.488 -2.2508  0.6111 -1.3784
 3022TIP3   OH230624   1.944   6.976   2.207 -0.4440  0.1370 -0.6935
 3022TIP3    H130625   2.031   6.997   2.172 -0.1711 -1.0269 -0.7445
 3022TIP3    H230626   1.950   6.885   2.234 -1.9092 -0.2171 -1.4631
 3023TIP3   OH230627   5.771   5.970   2.401  0.0790 -0.7348  0.2523
 3023TIP3    H130628   5.759   5.882   2.367 -1.2126 -1.7248  3.0272
 3023TIP3    H230629   5.815   5.959   2.485  0.8773  1.3832  0.1963
 3024TIP3   OH230630   4.862   5.058   1.144 -0.4153 -0.0867  1.2197
 3024TIP3    H130631   4.780   5.102   1.167  0.2867  2.1398 -0.2490
 3024TIP3    H230632   4.837   4.998   1.073 -0.6083  1.6256 -0.2349
 3025TIP3   OH230633   0.026   4.928   0.368  0.5488  0.7938  0.4478
 3025TIP3    H130634   0.087   5.002   0.366  1.3382  0.1407  0.0921
 3025TIP3    H230635  -0.001   4.916   0.277  0.5108  0.5583  0.4913
 3026TIP3   OH230636   2.061   6.164   6.569 -0.2031  0.3331 -0.0870
 3026TIP3    H130637   2.041   6.256   6.555 -0.2166  0.2704 -0.5118
 3026TIP3    H230638   2.022   6.143   6.653  0.6004  0.9478  0.4463
 3027TIP3   OH230639   3.409   2.123   1.414  0.0028 -0.0335 -0.0807
 3027TIP3    H130640   3.371   2.083   1.336 -1.4087  0.8186  0.1413
 3027TIP3    H230641   3.401   2.217   1.399  0.6824  0.1462  0.6376
 3028TIP3   OH230642   3.394   3.917   0.747  0.1223 -0.4270  0.1781
 3028TIP3    H130643   3.391   3.925   0.842  1.3234 -1.8451  0.3668
 3028TIP3    H230644   3.311   3.955   0.718 -0.2664  0.0425  1.7795
 3029TIP3   OH230645   4.358   0.380   0.626  0.1893 -0.6666  0.1783
 3029TIP3    H130646   4.289   0.446   0.642 -0.3416 -1.5073  1.5324
 3029TIP3    H230647   4.397   0.366   0.712  3.0087  0.7319 -0.7578
 3030TIP3   OH230648   0.405   0.656   1.246  0.1154 -0.2159  0.4364
 3030TIP3    H130649   0.427   0.749   1.242  1.6757 -0.5097  1.4435
 3030TIP3    H230650   0.405   0.627   1.155  0.2109  0.6399  0.1596
 3031TIP3   OH230651   2.674   0.340   0.107 -0.1679 -0.4445  0.3640
 3031TIP3    H130652   2.616   0.413   0.088  0.5301  0.2330  0.8006
 3031TIP3    H230653   2.638   0.301   0.187  0.5206  0.5747  1.1918
 3032TIP3   OH230654   2.193   1.248   1.634 -0.0091 -0.0052 -0.3976
 3032TIP3    H130655   2.184   1.340   1.610  0.6135  0.0001 -0.6196
 3032TIP3    H230656   2.279   1.243   1.677 -0.5874 -0.2375  0.7777
 3033TIP3   OH230657   0.827   5.324   0.567 -0.0743 -0.4974  0.0245
 3033TIP3    H130658   0.920   5.346   0.554  0.0905 -0.9747  0.3383
 3033TIP3    H230659   0.785   5.348   0.485  0.5406 -1.4040 -0.5812
 3034TIP3   OH230660   0.231   3.980   7.058 -0.0415 -0.2673 -0.3634
 3034TIP3    H130661   0.317   3.973   7.018  0.7747  0.9564  1.0717
 3034TIP3    H230662   0.248   4.005   7.149 -1.7820 -3.2336  0.9359
 3035TIP3   OH230663   0.400   1.822   1.097  0.1083  0.1913 -0.1448
 3035TIP3    H130664   0.450   1.743   1.118  0.3799 -0.2434 -2.2251
 3035TIP3    H230665   0.465   1.893   1.100  0.5499 -0.1459 -1.3346
 3036TIP3   OH230666   2.728   2.199   0.933 -0.3714 -0.3975 -0.1785
 3036TIP3    H130667   2.679   2.191   1.015 -3.0877  1.4103 -1.4835
 3036TIP3    H230668   2.710   2.288   0.903  3.6265  0.3556 -0.9592
 3037TIP3   OH230669   1.421   4.218   6.618  0.6183  0.3515 -0.3758
 3037TIP3    H130670   1.507   4.181   6.638 -0.0269 -2.1742 -1.8572
 3037TIP3    H230671   1.388   4.250   6.702  1.7244 -1.4869  0.8304
 3038TIP3   OH230672   0.809   4.534   7.357  0.0866 -0.5111  0.0903
 3038TIP3    H130673   0.862   4.474   7.304  0.2654  0.7040 -1.1852
 3038TIP3    H230674   0.832   4.514   7.447  0.3484 -2.1523 -0.3107
 3039TIP3   OH230675   3.042   0.560   1.787  0.5157 -0.0119  0.2985
 3039TIP3    H130676   3.043   0.464   1.786  1.3436 -0.0135 -0.5936
 3039TIP3    H230677   3.097   0.585   1.713 -0.6666  1.1684 -0.2117
 3040TIP3   OH230678   2.172   3.069   7.406 -0.6593 -0.0430 -0.0575
 3040TIP3    H130679   2.133   3.020   7.478  0.1750  0.8561  1.0417
 3040TIP3    H230680   2.234   3.008   7.367  0.3856  0.0936  1.3096
 3041TIP3   OH230681   0.878   6.196   0.897  0.1250  1.1563 -0.1529
 3041TIP3    H130682   0.816   6.150   0.841  0.7728 -0.5905  0.4908
 3041TIP3    H230683   0.843   6.187   0.986  1.9414 -1.1885  0.4348
 3042TIP3   OH230684   1.776   0.475   7.665  0.8995  0.2653 -0.2174
 3042TIP3    H130685   1.698   0.473   7.609  1.3828 -1.2789 -0.9030
 3042TIP3    H230686   1.742   0.463   7.754  0.1917  1.8795 -0.2367
 3043TIP3   OH230687   2.466   7.146   7.521  0.2709 -0.4278 -0.0289
 3043TIP3    H130688   2.436   7.150   7.612 -1.4001 -0.7069 -0.5395
 3043TIP3    H230689   2.560   7.131   7.528  0.1033 -0.9428  1.6625
 3044TIP3   OH230690   0.119   5.897   6.001  0.5689  0.3291 -0.2165
 3044TIP3    H130691   0.077   5.935   5.924  0.9771  1.9290  0.3143
 3044TIP3    H230692   0.059   5.916   6.073  1.2541  0.8686  0.2198
 3045TIP3   OH230693   0.844   3.474   1.452 -0.0195 -0.7031 -0.1505
 3045TIP3    H130694   0.927   3.512   1.426  0.9717 -1.0825  2.1943
 3045TIP3    H230695   0.807   3.437   1.372  1.5972  0.3329 -1.4062
 3046TIP3   OH230696   6.473   6.751   1.375 -0.1244 -0.1103  0.1806
 3046TIP3    H130697   6.469   6.827   1.317  1.4894  0.7075  1.0893
 3046TIP3    H230698   6.382   6.720   1.380 -0.6743  1.2562 -0.8416
 3047TIP3   OH230699   2.057   0.682   7.351  0.1026  0.4519  0.2221
 3047TIP3    H130700   1.984   0.658   7.408  0.2277 -1.7623 -0.4684
 3047TIP3    H230701   2.136   0.662   7.402  0.2323 -2.5339 -0.9702
 3048TIP3   OH230702   6.883   6.612   7.192  0.0306 -0.0643  0.1268
 3048TIP3    H130703   6.888   6.611   7.096  0.4083 -0.9089  0.1459
 3048TIP3    H230704   6.955   6.556   7.220  2.1700  2.9482  1.0310
 3049TIP3   OH230705   3.189   4.131   1.020 -0.0167  0.5661  0.0028
 3049TIP3    H130706   3.168   4.222   1.041 -0.8206  0.4335 -0.1802
 3049TIP3    H230707   3.278   4.118   1.052  0.2085  1.4997 -0.2245
 3050TIP3   OH230708   4.047   4.165   7.933  0.1510 -0.1620 -0.6256
 3050TIP3    H130709   4.107   4.239   7.938 -0.3884  0.2015  1.0422
 3050TIP3    H230710   4.064   4.115   8.013 -1.4065 -0.3257 -0.3658
 3051TIP3   OH230711   2.270   3.682   7.721  0.0812  0.6272  0.5027
 3051TIP3    H130712   2.320   3.728   7.788  3.0617 -1.4410 -0.0841
 3051TIP3    H230713   2.326   3.685   7.643 -1.5809 -0.2329 -0.8000
 3052TIP3   OH230714   5.322   0.212   1.324 -0.1302  0.5319 -0.1171
 3052TIP3    H130715   5.395   0.179   1.376  0.4963  1.4541 -0.3998
 3052TIP3    H230716   5.294   0.137   1.272  0.0198 -0.0696  0.6486
 3053TIP3   OH230717   1.799   6.360   6.935  0.0605  0.0827  0.1270
 3053TIP3    H130718   1.840   6.403   7.009  0.0360  1.7712 -0.7808
 3053TIP3    H230719   1.706   6.357   6.957  0.1864 -0.3712  0.6031
 3054TIP3   OH230720   1.978   0.344   6.687 -0.3992 -0.5976  0.0073
 3054TIP3    H130721   2.051   0.282   6.686 -0.3973 -0.5992  0.2627
 3054TIP3    H230722   2.009   0.418   6.635  0.7039  0.4530  2.0342
 3055TIP3   OH230723   3.176   1.615   7.382 -0.1140 -0.2963 -0.3796
 3055TIP3    H130724   3.203   1.679   7.447 -0.0400  1.2516 -1.8485
 3055TIP3    H230725   3.127   1.549   7.431  1.0334  0.1219  1.3970
 3056TIP3   OH230726   4.337   6.152   1.973 -0.0265 -0.2849  0.1523
 3056TIP3    H130727   4.307   6.094   1.903 -1.0888 -0.1891  0.5139
 3056TIP3    H230728   4.283   6.129   2.048  1.2907 -0.5740  1.0457
 3057TIP3   OH230729   5.815   0.010   0.831 -0.0155  0.4034  0.1839
 3057TIP3    H130730   5.769  -0.074   0.830 -0.9756  0.8990  1.4856
 3057TIP3    H230731   5.875   0.003   0.905 -0.8796  1.2588  0.9855
 3058TIP3   OH230732   4.538   0.157   0.563 -0.5018  0.2606 -0.0656
 3058TIP3    H130733   4.451   0.196   0.571 -0.6961  0.0525 -0.9801
 3058TIP3    H230734   4.590   0.224   0.519 -0.0848  0.5363  0.8312
 3059TIP3   OH230735   2.769   6.393   7.535 -0.1159  0.4116 -0.2028
 3059TIP3    H130736   2.712   6.337   7.588 -1.8488  0.4740 -1.8933
 3059TIP3    H230737   2.736   6.482   7.549  1.5823  0.8781  1.1909
 3060TIP3   OH230738   1.050   5.278   0.152  0.1608  0.3753  0.1416
 3060TIP3    H130739   1.097   5.361   0.139  2.3582 -0.5876  1.3088
 3060TIP3    H230740   1.083   5.221   0.083  1.4753 -0.5786  1.4921
 3061TIP3   OH230741   4.305   6.693   0.388  0.2399 -0.3722 -0.8609
 3061TIP3    H130742   4.315   6.786   0.370 -0.6104 -0.5990 -2.6687
 3061TIP3    H230743   4.227   6.667   0.339 -0.3696 -1.7637  0.7207
 3062TIP3   OH230744   5.374   4.027   6.541 -0.5322 -0.0892  0.5427
 3062TIP3    H130745   5.460   4.067   6.529 -1.2854  1.2418 -0.6244
 3062TIP3    H230746   5.391   3.952   6.599  1.6204 -0.6555 -0.7042
 3063TIP3   OH230747   0.743   2.536   7.152  0.1810 -0.1277 -0.0312
 3063TIP3    H130748   0.737   2.608   7.089 -0.2845 -0.6000 -0.5378
 3063TIP3    H230749   0.652   2.515   7.174  0.3448  0.4396  1.2881
 3064TIP3   OH230750   5.223   4.851   7.440  0.0709 -0.5822 -0.5056
 3064TIP3    H130751   5.145   4.876   7.490 -1.3577 -2.1316 -1.8264
 3064TIP3    H230752   5.297   4.883   7.492 -1.3988 -0.3321  1.5339
 3065TIP3   OH230753   6.749   0.943   0.168  0.0639  0.4764 -0.3162
 3065TIP3    H130754   6.728   0.925   0.077 -1.8650 -0.6905  0.2798
 3065TIP3    H230755   6.772   0.858   0.205  1.4085  1.0285  0.1709
 3066TIP3   OH230756   3.357   3.255   0.678 -0.3769 -0.1283 -0.1083
 3066TIP3    H130757   3.311   3.298   0.606  0.3188  0.1092 -0.4240
 3066TIP3    H230758   3.299   3.265   0.753 -0.9877 -0.1328 -0.5687
 3067TIP3   OH230759   6.252   0.121   0.400 -0.0494 -0.5640 -0.4435
 3067TIP3    H130760   6.243   0.138   0.306  2.3941  0.5793 -0.5373
 3067TIP3    H230761   6.203   0.040   0.414 -1.8016  0.0785 -2.3668
 3068TIP3   OH230762   4.240   4.348   1.501  0.1816 -0.1087 -0.4026
 3068TIP3    H130763   4.213   4.435   1.529  1.3968 -0.3033  1.6339
 3068TIP3    H230764   4.190   4.331   1.421 -1.5203  1.6683  0.2010
 3069TIP3   OH230765   6.428   3.395   0.307  0.0494 -0.8160  0.4773
 3069TIP3    H130766   6.365   3.445   0.359 -2.6219 -1.9082 -1.5051
 3069TIP3    H230767   6.427   3.308   0.347  0.3773 -0.8317  0.4571
 3070TIP3   OH230768   5.324   5.533   7.957  0.0892 -0.3658  0.5173
 3070TIP3    H130769   5.281   5.453   7.928 -0.8082  0.2708  0.0324
 3070TIP3    H230770   5.261   5.575   8.016 -1.7121  2.3972 -2.9626
 3071TIP3   OH230771   7.045   2.637   1.085  0.7965  0.5622 -0.0177
 3071TIP3    H130772   7.114   2.675   1.031 -0.7993  1.4163 -1.5489
 3071TIP3    H230773   6.965   2.648   1.034 -0.1234 -2.8698  0.4513
 3072TIP3   OH230774   5.582   2.779   0.707 -0.2566 -0.0685 -0.0623
 3072TIP3    H130775   5.491   2.769   0.681 -0.0465 -1.3981 -0.3484
 3072TIP3    H230776   5.587   2.867   0.744 -1.6023  0.0978 -0.2372
 3073TIP3   OH230777   1.030   5.379   6.584  0.0384 -0.0840 -0.7304
 3073TIP3    H130778   1.115   5.400   6.546 -0.3592  3.8841  0.1407
 3073TIP3    H230779   1.051   5.350   6.673  0.5718 -2.9478 -1.6886
 3074TIP3   OH230780   6.953   5.763   6.652  0.0492  0.0551  0.0803
 3074TIP3    H130781   6.908   5.701   6.709 -0.7022  0.1861 -0.3610
 3074TIP3    H230782   6.887   5.790   6.588  0.2583  1.5607  0.4591
 3075TIP3   OH230783   6.144   3.960   7.790  0.4161  0.2229 -0.2176
 3075TIP3    H130784   6.126   3.876   7.832 -0.4144  0.8530  0.7384
 3075TIP3    H230785   6.236   3.977   7.810  0.9033 -0.9501 -1.3466
 3076TIP3   OH230786   5.811   1.972   6.576  0.0226  0.3763  0.1886
 3076TIP3    H130787   5.892   2.006   6.538  0.5492  0.3888  1.2868
 3076TIP3    H230788   5.747   1.975   6.505  0.7774  1.1231 -0.4626
 3077TIP3   OH230789   5.992   0.556   2.282  0.4779 -0.0761  0.4095
 3077TIP3    H130790   5.948   0.639   2.298  0.1831 -0.1901  0.1914
 3077TIP3    H230791   5.951   0.494   2.342 -1.2264 -0.7063 -1.3259
 3078TIP3   OH230792   6.450   4.439   0.951  0.3407 -0.0113  0.0527
 3078TIP3    H130793   6.478   4.530   0.958  1.5084 -0.3527  0.0947
 3078TIP3    H230794   6.512   4.400   0.888 -0.2671 -0.7282 -0.1134
 3079TIP3   OH230795   1.025   0.133   1.299 -0.0688  0.2530 -0.1257
 3079TIP3    H130796   1.098   0.088   1.342 -0.9573 -1.3617 -0.2315
 3079TIP3    H230797   0.948   0.081   1.321 -1.0524  1.3189 -0.8887
 3080TIP3   OH230798   7.092   0.499   7.979  0.6229 -0.3640 -0.1340
 3080TIP3    H130799   7.033   0.515   7.905  0.3884 -0.5437  0.0123
 3080TIP3    H230800   7.175   0.538   7.952  0.3268  0.2680 -0.1726
 3081TIP3   OH230801   4.799   5.692   6.773  0.4315  0.0837 -0.6574
 3081TIP3    H130802   4.720   5.745   6.767  0.8314  0.6479 -1.0053
 3081TIP3    H230803   4.846   5.708   6.691  1.9689  1.4738  0.4220
 3082TIP3   OH230804   3.028   0.633   7.175  0.1350  0.4785 -0.0204
 3082TIP3    H130805   2.985   0.577   7.110  1.3833 -1.0026  0.3633
 3082TIP3    H230806   3.122   0.614   7.164  0.3921  0.4918  1.9133
 3083TIP3   OH230807   6.812   6.313   6.826 -0.5113 -0.3913 -0.0940
 3083TIP3    H130808   6.852   6.396   6.851  0.4351 -0.7402 -0.4213
 3083TIP3    H230809   6.719   6.333   6.817 -0.3616  0.5215  0.2893
 3084TIP3   OH230810   5.277   1.210   1.554  0.2015 -0.1244  0.2134
 3084TIP3    H130811   5.354   1.260   1.581  0.5312 -0.0641 -0.7796
 3084TIP3    H230812   5.210   1.277   1.537  0.2762 -0.0974  0.0197
 3085TIP3   OH230813   5.683   1.746   6.309  0.1833  0.1279 -0.3523
 3085TIP3    H130814   5.638   1.824   6.341  0.6550  0.8542 -1.4074
 3085TIP3    H230815   5.776   1.768   6.315  0.2832  0.2110 -2.0062
 3086TIP3   OH230816   1.239   3.603   7.877  0.0290 -0.2935  0.2300
 3086TIP3    H130817   1.205   3.685   7.843 -2.7268 -0.3750  2.4037
 3086TIP3    H230818   1.252   3.619   7.971  2.1305 -1.5973  0.2423
 3087TIP3   OH230819   4.569   1.452   0.308  0.1822  0.2713  0.0902
 3087TIP3    H130820   4.535   1.437   0.220  0.2616  1.7679 -0.2256
 3087TIP3    H230821   4.509   1.516   0.346  0.3459 -0.1035  1.0105
 3088TIP3   OH230822   4.390   1.052   6.486  0.3133 -0.3161 -0.2787
 3088TIP3    H130823   4.485   1.040   6.484  0.2982 -0.3879 -0.5522
 3088TIP3    H230824   4.377   1.133   6.536  0.4381 -1.2152  1.2762
 3089TIP3   OH230825   3.316   4.706   1.236  0.6792 -0.0530  0.1342
 3089TIP3    H130826   3.249   4.711   1.167  0.4372 -2.2783  0.1462
 3089TIP3    H230827   3.396   4.737   1.194  0.6577 -1.8640 -1.3620
 3090TIP3   OH230828   4.976   4.763   0.063 -0.3215 -0.4354  0.4173
 3090TIP3    H130829   5.017   4.716   0.135  0.1598 -0.2340  0.2831
 3090TIP3    H230830   5.031   4.841   0.051 -0.4560 -0.4162 -0.0968
 3091TIP3   OH230831   5.588   1.132   6.463 -0.1083  0.1743 -0.1496
 3091TIP3    H130832   5.577   1.210   6.408  0.9451  0.0825 -0.5092
 3091TIP3    H230833   5.499   1.100   6.477 -0.4232  0.2892 -1.6970
 3092TIP3   OH230834   1.942   6.327   1.964  0.2713  0.2791 -0.4631
 3092TIP3    H130835   2.032   6.347   1.990  1.2037 -1.5590 -1.9838
 3092TIP3    H230836   1.896   6.311   2.046  1.6434  0.1327  0.3161
 3093TIP3   OH230837   4.344   3.268   2.490 -0.2401  0.3737  0.4603
 3093TIP3    H130838   4.266   3.319   2.509 -0.3285 -0.0540  1.2984
 3093TIP3    H230839   4.416   3.319   2.527 -0.2122  0.3863  0.3886
 3094TIP3   OH230840   5.594   5.098   0.508 -0.2225  0.3267 -0.1124
 3094TIP3    H130841   5.563   5.189   0.514  0.0385  0.4476 -0.5375
 3094TIP3    H230842   5.644   5.084   0.588  1.1188  1.0917 -0.7798
 3095TIP3   OH230843   4.784   1.453   7.329 -0.0722 -0.0309  0.1376
 3095TIP3    H130844   4.799   1.525   7.390  1.2731 -0.2117  0.0573
 3095TIP3    H230845   4.770   1.496   7.245 -0.2990  0.1720  0.2796
 3096TIP3   OH230846   0.198   2.680   8.002 -0.5635  0.9690  0.9967
 3096TIP3    H130847   0.145   2.760   8.005  0.3019  1.6082  0.0144
 3096TIP3    H230848   0.135   2.610   7.984 -1.0222  1.8137 -1.0032
 3097TIP3   OH230849   3.577   4.562   7.865 -0.4647 -0.5036 -0.3673
 3097TIP3    H130850   3.634   4.504   7.916 -0.5008 -1.1237 -1.0140
 3097TIP3    H230851   3.637   4.606   7.804 -0.4129  0.2769  0.2434
 3098TIP3   OH230852   7.040   5.262   0.704 -0.1100 -0.0631  0.2333
 3098TIP3    H130853   7.056   5.167   0.704 -0.1392 -0.0705  0.8212
 3098TIP3    H230854   7.035   5.285   0.611 -1.4378 -0.8628  0.0780
 3099TIP3   OH230855   5.079   1.692   7.066 -0.2270  0.0106  0.1474
 3099TIP3    H130856   4.996   1.684   7.020  1.3093 -2.2955 -2.5743
 3099TIP3    H230857   5.138   1.734   7.003  0.6734  1.9045  2.1142
 3100TIP3   OH230858   3.995   3.158   0.563  0.1562  0.1891 -0.0427
 3100TIP3    H130859   3.989   3.067   0.590  0.3429 -0.7294 -2.8060
 3100TIP3    H230860   4.089   3.176   0.558  0.1342  0.2276 -0.3696
 3101TIP3   OH230861   0.622   3.999   1.580 -0.2885 -0.8432  0.6400
 3101TIP3    H130862   0.658   3.972   1.665  1.3416 -0.6968  0.0398
 3101TIP3    H230863   0.619   4.095   1.586  1.9317 -0.6566 -0.1931
 3102TIP3   OH230864   1.170   3.268   1.682  0.2617  0.3435 -0.2542
 3102TIP3    H130865   1.099   3.204   1.681  0.6349 -0.0805 -0.0882
 3102TIP3    H230866   1.242   3.223   1.726  0.6047  0.7985 -0.3419
 3103TIP3   OH230867   2.596   6.372   1.981 -0.0116 -0.1647  0.2457
 3103TIP3    H130868   2.620   6.280   1.991 -1.2793 -0.5844 -0.4277
 3103TIP3    H230869   2.618   6.393   1.890  1.0833  0.4713  0.6310
 3104TIP3   OH230870   6.859   4.151   1.002 -0.3887  0.3493 -0.0619
 3104TIP3    H130871   6.866   4.127   0.910  0.1938  2.0021 -0.4750
 3104TIP3    H230872   6.947   4.179   1.026 -0.6772  0.5054  0.8373
 3105TIP3   OH230873   5.487   5.653   1.735 -0.8026 -0.1204 -0.5631
 3105TIP3    H130874   5.425   5.591   1.699 -0.6488 -1.2808  1.0669
 3105TIP3    H230875   5.545   5.600   1.790  0.9779  1.0812 -1.1916
 3106TIP3   OH230876   4.022   2.335   0.086  0.0877 -0.0790 -0.1096
 3106TIP3    H130877   4.022   2.278   0.009 -1.7555 -0.5473  0.2057
 3106TIP3    H230878   4.004   2.277   0.160 -0.5731  0.7150  0.3737
 3107TIP3   OH230879   0.003   5.220   1.846 -0.1781  0.0632 -0.4662
 3107TIP3    H130880   0.037   5.157   1.782  2.8214 -1.0786  1.9903
 3107TIP3    H230881  -0.009   5.169   1.926  0.7169  2.2202  1.1645
 3108TIP3   OH230882   0.013   7.089   7.508 -0.3286  0.5738  0.1514
 3108TIP3    H130883  -0.061   7.038   7.540  1.7494 -0.6014  3.5841
 3108TIP3    H230884   0.025   7.061   7.417 -3.4140  0.1251 -0.2035
 3109TIP3   OH230885   1.541   5.476   1.972  0.0691  0.0185 -0.2613
 3109TIP3    H130886   1.457   5.432   1.959  0.9419 -1.0051 -3.3774
 3109TIP3    H230887   1.519   5.569   1.970 -0.9442 -0.1878 -2.3708
 3110TIP3   OH230888   0.142   1.076   0.386 -0.3722  0.7016  0.3808
 3110TIP3    H130889   0.094   1.156   0.366 -0.6725  0.2636 -0.6918
 3110TIP3    H230890   0.077   1.017   0.425 -0.7174  0.1226 -1.0364
 3111TIP3   OH230891   2.213   0.161   0.893  0.2644 -0.0365  0.6358
 3111TIP3    H130892   2.185   0.224   0.960 -1.7305 -0.5670  0.3749
 3111TIP3    H230893   2.184   0.076   0.926 -0.7920 -0.3047 -0.8902
 3112TIP3   OH230894   0.052   3.133   2.452 -0.4886  0.3787  0.1637
 3112TIP3    H130895  -0.042   3.128   2.434 -0.3980 -0.3613 -0.1260
 3112TIP3    H230896   0.074   3.047   2.486 -0.0297  0.7521  0.8107
 3113TIP3   OH230897   4.470   5.299   1.342 -0.0469  0.2418 -0.0485
 3113TIP3    H130898   4.458   5.345   1.425 -0.7255  1.3159 -0.7080
 3113TIP3    H230899   4.557   5.325   1.312  0.2624 -0.2706  0.3847
 3114TIP3   OH230900   0.048   6.053   2.569 -0.1221  0.7585  0.1464
 3114TIP3    H130901  -0.000   5.973   2.586 -2.0003  2.2048  2.1924
 3114TIP3    H230902   0.088   6.040   2.482  3.0769 -3.9235  1.9134
 3115TIP3   OH230903   3.736   2.823   7.865  0.1833  0.3549  0.2883
 3115TIP3    H130904   3.756   2.908   7.905  2.6959  0.1072 -0.2779
 3115TIP3    H230905   3.686   2.845   7.786  0.2262  1.2588  0.4968
 3116TIP3   OH230906   3.034   6.055   0.126  0.5711  0.4070  0.0006
 3116TIP3    H130907   3.042   6.083   0.035 -2.7107  0.1220 -0.4849
 3116TIP3    H230908   3.014   6.136   0.174  0.8896  0.3450  0.2401
 3117TIP3   OH230909   2.615   3.964   7.920 -0.2188 -0.1785  0.1847
 3117TIP3    H130910   2.646   4.050   7.893 -0.1578 -0.6784 -1.4493
 3117TIP3    H230911   2.650   3.952   8.008  2.1121  0.3412 -0.6083
 3118TIP3   OH230912   5.569   0.157   2.517  0.3453  0.2932  0.1951
 3118TIP3    H130913   5.475   0.157   2.536  0.0542  4.7017 -0.2624
 3118TIP3    H230914   5.574   0.155   2.422  0.6101  1.5018  0.1763
 3119TIP3   OH230915   6.478   1.835   0.221 -0.3141 -0.0292  0.2286
 3119TIP3    H130916   6.473   1.752   0.268 -2.5049 -0.4500 -0.6368
 3119TIP3    H230917   6.544   1.821   0.153 -0.7460 -1.1278  0.0167
 3120TIP3   OH230918   6.839   6.766   0.454  0.4058  0.0238 -0.3478
 3120TIP3    H130919   6.800   6.679   0.459  0.2977  0.0037 -1.3218
 3120TIP3    H230920   6.765   6.824   0.433  0.7931  0.0543 -1.7240
 3121TIP3   OH230921   0.859   1.103   2.287  0.6022 -0.1511 -0.1482
 3121TIP3    H130922   0.878   1.197   2.293  1.5122 -0.3349 -0.0057
 3121TIP3    H230923   0.770   1.099   2.253  1.4765  0.7646 -2.7881
 3122TIP3   OH230924   4.229   0.007   1.680 -0.0770 -0.2043  0.1080
 3122TIP3    H130925   4.199   0.097   1.687  2.7612  0.8020  0.6422
 3122TIP3    H230926   4.221  -0.028   1.769 -3.6115 -1.4640 -0.5518
 3123TIP3   OH230927   5.443   1.301   6.885  0.6420 -0.4121  0.3857
 3123TIP3    H130928   5.353   1.324   6.906  0.1365 -2.4317  0.6240
 3123TIP3    H230929   5.458   1.342   6.800 -0.7111 -0.5346  0.0568
 3124TIP3   OH230930   4.109   1.473   1.214  0.2093 -0.2493 -0.2615
 3124TIP3    H130931   4.037   1.413   1.195 -0.4152  0.7051 -1.0029
 3124TIP3    H230932   4.186   1.431   1.176  0.4703 -2.1985  2.1722
 3125TIP3   OH230933   4.179   1.610   7.144  0.6797  0.0085 -0.6810
 3125TIP3    H130934   4.219   1.696   7.147  1.8907 -0.4832 -2.0133
 3125TIP3    H230935   4.246   1.553   7.107  0.2842 -1.7407  1.1329
 3126TIP3   OH230936   0.703   0.012   6.143  0.2189  0.2233 -0.0183
 3126TIP3    H130937   0.698   0.095   6.191  0.7694 -0.2040  0.7825
 3126TIP3    H230938   0.749   0.034   6.062  2.1432  0.3189  1.0615
 3127TIP3   OH230939   0.632   4.428   2.154 -0.4552  0.1130 -0.6701
 3127TIP3    H130940   0.615   4.350   2.101  0.7211 -1.7005  1.4559
 3127TIP3    H230941   0.725   4.422   2.176 -0.9616  0.5793  1.8369
 3128TIP3   OH230942   6.196   7.141   1.497  0.0062  0.2979  0.3415
 3128TIP3    H130943   6.276   7.125   1.546  0.7197  2.8513  0.1700
 3128TIP3    H230944   6.126   7.104   1.551  1.2499 -2.1433  0.4036
 3129TIP3   OH230945   1.642   2.163   0.763 -0.5922  0.6219  0.3710
 3129TIP3    H130946   1.566   2.135   0.814 -1.2150  0.3437 -0.6788
 3129TIP3    H230947   1.606   2.184   0.677  0.3302  1.7148  0.2280
 3130TIP3   OH230948   0.874   2.398   7.665  0.7618 -0.1352  0.7738
 3130TIP3    H130949   0.823   2.400   7.745  0.2493  2.8579  0.4761
 3130TIP3    H230950   0.813   2.424   7.596  1.4868 -1.4834 -0.4339
 3131TIP3   OH230951   0.659   1.731   2.245 -0.6552 -0.3807  0.6479
 3131TIP3    H130952   0.627   1.821   2.256 -0.3627  0.0779 -1.7132
 3131TIP3    H230953   0.750   1.741   2.217 -0.1733 -1.4972  1.7022
 3132TIP3   OH230954   3.385   3.309   7.339 -0.0464  0.6866 -0.6795
 3132TIP3    H130955   3.338   3.226   7.333 -0.4548  0.9792 -1.6330
 3132TIP3    H230956   3.458   3.300   7.279  1.7325 -0.1138  1.4593
 3133TIP3   OH230957   1.389   1.372   2.616  0.0725  0.1649  0.2526
 3133TIP3    H130958   1.294   1.365   2.606  0.1037  0.4208 -0.2460
 3133TIP3    H230959   1.402   1.452   2.667  0.0816  0.9466 -0.9489
 3134TIP3   OH230960   1.306   7.051   7.779 -0.8438  0.2454  0.0123
 3134TIP3    H130961   1.275   7.105   7.705 -2.0562  0.5989  0.7432
 3134TIP3    H230962   1.393   7.086   7.799  0.2448 -0.9414 -2.2824
 3135TIP3   OH230963   4.403   1.083   6.809 -0.4931 -0.4837 -0.3620
 3135TIP3    H130964   4.343   1.067   6.881 -0.7305 -1.4210 -0.7541
 3135TIP3    H230965   4.356   1.145   6.753 -0.7618 -0.5852 -0.2533
 3136TIP3   OH230966   1.622   5.125   6.924  0.2596 -0.1355  0.0656
 3136TIP3    H130967   1.576   5.099   6.844  0.8743  0.1025 -0.3743
 3136TIP3    H230968   1.610   5.220   6.929  1.6942  0.1176 -0.7128
 3137TIP3   OH230969   4.644   2.925   2.034 -0.0789  0.1630  0.0490
 3137TIP3    H130970   4.679   2.985   2.100  0.0188 -0.2386  0.3676
 3137TIP3    H230971   4.581   2.871   2.082  0.4638 -0.5651 -0.0353
 3138TIP3   OH230972   1.705   5.983   6.868  0.3238  0.1697  0.2118
 3138TIP3    H130973   1.648   6.048   6.910  0.9296 -0.2987  1.8631
 3138TIP3    H230974   1.645   5.925   6.821 -0.5785 -0.0946  1.6122
 3139TIP3   OH230975   5.203   3.580   0.154 -0.5692 -0.0753 -0.9275
 3139TIP3    H130976   5.233   3.632   0.080 -1.3008  1.5960 -0.1167
 3139TIP3    H230977   5.259   3.503   0.154  1.3421  1.2404 -1.5252
 3140TIP3   OH230978   0.929   6.197   0.033  0.2294 -0.0338 -0.4227
 3140TIP3    H130979   0.971   6.228  -0.047  0.5381  0.0625 -0.2259
 3140TIP3    H230980   0.988   6.225   0.103 -0.4171  0.5780 -0.0995
 3141TIP3   OH230981   4.264   3.589   7.813  0.2958  0.2786 -0.0219
 3141TIP3    H130982   4.191   3.547   7.768  0.4159  0.5481 -0.4660
 3141TIP3    H230983   4.342   3.560   7.767  0.5656 -0.8163  1.0708
 3142TIP3   OH230984   4.137   3.649   6.506 -0.0326  0.7663 -0.3246
 3142TIP3    H130985   4.097   3.666   6.591 -0.5510 -0.1019 -0.3803
 3142TIP3    H230986   4.063   3.626   6.449  0.5707 -1.9659 -0.1554
 3143TIP3   OH230987   4.440   4.697   0.873 -0.0879 -0.9456 -0.4689
 3143TIP3    H130988   4.400   4.644   0.803 -1.1106 -1.0137  0.1469
 3143TIP3    H230989   4.368   4.715   0.933  0.6640 -0.4256  0.2941
 3144TIP3   OH230990   5.264   4.156   1.005 -0.2124 -0.1009  0.7488
 3144TIP3    H130991   5.262   4.225   1.071  1.0161 -0.3181  1.0398
 3144TIP3    H230992   5.265   4.075   1.056  2.2914 -0.2597  0.5766
 3145TIP3   OH230993   1.879   4.153   1.205 -0.0620  0.0192 -0.5297
 3145TIP3    H130994   1.806   4.216   1.207  0.7855  1.0821 -1.3033
 3145TIP3    H230995   1.957   4.206   1.225  0.5410 -1.0292 -0.0366
 3146TIP3   OH230996   6.178   4.866   2.437 -0.3391  0.0049  0.0110
 3146TIP3    H130997   6.104   4.815   2.402  1.2921 -2.5919  0.0869
 3146TIP3    H230998   6.205   4.921   2.364 -1.0909 -0.5114 -0.6796
 3147TIP3   OH230999   3.647   5.895   6.753  0.1148 -0.4877 -0.4188
 3147TIP3    H131000   3.694   5.973   6.783  0.1391 -0.4838 -0.4670
 3147TIP3    H231001   3.714   5.840   6.714  0.2636 -0.9835  0.5079
 3148TIP3   OH231002   1.165   6.390   7.590 -0.3368 -0.2776 -0.2983
 3148TIP3    H131003   1.188   6.480   7.567 -1.8527  0.1512 -0.2489
 3148TIP3    H231004   1.167   6.343   7.507 -0.7532  0.0941 -0.5239
 3149TIP3   OH231005   3.518   6.035   2.007  0.3886 -0.0797  0.2460
 3149TIP3    H131006   3.502   5.961   2.066  0.2125  0.0253  0.3304
 3149TIP3    H231007   3.599   6.074   2.040 -0.4893  0.8815  1.3490
 3150TIP3   OH231008   2.413   0.345   7.881 -0.6692 -0.2772  0.2011
 3150TIP3    H131009   2.425   0.416   7.943 -0.7804 -0.1946  0.1275
 3150TIP3    H231010   2.407   0.388   7.796 -1.4479 -0.3172  0.2276
 3151TIP3   OH231011   4.237   4.793   2.502  0.1430  0.4087  0.4050
 3151TIP3    H131012   4.249   4.869   2.445 -0.1027  1.4798  1.7475
 3151TIP3    H231013   4.246   4.827   2.591 -1.0708 -0.9201  1.0769
 3152TIP3   OH231014   1.777   3.814   1.190 -0.1445  0.5842 -0.4319
 3152TIP3    H131015   1.854   3.842   1.239 -0.6341  2.2573 -0.5627
 3152TIP3    H231016   1.803   3.823   1.098  0.7474 -2.4730 -0.5896
 3153TIP3   OH231017   4.448   3.815   0.391  0.5808  0.2237  0.3898
 3153TIP3    H131018   4.480   3.725   0.391 -0.8390 -0.3155 -0.8268
 3153TIP3    H231019   4.406   3.826   0.476 -0.1418 -0.6190  0.1540
 3154TIP3   OH231020   5.001   0.820   0.625 -0.2693  0.2547  0.1071
 3154TIP3    H131021   5.003   0.733   0.665 -0.6395  0.5286  0.7234
 3154TIP3    H231022   5.089   0.854   0.636 -0.2405  0.1357  0.2448
 3155TIP3   OH231023   6.669   1.861   2.586 -0.3823 -0.1939 -0.5247
 3155TIP3    H131024   6.689   1.786   2.643 -1.2934 -1.1644 -1.4374
 3155TIP3    H231025   6.731   1.853   2.514 -0.6022 -0.1775 -0.7158
 3156TIP3   OH231026   2.958   2.112   2.370  0.5160  0.0578 -0.7841
 3156TIP3    H131027   3.045   2.140   2.343  0.1313  0.4850 -1.6165
 3156TIP3    H231028   2.903   2.190   2.360 -0.2268 -0.5311 -1.5351
 3157TIP3   OH231029   4.678   2.707   0.588 -0.2700 -0.1294 -0.7974
 3157TIP3    H131030   4.653   2.787   0.543  1.7005  1.5520  0.8856
 3157TIP3    H231031   4.771   2.696   0.568 -0.3017 -1.5242 -0.3048
 3158TIP3   OH231032   4.772   2.864   6.635 -0.2672 -0.0705 -0.5996
 3158TIP3    H131033   4.830   2.790   6.620  1.3354  0.7561  1.0332
 3158TIP3    H231034   4.795   2.895   6.723 -3.7809 -0.1744  0.5219
 3159TIP3   OH231035   6.387   6.840   0.275 -0.1062  0.3915  0.2497
 3159TIP3    H131036   6.297   6.822   0.301  0.0695 -1.1324 -0.0935
 3159TIP3    H231037   6.419   6.757   0.239  0.6185  1.5799 -2.0043
 3160TIP3   OH231038   0.177   4.061   1.922  0.1306 -0.1333  0.5370
 3160TIP3    H131039   0.152   4.121   1.992 -1.2169  1.7834 -1.4798
 3160TIP3    H231040   0.259   4.096   1.888 -0.1179 -0.0552  0.0205
 3161TIP3   OH231041   4.236   4.538   1.836  0.2492  0.4968  0.5519
 3161TIP3    H131042   4.293   4.576   1.770  0.2065  3.0663  1.8666
 3161TIP3    H231043   4.289   4.536   1.916 -0.5553  0.0468  1.0922
 3162TIP3   OH231044   2.844   5.866   1.986  0.0076  0.1750 -0.2482
 3162TIP3    H131045   2.890   5.818   2.055 -1.0130  0.5304  0.7110
 3162TIP3    H231046   2.766   5.901   2.029 -1.1983 -0.4395 -1.8127
 3163TIP3   OH231047   4.664   0.990   6.763 -0.1937  0.2038  0.2424
 3163TIP3    H131048   4.630   0.924   6.823 -0.4724 -0.2106 -0.3602
 3163TIP3    H231049   4.590   1.050   6.749 -0.2590  0.0711  0.0041
 3164TIP3   OH231050   2.881   6.236   6.789  0.4713 -0.2982  0.4251
 3164TIP3    H131051   2.820   6.255   6.717  1.8114  1.8006 -0.2281
 3164TIP3    H231052   2.833   6.261   6.868  0.0415  0.2092  0.0137
 3165TIP3   OH231053   0.373   2.909   1.087 -0.3291 -0.5261 -0.5302
 3165TIP3    H131054   0.329   2.896   1.003 -1.4559  0.5260 -0.1208
 3165TIP3    H231055   0.445   2.845   1.085 -0.9747 -1.2775 -1.8283
 3166TIP3   OH231056   2.279   3.285   2.231  0.2502  0.4565  0.6748
 3166TIP3    H131057   2.355   3.267   2.175 -0.5992  3.4629 -1.7206
 3166TIP3    H231058   2.316   3.326   2.309  1.1820  1.0614 -0.0592
 3167TIP3   OH231059   0.363   1.423   0.453  0.8507 -0.0815 -0.4173
 3167TIP3    H131060   0.366   1.517   0.470 -1.0454 -0.2336  1.0696
 3167TIP3    H231061   0.318   1.415   0.369 -1.5064  0.3005  0.7397
 3168TIP3   OH231062   3.532   7.036   2.339 -0.4244 -0.2468  0.2250
 3168TIP3    H131063   3.490   7.067   2.259 -0.9646 -0.7788  0.2950
 3168TIP3    H231064   3.615   7.085   2.344 -0.0239 -0.7670 -1.0600
 3169TIP3   OH231065   4.410   2.578   0.632  0.4199 -0.2183  1.0161
 3169TIP3    H131066   4.429   2.485   0.624  3.0186  0.3482 -0.5399
 3169TIP3    H231067   4.495   2.621   0.626 -0.8189  2.3540  0.1509
 3170TIP3   OH231068   5.500   4.776   1.810 -0.6839 -0.2073  0.7503
 3170TIP3    H131069   5.428   4.716   1.790 -1.5532  0.0862  2.7802
 3170TIP3    H231070   5.499   4.785   1.905  2.6505 -0.8770  0.9770
 3171TIP3   OH231071   0.151   6.317   1.821 -0.2910  0.1626  0.0028
 3171TIP3    H131072   0.057   6.330   1.815 -0.1108  2.6357  0.9228
 3171TIP3    H231073   0.173   6.343   1.911  1.1915 -1.0530  0.0387
 3172TIP3   OH231074   5.097   2.133   6.935  0.6363 -0.3027  0.1875
 3172TIP3    H131075   5.030   2.071   6.907  0.4564  0.4812 -1.1503
 3172TIP3    H231076   5.179   2.084   6.926  0.4066 -0.6981  0.1914
 3173TIP3   OH231077   6.035   5.315   2.116  0.3810 -0.4818  0.8780
 3173TIP3    H131078   5.980   5.237   2.110 -0.0393 -0.3094  2.1955
 3173TIP3    H231079   6.035   5.337   2.209  0.4260  1.1327  0.5197
 3174TIP3   OH231080   1.692   4.196   7.389  0.1547  0.0662 -0.0257
 3174TIP3    H131081   1.755   4.155   7.449 -1.3186 -0.3434  1.2880
 3174TIP3    H231082   1.723   4.171   7.302  1.7826 -0.1595  0.5735
 3175TIP3   OH231083   6.206   6.929   7.208 -0.1175 -0.0359  0.4683
 3175TIP3    H131084   6.265   6.941   7.283  0.0020 -0.6306  0.4686
 3175TIP3    H231085   6.203   6.835   7.194 -0.2000  0.0653 -0.2310
 3176TIP3   OH231086   6.194   5.085   0.124 -0.1654  0.1226  0.0909
 3176TIP3    H131087   6.131   5.025   0.083 -0.1850  1.2330 -1.6203
 3176TIP3    H231088   6.279   5.052   0.097 -0.0252 -0.6774  1.4160
 3177TIP3   OH231089   0.655   2.687   7.706  0.1206  0.1115  0.1534
 3177TIP3    H131090   0.624   2.770   7.670 -0.8515 -0.4696 -0.3797
 3177TIP3    H231091   0.690   2.640   7.630 -2.1012 -1.1960 -0.1181
 3178TIP3   OH231092   5.704   0.989   6.208 -0.0909  0.1983  0.5327
 3178TIP3    H131093   5.657   1.018   6.286 -1.1082  1.0332 -0.3559
 3178TIP3    H231094   5.699   1.063   6.148 -0.2377 -0.7923 -0.7226
 3179TIP3   OH231095   2.515   6.599   0.746 -0.5380  0.3975  0.1157
 3179TIP3    H131096   2.450   6.565   0.808  0.2716 -0.2077  0.6597
 3179TIP3    H231097   2.572   6.524   0.728 -0.3120  0.7714 -0.7740
 3180TIP3   OH231098   2.813   2.521   2.455  0.7297 -0.2424  0.4138
 3180TIP3    H131099   2.819   2.481   2.369  1.4415 -1.7889  1.1382
 3180TIP3    H231100   2.884   2.481   2.505 -0.6469 -0.6179  2.1823
 3181TIP3   OH231101   6.372   6.690   0.878  0.0222 -0.1100  0.3507
 3181TIP3    H131102   6.392   6.598   0.865 -1.5146 -0.6128  1.3707
 3181TIP3    H231103   6.457   6.734   0.868  1.4781 -1.9677  3.1346
 3182TIP3   OH231104   0.826   6.494   6.656 -0.6436  0.0591 -0.2705
 3182TIP3    H131105   0.844   6.542   6.575  1.3037  0.1512  0.1699
 3182TIP3    H231106   0.861   6.550   6.725  1.1259 -1.6705  0.3200
 3183TIP3   OH231107   5.871   5.046   1.078  0.5293  0.2131 -0.0089
 3183TIP3    H131108   5.921   5.058   1.159 -1.4387  0.7430  1.1843
 3183TIP3    H231109   5.929   4.995   1.021  2.4948  1.0052  1.1978
 3184TIP3   OH231110   1.021   4.229   7.712  0.3020 -0.0850 -0.3079
 3184TIP3    H131111   1.101   4.184   7.683  0.1439  0.3727 -1.5536
 3184TIP3    H231112   0.955   4.160   7.715  0.6463 -0.3981  0.3658
 3185TIP3   OH231113   4.070   2.981   8.002  0.3562 -0.3316  0.5647
 3185TIP3    H131114   4.092   2.912   7.939  0.2811 -0.5355  0.7622
 3185TIP3    H231115   4.067   3.061   7.949 -1.3384 -0.7412 -0.0074
 3186TIP3   OH231116   1.290   3.478   1.554 -0.8135 -0.0647 -0.6043
 3186TIP3    H131117   1.342   3.432   1.488 -0.7971  0.6741 -1.1233
 3186TIP3    H231118   1.230   3.412   1.588 -0.1991 -0.6827 -0.7000
 3187TIP3   OH231119   0.194   1.779   6.187 -0.1016  0.6628  0.1211
 3187TIP3    H131120   0.244   1.752   6.264  0.0387 -1.4140 -0.6568
 3187TIP3    H231121   0.103   1.766   6.212 -0.2528  2.7340  0.8923
 3188TIP3   OH231122   0.455   2.709   1.461  0.0378 -0.0012 -0.3505
 3188TIP3    H131123   0.404   2.639   1.420 -3.6103  0.7146  2.4189
 3188TIP3    H231124   0.514   2.663   1.521 -0.5320 -0.7915 -0.3703
 3189TIP3   OH231125   3.364   7.139   0.560 -0.2105 -0.3159 -0.4410
 3189TIP3    H131126   3.290   7.162   0.503 -0.4543 -1.3096 -0.5388
 3189TIP3    H231127   3.433   7.112   0.499  0.8421  2.1026 -0.4605
 3190TIP3   OH231128   3.954   3.417   0.050  0.2493  0.0073  0.2253
 3190TIP3    H131129   3.997   3.342   0.009 -1.4090  0.0774 -1.7869
 3190TIP3    H231130   4.026   3.474   0.077  1.5149 -1.8445  0.9748
 3191TIP3   OH231131   4.888   3.750   2.199 -0.5289  0.2952 -0.5067
 3191TIP3    H131132   4.895   3.790   2.112  0.2344  0.2991 -0.4490
 3191TIP3    H231133   4.882   3.824   2.259  2.8280  0.5115 -0.2075
 3192TIP3   OH231134   1.496   4.059   0.193  0.2948  0.3728 -0.7581
 3192TIP3    H131135   1.415   4.072   0.242 -0.4297 -0.0636 -1.8148
 3192TIP3    H231136   1.565   4.075   0.258 -0.5576  3.0592 -0.3895
 3193TIP3   OH231137   4.871   4.080   7.111 -0.0507 -0.0694  0.4537
 3193TIP3    H131138   4.817   4.149   7.150  0.7267 -0.6630  2.7345
 3193TIP3    H231139   4.809   4.027   7.062 -0.9433  1.2632  0.0787
 3194TIP3   OH231140   3.331   0.048   0.035 -0.0429  0.1240 -0.3041
 3194TIP3    H131141   3.365   0.129  -0.004  0.8524 -0.2552 -0.3407
 3194TIP3    H231142   3.398  -0.018   0.015 -0.4100 -0.4623  0.3687
 3195TIP3   OH231143   6.890   3.651   1.127  0.8896  0.7006  0.0591
 3195TIP3    H131144   6.873   3.665   1.033  0.3611 -0.9843 -0.1182
 3195TIP3    H231145   6.985   3.659   1.135  1.1240 -0.7631 -0.9387
 3196TIP3   OH231146   1.617   0.038   1.779  0.1773 -0.1076 -0.0807
 3196TIP3    H131147   1.598   0.090   1.701 -1.5891 -2.1024 -1.1064
 3196TIP3    H231148   1.669  -0.036   1.747  1.4873  0.2803  1.0813
 3197TIP3   OH231149   0.168   4.404   7.531  0.1834  0.0068  0.2560
 3197TIP3    H131150   0.150   4.385   7.439 -0.8700 -0.9439  0.6356
 3197TIP3    H231151   0.082   4.405   7.573  0.6895 -0.1820  1.3440
 3198TIP3   OH231152   1.848   2.861   2.192  0.2033  0.0616  0.5761
 3198TIP3    H131153   1.932   2.817   2.207  0.0595 -0.8342 -1.1065
 3198TIP3    H231154   1.784   2.790   2.189 -0.5944  0.7145  1.5228
 3199TIP3   OH231155   3.449   2.316   1.847 -0.0081  0.0288  0.6857
 3199TIP3    H131156   3.370   2.261   1.852 -0.9559  1.1466 -0.8735
 3199TIP3    H231157   3.511   2.264   1.795 -0.5524  0.0387  0.0080
 3200TIP3   OH231158   0.805   4.086   7.657  0.0169 -0.2716  0.5571
 3200TIP3    H131159   0.740   4.155   7.674 -0.4961 -0.9977  1.7026
 3200TIP3    H231160   0.771   4.009   7.703  0.8690 -1.1373 -0.2126
 3201TIP3   OH231161   1.869   4.828   0.920  0.6115 -0.1278 -0.3287
 3201TIP3    H131162   1.818   4.909   0.920 -0.2293 -0.6351 -1.2225
 3201TIP3    H231163   1.946   4.848   0.973  0.2951  1.1782 -0.3276
 3202TIP3   OH231164   0.298   5.691   1.452  0.1090 -0.5984  0.4195
 3202TIP3    H131165   0.222   5.685   1.510  0.2072 -0.8302  0.5245
 3202TIP3    H231166   0.343   5.608   1.463  0.6621 -0.2584  0.7385
 3203TIP3   OH231167   2.425   1.497   1.039  0.1337 -0.0805  0.0040
 3203TIP3    H131168   2.516   1.475   1.059  0.2787  0.2628 -0.2646
 3203TIP3    H231169   2.392   1.537   1.119 -0.8136 -3.1953  1.3349
 3204TIP3   OH231170   1.920   4.115   2.147 -0.2122 -0.6995 -0.0022
 3204TIP3    H131171   1.846   4.125   2.207 -0.0928 -1.1898  0.2299
 3204TIP3    H231172   1.880   4.113   2.060 -0.3461  0.4900  0.0144
 3205TIP3   OH231173   1.311   1.068   0.627  0.5049  0.3178  0.3446
 3205TIP3    H131174   1.397   1.026   0.633 -0.4457 -1.7927  0.1376
 3205TIP3    H231175   1.286   1.082   0.718 -0.6145 -2.8999  0.6599
 3206TIP3   OH231176   2.192   4.215   0.631  0.1836 -0.4797 -0.7941
 3206TIP3    H131177   2.139   4.181   0.559  1.4314 -0.6342 -1.6746
 3206TIP3    H231178   2.266   4.258   0.588  0.5303  0.1529  0.3876
 3207TIP3   OH231179   3.027   5.526   1.251  0.8533 -0.0720  0.5816
 3207TIP3    H131180   2.958   5.537   1.185  2.4333  2.3539 -0.8540
 3207TIP3    H231181   2.988   5.559   1.332  0.4937  2.1206 -0.3888
 3208TIP3   OH231182   0.602   4.708   7.877 -0.1474 -0.3558  0.4207
 3208TIP3    H131183   0.614   4.803   7.885 -1.5100 -0.1697  0.5789
 3208TIP3    H231184   0.509   4.695   7.896  0.0810 -1.7597  0.6331
 3209TIP3   OH231185   2.442   0.683   0.804  0.1640 -0.4669  0.3925
 3209TIP3    H131186   2.395   0.725   0.732 -1.8567  0.9242  2.3644
 3209TIP3    H231187   2.524   0.731   0.812 -0.6254  0.9085  0.4425
 3210TIP3   OH231188   5.199   1.036   2.221 -0.4937  0.5785  0.0095
 3210TIP3    H131189   5.199   0.988   2.138 -1.7764  1.2338 -0.3970
 3210TIP3    H231190   5.155   1.119   2.201 -0.4788  0.9109  1.2655
 3211TIP3   OH231191   5.125   0.883   7.492 -0.2246  0.1913 -0.0790
 3211TIP3    H131192   5.146   0.810   7.434  0.3867 -0.2545  0.6746
 3211TIP3    H231193   5.079   0.843   7.565 -2.3288  0.9509 -0.9233
 3212TIP3   OH231194   4.848   2.534   0.140  0.2053 -0.3576  0.0454
 3212TIP3    H131195   4.804   2.500   0.063  1.9808  1.3404 -1.8291
 3212TIP3    H231196   4.787   2.599   0.177 -0.5866 -1.0722  0.0167
 3213TIP3   OH231197   1.303   2.065   7.045 -0.9869  0.2455 -0.1542
 3213TIP3    H131198   1.253   2.074   7.126  1.7939  2.7949  1.5228
 3213TIP3    H231199   1.293   2.150   7.002  2.9164  1.5910  1.1213
 3214TIP3   OH231200   4.903   7.111   7.133  0.1126  0.4891 -0.2426
 3214TIP3    H131201   4.865   7.191   7.097 -0.5674  0.5337  0.5378
 3214TIP3    H231202   4.996   7.129   7.140  0.2239  0.5699 -1.7134
 3215TIP3   OH231203   3.809   5.985   0.614  0.0369 -0.0627  0.3333
 3215TIP3    H131204   3.820   5.901   0.569  0.1184  0.3360 -0.4071
 3215TIP3    H231205   3.715   5.989   0.634  0.2268 -0.8726  1.4768
 3216TIP3   OH231206   6.704   0.155   7.433  0.2438  0.8111 -0.1868
 3216TIP3    H131207   6.673   0.064   7.437 -1.1381  1.2437 -0.3418
 3216TIP3    H231208   6.788   0.150   7.388  0.0889 -0.3740 -0.3835
 3217TIP3   OH231209   2.205   4.746   0.781 -0.4054  0.2370 -0.5034
 3217TIP3    H131210   2.296   4.761   0.754 -0.2744 -2.3016 -1.6954
 3217TIP3    H231211   2.212   4.703   0.866 -0.4353 -0.8047 -1.0189
 3218TIP3   OH231212   0.300   2.329   0.722 -0.0459 -0.2256  0.1392
 3218TIP3    H131213   0.212   2.364   0.706  0.3673  0.2220 -1.3547
 3218TIP3    H231214   0.357   2.405   0.719  0.5816 -0.7091 -0.6403
 3219TIP3   OH231215   0.182   3.299   2.140  0.0799  0.0986  0.1683
 3219TIP3    H131216   0.155   3.215   2.178 -0.1699  0.3489  0.5604
 3219TIP3    H231217   0.218   3.276   2.054 -1.0476 -0.3010 -0.2190
 3220TIP3   OH231218   5.533   0.719   0.589 -0.0868 -0.1071  0.0089
 3220TIP3    H131219   5.564   0.676   0.509 -0.6078  0.3437 -0.4422
 3220TIP3    H231220   5.453   0.764   0.563  0.4943  1.2380  0.4227
 3221TIP3   OH231221   4.641   7.079   0.443 -0.2916  0.0994 -0.5863
 3221TIP3    H131222   4.574   7.070   0.375 -1.0879 -1.2519  0.3171
 3221TIP3    H231223   4.624   7.163   0.484 -1.5442 -0.2675 -0.3008
 3222TIP3   OH231224   2.076   3.082   1.498 -0.3433 -0.0425 -0.3958
 3222TIP3    H131225   2.135   3.007   1.492 -0.1148 -0.1213  1.7710
 3222TIP3    H231226   2.001   3.059   1.442  0.6769 -0.9093 -1.4525
 3223TIP3   OH231227   4.327   5.391   0.979  0.2179  0.3141 -0.4108
 3223TIP3    H131228   4.363   5.479   0.973 -0.2774  0.6734  1.1786
 3223TIP3    H231229   4.403   5.334   0.984  0.6311  0.9354  1.4124
 3224TIP3   OH231230   3.024   5.138   1.068  0.2356 -0.2079 -0.7456
 3224TIP3    H131231   3.070   5.058   1.093  1.0791  0.1916 -0.9744
 3224TIP3    H231232   2.975   5.164   1.146  2.1855  0.5857  0.3044
 3225TIP3   OH231233   2.679   1.942   7.851 -0.2105 -0.7622  0.0113
 3225TIP3    H131234   2.757   1.983   7.889  0.0701 -0.3961 -0.9415
 3225TIP3    H231235   2.714   1.873   7.795 -0.6775 -2.5208  1.7689
 3226TIP3   OH231236   3.722   2.289   6.418  0.2101 -0.1529 -0.0250
 3226TIP3    H131237   3.629   2.306   6.431  0.0346 -1.0053 -0.1181
 3226TIP3    H231238   3.764   2.327   6.496  0.2760  3.8316 -1.7697
 3227TIP3   OH231239   2.970   1.728   0.014 -0.3639 -0.4417 -0.3490
 3227TIP3    H131240   2.935   1.817   0.014 -0.8811 -0.6057  1.3255
 3227TIP3    H231241   3.043   1.731   0.076 -0.2598 -1.1405 -0.4339
 3228TIP3   OH231242   2.392   3.751   0.196  0.2723  0.0139  0.3656
 3228TIP3    H131243   2.335   3.689   0.242 -0.1206  0.0188 -0.1007
 3228TIP3    H231244   2.408   3.820   0.260  0.9623 -0.7091  0.9924
 3229TIP3   OH231245   4.889   5.563   7.748  0.0535 -0.3947 -0.2522
 3229TIP3    H131246   4.813   5.620   7.732  0.1872 -0.0370  0.3541
 3229TIP3    H231247   4.857   5.498   7.810  0.1369 -0.4856 -0.3042
 3230TIP3   OH231248   3.818   4.182   0.813 -0.0674  0.0987 -0.3151
 3230TIP3    H131249   3.774   4.203   0.895  0.5640 -2.2848  0.7303
 3230TIP3    H231250   3.754   4.131   0.763 -0.1380  0.7842 -0.9523
 3231TIP3   OH231251   3.766   2.272   6.863  0.0562 -0.4436  0.0116
 3231TIP3    H131252   3.834   2.206   6.875 -0.0821 -0.6425 -0.2973
 3231TIP3    H231253   3.806   2.339   6.808  0.4978  0.1833  1.0598
 3232TIP3   OH231254   1.534   4.093   0.703  0.2338 -0.3978  0.0464
 3232TIP3    H131255   1.573   4.051   0.626  0.2258  0.4262 -0.4252
 3232TIP3    H231256   1.573   4.181   0.704 -0.2328 -0.1924  0.6244
 3233TIP3   OH231257   1.518   5.698   7.081  0.1455 -0.0296  0.1847
 3233TIP3    H131258   1.551   5.620   7.126  0.7923  1.4613  2.4834
 3233TIP3    H231259   1.592   5.758   7.082 -0.1810  0.4838 -2.0063
 3234TIP3   OH231260   2.094   0.534   0.001  0.1705  0.6106 -0.2004
 3234TIP3    H131261   2.128   0.493  -0.078 -0.5972  1.8741 -1.2371
 3234TIP3    H231262   2.151   0.503   0.071  2.3782  1.2750 -1.5827
 3235TIP3   OH231263   1.432   6.514   7.860  0.0511 -0.4312 -0.3158
 3235TIP3    H131264   1.349   6.556   7.836  0.5966  1.2764  0.6031
 3235TIP3    H231265   1.413   6.469   7.942  0.0022 -0.0894 -0.1360
 3236TIP3   OH231266   5.862   6.642   7.039 -0.4926  0.6140  0.1641
 3236TIP3    H131267   5.830   6.652   7.129  0.4080  3.4180  0.2784
 3236TIP3    H231268   5.949   6.603   7.049 -0.9580 -0.3706  0.4002
 3237TIP3   OH231269   3.911   5.722   6.941  0.3688 -0.0831 -0.0495
 3237TIP3    H131270   4.003   5.697   6.930  0.1599 -0.8186 -0.2372
 3237TIP3    H231271   3.874   5.715   6.853 -0.0040 -0.4068  0.1266
 3238TIP3   OH231272   2.673   6.934   6.931 -0.1718  0.2015  0.2988
 3238TIP3    H131273   2.704   6.868   6.993 -2.0647 -1.5967 -0.5392
 3238TIP3    H231274   2.752   6.980   6.902  1.4412 -2.6519 -0.1184
 3239TIP3   OH231275   4.920   6.538   1.362  0.1062 -0.0349 -0.3295
 3239TIP3    H131276   4.997   6.540   1.305 -1.5410  0.2440 -2.6617
 3239TIP3    H231277   4.931   6.458   1.414  1.7929 -0.1715 -0.8390
 3240TIP3   OH231278   0.584   1.462   1.916  0.5868 -0.6857  0.3785
 3240TIP3    H131279   0.637   1.384   1.934  1.2095 -0.0788  1.2766
 3240TIP3    H231280   0.593   1.516   1.995 -1.7040 -0.7230  0.7334
 3241TIP3   OH231281   5.746   0.798   1.463 -0.4681 -0.4020 -0.2505
 3241TIP3    H131282   5.743   0.735   1.391 -0.3266 -0.4671 -0.1999
 3241TIP3    H231283   5.755   0.744   1.542  2.1390 -0.2634 -0.3631
 3242TIP3   OH231284   4.847   5.545   1.811  0.8427  0.0111 -0.6423
 3242TIP3    H131285   4.885   5.531   1.898 -0.7152 -0.0953  0.0662
 3242TIP3    H231286   4.921   5.542   1.751  1.6865 -2.4787  0.3990
 3243TIP3   OH231287   3.693   2.515   1.466  0.3841 -0.1152  0.6212
 3243TIP3    H131288   3.600   2.509   1.488  0.4246  1.3009  1.3132
 3243TIP3    H231289   3.701   2.597   1.416  1.1339 -0.6566 -0.1785
 3244TIP3   OH231290   6.659   5.744   1.203 -0.2610  0.2971  0.4890
 3244TIP3    H131291   6.730   5.717   1.146 -1.0135 -0.1884 -0.2409
 3244TIP3    H231292   6.580   5.737   1.149 -0.9031  0.5351  1.3621
 3245TIP3   OH231293   5.317   6.961   2.886 -0.1268  0.6064 -0.2301
 3245TIP3    H131294   5.355   7.042   2.918  0.1902  0.6287 -0.6481
 3245TIP3    H231295   5.390   6.913   2.848  0.4691 -1.5887  3.2761
 3246TIP3   OH231296   2.970   4.236   2.496  0.2559  0.5170  0.1199
 3246TIP3    H131297   2.995   4.176   2.566  0.2937 -0.1763 -0.4822
 3246TIP3    H231298   2.885   4.205   2.466  1.2668 -0.6508 -1.7156
 3247TIP3   OH231299   0.224   2.911   7.586 -0.5600 -0.2095  0.2334
 3247TIP3    H131300   0.162   2.848   7.622 -0.1079 -1.1365 -0.5711
 3247TIP3    H231301   0.172   2.963   7.525 -0.7275 -0.4162  0.1999
 3248TIP3   OH231302   6.507   5.909   0.551 -0.4947  0.6024  0.0527
 3248TIP3    H131303   6.433   5.935   0.497 -0.7244  0.7217  0.4182
 3248TIP3    H231304   6.475   5.832   0.599 -0.3871  0.6626  0.2210
 3249TIP3   OH231305   7.031   3.562   7.152  0.2273 -0.6816 -0.4592
 3249TIP3    H131306   7.072   3.483   7.186  0.5444 -0.1092  0.5138
 3249TIP3    H231307   7.101   3.609   7.107  0.4583 -0.1139  0.4746
 3250TIP3   OH231308   5.413   1.909   1.924  0.0840 -0.0860  0.1871
 3250TIP3    H131309   5.441   1.910   2.016  1.3068 -0.5647 -0.1657
 3250TIP3    H231310   5.419   2.000   1.896  0.3859 -0.0405  0.3910
 3251TIP3   OH231311   6.221   0.883   0.205  0.3391  0.8150  0.3348
 3251TIP3    H131312   6.300   0.937   0.211 -0.1936  1.5882  0.4898
 3251TIP3    H231313   6.206   0.872   0.111  1.0882 -0.0401  0.2932
 3252TIP3   OH231314   5.629   3.879   1.027  0.1093  0.2309 -0.0998
 3252TIP3    H131315   5.627   3.971   1.053  1.0821  0.2175  0.0440
 3252TIP3    H231316   5.684   3.837   1.092 -1.9108 -0.8615  1.0044
 3253TIP3   OH231317   1.968   6.935   1.850  0.0894  0.3669 -0.1649
 3253TIP3    H131318   1.905   6.988   1.898 -0.0720 -0.6201  0.7530
 3253TIP3    H231319   2.012   6.883   1.917  2.6087  1.7131 -0.6406
 3254TIP3   OH231320   3.186   5.031   2.590 -0.4590 -0.5693 -0.1376
 3254TIP3    H131321   3.234   5.099   2.636 -0.1556 -0.2851 -0.8571
 3254TIP3    H231322   3.108   5.016   2.644  0.1052 -0.5737  0.6923
 3255TIP3   OH231323   3.430   6.526   0.497  0.0342  0.1575 -0.6533
 3255TIP3    H131324   3.417   6.542   0.591 -1.1707  1.4253 -1.0002
 3255TIP3    H231325   3.497   6.589   0.472  0.1141  0.0486 -0.7117
 3256TIP3   OH231326   3.453   6.470   7.233  0.0366 -0.0916  0.8304
 3256TIP3    H131327   3.380   6.519   7.270 -0.5391 -1.0817  1.0396
 3256TIP3    H231328   3.482   6.523   7.159 -0.8672  0.3458  0.7743
 3257TIP3   OH231329   4.663   2.720   0.153  0.1730  0.1429 -0.2440
 3257TIP3    H131330   4.643   2.804   0.113  0.8892  0.3223 -0.2419
 3257TIP3    H231331   4.578   2.686   0.180 -0.0974  1.0303  0.0787
 3258TIP3   OH231332   0.018   2.383   7.463 -0.1394  0.3458  0.3112
 3258TIP3    H131333   0.036   2.394   7.370 -0.2863  0.1874  0.2625
 3258TIP3    H231334   0.098   2.344   7.499  0.0642  0.7692  0.3273
 3259TIP3   OH231335   0.514   3.935   1.048 -0.0474 -0.0901  0.4042
 3259TIP3    H131336   0.466   3.863   1.089  0.2756 -0.3570  0.3225
 3259TIP3    H231337   0.606   3.912   1.059  0.0518 -0.4622 -0.9696
 3260TIP3   OH231338   1.704   4.164   2.315  0.4284  0.1709  0.1305
 3260TIP3    H131339   1.652   4.097   2.359  2.7075 -1.1245  1.0472
 3260TIP3    H231340   1.656   4.245   2.328 -0.5490 -0.6943  2.3034
 3261TIP3   OH231341   6.540   3.508   1.632  0.1106 -0.0370  0.0863
 3261TIP3    H131342   6.496   3.590   1.609 -1.7830 -0.7653  0.8736
 3261TIP3    H231343   6.627   3.516   1.594  0.0747  2.4327  0.3550
 3262TIP3   OH231344   1.698   3.280   0.012  0.2373 -0.0684  0.1827
 3262TIP3    H131345   1.767   3.346   0.019  0.5957 -0.3812 -0.2913
 3262TIP3    H231346   1.619   3.329  -0.011  0.1498  0.3716  1.3940
 3263TIP3   OH231347   1.596   5.166   0.734  0.3376  0.0838 -0.3905
 3263TIP3    H131348   1.540   5.111   0.679  0.2432  2.6856 -3.1168
 3263TIP3    H231349   1.547   5.248   0.743  1.1497  0.3625  2.2533
 3264TIP3   OH231350   7.028   0.466   6.994  0.4486  0.3682  0.1369
 3264TIP3    H131351   6.970   0.489   6.921 -0.0804  0.2692  0.5159
 3264TIP3    H231352   7.116   0.486   6.962  0.1400  1.3012 -0.1505
 3265TIP3   OH231353   3.640   3.585   0.722  0.1118 -0.4548 -0.1152
 3265TIP3    H131354   3.646   3.517   0.788 -0.5981  0.9111  1.4288
 3265TIP3    H231355   3.546   3.602   0.714  0.3200  1.0789  0.3551
 3266TIP3   OH231356   4.033   2.568   0.975 -0.0981  0.0909 -0.0149
 3266TIP3    H131357   4.060   2.593   0.887 -1.0441 -0.4383 -0.4767
 3266TIP3    H231358   4.071   2.481   0.988  2.8963  1.4836  1.4550
 3267TIP3   OH231359   5.899   4.474   6.419  0.4867 -0.2919  0.6355
 3267TIP3    H131360   5.927   4.395   6.373 -0.8821 -1.0093  0.9686
 3267TIP3    H231361   5.815   4.450   6.459 -0.1461  1.4362  0.4474
 3268TIP3   OH231362   5.546   0.756   1.831 -0.0789 -0.2425  0.5287
 3268TIP3    H131363   5.543   0.722   1.920 -0.4478  0.7924  0.9227
 3268TIP3    H231364   5.637   0.745   1.804 -0.3968 -2.6029  0.1890
 3269TIP3   OH231365   4.656   7.032   7.215  0.4900 -0.1538 -0.0926
 3269TIP3    H131366   4.616   7.119   7.211 -0.1469 -0.3613  1.1886
 3269TIP3    H231367   4.748   7.047   7.196  0.2062  0.6582 -0.8863
 3270TIP3   OH231368   1.880   5.481   1.433 -0.5107  0.7536  0.3215
 3270TIP3    H131369   1.862   5.411   1.369 -1.0187  1.9866 -0.9346
 3270TIP3    H231370   1.807   5.477   1.494 -0.1863 -0.2434  0.6608
 3271TIP3   OH231371   0.493   0.363   1.033  0.1543  0.3936 -0.2809
 3271TIP3    H131372   0.441   0.443   1.025 -0.4248 -0.0900 -1.7224
 3271TIP3    H231373   0.559   0.371   0.964 -2.2381 -1.9855 -3.1439
 3272TIP3   OH231374   4.663   0.249   7.611 -0.0696  0.1240 -0.2451
 3272TIP3    H131375   4.692   0.217   7.696  1.6673  0.8171 -0.5414
 3272TIP3    H231376   4.601   0.183   7.581  1.4514 -1.6432  0.2931
 3273TIP3   OH231377   4.807   2.093   0.550 -0.2936 -0.1245  0.2053
 3273TIP3    H131378   4.790   2.136   0.466  0.7947  1.0962  0.5626
 3273TIP3    H231379   4.758   2.145   0.613  0.2433 -0.0045  0.5262
 3274TIP3   OH231380   5.314   0.459   0.619 -0.3095 -0.1358 -0.9577
 3274TIP3    H131381   5.322   0.391   0.552  0.6188  0.2960 -1.2999
 3274TIP3    H231382   5.395   0.453   0.670 -0.7534 -0.0789 -0.2278
 3275TIP3   OH231383   4.700   5.287   7.068  0.4350  0.3244 -0.5951
 3275TIP3    H131384   4.633   5.335   7.020 -0.7236 -1.1266 -0.5183
 3275TIP3    H231385   4.731   5.349   7.134 -0.4336  1.2221 -0.9993
 3276TIP3   OH231386   2.950   4.902   1.519 -0.3026 -0.3364  0.3795
 3276TIP3    H131387   2.897   4.902   1.439 -1.1118 -1.5369  0.8748
 3276TIP3    H231388   3.033   4.862   1.493 -1.5972 -3.5647  0.6745
 3277TIP3   OH231389   2.663   3.148   0.725 -0.0019 -0.4504 -0.5221
 3277TIP3    H131390   2.653   3.098   0.805  1.5225  1.5941  1.0658
 3277TIP3    H231391   2.730   3.102   0.675 -0.9032 -1.6943 -0.6126
 3278TIP3   OH231392   0.522   1.586   1.044  0.7753 -0.3597 -0.1824
 3278TIP3    H131393   0.607   1.614   1.012  1.1462  1.1441  1.9406
 3278TIP3    H231394   0.537   1.557   1.134 -0.5370 -2.5955 -0.5896
 3279TIP3   OH231395   3.448   6.970   7.380  0.0428 -0.5686  0.1448
 3279TIP3    H131396   3.504   7.040   7.413 -0.6571  0.1191 -0.1001
 3279TIP3    H231397   3.410   7.005   7.299  1.7479 -2.2393 -1.4555
 3280TIP3   OH231398   6.977   3.204   0.162  0.5815 -0.3285 -0.5374
 3280TIP3    H131399   6.998   3.207   0.068  1.9287  0.0299 -0.2427
 3280TIP3    H231400   6.882   3.190   0.165  0.2415  1.2513 -1.9727
 3281TIP3   OH231401   5.252   6.204   2.788  0.2052 -0.2344 -0.3677
 3281TIP3    H131402   5.173   6.243   2.749  0.2942 -1.1474 -1.5363
 3281TIP3    H231403   5.315   6.276   2.793  0.1441 -0.0369 -1.8450
 3282TIP3   OH231404   6.783   3.243   1.353 -0.0100 -0.0050 -0.2006
 3282TIP3    H131405   6.711   3.267   1.295  0.1084 -1.1591 -0.8311
 3282TIP3    H231406   6.855   3.222   1.295 -0.0859 -1.8188  0.3212
 3283TIP3   OH231407   5.534   7.085   7.313  0.3780  0.4638  0.8840
 3283TIP3    H131408   5.501   6.995   7.303  1.4680 -0.0478  1.6134
 3283TIP3    H231409   5.457   7.136   7.336 -0.5010 -0.0252 -0.7844
 3284TIP3   OH231410   3.296   5.306   0.289  0.1459  0.2741 -0.2059
 3284TIP3    H131411   3.220   5.324   0.234  0.4164  0.7314 -0.4349
 3284TIP3    H231412   3.276   5.350   0.372 -0.8932 -1.5940  0.5762
 3285TIP3   OH231413   3.860   2.680   7.096  0.5959 -1.4428 -0.6695
 3285TIP3    H131414   3.806   2.616   7.049 -1.0312 -0.7649  0.1889
 3285TIP3    H231415   3.802   2.755   7.109  1.7823 -0.6500  0.2684
 3286TIP3   OH231416   4.759   4.053   6.393 -0.1799 -0.4881  0.5963
 3286TIP3    H131417   4.741   4.142   6.363 -0.0600 -0.7269 -0.1979
 3286TIP3    H231418   4.837   4.027   6.345 -0.9052 -1.4647 -0.0956
 3287TIP3   OH231419   4.213   4.640   1.026  0.1208  0.2643 -0.2572
 3287TIP3    H131420   4.151   4.673   1.091  0.5535  0.5616  0.0061
 3287TIP3    H231421   4.158   4.609   0.954 -0.5474 -2.4346  1.2676
 3288TIP3   OH231422   4.379   5.311   2.328  0.4976  0.2793  0.4425
 3288TIP3    H131423   4.416   5.249   2.391  1.2057 -0.4299 -0.6406
 3288TIP3    H231424   4.446   5.319   2.261 -0.7565  0.0253 -0.8767
 3289TIP3   OH231425   4.596   3.273   1.326 -0.2262 -0.1372 -0.2371
 3289TIP3    H131426   4.651   3.250   1.401 -0.4058  1.4697  0.4301
 3289TIP3    H231427   4.507   3.275   1.361 -0.5712 -1.3904 -0.9942
 3290TIP3   OH231428   2.181   4.005   1.687 -0.1379  0.2584 -0.1875
 3290TIP3    H131429   2.233   4.075   1.647 -1.9800  1.6913 -0.2397
 3290TIP3    H231430   2.110   3.990   1.625 -1.1886  0.1665  0.9934
 3291TIP3   OH231431   3.439   5.997   7.150  0.5812  0.4007 -0.1024
 3291TIP3    H131432   3.412   6.063   7.087  0.1887 -0.4047 -0.7936
 3291TIP3    H231433   3.388   5.919   7.127  0.3774  0.1113  1.2547
 3292TIP3   OH231434   5.813   6.766   1.832 -0.5295 -0.1123  0.0704
 3292TIP3    H131435   5.831   6.794   1.742 -0.6591  0.1748  0.1321
 3292TIP3    H231436   5.898   6.771   1.875 -0.4621 -0.2737 -0.0408
 3293TIP3   OH231437   5.719   2.972   0.040 -0.0325 -0.5318  0.3228
 3293TIP3    H131438   5.668   2.917   0.100  0.2755  2.0799  3.2458
 3293TIP3    H231439   5.654   3.016  -0.014 -0.7355  0.2636  1.7442
 3294TIP3   OH231440   3.859   4.644   6.355  0.2691 -0.1202 -1.0013
 3294TIP3    H131441   3.874   4.555   6.323  1.6312  0.2088 -1.3380
 3294TIP3    H231442   3.919   4.654   6.428 -0.8780  0.0724 -0.0611
 3295TIP3   OH231443   3.819   5.409   0.409 -0.6778  0.6424 -0.0484
 3295TIP3    H131444   3.874   5.388   0.334  2.2671  0.8382  1.9096
 3295TIP3    H231445   3.803   5.325   0.452  1.4349  0.9259  1.4592
 3296TIP3   OH231446   6.143   6.561   0.950  0.0474  0.2051  0.7136
 3296TIP3    H131447   6.156   6.601   1.036  0.5131  1.8597 -0.0828
 3296TIP3    H231448   6.224   6.582   0.902  0.2819 -1.6726  0.2270
 3297TIP3   OH231449   5.391   5.341   0.534  0.2352  0.3628  0.2814
 3297TIP3    H131450   5.360   5.251   0.531 -1.0055  0.7864 -1.6067
 3297TIP3    H231451   5.429   5.351   0.621 -0.5022 -1.6736  0.8881
 3298TIP3   OH231452   3.436   6.325   1.303 -0.4104  0.2028  0.0570
 3298TIP3    H131453   3.413   6.248   1.354 -1.0203 -0.0595 -0.5823
 3298TIP3    H231454   3.461   6.290   1.217  1.1424  0.5870  0.3284
 3299TIP3   OH231455   0.126   1.208   7.689  0.3114 -0.0263 -0.9870
 3299TIP3    H131456   0.181   1.285   7.704 -0.7643  0.4134  1.1307
 3299TIP3    H231457   0.042   1.244   7.659  0.1257 -0.4361 -0.9682
 3300TIP3   OH231458   3.177   3.069   1.916  0.4713  0.1183 -0.2389
 3300TIP3    H131459   3.087   3.082   1.946 -0.1881 -0.8469 -1.6790
 3300TIP3    H231460   3.228   3.057   1.996 -0.2486  2.9518  0.7617
 3301TIP3   OH231461   4.605   1.954   1.688  0.7784  0.2380  1.0030
 3301TIP3    H131462   4.541   2.016   1.653  0.3208 -1.3499 -1.1549
 3301TIP3    H231463   4.689   1.985   1.655  0.6734  0.2651  0.7580
 3302TIP3   OH231464   3.567   1.837   1.695 -0.1834 -0.1658 -0.4129
 3302TIP3    H131465   3.509   1.913   1.702 -0.2439 -0.2263 -0.2525
 3302TIP3    H231466   3.514   1.763   1.725 -1.2294 -0.8565 -3.5338
 3303TIP3   OH231467   3.989   6.478   0.714  0.2989 -0.0910 -0.4372
 3303TIP3    H131468   4.009   6.390   0.682  0.4953 -0.5253  0.8201
 3303TIP3    H231469   3.907   6.467   0.764  1.3610 -0.0099  1.4250
 3304TIP3   OH231470   2.079   5.701   7.524 -0.2834 -0.3530  0.1941
 3304TIP3    H131471   2.145   5.655   7.472  1.1377  1.7042  0.0906
 3304TIP3    H231472   2.090   5.666   7.612  1.2380  0.2182  0.2623
 3305TIP3   OH231473   5.837   3.826   1.211  0.3525  0.2964  0.2227
 3305TIP3    H131474   5.883   3.751   1.173  0.1985 -0.1395  0.8929
 3305TIP3    H231475   5.879   3.902   1.171  0.6079 -0.1404 -0.3524
 3306TIP3   OH231476   0.631   2.055   8.011 -0.0384 -0.4099 -0.7346
 3306TIP3    H131477   0.712   2.087   7.970 -1.1923  0.7483 -2.2903
 3306TIP3    H231478   0.637   1.960   8.006  2.2946 -0.4773  1.4776
 3307TIP3   OH231479   4.325   3.340   1.891 -0.0075 -0.3363 -0.4865
 3307TIP3    H131480   4.266   3.275   1.853  0.3160 -0.8286 -0.1603
 3307TIP3    H231481   4.401   3.289   1.919  0.4287  0.2472 -0.6069
 3308TIP3   OH231482   4.736   6.640   2.047 -0.7598  0.3198  0.8361
 3308TIP3    H131483   4.644   6.668   2.043 -1.1248 -0.8936  0.3993
 3308TIP3    H231484   4.740   6.583   2.124 -1.1354 -2.1630 -0.8728
 3309TIP3   OH231485   5.989   1.530   6.362  0.2293  0.1413 -0.1314
 3309TIP3    H131486   6.076   1.494   6.377  0.0917  0.0560  0.5174
 3309TIP3    H231487   5.998   1.624   6.380 -0.2828 -0.1804  2.2621
 3310TIP3   OH231488   0.267   2.102   0.262 -0.1786 -0.0321 -0.2414
 3310TIP3    H131489   0.313   2.178   0.226 -0.3003  0.3133  0.3164
 3310TIP3    H231490   0.236   2.131   0.348 -0.9803 -0.4341 -0.3849
 3311TIP3   OH231491   6.343   0.077   7.970 -0.0929  0.0014  0.2814
 3311TIP3    H131492   6.354   0.003   7.910  1.8418  0.3749  0.1046
 3311TIP3    H231493   6.249   0.081   7.986 -0.7607  0.0415 -2.9562
 3312TIP3   OH231494   0.021   4.780   7.020  1.1848  0.1159 -0.5944
 3312TIP3    H131495  -0.004   4.697   6.978  0.7518  0.0254 -0.1613
 3312TIP3    H231496  -0.034   4.846   6.977  1.4485  0.1686 -0.8581
 3313TIP3   OH231497   6.296   1.730   1.537  0.1260  0.1261 -0.3031
 3313TIP3    H131498   6.318   1.659   1.477 -1.1789 -0.7137  0.1786
 3313TIP3    H231499   6.226   1.778   1.492 -0.7682 -0.4326  0.4759
 3314TIP3   OH231500   4.488   4.373   1.792  0.2103  0.5525  0.2393
 3314TIP3    H131501   4.434   4.401   1.865 -0.8409  0.1761 -0.3612
 3314TIP3    H231502   4.490   4.449   1.733  1.6578  1.1046  0.9748
 3315TIP3   OH231503   1.411   5.102   6.742  0.4149  0.1223  0.0310
 3315TIP3    H131504   1.316   5.088   6.744  0.4816 -0.3848  2.3721
 3315TIP3    H231505   1.439   5.063   6.659 -1.3547 -0.1628 -0.4731
 3316TIP3   OH231506   6.125   2.185   1.032  0.2972 -0.1023 -0.5957
 3316TIP3    H131507   6.156   2.181   0.941  0.5464 -0.8182 -0.4904
 3316TIP3    H231508   6.105   2.277   1.047 -1.0572 -0.1600 -1.8062
 3317TIP3   OH231509   3.652   1.409   2.278 -0.4621  0.3825 -0.3569
 3317TIP3    H131510   3.696   1.489   2.249  1.8108 -0.6072  0.0974
 3317TIP3    H231511   3.629   1.426   2.369 -0.1253  0.5807 -0.3063
 3318TIP3   OH231512   1.141   2.964   7.911  0.5168 -0.6151 -0.0507
 3318TIP3    H131513   1.228   2.939   7.877  0.7941 -0.8313  0.8088
 3318TIP3    H231514   1.097   3.002   7.835  2.0216  1.2236 -0.0889
 3319TIP3   OH231515   6.070   3.852   0.464 -0.4752  0.1116  0.5771
 3319TIP3    H131516   6.145   3.896   0.424 -2.4053  1.6049 -1.6638
 3319TIP3    H231517   6.103   3.765   0.488  1.0596 -0.9124 -4.2019
 3320TIP3   OH231518   0.684   1.961   1.133 -0.1653  0.1109 -0.3686
 3320TIP3    H131519   0.678   2.021   1.059  1.1399  1.2720  0.4272
 3320TIP3    H231520   0.733   2.009   1.200 -1.7960 -0.6714  1.4961
 3321TIP3   OH231521   7.062   2.148   0.807 -0.0335  0.2609  0.1794
 3321TIP3    H131522   7.009   2.086   0.856  0.5740  0.5590  1.2448
 3321TIP3    H231523   7.017   2.232   0.818  1.4462  0.8575  2.4927
 3322TIP3   OH231524   5.584   2.519   6.737 -0.1817  0.2051  0.0259
 3322TIP3    H131525   5.679   2.505   6.741 -0.2274 -0.3013 -0.4380
 3322TIP3    H231526   5.572   2.610   6.763  0.3307 -0.0341  1.1669
 3323TIP3   OH231527   4.327   4.338   0.993 -0.0274 -0.0770 -0.5486
 3323TIP3    H131528   4.305   4.391   0.917 -0.5117 -0.4320 -0.6600
 3323TIP3    H231529   4.243   4.324   1.038 -0.3608 -2.7851 -1.8215
 3324TIP3   OH231530   2.807   6.415   0.919 -0.3791  0.1563  0.2184
 3324TIP3    H131531   2.773   6.403   0.831  0.8092 -4.0700  0.1128
 3324TIP3    H231532   2.749   6.363   0.975  0.7196  0.1186  1.3832
 3325TIP3   OH231533   6.145   1.728   7.766  0.0515 -0.7440 -0.0746
 3325TIP3    H131534   6.151   1.822   7.783 -1.2851 -0.6149 -0.1644
 3325TIP3    H231535   6.235   1.700   7.750  0.4696  0.5121 -0.0096
 3326TIP3   OH231536   4.794   3.153   0.175  0.4190 -0.4166  0.0924
 3326TIP3    H131537   4.773   3.098   0.099  0.3065 -1.4291  0.8320
 3326TIP3    H231538   4.858   3.216   0.142  1.5595 -1.8250 -0.4931
 3327TIP3   OH231539   1.564   1.473   1.961 -0.0718 -0.4020 -0.7008
 3327TIP3    H131540   1.484   1.523   1.978  0.1242 -0.3551  0.1368
 3327TIP3    H231541   1.621   1.493   2.036  0.6361 -0.6119 -1.1743
 3328TIP3   OH231542   6.095   2.074   0.242 -0.0558 -0.2175  0.3115
 3328TIP3    H131543   6.012   2.108   0.209  0.0390 -2.1357 -2.2043
 3328TIP3    H231544   6.072   1.990   0.282  0.4225  0.2479  1.6273
 3329TIP3   OH231545   6.105   5.083   7.394 -0.1858  0.4255  0.4882
 3329TIP3    H131546   6.102   5.053   7.485  0.8043 -1.1366  0.0424
 3329TIP3    H231547   6.113   5.002   7.343  0.3847  1.3462 -0.9217
 3330TIP3   OH231548   7.103   5.100   2.126 -0.0019  0.2252 -0.4100
 3330TIP3    H131549   7.064   5.108   2.213 -1.2328 -0.7730 -0.8421
 3330TIP3    H231550   7.168   5.170   2.122 -0.7578  1.0336  0.8753
 3331TIP3   OH231551   3.130   0.665   7.770 -0.1773 -0.2067  0.0655
 3331TIP3    H131552   3.145   0.756   7.794  0.8812 -0.0199 -1.2313
 3331TIP3    H231553   3.171   0.615   7.840 -2.1027  0.2414  1.6240
 3332TIP3   OH231554   2.330   5.982   1.554 -0.0664 -0.3391 -0.1707
 3332TIP3    H131555   2.245   5.951   1.524  0.1374 -0.9549 -0.1092
 3332TIP3    H231556   2.351   5.927   1.629 -0.4695  1.0276  0.9915
 3333TIP3   OH231557   6.925   0.796   6.963  0.1768  0.4874  0.3477
 3333TIP3    H131558   6.956   0.842   6.885 -0.8784  0.3407 -0.1865
 3333TIP3    H231559   6.830   0.794   6.952  0.1927 -1.9727  0.2591
 3334TIP3   OH231560   6.122   6.773   7.785 -0.1426  0.2434  0.4623
 3334TIP3    H131561   6.109   6.850   7.840  1.7213  0.4187  0.7053
 3334TIP3    H231562   6.114   6.806   7.695 -2.0911  0.1634  0.5681
 3335TIP3   OH231563   1.116   4.003   1.008  0.0935 -0.0397  0.2111
 3335TIP3    H131564   1.113   4.093   0.975  0.3796  0.5139  1.6339
 3335TIP3    H231565   1.114   4.012   1.103 -0.0309 -1.5549  0.3748
 3336TIP3   OH231566   3.601   3.133   7.254  0.0171  0.1843 -0.0017
 3336TIP3    H131567   3.591   3.039   7.235 -1.1026 -0.0574  1.5745
 3336TIP3    H231568   3.671   3.162   7.195  1.7125 -2.0560  0.7694
 3337TIP3   OH231569   6.063   0.147   2.403 -0.7073  0.4120 -0.0026
 3337TIP3    H131570   5.993   0.209   2.384 -0.3843  0.3203 -1.6794
 3337TIP3    H231571   6.019   0.070   2.439 -1.6446 -0.1061 -2.1441
 3338TIP3   OH231572   3.181   1.483   1.895 -0.0164  0.2876 -0.8048
 3338TIP3    H131573   3.127   1.429   1.837 -3.5079  1.4036  1.0992
 3338TIP3    H231574   3.209   1.423   1.964  0.6561 -0.1533 -1.4436
 3339TIP3   OH231575   0.004   6.791   0.022  0.3531 -0.4154 -0.4139
 3339TIP3    H131576   0.074   6.815   0.082  0.8266 -0.7433 -0.8265
 3339TIP3    H231577  -0.072   6.842   0.051 -0.0314 -2.1145  1.7744
 3340TIP3   OH231578   1.679   4.345   1.236 -0.5688 -0.4907  0.4355
 3340TIP3    H131579   1.693   4.394   1.318  0.9503 -0.9674  0.4962
 3340TIP3    H231580   1.701   4.408   1.167  2.0342 -1.1995  0.5288
 3341TIP3   OH231581   1.310   5.062   2.493  0.1965 -0.2340 -0.0136
 3341TIP3    H131582   1.402   5.040   2.505  0.3516 -0.0546 -0.8317
 3341TIP3    H231583   1.265   4.977   2.498  0.5814 -0.5233 -1.1599
 3342TIP3   OH231584   4.779   6.116   6.377  0.1647 -0.0743  0.1553
 3342TIP3    H131585   4.836   6.166   6.319  1.0520 -1.0784  0.1127
 3342TIP3    H231586   4.749   6.042   6.324 -0.0051 -0.3392  0.6091
 3343TIP3   OH231587   2.816   1.518   7.521  0.3504  0.1174 -0.3501
 3343TIP3    H131588   2.788   1.543   7.433  1.3803  1.9365 -0.2004
 3343TIP3    H231589   2.880   1.448   7.507 -3.1704 -3.3699 -0.7437
 3344TIP3   OH231590   5.439   7.087   0.939 -0.1274 -0.3497  0.2407
 3344TIP3    H131591   5.362   7.037   0.912 -1.2556  1.0398  0.7541
 3344TIP3    H231592   5.512   7.044   0.895 -1.6306  0.6539 -3.6935
 3345TIP3   OH231593   1.732   2.393   7.397 -0.6772 -0.3445  0.4176
 3345TIP3    H131594   1.812   2.355   7.361 -1.0614  0.1831 -1.0486
 3345TIP3    H231595   1.683   2.424   7.321 -2.0561 -0.2024  1.3172
 3346TIP3   OH231596   6.504   3.534   0.691  0.5417 -0.1868 -0.0741
 3346TIP3    H131597   6.591   3.514   0.658  0.3573 -2.9099  0.8366
 3346TIP3    H231598   6.474   3.453   0.732 -1.7608  1.1493  1.1415
 3347TIP3   OH231599   6.539   0.184   0.437 -0.4303 -1.1307 -0.2261
 3347TIP3    H131600   6.561   0.220   0.524 -0.0349  0.9092 -1.1092
 3347TIP3    H231601   6.444   0.177   0.438 -0.8471  2.4178 -0.7895
 3348TIP3   OH231602   0.088   1.672   7.359 -0.0988  0.3020 -0.2114
 3348TIP3    H131603   0.044   1.596   7.397  0.9715 -0.5336 -0.5990
 3348TIP3    H231604   0.167   1.683   7.412  0.0868  0.7540 -0.5727
 3349TIP3   OH231605   1.687   1.128   0.335 -0.4668  0.0363  0.6235
 3349TIP3    H131606   1.711   1.219   0.316 -1.0912  0.0157 -0.3315
 3349TIP3    H231607   1.595   1.133   0.362 -0.5591 -0.3242  0.3858
 3350TIP3   OH231608   4.786   5.611   0.894 -0.9462  0.0163 -0.0156
 3350TIP3    H131609   4.881   5.624   0.900 -0.7576 -1.0440 -0.4883
 3350TIP3    H231610   4.749   5.698   0.909  0.1702  0.8483 -1.6743
 3351TIP3   OH231611   1.794   0.480   1.991  0.3274  0.4209  0.1127
 3351TIP3    H131612   1.705   0.451   2.009  0.1810  0.1270 -0.9742
 3351TIP3    H231613   1.847   0.441   2.060 -0.3935  0.6636  0.8078
 3352TIP3   OH231614   6.264   5.249   1.971 -0.4008  0.3417  0.6334
 3352TIP3    H131615   6.196   5.301   2.013 -0.4804 -0.1171  1.0894
 3352TIP3    H231616   6.346   5.290   1.998 -0.4822  0.6283  0.4456
 3353TIP3   OH231617   0.011   6.260   2.867 -0.5271 -0.0099 -0.2775
 3353TIP3    H131618  -0.002   6.248   2.961 -0.1378 -0.7084 -0.3052
 3353TIP3    H231619  -0.070   6.226   2.828 -1.1977  1.3644 -0.1540
 3354TIP3   OH231620   1.968   2.911   7.008  0.2388  0.3417  0.0168
 3354TIP3    H131621   1.885   2.933   7.050  0.3404  4.2089 -1.4286
 3354TIP3    H231622   2.031   2.907   7.081 -0.5865  1.0207  0.7940
 3355TIP3   OH231623   6.040   2.858   7.956 -0.5283  0.2223  0.4020
 3355TIP3    H131624   6.114   2.876   7.899 -0.3622  0.5447  0.7098
 3355TIP3    H231625   5.990   2.789   7.912  0.4525 -0.6605  0.6424
 3356TIP3   OH231626   5.695   0.172   7.930 -0.2541 -0.0719 -0.1838
 3356TIP3    H131627   5.623   0.226   7.964 -1.1796 -0.1799 -1.8307
 3356TIP3    H231628   5.719   0.214   7.848  1.3495 -0.2511  0.1715
 3357TIP3   OH231629   5.778   2.654   6.422 -0.3891  0.0712 -0.2974
 3357TIP3    H131630   5.710   2.717   6.444  0.4792  0.4674  1.4619
 3357TIP3    H231631   5.849   2.673   6.483  0.8563 -1.0642 -1.3206
 3358TIP3   OH231632   6.640   3.689   7.813 -0.1707  0.4010 -0.3510
 3358TIP3    H131633   6.708   3.667   7.878  0.9107  0.3726 -1.4587
 3358TIP3    H231634   6.648   3.783   7.800 -0.3934  0.4083 -0.4443
 3359TIP3   OH231635   1.536   0.788   2.664 -0.1222  1.1715  0.6762
 3359TIP3    H131636   1.483   0.802   2.585 -2.8247  0.6634  2.2888
 3359TIP3    H231637   1.550   0.875   2.700  4.9259  2.0596 -2.3992
 3360TIP3   OH231638   5.317   0.319   0.396 -0.3175  0.5699 -0.2602
 3360TIP3    H131639   5.366   0.336   0.316 -1.1676 -0.8710 -1.1173
 3360TIP3    H231640   5.232   0.361   0.382 -1.0732 -1.0732 -0.8487
 3361TIP3   OH231641   5.857   1.314   6.203 -0.3769 -0.5968  0.2288
 3361TIP3    H131642   5.914   1.391   6.203  0.0739 -0.8926 -1.4259
 3361TIP3    H231643   5.877   1.270   6.286  1.4644 -0.4193 -0.0756
 3362TIP3   OH231644   3.762   5.906   0.997  0.0217  0.0018 -0.2877
 3362TIP3    H131645   3.846   5.939   0.966  0.9750 -0.9212  1.1942
 3362TIP3    H231646   3.697   5.946   0.938  1.5488 -0.0507 -2.0926
 3363TIP3   OH231647   1.407   6.060   1.711  0.6953 -0.6869  0.2708
 3363TIP3    H131648   1.386   6.018   1.794  0.8165 -2.7712 -0.6786
 3363TIP3    H231649   1.441   5.989   1.656  0.9566  0.6880 -1.4450
 3364TIP3   OH231650   6.357   2.205   7.180 -0.2010 -0.0531 -0.0610
 3364TIP3    H131651   6.395   2.152   7.250  0.1357  0.2281 -0.0273
 3364TIP3    H231652   6.364   2.150   7.102 -1.3761 -0.7238  0.2715
 3365TIP3   OH231653   6.043   0.886   7.258 -0.3128  0.4419  0.1760
 3365TIP3    H131654   6.064   0.843   7.341  0.3034  0.7344  0.1731
 3365TIP3    H231655   5.947   0.886   7.255 -0.3278 -0.2798  0.5162
 3366TIP3   OH231656   5.332   3.272   2.174 -0.0323 -0.3390 -0.1484
 3366TIP3    H131657   5.316   3.355   2.218 -3.4060 -1.3854  0.9029
 3366TIP3    H231658   5.332   3.293   2.081 -0.0364  0.9543  0.1321
 3367TIP3   OH231659   2.146   2.995   7.878  0.2673 -0.1041  0.0795
 3367TIP3    H131660   2.173   2.917   7.926  2.0679 -0.1648 -0.9595
 3367TIP3    H231661   2.070   2.966   7.828  1.4768 -1.5205 -1.0433
 3368TIP3   OH231662   5.533   6.100   0.339 -0.4771 -0.3207 -0.8986
 3368TIP3    H131663   5.561   6.187   0.311 -0.6777 -0.4230 -1.4400
 3368TIP3    H231664   5.599   6.073   0.402  1.1600 -0.9084 -2.7547
 3369TIP3   OH231665   3.487   1.624   7.915 -0.4701  0.3455  0.5119
 3369TIP3    H131666   3.573   1.634   7.956 -0.4941 -0.1875  0.6944
 3369TIP3    H231667   3.429   1.600   7.986 -0.7129  0.4156  0.3365
 3370TIP3   OH231668   1.966   4.407   0.429 -0.1157  0.4616 -0.7662
 3370TIP3    H131669   2.012   4.372   0.353 -0.3154 -0.6071 -0.4100
 3370TIP3    H231670   1.885   4.443   0.394  0.6705  1.7592 -1.3071
 3371TIP3   OH231671   3.411   1.998   0.926  0.2226 -0.5615  0.0293
 3371TIP3    H131672   3.409   2.086   0.888  2.6849 -0.8982 -1.0491
 3371TIP3    H231673   3.375   1.942   0.858  0.0398 -0.5882  0.1459
 3372TIP3   OH231674   4.716   5.852   0.981  0.4263  0.1897  0.2631
 3372TIP3    H131675   4.635   5.808   1.005 -0.9986  1.8339 -1.2980
 3372TIP3    H231676   4.746   5.893   1.063  0.4125 -1.4438  1.1326
 3373TIP3   OH231677   5.878   4.693   1.251 -0.3482 -0.2324  0.0379
 3373TIP3    H131678   5.844   4.653   1.331 -0.8605 -0.3208 -0.2190
 3373TIP3    H231679   5.959   4.737   1.278 -1.8299  1.9855  1.2000
 3374TIP3   OH231680   1.673   6.904   1.757 -0.1962  0.1639  0.3574
 3374TIP3    H131681   1.621   6.873   1.831  1.7634 -1.4142  1.1595
 3374TIP3    H231682   1.689   6.826   1.704 -0.1071  0.9556 -0.8249
 3375TIP3   OH231683   4.634   2.243   7.099 -0.2516  0.3212 -0.2980
 3375TIP3    H131684   4.561   2.214   7.044 -0.0169 -0.0068 -0.4449
 3375TIP3    H231685   4.657   2.165   7.150  0.6909  0.0895 -1.0308
 3376TIP3   OH231686   1.562   0.240   0.340 -0.5261  0.3281 -0.5483
 3376TIP3    H131687   1.647   0.195   0.341 -0.0413  1.0451 -2.7596
 3376TIP3    H231688   1.564   0.297   0.417  0.1416 -1.0973  0.5454
 3377TIP3   OH231689   4.898   6.314   1.489 -0.5998  0.0586 -0.2494
 3377TIP3    H131690   4.921   6.249   1.556 -0.2047  0.3670 -0.0794
 3377TIP3    H231691   4.851   6.265   1.422  0.9648 -0.6807 -0.8322
 3378TIP3   OH231692   7.113   0.602   1.724 -0.2385  0.8047  0.3364
 3378TIP3    H131693   7.197   0.570   1.689 -0.8011  1.3568 -1.6277
 3378TIP3    H231694   7.118   0.583   1.817  0.6268 -2.4905 -0.2179
 3379TIP3   OH231695   4.255   1.813   7.982  0.5889 -0.3842 -0.4548
 3379TIP3    H131696   4.229   1.863   7.905  0.0936 -0.9341 -0.6485
 3379TIP3    H231697   4.326   1.756   7.951  0.7648 -0.2107 -0.3719
 3380TIP3   OH231698   2.182   4.243   2.097 -0.0642 -0.0137 -0.0184
 3380TIP3    H131699   2.264   4.194   2.096  0.1098  0.2686  0.3592
 3380TIP3    H231700   2.114   4.175   2.100  0.2055 -0.2446  2.3623
 3381TIP3   OH231701   3.152   1.094   2.837  0.0208  0.6276  0.0537
 3381TIP3    H131702   3.237   1.059   2.865  0.2461  1.1479  0.0143
 3381TIP3    H231703   3.122   1.032   2.770  0.4526  0.5515 -0.0691
 3382TIP3   OH231704   2.864   3.430   1.148 -0.3819  0.2165 -0.3341
 3382TIP3    H131705   2.838   3.490   1.219  0.1741 -0.0538  0.1114
 3382TIP3    H231706   2.806   3.451   1.076 -2.0269 -0.5504  0.7038
 3383TIP3   OH231707   5.896   4.174   1.371 -0.0160  1.0902  0.1132
 3383TIP3    H131708   5.896   4.134   1.284 -1.2742  2.7009 -0.6823
 3383TIP3    H231709   5.973   4.230   1.371  1.3566 -0.7325  0.9726
 3384TIP3   OH231710   0.347   7.045   1.788  0.2071 -0.2256  0.6154
 3384TIP3    H131711   0.411   7.090   1.734 -0.2095 -0.7519 -0.3432
 3384TIP3    H231712   0.267   7.044   1.735 -0.1217 -1.0262  1.1066
 3385TIP3   OH231713   4.005   6.649   1.064  0.1301  0.1085 -0.3598
 3385TIP3    H131714   3.918   6.663   1.103 -1.0715 -1.7790 -2.1663
 3385TIP3    H231715   4.037   6.737   1.045 -0.4423  0.9647  2.1489
 3386TIP3   OH231716   1.077   0.258   1.610 -0.3993  0.5951 -0.0800
 3386TIP3    H131717   1.002   0.211   1.574  0.4362 -1.0474  0.2429
 3386TIP3    H231718   1.053   0.277   1.701 -1.2457  1.9579 -0.5657
 3387TIP3   OH231719   4.298   1.754   6.852  0.3286 -0.1271  0.2781
 3387TIP3    H131720   4.224   1.758   6.792 -1.0440 -0.2852  1.8918
 3387TIP3    H231721   4.344   1.674   6.827  0.1660  0.1305 -0.9425
 3388TIP3   OH231722   1.054   1.043   2.114 -0.3556  0.3132  0.1842
 3388TIP3    H131723   0.961   1.028   2.098 -0.7359  2.0347  0.5485
 3388TIP3    H231724   1.060   1.059   2.208  0.3272  0.0797  0.1863
 3389TIP3   OH231725   2.753   1.704   0.159  0.0050  0.4138  0.0778
 3389TIP3    H131726   2.675   1.691   0.104 -0.0763  0.9588  0.0577
 3389TIP3    H231727   2.823   1.721   0.097  0.0134  0.5364  0.1206
 3390TIP3   OH231728   2.187   4.639   1.076  0.2236  0.2889  0.3540
 3390TIP3    H131729   2.245   4.677   1.142 -0.4390  2.0189  0.0087
 3390TIP3    H231730   2.117   4.704   1.066  0.4942  0.2825 -2.3004
 3391TIP3   OH231731   5.904   2.360   7.305  0.2640 -0.1968  0.0237
 3391TIP3    H131732   5.979   2.372   7.246  0.2098  1.7264  0.2908
 3391TIP3    H231733   5.940   2.313   7.380  1.2410  0.7634  0.1791
 3392TIP3   OH231734   2.322   1.470   6.596  0.1047 -0.6826  1.0538
 3392TIP3    H131735   2.273   1.393   6.624 -0.4586 -0.1401  1.6171
 3392TIP3    H231736   2.364   1.444   6.515 -0.5254 -1.4084  0.9467
 3393TIP3   OH231737   6.658   6.797   5.035  0.0372  0.2750 -0.0111
 3393TIP3    H131738   6.596   6.870   5.031 -0.5797 -0.1417  1.3292
 3393TIP3    H231739   6.683   6.792   5.127  1.1536 -0.3344 -0.3248
 3394TIP3   OH231740   1.804   1.631   1.330 -0.2122  0.0785  0.2313
 3394TIP3    H131741   1.813   1.554   1.275  1.7723  0.4271 -0.0070
 3394TIP3    H231742   1.775   1.597   1.415 -2.0053 -0.6009 -0.6248
 3395TIP3   OH231743   4.041   2.970   7.309  0.6186  0.4019  0.2078
 3395TIP3    H131744   3.947   2.975   7.327  0.5204  0.5376 -0.3257
 3395TIP3    H231745   4.077   3.048   7.350  0.4051  0.6822 -0.1294
 3396TIP3   OH231746   2.653   0.051   2.399  0.2477  0.0652  0.3214
 3396TIP3    H131747   2.593   0.103   2.452  0.7898  1.5753 -0.5077
 3396TIP3    H231748   2.641  -0.039   2.431 -1.4229  0.5316  1.1094
 3397TIP3   OH231749   5.014   6.167   6.221  0.0344  0.3096 -0.1295
 3397TIP3    H131750   5.066   6.118   6.158  1.3219 -1.1609  1.9260
 3397TIP3    H231751   5.076   6.229   6.260 -0.3779  0.2672  0.6122
 3398TIP3   OH231752   4.221   5.402   2.702  0.4208  0.2507  0.7679
 3398TIP3    H131753   4.139   5.448   2.722 -0.3640 -0.7458 -0.0640
 3398TIP3    H231754   4.247   5.436   2.616  0.7532  0.3821  0.9195
 3399TIP3   OH231755   4.256   6.389   1.697 -0.0859  0.0048 -0.5627
 3399TIP3    H131756   4.280   6.341   1.618  0.4817  0.3722 -0.6168
 3399TIP3    H231757   4.253   6.481   1.669  0.4291  0.1712 -0.0913
 3400TIP3   OH231758   3.269   5.904   7.935  0.1817 -0.6440 -0.2966
 3400TIP3    H131759   3.324   5.889   7.859  0.2291 -0.5965 -0.2722
 3400TIP3    H231760   3.268   6.000   7.946  0.7542 -0.6858  0.1824
 3401TIP3   OH231761   1.297   5.950   0.103 -0.1981 -0.1165  0.5889
 3401TIP3    H131762   1.321   6.023   0.160 -0.7432 -0.3298  1.0919
 3401TIP3    H231763   1.203   5.940   0.114 -0.2439 -0.4335 -0.0305
 3402TIP3   OH231764   6.417   3.827   2.572  0.8165  0.3213 -0.2027
 3402TIP3    H131765   6.457   3.777   2.500  1.4162  0.3911  0.0707
 3402TIP3    H231766   6.333   3.784   2.588  2.2307 -2.0721  1.5156
 3403TIP3   OH231767   2.900   1.446   0.065 -0.3087  0.6743  0.5092
 3403TIP3    H131768   2.980   1.395   0.072 -1.3667 -1.3928 -1.4267
 3403TIP3    H231769   2.929   1.532   0.034  1.1867  0.2184  0.5707
 3404TIP3   OH231770   0.971   2.797   1.272  0.1986  0.2112 -0.2312
 3404TIP3    H131771   0.960   2.882   1.228  0.8670  1.8928  2.5882
 3404TIP3    H231772   0.882   2.764   1.283 -0.2860  1.6940  0.6294
 3405TIP3   OH231773   6.799   0.229   7.035  0.0741 -0.0346 -0.1183
 3405TIP3    H131774   6.763   0.199   6.951 -0.0767 -3.4100  1.0369
 3405TIP3    H231775   6.722   0.245   7.090  0.0390 -4.1091  1.3079
 3406TIP3   OH231776   1.482   4.875   0.357 -0.3776  0.2574 -0.9154
 3406TIP3    H131777   1.447   4.789   0.334 -0.5140  0.1756 -0.4091
 3406TIP3    H231778   1.552   4.889   0.294  1.5752 -1.4838  0.7089
 3407TIP3   OH231779   2.878   3.516   7.505  0.5335 -0.2755 -0.2938
 3407TIP3    H131780   2.836   3.451   7.449 -0.2272 -0.9205  0.9888
 3407TIP3    H231781   2.971   3.514   7.480  0.0656  0.2367 -2.2527
 3408TIP3   OH231782   2.492   4.836   0.810 -0.2693  0.0196  0.4089
 3408TIP3    H131783   2.545   4.772   0.857  0.0303  1.0900  1.6062
 3408TIP3    H231784   2.481   4.908   0.873 -2.1033  0.3605 -0.2538
 3409TIP3   OH231785   1.887   0.895   2.080  0.6391  0.8033  0.3724
 3409TIP3    H131786   1.940   0.912   2.158  0.7367 -0.0312  0.5008
 3409TIP3    H231787   1.944   0.917   2.006  1.1762 -0.0695  0.5111
 3410TIP3   OH231788   0.405   0.317   1.823  0.2410  0.4139  0.3929
 3410TIP3    H131789   0.392   0.261   1.900  0.0049 -2.9688 -1.8950
 3410TIP3    H231790   0.497   0.345   1.830  0.0536  0.7421  2.1574
 3411TIP3   OH231791   4.647   0.337   0.127 -0.5320  0.2337  0.3261
 3411TIP3    H131792   4.659   0.334   0.222 -0.5098  0.2601  0.3241
 3411TIP3    H231793   4.725   0.295   0.091 -1.0796 -0.8463  0.3526
 3412TIP3   OH231794   3.166   1.534   0.799 -0.1029 -0.1474  0.3336
 3412TIP3    H131795   3.097   1.509   0.861 -1.4464  0.3803 -0.8883
 3412TIP3    H231796   3.120   1.586   0.732  1.1730 -1.1624 -1.4002
 3413TIP3   OH231797   1.501   1.221   0.117 -0.0905  0.7711  0.2005
 3413TIP3    H131798   1.500   1.269   0.034  0.3263  1.5715  0.6514
 3413TIP3    H231799   1.472   1.284   0.183  1.7804  0.8444  1.0166
 3414TIP3   OH231800   4.634   2.083   1.238  0.0708 -0.5420 -0.2155
 3414TIP3    H131801   4.629   2.130   1.322 -1.5399 -0.6482 -0.2179
 3414TIP3    H231802   4.610   2.148   1.173 -0.2377 -0.8715 -0.4300
 3415TIP3   OH231803   0.783   0.980   1.176  0.1160  0.4653 -0.1866
 3415TIP3    H131804   0.719   0.986   1.247  1.3232 -3.8918  1.5392
 3415TIP3    H231805   0.861   1.022   1.210 -0.0407  0.5395  0.0814
 3416TIP3   OH231806   0.561   5.517   0.911  0.1544 -0.1404 -0.4764
 3416TIP3    H131807   0.616   5.546   0.839  1.4133  0.8651  0.8422
 3416TIP3    H231808   0.475   5.503   0.871  0.8892  0.0668 -2.2171
 3417TIP3   OH231809   6.206   4.523   2.202 -0.1584  0.2828 -0.4391
 3417TIP3    H131810   6.145   4.483   2.264  1.3035 -0.4751  0.5638
 3417TIP3    H231811   6.288   4.476   2.215  0.0793 -0.3044 -3.3926
 3418TIP3   OH231812   5.767   0.791   6.995 -0.2544  0.3036 -0.0954
 3418TIP3    H131813   5.781   0.885   6.999  0.9730  0.2147 -1.6076
 3418TIP3    H231814   5.784   0.760   7.084 -0.3681  1.4673  0.3391
 3419TIP3   OH231815   0.408   1.278   6.583 -0.6480  0.0184  0.4066
 3419TIP3    H131816   0.411   1.358   6.530 -0.5735  0.4686  1.0745
 3419TIP3    H231817   0.463   1.297   6.659 -1.6421 -0.1907  1.2074
 3420TIP3   OH231818   0.923   5.995   2.256 -0.2423 -0.2563 -0.1658
 3420TIP3    H131819   0.874   6.016   2.177 -1.1612  0.7488  0.6402
 3420TIP3    H231820   0.902   5.904   2.275 -0.2616 -0.4054 -0.8926
 3421TIP3   OH231821   5.157   4.499   2.700  0.4377 -0.3380 -0.4343
 3421TIP3    H131822   5.127   4.460   2.618  0.9068  0.3467 -0.9453
 3421TIP3    H231823   5.094   4.470   2.765 -0.7293  0.2174 -1.2789
 3422TIP3   OH231824   0.235   4.618   3.162  0.1109 -0.3886  0.4955
 3422TIP3    H131825   0.292   4.574   3.098 -0.8624  0.6592 -1.1790
 3422TIP3    H231826   0.294   4.675   3.212  0.5726  0.9642 -1.4630
 3423TIP3   OH231827   3.056   5.308   1.861  0.1334  0.2772  0.3488
 3423TIP3    H131828   2.983   5.295   1.800  0.1527  2.2569 -0.1678
 3423TIP3    H231829   3.015   5.336   1.942  0.2671  0.3859  0.3786
 3424TIP3   OH231830   0.880   5.382   1.541  0.1276 -0.3407  0.6664
 3424TIP3    H131831   0.808   5.442   1.558 -1.8043 -2.5615  0.9741
 3424TIP3    H231832   0.891   5.383   1.446 -1.1866 -0.8274  0.4817
 3425TIP3   OH231833   4.039   2.136   2.263 -0.3032 -0.0933 -0.1236
 3425TIP3    H131834   3.946   2.154   2.278 -0.1143  0.2503  0.6822
 3425TIP3    H231835   4.068   2.090   2.342  0.5851  1.2030  0.3301
 3426TIP3   OH231836   4.563   2.900   1.347 -0.0915  0.1751  0.1824
 3426TIP3    H131837   4.520   2.967   1.399  0.2648  1.0719 -0.6511
 3426TIP3    H231838   4.560   2.821   1.402 -3.1442  0.0653  0.0063
 3427TIP3   OH231839   3.827   0.133   7.978 -0.3308 -0.8701 -0.2620
 3427TIP3    H131840   3.887   0.065   8.009 -0.5769 -0.7279  0.5680
 3427TIP3    H231841   3.776   0.090   7.910  1.3704 -0.7069 -1.7203
 3428TIP3   OH231842   6.500   0.319   1.547 -0.0855 -0.2465 -0.0574
 3428TIP3    H131843   6.429   0.346   1.606 -0.7687  0.8219 -1.3103
 3428TIP3    H231844   6.579   0.356   1.587 -0.2976 -0.9556  1.0527
 3429TIP3   OH231845   6.186   5.164   7.779 -0.4608  0.1025  0.2672
 3429TIP3    H131846   6.095   5.148   7.753 -0.6448 -0.1451  1.0334
 3429TIP3    H231847   6.188   5.256   7.804 -0.1934  0.4477 -0.9379
 3430TIP3   OH231848   6.773   5.355   2.815 -0.0699 -0.3248  0.2251
 3430TIP3    H131849   6.866   5.362   2.835  0.2506 -1.2629 -0.8015
 3430TIP3    H231850   6.733   5.431   2.857  1.2184  0.3285  0.3164
 3431TIP3   OH231851   0.016   1.395   1.275  0.4517 -0.1994  0.3459
 3431TIP3    H131852  -0.057   1.440   1.233  0.3118 -1.4189 -0.7893
 3431TIP3    H231853   0.051   1.459   1.336 -1.4028  0.5090  0.7511
 3432TIP3   OH231854   6.241   0.945   1.291  0.1443  0.2392 -0.0470
 3432TIP3    H131855   6.174   0.998   1.248  0.0027 -1.0507 -1.4900
 3432TIP3    H231856   6.281   0.894   1.220  0.6940 -1.1179  1.1819
 3433TIP3   OH231857   6.567   0.695   6.616 -0.6853 -0.2935  0.3218
 3433TIP3    H131858   6.574   0.600   6.625 -0.9473 -0.5095 -1.3643
 3433TIP3    H231859   6.505   0.722   6.684 -1.0743 -1.4162  0.4239
 3434TIP3   OH231860   6.563   1.510   0.160 -0.0977 -0.1961 -0.5562
 3434TIP3    H131861   6.602   1.570   0.096  2.2190 -1.7933 -0.7904
 3434TIP3    H231862   6.530   1.437   0.107 -1.7950  0.2713 -0.1849
 3435TIP3   OH231863   6.029   5.602   7.575 -0.2849  1.1411  0.1424
 3435TIP3    H131864   6.113   5.633   7.607  0.2510 -0.7869  0.7657
 3435TIP3    H231865   6.035   5.610   7.480  0.4908  1.2941  0.1977
 3436TIP3   OH231866   6.053   5.992   0.786  0.0683  0.6818  0.1390
 3436TIP3    H131867   6.105   5.972   0.864  0.3684  1.6757  0.2091
 3436TIP3    H231868   6.083   6.078   0.759 -0.5605  0.6631 -0.6500
 3437TIP3   OH231869   0.140   2.153   0.496  0.0987 -0.6657  0.2878
 3437TIP3    H131870   0.121   2.239   0.533  0.1030 -0.4549 -0.1878
 3437TIP3    H231871   0.214   2.120   0.547  1.8384  0.7386 -1.1753
 3438TIP3   OH231872   6.813   6.883   1.507  0.2656  0.1043 -0.9216
 3438TIP3    H131873   6.803   6.933   1.426  1.7426 -1.1543 -1.9587
 3438TIP3    H231874   6.836   6.795   1.477 -1.8993 -1.1486  0.8387
 3439TIP3   OH231875   4.997   5.814   1.950  0.0424  0.0762  0.3582
 3439TIP3    H131876   5.036   5.786   2.033  0.7104 -0.5599 -0.1554
 3439TIP3    H231877   4.903   5.811   1.964  0.1466  1.4551  1.5789
 3440TIP3   OH231878   4.496   3.452   0.733  0.4346 -0.5664 -0.6966
 3440TIP3    H131879   4.421   3.498   0.770  1.6885  1.2411 -0.2617
 3440TIP3    H231880   4.553   3.433   0.808  0.5001 -1.7898 -1.0299
 3441TIP3   OH231881   3.077   3.621   1.768  0.0441 -0.0482  0.0967
 3441TIP3    H131882   3.169   3.616   1.791  0.7772  2.2705 -1.8765
 3441TIP3    H231883   3.068   3.705   1.724 -2.7163 -0.8423 -1.0927
 3442TIP3   OH231884   5.522   0.630   0.867  0.7309 -0.7262 -0.6381
 3442TIP3    H131885   5.519   0.680   0.786 -0.9198  1.5161  0.6832
 3442TIP3    H231886   5.609   0.651   0.904  0.3573  0.6523 -0.4671
 3443TIP3   OH231887   2.147   1.200   0.572  0.2962 -0.1347 -0.1893
 3443TIP3    H131888   2.054   1.183   0.588  0.3935 -0.1211  0.4180
 3443TIP3    H231889   2.163   1.285   0.614  0.3237  0.4189 -1.2857
 3444TIP3   OH231890   6.644   1.484   7.756 -0.1485 -0.3772 -0.1672
 3444TIP3    H131891   6.682   1.396   7.753 -1.4842 -1.1103  1.7157
 3444TIP3    H231892   6.717   1.543   7.741  1.2023 -1.7719  0.6439
 3445TIP3   OH231893   6.018   7.006   0.676 -0.1951 -0.1441 -0.0549
 3445TIP3    H131894   6.086   7.035   0.737 -0.1321  2.1586 -1.1056
 3445TIP3    H231895   5.939   7.051   0.704 -0.7830 -1.0425 -0.2035
 3446TIP3   OH231896   0.729   3.580   7.866  0.1529 -0.1043 -0.0372
 3446TIP3    H131897   0.809   3.532   7.847 -0.1444 -0.8271  0.4745
 3446TIP3    H231898   0.686   3.529   7.934  0.4667  1.6048  1.5317
 3447TIP3   OH231899   0.500   4.770   1.293  0.1459 -0.1884 -0.3895
 3447TIP3    H131900   0.487   4.864   1.283  0.3585 -0.2683 -1.4518
 3447TIP3    H231901   0.482   4.753   1.386  1.4096  1.0938  0.1116
 3448TIP3   OH231902   6.318   0.204   5.029 -0.3048 -0.0325 -0.5906
 3448TIP3    H131903   6.307   0.232   5.120 -0.8805 -0.3023 -0.5699
 3448TIP3    H231904   6.397   0.149   5.030  0.0599  0.4843 -0.3828
 3449TIP3   OH231905   6.103   6.337   7.525  0.2509  0.6602 -0.5539
 3449TIP3    H131906   6.071   6.262   7.575  2.6950  0.4102  0.7757
 3449TIP3    H231907   6.025   6.391   7.511 -1.4498 -1.7600 -0.9910
 3450TIP3   OH231908   4.051   1.623   0.550  0.0920  0.4149 -0.1202
 3450TIP3    H131909   3.956   1.632   0.561 -0.0116 -1.4525  0.9272
 3450TIP3    H231910   4.084   1.605   0.638  1.5038  1.3674 -0.4080
 3451TIP3   OH231911   5.684   1.920   0.600 -0.1752  0.2434 -0.2181
 3451TIP3    H131912   5.729   1.835   0.593 -1.7333 -0.6735  0.3134
 3451TIP3    H231913   5.673   1.933   0.695  1.1193  1.6713 -0.2191
 3452TIP3   OH231914   5.041   4.106   7.925  0.0236  0.4317 -0.2277
 3452TIP3    H131915   5.032   4.051   7.847  0.3330  0.2662 -0.1469
 3452TIP3    H231916   5.105   4.061   7.980  0.1505  0.7824 -0.0818
 3453TIP3   OH231917   4.561   3.975   1.189 -0.0552  0.4151 -0.2021
 3453TIP3    H131918   4.486   4.033   1.194  0.1660  0.5969  1.5623
 3453TIP3    H231919   4.574   3.961   1.095 -2.8143 -0.3389 -0.5637
 3454TIP3   OH231920   5.973   5.304   7.277 -0.3205  0.2797  0.0748
 3454TIP3    H131921   6.067   5.317   7.290 -0.2396  0.3594 -0.5579
 3454TIP3    H231922   5.957   5.214   7.306 -0.1227  0.3882  0.5378
 3455TIP3   OH231923   6.954   1.786   7.328  0.2142  0.1673 -0.2006
 3455TIP3    H131924   6.986   1.871   7.358 -0.7107  0.8053 -0.9993
 3455TIP3    H231925   7.033   1.731   7.323  1.0655  1.4282 -1.2027
 3456TIP3   OH231926   4.237   6.496   6.916  0.3872  0.2351  0.1449
 3456TIP3    H131927   4.319   6.484   6.866  0.0840  1.2928 -0.6499
 3456TIP3    H231928   4.169   6.467   6.855  0.0832  0.5185  0.3554
 3457TIP3   OH231929   6.073   2.710   0.535  0.0178  0.2730 -0.8027
 3457TIP3    H131930   6.125   2.690   0.613 -0.4026 -0.8494 -0.7950
 3457TIP3    H231931   5.983   2.719   0.567 -0.2984 -1.1047 -1.2746
 3458TIP3   OH231932   3.110   0.894   1.645 -0.1074  0.1309 -0.1070
 3458TIP3    H131933   3.157   0.870   1.724  0.1507  0.7363 -0.0730
 3458TIP3    H231934   3.151   0.976   1.616  0.5937 -0.6756 -1.5135
 3459TIP3   OH231935   6.281   0.031   7.581  0.6480  0.1411  0.3827
 3459TIP3    H131936   6.353   0.090   7.603  0.3698  0.5968  0.0960
 3459TIP3    H231937   6.204   0.088   7.577  0.5419 -0.0630 -0.8786
 3460TIP3   OH231938   5.608   6.236   2.836 -0.0432 -0.0428  0.5898
 3460TIP3    H131939   5.584   6.190   2.756 -0.2633 -1.1654  1.2897
 3460TIP3    H231940   5.545   6.308   2.842  1.3864  1.4973 -1.4394
 3461TIP3   OH231941   5.526   1.301   0.077  0.2150 -0.0835  0.1177
 3461TIP3    H131942   5.463   1.229   0.081  0.7389 -0.5053  1.3701
 3461TIP3    H231943   5.562   1.297  -0.011 -0.7471 -0.4931 -0.2735
 3462TIP3   OH231944   3.094   3.876   1.645 -0.8063 -0.2506 -0.3232
 3462TIP3    H131945   3.159   3.909   1.582 -0.2017 -0.7811  0.0077
 3462TIP3    H231946   3.109   3.929   1.724  1.1625 -2.1757  0.7167
 3463TIP3   OH231947   2.909   6.738   0.539  0.3378  0.3066 -0.1035
 3463TIP3    H131948   2.942   6.822   0.571  0.4476  0.1243  0.2665
 3463TIP3    H231949   2.853   6.761   0.464 -0.3821  0.7854  0.5690
 3464TIP3   OH231950   5.995   2.734   6.613  0.0427  0.4271 -0.4038
 3464TIP3    H131951   6.085   2.722   6.644 -0.3701 -0.7256  0.3982
 3464TIP3    H231952   5.968   2.818   6.650  0.4611  0.3080  0.1949
 3465TIP3   OH231953   3.118   4.455   0.404  0.6328  0.0392 -0.1114
 3465TIP3    H131954   3.037   4.472   0.453  0.6892 -1.8098  0.6992
 3465TIP3    H231955   3.088   4.435   0.316  0.2330 -0.1504  0.0615
 3466TIP3   OH231956   3.213   4.861   0.385 -0.1115  0.3774 -0.0560
 3466TIP3    H131957   3.159   4.935   0.410 -1.5998 -0.4711 -0.6210
 3466TIP3    H231958   3.170   4.785   0.424  0.7085 -0.3152 -0.4567
 3467TIP3   OH231959   6.574   6.387   7.179 -0.6707  0.5909  0.1307
 3467TIP3    H131960   6.646   6.332   7.147 -0.2367  0.5884  1.0681
 3467TIP3    H231961   6.532   6.419   7.100 -1.4015 -1.6713 -0.4880
 3468TIP3   OH231962   0.419   6.436   0.889  0.9125  0.2834  0.3822
 3468TIP3    H131963   0.413   6.504   0.822 -1.1427 -1.0311 -0.8886
 3468TIP3    H231964   0.389   6.479   0.969 -0.2379  0.9354 -0.3667
 3469TIP3   OH231965   4.271   0.580   0.126 -0.4669 -0.1862 -0.2737
 3469TIP3    H131966   4.279   0.540   0.213  0.6375 -0.6231 -0.5572
 3469TIP3    H231967   4.185   0.623   0.127 -0.8715 -0.9774  0.7008
 3470TIP3   OH231968   3.495   0.459   0.851  0.0854 -0.0821 -0.2118
 3470TIP3    H131969   3.473   0.379   0.804 -0.6021  0.2628 -0.4921
 3470TIP3    H231970   3.580   0.485   0.816  0.7660 -1.1811  0.5507
 3471TIP3   OH231971   3.331   0.148   2.499  0.0457 -0.5532 -0.0303
 3471TIP3    H131972   3.317   0.056   2.522  1.1196 -0.9074 -0.7263
 3471TIP3    H231973   3.253   0.172   2.450 -0.0270 -1.2332 -0.2633
 3472TIP3   OH231974   1.664   4.879   1.314 -0.1805  0.1897 -0.3364
 3472TIP3    H131975   1.594   4.900   1.253 -1.5143 -0.1924  0.9756
 3472TIP3    H231976   1.621   4.875   1.400  1.3457 -0.6245  0.4524
 3473TIP3   OH231977   1.556   1.587   0.173  0.3713  0.1584 -0.0980
 3473TIP3    H131978   1.596   1.666   0.135  0.4593  0.2081  0.0966
 3473TIP3    H231979   1.485   1.564   0.113  1.3486 -0.5343 -1.0258
 3474TIP3   OH231980   1.781   6.555   1.959 -0.3866 -0.1918  0.0473
 3474TIP3    H131981   1.839   6.479   1.951  0.2236  0.3176 -0.4756
 3474TIP3    H231982   1.823   6.623   1.907 -2.0157 -0.1336 -1.2804
 3475TIP3   OH231983   4.740   2.015   7.624  0.4052 -0.8158 -0.1794
 3475TIP3    H131984   4.689   2.087   7.587  1.5120  0.1147  0.0256
 3475TIP3    H231985   4.724   1.941   7.566 -2.0110 -0.8924  0.4956
 3476TIP3   OH231986   3.394   5.713   0.564  0.2641 -0.3271  0.1675
 3476TIP3    H131987   3.304   5.691   0.586  0.0088  0.0892 -0.4310
 3476TIP3    H231988   3.407   5.677   0.477  0.6711 -0.3724  0.2439
 3477TIP3   OH231989   0.207   5.395   1.824  0.2831 -0.6259  0.0472
 3477TIP3    H131990   0.131   5.343   1.800  2.5400 -4.6600  0.7909
 3477TIP3    H231991   0.234   5.361   1.909  3.4309 -0.1082 -0.6033
 3478TIP3   OH231992   3.899   5.608   0.999 -0.4318  0.0946 -0.0146
 3478TIP3    H131993   3.928   5.699   1.011 -1.0360  0.3455 -0.3974
 3478TIP3    H231994   3.945   5.559   1.067  2.6112  0.0973 -1.9139
 3479TIP3   OH231995   3.785   5.686   1.269  0.2155  0.0668  0.1213
 3479TIP3    H131996   3.712   5.695   1.208 -1.5853 -1.1753  1.9696
 3479TIP3    H231997   3.751   5.715   1.353  1.7433 -0.8691  1.1246
 3480TIP3   OH231998   1.896   5.515   0.538  0.6781 -0.1085 -0.3748
 3480TIP3    H131999   1.888   5.572   0.615 -1.0201 -0.5506 -0.1752
 3480TIP3    H232000   1.915   5.428   0.574 -0.5029 -0.3933 -0.3968
 3481TIP3   OH232001   4.936   2.569   7.275  0.1153  0.2759  0.2389
 3481TIP3    H132002   5.025   2.561   7.241  0.1773 -0.5097  0.5797
 3481TIP3    H232003   4.940   2.644   7.334  0.9857 -0.7587  1.5656
 3482TIP3   OH232004   4.135   5.473   0.449 -0.2265 -0.4324 -0.1281
 3482TIP3    H132005   4.226   5.494   0.466 -0.8870  1.0914  1.9228
 3482TIP3    H232006   4.099   5.554   0.412 -1.0929 -0.4985  0.5500
 3483TIP3   OH232007   4.952   6.208   7.211 -0.3369  0.7062 -0.1536
 3483TIP3    H132008   5.037   6.222   7.168 -0.1926  1.3092  0.3066
 3483TIP3    H232009   4.930   6.117   7.192  0.3674  0.5743 -0.3734
 3484TIP3   OH232010   0.828   5.847   0.435  0.0566  0.0768 -0.3870
 3484TIP3    H132011   0.827   5.912   0.365  1.3113 -0.3208 -0.8191
 3484TIP3    H232012   0.782   5.771   0.398  0.0208  0.1508 -0.4947
 3485TIP3   OH232013   1.403   4.678   0.937  0.0264  0.6770  0.3037
 3485TIP3    H132014   1.431   4.765   0.966  1.0333  0.2116  0.7825
 3485TIP3    H232015   1.394   4.686   0.842  0.4636  1.2104  0.3025
 3486TIP3   OH232016   2.134   0.626   2.038 -0.0853 -0.5092 -0.0095
 3486TIP3    H132017   2.081   0.684   1.983  0.7430  0.5304  0.2448
 3486TIP3    H232018   2.146   0.675   2.120 -2.5078 -2.6144  1.7568
 3487TIP3   OH232019   1.906   0.305   2.191 -0.1651 -0.1835  0.0975
 3487TIP3    H132020   1.866   0.219   2.180  0.0587 -0.6805  2.4797
 3487TIP3    H232021   1.861   0.342   2.267  1.6779  0.5799  0.8621
 3488TIP3   OH232022   6.883   3.380   6.376 -0.0698 -0.2798  0.1897
 3488TIP3    H132023   6.912   3.347   6.291 -2.4937  0.4697 -1.0190
 3488TIP3    H232024   6.788   3.367   6.375 -0.3603  1.3190  2.0868
 3489TIP3   OH232025   2.852   7.040   7.253  0.1071 -0.4271  0.1832
 3489TIP3    H132026   2.889   7.128   7.258 -0.1928 -0.2105 -1.0421
 3489TIP3    H232027   2.766   7.052   7.213 -0.2759 -1.1950  0.7417
 3490TIP3   OH232028   2.058   6.221   0.132  0.0969 -0.1958 -0.4843
 3490TIP3    H132029   2.050   6.289   0.065 -0.6176 -0.3603 -0.5819
 3490TIP3    H232030   2.135   6.171   0.106  0.2485  0.1816 -0.7801
 3491TIP3   OH232031   0.135   3.918   2.213 -0.5412  0.4326  0.1486
 3491TIP3    H132032   0.132   3.849   2.280 -0.3633  0.6779  0.4086
 3491TIP3    H232033   0.083   3.990   2.250 -1.5555  0.0855 -0.5326
 3492TIP3   OH232034   2.242   1.720   6.695 -0.4965 -0.0717 -0.5254
 3492TIP3    H132035   2.313   1.768   6.652 -2.0970  0.3680 -2.8414
 3492TIP3    H232036   2.248   1.632   6.658 -0.1739 -0.5086  0.5313
 3493TIP3   OH232037   3.757   0.107   1.907  0.2126 -0.5477 -0.4482
 3493TIP3    H132038   3.836   0.139   1.863  0.1791  0.9743  0.5218
 3493TIP3    H232039   3.769   0.131   1.999 -1.6199  0.2391 -0.3644
 3494TIP3   OH232040   0.698   5.619   0.706  0.2185  0.3040  0.1262
 3494TIP3    H132041   0.780   5.569   0.712 -0.8464 -1.3524  1.6238
 3494TIP3    H232042   0.723   5.709   0.728  1.7292 -0.0636  0.0076
 3495TIP3   OH232043   2.901   0.038   0.056  0.0566  0.3311  0.1832
 3495TIP3    H132044   2.982   0.025   0.007 -0.2260 -0.3605 -0.1156
 3495TIP3    H232045   2.930   0.057   0.145  0.5684 -1.6299  0.4930
 3496TIP3   OH232046   5.228   3.771   2.127  0.0325  0.4649  0.3271
 3496TIP3    H132047   5.164   3.809   2.066  0.6867  1.0081 -0.0368
 3496TIP3    H232048   5.247   3.842   2.189 -0.6069 -0.0733  1.1635
 3497TIP3   OH232049   2.600   5.294   0.429  0.6781  0.0015  0.3959
 3497TIP3    H132050   2.598   5.221   0.491  2.6507 -0.4164  0.0249
 3497TIP3    H232051   2.602   5.252   0.343 -1.6111  0.5738 -0.0066
 3498TIP3   OH232052   0.050   2.287   1.997  0.3536  0.0291  0.2416
 3498TIP3    H132053   0.078   2.276   2.088  1.7064  2.1948  0.1672
 3498TIP3    H232054   0.086   2.372   1.971 -1.8784  0.5142 -1.6326
 3499TIP3   OH232055   1.009   6.162   0.672 -0.4869  0.4632  0.0920
 3499TIP3    H132056   1.029   6.255   0.660 -1.4267  0.5938 -0.5829
 3499TIP3    H232057   0.982   6.154   0.763  4.4157 -0.0941  1.7988
 3500TIP3   OH232058   4.256   4.051   1.140 -0.2647  0.5695 -0.1939
 3500TIP3    H132059   4.187   4.056   1.074 -0.1634  1.4952 -0.2358
 3500TIP3    H232060   4.273   4.142   1.164  3.4187  0.7465 -2.7012
 3501TIP3   OH232061   2.191   6.299   1.386 -0.7787 -0.0817  0.6037
 3501TIP3    H132062   2.133   6.317   1.461  0.0540 -1.2890  1.5742
 3501TIP3    H232063   2.137   6.247   1.327 -2.2812  2.9406 -0.9167
 3502TIP3   OH232064   5.140   0.028   7.738  0.3519 -0.1482 -0.2626
 3502TIP3    H132065   5.112   0.118   7.721  1.2005  0.0380 -0.6794
 3502TIP3    H232066   5.233   0.027   7.720  1.1162 -0.2747  3.0032
 3503TIP3   OH232067   1.980   5.985   7.850  0.2979 -0.1758  0.4965
 3503TIP3    H132068   1.926   6.064   7.857  0.1466 -0.2940  0.6897
 3503TIP3    H232069   2.029   5.996   7.769  0.8011  0.4398  0.8809
 3504TIP3   OH232070   4.151   1.302   7.628 -0.6090 -0.8005 -0.7699
 3504TIP3    H132071   4.147   1.360   7.552 -0.0120 -2.0449 -1.7895
 3504TIP3    H232072   4.064   1.262   7.633 -1.2709  0.7043  0.3994
 3505TIP3   OH232073   5.968   2.590   6.987  0.0099  0.4087  0.0388
 3505TIP3    H132074   6.015   2.525   7.039  0.9138  0.7362 -0.3540
 3505TIP3    H232075   6.036   2.649   6.954 -0.2330 -0.7808 -2.9446
 3506TIP3   OH232076   3.389   5.565   7.172 -0.1868  0.2139 -0.6364
 3506TIP3    H132077   3.317   5.522   7.126 -0.4907  0.0643 -0.0399
 3506TIP3    H232078   3.408   5.642   7.120  0.3850 -0.6537 -1.7436
 3507TIP3   OH232079   5.068   3.224   1.472 -0.8273 -0.3438 -0.8318
 3507TIP3    H132080   5.115   3.142   1.488 -0.5107  0.0209  0.1804
 3507TIP3    H232081   5.125   3.273   1.413 -0.9046 -0.7408 -1.2468
 3508TIP3   OH232082   2.082   2.607   1.513  0.0456 -0.6754  0.4636
 3508TIP3    H132083   2.102   2.541   1.579 -0.7152 -0.5139  0.8705
 3508TIP3    H232084   1.990   2.595   1.494 -0.3023  0.7282  1.0982
 3509TIP3   OH232085   2.834   6.697   1.852 -0.3238  0.9044  0.6427
 3509TIP3    H132086   2.827   6.666   1.942 -1.1082 -0.4708  0.1420
 3509TIP3    H232087   2.745   6.720   1.827 -0.3832 -0.1726 -0.2434
 3510TIP3   OH232088   5.849   0.331   2.432 -0.5951  0.4185  0.2110
 3510TIP3    H132089   5.768   0.299   2.393 -1.2020 -0.9856  2.4197
 3510TIP3    H232090   5.849   0.295   2.521  2.0803  1.0220  0.5594
 3511TIP3   OH232091   4.172   1.151   7.287 -0.5872 -0.2149  0.0991
 3511TIP3    H132092   4.249   1.207   7.294 -0.0112 -0.8002 -1.4027
 3511TIP3    H232093   4.202   1.064   7.313 -0.5667 -0.5822 -1.1288
 3512TIP3   OH232094   2.445   0.726   0.223 -0.2661 -0.2652  0.1213
 3512TIP3    H132095   2.362   0.773   0.222 -0.1034  0.0166 -0.0704
 3512TIP3    H232096   2.469   0.724   0.316  1.1349  2.5389 -0.0635
 3513TIP3   OH232097   6.658   1.543   2.008  0.8734 -0.3069 -0.1449
 3513TIP3    H132098   6.627   1.615   1.953 -2.0566  0.0270  1.6808
 3513TIP3    H232099   6.582   1.522   2.064  3.2258 -1.3553  2.9342
 3514TIP3   OH232100   0.576   1.066   6.553  0.1401 -0.5670  0.1417
 3514TIP3    H132101   0.523   1.144   6.535  1.7269  0.7457  0.8311
 3514TIP3    H232102   0.514   0.993   6.551 -1.0930  0.4285 -2.4722
 3515TIP3   OH232103   2.251   0.593   7.001  0.0632  0.5097 -0.2801
 3515TIP3    H132104   2.285   0.558   7.084  0.4905  0.9088 -0.2816
 3515TIP3    H232105   2.289   0.538   6.934 -1.2587 -0.5962 -0.1627
 3516TIP3   OH232106   4.217   1.726   7.505  0.3641 -0.2808 -0.0740
 3516TIP3    H132107   4.221   1.652   7.566  1.0952 -1.4567 -1.4897
 3516TIP3    H232108   4.153   1.701   7.439 -1.1245  1.3863  0.6439
 3517TIP3   OH232109   1.406   6.230   1.361 -0.9140  0.2715 -0.1782
 3517TIP3    H132110   1.485   6.223   1.308 -1.4379  0.4506 -0.9894
 3517TIP3    H232111   1.382   6.140   1.381 -1.8395  0.0784 -1.9545
 3518TIP3   OH232112   4.337   4.565   1.308 -0.3400  0.5817  0.1942
 3518TIP3    H132113   4.345   4.647   1.357  0.5491  1.1651 -0.9034
 3518TIP3    H232114   4.266   4.581   1.246 -0.8159  0.1725  0.6214
 3519TIP3   OH232115   5.207   6.211   2.477 -0.0637 -0.6302  0.1446
 3519TIP3    H132116   5.267   6.250   2.414  0.1440 -2.1618 -0.6437
 3519TIP3    H232117   5.123   6.252   2.459  0.0906 -0.7396 -0.8552
 3520TIP3   OH232118   1.764   6.629   7.918  0.1944  0.3983  0.5210
 3520TIP3    H132119   1.675   6.663   7.907  0.8646  1.9691 -0.3105
 3520TIP3    H232120   1.818   6.707   7.930  1.8375 -0.2833 -1.7474
 3521TIP3   OH232121   4.824   2.280   1.042 -0.4446  0.3362  0.9446
 3521TIP3    H132122   4.778   2.217   0.987 -1.0226  1.6889 -0.1966
 3521TIP3    H232123   4.895   2.312   0.987  1.3398 -1.0254  2.3616
 3522TIP3   OH232124   4.415   3.963   7.596 -0.0118 -0.5528 -0.3404
 3522TIP3    H132125   4.463   3.906   7.536  0.3117 -1.6522  0.9201
 3522TIP3    H232126   4.479   3.990   7.661 -0.7586 -0.8779  0.5542
 3523TIP3   OH232127   6.935   5.495   6.784 -0.0059 -0.0537 -0.3880
 3523TIP3    H132128   6.887   5.440   6.721 -0.2009  1.0413 -1.2268
 3523TIP3    H232129   7.027   5.482   6.761 -0.0563  0.0555 -0.6538
 3524TIP3   OH232130   3.165   3.559   1.010 -0.2263 -0.1032  0.2514
 3524TIP3    H132131   3.135   3.619   0.943 -0.8277  0.3750  0.9340
 3524TIP3    H232132   3.136   3.598   1.093 -1.7565 -1.9518  0.6542
 3525TIP3   OH232133   1.449   3.602   6.180 -0.0502  0.2381 -0.3698
 3525TIP3    H132134   1.478   3.693   6.183 -0.5033  0.3722  0.1976
 3525TIP3    H232135   1.503   3.557   6.244 -0.6128  0.3472  0.1861
 3526TIP3   OH232136   2.031   3.259   7.270 -0.0101 -0.1881  0.4226
 3526TIP3    H132137   2.085   3.329   7.234 -0.8801 -0.0809 -0.7272
 3526TIP3    H232138   2.094   3.197   7.306  0.7766  1.2963  1.7637
 3527TIP3   OH232139   0.624   6.328   6.678 -0.0203 -0.1319  0.0179
 3527TIP3    H132140   0.644   6.277   6.600 -0.1226  1.0840 -0.8333
 3527TIP3    H232141   0.702   6.382   6.692 -0.5058  0.5835 -0.0119
 3528TIP3   OH232142   6.307   6.903   2.176 -0.4368  0.0796 -0.2755
 3528TIP3    H132143   6.375   6.967   2.154 -1.3389  0.9379 -0.6509
 3528TIP3    H232144   6.347   6.846   2.241  1.5670 -1.1375 -2.4489
 3529TIP3   OH232145   3.389   0.265   6.788 -0.1211 -0.0160  0.2286
 3529TIP3    H132146   3.482   0.287   6.783 -0.3868  0.9709 -0.7389
 3529TIP3    H232147   3.361   0.259   6.696 -0.9198 -0.7423  0.5024
 3530TIP3   OH232148   5.226   1.908   2.644 -0.1122  0.0311  0.0667
 3530TIP3    H132149   5.310   1.894   2.601 -1.6424 -1.6662 -2.6787
 3530TIP3    H232150   5.187   1.981   2.597  0.1196  1.4126  1.9239
 3531TIP3   OH232151   3.513   3.541   2.568  0.1582 -0.8081  0.4163
 3531TIP3    H132152   3.592   3.487   2.575 -0.7533 -2.0590  1.3781
 3531TIP3    H232153   3.454   3.491   2.512 -0.6772 -0.7867  1.2573
 3532TIP3   OH232154   0.509   5.930   1.371  0.3709 -0.1427 -0.2905
 3532TIP3    H132155   0.473   5.846   1.342  1.9099 -0.4903 -1.3360
 3532TIP3    H232156   0.435   5.990   1.368 -0.3793 -1.0706 -1.2353
 3533TIP3   OH232157   3.113   1.383   0.281 -0.2447 -0.0896 -0.4313
 3533TIP3    H132158   3.146   1.433   0.355 -0.6098  0.7912 -0.8489
 3533TIP3    H232159   3.060   1.313   0.321 -0.9468  0.7384  0.1325
 3534TIP3   OH232160   1.660   1.812   7.963  0.1193  0.1803  0.0303
 3534TIP3    H132161   1.673   1.883   7.901  0.9723  1.3656  1.4985
 3534TIP3    H232162   1.731   1.750   7.944 -0.3646 -0.1005 -0.9567
 3535TIP3   OH232163   5.601   2.264   7.823 -0.0176 -0.4014 -0.8563
 3535TIP3    H132164   5.639   2.239   7.739 -0.0565  1.3445 -1.4393
 3535TIP3    H232165   5.547   2.340   7.803  1.1469  1.0089  0.9534
 3536TIP3   OH232166   6.708   1.051   0.451 -0.3845 -0.6566  0.1166
 3536TIP3    H132167   6.647   1.121   0.471  0.4070  0.3389 -0.8230
 3536TIP3    H232168   6.666   1.000   0.383  0.9702  1.8131 -2.7906
 3537TIP3   OH232169   6.044   0.369   1.258  0.5268  0.1981 -0.4010
 3537TIP3    H132170   5.971   0.377   1.196  0.3616 -0.1071 -0.2489
 3537TIP3    H232171   6.031   0.283   1.298  0.6033  0.4182  0.0994
 3538TIP3   OH232172   1.470   4.412   1.826 -0.0780  0.4750 -0.1284
 3538TIP3    H132173   1.468   4.332   1.877 -0.5634  1.0924  0.8518
 3538TIP3    H232174   1.395   4.463   1.858  0.3849  1.4342 -0.5198
 3539TIP3   OH232175   3.629   0.793   2.542  0.7172 -0.0612  0.3877
 3539TIP3    H132176   3.590   0.756   2.463  0.8848  0.5118  0.0256
 3539TIP3    H232177   3.694   0.729   2.570  2.4665  0.8596 -1.3942
 3540TIP3   OH232178   2.161   6.505   7.191 -0.3357 -0.0108 -0.5295
 3540TIP3    H132179   2.107   6.432   7.220 -0.4545  0.3689  0.2399
 3540TIP3    H232180   2.241   6.498   7.243  0.2998 -0.4679 -1.5397
 3541TIP3   OH232181   7.055   1.806   6.075 -0.0114  0.4518  0.1389
 3541TIP3    H132182   7.027   1.874   6.014 -0.4064 -1.4158 -1.8969
 3541TIP3    H232183   7.039   1.724   6.028  2.8884 -0.9789  1.3865
 3542TIP3   OH232184   5.465   4.836   7.821 -0.2069  0.0097  0.3137
 3542TIP3    H132185   5.450   4.840   7.726  1.3578  1.3223  0.0790
 3542TIP3    H232186   5.559   4.853   7.831 -0.4495  0.4415  2.1405
 3543TIP3   OH232187   0.797   3.896   1.092 -0.1057 -0.5907 -0.6130
 3543TIP3    H132188   0.845   3.937   1.164 -1.4341  0.4338 -0.2686
 3543TIP3    H232189   0.828   3.942   1.013 -0.4704  0.0258 -0.4010
 3544TIP3   OH232190   2.031   2.286   7.881  0.0343 -0.6856  0.4432
 3544TIP3    H132191   2.042   2.347   7.809 -1.3437  0.8983  1.5150
 3544TIP3    H232192   2.120   2.257   7.902  0.9141  2.0261  0.7671
 3545TIP3   OH232193   2.698   3.754   1.142 -1.1083  0.0124 -0.6977
 3545TIP3    H132194   2.621   3.717   1.097 -0.0712  0.0304 -2.5537
 3545TIP3    H232195   2.771   3.701   1.111 -0.2949  0.2114  0.8032
 3546TIP3   OH232196   2.866   4.477   6.634 -0.6913  0.2844 -0.0238
 3546TIP3    H132197   2.902   4.550   6.584 -0.4694 -0.9689 -1.8012
 3546TIP3    H232198   2.943   4.424   6.657 -0.9475  0.0662  0.3288
 3547TIP3   OH232199   1.964   1.084   0.940 -0.0081 -0.0815  0.2299
 3547TIP3    H132200   2.046   1.073   0.891  0.7284 -0.8749  1.5857
 3547TIP3    H232201   1.991   1.113   1.027 -1.3359  2.0709 -0.0172
 3548TIP3   OH232202   2.330   4.259   6.823 -0.3964 -1.0890  0.2655
 3548TIP3    H132203   2.307   4.349   6.800 -0.2997 -1.3613 -1.0062
 3548TIP3    H232204   2.249   4.220   6.855 -0.7220 -0.8673 -0.2751
 3549TIP3   OH232205   3.908   2.137   1.971  0.8952  0.4527 -0.6995
 3549TIP3    H132206   3.854   2.191   2.028 -2.0130 -0.9400 -1.9359
 3549TIP3    H232207   3.983   2.112   2.026  0.1135  2.1214  1.2632
 3550TIP3   OH232208   4.939   0.816   2.240 -0.3093 -0.1092 -0.0841
 3550TIP3    H132209   4.950   0.911   2.239  2.0896 -0.3069  1.6646
 3550TIP3    H232210   4.860   0.802   2.294 -0.1173  0.8513  0.4713
 3551TIP3   OH232211   6.423   6.986   1.253  0.3298 -0.0421  0.3401
 3551TIP3    H132212   6.412   7.081   1.256 -0.9284  0.0464 -2.9621
 3551TIP3    H232213   6.370   6.958   1.178  1.4895 -3.2364  0.5655
 3552TIP3   OH232214   5.756   0.161   1.173  0.5322 -0.3298 -0.1700
 3552TIP3    H132215   5.818   0.133   1.239  2.2941  0.4679 -1.4245
 3552TIP3    H232216   5.688   0.093   1.174 -0.0605  0.1679  3.0802
 3553TIP3   OH232217   3.350   6.732   7.471 -0.1157 -0.3113 -0.1959
 3553TIP3    H132218   3.336   6.827   7.468 -0.6106 -0.3836 -3.0682
 3553TIP3    H232219   3.286   6.696   7.410  2.2478 -2.1238 -1.8349
 3554TIP3   OH232220   6.027   2.221   6.702  0.1290 -0.4813  0.2344
 3554TIP3    H132221   6.090   2.176   6.645  1.0395  0.7287  0.2629
 3554TIP3    H232222   5.957   2.248   6.643 -0.6400 -2.2400  0.2747
 3555TIP3   OH232223   5.040   3.936   1.434 -0.4758  0.0057 -0.1286
 3555TIP3    H132224   5.060   4.023   1.468  1.3278  0.2057 -1.5516
 3555TIP3    H232225   4.965   3.951   1.376 -0.0483  0.6818 -0.5284
 3556TIP3   OH232226   6.908   3.997   7.487 -1.0731 -0.8128 -0.5793
 3556TIP3    H132227   6.917   4.092   7.490  0.0821 -0.8756  2.9050
 3556TIP3    H232228   6.933   3.972   7.398  1.0110  1.9544 -0.8725
 3557TIP3   OH232229   7.083   1.042   7.510 -0.3698  0.1493  0.3897
 3557TIP3    H132230   7.023   1.002   7.574 -0.1927 -0.5839  0.1126
 3557TIP3    H232231   7.133   0.968   7.475  0.2832  0.6772  0.1830
 3558TIP3   OH232232   0.674   6.999   0.008 -0.6507  0.3675 -0.2321
 3558TIP3    H132233   0.755   6.982  -0.041 -0.5210  1.4521 -0.4170
 3558TIP3    H232234   0.669   6.928   0.072  1.0021  0.8448  0.4730
 3559TIP3   OH232235   3.796   2.539   6.065 -0.2600  0.0815 -0.6734
 3559TIP3    H132236   3.815   2.600   6.136 -0.1023 -1.5318  0.7343
 3559TIP3    H232237   3.757   2.593   5.997  1.2380  1.9896 -0.1071
 3560TIP3   OH232238   4.901   2.842   0.737  0.0546  0.2196 -0.3682
 3560TIP3    H132239   4.967   2.896   0.780  0.1842 -1.2808  1.4729
 3560TIP3    H232240   4.827   2.901   0.723 -1.0395  0.4259  4.3624
 3561TIP3   OH232241   3.151   5.218   2.148 -0.2989  0.5432 -0.1024
 3561TIP3    H132242   3.081   5.282   2.156  0.4027  1.3526 -0.3096
 3561TIP3    H232243   3.145   5.186   2.058 -0.1856  0.8769 -0.2318
 3562TIP3   OH232244   5.865   3.606   7.031  0.3902  0.1304 -0.8251
 3562TIP3    H132245   5.855   3.680   7.091  0.5116  0.5946 -1.3697
 3562TIP3    H232246   5.783   3.557   7.040  0.2793  0.3715 -0.5139
 3563TIP3   OH232247   1.965   2.352   2.066 -0.3203  0.4348  0.1017
 3563TIP3    H132248   2.026   2.425   2.078  2.5482 -1.3060 -2.2866
 3563TIP3    H232249   1.945   2.323   2.155  2.0960  1.3854  1.0543
 3564TIP3   OH232250   0.415   3.367   7.768 -0.0252 -0.2901 -0.2404
 3564TIP3    H132251   0.419   3.348   7.862  0.8909 -0.5786 -0.3283
 3564TIP3    H232252   0.332   3.413   7.756 -0.1260 -0.2099  0.7163
 3565TIP3   OH232253   3.113   5.147   7.718 -0.8842  0.4634 -0.3094
 3565TIP3    H132254   3.062   5.200   7.779 -1.3542  1.6083 -1.6427
 3565TIP3    H232255   3.184   5.110   7.771 -2.3206 -0.1013  1.2954
 3566TIP3   OH232256   0.280   5.134   1.111  0.3583 -0.4408  0.5197
 3566TIP3    H132257   0.187   5.138   1.092  0.4572  0.0247  0.1178
 3566TIP3    H232258   0.320   5.100   1.031  0.6350  0.2768  0.3440
 3567TIP3   OH232259   7.084   4.522   1.795 -0.5798  0.1443 -0.2606
 3567TIP3    H132260   7.151   4.550   1.732 -0.1853 -0.9078 -0.3284
 3567TIP3    H232261   7.006   4.508   1.742 -0.4151 -0.1573 -0.4244
 3568TIP3   OH232262   1.522   1.508   7.347 -0.2326 -0.1310 -0.0435
 3568TIP3    H132263   1.598   1.542   7.300 -0.7852  0.2296 -0.6917
 3568TIP3    H232264   1.559   1.461   7.422  0.5742  1.3364  0.5081
 3569TIP3   OH232265   2.998   2.660   6.709  0.4470  0.0336 -0.2579
 3569TIP3    H132266   3.014   2.674   6.616 -0.7032 -3.8966 -1.2426
 3569TIP3    H232267   3.080   2.624   6.742  0.3530 -0.0753 -0.1418
 3570TIP3   OH232268   0.849   6.079   2.551 -0.2142 -0.1337  0.5453
 3570TIP3    H132269   0.814   6.011   2.494  0.6102 -0.7869  0.8056
 3570TIP3    H232270   0.811   6.059   2.637  0.5191 -0.6368  0.7540
 3571TIP3   OH232271   6.062   4.206   6.792  0.0712  0.4745 -0.4353
 3571TIP3    H132272   6.072   4.289   6.746 -0.5687 -0.4311 -2.3049
 3571TIP3    H232273   6.150   4.168   6.793  0.3181  1.0511  0.2067
 3572TIP3   OH232274   0.636   5.132   6.799  0.0389  0.0976  0.2474
 3572TIP3    H132275   0.688   5.108   6.876  2.1618  1.7837 -0.5588
 3572TIP3    H232276   0.647   5.059   6.738  2.6149  0.9228 -0.3959
 3573TIP3   OH232277   2.973   2.168   7.715 -0.5773  0.0916  0.5634
 3573TIP3    H132278   3.057   2.214   7.717 -0.2122 -0.5810  0.9708
 3573TIP3    H232279   2.920   2.213   7.781  0.0515 -0.5676  1.5401
 3574TIP3   OH232280   1.777   1.989   6.988  0.0429 -0.2295 -0.7133
 3574TIP3    H132281   1.816   1.954   6.908  0.2502  1.0540 -1.1959
 3574TIP3    H232282   1.684   1.994   6.969  0.0558 -0.1988 -0.7683
 3575TIP3   OH232283   7.054   4.425   0.736  0.3225  0.0038  0.3374
 3575TIP3    H132284   6.973   4.469   0.711 -1.1227 -1.3896  2.2386
 3575TIP3    H232285   7.054   4.344   0.686  1.5037  0.7695 -0.9819
 3576TIP3   OH232286   5.996   3.377   1.987  0.0327  0.2068  0.3365
 3576TIP3    H132287   6.014   3.441   1.918  1.0419  0.4220  0.7731
 3576TIP3    H232288   5.913   3.338   1.962  0.6946 -0.2253 -1.4130
 3577TIP3   OH232289   2.241   2.524   6.304  0.5793 -0.2797  0.8722
 3577TIP3    H132290   2.264   2.611   6.337 -1.6513 -0.7666  4.1200
 3577TIP3    H232291   2.166   2.540   6.247  0.6401 -0.0201  0.8598
 3578TIP3   OH232292   3.732   2.563   7.953  0.0183  0.3438  0.7121
 3578TIP3    H132293   3.751   2.647   7.911 -0.2449  1.2165  2.2252
 3578TIP3    H232294   3.638   2.550   7.937 -0.0004  0.4853  0.6994
 3579TIP3   OH232295   1.199   4.154   0.190 -0.3654  0.0592 -0.3009
 3579TIP3    H132296   1.226   4.076   0.238  2.0554 -0.5571 -2.4616
 3579TIP3    H232297   1.146   4.121   0.118 -3.0342  0.8827  1.1501
 3580TIP3   OH232298   3.203   2.387   2.127  0.2342 -0.5776 -0.5756
 3580TIP3    H132299   3.209   2.300   2.168  0.2936 -0.6723 -0.7826
 3580TIP3    H232300   3.242   2.446   2.191 -0.6533 -0.5690 -0.0428
 3581TIP3   OH232301   2.408   3.627   2.608  0.2495  0.4035  0.0941
 3581TIP3    H132302   2.327   3.614   2.658  0.1123  2.5010  0.5229
 3581TIP3    H232303   2.477   3.627   2.673  0.3092  1.0649  0.0332
 3582TIP3   OH232304   3.810   6.080   1.666 -0.2933  0.1913  0.0959
 3582TIP3    H132305   3.735   6.022   1.677 -0.9993  0.7931 -1.2542
 3582TIP3    H232306   3.798   6.118   1.579  0.5590  1.7623  0.6272
 3583TIP3   OH232307   2.006   5.767   1.161  0.2607 -0.2647  0.0438
 3583TIP3    H132308   1.919   5.729   1.154  0.1987 -0.0966 -0.1382
 3583TIP3    H232309   2.054   5.710   1.221  0.1137 -0.5191 -0.0829
 3584TIP3   OH232310   6.347   4.770   7.161  0.3625 -0.3588  0.1280
 3584TIP3    H132311   6.398   4.690   7.145 -0.5940 -0.5980 -2.1310
 3584TIP3    H232312   6.301   4.786   7.078 -1.1379  1.3483  1.2158
 3585TIP3   OH232313   6.603   2.860   1.190 -0.1001  0.1821 -0.0119
 3585TIP3    H132314   6.518   2.872   1.232 -0.9702 -1.7508 -1.0692
 3585TIP3    H232315   6.630   2.772   1.217  2.5823  1.4620  1.9267
 3586TIP3   OH232316   3.928   6.869   1.705 -0.5434 -0.2117 -0.1002
 3586TIP3    H132317   3.887   6.933   1.647 -0.7658  0.4470  0.7485
 3586TIP3    H232318   3.914   6.905   1.793 -0.6155 -1.4029  0.3941
 3587TIP3   OH232319   5.006   4.373   2.526  0.0683 -0.3262  0.8655
 3587TIP3    H132320   4.982   4.280   2.528 -1.8632  0.1276  0.6474
 3587TIP3    H232321   4.967   4.406   2.445 -0.1669  0.8785  1.4473
 3588TIP3   OH232322   5.136   4.331   2.088  0.1742  0.2321 -0.3510
 3588TIP3    H132323   5.139   4.338   1.993 -1.0235 -1.0829 -0.5044
 3588TIP3    H232324   5.049   4.363   2.112  0.8205  1.5213  0.4293
 3589TIP3   OH232325   6.601   5.671   7.940  0.3537 -0.0881  0.3013
 3589TIP3    H132326   6.645   5.752   7.913 -0.2550  0.7672  1.7404
 3589TIP3    H232327   6.578   5.686   8.031 -2.6286 -0.5907 -0.2567
 3590TIP3   OH232328   6.940   2.249   2.066  0.0513 -0.3544  0.3161
 3590TIP3    H132329   6.908   2.159   2.059  1.3657 -0.8232 -0.0250
 3590TIP3    H232330   7.031   2.245   2.034  0.1780  1.0669  0.4150
 3591TIP3   OH232331   2.173   4.010   7.513 -0.4216 -0.4124  0.0538
 3591TIP3    H132332   2.134   3.934   7.556 -1.2177 -0.7157 -1.1595
 3591TIP3    H232333   2.267   3.997   7.522 -0.5144 -2.0385 -0.9186
 3592TIP3   OH232334   4.725   4.281   6.861 -0.4801  0.1424 -0.4947
 3592TIP3    H132335   4.641   4.288   6.906 -1.2947  1.3488 -2.1084
 3592TIP3    H232336   4.724   4.195   6.821 -0.9301  0.1442 -0.4849
 3593TIP3   OH232337   2.773   0.537   1.452 -0.0930  0.1720 -0.3548
 3593TIP3    H132338   2.743   0.468   1.511  2.3667 -2.7950 -2.2376
 3593TIP3    H232339   2.824   0.596   1.508  1.5681 -2.1374  0.7327
 3594TIP3   OH232340   1.496   0.685   7.424  0.2117 -0.2154 -0.5871
 3594TIP3    H132341   1.522   0.721   7.339  0.5738  0.3895 -0.2347
 3594TIP3    H232342   1.526   0.594   7.422  0.4852 -0.1201 -0.9953
 3595TIP3   OH232343   2.928   6.870   0.893 -0.3542  0.1678  0.0245
 3595TIP3    H132344   2.836   6.863   0.918 -0.4393  1.4726  0.1367
 3595TIP3    H232345   2.953   6.781   0.871 -1.2783 -0.4330  1.2657
 3596TIP3   OH232346   5.549   2.992   1.058 -0.0817  0.2278  0.6570
 3596TIP3    H132347   5.551   3.012   0.965 -1.7903  1.1694  0.7831
 3596TIP3    H232348   5.474   2.935   1.069 -1.5504  2.2510  1.7805
 3597TIP3   OH232349   4.556   5.549   2.277 -0.5747  0.0331  0.1690
 3597TIP3    H132350   4.636   5.499   2.292 -0.2112  0.4095 -0.4474
 3597TIP3    H232351   4.496   5.521   2.346 -0.2958 -1.0741 -0.0197
 3598TIP3   OH232352   6.636   6.515   1.425  0.1577 -0.5532 -0.1299
 3598TIP3    H132353   6.673   6.500   1.338 -1.6472 -1.7995 -0.7428
 3598TIP3    H232354   6.564   6.576   1.411 -1.3105 -2.1265  0.1151
 3599TIP3   OH232355   6.166   6.296   1.885  0.6842  0.0142  0.0874
 3599TIP3    H132356   6.204   6.245   1.956  0.7540  0.9795  0.7578
 3599TIP3    H232357   6.092   6.243   1.854  0.7197 -0.4631  0.8074
 3600TIP3   OH232358   3.894   6.386   7.481  0.1218 -0.1581 -0.1312
 3600TIP3    H132359   3.924   6.296   7.484 -0.0426 -0.1826  1.4743
 3600TIP3    H232360   3.830   6.393   7.552  1.3089  1.6039  0.8442
 3601TIP3   OH232361   2.110   3.133   2.571  0.0651 -0.6384  0.6011
 3601TIP3    H132362   2.064   3.083   2.503  0.2626 -2.1393  1.5193
 3601TIP3    H232363   2.058   3.118   2.650  0.7928 -0.3524  1.1392
 3602TIP3   OH232364   4.363   5.579   1.663 -0.0052  0.3659  0.1267
 3602TIP3    H132365   4.309   5.532   1.599 -0.2821  2.2240 -1.0707
 3602TIP3    H232366   4.299   5.627   1.716  0.3780  1.9110 -0.7547
 3603TIP3   OH232367   3.331   1.767   2.063  0.0849 -0.6674 -0.5344
 3603TIP3    H132368   3.259   1.716   2.102 -1.3601  1.1386 -0.7254
 3603TIP3    H232369   3.387   1.701   2.022 -1.1323 -2.1904  0.1291
 3604TIP3   OH232370   0.048   2.390   0.639  0.5200 -0.7884 -0.4777
 3604TIP3    H132371   0.004   2.425   0.561 -0.9535  1.3857  1.2100
 3604TIP3    H232372  -0.022   2.349   0.690  1.2239 -1.0474  0.2998
 3605TIP3   OH232373   5.606   6.576   0.675 -0.1207 -0.5668 -0.7565
 3605TIP3    H132374   5.657   6.516   0.621 -0.3008 -1.5656  0.1494
 3605TIP3    H232375   5.672   6.625   0.725  0.0248 -2.3550  0.9486
 3606TIP3   OH232376   6.293   0.561   1.570  0.1005  0.2379  0.1438
 3606TIP3    H132377   6.214   0.515   1.542 -0.4429  0.6817  0.9256
 3606TIP3    H232378   6.266   0.652   1.579  0.5971  0.3266  0.7983
 3607TIP3   OH232379   2.976   1.848   1.719  0.6499  0.2238  0.2962
 3607TIP3    H132380   3.056   1.866   1.767  0.1505  1.2329  0.7770
 3607TIP3    H232381   3.004   1.843   1.627  1.1637  1.2910  0.3774
 3608TIP3   OH232382   6.996   4.319   0.028  0.0242 -0.0445 -0.2429
 3608TIP3    H132383   7.050   4.253   0.071 -1.0496 -0.3880  0.6375
 3608TIP3    H232384   7.053   4.358  -0.038  1.5567  0.0761  1.0950
 3609TIP3   OH232385   3.813   0.588   6.773  0.2277  0.3353 -0.2958
 3609TIP3    H132386   3.811   0.663   6.832  1.9005  0.0710  0.1456
 3609TIP3    H232387   3.890   0.603   6.718 -0.2627 -0.3352 -1.1904
 3610TIP3   OH232388   4.886   4.504   1.735 -0.6193  0.6445  0.3387
 3610TIP3    H132389   4.836   4.520   1.815 -1.1772  0.1888  0.0811
 3610TIP3    H232390   4.822   4.471   1.672  0.0664 -0.2758  0.1080
 3611TIP3   OH232391   2.343   2.282   2.176  0.7257  0.1219  0.1554
 3611TIP3    H132392   2.332   2.373   2.203 -1.1006  0.0265 -0.1674
 3611TIP3    H232393   2.381   2.287   2.089 -1.6357  0.7025 -0.9239
 3612TIP3   OH232394   5.836   4.283   7.905 -1.1511  0.1273  0.0251
 3612TIP3    H132395   5.762   4.253   7.957 -1.1963 -1.0742 -0.6823
 3612TIP3    H232396   5.910   4.285   7.967 -1.9724  2.6556  1.0728
 3613TIP3   OH232397   3.106   2.887   1.536 -1.0783  0.7687 -0.1087
 3613TIP3    H132398   3.084   2.794   1.538  2.4977 -0.2414  0.5813
 3613TIP3    H232399   3.107   2.910   1.444  1.3524 -0.9717 -0.6374
 3614TIP3   OH232400   3.119   1.004   2.087 -0.5981 -0.2757  0.4890
 3614TIP3    H132401   3.089   1.042   2.004 -0.1882  0.4058  0.6427
 3614TIP3    H232402   3.144   1.079   2.140  1.2131 -0.7804  0.4284
 3615TIP3   OH232403   1.149   0.845   0.494 -0.1681  0.1676 -0.1725
 3615TIP3    H132404   1.191   0.867   0.411  1.4236  0.3001  0.6446
 3615TIP3    H232405   1.209   0.876   0.561 -1.7576  0.7456  1.0719
 3616TIP3   OH232406   2.685   6.993   1.599 -0.5131 -0.0524 -0.5639
 3616TIP3    H132407   2.744   6.919   1.582 -0.2412  0.1087 -0.3422
 3616TIP3    H232408   2.597   6.956   1.591 -0.3802 -0.4381 -0.2780
 3617TIP3   OH232409   2.556   1.800   7.454  0.8823 -0.1751  0.7451
 3617TIP3    H132410   2.464   1.828   7.452  0.5786 -1.0104  1.6054
 3617TIP3    H232411   2.606   1.877   7.429 -0.0473  0.3741  0.5377
 3618TIP3   OH232412   3.121   2.166   0.341 -0.0755 -0.3720  0.3266
 3618TIP3    H132413   3.042   2.179   0.289  0.0311 -1.5272 -0.1599
 3618TIP3    H232414   3.181   2.234   0.311  0.6786 -2.1276 -2.4945
 3619TIP3   OH232415   1.121   4.927   0.143 -0.1731 -0.8224  0.3513
 3619TIP3    H132416   1.120   4.993   0.074 -2.8154 -0.9481  0.1728
 3619TIP3    H232417   1.125   4.977   0.224  0.8519 -0.5968  0.1769
 3620TIP3   OH232418   6.027   1.872   2.868 -0.2003 -0.8030 -0.3680
 3620TIP3    H132419   5.964   1.885   2.939 -0.3213  0.6150 -0.6988
 3620TIP3    H232420   5.976   1.830   2.798  0.1878 -3.2527  0.7445
 3621TIP3   OH232421   5.408   6.256   0.044  0.0508 -0.7671 -0.4975
 3621TIP3    H132422   5.430   6.164   0.025 -0.3595 -0.7350 -1.1504
 3621TIP3    H232423   5.468   6.307  -0.010  1.5010 -0.5969  1.1807
 3622TIP3   OH232424   3.229   6.160   0.737 -0.0172 -0.5279  0.1899
 3622TIP3    H132425   3.311   6.188   0.698 -0.9316  0.4848 -1.1039
 3622TIP3    H232426   3.185   6.109   0.668 -1.7185  1.4015 -0.2690
 3623TIP3   OH232427   5.056   1.896   2.864  0.5775  0.5520 -0.3328
 3623TIP3    H132428   5.116   1.910   2.937  2.3239 -0.4434 -1.5073
 3623TIP3    H232429   5.109   1.912   2.786 -0.4434 -1.1712 -1.4346
 3624TIP3   OH232430   5.514   0.192   1.613  0.2972 -0.3351  0.1992
 3624TIP3    H132431   5.432   0.142   1.621  1.4046 -2.2134  0.5806
 3624TIP3    H232432   5.531   0.224   1.701 -0.2142  0.4059  0.0364
 3625TIP3   OH232433   0.261   5.176   2.433 -0.4737  0.2786 -0.1322
 3625TIP3    H132434   0.259   5.167   2.338 -0.7794  2.3534 -0.3508
 3625TIP3    H232435   0.336   5.122   2.460 -0.2688 -0.1915 -1.5506
 3626TIP3   OH232436   3.412   5.113   2.835  0.6993  0.3077 -0.5589
 3626TIP3    H132437   3.495   5.073   2.809  0.0405  0.1388 -2.5550
 3626TIP3    H232438   3.415   5.201   2.800  0.3961  0.6072  0.1481
 3627TIP3   OH232439   0.212   0.715   0.203 -0.4128 -0.4908  0.4906
 3627TIP3    H132440   0.184   0.691   0.115 -2.5946 -0.5474  1.1570
 3627TIP3    H232441   0.133   0.747   0.246  0.5631 -0.6504  2.5102
 3628TIP3   OH232442   1.388   0.871   2.448  0.6299 -0.2751  0.3373
 3628TIP3    H132443   1.297   0.847   2.429  0.7000 -1.5567  1.4589
 3628TIP3    H232444   1.393   0.964   2.428 -0.4228 -0.5807 -1.5716
 3629TIP3   OH232445   5.639   3.697   7.430 -0.0602 -0.2908  0.6689
 3629TIP3    H132446   5.683   3.745   7.499 -1.6969  0.4969  1.2263
 3629TIP3    H232447   5.615   3.613   7.471  0.5672 -0.5735  0.4741
 3630TIP3   OH232448   2.727   6.776   7.162 -0.0527  0.0448 -0.1926
 3630TIP3    H132449   2.789   6.818   7.221 -0.8112  0.2820  0.4468
 3630TIP3    H232450   2.647   6.767   7.214 -0.8365  0.5571 -1.2850
 3631TIP3   OH232451   1.320   2.334   0.227 -0.2689  0.3011 -0.4698
 3631TIP3    H132452   1.330   2.249   0.184 -0.8158 -0.0768  0.1258
 3631TIP3    H232453   1.239   2.326   0.277  1.2655 -0.0164  2.1767
 3632TIP3   OH232454   0.644   4.846   1.707 -0.5327 -0.3077 -0.2836
 3632TIP3    H132455   0.676   4.848   1.797  2.3771 -0.4423 -1.2005
 3632TIP3    H232456   0.682   4.923   1.666 -2.5323  0.2344 -1.2285
 3633TIP3   OH232457   5.376   3.509   6.967  0.5819  0.3312  0.1190
 3633TIP3    H132458   5.313   3.539   6.901 -0.0876  0.6979  0.9054
 3633TIP3    H232459   5.362   3.415   6.973  1.1068  0.1961 -0.7357
 3634TIP3   OH232460   0.743   4.943   1.108  0.7421  0.6099 -0.0772
 3634TIP3    H132461   0.668   4.952   1.167  0.7120  1.7093 -0.2631
 3634TIP3    H232462   0.750   5.028   1.065  1.8668  0.3997 -0.3391
 3635TIP3   OH232463   3.205   1.240   0.586  0.3854  0.2440  0.5268
 3635TIP3    H132464   3.168   1.322   0.619  0.1229  0.5613 -0.5171
 3635TIP3    H232465   3.130   1.191   0.553  0.7442  0.4521 -0.6700
 3636TIP3   OH232466   7.125   2.565   1.967 -0.1135 -0.0807 -0.3005
 3636TIP3    H132467   7.105   2.528   1.881 -1.8881  2.1141 -0.9468
 3636TIP3    H232468   7.046   2.547   2.019  0.8924 -1.2740  0.8906
 3637TIP3   OH232469   6.046   4.486   6.693 -0.0061 -0.2065 -0.3038
 3637TIP3    H132470   6.107   4.553   6.661  1.1859 -0.6205  1.0318
 3637TIP3    H232471   5.981   4.478   6.623  0.2490  1.7845 -0.8388
 3638TIP3   OH232472   4.290   1.395   7.823 -0.0259  0.2654 -0.1340
 3638TIP3    H132473   4.310   1.308   7.859 -1.9665  0.3501  1.3307
 3638TIP3    H232474   4.234   1.378   7.748 -0.9159  0.2300  0.5196
 3639TIP3   OH232475   6.236   5.780   6.715  0.5210 -0.2449 -0.2897
 3639TIP3    H132476   6.309   5.752   6.770  0.5613  1.4972  0.6296
 3639TIP3    H232477   6.278   5.822   6.639  0.5313  1.5329  0.6561
 3640TIP3   OH232478   3.669   3.783   0.933 -0.2456 -0.4037 -0.5081
 3640TIP3    H132479   3.670   3.738   0.849 -0.8361  1.0090 -1.3144
 3640TIP3    H232480   3.679   3.876   0.910  2.4250 -0.1767  1.1419
 3641TIP3   OH232481   3.428   7.111   0.824  0.0568  0.7577 -0.6657
 3641TIP3    H132482   3.361   7.060   0.871 -0.9331  1.2597 -1.4823
 3641TIP3    H232483   3.399   7.109   0.733  2.7980 -1.6069 -1.6332
 3642TIP3   OH232484   6.603   0.457   0.601 -0.1317 -0.0363  0.2501
 3642TIP3    H132485   6.693   0.488   0.602 -0.6658  1.5857  0.0901
 3642TIP3    H232486   6.552   0.527   0.642 -1.5253 -0.2222 -1.0675
 3643TIP3   OH232487   3.895   6.485   7.221  0.6033 -0.2374  0.1382
 3643TIP3    H132488   3.855   6.404   7.190  0.6121  0.1998 -1.0684
 3643TIP3    H232489   3.900   6.475   7.316 -1.0263 -0.9141  0.1798
 3644TIP3   OH232490   7.090   1.817   2.134 -0.6943 -0.0276 -0.6876
 3644TIP3    H132491   7.173   1.791   2.095  1.1429  3.2994  0.6636
 3644TIP3    H232492   7.044   1.734   2.148  2.4313 -2.0448 -1.3138
 3645TIP3   OH232493   4.045   0.338   0.880  0.1897  0.3542  0.2592
 3645TIP3    H132494   4.072   0.250   0.854 -0.0157  0.3299  0.1197
 3645TIP3    H232495   4.127   0.386   0.893  0.3060  0.4719 -0.8085
 3646TIP3   OH232496   4.074   1.760   0.962  0.6372 -0.0237 -0.2099
 3646TIP3    H132497   4.000   1.704   0.935  1.8308 -1.6645 -0.2344
 3646TIP3    H232498   4.110   1.716   1.038  3.6831 -1.2620 -2.1841
 3647TIP3   OH232499   2.717   1.043   0.654 -0.6875 -0.2267 -0.4747
 3647TIP3    H132500   2.654   1.058   0.583 -1.4430  0.1216  0.2508
 3647TIP3    H232501   2.758   1.129   0.668 -0.4451 -0.3250 -0.5691
 3648TIP3   OH232502   4.606   6.109   6.830  0.1405 -0.0739 -0.2009
 3648TIP3    H132503   4.697   6.100   6.800  0.7812 -2.3028  2.0492
 3648TIP3    H232504   4.569   6.021   6.822 -0.9093  0.1671  1.4956
 3649TIP3   OH232505   3.654   5.761   6.991  0.0091  0.4118 -0.1076
 3649TIP3    H132506   3.750   5.759   6.995  0.1598  0.2241 -2.4255
 3649TIP3    H232507   3.634   5.815   6.915 -1.5773 -2.5566 -2.0020
 3650TIP3   OH232508   6.999   1.659   0.596 -0.1226  0.2666  0.3447
 3650TIP3    H132509   7.062   1.651   0.524 -1.1997  0.3324 -0.6432
 3650TIP3    H232510   7.051   1.688   0.671  0.6583  2.6936 -1.0338
 3651TIP3   OH232511   3.493   3.431   7.974 -0.2264 -0.4147  0.1327
 3651TIP3    H132512   3.414   3.455   8.023  0.2452  2.4291 -0.3270
 3651TIP3    H232513   3.562   3.427   8.041  0.3612  3.1889 -0.0506
 3652TIP3   OH232514   2.864   4.407   7.850  0.1364  0.7932  0.2208
 3652TIP3    H132515   2.875   4.498   7.823 -0.7751  0.9971  0.4960
 3652TIP3    H232516   2.943   4.363   7.820  1.8396  2.2056  2.3425
 3653TIP3   OH232517   0.725   6.387   2.204 -0.4034 -0.4632 -0.2638
 3653TIP3    H132518   0.812   6.347   2.207  0.6035  1.5886 -0.3392
 3653TIP3    H232519   0.730   6.459   2.266 -2.2015 -0.5412  0.0110
 3654TIP3   OH232520   0.534   5.992   1.867 -0.6167 -0.2714 -0.2153
 3654TIP3    H132521   0.510   5.945   1.787  0.5939  0.0962 -0.8288
 3654TIP3    H232522   0.494   6.078   1.858 -1.2702 -0.5430  0.0300
 3655TIP3   OH232523   0.987   5.882   0.121  0.0444 -0.1376 -0.2379
 3655TIP3    H132524   0.920   5.930   0.169  1.4224  0.7994  0.7908
 3655TIP3    H232525   0.954   5.880   0.031 -1.2353  0.5132  0.1821
 3656TIP3   OH232526   3.962   5.260   2.837 -0.5438 -0.4768  0.0610
 3656TIP3    H132527   3.965   5.355   2.822 -0.2027 -0.5847 -0.5715
 3656TIP3    H232528   4.037   5.243   2.895 -1.7109 -0.0991  1.7547
 3657TIP3   OH232529   3.660   2.108   7.583 -0.5211  0.0549 -0.2893
 3657TIP3    H132530   3.725   2.170   7.549 -2.2670  0.6977 -2.6707
 3657TIP3    H232531   3.658   2.126   7.678  2.1503  0.5259 -0.2277
 3658TIP3   OH232532   3.474   6.341   7.820 -0.2337 -0.4019 -0.1365
 3658TIP3    H132533   3.437   6.285   7.888 -0.0827 -0.6905 -0.2861
 3658TIP3    H232534   3.463   6.430   7.853 -3.6501 -0.2150 -1.3992
 3659TIP3   OH232535   4.865   5.039   7.760 -0.4083  0.7172  0.4853
 3659TIP3    H132536   4.865   5.117   7.704 -2.1989 -0.0969 -0.7432
 3659TIP3    H232537   4.773   5.026   7.783 -0.0825 -0.8015  1.0309
 3660TIP3   OH232538   6.625   1.943   7.486  0.0093  0.5838  0.1510
 3660TIP3    H132539   6.682   2.020   7.494 -0.1798  0.7069  0.3275
 3660TIP3    H232540   6.635   1.915   7.395  0.0264  0.8634  0.0656
 3661TIP3   OH232541   3.258   0.002   0.299  0.2327 -0.9519 -0.0013
 3661TIP3    H132542   3.288   0.066   0.234  0.1521 -0.0226  0.8543
 3661TIP3    H232543   3.280  -0.083   0.260 -2.1676 -0.5978 -2.4541
 3662TIP3   OH232544   0.515   3.323   6.819  0.3119  0.0265 -0.0844
 3662TIP3    H132545   0.577   3.252   6.836  0.0642  0.2149  1.7985
 3662TIP3    H232546   0.434   3.277   6.795 -0.1890 -0.4306  2.2792
 3663TIP3   OH232547   3.084   2.647   1.195  0.3060 -0.5794 -0.1253
 3663TIP3    H132548   3.055   2.663   1.285 -0.2498  0.7332 -0.5134
 3663TIP3    H232549   3.176   2.674   1.195  0.6483 -1.7045  0.3247
 3664TIP3   OH232550   1.167   1.607   1.527 -0.6474  0.2977 -0.2403
 3664TIP3    H132551   1.082   1.598   1.571 -0.8789 -0.1485 -0.7721
 3664TIP3    H232552   1.231   1.588   1.596 -0.8234  3.3369  0.9427
 3665TIP3   OH232553   5.840   6.622   4.660 -0.0397 -0.0997  0.3284
 3665TIP3    H132554   5.790   6.682   4.606  0.8957 -0.0162 -0.4820
 3665TIP3    H232555   5.880   6.561   4.597 -0.0789 -0.8816  1.0435
 3666TIP3   OH232556   3.943   3.138   7.711  0.6213  0.0734 -0.1618
 3666TIP3    H132557   3.999   3.202   7.755  1.0181  1.1336 -2.0929
 3666TIP3    H232558   3.857   3.149   7.752  1.0717  0.7014  0.6386
 3667TIP3   OH232559   5.281   3.383   2.614  0.3828  0.2845 -0.2029
 3667TIP3    H132560   5.279   3.474   2.643 -1.6373 -0.2447  1.5834
 3667TIP3    H232561   5.213   3.377   2.547 -2.4286 -0.6379  2.5147
 3668TIP3   OH232562   5.296   4.810   0.206  0.0567  0.5432 -0.8310
 3668TIP3    H132563   5.246   4.891   0.206  0.1221  0.7521 -4.4511
 3668TIP3    H232564   5.239   4.746   0.249 -0.0129  2.3715  2.0273
 3669TIP3   OH232565   6.620   5.539   7.412  0.1743  0.0346  0.6748
 3669TIP3    H132566   6.540   5.590   7.398 -0.4474 -1.0582  0.1890
 3669TIP3    H232567   6.671   5.552   7.332  0.1857  0.1988  0.7087
 3670TIP3   OH232568   2.590   5.002   0.534  0.0581 -0.7103 -0.0678
 3670TIP3    H132569   2.497   4.988   0.514  0.3379 -0.5012 -1.6752
 3670TIP3    H232570   2.614   4.927   0.589 -1.1729 -0.4831  0.8248
 3671TIP3   OH232571   4.029   4.646   1.221 -0.3070 -0.2294  0.0527
 3671TIP3    H132572   3.942   4.606   1.222 -0.7420  0.6320  2.1949
 3671TIP3    H232573   4.016   4.732   1.261  1.6684 -0.4328  1.2532
 3672TIP3   OH232574   1.188   5.031   1.202  0.3545  0.0263  0.7614
 3672TIP3    H132575   1.193   5.114   1.155 -0.3250  0.3670  1.2798
 3672TIP3    H232576   1.126   4.978   1.151 -1.7530  1.0125  2.1388
 3673TIP3   OH232577   6.212   4.225   2.185  0.2740 -0.4141 -0.0264
 3673TIP3    H132578   6.137   4.170   2.210  1.8771 -3.0102 -0.5911
 3673TIP3    H232579   6.195   4.248   2.094  0.5993 -1.8394 -0.4664
 3674TIP3   OH232580   1.901   6.394   6.521  0.2132  0.0853 -0.6450
 3674TIP3    H132581   1.838   6.374   6.452 -0.0122  0.7236 -0.6351
 3674TIP3    H232582   1.973   6.439   6.475 -1.2527  3.2264 -0.1293
 3675TIP3   OH232583   5.414   0.309   7.787  0.5740 -0.2035  0.0276
 3675TIP3    H132584   5.431   0.330   7.879  1.5553 -2.4135  0.4088
 3675TIP3    H232585   5.459   0.378   7.738  0.2295  0.8784  1.1748
 3676TIP3   OH232586   2.233   1.190   6.612 -0.1289  0.5154 -0.4277
 3676TIP3    H132587   2.249   1.123   6.679 -0.1368  1.0616  0.1184
 3676TIP3    H232588   2.154   1.160   6.567 -0.3516  0.3570  0.0634
 3677TIP3   OH232589   6.156   1.335   0.593 -0.8241 -0.0325  0.3491
 3677TIP3    H132590   6.172   1.391   0.517 -0.5677 -2.3721 -1.4436
 3677TIP3    H232591   6.098   1.387   0.649 -0.4811  2.0540 -1.0925
 3678TIP3   OH232592   0.592   5.346   2.779  0.0856 -0.1478  0.1960
 3678TIP3    H132593   0.623   5.436   2.787 -0.4664 -0.0595  1.8216
 3678TIP3    H232594   0.602   5.309   2.868 -1.2814 -1.1402 -0.0277
 3679TIP3   OH232595   1.014   4.054   0.025  0.6295 -0.0755 -0.4602
 3679TIP3    H132596   1.037   3.994  -0.045  0.9056  0.1076 -0.5280
 3679TIP3    H232597   0.924   4.082   0.004  0.2615 -0.9531 -0.0754
 3680TIP3   OH232598   1.379   6.610   0.962 -0.0619 -0.1236  0.4499
 3680TIP3    H132599   1.459   6.642   1.002  0.9718 -1.4374 -0.4792
 3680TIP3    H232600   1.318   6.600   1.035  0.7537  0.4693  1.2339
 3681TIP3   OH232601   4.023   5.249   6.850  0.5004 -0.7952 -0.1585
 3681TIP3    H132602   4.005   5.168   6.897  0.7283 -0.2271  0.9465
 3681TIP3    H232603   4.083   5.224   6.780  1.0637 -1.4891  0.5515
 3682TIP3   OH232604   6.620   4.092   1.676 -0.0343 -0.0887 -0.0386
 3682TIP3    H132605   6.609   4.185   1.658 -1.0664 -0.2597 -0.3229
 3682TIP3    H232606   6.675   4.090   1.755  0.3422  0.7431 -0.2636
 3683TIP3   OH232607   5.338   5.777   0.855 -0.0623 -1.1848  0.3822
 3683TIP3    H132608   5.269   5.833   0.889 -0.0700 -1.3833  0.7001
 3683TIP3    H232609   5.419   5.820   0.881 -0.0307  0.0166 -1.5628
 3684TIP3   OH232610   6.389   5.388   7.138  0.5836 -0.3865 -0.3681
 3684TIP3    H132611   6.411   5.316   7.198 -1.8207 -1.1767 -0.3463
 3684TIP3    H232612   6.302   5.367   7.106  0.4300  1.7829 -1.5455
 3685TIP3   OH232613   4.730   1.848   7.853 -0.4026 -0.6616  0.0976
 3685TIP3    H132614   4.697   1.770   7.808 -1.9927 -0.1723  0.3553
 3685TIP3    H232615   4.752   1.909   7.783 -1.0452 -0.6077 -0.0570
 3686TIP3   OH232616   2.931   2.002   0.011 -0.3961  0.5712  0.3812
 3686TIP3    H132617   2.942   1.968   0.099  0.2715  1.4312  0.6432
 3686TIP3    H232618   2.980   2.084   0.010  1.5212 -0.5094 -1.4559
 3687TIP3   OH232619   1.623   5.416   0.492  0.5757 -0.0341 -0.7491
 3687TIP3    H132620   1.716   5.438   0.492  1.6946 -3.9235  0.8716
 3687TIP3    H232621   1.591   5.442   0.578  0.7843 -0.7262 -0.4555
 3688TIP3   OH232622   2.507   6.181   7.623 -0.3872  0.4024  0.2390
 3688TIP3    H132623   2.525   6.095   7.584 -0.1864  0.3760  0.3857
 3688TIP3    H232624   2.582   6.197   7.680  1.1430  2.0495 -2.0515
 3689TIP3   OH232625   5.832   2.059   7.400 -0.6031  0.2050 -0.2729
 3689TIP3    H132626   5.752   2.063   7.349  0.4348  0.6963 -1.9410
 3689TIP3    H232627   5.902   2.052   7.334  0.8265  1.3332  1.0632
 3690TIP3   OH232628   1.775   5.646   1.184 -0.7651  0.0918 -0.8960
 3690TIP3    H132629   1.684   5.675   1.183 -1.0804 -0.8067 -0.0444
 3690TIP3    H232630   1.775   5.568   1.239  0.8420  1.1221  0.6755
 3691TIP3   OH232631   6.602   3.810   7.188  0.2032 -0.1836  0.5219
 3691TIP3    H132632   6.673   3.848   7.136  0.8480 -1.7531  0.2008
 3691TIP3    H232633   6.637   3.803   7.277  1.3246 -2.9409 -0.0475
 3692TIP3   OH232634   5.182   5.942   2.608  0.1290  0.2240 -0.1721
 3692TIP3    H132635   5.153   5.936   2.698 -0.3088 -1.4729 -0.4039
 3692TIP3    H232636   5.222   6.029   2.602  1.2308 -0.0801  1.9509
 3693TIP3   OH232637   2.279   1.870   7.460 -0.4960  0.0224  0.0214
 3693TIP3    H132638   2.191   1.890   7.427 -0.5117 -0.0078  0.0444
 3693TIP3    H232639   2.330   1.950   7.442  0.5706 -1.3030 -3.7187
 3694TIP3   OH232640   7.112   1.425   7.010 -0.3830 -0.0667  0.4896
 3694TIP3    H132641   7.161   1.505   7.031 -0.2510  0.2545 -0.9134
 3694TIP3    H232642   7.068   1.402   7.091 -1.3833  2.1338  0.6560
 3695TIP3   OH232643   0.760   2.113   1.340 -0.2350  0.6110 -0.2274
 3695TIP3    H132644   0.815   2.073   1.407 -0.9645 -0.4238 -0.2215
 3695TIP3    H232645   0.800   2.198   1.324  1.1887 -0.0010 -0.0326
 3696TIP3   OH232646   1.872   6.426   0.632  0.2062 -0.4069  0.5659
 3696TIP3    H132647   1.806   6.369   0.592  0.9492  0.8670 -2.8105
 3696TIP3    H232648   1.953   6.375   0.628 -0.1075 -1.2596  3.0442
 3697TIP3   OH232649   6.280   3.029   7.051  0.3100  0.0164 -0.2772
 3697TIP3    H132650   6.351   3.021   6.987  1.5797  0.3443  1.0505
 3697TIP3    H232651   6.323   3.024   7.136 -1.3272 -0.2566  0.5740
 3698TIP3   OH232652   6.346   6.167   0.648  0.0251  0.0965  0.0344
 3698TIP3    H132653   6.365   6.078   0.678  1.0423  0.4385  0.4343
 3698TIP3    H232654   6.277   6.198   0.707 -1.3429 -0.9015 -0.9788
 3699TIP3   OH232655   0.478   0.325   0.379 -0.0522  0.1312  0.1118
 3699TIP3    H132656   0.491   0.338   0.473 -0.1124  0.0872  0.1258
 3699TIP3    H232657   0.413   0.256   0.373 -2.4147  2.2092  0.0700
 3700TIP3   OH232658   5.077   3.291   6.369 -0.1441 -0.2186 -0.7656
 3700TIP3    H132659   5.121   3.206   6.357 -0.8238 -0.3530 -2.5408
 3700TIP3    H232660   5.110   3.323   6.453  2.0118 -1.1216 -1.1990
 3701TIP3   OH232661   6.060   3.317   1.156 -0.1525  0.1422  0.3916
 3701TIP3    H132662   6.131   3.368   1.117  0.6883 -1.6298 -0.5218
 3701TIP3    H232663   5.984   3.375   1.153  0.8287  1.4492 -0.2622
 3702TIP3   OH232664   2.533   5.135   7.932 -0.1181  0.1192  0.0127
 3702TIP3    H132665   2.462   5.134   7.995 -2.5596 -0.8698 -2.5604
 3702TIP3    H232666   2.543   5.227   7.907 -0.3866  0.2747  0.4713
 3703TIP3   OH232667   3.683   2.171   2.168  0.5428 -0.7742 -0.3339
 3703TIP3    H132668   3.714   2.188   2.257 -1.0858  0.4692  0.0411
 3703TIP3    H232669   3.593   2.140   2.180 -0.2044  0.7735 -1.5666
 3704TIP3   OH232670   3.776   4.692   0.065 -0.1288 -0.2274 -0.1936
 3704TIP3    H132671   3.709   4.633   0.099 -0.0460 -0.8859 -1.1556
 3704TIP3    H232672   3.752   4.778   0.099 -0.0834 -0.8321  1.4886
 3705TIP3   OH232673   0.604   1.060   1.424 -0.0626 -0.0171 -0.3376
 3705TIP3    H132674   0.557   1.134   1.386  0.6672 -0.4688 -2.2233
 3705TIP3    H232675   0.545   1.024   1.490 -0.2650  2.4841  0.9507
 3706TIP3   OH232676   4.723   1.779   7.456  0.7232 -1.1323 -0.6207
 3706TIP3    H132677   4.801   1.786   7.401  0.8527  0.5147 -0.2872
 3706TIP3    H232678   4.650   1.803   7.398  0.6750 -0.9919 -0.5039
 3707TIP3   OH232679   3.873   5.766   6.677 -0.3569 -0.2869  0.5148
 3707TIP3    H132680   3.900   5.846   6.631  0.6640 -0.3191  1.0172
 3707TIP3    H232681   3.905   5.695   6.621 -0.5201 -0.3398  0.4880
 3708TIP3   OH232682   3.680   6.145   1.397 -0.0069  0.3215  0.1862
 3708TIP3    H132683   3.719   6.198   1.326 -1.8663  1.1141 -0.3103
 3708TIP3    H232684   3.628   6.079   1.351  1.9426 -1.7779  0.8160
 3709TIP3   OH232685   4.860   0.283   7.431  0.2414 -0.1286 -0.1212
 3709TIP3    H132686   4.842   0.376   7.413 -2.4256 -0.8474 -1.7876
 3709TIP3    H232687   4.798   0.259   7.500 -0.4933 -1.0970 -1.0828
 3710TIP3   OH232688   6.966   6.179   0.531 -0.2201 -0.0978 -0.2573
 3710TIP3    H132689   7.016   6.211   0.455 -2.4774 -1.4338 -2.4676
 3710TIP3    H232690   6.915   6.105   0.497 -2.9146  0.5249  2.0307
 3711TIP3   OH232691   5.731   0.516   1.551 -0.4605 -0.3637  0.0787
 3711TIP3    H132692   5.635   0.511   1.555 -0.5743  0.0580 -1.3778
 3711TIP3    H232693   5.761   0.438   1.598 -1.5090 -0.3615  0.7866
 3712TIP3   OH232694   6.022   7.103   5.177  0.3583 -0.0812 -0.0322
 3712TIP3    H132695   5.975   7.185   5.188 -2.8074 -1.5547 -1.4213
 3712TIP3    H232696   6.060   7.109   5.089 -0.7572 -0.4453 -0.5620
 3713TIP3   OH232697   6.720   1.271   1.987  0.2431 -0.5447 -0.1552
 3713TIP3    H132698   6.672   1.352   2.002  1.4217  0.1646 -0.1093
 3713TIP3    H232699   6.722   1.229   2.073  0.3650 -0.2065  0.0091
 3714TIP3   OH232700   2.314   4.518   6.751  0.0046  0.1495  0.2619
 3714TIP3    H132701   2.309   4.607   6.785  0.5622  0.0694  0.5628
 3714TIP3    H232702   2.400   4.514   6.708  0.2287 -0.4191  0.7582
 3715TIP3   OH232703   3.621   0.011   7.772 -0.5301  0.6953  0.7764
 3715TIP3    H132704   3.690  -0.020   7.713 -0.3815 -0.1471  1.3703
 3715TIP3    H232705   3.546  -0.047   7.754 -0.4652  0.3926  1.4404
 3716TIP3   OH232706   5.894   2.808   2.615 -0.5936 -0.0417 -0.6920
 3716TIP3    H132707   5.963   2.854   2.663 -2.7348  1.5356  1.1000
 3716TIP3    H232708   5.876   2.730   2.668 -1.5484  0.6243 -0.0083
 3717TIP3   OH232709   1.860   3.659   0.230  0.0047 -0.6158 -0.1250
 3717TIP3    H132710   1.867   3.700   0.317  0.2608  0.1696 -0.5052
 3717TIP3    H232711   1.947   3.623   0.214 -0.2972 -1.5664  0.3266
 3718TIP3   OH232712   6.431   4.541   7.507  0.0703  0.2216 -0.1852
 3718TIP3    H132713   6.402   4.509   7.592  1.4108  0.0223  0.2237
 3718TIP3    H232714   6.444   4.635   7.521  0.0637  0.2284 -0.2276
 3719TIP3   OH232715   0.407   1.013   0.976 -0.0700  0.6407  0.0192
 3719TIP3    H132716   0.459   0.988   0.899 -0.2593  0.3853 -0.0247
 3719TIP3    H232717   0.317   0.999   0.949 -0.0904 -0.8522  0.7843
 3720TIP3   OH232718   2.039   5.288   2.510  0.2138 -0.5333 -0.4979
 3720TIP3    H132719   2.027   5.193   2.522 -0.3693 -0.8337 -2.9525
 3720TIP3    H232720   1.991   5.308   2.429 -1.5258  2.2706  1.0586
 3721TIP3   OH232721   1.741   1.181   1.093  0.0436 -0.1450 -0.2514
 3721TIP3    H132722   1.666   1.222   1.048 -0.0432 -0.8992 -0.8109
 3721TIP3    H232723   1.796   1.149   1.023  0.8109  0.2274  0.1680
 3722TIP3   OH232724   3.123   4.623   2.735 -0.4184  0.2713  0.0913
 3722TIP3    H132725   3.059   4.650   2.802 -0.1121  0.4315  0.3210
 3722TIP3    H232726   3.196   4.684   2.746 -1.3676  1.8769 -1.9934
 3723TIP3   OH232727   3.109   4.386   6.690  1.1266 -0.1219  0.1545
 3723TIP3    H132728   3.145   4.417   6.773  0.5906 -0.7446  0.6294
 3723TIP3    H232729   3.155   4.304   6.673 -0.4330 -1.2468  1.0766
 3724TIP3   OH232730   4.472   5.406   6.976 -0.0994 -0.3379  0.3779
 3724TIP3    H132731   4.379   5.414   6.953  0.1997 -1.1637 -1.3430
 3724TIP3    H232732   4.509   5.492   6.955 -0.7862  0.6631  2.9782
 3725TIP3   OH232733   3.794   2.467   2.319 -0.7348  0.5335 -0.2977
 3725TIP3    H132734   3.718   2.437   2.369  0.6378  0.4242  1.8738
 3725TIP3    H232735   3.854   2.502   2.386  2.6529 -2.6285 -1.3798
 3726TIP3   OH232736   3.947   6.943   2.338 -0.4700 -0.4729 -0.7419
 3726TIP3    H132737   3.930   6.985   2.422 -1.4613 -0.2811 -1.0231
 3726TIP3    H232738   4.003   6.869   2.359  0.5165  0.4191 -0.1116
 3727TIP3   OH232739   2.951   6.199   7.175  0.0935  0.0574 -0.1849
 3727TIP3    H132740   3.041   6.221   7.199  0.6988 -1.0273 -1.3522
 3727TIP3    H232741   2.936   6.114   7.215  0.3761 -0.7824 -1.8044
 3728TIP3   OH232742   2.082   3.333   0.654  0.4191  0.2079 -0.2550
 3728TIP3    H132743   2.047   3.342   0.743  2.3622  4.0287  0.3353
 3728TIP3    H232744   2.160   3.278   0.665 -1.4353 -2.7261 -0.4683
 3729TIP3   OH232745   3.701   3.374   0.139 -0.7268 -0.2922  0.2273
 3729TIP3    H132746   3.712   3.350   0.231 -2.0694  1.5742  0.9340
 3729TIP3    H232747   3.791   3.387   0.107 -0.2017 -1.6972  1.0147
 3730TIP3   OH232748   2.406   2.893   7.688  0.3986 -0.1082 -0.5693
 3730TIP3    H132749   2.393   2.801   7.667  1.0048 -0.7286  1.5082
 3730TIP3    H232750   2.318   2.927   7.704  0.3003 -0.8882  0.6697
 3731TIP3   OH232751   7.022   5.581   0.333 -0.0722  0.3980  0.4079
 3731TIP3    H132752   7.022   5.652   0.397 -3.1723  1.2849 -0.4178
 3731TIP3    H232753   6.945   5.597   0.279  1.4237 -1.3078 -2.4651
 3732TIP3   OH232754   0.954   2.451   7.292  0.3798 -0.0307 -0.6516
 3732TIP3    H132755   0.880   2.469   7.234 -0.7059 -0.7285  0.4481
 3732TIP3    H232756   1.026   2.427   7.233  0.0034  1.5056 -1.7853
 3733TIP3   OH232757   1.882   3.830   8.010 -0.2899  0.3717  0.6389
 3733TIP3    H132758   1.936   3.909   7.998 -0.9594  0.9924  1.5966
 3733TIP3    H232759   1.932   3.776   8.070  0.9009 -0.6714 -1.1934
 3734TIP3   OH232760   3.615   3.100   1.929  0.2867  0.2550  0.3869
 3734TIP3    H132761   3.657   3.157   1.865 -0.1655 -1.4153 -1.4984
 3734TIP3    H232762   3.667   3.020   1.928 -1.1695 -0.7264  0.2613
 3735TIP3   OH232763   0.256   0.876   6.981  1.3470  0.3899  0.3672
 3735TIP3    H132764   0.331   0.904   7.035  1.5570 -0.0559  0.3142
 3735TIP3    H232765   0.180   0.888   7.038  1.5167  0.3683  0.6040
 3736TIP3   OH232766   2.649   4.820   1.563  0.0148 -0.2570 -0.5228
 3736TIP3    H132767   2.684   4.804   1.650 -0.5207 -0.6330 -0.3732
 3736TIP3    H232768   2.555   4.836   1.577  0.3327  2.2584 -0.7277
 3737TIP3   OH232769   6.260   5.007   1.722 -0.0948  0.3650  0.4512
 3737TIP3    H132770   6.175   5.051   1.725  0.1509  1.4579 -3.2561
 3737TIP3    H232771   6.239   4.914   1.711 -0.8364  0.6091 -0.2502
 3738TIP3   OH232772   4.731   0.571   0.670 -0.4849 -0.0612 -0.3805
 3738TIP3    H132773   4.734   0.509   0.597  1.1004  0.1527 -0.5195
 3738TIP3    H232774   4.819   0.569   0.708 -0.5524  1.6958 -0.0560
 3739TIP3   OH232775   3.336   5.363   0.555 -0.1115 -0.0620 -0.2223
 3739TIP3    H132776   3.272   5.349   0.625 -0.2948  0.9749 -0.1588
 3739TIP3    H232777   3.421   5.359   0.600 -0.1905 -0.1740 -0.0800
 3740TIP3   OH232778   3.433   3.606   6.258 -0.3723 -0.9483 -0.0384
 3740TIP3    H132779   3.491   3.537   6.289 -0.1804 -1.0659 -0.6511
 3740TIP3    H232780   3.413   3.657   6.337 -2.5570 -3.1341  0.9835
 3741TIP3   OH232781   2.766   3.544   6.907 -0.4485 -0.1612  0.0151
 3741TIP3    H132782   2.806   3.631   6.906  0.7807 -0.6494 -2.5376
 3741TIP3    H232783   2.694   3.550   6.844  0.0537 -1.1263 -0.6825
 3742TIP3   OH232784   0.421   6.129   2.142 -0.6274 -0.3017 -0.1643
 3742TIP3    H132785   0.500   6.141   2.194 -0.3902  1.6229 -0.8750
 3742TIP3    H232786   0.448   6.150   2.053 -1.5303 -1.4057 -0.7099
 3743TIP3   OH232787   6.127   2.396   7.127  0.1558  0.3070 -0.4640
 3743TIP3    H132788   6.214   2.382   7.164  1.1569  0.9691 -2.4123
 3743TIP3    H232789   6.116   2.324   7.065 -0.8561  0.0242  0.0273
 3744TIP3   OH232790   6.192   5.623   2.704 -0.0444 -0.0567  0.0448
 3744TIP3    H132791   6.203   5.530   2.684 -1.2136 -0.3200  0.5759
 3744TIP3    H232792   6.098   5.635   2.716  0.1094  1.1529  0.2223
 3745TIP3   OH232793   3.666   4.241   1.058  0.7204 -0.2764 -0.2852
 3745TIP3    H132794   3.640   4.154   1.088 -0.1562 -0.2310 -0.8769
 3745TIP3    H232795   3.599   4.299   1.094  1.6476  0.2549  0.6369
 3746TIP3   OH232796   0.542   1.722   7.033  0.0705 -0.0071 -0.3023
 3746TIP3    H132797   0.620   1.775   7.052 -0.8665  0.8073  1.4980
 3746TIP3    H232798   0.574   1.655   6.973  2.4545 -0.3837  1.2118
 3747TIP3   OH232799   2.629   4.636   2.066  0.0198 -0.1658 -0.7052
 3747TIP3    H132800   2.714   4.660   2.027  1.1880 -1.8523  0.6539
 3747TIP3    H232801   2.605   4.554   2.022 -1.5770  0.9013 -1.9513
 3748TIP3   OH232802   5.034   6.285   7.581  0.5872  0.3036 -0.2158
 3748TIP3    H132803   5.062   6.295   7.672  1.2976  1.6385 -0.5558
 3748TIP3    H232804   5.108   6.240   7.539  0.4274  0.0417 -0.2160
 3749TIP3   OH232805   0.328   6.959   6.121  0.3606  0.0996 -0.3568
 3749TIP3    H132806   0.364   7.015   6.190  0.2712  0.2467 -0.4290
 3749TIP3    H232807   0.233   6.960   6.136 -0.0017  2.4055 -2.1340
 3750TIP3   OH232808   5.202   6.301   6.374  0.2721 -0.1395 -0.0267
 3750TIP3    H132809   5.293   6.276   6.360  0.8106  1.2310  0.8582
 3750TIP3    H232810   5.203   6.353   6.454 -0.9252  1.8269 -1.2077
 3751TIP3   OH232811   5.721   0.132   7.217  0.1600  0.1118 -0.3808
 3751TIP3    H132812   5.672   0.053   7.239 -0.8611  1.1811  1.3799
 3751TIP3    H232813   5.797   0.130   7.275  0.8477 -0.2055 -1.2612
 3752TIP3   OH232814   2.106   2.528   7.351  0.2134  0.3647  0.3286
 3752TIP3    H132815   2.034   2.584   7.381 -0.6493 -0.2060 -0.5846
 3752TIP3    H232816   2.063   2.464   7.295  1.0043 -1.9068  2.1876
 3753TIP3   OH232817   0.312   4.901   7.862 -0.7954 -0.0802 -0.3748
 3753TIP3    H132818   0.260   4.862   7.792  0.6599 -1.0802 -0.9545
 3753TIP3    H232819   0.316   4.994   7.840  0.1849 -0.4792 -2.0293
 3754TIP3   OH232820   6.363   4.860   1.447  0.0755  0.7724  0.5566
 3754TIP3    H132821   6.418   4.788   1.478  0.9517  1.0948 -0.1929
 3754TIP3    H232822   6.369   4.926   1.517  0.5982  0.7823  0.5043
 3755TIP3   OH232823   4.485   2.952   6.720 -0.1653  0.3662  0.1786
 3755TIP3    H132824   4.561   2.938   6.663 -0.7844  1.2543 -0.8853
 3755TIP3    H232825   4.449   2.865   6.734 -0.7698  0.2368 -1.8849
 3756TIP3   OH232826   4.290   2.556   1.525  0.7917 -0.4405  0.6044
 3756TIP3    H132827   4.372   2.561   1.475  1.2661 -0.5083  1.3487
 3756TIP3    H232828   4.315   2.513   1.607  0.1137  0.0046  1.0576
 3757TIP3   OH232829   7.086   4.583   6.844  0.0699 -0.2662  0.6045
 3757TIP3    H132830   7.065   4.490   6.835 -0.6275 -0.0269 -0.4122
 3757TIP3    H232831   7.140   4.604   6.768 -2.2429  0.8039 -0.8717
 3758TIP3   OH232832   6.959   4.937   0.147 -0.3643 -0.0164  0.2552
 3758TIP3    H132833   6.897   4.932   0.074 -1.5726  0.6265  1.2251
 3758TIP3    H232834   6.976   4.845   0.169 -0.6165 -0.2042 -0.3012
 3759TIP3   OH232835   2.314   6.711   0.372  0.2448 -0.0242  0.3520
 3759TIP3    H132836   2.340   6.675   0.287 -1.6441 -2.8985  0.8432
 3759TIP3    H232837   2.388   6.692   0.430  0.9155  0.5851 -0.2828
 3760TIP3   OH232838   5.464   3.441   0.251  0.7436  0.4780 -0.6107
 3760TIP3    H132839   5.524   3.515   0.263 -0.0775  1.1984 -0.7997
 3760TIP3    H232840   5.502   3.391   0.179  2.3871 -0.4331  0.8281
 3761TIP3   OH232841   5.964   5.944   7.258 -0.0664 -0.3279 -0.2303
 3761TIP3    H132842   6.036   5.965   7.316  0.3320 -0.0571 -0.8139
 3761TIP3    H232843   6.003   5.940   7.171 -0.8966  0.6807 -0.6789
 3762TIP3   OH232844   4.697   2.176   1.937 -0.0668 -0.2647  0.4673
 3762TIP3    H132845   4.674   2.179   2.030 -0.3012 -0.3607  0.4119
 3762TIP3    H232846   4.650   2.100   1.903 -0.9946  0.5013  0.0006
 3763TIP3   OH232847   2.377   5.336   2.034 -0.3110 -0.3214  0.2027
 3763TIP3    H132848   2.301   5.279   2.047 -0.5175 -0.4453 -1.3429
 3763TIP3    H232849   2.451   5.283   2.064 -0.6328 -0.9304 -0.0530
 3764TIP3   OH232850   6.602   1.280   1.107  0.2789  0.2764  0.1841
 3764TIP3    H132851   6.593   1.328   1.190  0.8923  1.6021 -0.5002
 3764TIP3    H232852   6.667   1.212   1.126  1.3143  1.3283  0.4660
 3765TIP3   OH232853   1.056   2.918   0.954 -0.2628  0.4132 -0.1848
 3765TIP3    H132854   1.063   3.003   0.911 -0.7048  0.7625  0.4201
 3765TIP3    H232855   1.061   2.937   1.047 -1.9620 -0.0282  0.0405
 3766TIP3   OH232856   2.670   5.875   1.341 -0.5155 -0.3064  0.3951
 3766TIP3    H132857   2.700   5.899   1.428 -0.0379  0.5765  0.0051
 3766TIP3    H232858   2.640   5.958   1.303  0.4153 -0.4585 -0.7117
 3767TIP3   OH232859   4.407   5.086   2.514  0.0327 -0.4731 -0.0901
 3767TIP3    H132860   4.476   5.036   2.557 -0.7013 -1.6190 -0.2058
 3767TIP3    H232861   4.345   5.107   2.583 -1.4596 -2.8439 -0.6147
 3768TIP3   OH232862   6.044   4.984   0.838 -0.4414  0.5535 -0.2931
 3768TIP3    H132863   6.105   4.979   0.764  0.6939  0.8126  0.6019
 3768TIP3    H232864   6.068   4.910   0.894  0.4666  1.8538  1.0999
 3769TIP3   OH232865   3.919   2.608   0.138 -0.7420 -0.1010 -0.5411
 3769TIP3    H132866   3.959   2.521   0.139 -1.0051 -0.2208  0.2764
 3769TIP3    H232867   3.832   2.594   0.101 -1.1257 -0.3539  0.4239
 3770TIP3   OH232868   5.234   2.938   2.700 -0.0232 -0.1884  0.4007
 3770TIP3    H132869   5.280   2.868   2.747  1.6727  0.2650 -0.4942
 3770TIP3    H232870   5.225   2.904   2.611  0.8326  0.7189 -0.0442
 3771TIP3   OH232871   1.397   6.939   0.085 -0.6576 -0.1496 -0.0405
 3771TIP3    H132872   1.349   6.874   0.033  0.9064 -1.3640 -0.0266
 3771TIP3    H232873   1.487   6.934   0.053 -0.2198  1.0515  0.9138
 3772TIP3   OH232874   1.886   6.930   1.032  0.1742 -0.0079  0.4051
 3772TIP3    H132875   1.961   6.876   1.060  0.3385  0.6744  1.3283
 3772TIP3    H232876   1.926   7.009   0.995 -0.0827  0.3608  0.9069
 3773TIP3   OH232877   6.211   4.641   0.054 -0.1189 -0.1181  0.4121
 3773TIP3    H132878   6.268   4.706   0.095  2.0104 -2.3882  1.3163
 3773TIP3    H232879   6.237   4.557   0.093 -2.9339 -1.5391 -0.4398
 3774TIP3   OH232880   1.681   2.785   1.523  0.5376 -0.3099 -0.0494
 3774TIP3    H132881   1.599   2.750   1.557  0.5087  0.0365  0.2428
 3774TIP3    H232882   1.710   2.719   1.460  1.3750 -1.7299  1.7162
 3775TIP3   OH232883   4.308   4.796   1.487  0.0734 -0.1670 -0.1371
 3775TIP3    H132884   4.214   4.793   1.468  0.0110 -0.5151  0.2027
 3775TIP3    H232885   4.316   4.863   1.555  0.2175  0.6385 -0.9218
 3776TIP3   OH232886   1.205   0.085   1.938  0.6934 -0.4706  0.0452
 3776TIP3    H132887   1.254   0.020   1.889  3.0516  1.3781 -0.1941
 3776TIP3    H232888   1.256   0.166   1.931 -1.1528  0.9865  1.8421
 3777TIP3   OH232889   6.445   0.863   7.299 -0.1134  0.3042  0.0203
 3777TIP3    H132890   6.378   0.932   7.298  1.0703  1.5077  0.8684
 3777TIP3    H232891   6.494   0.875   7.218 -1.3914 -1.1184 -1.0255
 3778TIP3   OH232892   3.599   5.020   1.421  0.5299 -0.6696 -0.5992
 3778TIP3    H132893   3.675   5.035   1.477  0.4049 -0.1625 -0.5616
 3778TIP3    H232894   3.578   4.928   1.433  0.0876 -0.4142  0.7144
 3779TIP3   OH232895   4.037   0.531   0.284 -0.0888  0.4539  0.6356
 3779TIP3    H132896   4.122   0.488   0.274 -0.6115 -0.7072  0.9794
 3779TIP3    H232897   4.014   0.518   0.376 -1.4160 -0.7950  0.1683
 3780TIP3   OH232898   1.860   1.787   7.416  0.3520 -0.4774  0.2751
 3780TIP3    H132899   1.927   1.772   7.349 -0.1092  0.4636 -0.4174
 3780TIP3    H232900   1.861   1.708   7.469  2.7999 -0.0744  0.9714
 3781TIP3   OH232901   5.449   1.167   0.538  0.0400  0.0486 -0.0902
 3781TIP3    H132902   5.506   1.235   0.503  1.0590 -0.8928 -0.3205
 3781TIP3    H232903   5.450   1.098   0.471 -0.9111 -0.2217  0.1669
 3782TIP3   OH232904   1.800   4.178   1.588 -0.3179  0.3895  0.5525
 3782TIP3    H132905   1.849   4.250   1.626  1.6045 -0.1020 -0.8280
 3782TIP3    H232906   1.857   4.102   1.596 -1.7133 -0.6966  0.6991
 3783TIP3   OH232907   5.933   3.009   6.554 -0.0751  0.1858 -0.3788
 3783TIP3    H132908   6.018   3.052   6.563 -0.0381 -0.0877  0.6083
 3783TIP3    H232909   5.874   3.079   6.525 -0.1444  1.0834  1.7877
 3784TIP3   OH232910   2.497   0.875   1.939  0.0021  0.1870 -0.2327
 3784TIP3    H132911   2.523   0.856   1.849  1.6215  0.7819  0.0768
 3784TIP3    H232912   2.569   0.843   1.992 -1.7720 -1.9956  1.0765
 3785TIP3   OH232913   0.060   4.506   2.954  0.0789  0.3771  0.0721
 3785TIP3    H132914  -0.033   4.521   2.968  0.3854  1.6476  0.9480
 3785TIP3    H232915   0.092   4.474   3.039  0.2523 -1.2123 -0.5505
 3786TIP3   OH232916   0.946   6.253   2.297  0.3657 -0.8793  0.0909
 3786TIP3    H132917   0.931   6.159   2.294 -0.0700 -0.8144  0.2015
 3786TIP3    H232918   0.979   6.270   2.385 -0.9701 -0.7296  0.5848
 3787TIP3   OH232919   1.378   0.599   0.316 -0.1501 -0.6140  0.6282
 3787TIP3    H132920   1.313   0.530   0.308 -0.0320 -0.5311 -2.1353
 3787TIP3    H232921   1.343   0.672   0.264  0.3715  0.9136  2.3020
 3788TIP3   OH232922   3.661   1.438   1.284  0.7439 -0.1951  0.2588
 3788TIP3    H132923   3.705   1.467   1.363  0.3303 -2.6006  1.4674
 3788TIP3    H232924   3.613   1.515   1.253 -0.2663  0.4874  3.2022
 3789TIP3   OH232925   0.340   3.362   2.641 -0.1352  0.0936  0.3278
 3789TIP3    H132926   0.430   3.347   2.669 -0.9328 -1.5559  2.2508
 3789TIP3    H232927   0.331   3.458   2.639  1.6868  0.2926 -0.1516
 3790TIP3   OH232928   4.464   2.143   2.184 -0.5023  0.1839 -0.0702
 3790TIP3    H132929   4.453   2.048   2.189 -1.2572  0.2749  0.1455
 3790TIP3    H232930   4.375   2.178   2.185 -0.2334  0.8982 -0.1422
 3791TIP3   OH232931   0.182   6.019   6.551 -0.5799  0.9048 -0.0048
 3791TIP3    H132932   0.227   5.939   6.578 -1.2591  0.1593 -1.0138
 3791TIP3    H232933   0.234   6.052   6.477 -0.6872  1.0122 -0.0326
 3792TIP3   OH232934   3.207   3.246   2.605 -0.9962  0.0167 -0.2737
 3792TIP3    H132935   3.223   3.197   2.686 -1.9507  0.7399  0.3794
 3792TIP3    H232936   3.113   3.262   2.605 -0.6505  2.3543 -0.1591
 3793TIP3   OH232937   1.602   2.377   6.993 -0.1444 -0.3819  0.1657
 3793TIP3    H132938   1.616   2.463   7.032  3.1686 -0.6591 -0.0732
 3793TIP3    H232939   1.620   2.315   7.064 -2.1869 -0.9410  0.2527
 3794TIP3   OH232940   4.892   2.549   1.649 -0.7973  0.2779  0.3040
 3794TIP3    H132941   4.938   2.605   1.587  1.9750  1.1996  2.9078
 3794TIP3    H232942   4.912   2.460   1.620  2.0904  0.6574  0.7902
 3795TIP3   OH232943   6.880   2.420   7.501 -0.5277 -0.5525  0.1750
 3795TIP3    H132944   6.969   2.390   7.482 -0.2662  0.1762  0.1997
 3795TIP3    H232945   6.843   2.440   7.415 -0.8523 -1.3447  0.1261
 3796TIP3   OH232946   6.316   5.677   1.790  0.1069 -0.3886  0.0573
 3796TIP3    H132947   6.283   5.587   1.784 -0.2519 -0.2226 -0.5413
 3796TIP3    H232948   6.256   5.728   1.736  1.7960 -0.1899 -1.7456
 3797TIP3   OH232949   2.200   1.420   0.724  0.5428  0.2428  0.8324
 3797TIP3    H132950   2.179   1.494   0.668  0.3649 -0.9145 -0.6761
 3797TIP3    H232951   2.290   1.437   0.753  0.9256  0.4575 -0.4545
 3798TIP3   OH232952   6.281   1.721   7.220  0.0838 -0.2309  0.1821
 3798TIP3    H132953   6.332   1.771   7.155  2.6640 -0.8927  1.5881
 3798TIP3    H232954   6.296   1.767   7.302 -0.1756 -1.4738  0.9414
 3799TIP3   OH232955   2.046   5.943   1.452 -0.3460 -0.5155 -0.2153
 3799TIP3    H132956   2.016   6.013   1.394 -1.1528  1.2174  2.1695
 3799TIP3    H232957   1.977   5.877   1.448 -0.2488 -0.5707 -1.4018
 3800TIP3   OH232958   2.317   0.981   1.697  0.2179  0.2329  0.6546
 3800TIP3    H132959   2.309   0.887   1.679 -1.9245  0.3328  0.8667
 3800TIP3    H232960   2.357   1.018   1.618 -1.8944 -0.4295 -0.8100
 3801TIP3   OH232961   1.017   2.928   1.585  0.7409 -0.4615 -0.1642
 3801TIP3    H132962   0.995   3.022   1.589  0.3319 -0.4214 -2.2737
 3801TIP3    H232963   1.071   2.920   1.506  1.3303 -1.9199  0.3622
 3802TIP3   OH232964   6.909   1.555   2.152  0.1508 -0.0846 -0.1110
 3802TIP3    H132965   6.831   1.564   2.097 -0.9849  1.0068  1.5707
 3802TIP3    H232966   6.969   1.501   2.101 -1.4595 -0.4311 -1.7232
 3803TIP3   OH232967   6.252   4.884   6.911 -0.1394  0.3099 -0.0525
 3803TIP3    H132968   6.281   4.848   6.828  2.4428 -0.0055  0.8774
 3803TIP3    H232969   6.163   4.914   6.895 -0.2308 -1.0365 -2.4993
 3804TIP3   OH232970   2.910   1.713   7.689  0.1562 -0.4779 -0.3396
 3804TIP3    H132971   2.944   1.663   7.763  0.5147 -1.3137 -1.0513
 3804TIP3    H232972   2.869   1.647   7.632  0.7996 -0.0050 -1.3840
 3805TIP3   OH232973   2.156   5.386   1.296 -0.1359  0.2391 -0.1132
 3805TIP3    H132974   2.187   5.302   1.330  3.6430  2.0022  1.4396
 3805TIP3    H232975   2.073   5.401   1.341 -0.7067 -2.3881 -0.1250
 3806TIP3   OH232976   0.592   3.891   7.155 -0.2852 -0.4483 -0.1515
 3806TIP3    H132977   0.646   3.952   7.205 -0.4127 -2.8483  3.2988
 3806TIP3    H232978   0.546   3.946   7.092 -0.0655  2.9386  2.3603
 3807TIP3   OH232979   3.406   3.265   7.015 -0.0625  0.0706  0.6532
 3807TIP3    H132980   3.478   3.230   6.963  0.7215  1.1181  0.9882
 3807TIP3    H232981   3.349   3.190   7.032 -0.1815 -0.3614 -1.4147
 3808TIP3   OH232982   5.505   6.759   6.888 -0.1056 -0.1008 -0.2368
 3808TIP3    H132983   5.486   6.730   6.799  0.3764 -1.4244  0.0713
 3808TIP3    H232984   5.531   6.679   6.935 -0.0708  0.6148  1.0144
 3809TIP3   OH232985   5.027   4.410   0.038  0.5445  0.4494 -0.3519
 3809TIP3    H132986   5.005   4.322   0.069 -1.3977  1.2341  0.6299
 3809TIP3    H232987   5.057   4.397  -0.052 -2.1652 -0.9809 -1.1329
 3810TIP3   OH232988   2.413   0.547   1.951  0.2101  0.4422 -0.4212
 3810TIP3    H132989   2.425   0.578   1.861  0.2107  1.9227  0.0671
 3810TIP3    H232990   2.329   0.585   1.978  0.5056  0.5173  0.4112
 3811TIP3   OH232991   5.739   6.428   0.505 -0.0411 -0.3048 -0.2183
 3811TIP3    H132992   5.702   6.403   0.420 -1.3059  0.2500  0.1396
 3811TIP3    H232993   5.834   6.420   0.494 -0.1826 -0.0739 -1.7261
 3812TIP3   OH232994   3.668   2.896   7.161 -0.1821  0.1273  0.3318
 3812TIP3    H132995   3.712   2.942   7.090  1.1798 -1.2088  0.2524
 3812TIP3    H232996   3.577   2.887   7.132  0.0889  0.6167 -0.7137
 3813TIP3   OH232997   3.675   2.020   6.649 -0.1712 -0.0926 -0.1440
 3813TIP3    H132998   3.613   1.948   6.637  0.3023 -0.4716 -0.3630
 3813TIP3    H232999   3.625   2.087   6.696 -0.7204 -0.4210 -0.2456
 3814TIP3   OH233000   1.097   4.318   2.323 -0.6784 -0.4721  0.5617
 3814TIP3    H133001   1.188   4.318   2.292 -0.7567 -0.4192  0.3255
 3814TIP3    H233002   1.071   4.226   2.319 -1.0121 -0.3501 -0.5210
 3815TIP3   OH233003   3.832   3.646   7.035 -0.1995 -0.0995 -0.3274
 3815TIP3    H133004   3.826   3.551   7.023  1.2953  0.0152 -2.5731
 3815TIP3    H233005   3.926   3.664   7.035 -0.4680  1.4264 -0.4731
 3816TIP3   OH233006   6.247   2.741   6.729 -0.1297  0.0423 -0.2991
 3816TIP3    H133007   6.284   2.824   6.700  0.5242  0.3659  1.3617
 3816TIP3    H233008   6.299   2.717   6.806  0.8879 -2.7864 -1.7003
 3817TIP3   OH233009   3.896   3.471   6.406  0.1472 -0.6679  0.0844
 3817TIP3    H133010   3.809   3.435   6.391 -0.0541 -0.5744  0.9561
 3817TIP3    H233011   3.905   3.472   6.501  1.5499 -1.7350 -0.0085
 3818TIP3   OH233012   0.887   0.893   0.608 -0.3269  0.1850 -0.1427
 3818TIP3    H133013   0.966   0.869   0.560 -0.4896 -0.4803 -0.0825
 3818TIP3    H233014   0.893   0.988   0.616  1.6742 -0.0199  1.9113
 3819TIP3   OH233015   7.015   0.310   1.740 -0.1612 -0.5906  0.0627
 3819TIP3    H133016   7.028   0.283   1.649  0.9187 -2.3129  0.6788
 3819TIP3    H233017   6.983   0.230   1.784 -0.8451  0.2577  1.1595
 3820TIP3   OH233018   5.773   1.578   2.041  0.1647 -0.4583 -0.5743
 3820TIP3    H133019   5.695   1.570   1.986 -1.0779  0.9833  0.8650
 3820TIP3    H233020   5.792   1.672   2.042  0.0697 -0.4126  1.4693
 3821TIP3   OH233021   6.235   5.992   6.389 -0.7574  0.0145  0.7623
 3821TIP3    H133022   6.254   6.078   6.350 -1.8999 -0.0681  0.0019
 3821TIP3    H233023   6.168   6.010   6.455 -2.2343 -0.4913 -0.5372
 3822TIP3   OH233024   6.531   6.308   6.756 -0.4307  0.5336 -0.2040
 3822TIP3    H133025   6.476   6.275   6.685 -2.9702  2.0871  0.9041
 3822TIP3    H233026   6.487   6.281   6.836  2.2097 -0.9118  0.9180
 3823TIP3   OH233027   6.458   5.333   7.559 -0.6404  0.8274  0.6982
 3823TIP3    H133028   6.518   5.361   7.490  1.1749 -0.3362  1.7146
 3823TIP3    H233029   6.495   5.370   7.640 -3.0128  2.6218  1.0873
 3824TIP3   OH233030   5.972   2.416   0.601  0.2496 -0.0433  0.4337
 3824TIP3    H133031   5.920   2.337   0.589  2.6068 -1.3664 -2.2635
 3824TIP3    H233032   5.927   2.483   0.550  0.5564 -0.8708 -0.9560
 3825TIP3   OH233033   1.654   2.879   6.968 -0.3696  0.1567 -0.1626
 3825TIP3    H133034   1.607   2.943   6.913 -2.4906 -1.4011 -0.2988
 3825TIP3    H233035   1.653   2.798   6.916  0.1539 -0.5940  0.9696
 3826TIP3   OH233036   6.812   1.142   7.936 -0.3076 -0.2446 -0.0996
 3826TIP3    H133037   6.757   1.067   7.912 -0.7455  0.2585 -0.7120
 3826TIP3    H233038   6.783   1.212   7.877  1.7450 -0.2680 -1.2328
 3827TIP3   OH233039   5.129   2.071   1.365 -0.2694  0.5702 -0.3310
 3827TIP3    H133040   5.131   1.978   1.344 -2.8914  0.3278  0.1426
 3827TIP3    H233041   5.221   2.095   1.378  0.3717 -2.3959  1.4983
 3828TIP3   OH233042   3.471   2.423   1.005  0.1513 -0.4940 -0.3346
 3828TIP3    H133043   3.525   2.391   1.077 -0.5033  0.9813  0.8643
 3828TIP3    H233044   3.464   2.517   1.020 -0.8417 -0.3024 -1.7695
 3829TIP3   OH233045   4.664   4.180   1.729 -0.6032 -0.6134  0.1534
 3829TIP3    H133046   4.622   4.145   1.650 -2.6254 -1.1160  1.3664
 3829TIP3    H233047   4.606   4.251   1.757  0.5243  0.0951  0.7559
 3830TIP3   OH233048   0.588   6.613   2.108  0.2949  0.1446  0.4897
 3830TIP3    H133049   0.555   6.636   2.195 -1.7296 -0.5761 -0.0410
 3830TIP3    H233050   0.615   6.522   2.116  2.0736  0.6591  0.8552
 3831TIP3   OH233051   5.125   4.397   1.749  0.2132 -0.4851 -0.6324
 3831TIP3    H133052   5.118   4.349   1.667  0.0763  1.4988 -1.8371
 3831TIP3    H233053   5.055   4.462   1.745  0.4067 -0.1371  0.9218
 3832TIP3   OH233054   4.615   6.057   2.601 -0.1992  0.0956 -0.0721
 3832TIP3    H133055   4.565   5.993   2.550 -0.9647 -0.6189  1.4992
 3832TIP3    H233056   4.706   6.037   2.582 -0.4711  0.3432 -1.7198
 3833TIP3   OH233057   4.563   4.332   0.227 -0.4020 -0.0516  0.3310
 3833TIP3    H133058   4.541   4.368   0.312 -0.9755  0.9258 -0.2127
 3833TIP3    H233059   4.651   4.366   0.208  0.0139 -0.8379  0.8308
 3834TIP3   OH233060   4.838   1.109   7.936  0.0225  0.0792  0.0305
 3834TIP3    H133061   4.922   1.124   7.891  0.2789  0.7123  0.7031
 3834TIP3    H233062   4.817   1.193   7.975 -0.6497 -0.2323  0.3448
 3835TIP3   OH233063   1.979   6.556   1.755 -0.2214  0.2441  0.3281
 3835TIP3    H133064   2.005   6.473   1.715 -1.4717 -0.3551  0.7050
 3835TIP3    H233065   2.050   6.577   1.816  1.0342  0.4624 -1.1404
 3836TIP3   OH233066   6.360   4.138   0.430 -0.3951  0.1453 -0.4654
 3836TIP3    H133067   6.401   4.079   0.367 -2.2671 -0.0053 -1.5966
 3836TIP3    H233068   6.342   4.218   0.381  1.6005  1.5327  0.9082
 3837TIP3   OH233069   0.140   4.182   6.418  0.1796 -0.7991  0.2647
 3837TIP3    H133070   0.129   4.276   6.425 -1.3381 -1.0751  2.4107
 3837TIP3    H233071   0.189   4.169   6.336  3.3911  2.0153  1.5206
 3838TIP3   OH233072   3.243   1.772   7.985 -0.3800 -0.1136  0.2630
 3838TIP3    H133073   3.228   1.831   7.912  0.1963  0.2558  0.4303
 3838TIP3    H233074   3.186   1.697   7.969 -0.4905  0.1121 -0.3934
 3839TIP3   OH233075   3.966   1.628   7.815 -0.7777  0.4908  0.3909
 3839TIP3    H133076   3.943   1.635   7.908  2.2560 -3.0205  1.6562
 3839TIP3    H233077   4.049   1.676   7.807 -0.9562  0.6698 -0.5177
 3840TIP3   OH233078   5.979   1.083   6.856 -0.0170  0.4685 -0.1490
 3840TIP3    H133079   5.925   1.075   6.934 -0.2662 -1.4563 -0.4799
 3840TIP3    H233080   5.919   1.115   6.788 -0.3797 -0.1331 -0.1209
 3841TIP3   OH233081   5.963   5.061   1.503 -0.0541 -0.1333  0.1348
 3841TIP3    H133082   5.977   5.131   1.567 -3.1367  0.6821  0.0791
 3841TIP3    H233083   6.001   5.095   1.422  1.7418 -0.1637  0.9149
 3842TIP3   OH233084   1.599   5.604   0.152  0.4385 -0.1975  0.3481
 3842TIP3    H133085   1.675   5.584   0.207  1.6599  1.2758 -0.7163
 3842TIP3    H233086   1.637   5.636   0.070 -1.3427  0.1321 -0.3815
 3843TIP3   OH233087   0.462   2.541   0.733 -0.5583 -0.1666 -0.0979
 3843TIP3    H133088   0.479   2.614   0.793  1.4124  1.1030 -2.0748
 3843TIP3    H233089   0.507   2.565   0.652  0.2979 -3.6537 -0.8014
 3844TIP3   OH233090   2.987   2.140   1.016 -0.0195  0.3284 -0.2120
 3844TIP3    H133091   2.904   2.175   0.982  0.1032 -0.8628 -1.8902
 3844TIP3    H233092   3.050   2.209   1.002 -0.4993  0.8231  0.0224
 3845TIP3   OH233093   6.083   2.011   0.658 -0.1908 -0.0805  0.1082
 3845TIP3    H133094   6.120   2.081   0.711 -1.6485  0.2674  0.6829
 3845TIP3    H233095   6.130   2.018   0.574  1.9364 -0.4631  1.1868
 3846TIP3   OH233096   6.864   4.872   1.244 -0.4069  0.4170  0.2918
 3846TIP3    H133097   6.956   4.852   1.262 -0.4375 -0.4796 -0.4532
 3846TIP3    H233098   6.848   4.835   1.157 -1.7671 -0.3886  0.8531
 3847TIP3   OH233099   1.507   1.661   1.054  0.1177 -0.0761 -0.2248
 3847TIP3    H133100   1.430   1.628   1.007  0.2735  0.4048 -0.8257
 3847TIP3    H233101   1.480   1.663   1.146 -0.3151 -0.6737 -0.3322
 3848TIP3   OH233102   5.422   3.851   1.362  0.5897  0.6477 -0.0852
 3848TIP3    H133103   5.372   3.770   1.365  0.0075  1.0190  0.4008
 3848TIP3    H233104   5.443   3.870   1.453  0.5337  1.1604 -0.1764
 3849TIP3   OH233105   0.660   2.284   2.258 -0.0354  0.2906 -0.4159
 3849TIP3    H133106   0.576   2.294   2.214 -0.8022  0.7518  1.0853
 3849TIP3    H233107   0.715   2.353   2.220 -0.8645  1.0658 -0.2547
 3850TIP3   OH233108   5.936   2.652   2.142 -0.4666  0.5160  0.4222
 3850TIP3    H133109   6.024   2.651   2.105 -0.1862  0.0194  1.0770
 3850TIP3    H233110   5.899   2.736   2.116  0.0958  0.6033 -0.0986
 3851TIP3   OH233111   5.241   2.286   7.918 -0.2491  0.1269 -0.0379
 3851TIP3    H133112   5.168   2.261   7.976  2.0405  0.0847  3.0958
 3851TIP3    H233113   5.275   2.202   7.886 -0.6894  0.0561 -0.3249
 3852TIP3   OH233114   2.198   7.035   1.506 -0.0910  0.8199  0.1078
 3852TIP3    H133115   2.262   7.054   1.437 -1.3143  1.2715 -0.9408
 3852TIP3    H233116   2.144   7.114   1.511 -1.8953 -0.2985 -0.5637
 3853TIP3   OH233117   5.018   2.148   6.530 -0.1430  0.3620 -0.3098
 3853TIP3    H133118   4.933   2.181   6.501 -0.4201 -0.7226 -0.7729
 3853TIP3    H233119   5.010   2.053   6.523  0.1869  0.0961  2.2053
 3854TIP3   OH233120   6.805   6.080   0.229 -1.1590  0.1120 -0.3267
 3854TIP3    H133121   6.877   6.047   0.175  0.4830  1.6780  0.8083
 3854TIP3    H233122   6.790   6.011   0.294  0.8757  0.6599  0.7969
 3855TIP3   OH233123   1.133   0.475   0.969 -0.5122  0.2439  0.1829
 3855TIP3    H133124   1.079   0.540   1.015 -0.5326 -0.8837  1.8092
 3855TIP3    H233125   1.154   0.410   1.035  0.1240 -1.0440 -1.2399
 3856TIP3   OH233126   6.500   3.772   0.887 -0.3402  0.2229 -0.0220
 3856TIP3    H133127   6.550   3.696   0.856  0.2491 -0.2847  2.0122
 3856TIP3    H233128   6.426   3.733   0.935  0.5097  0.8765  1.8914
 3857TIP3   OH233129   3.379   5.013   0.167 -0.9925  0.3460  0.4571
 3857TIP3    H133130   3.363   4.919   0.157 -1.1443  0.2676  1.3739
 3857TIP3    H233131   3.387   5.027   0.261 -1.1395  1.2846  0.3470
 3858TIP3   OH233132   4.017   4.984   6.894 -0.0595 -0.3381  0.2948
 3858TIP3    H133133   4.109   4.990   6.916 -0.3078  1.0966  1.0261
 3858TIP3    H233134   4.007   4.897   6.854  2.0488  0.4066 -2.0556
 3859TIP3   OH233135   0.859   6.352   2.727 -0.0781 -0.5454  0.0196
 3859TIP3    H133136   0.927   6.339   2.660  0.5656  0.4242  0.4614
 3859TIP3    H233137   0.872   6.442   2.756 -1.4993 -0.3757  0.1942
 3860TIP3   OH233138   4.928   0.554   7.688 -0.2836  0.0273  0.0893
 3860TIP3    H133139   4.921   0.523   7.597  1.8515 -1.5495  0.3471
 3860TIP3    H233140   4.838   0.562   7.718 -1.0504 -2.0000 -1.3888
 3861TIP3   OH233141   0.286   6.869   7.321 -0.3902  0.1773 -0.2044
 3861TIP3    H133142   0.338   6.920   7.383  0.2277  0.0896 -0.6446
 3861TIP3    H233143   0.347   6.846   7.251 -1.3800  1.4277 -1.5429
 3862TIP3   OH233144   1.686   6.433   7.733  0.1158 -0.1520  0.0634
 3862TIP3    H133145   1.594   6.449   7.758  0.4007  1.2134  0.3067
 3862TIP3    H233146   1.734   6.507   7.770  1.7747 -2.2537  2.4089
 3863TIP3   OH233147   3.771   4.012   1.545 -0.1730 -0.7177 -0.0843
 3863TIP3    H133148   3.794   3.928   1.507 -0.3687 -0.7569 -0.1189
 3863TIP3    H233149   3.676   4.019   1.532  0.2558  1.0309 -3.1939
 3864TIP3   OH233150   0.063   4.666   2.340  0.3373  0.2508  0.0872
 3864TIP3    H133151   0.015   4.634   2.263 -2.2930 -0.4050  1.8465
 3864TIP3    H233152   0.122   4.594   2.363  0.5520  0.1237 -0.8219
 3865TIP3   OH233153   0.382   6.693   2.278 -0.2473 -0.0917 -0.1332
 3865TIP3    H133154   0.336   6.725   2.355 -1.7306 -0.0006 -1.0172
 3865TIP3    H233155   0.319   6.702   2.207  1.1378 -0.0109 -1.4016
 3866TIP3   OH233156   4.507   4.817   0.580  0.0047 -0.0618 -0.0621
 3866TIP3    H133157   4.421   4.844   0.614 -0.1788 -0.0710 -0.5125
 3866TIP3    H233158   4.570   4.874   0.624 -0.3915  1.3543 -1.2369
 3867TIP3   OH233159   5.431   6.182   6.626  0.4650 -0.4388  0.2806
 3867TIP3    H133160   5.427   6.176   6.531  3.5505  1.0250 -0.0576
 3867TIP3    H233161   5.376   6.258   6.647  2.1546  1.1653 -0.7554
 3868TIP3   OH233162   4.848   6.933   1.502  0.1778 -0.2365 -0.6468
 3868TIP3    H133163   4.888   6.916   1.587  0.1489  0.3475 -0.5135
 3868TIP3    H233164   4.754   6.933   1.519  0.1910  0.7856 -0.4942
 3869TIP3   OH233165   2.768   4.822   1.331  0.6389 -1.3345  0.1085
 3869TIP3    H133166   2.719   4.819   1.413  0.9339 -0.2000  0.3527
 3869TIP3    H233167   2.734   4.749   1.279 -0.1056 -1.5856  0.9315
 3870TIP3   OH233168   6.279   4.577   1.670 -0.0700 -0.2031  0.0021
 3870TIP3    H133169   6.350   4.614   1.618  0.2668 -0.7257  0.0882
 3870TIP3    H233170   6.292   4.614   1.758  0.0763 -0.2711  0.0092
 3871TIP3   OH233171   5.244   6.641   1.427  0.2434 -0.4809 -0.4118
 3871TIP3    H133172   5.189   6.680   1.359  1.7602  1.8906 -0.3896
 3871TIP3    H233173   5.240   6.703   1.499  0.5424 -1.8016  0.7909
 3872TIP3   OH233174   0.442   0.094   2.197 -0.0715 -0.2216  0.4707
 3872TIP3    H133175   0.452   0.187   2.175 -2.9567  0.6050  2.1179
 3872TIP3    H233176   0.366   0.065   2.146 -0.0782 -1.2665  1.0453
 3873TIP3   OH233177   5.886   3.391   0.216  0.0748  0.2678  0.1385
 3873TIP3    H133178   5.942   3.417   0.143 -1.0987  0.1542 -0.8424
 3873TIP3    H233179   5.897   3.296   0.221 -2.4800 -0.2788 -2.2755
 3874TIP3   OH233180   0.037   7.008   7.241 -0.2120 -0.5830 -0.2020
 3874TIP3    H133181   0.076   7.052   7.166  0.8039 -0.6532  0.2701
 3874TIP3    H233182   0.102   6.944   7.269 -0.3946 -0.2824  0.9786
 3875TIP3   OH233183   0.899   6.796   2.686 -0.2020  0.2289 -0.0915
 3875TIP3    H133184   0.911   6.877   2.637  1.0564  1.4625  2.0825
 3875TIP3    H233185   0.987   6.761   2.698 -0.5611 -0.5127  0.4746
 3876TIP3   OH233186   4.056   4.703   0.651 -0.0035  0.5735  0.1755
 3876TIP3    H133187   3.991   4.772   0.634 -0.3894 -0.2348 -1.9938
 3876TIP3    H233188   4.103   4.733   0.729 -1.6093  2.1934  0.5936
 3877TIP3   OH233189   3.769   6.007   7.981 -0.5138 -0.3766 -0.8331
 3877TIP3    H133190   3.778   6.059   7.902 -0.7118  0.2218 -0.4673
 3877TIP3    H233191   3.801   5.920   7.956 -3.2955 -1.0673 -2.4275
 3878TIP3   OH233192   1.892   3.933   1.660  0.2043 -0.2078 -0.1186
 3878TIP3    H133193   1.864   3.844   1.635 -1.1762  0.0808  0.3150
 3878TIP3    H233194   1.933   3.922   1.746 -0.7919 -0.3097  0.3556
 3879TIP3   OH233195   4.476   2.165   6.895  0.6983  0.0308  0.4687
 3879TIP3    H133196   4.386   2.189   6.917  0.8136 -0.4914  1.5312
 3879TIP3    H233197   4.491   2.208   6.810 -0.7997 -0.4844 -0.1025
 3880TIP3   OH233198   4.763   5.115   1.767 -0.4351  0.0947  0.0568
 3880TIP3    H133199   4.700   5.134   1.697  1.8811 -0.0425 -2.2095
 3880TIP3    H233200   4.848   5.124   1.725  1.0691 -0.8322  2.7112
 3881TIP3   OH233201   0.137   2.861   1.223  0.5993 -0.7721 -0.1412
 3881TIP3    H133202   0.216   2.893   1.179  1.0697 -0.0998  1.1337
 3881TIP3    H233203   0.155   2.873   1.316 -1.0808 -0.4214  0.1764
 3882TIP3   OH233204   7.120   0.915   1.098  0.3125  0.3078 -0.4396
 3882TIP3    H133205   7.038   0.931   1.050 -0.0982  1.7068  0.6520
 3882TIP3    H233206   7.177   0.987   1.072  1.0254 -0.3730 -0.7915
 3883TIP3   OH233207   2.353   4.968   7.493 -0.2503  0.1477  0.7562
 3883TIP3    H133208   2.297   4.930   7.561  1.4713  0.8217  2.6587
 3883TIP3    H233209   2.439   4.975   7.534  0.7500  1.1267 -1.3367
 3884TIP3   OH233210   4.686   6.569   7.210 -0.8511 -0.5653  0.1117
 3884TIP3    H133211   4.777   6.569   7.180 -0.9454 -0.0513 -0.1908
 3884TIP3    H233212   4.679   6.492   7.266  0.1573  0.2045  1.3351
 3885TIP3   OH233213   2.086   2.110   1.188 -0.4093  0.3262  0.6137
 3885TIP3    H133214   2.075   2.201   1.162 -4.0510 -0.2956 -0.6853
 3885TIP3    H233215   2.026   2.061   1.130  1.7173 -2.9799  0.9176
 3886TIP3   OH233216   2.348   5.876   1.835 -0.3803  0.0311 -0.5658
 3886TIP3    H133217   2.289   5.939   1.876 -1.4759 -1.4643  0.2469
 3886TIP3    H233218   2.291   5.808   1.801  0.7285 -0.2270 -2.0167
 3887TIP3   OH233219   6.563   0.983   0.750  0.0069  0.0525  0.4068
 3887TIP3    H133220   6.498   1.047   0.720  0.1381  2.0137  3.8082
 3887TIP3    H233221   6.525   0.946   0.830  1.2380 -2.0143  0.1044
 3888TIP3   OH233222   5.019   3.875   2.459 -0.2503  0.6378 -0.4046
 3888TIP3    H133223   5.094   3.850   2.405 -0.5553  0.1187 -0.5875
 3888TIP3    H233224   5.029   3.824   2.539 -0.1523  0.9217 -0.2352
 3889TIP3   OH233225   4.340   0.935   1.028  0.2105 -0.0152 -0.3815
 3889TIP3    H133226   4.431   0.925   1.000  0.9474  3.3878  0.3012
 3889TIP3    H233227   4.335   0.889   1.112  1.5588  0.4131 -0.0493
 3890TIP3   OH233228   0.785   6.023   2.028  0.5541  0.0951  0.3780
 3890TIP3    H133229   0.704   6.000   1.984  0.0083  0.8911  0.9537
 3890TIP3    H233230   0.837   6.069   1.962  0.3020  0.1055  0.1882
 3891TIP3   OH233231   2.809   4.701   6.867  0.3865 -0.4864 -0.0020
 3891TIP3    H133232   2.901   4.687   6.844  0.4086 -0.0443 -0.1912
 3891TIP3    H233233   2.797   4.654   6.949  0.9429 -0.0299  0.3478
 3892TIP3   OH233234   6.183   6.912   6.149 -0.3065  0.0867  0.3833
 3892TIP3    H133235   6.109   6.876   6.099 -0.8839  1.0639  0.5060
 3892TIP3    H233236   6.255   6.851   6.132 -1.1679 -0.9659  0.3674
 3893TIP3   OH233237   4.839   3.835   7.800 -0.0331  0.2639 -0.0933
 3893TIP3    H133238   4.902   3.895   7.759 -0.0716  1.1492  1.0843
 3893TIP3    H233239   4.893   3.772   7.846 -0.0047 -0.0489 -0.5444
 3894TIP3   OH233240   5.391   2.143   1.337 -0.1879 -0.3583 -0.1446
 3894TIP3    H133241   5.477   2.125   1.298 -0.4251 -2.2590  0.1041
 3894TIP3    H233242   5.403   2.224   1.386  1.0455  0.2235 -1.3510
 3895TIP3   OH233243   5.441   1.118   3.013  0.4626 -0.3737 -0.0222
 3895TIP3    H133244   5.529   1.081   3.020 -0.6378 -3.2328 -0.1079
 3895TIP3    H233245   5.405   1.111   3.102  0.3953  1.0871  0.0901
 3896TIP3   OH233246   0.910   2.282   1.197 -0.3407  0.0420  0.5408
 3896TIP3    H133247   0.961   2.345   1.249 -0.9410  0.1400  1.0199
 3896TIP3    H233248   0.967   2.205   1.190  1.0160  1.1365 -1.3005
 3897TIP3   OH233249   4.420   2.743   1.107 -0.1839  0.3902  0.2261
 3897TIP3    H133250   4.483   2.739   1.036 -0.0381 -0.0269  0.3758
 3897TIP3    H233251   4.457   2.806   1.169  0.0215  0.2484  0.2489
 3898TIP3   OH233252   6.548   0.639   1.493  0.4143 -0.3868 -0.0133
 3898TIP3    H133253   6.457   0.609   1.500 -0.4012  1.3505 -2.1286
 3898TIP3    H233254   6.575   0.654   1.584 -0.6321 -2.9615  0.8274
 3899TIP3   OH233255   1.713   2.656   1.224  0.3552 -0.1405 -0.1224
 3899TIP3    H133256   1.783   2.642   1.161 -0.7172 -0.3830 -1.3140
 3899TIP3    H233257   1.632   2.645   1.173 -0.5803 -1.7111  1.5741
 3900TIP3   OH233258   2.359   3.832   7.923 -0.0286 -0.2122  0.6317
 3900TIP3    H133259   2.395   3.921   7.918 -0.8586  0.1062  0.0211
 3900TIP3    H233260   2.369   3.807   8.015  2.4264 -0.4441  0.3628
 3901TIP3   OH233261   5.397   0.917   0.368  0.1284 -0.2512 -0.3232
 3901TIP3    H133262   5.430   0.829   0.355 -0.3909 -0.7774  1.6209
 3901TIP3    H233263   5.302   0.908   0.361  0.1153  0.3996 -1.2673
 3902TIP3   OH233264   1.131   5.114   7.955 -0.0447  0.2317  0.2694
 3902TIP3    H133265   1.200   5.152   7.901  1.3054 -1.2871  0.8633
 3902TIP3    H233266   1.050   5.136   7.908  0.8139  1.8933 -0.5409
 3903TIP3   OH233267   4.004   5.822   0.800 -0.5922  0.2597  0.0225
 3903TIP3    H133268   3.914   5.792   0.793 -0.4466 -0.1564 -0.0901
 3903TIP3    H233269   4.057   5.742   0.797 -0.1686  0.5655 -0.8186
 3904TIP3   OH233270   2.247   4.588   0.403 -0.8936  0.2344 -0.0438
 3904TIP3    H133271   2.226   4.632   0.321 -1.3405  3.5415  1.6665
 3904TIP3    H233272   2.163   4.565   0.441 -0.6837 -1.4411 -0.4868
 3905TIP3   OH233273   4.781   0.840   7.341 -0.1681 -0.4569 -0.3743
 3905TIP3    H133274   4.852   0.901   7.360 -0.4067 -0.1152 -0.5617
 3905TIP3    H233275   4.721   0.850   7.415 -0.5309  0.0262 -0.7268
 3906TIP3   OH233276   3.893   3.726   1.084  0.0816  0.2643 -0.3459
 3906TIP3    H133277   3.841   3.646   1.074  1.6312 -1.0715  1.4658
 3906TIP3    H233278   3.897   3.764   0.996  0.9366 -2.7538 -1.7415
 3907TIP3   OH233279   0.800   4.661   0.181  0.0289  0.0872 -0.1242
 3907TIP3    H133280   0.822   4.740   0.131  0.5126  1.2748  1.8549
 3907TIP3    H233281   0.758   4.694   0.260 -0.6521 -1.7182  0.3106
 3908TIP3   OH233282   5.986   3.942   2.564  0.0173 -0.2448  0.0519
 3908TIP3    H133283   6.003   4.032   2.536  1.8538 -1.2807 -2.5061
 3908TIP3    H233284   5.961   3.896   2.484 -1.2844 -1.9730  1.3720
 3909TIP3   OH233285   5.629   3.178   1.274  0.0812 -0.2309  0.4057
 3909TIP3    H133286   5.546   3.157   1.317 -1.3919  1.5483 -1.3776
 3909TIP3    H233287   5.633   3.119   1.199  0.5693 -0.4507  0.5974
 3910TIP3   OH233288   2.458   6.959   0.283 -0.2690 -0.3910  0.3664
 3910TIP3    H133289   2.537   6.923   0.323  0.6412  1.7343  0.6314
 3910TIP3    H233290   2.448   7.046   0.323 -0.3352  1.1102 -2.6503
 3911TIP3   OH233291   4.259   4.968   0.646 -0.0497  0.0063  0.4583
 3911TIP3    H133292   4.170   4.979   0.612 -0.7307 -0.3278  2.0550
 3911TIP3    H233293   4.247   4.953   0.740  1.6268 -1.1039  0.5331
 3912TIP3   OH233294   3.468   6.967   7.992  0.2504  0.5628 -0.1722
 3912TIP3    H133295   3.506   6.957   7.905  0.1070 -3.7490  0.0564
 3912TIP3    H233296   3.388   6.914   7.989  0.3969  0.0295  2.6403
 3913TIP3   OH233297   1.836   4.823   7.840  0.6930 -0.2486 -0.0972
 3913TIP3    H133298   1.805   4.734   7.821  0.6610 -0.0308 -1.1021
 3913TIP3    H233299   1.757   4.873   7.857  0.7112 -0.4025  0.4753
 3914TIP3   OH233300   5.506   2.461   0.730 -0.7599 -0.1252 -0.6035
 3914TIP3    H133301   5.564   2.523   0.687 -0.9999 -0.0261 -0.7845
 3914TIP3    H233302   5.433   2.450   0.669 -1.3161  0.3520 -0.0339
 3915TIP3   OH233303   5.120   6.447   7.001  0.0418 -0.1955 -0.3820
 3915TIP3    H133304   5.190   6.485   6.947 -0.7029  1.1028 -0.4871
 3915TIP3    H233305   5.126   6.353   6.986  0.8500  0.0148 -1.5213
 3916TIP3   OH233306   1.282   6.504   0.098 -0.7748  0.3742 -0.1859
 3916TIP3    H133307   1.270   6.585   0.148 -0.9649  0.1635  0.1118
 3916TIP3    H233308   1.205   6.500   0.041 -1.4201 -0.2431  0.7049
 3917TIP3   OH233309   6.670   5.319   2.366  0.2565 -0.3131  0.2014
 3917TIP3    H133310   6.721   5.316   2.447  1.1972 -1.2592 -0.4077
 3917TIP3    H233311   6.734   5.306   2.297 -0.3251  1.8156 -0.8098
 3918TIP3   OH233312   5.505   4.096   8.005  0.3651 -0.4980 -0.0374
 3918TIP3    H133313   5.429   4.154   8.007  0.5083 -0.3224  1.9824
 3918TIP3    H233314   5.509   4.059   8.093  2.9433 -0.0633  0.1041
 3919TIP3   OH233315   4.723   3.076   1.760  0.1450 -0.1716 -0.3257
 3919TIP3    H133316   4.727   3.019   1.836  2.5452 -0.4493 -0.6089
 3919TIP3    H233317   4.629   3.080   1.739 -0.3755 -1.6437  1.4359
 3920TIP3   OH233318   4.788   5.509   7.489  0.3275  0.6798  0.9175
 3920TIP3    H133319   4.843   5.475   7.419 -0.2042 -0.0967  0.8710
 3920TIP3    H233320   4.839   5.497   7.568  0.8809  1.4489  0.6942
 3921TIP3   OH233321   3.230   0.581   1.563  0.2364 -0.0667  0.4434
 3921TIP3    H133322   3.283   0.504   1.543  0.0298 -0.4515  1.3608
 3921TIP3    H233323   3.189   0.603   1.479  1.5948  0.0648 -0.2176
 3922TIP3   OH233324   3.578   4.313   6.482 -0.0368 -0.0317 -0.1871
 3922TIP3    H133325   3.579   4.336   6.575 -0.7457  1.1889 -0.4593
 3922TIP3    H233326   3.557   4.220   6.481  1.5764 -0.4581  0.9126
 3923TIP3   OH233327   6.507   5.072   1.798 -0.3161 -0.1617 -0.5357
 3923TIP3    H133328   6.413   5.061   1.786 -0.4493  0.9384 -0.5878
 3923TIP3    H233329   6.525   5.034   1.885 -0.2105 -3.3923 -1.8266
 3924TIP3   OH233330   1.603   2.549   7.865 -0.5369  0.0882  0.1338
 3924TIP3    H133331   1.609   2.472   7.809  0.1843  1.4106 -1.6884
 3924TIP3    H233332   1.689   2.557   7.906 -0.5264  0.0687  0.1147
 3925TIP3   OH233333   2.504   5.394   7.372 -0.1443  0.1225 -0.8785
 3925TIP3    H133334   2.526   5.464   7.310 -0.5526  0.4425 -0.6697
 3925TIP3    H233335   2.561   5.321   7.348  1.7284  1.1622  0.1432
 3926TIP3   OH233336   0.846   1.239   0.346  0.5397 -0.6701  0.0681
 3926TIP3    H133337   0.891   1.237   0.430  2.0458 -0.7720 -0.7107
 3926TIP3    H233338   0.901   1.185   0.288 -0.9718 -1.4005 -0.7431
 3927TIP3   OH233339   1.274   0.006   6.423  0.3525  0.4885  0.0772
 3927TIP3    H133340   1.322   0.049   6.352  1.3142  0.6571  0.8091
 3927TIP3    H233341   1.338  -0.054   6.462 -0.5850 -0.6680 -0.1018
 3928TIP3   OH233342   0.444   3.860   0.696  0.0728 -0.0280  0.3211
 3928TIP3    H133343   0.392   3.833   0.772  0.2176 -2.4807 -0.3925
 3928TIP3    H233344   0.530   3.822   0.711 -0.0105 -0.8921 -1.2564
 3929TIP3   OH233345   5.184   5.867   6.857 -0.2241  0.2193  0.6724
 3929TIP3    H133346   5.246   5.940   6.856 -0.4910  0.4711  1.4840
 3929TIP3    H233347   5.186   5.832   6.768 -0.7036  1.7244  0.0553
 3930TIP3   OH233348   2.955   3.271   0.697  0.4382  0.0253  0.3130
 3930TIP3    H133349   2.867   3.309   0.701 -0.2714 -0.4345 -4.4817
 3930TIP3    H233350   2.942   3.184   0.661  2.7977  0.0601 -0.8626
 3931TIP3   OH233351   0.760   3.795   7.454  0.0591  0.2403 -0.5481
 3931TIP3    H133352   0.827   3.829   7.393  1.6259  0.7009  1.3363
 3931TIP3    H233353   0.704   3.871   7.472  1.7799  1.1570  1.3321
 3932TIP3   OH233354   3.315   2.777   7.881  0.4035  1.2141  0.4612
 3932TIP3    H133355   3.228   2.761   7.845  0.8004  0.2964 -0.1394
 3932TIP3    H233356   3.313   2.868   7.909 -1.7833  0.3929  3.4364
 3933TIP3   OH233357   4.917   6.099   2.469 -0.0957  0.1676 -0.0511
 3933TIP3    H133358   4.956   6.148   2.541  0.5990  1.1404 -1.0632
 3933TIP3    H233359   4.990   6.052   2.430 -0.1120  1.0789 -1.2335
 3934TIP3   OH233360   7.036   4.834   7.343 -0.5014  0.0958  0.8404
 3934TIP3    H133361   6.949   4.814   7.310  0.1020  0.7370 -1.3434
 3934TIP3    H233362   7.069   4.901   7.283  2.0493 -1.1992  0.6615
 3935TIP3   OH233363   5.479   0.748   2.194 -0.5746  0.1880 -0.3509
 3935TIP3    H133364   5.422   0.825   2.195  0.7477  1.1904  0.1494
 3935TIP3    H233365   5.431   0.682   2.244 -1.4541  0.8805 -0.2589
 3936TIP3   OH233366   4.186   1.965   0.544  0.3337 -0.2252 -0.0271
 3936TIP3    H133367   4.240   2.034   0.505 -0.7337  0.7040  0.1144
 3936TIP3    H233368   4.103   2.007   0.566 -0.0922 -1.3849  0.7248
 3937TIP3   OH233369   1.755   0.427   1.351 -0.3495 -0.4458  0.6214
 3937TIP3    H133370   1.792   0.438   1.263  1.4475  4.0956  1.6619
 3937TIP3    H233371   1.824   0.385   1.402 -0.1501 -0.2035  0.5521
 3938TIP3   OH233372   4.867   0.769   7.047 -0.0060  0.0496  0.3745
 3938TIP3    H133373   4.827   0.772   7.134  0.4941 -3.5757  0.9043
 3938TIP3    H233374   4.960   0.753   7.064  0.3288  0.5368 -0.8556
 3939TIP3   OH233375   6.053   3.046   1.188 -0.3611 -0.4570  0.2227
 3939TIP3    H133376   6.016   3.022   1.273 -0.2303  0.4751  0.5470
 3939TIP3    H233377   6.040   3.140   1.182 -0.7900 -0.5779 -1.0021
 3940TIP3   OH233378   2.218   0.871   0.185 -0.4955 -0.0554  0.5714
 3940TIP3    H133379   2.156   0.803   0.211  0.7774 -1.4189  0.2124
 3940TIP3    H233380   2.166   0.931   0.131 -1.1335 -2.2276 -1.4003
 3941TIP3   OH233381   3.127   5.756   0.825  0.6090  0.5176  0.0977
 3941TIP3    H133382   3.095   5.838   0.862  1.1493  0.7503  0.0628
 3941TIP3    H233383   3.103   5.761   0.732  0.5241  0.5741  0.1224
 3942TIP3   OH233384   2.888   4.440   1.343  0.4112  0.7359 -0.2017
 3942TIP3    H133385   2.907   4.353   1.308 -0.0697  0.9153 -0.9417
 3942TIP3    H233386   2.974   4.477   1.362  0.5816 -0.4503  1.5607
 3943TIP3   OH233387   4.739   7.061   6.726  0.4072 -0.1190 -0.6068
 3943TIP3    H133388   4.820   7.079   6.679  0.8922 -0.0624  0.2319
 3943TIP3    H233389   4.680   7.026   6.659  1.0691 -0.0234 -1.2572
 3944TIP3   OH233390   2.072   4.613   1.819  0.6257  0.5495 -0.1769
 3944TIP3    H133391   2.017   4.672   1.871  1.1194  1.2506 -0.4323
 3944TIP3    H233392   2.012   4.575   1.755  0.1004  0.0061  0.6192
 3945TIP3   OH233393   1.130   2.266   1.554  0.1744 -0.1221  0.2337
 3945TIP3    H133394   1.046   2.238   1.593 -0.0622 -2.2425 -1.6060
 3945TIP3    H233395   1.118   2.359   1.534 -1.3053 -0.1102  1.0485
 3946TIP3   OH233396   2.271   1.515   7.893  0.1612  0.7627  0.1635
 3946TIP3    H133397   2.252   1.597   7.848  2.0757  0.9922 -0.3285
 3946TIP3    H233398   2.297   1.455   7.823  0.2507  0.2116  0.6663
 3947TIP3   OH233399   4.119   4.775   7.482  0.3597  0.4711  0.5209
 3947TIP3    H133400   4.107   4.809   7.394  1.8975 -0.3759 -0.0521
 3947TIP3    H233401   4.186   4.831   7.521 -0.9200  1.3821  1.4968
 3948TIP3   OH233402   3.302   4.286   6.288  0.1370 -0.2073 -0.0560
 3948TIP3    H133403   3.220   4.269   6.335  0.1035 -0.5658 -0.2453
 3948TIP3    H233404   3.350   4.203   6.293  0.2595 -0.1564 -0.4070
 3949TIP3   OH233405   3.374   4.182   1.277  0.0075  0.5094  0.4197
 3949TIP3    H133406   3.435   4.122   1.236  0.6682  1.3305  0.1659
 3949TIP3    H233407   3.410   4.198   1.364 -0.5511 -0.0038  0.7588
 3950TIP3   OH233408   3.217   3.065   2.395  0.0598 -0.1590 -0.0330
 3950TIP3    H133409   3.224   3.126   2.469 -0.4898 -0.3160  0.1517
 3950TIP3    H233410   3.308   3.039   2.376  0.1980 -0.1478  0.6075
 3951TIP3   OH233411   1.125   4.268   0.871  0.1037 -0.3454 -0.6365
 3951TIP3    H133412   1.163   4.354   0.888  0.6582 -0.4129 -1.4843
 3951TIP3    H233413   1.171   4.236   0.794 -1.1972 -0.7318 -1.2739
 3952TIP3   OH233414   2.559   6.704   0.486  0.8352 -0.2864  0.5639
 3952TIP3    H133415   2.567   6.696   0.581  0.6146 -1.0144  0.5283
 3952TIP3    H233416   2.634   6.758   0.460 -0.5379  2.1687  1.4307
 3953TIP3   OH233417   6.142   4.330   7.471 -0.0131  0.0264 -0.6283
 3953TIP3    H133418   6.165   4.253   7.419 -1.7796 -0.1629 -1.1780
 3953TIP3    H233419   6.097   4.295   7.548 -1.8572  0.5091 -1.4313
 3954TIP3   OH233420   2.074   6.595   2.495 -0.0938 -0.1675 -1.0879
 3954TIP3    H133421   2.120   6.518   2.462 -4.7305 -3.6414 -0.3876
 3954TIP3    H233422   2.108   6.607   2.584 -0.1053 -2.1878 -0.7776
 3955TIP3   OH233423   3.888   2.353   0.739 -0.2334  0.2851  0.4369
 3955TIP3    H133424   3.875   2.415   0.666  0.2919 -1.2115 -0.9944
 3955TIP3    H233425   3.880   2.267   0.698  0.7487 -0.6037  2.0521
 3956TIP3   OH233426   1.346   2.841   7.267  0.0360  0.1628  0.1527
 3956TIP3    H133427   1.372   2.775   7.331 -2.2829 -0.7978  0.2197
 3956TIP3    H233428   1.288   2.899   7.315  0.3729  1.0061 -0.4378
 3957TIP3   OH233429   0.041   1.546   8.001 -0.6908  0.0863 -0.3100
 3957TIP3    H133430   0.003   1.479   8.058  1.1887  0.7064  1.8184
 3957TIP3    H233431   0.037   1.626   8.053 -1.0637  1.2305 -2.0291
 3958TIP3   OH233432   5.550   6.322   2.220 -0.3872  0.0118 -0.0608
 3958TIP3    H133433   5.482   6.280   2.168  0.0818 -1.4398  0.4357
 3958TIP3    H233434   5.562   6.263   2.295  0.1949  1.1385  0.7578
 3959TIP3   OH233435   6.923   3.987   0.154  0.3017  1.1187  0.2265
 3959TIP3    H133436   7.015   3.984   0.179  0.1877  1.3279  0.6962
 3959TIP3    H233437   6.893   4.073   0.184  0.4258  1.8606 -1.6542
 3960TIP3   OH233438   1.373   0.323   1.601 -0.0655 -0.5053  0.0560
 3960TIP3    H133439   1.285   0.285   1.595  0.3754 -2.2554  2.8853
 3960TIP3    H233440   1.432   0.250   1.583  0.8510  0.4540 -0.9590
 3961TIP3   OH233441   1.694   0.534   2.689  0.0153  0.0426 -0.1929
 3961TIP3    H133442   1.671   0.627   2.694  0.1929  0.0550  0.4439
 3961TIP3    H233443   1.760   0.521   2.757 -1.0016 -0.8369  0.6692
 3962TIP3   OH233444   0.252   2.248   7.504  0.1045  0.0546  0.3868
 3962TIP3    H133445   0.330   2.253   7.559 -0.3839 -2.8587  1.5039
 3962TIP3    H233446   0.285   2.223   7.418  0.5127  0.4488  0.4235
 3963TIP3   OH233447   1.634   3.455   0.579 -0.4891 -0.0481 -0.4453
 3963TIP3    H133448   1.728   3.468   0.565 -0.1803 -0.5537  0.9990
 3963TIP3    H233449   1.620   3.475   0.672 -1.5935 -1.0906 -0.3592
 3964TIP3   OH233450   0.836   1.867   7.527  1.1921 -0.3310 -0.7090
 3964TIP3    H133451   0.928   1.849   7.508  1.0688  0.6502 -2.4421
 3964TIP3    H233452   0.830   1.963   7.531 -0.0540 -0.2850 -2.5039
 3965TIP3   OH233453   2.021   0.633   1.018 -0.0019 -0.6648  0.0043
 3965TIP3    H133454   1.949   0.696   1.005  0.8754  0.4853  0.5865
 3965TIP3    H233455   2.100   0.685   1.010  0.7678 -1.7989  0.0590
 3966TIP3   OH233456   2.444   0.228   1.472 -0.4955 -0.5468 -0.4096
 3966TIP3    H133457   2.404   0.253   1.556 -0.2928  0.5691 -0.6226
 3966TIP3    H233458   2.521   0.284   1.466 -0.4866 -0.6503 -1.3243
 3967TIP3   OH233459   5.165   6.935   0.440  0.1234 -0.1639 -0.0947
 3967TIP3    H133460   5.070   6.950   0.438  0.4369  2.2213 -1.0190
 3967TIP3    H233461   5.180   6.865   0.376 -1.1159 -1.7126  1.2308
 3968TIP3   OH233462   0.806   7.130   1.336  0.0256 -0.2809 -0.3706
 3968TIP3    H133463   0.836   7.043   1.309  0.5501 -0.1604 -0.1954
 3968TIP3    H233464   0.710   7.125   1.333  0.0592 -0.4861 -1.5584
 3969TIP3   OH233465   1.558   2.024   2.201 -0.7096 -0.2035 -0.1102
 3969TIP3    H133466   1.625   2.056   2.262 -0.1768  2.7268 -2.0366
 3969TIP3    H233467   1.483   2.002   2.257  0.6363 -0.2055  1.7991
 3970TIP3   OH233468   1.372   5.252   7.240 -0.2706 -0.3910 -0.2408
 3970TIP3    H133469   1.371   5.314   7.313 -3.3511  0.0231 -0.4803
 3970TIP3    H233470   1.435   5.185   7.267  1.6751  1.7304  0.9310
 3971TIP3   OH233471   6.510   2.716   6.528  0.3575  0.7135 -0.2416
 3971TIP3    H133472   6.519   2.745   6.437 -2.0707  1.1166 -0.4089
 3971TIP3    H233473   6.467   2.789   6.572 -2.6869 -1.1557  0.1368
 3972TIP3   OH233474   5.492   2.406   7.510 -0.6786  0.2824 -0.0830
 3972TIP3    H133475   5.498   2.343   7.438 -0.5483 -0.4233  0.5268
 3972TIP3    H233476   5.406   2.446   7.500 -0.2488  0.9393 -1.2272
 3973TIP3   OH233477   1.391   0.464   0.842 -0.0877  0.0997  0.4467
 3973TIP3    H133478   1.442   0.505   0.912 -1.3791  1.3846  0.6908
 3973TIP3    H233479   1.300   0.467   0.874 -0.8670  1.6845 -1.6629
 3974TIP3   OH233480   0.409   2.075   0.584  0.2120 -0.0621 -1.0774
 3974TIP3    H133481   0.482   2.057   0.525  0.4365  1.2006 -1.2113
 3974TIP3    H233482   0.414   2.170   0.600  0.4378 -0.4092  1.3220
 3975TIP3   OH233483   1.618   3.010   2.250 -0.1843 -0.0553  0.1371
 3975TIP3    H133484   1.688   2.979   2.193 -0.7736  0.5194 -0.9554
 3975TIP3    H233485   1.637   3.103   2.262 -1.2364  0.3343 -0.9659
 3976TIP3   OH233486   5.245   3.803   7.119  0.0639  0.6658 -0.2602
 3976TIP3    H133487   5.187   3.728   7.118 -1.4153  1.7483 -1.6224
 3976TIP3    H233488   5.334   3.766   7.119 -0.6153 -1.0743 -1.4831
 3977TIP3   OH233489   5.614   5.864   0.097  0.4724  0.5633 -0.0541
 3977TIP3    H133490   5.688   5.804   0.090  0.4035  0.5522 -0.7078
 3977TIP3    H233491   5.583   5.853   0.187  1.2917  0.6035  0.2452
 3978TIP3   OH233492   6.101   6.642   6.165  0.9224 -0.0217 -0.6494
 3978TIP3    H133493   6.026   6.649   6.105  0.8339 -0.7186 -0.6273
 3978TIP3    H233494   6.135   6.553   6.150 -0.6239 -1.1773  2.1190
 3979TIP3   OH233495   4.572   3.067   6.952 -0.7004 -0.0896  0.2777
 3979TIP3    H133496   4.551   3.028   6.866  0.6283  0.3192 -0.2503
 3979TIP3    H233497   4.542   3.002   7.015 -0.9870 -0.7548 -0.5203
 3980TIP3   OH233498   5.359   2.944   6.683 -0.1667  0.5736  0.0424
 3980TIP3    H133499   5.322   3.030   6.703 -0.4149  0.8415 -1.3996
 3980TIP3    H233500   5.283   2.887   6.672  0.0130 -0.0313  1.6805
 3981TIP3   OH233501   2.748   2.750   1.291 -0.5707 -0.6244  0.0469
 3981TIP3    H133502   2.653   2.747   1.281 -0.6071  2.3568 -1.6353
 3981TIP3    H233503   2.782   2.723   1.206  0.1210 -1.5036  0.5859
 3982TIP3   OH233504   6.057   0.399   0.184  0.4820  0.3798  0.3726
 3982TIP3    H133505   6.028   0.420   0.096  1.4577  0.6590  0.1039
 3982TIP3    H233506   6.033   0.307   0.196  0.3373  0.3429 -0.1820
 3983TIP3   OH233507   5.594   3.259   0.102  0.1977  0.1348 -0.7270
 3983TIP3    H133508   5.687   3.237   0.105  0.2660  0.4880 -0.2348
 3983TIP3    H233509   5.572   3.257   0.008  0.2184 -1.9075 -0.7310
 3984TIP3   OH233510   4.907   2.725   1.413  0.1202 -0.3014 -0.0875
 3984TIP3    H133511   4.840   2.737   1.346 -1.2547  0.9792  1.4221
 3984TIP3    H233512   4.953   2.646   1.387 -1.2984 -0.6437 -1.7497
 3985TIP3   OH233513   0.260   4.910   2.239  0.8298  0.1179  0.2447
 3985TIP3    H133514   0.316   4.840   2.272 -1.4621 -1.4152  1.1749
 3985TIP3    H233515   0.223   4.876   2.157  0.0962  0.4259  0.4319
 3986TIP3   OH233516   0.636   6.426   1.066 -0.0871 -0.2118  0.4402
 3986TIP3    H133517   0.565   6.465   1.117 -1.1461 -1.8213  0.2707
 3986TIP3    H233518   0.598   6.415   0.978  0.2271 -1.4274  0.4460
 3987TIP3   OH233519   1.380   4.576   0.626  0.2717  0.3211  0.6817
 3987TIP3    H133520   1.390   4.595   0.532 -0.0741  2.4877  1.0275
 3987TIP3    H233521   1.431   4.497   0.640  0.5516  0.0964 -1.2840
 3988TIP3   OH233522   3.465   1.297   0.576 -0.4052  0.3968 -0.5141
 3988TIP3    H133523   3.372   1.276   0.577 -0.4501  0.5234 -1.3785
 3988TIP3    H233524   3.485   1.315   0.484  0.0711  2.1405 -0.1147
 3989TIP3   OH233525   6.450   5.760   0.159  0.7317  0.2224  0.2920
 3989TIP3    H133526   6.516   5.753   0.228 -0.9240  1.0957  2.0827
 3989TIP3    H233527   6.439   5.854   0.146 -1.2647  0.1879  1.2544
 3990TIP3   OH233528   2.171   2.119   2.308 -0.0635  0.7135 -0.1905
 3990TIP3    H133529   2.080   2.138   2.282 -0.2679 -1.3185 -1.1518
 3990TIP3    H233530   2.223   2.185   2.262 -1.0568  2.3332  0.8979
 3991TIP3   OH233531   3.983   2.611   1.263 -0.0770 -0.5842 -0.1137
 3991TIP3    H133532   3.893   2.637   1.280 -0.4028 -2.1116  0.7072
 3991TIP3    H233533   3.991   2.610   1.168 -0.9410 -0.4680 -0.1879
 3992TIP3   OH233534   5.801   2.578   0.444  0.3715 -0.0916  0.0287
 3992TIP3    H133535   5.728   2.640   0.447  3.2208  3.7225 -0.6519
 3992TIP3    H233536   5.795   2.539   0.357 -1.8165 -1.3669  0.6705
 3993TIP3   OH233537   1.662   5.727   1.753 -0.4711  0.2376  0.5602
 3993TIP3    H133538   1.620   5.706   1.836 -1.2728  0.1734  0.1414
 3993TIP3    H233539   1.673   5.822   1.754  0.8119  0.1105  1.3375
 3994TIP3   OH233540   5.516   0.766   7.685 -0.7174  0.0978  0.6790
 3994TIP3    H133541   5.440   0.811   7.648 -0.5200 -1.1901 -1.4520
 3994TIP3    H233542   5.492   0.749   7.776 -3.0403 -0.3910  0.0293
 3995TIP3   OH233543   0.580   2.477   0.141  0.1582  0.4175 -0.2786
 3995TIP3    H133544   0.590   2.563   0.181  0.6871  0.9080 -1.4401
 3995TIP3    H233545   0.655   2.427   0.174 -0.1892  0.3634  0.4551
 3996TIP3   OH233546   4.833   6.029   7.577 -0.2103  0.1652 -0.2556
 3996TIP3    H133547   4.845   5.936   7.561  0.2035  0.3819 -1.2732
 3996TIP3    H233548   4.920   6.067   7.567 -0.3549  0.6572  0.2567
 3997TIP3   OH233549   7.039   5.844   2.458 -0.1976 -0.8400 -0.0232
 3997TIP3    H133550   7.105   5.778   2.439 -0.5700 -1.4722  0.8235
 3997TIP3    H233551   6.956   5.797   2.449 -0.6322  0.2140 -2.2023
 3998TIP3   OH233552   0.008   5.052   1.125 -0.5894 -0.1187  0.0157
 3998TIP3    H133553   0.010   4.972   1.178 -0.1856  0.4113  0.8336
 3998TIP3    H233554  -0.060   5.105   1.165  0.7212  0.9081  0.9705
 3999TIP3   OH233555   4.909   1.903   6.557 -0.9395 -0.6050 -0.1542
 3999TIP3    H133556   4.911   1.818   6.601 -0.9892 -0.8544 -0.6229
 3999TIP3    H233557   4.819   1.934   6.571 -0.8064 -0.4461  0.3553
 4000TIP3   OH233558   5.683   1.322   1.722 -0.2337  0.3538 -0.0608
 4000TIP3    H133559   5.701   1.257   1.654 -1.9714  0.6315 -0.8324
 4000TIP3    H233560   5.763   1.323   1.775  0.9090 -0.3761 -1.6696
 4001TIP3   OH233561   0.059   0.005   0.824 -0.1607  0.4868 -0.7900
 4001TIP3    H133562   0.088   0.000   0.915  0.1621  1.5353 -0.8340
 4001TIP3    H233563  -0.003  -0.068   0.815 -0.2292  0.4074  0.2766
 4002TIP3   OH233564   3.349   1.909   1.179  0.1739 -0.2472 -0.5726
 4002TIP3    H133565   3.393   1.956   1.108  0.5147  0.0140 -0.1982
 4002TIP3    H233566   3.263   1.887   1.144  0.6367 -0.8684 -1.3695
 4003TIP3   OH233567   4.416   1.160   7.859 -0.1606  0.0417 -0.6062
 4003TIP3    H133568   4.503   1.119   7.855  0.0126  0.4613 -1.6331
 4003TIP3    H233569   4.372   1.116   7.932  2.0532  2.0856  2.1838
 4004TIP3   OH233570   6.310   1.452   1.219  0.1975 -0.3604 -0.0074
 4004TIP3    H133571   6.281   1.409   1.299  1.0002  0.2996  0.6517
 4004TIP3    H233572   6.237   1.439   1.158 -1.3273  0.8677  1.4520
 4005TIP3   OH233573   4.739   6.024   0.775  0.2429 -0.6217 -0.0940
 4005TIP3    H133574   4.718   5.964   0.846  0.0883  1.6884  1.9673
 4005TIP3    H233575   4.684   6.101   0.792  2.1119  1.0408 -1.1816
 4006TIP3   OH233576   4.976   4.314   6.977  0.3199  0.0256  0.1255
 4006TIP3    H133577   4.881   4.308   6.969  0.1845  0.8916  0.9727
 4006TIP3    H233578   5.000   4.241   7.032  0.2138 -0.5058 -0.5184
 4007TIP3   OH233579   0.001   2.897   0.032 -0.6618 -0.4328 -0.2190
 4007TIP3    H133580  -0.060   2.907   0.105 -0.6494 -0.0128 -0.2594
 4007TIP3    H233581   0.061   2.971   0.041 -1.1810  0.1222 -1.1319
 4008TIP3   OH233582   0.956   2.090   0.840 -0.2519 -0.3860  0.1976
 4008TIP3    H133583   0.878   2.132   0.804 -1.6374 -1.4924  1.7350
 4008TIP3    H233584   0.955   2.114   0.932 -1.1161 -3.5922  1.1643
 4009TIP3   OH233585   4.689   4.978   7.329  0.0642  0.4055  0.4890
 4009TIP3    H133586   4.687   4.995   7.235  0.4775 -1.2318  0.1565
 4009TIP3    H233587   4.598   4.956   7.351  0.4293 -2.0287 -0.1408
 4010TIP3   OH233588   5.064   1.187   1.230  0.2632 -0.4119  0.0424
 4010TIP3    H133589   5.049   1.222   1.142  1.5557 -0.9184 -0.3931
 4010TIP3    H233590   5.057   1.264   1.287 -0.1096  0.0037 -0.5509
 4011TIP3   OH233591   3.042   0.749   0.740 -0.6490  0.1004 -0.0444
 4011TIP3    H133592   2.988   0.765   0.817 -1.5675 -0.8706 -0.4461
 4011TIP3    H233593   3.128   0.782   0.763 -0.9167 -0.1213  1.3835
 4012TIP3   OH233594   3.784   6.737   8.011  0.0481 -0.3691 -0.1194
 4012TIP3    H133595   3.708   6.693   7.973 -0.1079 -0.3408  0.1607
 4012TIP3    H233596   3.749   6.786   8.085  0.0518  0.9609 -0.9445
 4013TIP3   OH233597   5.399   0.068   7.000 -0.4301 -0.1063 -0.3617
 4013TIP3    H133598   5.444  -0.015   7.016  0.3181  0.1978 -0.8433
 4013TIP3    H233599   5.306   0.048   7.016  0.0209 -0.2372  2.5966
 4014TIP3   OH233600   1.153   3.631   2.071 -0.4465  0.2940 -0.3572
 4014TIP3    H133601   1.063   3.615   2.043 -0.1219  1.1322 -2.0382
 4014TIP3    H233602   1.204   3.627   1.990  0.8447  1.0507  0.3814
 4015TIP3   OH233603   0.410   1.079   7.887  0.2404  0.2401  0.1433
 4015TIP3    H133604   0.319   1.090   7.917 -0.4375 -3.2082 -0.2051
 4015TIP3    H233605   0.462   1.080   7.967 -0.6483 -1.5019  0.8015
 4016TIP3   OH233606   6.761   5.967   6.942 -0.3961  0.7127  0.4402
 4016TIP3    H133607   6.764   5.983   6.848  1.2845 -0.1847  0.3038
 4016TIP3    H233608   6.849   5.939   6.965 -0.4252  2.0592  2.5155
 4017TIP3   OH233609   6.641   2.146   7.901  0.9121  0.3301 -0.7210
 4017TIP3    H133610   6.633   2.180   7.812 -1.0040 -0.7026 -1.0045
 4017TIP3    H233611   6.593   2.210   7.954  0.4585 -0.0061 -0.7192
 4018TIP3   OH233612   1.302   1.636   7.285 -0.6342 -0.1879  0.1527
 4018TIP3    H133613   1.296   1.645   7.190  0.3437  1.7965  0.2226
 4018TIP3    H233614   1.381   1.584   7.299 -1.2613 -1.2443 -0.1082
 4019TIP3   OH233615   3.477   6.289   6.430  0.1449  0.2716 -0.1218
 4019TIP3    H133616   3.402   6.319   6.481 -0.5974 -0.5529 -0.7017
 4019TIP3    H233617   3.496   6.202   6.464  0.1695  0.0557 -0.6771
 4020TIP3   OH233618   4.138   7.126   1.936  0.5428 -0.2878  0.0636
 4020TIP3    H133619   4.075   7.191   1.904 -1.0211 -1.4945  0.5593
 4020TIP3    H233620   4.201   7.178   1.986 -0.6873  0.8693  0.4889
 4021TIP3   OH233621   0.282   6.085   1.368 -0.0561  0.2952  0.2049
 4021TIP3    H133622   0.195   6.046   1.372  0.0000  0.2314  2.0719
 4021TIP3    H233623   0.269   6.178   1.384  0.2247  0.2377  0.8188
 4022TIP3   OH233624   3.338   4.479   6.855 -0.1029 -0.2020 -0.3668
 4022TIP3    H133625   3.329   4.457   6.947  2.8244 -0.5818 -0.0657
 4022TIP3    H233626   3.322   4.573   6.850 -1.0891 -0.3220  0.3641
 4023TIP3   OH233627   0.263   3.890   1.485 -0.1844  0.0178  0.4049
 4023TIP3    H133628   0.200   3.962   1.487 -0.1287  0.0599  0.7357
 4023TIP3    H233629   0.338   3.923   1.536  0.0384 -0.0908  0.1490
 4024TIP3   OH233630   6.529   2.525   1.385 -0.2814 -0.7552 -0.1537
 4024TIP3    H133631   6.531   2.429   1.391 -3.0407 -0.8627  0.0873
 4024TIP3    H233632   6.444   2.550   1.420  0.5002  1.8548  0.1065
 4025TIP3   OH233633   4.891   4.998   2.785  0.0191  0.0583  0.2440
 4025TIP3    H133634   4.957   4.929   2.790 -0.1361 -0.1212 -0.1915
 4025TIP3    H233635   4.940   5.079   2.798  0.4544 -0.0068 -0.9036
 4026TIP3   OH233636   2.788   6.410   0.019  0.0480 -0.2827  0.0273
 4026TIP3    H133637   2.793   6.410   0.115  0.2955  0.9777  0.0328
 4026TIP3    H233638   2.875   6.439  -0.009 -0.0374 -0.6168 -0.5892
 4027TIP3   OH233639   4.775   2.229   0.317 -0.0657  0.3740  0.1641
 4027TIP3    H133640   4.777   2.312   0.268  1.3191  1.2932  1.6612
 4027TIP3    H233641   4.738   2.166   0.255 -0.1817  1.8708 -1.3916
 4028TIP3   OH233642   4.448   5.843   6.350 -0.0645  0.2225 -0.0716
 4028TIP3    H133643   4.456   5.749   6.366  0.8700  0.2803 -0.1348
 4028TIP3    H233644   4.531   5.867   6.310 -0.7329  0.8778 -1.0838
 4029TIP3   OH233645   5.794   1.487   6.857  0.0742 -0.0367  0.8326
 4029TIP3    H133646   5.726   1.519   6.798 -0.5010 -1.1856  0.8503
 4029TIP3    H233647   5.876   1.518   6.817 -0.2540 -1.2541 -0.9066
 4030TIP3   OH233648   2.817   0.084   7.530 -0.0379  0.4683 -0.4286
 4030TIP3    H133649   2.894   0.101   7.475 -1.0245  2.4988 -1.2956
 4030TIP3    H233650   2.823  -0.009   7.552  3.1140  0.7196  0.2760
 4031TIP3   OH233651   5.296   5.843   2.375  0.0555  0.1807  0.3424
 4031TIP3    H133652   5.334   5.930   2.390  0.4083 -0.1028  1.1267
 4031TIP3    H233653   5.277   5.810   2.463  0.3372 -0.7159  0.0696
 4032TIP3   OH233654   0.515   6.899   3.010  0.3285  0.0137  0.1916
 4032TIP3    H133655   0.598   6.859   2.986  0.4999 -0.7533  1.9207
 4032TIP3    H233656   0.449   6.847   2.964  0.7579  0.7556 -1.3539
 4033TIP3   OH233657   0.308   2.670   6.721  0.2642  0.5556  0.5389
 4033TIP3    H133658   0.267   2.751   6.751  0.2304  0.6444  0.2505
 4033TIP3    H233659   0.402   2.689   6.718  0.3999  0.1948  1.7074
 4034TIP3   OH233660   3.498   6.029   6.525  0.1701  0.3106 -0.9621
 4034TIP3    H133661   3.533   5.970   6.592  0.1723  0.3248 -0.9511
 4034TIP3    H233662   3.426   5.980   6.486 -0.3770  0.6289 -0.3787
 4035TIP3   OH233663   3.338   6.183   0.034 -0.8114 -0.1233 -0.4125
 4035TIP3    H133664   3.403   6.193   0.103  1.4151 -1.9485 -2.0983
 4035TIP3    H233665   3.254   6.186   0.080  0.2841  3.0923  1.7664
 4036TIP3   OH233666   6.959   5.317   7.395 -0.3855 -0.6083 -0.3828
 4036TIP3    H133667   7.034   5.372   7.372 -0.2010 -0.0731  1.3278
 4036TIP3    H233668   6.935   5.273   7.314  1.5323 -0.4787 -1.0653
 4037TIP3   OH233669   2.538   6.334   0.166 -0.0949 -0.0347 -0.4136
 4037TIP3    H133670   2.570   6.253   0.125  3.3373  0.3461  1.2069
 4037TIP3    H233671   2.545   6.400   0.097  0.2384 -0.4806 -0.8176
 4038TIP3   OH233672   5.358   6.851   2.029 -0.4765  0.3810 -0.4105
 4038TIP3    H133673   5.418   6.848   1.955  1.2326 -0.3174  0.9243
 4038TIP3    H233674   5.348   6.944   2.048  2.6108  0.5132  1.1224
 4039TIP3   OH233675   3.182   3.953   0.224  0.2456  0.0956 -0.4253
 4039TIP3    H133676   3.149   3.914   0.143 -0.4933 -1.0594  0.4120
 4039TIP3    H233677   3.112   4.012   0.253  0.0558 -0.3046 -0.0673
 4040TIP3   OH233678   3.006   5.286   0.211  0.5769  1.3106 -0.2402
 4040TIP3    H133679   2.981   5.327   0.128  0.6273 -0.7814 -1.3542
 4040TIP3    H233680   2.957   5.204   0.213  0.8978  1.1167  1.6339
 4041TIP3   OH233681   0.034   0.324   0.440 -0.3478  0.3681 -0.2729
 4041TIP3    H133682   0.068   0.368   0.362 -0.4358 -1.1839 -1.2437
 4041TIP3    H233683  -0.059   0.313   0.424 -0.0448 -1.7635 -0.9459
 4042TIP3   OH233684   2.806   4.355   0.947  0.4158  0.2162 -0.1293
 4042TIP3    H133685   2.741   4.326   1.011 -1.5058  0.4247 -1.8586
 4042TIP3    H233686   2.853   4.425   0.991 -2.7084  2.3096  0.2157
 4043TIP3   OH233687   2.261   3.114   0.235  0.0569  0.1691 -0.1882
 4043TIP3    H133688   2.206   3.054   0.285 -2.3440  0.5669 -2.1832
 4043TIP3    H233689   2.261   3.195   0.286 -1.4928  0.2527 -0.2854
 4044TIP3   OH233690   2.124   5.180   6.793 -0.3765 -0.0793 -0.7433
 4044TIP3    H133691   2.052   5.127   6.759  0.4158 -1.3557 -0.5143
 4044TIP3    H233692   2.194   5.170   6.728  0.6091 -1.2867  0.4394
 4045TIP3   OH233693   2.587   2.332   1.390  0.2977 -0.0101 -0.5912
 4045TIP3    H133694   2.653   2.400   1.379 -0.6176  1.3387  1.6528
 4045TIP3    H233695   2.588   2.312   1.483 -0.1697 -2.3962 -1.0259
 4046TIP3   OH233696   4.132   6.681   1.653  0.4594 -0.0760  0.2986
 4046TIP3    H133697   4.226   6.679   1.633  0.3027  0.4063 -0.5033
 4046TIP3    H233698   4.128   6.716   1.742  1.0734 -0.7294  0.5967
 4047TIP3   OH233699   0.868   2.900   7.535  0.9619  0.4063 -0.4584
 4047TIP3    H133700   0.828   2.964   7.475  0.3570  0.4156 -0.0541
 4047TIP3    H233701   0.902   2.832   7.478 -1.3519 -0.5877 -0.7667
 4048TIP3   OH233702   1.846   0.728   1.669 -0.6110  0.1953 -0.3640
 4048TIP3    H133703   1.811   0.741   1.757 -2.4995  2.1428 -1.3224
 4048TIP3    H233704   1.769   0.713   1.614  0.6413 -3.2549 -1.4443
 4049TIP3   OH233705   5.967   5.271   2.383 -0.4211  0.0425  0.0447
 4049TIP3    H133706   5.933   5.199   2.435  0.5924 -1.1518 -0.8999
 4049TIP3    H233707   5.891   5.327   2.367 -0.9961 -0.1891  1.7408
 4050TIP3   OH233708   0.919   4.815   2.688  0.3198  0.1713 -0.3986
 4050TIP3    H133709   0.929   4.896   2.738  0.8185 -0.0442 -0.1484
 4050TIP3    H233710   0.970   4.829   2.609  0.3225  0.1386 -0.4024
 4051TIP3   OH233711   3.875   5.416   7.538  0.2776 -0.3220 -0.3805
 4051TIP3    H133712   3.913   5.336   7.574  0.8677 -0.2905 -0.9200
 4051TIP3    H233713   3.950   5.470   7.515 -0.1109  0.1526 -0.5440
 4052TIP3   OH233714   4.220   1.041   7.030 -0.1790  0.7231 -0.3835
 4052TIP3    H133715   4.135   0.997   7.035  0.3657 -0.4527 -1.0257
 4052TIP3    H233716   4.252   1.042   7.120 -0.1538 -0.3265 -0.3682
 4053TIP3   OH233717   4.505   0.330   0.865  0.2395  0.3511 -0.3110
 4053TIP3    H133718   4.468   0.241   0.867  0.2245  0.2849 -2.0324
 4053TIP3    H233719   4.594   0.318   0.834  1.1482  0.7166  1.9817
 4054TIP3   OH233720   2.504   5.709   1.091 -0.1949  1.1798 -0.4566
 4054TIP3    H133721   2.509   5.614   1.076  1.5190  1.3688 -1.2615
 4054TIP3    H233722   2.441   5.718   1.163 -0.2045 -0.5837 -0.1952
 4055TIP3   OH233723   1.565   7.096   7.792  0.0115  0.2391  0.4111
 4055TIP3    H133724   1.633   7.160   7.812  0.8357 -0.9171  1.4901
 4055TIP3    H233725   1.612   7.022   7.754 -1.1482  1.0065 -2.8122
 4056TIP3   OH233726   6.288   4.899   2.821 -0.3934  0.1618 -0.3391
 4056TIP3    H133727   6.347   4.824   2.811 -1.8180 -1.1953  1.0067
 4056TIP3    H233728   6.341   4.966   2.864  0.4303 -0.6710 -0.0385
 4057TIP3   OH233729   5.734   2.995   6.767 -0.4685 -0.1319  0.1239
 4057TIP3    H133730   5.803   2.996   6.701 -1.8251 -0.7320 -1.3559
 4057TIP3    H233731   5.690   3.079   6.756 -1.4897 -0.7480 -0.6304
 4058TIP3   OH233732   0.867   2.322   1.692  0.4954 -0.4846 -0.1442
 4058TIP3    H133733   0.830   2.313   1.780 -0.3559 -1.2246 -0.5579
 4058TIP3    H233734   0.883   2.416   1.682  1.2469 -0.4556  1.0421
 4059TIP3   OH233735   6.325   1.595   0.793  0.0646 -0.2982 -0.4828
 4059TIP3    H133736   6.267   1.656   0.840  1.2966  0.0535  0.6403
 4059TIP3    H233737   6.356   1.535   0.860  1.9095  0.2410 -0.8036
 4060TIP3   OH233738   2.276   0.455   0.183 -0.2705  0.2768  0.2180
 4060TIP3    H133739   2.309   0.412   0.263  0.6263 -0.0920 -0.3308
 4060TIP3    H233740   2.260   0.545   0.209 -1.4502 -0.1826  1.2011
 4061TIP3   OH233741   6.405   7.125   1.664 -0.0492  0.6689 -0.3835
 4061TIP3    H133742   6.501   7.129   1.657  0.0676 -0.9123 -0.1243
 4061TIP3    H233743   6.388   7.118   1.758 -0.4244  0.8430 -0.4362
 4062TIP3   OH233744   4.226   3.860   1.923 -0.3156 -0.0144  0.1417
 4062TIP3    H133745   4.294   3.794   1.931 -0.2539  0.2458  2.1366
 4062TIP3    H233746   4.273   3.942   1.908 -0.2939 -0.0784 -0.1596
 4063TIP3   OH233747   5.625   5.190   1.671  0.3156 -0.0574  0.1055
 4063TIP3    H133748   5.635   5.196   1.767 -1.1740  0.3340  0.2565
 4063TIP3    H233749   5.705   5.229   1.637  1.3413 -1.1151  1.1776
 4064TIP3   OH233750   6.245   3.844   0.076  0.1347  0.2596 -0.5377
 4064TIP3    H133751   6.182   3.900   0.121  1.1814  1.2171 -0.2392
 4064TIP3    H233752   6.238   3.760   0.122 -0.2220  0.6444  0.1322
 4065TIP3   OH233753   7.020   0.337   2.049 -0.2413 -0.0762 -0.2577
 4065TIP3    H133754   6.967   0.400   2.001 -0.6657 -1.4478 -1.6695
 4065TIP3    H233755   7.037   0.267   1.986  1.4113 -0.7087  0.8231
 4066TIP3   OH233756   2.611   0.434   0.892  0.8052 -0.3180  0.5426
 4066TIP3    H133757   2.596   0.435   0.986  1.3436  1.8685  0.6553
 4066TIP3    H233758   2.547   0.496   0.857  0.9035 -0.7800 -0.4973
 4067TIP3   OH233759   1.985   3.891   1.343  0.2975  0.6215  0.4056
 4067TIP3    H133760   2.010   3.983   1.335  0.6457  0.4994  0.0372
 4067TIP3    H233761   1.936   3.886   1.425  0.8557  1.0136  0.7713
 4068TIP3   OH233762   3.597   5.475   6.927 -0.3305  0.3393  0.4459
 4068TIP3    H133763   3.677   5.455   6.879 -0.1757 -1.1271  1.2654
 4068TIP3    H233764   3.611   5.563   6.962  1.0574 -0.0146  0.8459
 4069TIP3   OH233765   6.468   0.983   7.042  0.4871 -0.0854  0.1490
 4069TIP3    H133766   6.486   1.067   7.084 -0.9067  0.3861 -0.1295
 4069TIP3    H233767   6.401   1.003   6.977  0.4597 -1.3435 -0.2369
 4070TIP3   OH233768   5.353   2.129   1.716  0.4849 -0.1091  0.3369
 4070TIP3    H133769   5.331   2.220   1.699 -1.0653 -0.5360 -0.0849
 4070TIP3    H233770   5.335   2.084   1.634  0.0056 -0.9941  0.9085
 4071TIP3   OH233771   1.099   0.514   6.828 -0.6955  0.2576  0.3313
 4071TIP3    H133772   1.052   0.486   6.750  0.2589  0.3942 -0.3115
 4071TIP3    H233773   1.159   0.443   6.847  0.6399  1.1575 -0.3912
 4072TIP3   OH233774   0.180   6.957   7.695 -0.2818  0.0089 -0.0693
 4072TIP3    H133775   0.123   6.995   7.628  0.6488 -1.2406 -1.6193
 4072TIP3    H233776   0.139   6.982   7.778 -2.5870 -0.1116 -1.1050
 4073TIP3   OH233777   6.529   4.717   7.819  0.2594 -0.0997  0.1487
 4073TIP3    H133778   6.456   4.749   7.873  1.7168 -0.1657  2.2774
 4073TIP3    H233779   6.500   4.631   7.788 -1.7239  1.1036 -1.5576
 4074TIP3   OH233780   0.502   3.320   0.734  0.1704 -0.1955 -0.1724
 4074TIP3    H133781   0.476   3.394   0.678 -0.2832  2.3053  3.0406
 4074TIP3    H233782   0.433   3.255   0.721 -0.4989  0.7497 -1.6528
 4075TIP3   OH233783   2.590   0.332   1.181 -0.0316  0.3990  0.3674
 4075TIP3    H133784   2.532   0.256   1.186 -0.7552  0.9027 -0.2196
 4075TIP3    H233785   2.676   0.298   1.206 -0.4566 -0.4883  0.6626
 4076TIP3   OH233786   6.143   2.768   1.139 -0.4046  0.4642 -0.0902
 4076TIP3    H133787   6.068   2.779   1.079 -0.1693  0.2509 -0.4232
 4076TIP3    H233788   6.180   2.683   1.116  0.2279  0.7766 -0.2436
 4077TIP3   OH233789   4.222   6.359   0.058 -0.4090  0.0438  0.3062
 4077TIP3    H133790   4.172   6.349   0.139 -0.9801  2.1430  0.2796
 4077TIP3    H233791   4.160   6.336  -0.012 -0.2520 -0.7222  0.4188
 4078TIP3   OH233792   4.036   3.313   2.661 -0.3239  0.0053 -0.4448
 4078TIP3    H133793   4.102   3.379   2.642 -1.8566  0.8205 -3.7134
 4078TIP3    H233794   4.084   3.231   2.668  1.1849  0.8061 -1.0943
 4079TIP3   OH233795   2.866   5.337   1.657  0.3564  0.2222  0.4079
 4079TIP3    H133796   2.792   5.277   1.659 -2.0748  2.9847 -0.4411
 4079TIP3    H233797   2.923   5.303   1.588 -0.7326 -1.2181  0.1780
 4080TIP3   OH233798   3.871   5.000   1.978  0.0497  0.0524 -0.0788
 4080TIP3    H133799   3.910   4.993   2.065  0.2333  0.3950 -0.1315
 4080TIP3    H233800   3.778   5.014   1.994 -0.5718 -3.3854  0.0466
 4081TIP3   OH233801   5.513   0.183   6.007 -0.0562 -0.0201 -0.4855
 4081TIP3    H133802   5.464   0.136   5.940 -3.2717  0.9426  1.0088
 4081TIP3    H233803   5.447   0.233   6.056  2.5159  1.9886  1.2777
 4082TIP3   OH233804   1.251   4.674   6.939 -0.3623 -0.0890 -1.0451
 4082TIP3    H133805   1.338   4.661   6.900 -0.9768  3.3213 -4.1702
 4082TIP3    H233806   1.193   4.686   6.864 -3.3101 -0.7455  0.9789
 4083TIP3   OH233807   6.201   1.919   1.316  0.0002  0.0420 -0.8307
 4083TIP3    H133808   6.294   1.934   1.333 -0.1189 -0.0415 -0.0764
 4083TIP3    H233809   6.161   2.006   1.324  0.0434  0.1123 -1.3649
 4084TIP3   OH233810   4.888   6.839   0.105 -0.0632  0.4528  0.3436
 4084TIP3    H133811   4.800   6.822   0.071  0.2030 -1.2897  0.4732
 4084TIP3    H233812   4.914   6.922   0.063 -0.3004 -0.8889 -2.7176
 4085TIP3   OH233813   5.447   3.558   1.245 -0.5597 -0.1758  0.0190
 4085TIP3    H133814   5.478   3.587   1.331 -1.8584  0.4339  0.2977
 4085TIP3    H233815   5.527   3.530   1.200  0.2116 -0.0262  1.2257
 4086TIP3   OH233816   6.760   2.610   0.569 -0.0739  0.0754  0.7380
 4086TIP3    H133817   6.829   2.613   0.636 -0.1234  1.1460  0.7606
 4086TIP3    H233818   6.682   2.640   0.615 -0.0776  0.9682  0.1750
 4087TIP3   OH233819   5.276   3.381   0.457  0.2231  0.2461  0.0403
 4087TIP3    H133820   5.349   3.407   0.400  1.6935 -2.3801  0.5805
 4087TIP3    H233821   5.207   3.445   0.437  2.5831  2.8322 -0.5524
 4088TIP3   OH233822   1.075   4.436   6.397 -0.7045 -1.0226  0.2867
 4088TIP3    H133823   1.018   4.387   6.456 -1.8337 -0.4823 -0.3095
 4088TIP3    H233824   1.086   4.378   6.321 -3.1150  0.0376 -1.0075
 4089TIP3   OH233825   4.078   2.085   6.348  0.0965  0.6175 -0.5965
 4089TIP3    H133826   4.015   2.133   6.293 -0.1368 -0.0122 -0.9014
 4089TIP3    H233827   4.052   1.993   6.338  1.9282  0.1799 -1.8579
 4090TIP3   OH233828   1.025   5.039   0.779  0.2045 -0.0013 -0.0308
 4090TIP3    H133829   0.999   5.109   0.839 -1.4999 -1.0441  0.5152
 4090TIP3    H233830   1.119   5.052   0.766 -0.0525  2.3249  0.0993
 4091TIP3   OH233831   5.568   1.704   1.286  0.2490  0.3963 -0.6948
 4091TIP3    H133832   5.555   1.629   1.229  0.3396 -0.8198  0.8243
 4091TIP3    H233833   5.663   1.717   1.287  0.3469 -0.2725 -0.0127
 4092TIP3   OH233834   4.444   1.177   0.430  0.0587 -0.4998 -0.5477
 4092TIP3    H133835   4.442   1.255   0.485  1.6145 -0.5726 -0.3258
 4092TIP3    H233836   4.537   1.155   0.423 -0.2362 -1.4825 -1.8188
 4093TIP3   OH233837   4.121   7.114   0.951  0.3876  0.4674  0.5922
 4093TIP3    H133838   4.101   7.023   0.930  0.5632  0.1651  1.6476
 4093TIP3    H233839   4.087   7.164   0.877 -0.7947 -0.3502  0.5510
 4094TIP3   OH233840   0.174   0.124   6.523 -0.2292  0.4940  0.4655
 4094TIP3    H133841   0.111   0.164   6.463  0.3567  0.7134 -0.0229
 4094TIP3    H233842   0.237   0.194   6.542 -0.6191  0.5479  1.6635
 4095TIP3   OH233843   2.745   3.823   0.104  0.0301  0.2917 -0.0736
 4095TIP3    H133844   2.703   3.743   0.074  0.9998 -1.2758  2.3835
 4095TIP3    H233845   2.696   3.848   0.183  1.3902  0.5087  0.7424
 4096TIP3   OH233846   3.286   5.050   0.663  0.1944 -0.2259 -0.2052
 4096TIP3    H133847   3.200   5.082   0.639  0.4970  0.7057 -0.0999
 4096TIP3    H233848   3.318   5.114   0.727  0.6849 -0.9311  0.2718
 4097TIP3   OH233849   4.334   3.475   1.227 -0.6522 -0.4774  0.3219
 4097TIP3    H133850   4.337   3.516   1.313 -1.3297 -1.5069  0.8549
 4097TIP3    H233851   4.316   3.383   1.244 -0.6088 -0.7413 -0.9158
 4098TIP3   OH233852   2.355   6.363   7.372 -0.1196 -0.1127  0.1179
 4098TIP3    H133853   2.372   6.269   7.384 -0.4802 -0.5059 -2.0479
 4098TIP3    H233854   2.326   6.393   7.458 -0.9621 -2.2144  0.6347
 4099TIP3   OH233855   6.580   3.132   0.322 -0.2645  0.6897  0.4308
 4099TIP3    H133856   6.618   3.174   0.245 -1.7713 -0.7000 -1.1471
 4099TIP3    H233857   6.650   3.136   0.388  0.6344  3.0277 -0.5460
 4100TIP3   OH233858   6.930   5.019   2.820  0.5250  0.3199  0.0284
 4100TIP3    H133859   6.851   5.062   2.789 -1.3624 -0.4811  3.2434
 4100TIP3    H233860   6.974   5.085   2.874  0.0088 -0.3368  1.2912
 4101TIP3   OH233861   1.722   4.811   1.709 -0.3866 -0.0329  0.2029
 4101TIP3    H133862   1.770   4.778   1.633 -1.0121  0.2378 -0.3164
 4101TIP3    H233863   1.650   4.861   1.672  0.6468  2.1401  0.9670
 4102TIP3   OH233864   7.040   1.321   7.276 -0.0370  0.7599 -0.2203
 4102TIP3    H133865   7.127   1.282   7.277 -0.3489  0.0104 -0.7000
 4102TIP3    H233866   7.025   1.349   7.366  1.5171  2.8575 -0.5394
 4103TIP3   OH233867   5.999   3.493   2.679  0.0053 -0.6785  0.3247
 4103TIP3    H133868   5.950   3.473   2.599 -1.9694 -1.8817  1.7778
 4103TIP3    H233869   6.047   3.413   2.698 -0.3275 -0.7400  0.9041
 4104TIP3   OH233870   7.054   1.753   6.347 -0.0106  0.0264 -0.1120
 4104TIP3    H133871   6.996   1.676   6.346  0.5154 -0.3734 -0.1211
 4104TIP3    H233872   7.067   1.773   6.254 -0.6410  0.5118 -0.1059
 4105TIP3   OH233873   2.841   6.693   6.751 -0.4059  0.0765 -0.1606
 4105TIP3    H133874   2.887   6.650   6.824  1.3367  1.2295 -0.4950
 4105TIP3    H233875   2.884   6.659   6.673 -1.5395 -0.3467 -0.6081
 4106TIP3   OH233876   0.569   2.718   1.070 -0.2931  0.1399 -0.1388
 4106TIP3    H133877   0.537   2.628   1.077  0.8145 -0.1541  1.9888
 4106TIP3    H233878   0.647   2.712   1.015 -0.0799 -0.2572  0.2020
 4107TIP3   OH233879   0.209   3.899   7.991 -0.6115 -0.3503 -0.0374
 4107TIP3    H133880   0.118   3.868   7.991 -0.0061 -2.3844  1.2360
 4107TIP3    H233881   0.234   3.900   7.899 -2.1027  0.9030 -0.4629
 4108TIP3   OH233882   3.460   0.028   1.782 -0.1443  0.5203  0.2389
 4108TIP3    H133883   3.542   0.028   1.830  0.4491 -0.9110 -0.6953
 4108TIP3    H233884   3.396   0.067   1.842  0.8385  0.0270  1.6487
 4109TIP3   OH233885   7.101   7.122   0.172  0.5996  0.2828  0.2896
 4109TIP3    H133886   7.060   7.167   0.246 -2.5963 -0.5448 -0.8192
 4109TIP3    H233887   7.051   7.150   0.095  0.2013 -2.9726 -0.8109
 4110TIP3   OH233888   1.939   5.302   1.659  0.0156 -0.2591  0.9360
 4110TIP3    H133889   1.874   5.320   1.727  0.0120  0.3646  0.7749
 4110TIP3    H233890   1.971   5.214   1.678  0.9713  0.3965  2.5506
 4111TIP3   OH233891   0.732   6.482   0.770 -0.7673  0.0480 -0.1113
 4111TIP3    H133892   0.796   6.486   0.841 -1.5985 -1.8956  0.8281
 4111TIP3    H233893   0.785   6.473   0.691  0.1780 -1.5496  0.6415
 4112TIP3   OH233894   3.772   0.661   7.323  0.2054 -0.2091  0.1182
 4112TIP3    H133895   3.816   0.726   7.268 -0.8818 -0.5011 -1.1472
 4112TIP3    H233896   3.739   0.712   7.398  0.1664  0.5281 -0.3902
 4113TIP3   OH233897   4.636   6.746   0.522 -0.2688  0.0015  0.0521
 4113TIP3    H133898   4.720   6.784   0.497 -0.5287  0.2423 -0.4656
 4113TIP3    H233899   4.576   6.773   0.452 -0.6893 -0.4848  0.2224
 4114TIP3   OH233900   4.691   4.545   1.251  0.2437  0.0798 -0.2249
 4114TIP3    H133901   4.661   4.548   1.160 -0.7386 -1.0312  0.0355
 4114TIP3    H233902   4.627   4.490   1.296  0.5823  0.7940  1.1997
 4115TIP3   OH233903   3.762   7.065   1.300 -0.4403 -0.5134 -0.4741
 4115TIP3    H133904   3.856   7.066   1.317 -0.3545  0.8043 -0.8852
 4115TIP3    H233905   3.754   7.030   1.211 -0.2279  0.4172 -0.8764
 4116TIP3   OH233906   4.569   5.236   0.043  0.5076 -0.0436  0.2717
 4116TIP3    H133907   4.493   5.293   0.042  0.9338  0.5314  0.4048
 4116TIP3    H233908   4.581   5.212   0.135 -1.0987 -2.3053 -0.0254
 4117TIP3   OH233909   3.915   1.927   6.672  0.1419 -0.1240 -0.2566
 4117TIP3    H133910   3.917   1.895   6.582  0.6387  0.8939 -0.6171
 4117TIP3    H233911   3.825   1.956   6.685 -0.4611 -2.0190  0.2359
 4118TIP3   OH233912   3.736   4.479   6.973  0.4761 -0.0233 -0.2543
 4118TIP3    H133913   3.694   4.399   6.942  0.1081 -0.2326  0.7781
 4118TIP3    H233914   3.795   4.504   6.901 -0.7155 -0.2180 -1.3406
 4119TIP3   OH233915   5.540   1.084   0.792  0.4007  0.2308 -0.0566
 4119TIP3    H133916   5.612   1.039   0.747  0.7948 -0.0215  0.7854
 4119TIP3    H233917   5.500   1.139   0.726  0.8490 -0.2632 -0.7512
 4120TIP3   OH233918   0.419   4.877   0.856 -0.4077 -0.4918  0.2642
 4120TIP3    H133919   0.393   4.814   0.923 -0.2019 -0.8223  0.0413
 4120TIP3    H233920   0.513   4.885   0.866 -0.4028 -0.3965  0.1434
 4121TIP3   OH233921   0.015   6.424   2.305  0.6290 -0.1574  0.1400
 4121TIP3    H133922  -0.032   6.364   2.363  1.2591 -0.0749  0.7568
 4121TIP3    H233923   0.046   6.494   2.363  0.2507  0.5549 -0.5041
 4122TIP3   OH233924   1.873   3.307   6.349 -0.5692 -0.5675  0.3238
 4122TIP3    H133925   1.929   3.238   6.385 -0.0716  0.4039  1.4821
 4122TIP3    H233926   1.808   3.322   6.417 -0.3990  0.4143  0.2779
 4123TIP3   OH233927   1.736   1.210   7.186  0.6555 -0.2375  0.3842
 4123TIP3    H133928   1.692   1.220   7.102  0.0300 -1.6230  0.5195
 4123TIP3    H233929   1.739   1.298   7.223 -0.9315  0.0760 -0.1744
 4124TIP3   OH233930   2.789   5.668   1.169  0.4038  0.4437 -0.7328
 4124TIP3    H133931   2.693   5.661   1.164  0.4627 -0.3232 -1.0863
 4124TIP3    H233932   2.806   5.760   1.185 -0.4839  0.2305  1.9711
 4125TIP3   OH233933   5.668   5.719   1.374 -0.3088  0.2216  0.1783
 4125TIP3    H133934   5.735   5.685   1.432 -0.8903  0.7833  1.2169
 4125TIP3    H233935   5.586   5.704   1.420 -0.8387  0.2402 -0.7247
 4126TIP3   OH233936   0.564   1.217   1.125 -0.2499  0.5328 -0.1692
 4126TIP3    H133937   0.564   1.122   1.138 -0.6061  0.3808 -1.1831
 4126TIP3    H233938   0.472   1.241   1.127 -0.0587  1.3670  3.2843
 4127TIP3   OH233939   0.898   2.013   1.540 -0.4152  0.0043 -0.3188
 4127TIP3    H133940   0.833   2.041   1.604 -1.7137 -0.5651 -1.3383
 4127TIP3    H233941   0.889   1.918   1.537 -1.0613  0.0941 -2.0345
 4128TIP3   OH233942   5.532   1.911   7.336 -0.7607 -0.0507  0.1369
 4128TIP3    H133943   5.531   1.908   7.432 -1.1588  0.8100  0.1623
 4128TIP3    H233944   5.459   1.967   7.313 -0.7751 -0.3997 -0.6880
 4129TIP3   OH233945   1.620   2.737   7.616 -0.2923  0.1277  0.1004
 4129TIP3    H133946   1.695   2.686   7.586  0.6943  1.3840  0.3550
 4129TIP3    H233947   1.599   2.701   7.702  0.0096 -0.2283  0.0275
 4130TIP3   OH233948   2.880   5.069   0.839 -0.3594 -0.2422  0.0111
 4130TIP3    H133949   2.932   5.102   0.912  1.3587  1.0566 -1.6773
 4130TIP3    H233950   2.789   5.081   0.867  0.2383  1.1464  1.5415
 4131TIP3   OH233951   5.518   4.824   2.073  0.0419 -0.2611 -0.4616
 4131TIP3    H133952   5.426   4.796   2.072  0.3085 -1.1345 -1.0213
 4131TIP3    H233953   5.515   4.911   2.112 -0.8594 -0.8602  0.8870
 4132TIP3   OH233954   2.303   0.487   6.509  0.3674  0.2820 -0.3006
 4132TIP3    H133955   2.210   0.503   6.498  0.0958 -0.0331  1.2518
 4132TIP3    H233956   2.314   0.394   6.488  0.6502  0.6810 -2.0799
 4133TIP3   OH233957   5.362   6.719   0.827 -0.1890 -0.3677 -0.0649
 4133TIP3    H133958   5.456   6.739   0.819  0.0858 -0.6796  1.8480
 4133TIP3    H233959   5.321   6.803   0.846  0.3520 -0.7110  3.3629
 4134TIP3   OH233960   6.805   2.933   1.359 -0.3889 -0.2475  0.3332
 4134TIP3    H133961   6.762   2.923   1.274  1.2646  1.0416 -0.7162
 4134TIP3    H233962   6.842   2.847   1.378  0.2949 -0.2434 -0.8951
 4135TIP3   OH233963   2.339   2.175   1.055  0.6428 -0.5317  0.7872
 4135TIP3    H133964   2.335   2.205   0.964  1.8510 -0.9978  0.5597
 4135TIP3    H233965   2.253   2.136   1.071  0.3348 -0.2360 -0.0772
 4136TIP3   OH233966   6.224   6.341   4.869 -0.1379  0.4770 -0.0474
 4136TIP3    H133967   6.280   6.293   4.930 -0.7215  1.4591  1.3225
 4136TIP3    H233968   6.142   6.291   4.869 -0.1999  0.5773  0.1210
 4137TIP3   OH233969   5.409   3.143   0.543  0.7125  0.0986 -0.6661
 4137TIP3    H133970   5.356   3.219   0.516  1.6445  0.8009 -0.5781
 4137TIP3    H233971   5.482   3.142   0.481  1.0192 -0.3818 -0.2960
 4138TIP3   OH233972   2.724   4.763   0.624 -0.3684  0.0921 -0.3135
 4138TIP3    H133973   2.752   4.724   0.707 -1.3722  0.5353  0.2415
 4138TIP3    H233974   2.649   4.710   0.596 -0.5790  0.4883 -0.5025
 4139TIP3   OH233975   4.706   4.468   1.975  0.6463 -0.0144  0.0013
 4139TIP3    H133976   4.693   4.381   2.014  0.4477 -0.4802 -1.0634
 4139TIP3    H233977   4.619   4.506   1.972  0.6762  0.0617  0.0971
 4140TIP3   OH233978   7.086   4.446   7.675  0.3307 -0.1408  0.2186
 4140TIP3    H133979   7.117   4.390   7.746 -0.7452  0.7169  1.4084
 4140TIP3    H233980   7.002   4.481   7.707 -0.5982 -0.3655 -1.8069
 4141TIP3   OH233981   4.525   0.343   1.164 -0.3891  0.5953 -0.0828
 4141TIP3    H133982   4.578   0.263   1.165 -0.9448  0.2126  1.3115
 4141TIP3    H233983   4.474   0.336   1.082 -0.6532 -0.6420  0.1572
 4142TIP3   OH233984   0.699   2.215   7.382 -0.6122  0.1305 -0.0103
 4142TIP3    H133985   0.707   2.129   7.342  1.8610 -0.1503  0.9164
 4142TIP3    H233986   0.789   2.245   7.392 -1.3913  2.5615  0.2908
 4143TIP3   OH233987   0.932   2.108   7.642  0.6584  0.8310  0.2993
 4143TIP3    H133988   0.930   2.203   7.652 -0.2479  1.0436 -1.5396
 4143TIP3    H233989   0.920   2.075   7.731  0.8981  2.4263  0.9614
 4144TIP3   OH233990   4.557   1.237   7.624  0.2937  0.1820 -0.3869
 4144TIP3    H133991   4.611   1.307   7.659 -1.2244  0.8031  0.8261
 4144TIP3    H233992   4.496   1.216   7.695 -0.8473 -0.6866 -1.5818
 4145TIP3   OH233993   0.565   4.594   7.620  0.3638 -0.8624  0.4062
 4145TIP3    H133994   0.572   4.641   7.703  0.7361  1.1211 -0.6646
 4145TIP3    H233995   0.487   4.631   7.578  2.2005  0.9874 -1.6853
 4146TIP3   OH233996   3.251   4.379   1.956  0.6685  0.4478  0.4334
 4146TIP3    H133997   3.211   4.318   1.894 -1.2984  2.3454 -0.2973
 4146TIP3    H233998   3.345   4.366   1.945  0.5359  1.5817 -4.0978
 4147TIP3   OH233999   5.603   5.431   6.932 -0.9260 -0.5105  0.2247
 4147TIP3    H134000   5.686   5.384   6.938 -1.0959 -0.8324  0.0776
 4147TIP3    H234001   5.582   5.430   6.839 -0.0962  1.3204 -0.0143
 4148TIP3   OH234002   1.076   3.408   7.617 -0.4035 -0.3286 -0.0077
 4148TIP3    H134003   0.997   3.368   7.652  0.4833 -2.2748 -0.1256
 4148TIP3    H234004   1.085   3.372   7.529  0.9782 -0.6933  0.2577
 4149TIP3   OH234005   6.863   0.289   1.219 -0.3513 -0.3739 -0.1732
 4149TIP3    H134006   6.954   0.300   1.193 -0.0487 -0.5189  0.7692
 4149TIP3    H234007   6.833   0.377   1.241 -0.5952 -0.2571 -0.9626
 4150TIP3   OH234008   5.828   6.319   5.810 -0.0256  0.0114 -0.3120
 4150TIP3    H134009   5.897   6.259   5.836  0.1273  0.1533 -0.3885
 4150TIP3    H234010   5.787   6.278   5.733  0.0252 -0.0331 -0.3153
 4151TIP3   OH234011   0.896   6.422   0.574 -0.3988  0.1642 -0.2651
 4151TIP3    H134012   0.881   6.332   0.601 -0.1060  0.6312  1.5755
 4151TIP3    H234013   0.991   6.429   0.566 -0.4432  0.2168 -0.8117
 4152TIP3   OH234014   3.791   2.843   1.916  0.0557 -0.0413  0.2304
 4152TIP3    H134015   3.835   2.821   1.834 -1.3437  0.9053 -0.8378
 4152TIP3    H234016   3.821   2.777   1.978 -0.2001 -1.8960 -1.5102
 4153TIP3   OH234017   1.402   1.509   0.644  0.3104 -0.7937  0.4653
 4153TIP3    H134018   1.489   1.495   0.607  0.3491 -0.4271  0.4194
 4153TIP3    H234019   1.345   1.520   0.567  0.2266 -0.9960  0.4960
 4154TIP3   OH234020   2.377   2.771   0.920 -0.1281  0.1099 -0.2932
 4154TIP3    H134021   2.320   2.846   0.936 -0.3084 -0.2833  1.0209
 4154TIP3    H234022   2.454   2.788   0.975 -0.6233 -1.1468  0.8395
 4155TIP3   OH234023   1.537   2.162   7.330  0.3534  0.4369 -0.2598
 4155TIP3    H134024   1.539   2.072   7.299  0.9862  0.6336 -0.8208
 4155TIP3    H234025   1.629   2.190   7.329  0.0396  1.5215 -1.3991
 4156TIP3   OH234026   7.089   3.113   1.399  0.2330 -0.6044  0.0133
 4156TIP3    H134027   7.173   3.106   1.444  0.5889 -0.4852 -0.6253
 4156TIP3    H234028   7.107   3.164   1.320 -0.7657  0.8293  0.6676
 4157TIP3   OH234029   4.162   2.823   6.790  0.4032  0.2237  0.2451
 4157TIP3    H134030   4.255   2.804   6.784  0.4106  0.4630 -0.4282
 4157TIP3    H234031   4.150   2.858   6.878  0.8415 -0.3776  0.5537
 4158TIP3   OH234032   2.233   5.869   2.161 -0.0993 -0.3361  0.5673
 4158TIP3    H134033   2.313   5.921   2.153  0.8176 -1.8591 -0.8146
 4158TIP3    H234034   2.207   5.879   2.253  0.6166  1.6675  0.5990
 4159TIP3   OH234035   2.441   3.408   1.622  0.0392  0.3528 -0.1965
 4159TIP3    H134036   2.395   3.492   1.617 -0.0521  0.2463 -1.5525
 4159TIP3    H234037   2.451   3.381   1.530  2.3381  0.1142  0.0518
 4160TIP3   OH234038   0.616   0.482   0.173  0.3390 -0.3707  0.0012
 4160TIP3    H134039   0.572   0.426   0.238 -1.9897 -0.2548 -1.3623
 4160TIP3    H234040   0.548   0.544   0.145  1.5836  0.2676 -1.7554
 4161TIP3   OH234041   3.945   6.075   0.821 -0.0605  0.4182 -0.3129
 4161TIP3    H134042   3.991   5.994   0.797  1.6610  1.9315 -2.4982
 4161TIP3    H234043   3.878   6.085   0.754  0.8498  1.6455 -1.0633
 4162TIP3   OH234044   3.662   5.159   7.450  0.2353 -0.2819 -0.8431
 4162TIP3    H134045   3.648   5.222   7.379 -0.5912  0.3804 -0.1347
 4162TIP3    H234046   3.749   5.179   7.483 -0.7350  1.9621  0.6879
 4163TIP3   OH234047   7.110   2.356   1.602  1.1291  0.1226 -0.1825
 4163TIP3    H134048   7.045   2.381   1.537  1.1580  0.0072 -0.2555
 4163TIP3    H234049   7.138   2.268   1.576  2.1897  0.6441 -0.8385
 4164TIP3   OH234050   4.085   6.357   0.295  0.1466  0.0401 -0.3821
 4164TIP3    H134051   4.154   6.365   0.361  0.0751  0.6915 -0.3802
 4164TIP3    H234052   4.023   6.295   0.332  1.2680 -1.4219 -0.8592
 4165TIP3   OH234053   6.903   0.638   7.451 -0.0971  0.1570 -0.0885
 4165TIP3    H134054   6.820   0.590   7.451 -0.6080  0.9512  2.0414
 4165TIP3    H234055   6.898   0.693   7.373 -1.8760  0.6497  0.3288
 4166TIP3   OH234056   3.199   4.900   1.400  0.0952  0.1495 -0.5321
 4166TIP3    H134057   3.256   4.897   1.477 -0.8705  0.4654  0.2156
 4166TIP3    H234058   3.245   4.847   1.335  1.6140  1.0190 -0.2283
 4167TIP3   OH234059   5.570   2.837   7.813  0.4001 -0.4951 -0.2591
 4167TIP3    H134060   5.479   2.815   7.835  0.7489 -1.0267  0.6997
 4167TIP3    H234061   5.563   2.912   7.754 -0.6318 -0.0529  0.4087
 4168TIP3   OH234062   5.993   3.598   0.569 -0.1916 -0.9092 -0.0522
 4168TIP3    H134063   5.928   3.620   0.636 -0.5877 -1.5185 -0.2313
 4168TIP3    H234064   5.942   3.570   0.493  0.1496  2.0526 -1.5093
 4169TIP3   OH234065   2.008   3.744   7.550 -0.6880 -0.6401  0.4460
 4169TIP3    H134066   1.951   3.694   7.493 -1.4395 -0.9979  1.4771
 4169TIP3    H234067   2.073   3.681   7.581  0.6837 -0.1027 -1.1976
 4170TIP3   OH234068   6.043   4.496   7.707  0.9478 -0.2390  0.1717
 4170TIP3    H134069   6.089   4.511   7.625  3.6814  0.8496  1.7609
 4170TIP3    H234070   6.066   4.406   7.731  2.5476  0.3603  1.0502
 4171TIP3   OH234071   2.347   6.297   7.946  0.2919 -0.1417 -0.4473
 4171TIP3    H134072   2.306   6.275   7.863 -1.0990 -0.0147  0.1732
 4171TIP3    H234073   2.384   6.215   7.978 -0.9423 -0.6301 -0.2496
 4172TIP3   OH234074   1.163   2.216   2.363  0.4355  0.5035 -0.4097
 4172TIP3    H134075   1.145   2.307   2.338  0.8860  0.6623 -0.1555
 4172TIP3    H234076   1.105   2.200   2.437  0.5117  0.6574 -0.3142
 4173TIP3   OH234077   0.813   3.526   0.576  0.3899 -0.2609  0.3124
 4173TIP3    H134078   0.811   3.516   0.671  0.5449 -2.5255  0.1451
 4173TIP3    H234079   0.894   3.482   0.549 -0.1007 -0.4558 -0.9222
 4174TIP3   OH234080   0.483   5.384   1.166  0.2904 -0.4448 -0.8537
 4174TIP3    H134081   0.405   5.346   1.127  0.3424  0.5386 -1.9489
 4174TIP3    H234082   0.515   5.447   1.102  1.4697 -0.1610 -0.0360
 4175TIP3   OH234083   2.985   1.311   7.457  0.3646 -0.7097  0.2431
 4175TIP3    H134084   3.039   1.308   7.378  1.6253 -1.6684  1.1070
 4175TIP3    H234085   2.955   1.221   7.469 -0.7174 -0.3631  0.2841
 4176TIP3   OH234086   2.280   0.630   7.512 -0.7870 -0.4955 -0.4536
 4176TIP3    H134087   2.274   0.721   7.542 -0.9455 -0.4251 -0.7012
 4176TIP3    H234088   2.371   0.606   7.529 -0.2375  0.3112 -2.1100
 4177TIP3   OH234089   6.772   5.848   7.390  0.3660 -0.2303  0.0963
 4177TIP3    H134090   6.821   5.805   7.320  1.2206  0.1633  0.4381
 4177TIP3    H234091   6.807   5.937   7.393 -1.6727  0.6973 -0.8994
 4178TIP3   OH234092   6.104   1.700   1.228  0.0440  0.0054  0.3834
 4178TIP3    H134093   6.112   1.660   1.142 -1.7365  0.2286  0.0666
 4178TIP3    H234094   6.178   1.759   1.235 -0.3586  0.7765 -1.4495
 4179TIP3   OH234095   3.310   1.643   1.747 -0.6361  0.1821  0.6255
 4179TIP3    H134096   3.357   1.594   1.679 -1.5144 -0.3116  0.3625
 4179TIP3    H234097   3.273   1.576   1.804 -1.0762  0.5653  0.7964
 4180TIP3   OH234098   1.922   6.167   1.746  0.3825  0.0897  0.8536
 4180TIP3    H134099   1.914   6.222   1.824 -1.7518 -0.7940  1.3276
 4180TIP3    H234100   1.902   6.079   1.777  0.6629 -0.4551 -0.4790
 4181TIP3   OH234101   1.666   5.520   7.899  0.1274 -0.1071 -0.2318
 4181TIP3    H134102   1.745   5.572   7.884 -0.3946  0.5783 -0.6864
 4181TIP3    H234103   1.688   5.433   7.865  0.2569  0.4232 -1.5653
 4182TIP3   OH234104   3.397   6.007   6.837 -0.1196 -0.8612  0.0457
 4182TIP3    H134105   3.476   6.017   6.785 -0.0965 -0.2409  0.1848
 4182TIP3    H234106   3.340   5.950   6.786  0.6504 -1.8126  0.2192
 4183TIP3   OH234107   6.445   6.837   2.690  0.2032 -0.6374  0.7249
 4183TIP3    H134108   6.487   6.911   2.735 -0.7688  1.4570 -1.5600
 4183TIP3    H234109   6.514   6.800   2.635  0.2989 -0.4579  0.7234
 4184TIP3   OH234110   5.247   3.569   0.818 -0.3640  0.4786 -0.3875
 4184TIP3    H134111   5.291   3.616   0.889 -0.5145  1.8922 -1.1884
 4184TIP3    H234112   5.318   3.527   0.770  0.0540  1.7812 -0.9768
 4185TIP3   OH234113   4.107   2.281   7.072  0.0817  0.2846 -0.1531
 4185TIP3    H134114   4.097   2.215   7.003  1.0146 -0.6107  0.5180
 4185TIP3    H234115   4.107   2.365   7.026  1.0296 -0.3089 -1.2951
 4186TIP3   OH234116   2.300   5.661   7.345  0.1715  0.2571 -0.2087
 4186TIP3    H134117   2.231   5.658   7.279 -0.3779  1.2315  0.2942
 4186TIP3    H234118   2.382   5.656   7.295 -0.2454  0.3600 -0.9097
 4187TIP3   OH234119   5.543   5.656   0.581 -0.4760  0.3647 -0.5410
 4187TIP3    H134120   5.621   5.623   0.536 -1.0106 -0.2196 -1.0597
 4187TIP3    H234121   5.522   5.588   0.646 -0.8405  0.2787 -0.7451
 4188TIP3   OH234122   2.403   5.124   1.520 -0.2783  0.3607 -0.2274
 4188TIP3    H134123   2.319   5.117   1.476  0.3597  1.9463 -1.8030
 4188TIP3    H234124   2.384   5.102   1.611 -2.0784 -0.8027 -0.8284
 4189TIP3   OH234125   2.539   0.763   1.664  0.2943 -0.0058 -0.0490
 4189TIP3    H134126   2.545   0.828   1.594  0.7762 -0.5150 -0.4907
 4189TIP3    H234127   2.613   0.704   1.649 -1.1297 -1.7447 -0.7703
 4190TIP3   OH234128   0.696   3.763   0.756 -0.2277 -0.0552 -0.0713
 4190TIP3    H134129   0.771   3.813   0.788 -0.2930  0.0805 -0.1322
 4190TIP3    H234130   0.711   3.675   0.790 -0.3278  0.1015  0.3958
 4191TIP3   OH234131   6.363   5.130   6.983 -0.3970 -0.0187  0.0742
 4191TIP3    H134132   6.410   5.090   7.055 -0.6779  0.2069  0.3870
 4191TIP3    H234133   6.309   5.060   6.947 -1.8010  0.3352  1.3774
 4192TIP3   OH234134   4.954   6.806   7.066 -0.4527 -0.0639  0.7796
 4192TIP3    H134135   4.923   6.872   7.128  0.7199  0.3044  0.9969
 4192TIP3    H234136   4.962   6.726   7.118 -1.7544 -0.3583  0.5444
 4193TIP3   OH234137   2.928   4.633   0.036 -0.0130  0.6876  0.1113
 4193TIP3    H134138   2.869   4.660  -0.035  0.2966 -0.1488 -0.4791
 4193TIP3    H234139   2.918   4.538   0.040  1.2864  0.5314  0.0025
 4194TIP3   OH234140   5.326   5.598   7.462  0.1924  0.6424 -0.4545
 4194TIP3    H134141   5.286   5.621   7.546 -1.3406  1.0494 -1.2618
 4194TIP3    H234142   5.417   5.579   7.483  0.1497  1.9829  1.1131
 4195TIP3   OH234143   4.819   5.647   1.449  0.4805 -1.0331  0.2984
 4195TIP3    H134144   4.865   5.655   1.366  0.8798  0.3578  0.6222
 4195TIP3    H234145   4.879   5.595   1.504  1.1139 -0.2924  0.3232
 4196TIP3   OH234146   7.072   6.501   1.014  0.5071 -0.0826  0.4319
 4196TIP3    H134147   7.012   6.550   1.071  0.6029  0.8446 -0.2384
 4196TIP3    H234148   7.043   6.410   1.021 -0.0992  0.1542  1.1890
 4197TIP3   OH234149   0.303   3.682   1.769 -0.3337 -0.1324 -0.4261
 4197TIP3    H134150   0.342   3.710   1.852  0.0065 -2.2287  0.1624
 4197TIP3    H234151   0.244   3.754   1.745 -0.8667  0.2844  1.9132
 4198TIP3   OH234152   0.733   0.011   0.740 -0.0849 -0.1876  0.7378
 4198TIP3    H134153   0.786   0.030   0.817 -1.2025  1.5571  1.1241
 4198TIP3    H234154   0.722   0.095   0.696 -1.6689 -0.6737  0.1237
 4199TIP3   OH234155   2.847   0.951   7.879  0.5884  0.0114  0.3278
 4199TIP3    H134156   2.776   0.972   7.939  0.3785  0.7779 -0.1698
 4199TIP3    H234157   2.926   0.987   7.920  0.4415  0.5562  0.1400
 4200TIP3   OH234158   4.679   3.059   7.221  0.2732  0.4965 -0.0527
 4200TIP3    H134159   4.682   3.097   7.133  0.1975  0.3205 -0.1317
 4200TIP3    H234160   4.588   3.070   7.249  0.9911  3.8283  1.4538
 4201TIP3   OH234161   1.043   6.822   0.755 -0.1967 -0.1534 -0.6988
 4201TIP3    H134162   1.039   6.913   0.726 -1.3597 -0.4436 -1.5014
 4201TIP3    H234163   1.137   6.805   0.769  0.0535  1.0617 -0.8446
 4202TIP3   OH234164   2.924   1.077   1.518 -0.0502 -0.0148 -0.0624
 4202TIP3    H134165   2.991   1.010   1.500  0.4085  0.4240 -0.0192
 4202TIP3    H234166   2.945   1.148   1.457  0.8206  1.0119  1.3729
 4203TIP3   OH234167   4.105   3.940   1.333 -0.0363 -0.7723  0.5014
 4203TIP3    H134168   4.100   3.845   1.323 -0.4997 -0.7495  0.4936
 4203TIP3    H234169   4.150   3.970   1.253 -0.3841 -0.9324  0.2443
 4204TIP3   OH234170   2.341   3.332   7.540  0.3671  0.3444  0.0739
 4204TIP3    H134171   2.381   3.278   7.471 -0.6945 -0.9049  0.3905
 4204TIP3    H234172   2.315   3.268   7.607 -0.6626  1.3002  0.6051
 4205TIP3   OH234173   5.012   3.143   2.264  0.1164 -0.0658  0.5297
 4205TIP3    H134174   5.106   3.134   2.247 -0.0755 -1.9477  0.2454
 4205TIP3    H234175   4.991   3.068   2.320 -1.3879 -0.2166 -0.2010
 4206TIP3   OH234176   0.779   6.678   7.534 -0.5027  0.2820  0.4506
 4206TIP3    H134177   0.707   6.625   7.500  0.6492 -0.0131 -1.7229
 4206TIP3    H234178   0.746   6.768   7.532 -1.3660 -0.0089  1.1036
 4207TIP3   OH234179   6.197   6.701   1.208  0.7758  0.4798 -0.0541
 4207TIP3    H134180   6.229   6.773   1.153  1.4669  1.4380  1.5525
 4207TIP3    H234181   6.134   6.741   1.267  1.2481 -0.2148  0.9368
 4208TIP3   OH234182   6.547   4.160   2.344  0.0881  0.7084  0.4924
 4208TIP3    H134183   6.573   4.247   2.316  0.8623  0.8315  1.5039
 4208TIP3    H234184   6.601   4.143   2.422  2.1600 -1.8464 -1.2895
 4209TIP3   OH234185   6.287   1.324   1.456 -0.0674  0.6446 -0.3282
 4209TIP3    H134186   6.374   1.315   1.493  1.4634  1.5686 -3.3149
 4209TIP3    H234187   6.234   1.258   1.499  1.9349  0.4488  2.0031
 4210TIP3   OH234188   4.127   4.139   0.629 -0.2731 -0.6539  0.0362
 4210TIP3    H134189   4.038   4.152   0.597 -1.0382 -2.5004  1.2190
 4210TIP3    H234190   4.184   4.170   0.559 -1.8518 -0.0005 -0.9894
 4211TIP3   OH234191   5.947   1.810   6.294  0.5054 -0.1403  0.0114
 4211TIP3    H134192   5.978   1.866   6.223 -1.2353  0.7074 -0.1370
 4211TIP3    H234193   6.005   1.829   6.367  0.9700  0.6106 -0.5433
 4212TIP3   OH234194   4.728   2.729   1.768 -0.4093 -0.1950 -0.3657
 4212TIP3    H134195   4.791   2.671   1.726  0.1304 -0.8395  1.2589
 4212TIP3    H234196   4.777   2.771   1.839 -1.7606 -0.6726  0.9061
 4213TIP3   OH234197   1.969   5.930   0.286 -0.5622  0.2954 -0.0311
 4213TIP3    H134198   2.046   5.896   0.331 -0.4654  2.0103  1.1956
 4213TIP3    H234199   1.984   5.911   0.194  1.5192  0.8943  0.1404
 4214TIP3   OH234200   4.351   0.675   0.480  0.7119  0.1750  0.1109
 4214TIP3    H134201   4.307   0.749   0.438  0.5224  0.2418  0.4249
 4214TIP3    H234202   4.280   0.624   0.521  1.0233  1.0227  1.7960
 4215TIP3   OH234203   4.406   5.285   7.235 -0.1623  0.1947 -0.7402
 4215TIP3    H134204   4.485   5.270   7.286  0.6110  3.5624 -0.6948
 4215TIP3    H234205   4.438   5.312   7.149 -1.3837 -1.0752 -1.6536
 4216TIP3   OH234206   0.796   6.011   6.962 -0.0872  0.4023  0.0134
 4216TIP3    H134207   0.799   5.939   6.899  2.6644  1.1965 -0.8907
 4216TIP3    H234208   0.717   6.060   6.938 -1.4292 -1.6316 -0.0186
 4217TIP3   OH234209   4.987   1.347   0.590  0.2182  0.1385 -0.2045
 4217TIP3    H134210   4.969   1.427   0.540 -0.6106 -0.7966 -1.4640
 4217TIP3    H234211   5.042   1.294   0.533 -2.0913 -1.6611 -0.8986
 4218TIP3   OH234212   6.452   5.896   6.526 -0.3473 -0.0966 -0.2962
 4218TIP3    H134213   6.467   5.845   6.447  1.1587  1.5770 -1.1495
 4218TIP3    H234214   6.409   5.976   6.495 -1.4390 -0.2155  0.8354
 4219TIP3   OH234215   6.403   6.040   6.880  0.0185  0.2969 -0.2049
 4219TIP3    H134216   6.373   6.131   6.885  0.5895  0.4124  2.0859
 4219TIP3    H234217   6.455   6.036   6.800  1.7783  2.5819  0.7283
 4220TIP3   OH234218   1.333   2.113   1.666  0.0331 -0.2241 -0.1547
 4220TIP3    H134219   1.384   2.176   1.718 -1.9511  0.5598  0.9581
 4220TIP3    H234220   1.275   2.168   1.613 -0.6406 -1.0889 -0.3239
 4221TIP3   OH234221   0.704   3.530   2.435  0.3617  0.0176 -0.1084
 4221TIP3    H134222   0.671   3.596   2.375  0.1091 -0.1897 -0.2014
 4221TIP3    H234223   0.797   3.550   2.445  0.5920 -0.4407 -1.2129
 4222TIP3   OH234224   6.776   5.576   6.289 -0.5316  0.3806  0.3162
 4222TIP3    H134225   6.757   5.645   6.352 -0.4715  1.8721 -1.2217
 4222TIP3    H234226   6.701   5.576   6.230 -0.6750 -1.1096  0.4540
 4223TIP3   OH234227   6.745   4.735   0.278 -0.4370  0.5543 -0.1342
 4223TIP3    H134228   6.745   4.823   0.239  2.4091  1.5237  1.7406
 4223TIP3    H234229   6.799   4.683   0.219  1.3836  1.2448  0.8432
 4224TIP3   OH234230   3.084   4.024   1.884 -0.2570 -0.0661  0.1605
 4224TIP3    H134231   3.002   4.032   1.932  0.6152  1.0809  1.5423
 4224TIP3    H234232   3.140   3.970   1.940  0.6350  0.9286  0.2664
 4225TIP3   OH234233   5.930   5.830   7.694 -0.5224 -0.1683 -0.4149
 4225TIP3    H134234   5.965   5.760   7.639 -0.7079 -0.2927 -0.3768
 4225TIP3    H234235   5.851   5.792   7.734 -0.6578  0.0832 -0.4406
 4226TIP3   OH234236   3.827   1.630   7.461  0.4619 -0.1055 -0.0193
 4226TIP3    H134237   3.841   1.550   7.511 -1.7040 -0.1962  0.5376
 4226TIP3    H234238   3.792   1.693   7.525 -0.1670  0.5031 -0.9374
 4227TIP3   OH234239   0.681   0.339   1.778  0.1910  0.1421  0.1347
 4227TIP3    H134240   0.759   0.299   1.818  0.4136  0.9348  0.5149
 4227TIP3    H234241   0.714   0.419   1.738 -0.4976  0.6846  0.6315
 4228TIP3   OH234242   0.139   4.304   0.394  0.3119 -0.0845 -0.4118
 4228TIP3    H134243   0.222   4.309   0.441 -0.0366  0.2444  0.1705
 4228TIP3    H234244   0.121   4.394   0.367  0.1453 -0.1577 -0.5454
 4229TIP3   OH234245   6.257   3.376   0.010 -0.5954  0.2892 -0.3400
 4229TIP3    H134246   6.346   3.409   0.026 -1.5476  1.9060  2.3000
 4229TIP3    H234247   6.270   3.288  -0.025  2.0829 -0.3349  1.8435
 4230TIP3   OH234248   6.721   0.863   1.648 -0.5029  0.1607  0.2310
 4230TIP3    H134249   6.763   0.778   1.661 -0.8678 -0.0144  0.2966
 4230TIP3    H234250   6.727   0.878   1.553  1.1188  0.8908  0.4185
 4231TIP3   OH234251   1.123   0.365   2.070 -0.1681 -0.2976 -0.1340
 4231TIP3    H134252   1.162   0.356   1.983  1.0078  0.1345  0.3309
 4231TIP3    H234253   1.168   0.440   2.109 -1.1223 -0.1019  0.6195
 4232TIP3   OH234254   1.731   3.015   1.888  0.3279  0.2765  0.5246
 4232TIP3    H134255   1.693   3.037   1.803 -0.1132 -0.4776  0.5135
 4232TIP3    H234256   1.704   2.924   1.903  0.6105  0.3235  1.3590
 4233TIP3   OH234257   3.321   6.472   0.256 -0.3031  0.1095  0.1153
 4233TIP3    H134258   3.378   6.397   0.240 -0.3077  0.1250  0.0276
 4233TIP3    H234259   3.321   6.482   0.352  1.4581  1.3426  0.0451
 4234TIP3   OH234260   6.134   0.614   7.215 -0.0823 -0.5715  0.1694
 4234TIP3    H134261   6.041   0.614   7.193 -0.0393 -2.4612 -0.1740
 4234TIP3    H234262   6.138   0.656   7.300 -1.3477 -0.9911  0.4645
 4235TIP3   OH234263   0.498   3.287   1.019 -0.3139  0.8174 -0.7509
 4235TIP3    H134264   0.481   3.279   0.925 -2.2496  1.9427 -0.5452
 4235TIP3    H234265   0.420   3.249   1.060  0.3766  0.6195  0.4182
 4236TIP3   OH234266   1.629   2.812   6.489 -0.0411 -0.4114  0.3065
 4236TIP3    H134267   1.551   2.828   6.436 -0.8299 -2.7762  0.6422
 4236TIP3    H234268   1.668   2.898   6.500 -1.4793  0.5578 -1.5915
 4237TIP3   OH234269   1.997   2.756   6.429 -0.3700 -0.5625 -0.3312
 4237TIP3    H134270   2.089   2.769   6.453 -0.3390  0.1708 -0.8138
 4237TIP3    H234271   1.949   2.809   6.492 -0.3917 -0.0741 -0.7505
 4238TIP3   OH234272   2.930   1.440   1.114 -0.6964 -0.0128 -0.0709
 4238TIP3    H134273   2.939   1.422   1.207 -0.3196 -1.9297 -0.4386
 4238TIP3    H234274   2.991   1.512   1.097 -0.5262  0.1307  1.0936
 4239TIP3   OH234275   6.887   3.609   2.008  0.0381 -0.3933 -0.5132
 4239TIP3    H134276   6.821   3.613   2.077 -0.7714 -1.0486 -1.2317
 4239TIP3    H234277   6.970   3.607   2.056 -0.4183  0.7799  0.3949
 4240TIP3   OH234278   6.637   0.827   6.918  0.5015 -0.1725 -0.1353
 4240TIP3    H134279   6.562   0.875   6.951  0.5827  0.2125 -0.4900
 4240TIP3    H234280   6.600   0.763   6.857  0.2479 -1.6694  1.5328
 4241TIP3   OH234281   6.392   4.610   2.764  0.3798  0.2690 -0.2552
 4241TIP3    H134282   6.463   4.587   2.704  0.6774 -0.6906  0.4259
 4241TIP3    H234283   6.312   4.594   2.715  0.5951 -1.5113 -0.0941
 4242TIP3   OH234284   3.606   3.768   7.906 -0.4687 -0.2428 -0.1322
 4242TIP3    H134285   3.679   3.750   7.847  0.2138  0.8265  0.3456
 4242TIP3    H234286   3.528   3.750   7.854  0.1268  0.1195 -1.1851
 4243TIP3   OH234287   6.703   5.324   6.669 -0.2312 -0.1690 -0.1261
 4243TIP3    H134288   6.656   5.338   6.751  0.2506  0.4576  0.0441
 4243TIP3    H234289   6.646   5.266   6.619 -0.8397 -0.0130  0.3774
 4244TIP3   OH234290   0.972   2.525   0.822 -0.1082  0.5367 -0.1512
 4244TIP3    H134291   1.002   2.525   0.731 -0.7716 -1.8019 -0.4104
 4244TIP3    H234292   0.880   2.500   0.817  0.1391 -0.7364  1.2325
 4245TIP3   OH234293   2.562   1.656   7.669  0.1314 -0.1903 -0.8112
 4245TIP3    H134294   2.549   1.701   7.586 -1.6828 -3.6467 -2.6419
 4245TIP3    H234295   2.640   1.602   7.655  1.1747  0.8667  0.6383
 4246TIP3   OH234296   0.956   4.092   7.436 -0.0733 -0.3090 -0.3187
 4246TIP3    H134297   1.009   4.171   7.450 -0.3439 -0.1393 -0.2580
 4246TIP3    H234298   0.903   4.084   7.516  0.2515 -0.7840 -0.1410
 4247TIP3   OH234299   6.160   5.981   1.680  0.8357  0.1003  0.6178
 4247TIP3    H134300   6.171   6.036   1.602  1.2736  0.6455  1.0545
 4247TIP3    H234301   6.076   5.937   1.667  0.9831  0.0600 -0.2373
 4248TIP3   OH234302   0.326   0.617   1.757  0.3900  0.1387  0.0243
 4248TIP3    H134303   0.333   0.532   1.800  0.3767 -0.5846 -1.3473
 4248TIP3    H234304   0.360   0.602   1.669 -2.6571  0.6715 -1.3957
 4249TIP3   OH234305   1.209   1.738   7.759  0.4222  0.2405  0.1770
 4249TIP3    H134306   1.229   1.663   7.703  1.2342 -0.3532  1.2455
 4249TIP3    H234307   1.114   1.734   7.772  0.4260 -0.4488  0.0230
 4250TIP3   OH234308   3.918   2.193   7.521  0.3960  0.1851 -0.2424
 4250TIP3    H134309   3.980   2.121   7.533 -1.8518 -1.8440  0.0026
 4250TIP3    H234310   3.913   2.205   7.426  1.1661  0.4128 -0.2625
 4251TIP3   OH234311   1.904   4.447   7.750  0.2277 -0.1473  0.3062
 4251TIP3    H134312   1.925   4.487   7.665 -1.0437  1.6357  0.7680
 4251TIP3    H234313   1.929   4.356   7.740 -0.1403 -0.0562 -2.1046
 4252TIP3   OH234314   6.770   2.644   1.466  0.2790  0.3080 -0.2330
 4252TIP3    H134315   6.679   2.618   1.453  0.4844 -1.6756  1.5687
 4252TIP3    H234316   6.768   2.700   1.544  0.6161 -0.2162  0.1686
 4253TIP3   OH234317   3.010   7.023   1.146 -0.8068 -0.2981  0.1497
 4253TIP3    H134318   3.026   6.959   1.217 -1.5084 -0.4797  0.1498
 4253TIP3    H234319   3.058   7.101   1.174  0.5635 -0.9932 -0.1309
 4254TIP3   OH234320   5.069   0.040   1.194  0.3550 -0.1787 -0.3283
 4254TIP3    H134321   5.062   0.022   1.100  0.9538 -0.8885 -0.2519
 4254TIP3    H234322   5.013   0.116   1.208 -0.9694 -0.9869 -0.9858
 4255TIP3   OH234323   1.128   6.509   2.305  0.3043  0.5446 -0.1316
 4255TIP3    H134324   1.220   6.491   2.285  0.0129  0.4725 -1.5143
 4255TIP3    H234325   1.092   6.543   2.223 -1.4757 -1.7307 -0.3942
 4256TIP3   OH234326   3.332   1.257   1.996  0.0151 -0.0201 -0.0037
 4256TIP3    H134327   3.385   1.178   1.992 -0.7739 -0.5445 -0.2188
 4256TIP3    H234328   3.254   1.232   2.045 -0.8200  0.2779 -1.1411
 4257TIP3   OH234329   0.190   6.086   1.689  0.4029  0.2023  0.0588
 4257TIP3    H134330   0.173   6.176   1.714 -0.3635 -0.2709  1.3475
 4257TIP3    H234331   0.280   6.087   1.655  0.2374  1.5094 -0.3935
 4258TIP3   OH234332   3.050   1.259   6.577  0.3227  0.0937 -0.3923
 4258TIP3    H134333   3.132   1.223   6.611 -0.1621  1.2499  2.2511
 4258TIP3    H234334   3.074   1.348   6.548  0.0960  0.2767 -0.0196
 4259TIP3   OH234335   6.160   3.323   7.427  0.1358 -0.4970  1.1492
 4259TIP3    H134336   6.136   3.263   7.356 -1.6395  0.6200  0.7432
 4259TIP3    H234337   6.104   3.296   7.501 -0.4192  0.4014  1.0738
 4260TIP3   OH234338   2.495   1.848   1.392  0.3062  0.0595  0.0128
 4260TIP3    H134339   2.543   1.901   1.456  1.3340 -1.5996  0.6688
 4260TIP3    H234340   2.409   1.889   1.386  1.3011  2.2630 -0.1120
 4261TIP3   OH234341   0.443   5.882   7.667 -0.0243 -0.4870  0.0617
 4261TIP3    H134342   0.433   5.975   7.649 -0.3331 -0.3146  1.0965
 4261TIP3    H234343   0.531   5.874   7.704 -0.2881 -0.4933  0.6918
 4262TIP3   OH234344   6.756   6.209   1.745 -0.4028  0.8199  0.3926
 4262TIP3    H134345   6.748   6.205   1.840 -1.3260  0.1768  0.3015
 4262TIP3    H234346   6.772   6.301   1.726  1.5484  0.7033  1.2795
 4263TIP3   OH234347   1.616   0.193   1.516 -0.2962 -0.2057  0.2435
 4263TIP3    H134348   1.697   0.148   1.491 -0.7110 -0.3505 -0.9380
 4263TIP3    H234349   1.621   0.277   1.471 -0.0669  0.4635  1.4952
 4264TIP3   OH234350   0.820   2.286   0.181 -0.3034  0.0071 -0.3278
 4264TIP3    H134351   0.818   2.193   0.204  0.3355  0.1057  0.1341
 4264TIP3    H234352   0.907   2.316   0.207 -1.3776  1.3588  1.9852
 4265TIP3   OH234353   4.486   6.492   0.435  0.0655 -0.0968 -0.2093
 4265TIP3    H134354   4.430   6.562   0.401 -0.3691 -0.2480  0.1810
 4265TIP3    H234355   4.575   6.522   0.417 -0.0982  0.7713  0.3277
 4266TIP3   OH234356   0.301   4.596   7.662 -0.3655 -0.0822  0.2939
 4266TIP3    H134357   0.257   4.674   7.627  0.2323 -1.0605 -2.9869
 4266TIP3    H234358   0.251   4.522   7.626  0.0457 -1.2615  1.9977
 4267TIP3   OH234359   1.667   3.513   6.300 -0.6277  0.3296  0.0564
 4267TIP3    H134360   1.614   3.475   6.371  0.5109 -1.0355  0.2281
 4267TIP3    H234361   1.693   3.438   6.248  0.9407  0.9946 -0.1524
 4268TIP3   OH234362   0.847   5.222   7.248 -0.4608 -0.0901  0.1063
 4268TIP3    H134363   0.889   5.148   7.292 -1.4951  0.3084  1.8778
 4268TIP3    H234364   0.784   5.182   7.189  0.3749 -0.6344 -0.4414
 4269TIP3   OH234365   3.394   6.450   0.781 -0.5242 -0.4025  0.2647
 4269TIP3    H134366   3.321   6.459   0.842  0.3509 -0.1980  1.3033
 4269TIP3    H234367   3.449   6.382   0.819 -0.2049 -0.6245 -0.5564
 4270TIP3   OH234368   0.753   3.227   7.399  0.0065 -0.0012 -0.1906
 4270TIP3    H134369   0.794   3.289   7.460  1.3136 -1.7452  0.8206
 4270TIP3    H234370   0.806   3.233   7.319  1.1455 -0.9028  0.4640
 4271TIP3   OH234371   2.562   3.321   1.075  0.1492  0.2915 -0.1214
 4271TIP3    H134372   2.482   3.330   1.022  0.6756  0.8880 -0.8408
 4271TIP3    H234373   2.631   3.359   1.021  0.7465  0.7490  0.9369
 4272TIP3   OH234374   3.503   4.856   7.919 -0.2785  0.0999 -0.4323
 4272TIP3    H134375   3.522   4.866   7.826  1.7227  1.4311  0.0607
 4272TIP3    H234376   3.529   4.766   7.940  0.3003  0.1550 -0.9248
 4273TIP3   OH234377   4.317   3.226   1.366  0.5796 -0.0263 -0.5961
 4273TIP3    H134378   4.235   3.195   1.328  1.3720 -0.6948 -1.8549
 4273TIP3    H234379   4.320   3.188   1.454 -0.8630  0.7628 -0.1811
 4274TIP3   OH234380   1.313   6.866   0.818  0.1824 -0.4588 -0.0330
 4274TIP3    H134381   1.304   6.959   0.840 -3.7127 -0.6462 -0.2258
 4274TIP3    H234382   1.350   6.827   0.897  2.6491  1.2446 -0.2042
 4275TIP3   OH234383   0.418   6.284   1.889 -0.1929 -0.0688 -0.2800
 4275TIP3    H134384   0.464   6.364   1.914  0.1040 -0.7903  1.7322
 4275TIP3    H234385   0.327   6.311   1.878 -0.7313  0.1823  3.3745
 4276TIP3   OH234386   0.363   4.182   7.561  0.1938 -0.9885 -0.6155
 4276TIP3    H134387   0.405   4.264   7.536  0.6071 -1.3274 -1.0598
 4276TIP3    H234388   0.272   4.205   7.580  0.8834  0.0462  1.8452
 4277TIP3   OH234389   3.036   1.036   7.177 -0.0274 -0.7598  0.3748
 4277TIP3    H134390   3.127   1.019   7.153  0.3599  1.6891 -0.1415
 4277TIP3    H234391   3.011   1.114   7.127 -2.0421 -0.6792  1.3759
 4278TIP3   OH234392   0.225   3.890   1.156 -0.4839 -0.7896 -0.0871
 4278TIP3    H134393   0.138   3.931   1.163  0.4446  1.3775 -0.4653
 4278TIP3    H234394   0.276   3.930   1.227  0.3453 -1.7308 -0.1268
 4279TIP3   OH234395   2.417   5.665   7.743 -0.3883  0.0217  0.1912
 4279TIP3    H134396   2.396   5.572   7.749  1.0091 -0.3156  0.1922
 4279TIP3    H234397   2.387   5.701   7.826  1.0238 -0.8691  1.1344
 4280TIP3   OH234398   6.759   3.123   7.262 -0.1169 -0.7350  0.3005
 4280TIP3    H134399   6.784   3.049   7.317 -0.5979  0.2232  1.8641
 4280TIP3    H234400   6.735   3.192   7.324  0.6757  0.8653 -1.1128
 4281TIP3   OH234401   3.747   3.903   6.974 -0.2857  0.3383 -0.5058
 4281TIP3    H134402   3.788   3.944   6.898  1.9829  2.4416  1.6462
 4281TIP3    H234403   3.792   3.819   6.983  1.9868  1.5376  0.3457
 4282TIP3   OH234404   0.356   3.618   7.958 -0.3190  0.4247 -0.4778
 4282TIP3    H134405   0.310   3.576   7.886 -0.8662  1.8284 -0.9897
 4282TIP3    H234406   0.286   3.650   8.016  0.0272  1.2851 -0.5080
 4283TIP3   OH234407   1.472   0.139   0.622  0.1236  0.1375  0.3576
 4283TIP3    H134408   1.533   0.212   0.633  0.4306  0.3788 -2.2033
 4283TIP3    H234409   1.386   0.180   0.615  0.0491  0.0739  0.8955
 4284TIP3   OH234410   0.954   5.148   6.769  0.4285 -0.0243  0.0478
 4284TIP3    H134411   1.001   5.065   6.760  1.7697  0.7615 -0.4806
 4284TIP3    H234412   0.915   5.163   6.683 -1.2771 -0.9134  0.6183
 4285TIP3   OH234413   3.334   0.868   0.624  0.0555 -0.2516 -0.3240
 4285TIP3    H134414   3.394   0.902   0.556  0.2927 -1.0584 -0.5328
 4285TIP3    H234415   3.254   0.919   0.612  0.7442  0.9884  0.0804
 4286TIP3   OH234416   2.911   0.454   0.175  0.7388  0.3976 -0.4304
 4286TIP3    H134417   2.902   0.431   0.267 -0.3792  1.1736 -0.3264
 4286TIP3    H234418   2.827   0.429   0.136  1.8862 -1.7888 -1.6889
 4287TIP3   OH234419   7.092   7.104   2.686  0.0498 -0.1469 -0.0562
 4287TIP3    H134420   7.134   7.170   2.631 -2.6501  2.3547  0.6927
 4287TIP3    H234421   7.166   7.054   2.722  2.1429  1.4083 -1.8732
 4288TIP3   OH234422   2.069   5.506   1.775 -0.1249  0.3681 -0.1477
 4288TIP3    H134423   2.041   5.487   1.864  0.0178 -2.2305 -0.5701
 4288TIP3    H234424   2.032   5.435   1.722  2.7979 -0.2822 -1.5637
 4289TIP3   OH234425   0.788   3.344   7.680  0.9068  0.3393 -0.2846
 4289TIP3    H134426   0.771   3.408   7.749  0.6474  1.7933 -1.6363
 4289TIP3    H234427   0.792   3.260   7.726  1.2458  1.2992  1.5564
 4290TIP3   OH234428   2.662   0.356   1.628 -0.0252  0.3669 -0.4023
 4290TIP3    H134429   2.606   0.331   1.702 -1.5602  0.1951 -1.5626
 4290TIP3    H234430   2.712   0.277   1.609 -1.1427 -0.2614 -0.8390
 4291TIP3   OH234431   6.185   2.232   0.774 -0.2214 -0.7397  0.7839
 4291TIP3    H134432   6.279   2.251   0.769 -0.1037 -1.6025 -2.4176
 4291TIP3    H234433   6.144   2.298   0.718 -1.4442 -0.8302  1.5493
 4292TIP3   OH234434   6.780   6.481   1.679  0.7149  0.3964  0.0363
 4292TIP3    H134435   6.745   6.481   1.590 -2.2600 -0.3315  1.1139
 4292TIP3    H234436   6.757   6.567   1.713  1.1664  0.3946  0.3461
 4293TIP3   OH234437   5.109   5.682   7.321 -0.0471 -0.2579  0.0007
 4293TIP3    H134438   5.175   5.638   7.374  0.9236  2.4010  1.1752
 4293TIP3    H234439   5.133   5.661   7.231  2.0063  0.0515  0.4253
 4294TIP3   OH234440   6.090   2.243   7.522 -0.1185 -0.1376  0.0494
 4294TIP3    H134441   6.147   2.185   7.471  1.7935 -0.0759  2.0013
 4294TIP3    H234442   6.024   2.183   7.559  0.2002 -0.6287 -0.1590
 4295TIP3   OH234443   1.925   1.515   6.787  0.0915  0.0380  0.4091
 4295TIP3    H134444   1.861   1.548   6.724  0.0853 -0.3056  0.2316
 4295TIP3    H234445   1.900   1.424   6.801  1.3658 -0.5364 -0.7643
 4296TIP3   OH234446   5.811   4.392   0.878  0.1701  0.5180  0.3602
 4296TIP3    H134447   5.729   4.410   0.924 -1.9746 -0.4504 -2.7472
 4296TIP3    H234448   5.812   4.455   0.806  1.2528 -0.6352 -0.6768
 4297TIP3   OH234449   3.785   2.167   2.447 -0.0176 -0.3354 -0.2588
 4297TIP3    H134450   3.810   2.082   2.483  0.3517  0.0525  0.4061
 4297TIP3    H234451   3.704   2.190   2.493 -0.6221 -0.7276 -1.0808
 4298TIP3   OH234452   4.076   3.726   6.810  0.2742 -0.9810  0.4483
 4298TIP3    H134453   4.084   3.634   6.836  1.0010 -1.3935 -1.1778
 4298TIP3    H234454   4.130   3.774   6.873 -0.1496 -1.6335  1.3347
 4299TIP3   OH234455   0.003   5.491   7.694 -0.0558  0.2152 -0.8212
 4299TIP3    H134456  -0.075   5.442   7.668 -0.3054  1.8785 -3.5563
 4299TIP3    H234457  -0.019   5.583   7.676  2.5644  0.7160 -1.9446
 4300TIP3   OH234458   3.833   5.466   6.774  0.2459 -0.1510  0.7175
 4300TIP3    H134459   3.901   5.409   6.810 -0.4621 -0.7590  1.1133
 4300TIP3    H234460   3.873   5.504   6.695  0.5942 -1.4873  0.2271
 4301TIP3   OH234461   2.391   4.120   1.565  0.6738  0.3686  1.3231
 4301TIP3    H134462   2.430   4.090   1.483  2.0209  0.6965  1.8318
 4301TIP3    H234463   2.350   4.204   1.542  0.0704 -0.0682  0.7463
 4302TIP3   OH234464   5.574   0.334   0.643 -0.0016  0.0669 -0.1941
 4302TIP3    H134465   5.588   0.310   0.734  0.4558  1.9824  0.2752
 4302TIP3    H234466   5.618   0.266   0.593  1.3266 -0.0255  1.0522
 4303TIP3   OH234467   0.874   7.029   0.978 -0.1812  0.0162  0.1020
 4303TIP3    H134468   0.860   6.935   0.964 -0.0036 -0.1088  0.7270
 4303TIP3    H234469   0.794   7.059   1.019 -0.0406  0.0381  0.3597
 4304TIP3   OH234470   3.810   0.295   0.197  0.2177  0.0835  0.3247
 4304TIP3    H134471   3.821   0.235   0.124 -1.2822 -1.5394  1.3547
 4304TIP3    H234472   3.719   0.323   0.192  0.7349  1.8490  0.2211
 4305TIP3   OH234473   1.244   1.068   0.063 -0.2177 -0.2326 -0.1258
 4305TIP3    H134474   1.311   1.123   0.022 -1.0611  2.3149  1.7241
 4305TIP3    H234475   1.184   1.046  -0.009  0.7698  0.3043 -1.1356
 4306TIP3   OH234476   6.629   4.927   7.061 -0.0609 -0.4742  0.2014
 4306TIP3    H134477   6.699   4.867   7.086  0.4381 -0.4000 -0.9545
 4306TIP3    H234478   6.592   4.956   7.144  1.6135 -0.1078  0.8707
 4307TIP3   OH234479   4.448   6.602   6.356 -1.0623 -0.1846  0.1844
 4307TIP3    H134480   4.385   6.604   6.428 -1.2904  1.4563 -0.0215
 4307TIP3    H234481   4.466   6.694   6.338 -0.9465 -0.5646 -1.8026
 4308TIP3   OH234482   0.265   3.666   2.564 -0.3159  0.0172 -0.0676
 4308TIP3    H134483   0.227   3.753   2.555 -1.0524 -0.3723 -0.9084
 4308TIP3    H234484   0.198   3.607   2.529  1.0304 -0.7073 -1.5915
 4309TIP3   OH234485   2.227   6.958   1.760  0.2613 -0.0885  0.0262
 4309TIP3    H134486   2.135   6.969   1.782  0.1671 -0.1779 -0.3310
 4309TIP3    H234487   2.237   6.999   1.674  0.5223 -0.2116 -0.0029
 4310TIP3   OH234488   4.389   0.079   0.899 -0.1645 -0.3162 -0.1797
 4310TIP3    H134489   4.296   0.092   0.880  0.0021 -0.4625 -1.1135
 4310TIP3    H234490   4.421   0.023   0.829  0.6874 -0.0689 -0.0050
 4311TIP3   OH234491   4.096   6.256   0.610  0.0174 -0.3491 -0.2655
 4311TIP3    H134492   4.031   6.204   0.563 -0.0824  0.2562 -0.8081
 4311TIP3    H234493   4.176   6.203   0.608 -0.0626 -0.4521 -0.8737
 4312TIP3   OH234494   0.855   4.648   1.982 -0.0644  0.1669  0.0014
 4312TIP3    H134495   0.878   4.668   2.073  1.6199 -1.9539  0.1408
 4312TIP3    H234496   0.812   4.563   1.987  0.8486 -0.4064 -1.2341
 4313TIP3   OH234497   1.111   5.372   0.643 -0.4095 -0.4573  0.2246
 4313TIP3    H134498   1.136   5.464   0.639 -1.5995  0.1175  3.1617
 4313TIP3    H234499   1.167   5.328   0.579  1.8443  1.9630  0.3891
 4314TIP3   OH234500   5.649   6.277   6.758  0.3852 -0.1305  0.0465
 4314TIP3    H134501   5.573   6.234   6.719  0.6162  0.0471 -0.6130
 4314TIP3    H234502   5.712   6.207   6.772  0.8499  0.0072 -1.2426
 4315TIP3   OH234503   5.052   3.750   1.725  0.3253  0.6765  0.0174
 4315TIP3    H134504   5.145   3.758   1.748  0.0848  2.0281  0.5823
 4315TIP3    H234505   5.023   3.840   1.711 -1.0114  0.2920  0.2513
 4316TIP3   OH234506   0.605   6.173   2.315 -0.1641  0.3499 -0.1046
 4316TIP3    H134507   0.612   6.189   2.409  1.2502 -0.0856 -0.1123
 4316TIP3    H234508   0.650   6.247   2.274  0.2602 -0.0486 -0.3797
 4317TIP3   OH234509   6.789   5.123   6.910 -0.1184 -0.0264 -0.3130
 4317TIP3    H134510   6.718   5.176   6.874  0.3915  0.1449 -1.0958
 4317TIP3    H234511   6.746   5.061   6.968 -1.0093 -0.4441 -1.3752
 4318TIP3   OH234512   1.654   0.783   7.743  0.3476  0.8749  0.3170
 4318TIP3    H134513   1.741   0.745   7.731 -1.2582 -2.8758 -1.0372
 4318TIP3    H234514   1.635   0.828   7.661  0.1268 -0.5121 -0.4286
 4319TIP3   OH234515   3.298   3.773   7.590  0.1538 -0.2661  0.1653
 4319TIP3    H134516   3.333   3.693   7.631 -0.2835 -0.9803 -0.8313
 4319TIP3    H234517   3.203   3.763   7.595  0.0748  0.8162  1.2024
 4320TIP3   OH234518   6.784   2.556   0.046 -0.0388  0.0351 -0.0573
 4320TIP3    H134519   6.766   2.563   0.140 -0.0202 -0.2234 -0.0338
 4320TIP3    H234520   6.809   2.464   0.033 -0.5956 -0.0737 -0.4120
 4321TIP3   OH234521   3.377   1.282   7.902 -0.2445 -0.2774 -0.1377
 4321TIP3    H134522   3.464   1.319   7.916  0.0454 -0.2753 -1.7611
 4321TIP3    H234523   3.391   1.188   7.898 -0.4230 -0.3224  0.2665
 4322TIP3   OH234524   6.421   6.958   6.891 -0.1227 -0.0190 -0.1076
 4322TIP3    H134525   6.346   6.990   6.941  0.4415 -0.6406  1.1903
 4322TIP3    H234526   6.460   7.037   6.853 -0.9672  0.3886 -0.1463
 4323TIP3   OH234527   6.387   6.987   7.409  0.1986 -0.3851 -0.4991
 4323TIP3    H134528   6.362   7.068   7.454  0.5920 -0.7495  0.3922
 4323TIP3    H234529   6.482   6.982   7.419  0.1919 -0.8983 -0.6581
 4324TIP3   OH234530   6.774   5.928   1.725 -0.5164 -0.1229 -0.1794
 4324TIP3    H134531   6.812   5.909   1.811  1.0811  1.4318 -0.4730
 4324TIP3    H234532   6.761   6.023   1.725 -4.0217 -0.4891 -0.3328
 4325TIP3   OH234533   5.204   1.594   7.474  0.6806 -0.2947  0.3153
 4325TIP3    H134534   5.151   1.539   7.531  0.1301  0.2503  0.3420
 4325TIP3    H234535   5.245   1.658   7.533  1.1085 -0.5112  0.2548
 4326TIP3   OH234536   5.751   0.674   1.124 -0.6209 -0.2475 -0.7645
 4326TIP3    H134537   5.672   0.689   1.176  1.4178  1.2115  2.1875
 4326TIP3    H234538   5.755   0.749   1.065 -1.1000  0.0250 -0.4594
 4327TIP3   OH234539   4.900   0.268   1.098  0.4327 -0.0088 -0.4842
 4327TIP3    H134540   4.918   0.218   1.018  1.9893  1.5146 -1.1700
 4327TIP3    H234541   4.928   0.357   1.076 -0.3040  0.7217  1.3655
 4328TIP3   OH234542   1.652   2.994   8.002  0.3491 -0.1888 -0.3909
 4328TIP3    H134543   1.662   3.085   8.032 -0.0655 -0.7699  1.6521
 4328TIP3    H234544   1.562   2.989   7.971  0.5231  0.2154 -0.9760
 4329TIP3   OH234545   2.595   4.274   0.514  0.6702  0.1056  0.2922
 4329TIP3    H134546   2.638   4.275   0.600  0.0234 -0.1893  0.6248
 4329TIP3    H234547   2.609   4.184   0.482 -0.4264 -0.2508  0.7815
 4330TIP3   OH234548   2.169   2.268   0.515 -0.3410  0.8588 -0.0901
 4330TIP3    H134549   2.113   2.256   0.437 -0.3628  1.4578 -0.1725
 4330TIP3    H234550   2.232   2.335   0.489 -0.9248  1.7511  0.6992
 4331TIP3   OH234551   6.426   0.916   1.498  0.4923  0.3035  0.1166
 4331TIP3    H134552   6.449   0.827   1.471  2.0043  0.5140  0.6181
 4331TIP3    H234553   6.366   0.947   1.430  1.0698 -0.5891 -0.8319
 4332TIP3   OH234554   5.024   3.602   7.671  0.0275 -0.5358  0.0841
 4332TIP3    H134555   4.969   3.579   7.745  0.8963 -1.3217  0.5002
 4332TIP3    H234556   4.979   3.677   7.631 -0.7213 -0.4205  1.0865
 4333TIP3   OH234557   2.378   3.799   1.745  0.7544  0.5176  0.4508
 4333TIP3    H134558   2.324   3.753   1.682  0.7787  1.7914 -0.5424
 4333TIP3    H234559   2.333   3.883   1.757  0.2664 -0.0065  2.8099
 4334TIP3   OH234560   4.105   0.966   1.308 -0.0488 -0.2409  0.0122
 4334TIP3    H134561   4.180   0.905   1.306 -0.7845 -1.1985  0.7600
 4334TIP3    H234562   4.141   1.046   1.347  0.8338 -0.3365 -0.5760
 4335TIP3   OH234563   0.241   1.099   1.310 -0.2137  0.4798  1.0483
 4335TIP3    H134564   0.217   1.102   1.403  0.2950  3.2589  1.1764
 4335TIP3    H234565   0.170   1.049   1.269 -2.3644  2.1627  2.4605
 4336TIP3   OH234566   1.371   2.691   7.931 -0.2600  0.3756 -0.2575
 4336TIP3    H134567   1.459   2.653   7.944 -0.6117 -0.6734 -0.8255
 4336TIP3    H234568   1.333   2.693   8.019 -0.2165 -0.5952 -0.2014
 4337TIP3   OH234569   4.748   3.380   2.806 -0.5422 -0.3345  0.2482
 4337TIP3    H134570   4.800   3.419   2.736 -0.4903 -0.8647 -0.0066
 4337TIP3    H234571   4.771   3.431   2.884 -1.6152  1.1702 -0.3505
 4338TIP3   OH234572   2.732   6.538   1.373 -0.1392 -0.5768 -0.5906
 4338TIP3    H134573   2.781   6.461   1.401  1.7481  0.8498  0.3076
 4338TIP3    H234574   2.765   6.557   1.285  2.3257  1.3217  0.6162
 4339TIP3   OH234575   2.707   1.142   1.663 -0.0326 -0.5112  0.0490
 4339TIP3    H134576   2.720   1.144   1.758  1.0120  1.4081 -0.0654
 4339TIP3    H234577   2.794   1.124   1.628  0.1025  1.1661 -0.5571
 4340TIP3   OH234578   6.753   4.457   0.692  0.1387 -0.3813  0.0296
 4340TIP3    H134579   6.767   4.552   0.687 -1.0432 -0.1511  0.7625
 4340TIP3    H234580   6.740   4.430   0.601  2.2239 -0.1527 -0.3808
 4341TIP3   OH234581   4.467   6.077   6.544  0.3812  0.2715 -0.2152
 4341TIP3    H134582   4.456   6.167   6.513  0.9202  0.3852 -0.0833
 4341TIP3    H234583   4.463   6.024   6.464 -0.1796  0.3811 -0.2688
 4342TIP3   OH234584   1.365   4.493   6.411 -0.1474 -0.0790 -0.6174
 4342TIP3    H134585   1.271   4.508   6.401 -0.4799  0.4928  2.4097
 4342TIP3    H234586   1.377   4.400   6.396 -1.1960 -0.1450 -1.0823
 4343TIP3   OH234587   1.988   2.685   7.788  0.2508  0.3730 -0.2158
 4343TIP3    H134588   1.941   2.739   7.852  0.0957  1.3820 -1.1522
 4343TIP3    H234589   1.919   2.636   7.743  0.2595  0.4899 -0.3566
 4344TIP3   OH234590   0.124   3.100   7.387  0.1016  0.1094  0.4789
 4344TIP3    H134591   0.149   3.162   7.318 -1.1016 -0.2008 -0.2566
 4344TIP3    H234592   0.066   3.150   7.444  0.2855  0.0633  0.7120
 4345TIP3   OH234593   6.850   6.452   7.592 -0.4053  0.5661  0.5011
 4345TIP3    H134594   6.778   6.428   7.534  1.2826 -0.0350 -1.4891
 4345TIP3    H234595   6.929   6.441   7.538  1.1896  1.1977  2.5591
 4346TIP3   OH234596   0.358   6.478   0.530 -0.1873  0.3885 -0.4144
 4346TIP3    H134597   0.442   6.447   0.496  0.5564  2.0018 -0.1185
 4346TIP3    H234598   0.293   6.443   0.468  0.8814  0.7645 -1.8058
 4347TIP3   OH234599   5.885   2.060   1.010  0.1802  0.6162 -0.0482
 4347TIP3    H134600   5.977   2.086   1.019  1.2605 -2.9929  0.8370
 4347TIP3    H234601   5.861   2.026   1.096 -1.2859 -0.4766 -0.8497
 4348TIP3   OH234602   6.969   2.929   0.273  0.1614 -0.2081 -0.6652
 4348TIP3    H134603   6.982   2.919   0.368 -0.1004 -0.6315 -0.6727
 4348TIP3    H234604   7.009   3.014   0.253 -0.5940  0.3145 -0.0245
 4349TIP3   OH234605   3.829   3.315   1.828  0.2541 -0.3894  0.6164
 4349TIP3    H134606   3.887   3.390   1.815  0.4332 -0.8304 -1.3199
 4349TIP3    H234607   3.837   3.263   1.748  1.0395 -3.1299  2.3314
 4350TIP3   OH234608   5.063   3.371   2.404  0.3487  0.0720  0.1666
 4350TIP3    H134609   4.997   3.415   2.350  0.5157  0.6961  0.4528
 4350TIP3    H234610   5.061   3.280   2.376 -0.8989  0.0029  0.4349
 4351TIP3   OH234611   2.577   3.093   7.076  0.0765 -0.1516  0.1123
 4351TIP3    H134612   2.583   3.049   6.991 -0.7017  1.3351 -0.7515
 4351TIP3    H234613   2.657   3.068   7.122  0.1292 -1.6286 -0.7347
 4352TIP3   OH234614   1.299   1.266   7.714 -0.6825 -0.0013 -0.8136
 4352TIP3    H134615   1.319   1.184   7.668  0.7325 -0.0378 -0.1923
 4352TIP3    H234616   1.214   1.293   7.679  0.3634  0.0383 -3.4998
 4353TIP3   OH234617   0.312   2.829   0.833  0.3256  0.0679  0.1990
 4353TIP3    H134618   0.289   2.790   0.748 -0.4736  0.8254  0.0498
 4353TIP3    H234619   0.390   2.882   0.814  0.1120  0.2860 -0.0783
 4354TIP3   OH234620   0.266   6.609   0.076 -0.4870 -0.3243 -0.4420
 4354TIP3    H134621   0.345   6.657   0.100 -0.8277 -0.5587  1.2976
 4354TIP3    H234622   0.221   6.666   0.014 -0.5615  1.3531  1.0639
 4355TIP3   OH234623   2.025   0.514   6.486 -0.6003  0.0405 -0.1436
 4355TIP3    H134624   1.997   0.480   6.401  0.8223  0.1995 -0.7014
 4355TIP3    H234625   1.978   0.597   6.496  0.5756  0.9140 -1.6185
 4356TIP3   OH234626   4.453   5.924   1.742 -0.1969  0.4202  0.3889
 4356TIP3    H134627   4.360   5.915   1.762 -0.5354 -0.2758 -1.3333
 4356TIP3    H234628   4.455   5.981   1.665  0.7056 -0.5862 -0.3480
 4357TIP3   OH234629   0.779   0.879   7.569 -0.3164  0.8199 -0.5217
 4357TIP3    H134630   0.724   0.913   7.639  0.3510  1.2388 -0.1911
 4357TIP3    H234631   0.832   0.953   7.542  0.4674  0.2993 -0.4560
 4358TIP3   OH234632   6.547   5.665   1.925  0.7165  0.2066  0.3428
 4358TIP3    H134633   6.470   5.678   1.869  0.3290 -0.6170  0.6538
 4358TIP3    H234634   6.578   5.753   1.944  0.7535  0.5130 -1.0195
 4359TIP3   OH234635   0.084   7.042   1.341 -0.1553 -0.0971  0.2012
 4359TIP3    H134636   0.065   7.083   1.257  0.1809 -1.7624 -0.7365
 4359TIP3    H234637   0.007   6.989   1.360 -1.4651  2.3170  2.3855
 4360TIP3   OH234638   4.345   0.067   1.293 -0.2022  0.4207 -0.0324
 4360TIP3    H134639   4.372   0.007   1.224 -0.2885  0.2940  0.0451
 4360TIP3    H234640   4.393   0.039   1.370 -0.4177  0.3064  0.0605
 4361TIP3   OH234641   5.873   0.174   0.572  0.1640 -0.0216  0.1393
 4361TIP3    H134642   5.921   0.134   0.645  0.9258  1.6035  0.5778
 4361TIP3    H234643   5.788   0.129   0.572  0.4332 -0.5923  1.5212
 4362TIP3   OH234644   6.648   0.387   2.541 -0.0256 -0.2450  0.4855
 4362TIP3    H134645   6.566   0.354   2.505  0.4619 -0.7201 -0.2167
 4362TIP3    H234646   6.621   0.451   2.606 -0.9580 -0.5450  0.4132
 4363TIP3   OH234647   5.263   3.434   2.902 -1.1211 -0.6039 -0.7563
 4363TIP3    H134648   5.302   3.441   2.815 -0.5323  1.8013 -0.3606
 4363TIP3    H234649   5.209   3.512   2.912  0.1746  0.1055  1.6524
 4364TIP3   OH234650   5.269   5.848   0.569 -0.6125  0.5378  0.4978
 4364TIP3    H134651   5.299   5.936   0.591  2.8007  0.3810 -2.5739
 4364TIP3    H234652   5.314   5.791   0.632 -0.9340  0.8010  0.9747
 4365TIP3   OH234653   4.509   4.209   1.504  0.3318 -0.0010 -0.1791
 4365TIP3    H134654   4.538   4.155   1.430  0.5928  0.9929 -0.8301
 4365TIP3    H234655   4.421   4.237   1.480  0.7833  1.1162 -0.5826
 4366TIP3   OH234656   6.495   5.109   7.274  0.3983 -0.3463  0.2459
 4366TIP3    H134657   6.584   5.105   7.307  0.3325 -0.7402  0.3913
 4366TIP3    H234658   6.441   5.079   7.348  0.3595 -2.5649 -0.6027
 4367TIP3   OH234659   1.593   2.860   2.468  0.6304  0.2473  0.5580
 4367TIP3    H134660   1.675   2.814   2.488 -0.6611 -1.8677  1.3900
 4367TIP3    H234661   1.615   2.919   2.396  2.7486 -0.6755  0.3799
 4368TIP3   OH234662   5.663   3.952   7.804 -0.2962 -0.5156  0.1737
 4368TIP3    H134663   5.745   3.961   7.853 -0.0302  0.2043 -0.3775
 4368TIP3    H234664   5.595   3.979   7.865 -0.0918 -0.8189  0.5362
 4369TIP3   OH234665   4.325   0.807   7.997 -0.3438  0.0052 -0.3025
 4369TIP3    H134666   4.317   0.716   8.024 -1.1063  0.3329  0.6485
 4369TIP3    H234667   4.273   0.813   7.917 -1.0383 -0.2050  0.1266
 4370TIP3   OH234668   0.678   0.104   0.043 -0.7692 -0.3621 -0.4183
 4370TIP3    H134669   0.660   0.013   0.022 -2.2765 -0.3618  0.6866
 4370TIP3    H234670   0.674   0.108   0.139  0.9155  0.5619 -0.3460
 4371TIP3   OH234671   3.989   3.952   1.831 -0.2645  0.0924 -0.0709
 4371TIP3    H134672   4.022   3.959   1.742  0.2890  0.0526  0.1247
 4371TIP3    H234673   4.064   3.922   1.882 -0.3021  1.0275  0.5753
 4372TIP3   OH234674   0.074   5.697   0.874  0.2050  0.2252  0.4032
 4372TIP3    H134675   0.076   5.644   0.954 -1.1621 -0.5860 -0.0794
 4372TIP3    H234676  -0.019   5.709   0.855  0.5117  1.0375 -0.6655
 4373TIP3   OH234677   2.823   0.196   1.145 -0.4049  0.3264 -0.4212
 4373TIP3    H134678   2.840   0.119   1.092  2.3300  1.8938 -2.0222
 4373TIP3    H234679   2.874   0.183   1.225 -1.0903 -0.1297 -0.0510
 4374TIP3   OH234680   3.150   0.024   6.620  0.1822 -0.5459  0.1126
 4374TIP3    H134681   3.065  -0.011   6.596 -0.0343 -0.6560  1.0357
 4374TIP3    H234682   3.133   0.114   6.649  0.7398  0.4295 -2.3064
 4375TIP3   OH234683   4.291   5.009   7.954 -0.4217  0.6420  0.0438
 4375TIP3    H134684   4.339   5.026   7.873  0.2888  1.2765  0.5882
 4375TIP3    H234685   4.356   4.974   8.014 -0.6701  1.3071  0.7195
 4376TIP3   OH234686   1.509   0.392   1.326 -0.6796 -0.0667 -0.1962
 4376TIP3    H134687   1.466   0.477   1.312 -1.4875 -0.5497 -0.7636
 4376TIP3    H234688   1.602   0.413   1.327 -0.8826  0.9023  0.2199
 4377TIP3   OH234689   0.953   6.580   6.896  0.2001 -0.8300  0.0720
 4377TIP3    H134690   1.033   6.619   6.931 -0.2557  1.9889 -1.7331
 4377TIP3    H234691   0.884   6.605   6.957 -0.1168  1.5764 -1.1465
 4378TIP3   OH234692   3.418   1.417   6.322 -0.2520  0.3894  0.3448
 4378TIP3    H134693   3.336   1.459   6.346 -1.1203 -0.6642 -0.6541
 4378TIP3    H234694   3.451   1.468   6.248  0.6516  1.5461  1.5017
 4379TIP3   OH234695   1.352   3.947   6.892  0.7173  0.0218 -0.5343
 4379TIP3    H134696   1.366   4.042   6.891 -0.4656  0.2165 -2.2457
 4379TIP3    H234697   1.416   3.915   6.955  0.3061  2.0650  1.0463
 4380TIP3   OH234698   1.196   6.639   7.491 -0.0555 -0.6228  0.6719
 4380TIP3    H134699   1.157   6.724   7.508 -0.7148 -0.5433 -1.0095
 4380TIP3    H234700   1.265   6.658   7.427  0.3127 -1.2515  0.8793
 4381TIP3   OH234701   4.643   2.276   0.709  0.2310 -0.2947  0.1092
 4381TIP3    H134702   4.585   2.241   0.777 -0.5468 -1.8285 -1.2770
 4381TIP3    H234703   4.688   2.348   0.752 -0.6731 -0.8116  2.0742
 4382TIP3   OH234704   6.741   2.439   6.986 -0.1271  0.4033  0.3959
 4382TIP3    H134705   6.647   2.439   6.969 -0.1867  1.7901  0.5966
 4382TIP3    H234706   6.782   2.420   6.901 -0.5639  0.6474  0.1316
 4383TIP3   OH234707   1.776   2.191   0.247 -0.7628  0.0973  0.2502
 4383TIP3    H134708   1.796   2.221   0.158  1.5234  1.9889  1.2603
 4383TIP3    H234709   1.803   2.099   0.248 -2.0825 -0.3551 -1.3106
 4384TIP3   OH234710   2.825   0.483   2.020  0.4398  0.2844 -0.0323
 4384TIP3    H134711   2.749   0.518   1.973  0.7404  0.0570 -0.7009
 4384TIP3    H234712   2.869   0.560   2.054 -0.0720  0.4208  0.3360
 4385TIP3   OH234713   4.374   5.687   0.142  0.1674 -0.2096 -0.3891
 4385TIP3    H134714   4.430   5.759   0.114  2.8617 -1.5881  0.9922
 4385TIP3    H234715   4.354   5.707   0.234 -0.9832 -0.1463 -0.6362
 4386TIP3   OH234716   3.582   4.829   1.132 -0.3021 -0.1253  0.6577
 4386TIP3    H134717   3.621   4.917   1.136 -2.0152  0.7414 -0.4673
 4386TIP3    H234718   3.611   4.787   1.213 -0.9266  2.1527  2.1877
 4387TIP3   OH234719   1.094   0.599   0.107  0.5413 -0.4390  0.7662
 4387TIP3    H134720   1.064   0.508   0.101 -2.4800  0.1719  3.5220
 4387TIP3    H234721   1.152   0.601   0.183 -0.2720  0.0721  1.3915
 4388TIP3   OH234722   0.592   2.839   0.787 -0.4552  0.1849 -0.3425
 4388TIP3    H134723   0.660   2.827   0.853 -1.3673 -0.8382  0.4478
 4388TIP3    H234724   0.637   2.880   0.713  0.5151  1.7283  1.0433
 4389TIP3   OH234725   6.419   5.026   0.272  0.2982 -0.6835  0.3287
 4389TIP3    H134726   6.386   5.112   0.297  0.3994 -0.1990 -1.1191
 4389TIP3    H234727   6.372   4.965   0.330 -1.2510  0.1874  0.0474
 4390TIP3   OH234728   0.692   5.448   7.081  0.1815  0.1284 -0.0781
 4390TIP3    H134729   0.716   5.541   7.077  1.2018 -0.1188  0.0230
 4390TIP3    H234730   0.771   5.401   7.054 -0.2605 -0.7205  0.0637
 4391TIP3   OH234731   2.178   1.467   0.452 -0.7458  0.5908 -0.6002
 4391TIP3    H134732   2.267   1.482   0.485 -0.2865 -1.0480 -0.9941
 4391TIP3    H234733   2.132   1.548   0.471  0.8513  1.5165 -0.4372
 4392TIP3   OH234734   3.261   2.462   6.437 -0.3564 -0.5430  0.0942
 4392TIP3    H134735   3.305   2.378   6.424 -2.0018 -1.3870 -0.3097
 4392TIP3    H234736   3.332   2.524   6.453  0.9280 -1.9216 -0.0271
 4393TIP3   OH234737   4.303   6.252   2.300  0.0495  0.2741 -0.6819
 4393TIP3    H134738   4.282   6.202   2.379  1.9355  1.1594  0.4583
 4393TIP3    H234739   4.225   6.243   2.244  0.4641 -4.3984 -0.8831
 4394TIP3   OH234740   3.830   6.460   1.506  0.2721 -0.4769 -0.0195
 4394TIP3    H134741   3.838   6.367   1.483 -0.9730 -0.6026  0.0267
 4394TIP3    H234742   3.737   6.479   1.498  0.5494  0.8386 -0.2503
 4395TIP3   OH234743   6.698   5.443   1.534  0.3979  0.1173 -0.4323
 4395TIP3    H134744   6.639   5.394   1.591  2.1942 -1.5802  0.1008
 4395TIP3    H234745   6.693   5.533   1.566  0.3580 -0.5556  1.5934
 4396TIP3   OH234746   0.296   1.872   6.437 -0.0955 -0.0310 -0.5184
 4396TIP3    H134747   0.301   1.895   6.530 -1.7626 -0.8612 -0.2020
 4396TIP3    H234748   0.337   1.946   6.392  2.0723 -0.2644  0.9217
 4397TIP3   OH234749   6.218   3.723   1.351  0.1641 -0.6359  0.0544
 4397TIP3    H134750   6.198   3.812   1.382 -0.1541 -1.2427  1.6962
 4397TIP3    H234751   6.145   3.670   1.382  0.5854 -1.5581 -0.4938
 4398TIP3   OH234752   5.816   7.006   1.271  0.0064  0.1857  0.2831
 4398TIP3    H134753   5.734   7.035   1.232  0.3934  3.3476  1.4902
 4398TIP3    H234754   5.794   6.988   1.362  0.2517 -1.2248  0.0807
 4399TIP3   OH234755   1.092   6.303   1.158 -0.0750  0.2091 -0.4331
 4399TIP3    H134756   1.133   6.236   1.104  0.7405  0.0358  0.3923
 4399TIP3    H234757   1.127   6.289   1.245  0.6985  2.1813 -0.3898
 4400TIP3   OH234758   6.662   5.683   1.665  0.2232 -0.2895 -0.0746
 4400TIP3    H134759   6.616   5.667   1.747  0.7036 -3.1830 -0.2796
 4400TIP3    H234760   6.703   5.769   1.676 -2.4576  0.9217  1.3595
 4401TIP3   OH234761   6.660   2.001   6.306 -0.1088  1.0738 -0.4194
 4401TIP3    H134762   6.564   2.008   6.311 -0.2887 -1.0038 -0.1920
 4401TIP3    H234763   6.678   1.994   6.212 -0.1859  1.3349 -0.4546
 4402TIP3   OH234764   4.088   5.209   1.677 -0.1388 -0.4128  0.0792
 4402TIP3    H134765   4.018   5.215   1.742  0.1299 -1.2906  0.4737
 4402TIP3    H234766   4.161   5.168   1.725  0.6330  0.4551 -0.3302
 4403TIP3   OH234767   6.550   4.213   2.802 -0.5188 -0.2236 -0.1513
 4403TIP3    H134768   6.472   4.191   2.854  0.0862  0.8429  1.2794
 4403TIP3    H234769   6.574   4.130   2.760 -1.9839 -0.7451 -0.0278
 4404TIP3   OH234770   4.932   6.255   0.320 -0.0606  0.1844 -0.2793
 4404TIP3    H134771   4.855   6.256   0.263 -0.3595  0.7549  0.1293
 4404TIP3    H234772   4.930   6.169   0.363  0.1479 -0.2369 -1.0888
 4405TIP3   OH234773   1.364   5.055   7.515 -0.4612 -1.0400  0.1848
 4405TIP3    H134774   1.453   5.024   7.502 -0.2926 -0.5288  0.0789
 4405TIP3    H234775   1.371   5.118   7.588 -0.7023 -0.8820  0.0745
 4406TIP3   OH234776   1.703   2.292   1.359  0.2634  0.1828 -0.3841
 4406TIP3    H134777   1.612   2.321   1.358  0.4136  0.7847  0.8973
 4406TIP3    H234778   1.699   2.199   1.378 -0.0646  0.5085  1.2954
 4407TIP3   OH234779   5.324   3.225   6.649 -0.0902  0.2988 -0.2943
 4407TIP3    H134780   5.273   3.302   6.625 -0.0462  0.5458  0.3835
 4407TIP3    H234781   5.393   3.220   6.582  0.6423  1.5563  0.3361
 4408TIP3   OH234782   4.500   2.143   0.430  0.1821 -0.2718  0.0853
 4408TIP3    H134783   4.522   2.066   0.482 -0.5651 -0.4278  0.1791
 4408TIP3    H234784   4.575   2.155   0.372 -0.2128 -1.8091 -0.7993
 4409TIP3   OH234785   7.115   2.729   0.629 -0.3051  0.0757  0.1417
 4409TIP3    H134786   7.172   2.795   0.590 -0.2844  0.8303  1.3933
 4409TIP3    H234787   7.133   2.649   0.580  2.3051  0.1297  0.8927
 4410TIP3   OH234788   2.022   7.106   0.632  0.0684 -0.3241 -0.3110
 4410TIP3    H134789   2.012   7.032   0.572 -1.2787 -1.1569  0.8981
 4410TIP3    H234790   2.090   7.078   0.694 -0.6198 -0.6566  0.2975
 4411TIP3   OH234791   1.432   5.878   7.367  0.1836 -0.5867  0.1302
 4411TIP3    H134792   1.507   5.828   7.396  1.0826  0.7896  0.2839
 4411TIP3    H234793   1.432   5.870   7.272  1.4315  0.6039  0.0080
 4412TIP3   OH234794   1.311   1.893   1.000  0.2277 -0.1772 -0.4117
 4412TIP3    H134795   1.349   1.965   0.950  0.9582 -0.8051 -0.7685
 4412TIP3    H234796   1.341   1.814   0.956 -0.8014 -0.7051 -0.1949
 4413TIP3   OH234797   6.045   0.635   1.836  0.3440 -0.3944  0.0246
 4413TIP3    H134798   6.025   0.542   1.852 -1.7996  0.0453  0.1536
 4413TIP3    H234799   6.140   0.641   1.850  0.4864 -2.4887  0.3691
 4414TIP3   OH234800   4.438   3.529   2.255  0.1639  0.4908 -0.3641
 4414TIP3    H134801   4.373   3.563   2.194 -0.4887 -1.1249 -0.6361
 4414TIP3    H234802   4.420   3.573   2.337 -1.4215 -0.0381 -0.3933
 4415TIP3   OH234803   4.680   2.368   1.714  0.3612 -0.1372  0.1165
 4415TIP3    H134804   4.692   2.304   1.784  0.5906  0.9370  1.0937
 4415TIP3    H234805   4.743   2.438   1.734  0.3199  0.2702 -1.0780
 4416TIP3   OH234806   6.149   1.542   1.766  0.0924 -0.0638 -0.3663
 4416TIP3    H134807   6.082   1.583   1.819 -0.8324 -0.5228 -1.1514
 4416TIP3    H234808   6.180   1.611   1.707 -0.6903 -0.2010 -0.9499
 4417TIP3   OH234809   1.670   0.671   0.739 -0.4012 -0.7817 -0.6830
 4417TIP3    H134810   1.756   0.636   0.718  0.0357 -0.4638  0.5161
 4417TIP3    H234811   1.610   0.622   0.683  0.5184 -1.2588 -1.2675
 4418TIP3   OH234812   5.715   4.992   1.405  0.3117  0.5490 -0.0381
 4418TIP3    H134813   5.728   5.015   1.313 -0.4141  1.1817 -0.0001
 4418TIP3    H234814   5.795   5.022   1.449  0.3233  0.9848 -0.3450
 4419TIP3   OH234815   3.320   2.706   0.551  0.0178  0.3593 -0.2335
 4419TIP3    H134816   3.310   2.801   0.560  0.9357  0.6549 -1.8925
 4419TIP3    H234817   3.394   2.684   0.607  0.2599  0.7398 -0.4033
 4420TIP3   OH234818   0.203   5.825   2.251  0.1653 -0.3849  0.2941
 4420TIP3    H134819   0.257   5.884   2.304  0.2125  0.6941 -0.9120
 4420TIP3    H234820   0.140   5.789   2.313  0.5956  0.3809  1.2088
 4421TIP3   OH234821   1.376   1.644   1.326 -0.3672 -0.1596 -0.0688
 4421TIP3    H134822   1.297   1.633   1.380 -0.6634  0.6570 -0.3193
 4421TIP3    H234823   1.383   1.738   1.313  0.4070 -0.2587 -0.4259
 4422TIP3   OH234824   0.196   0.373   7.906  0.1882  0.0825  0.3779
 4422TIP3    H134825   0.204   0.349   7.814 -1.0332  1.0730 -0.0205
 4422TIP3    H234826   0.186   0.290   7.952 -2.6859 -0.3291 -0.7937
 4423TIP3   OH234827   6.632   0.081   6.761 -0.5814  0.3278 -0.0131
 4423TIP3    H134828   6.694   0.040   6.821 -0.2698 -0.4173 -0.8211
 4423TIP3    H234829   6.579   0.139   6.816  0.8453  1.0048  0.6882
 4424TIP3   OH234830   0.360   5.294   2.033  0.4081 -0.3578  0.4420
 4424TIP3    H134831   0.408   5.219   2.068  0.7705 -0.8609 -1.0665
 4424TIP3    H234832   0.397   5.370   2.079  2.0936 -0.8198 -0.1079
 4425TIP3   OH234833   1.636   5.908   0.888  0.1922 -0.5764  0.0365
 4425TIP3    H134834   1.564   5.951   0.841 -0.4209 -1.7994 -0.1891
 4425TIP3    H234835   1.657   5.832   0.834  2.0805  0.0699 -0.2054
 4426TIP3   OH234836   3.011   0.038   1.756 -0.3050 -0.4704 -0.0747
 4426TIP3    H134837   3.030  -0.055   1.761 -1.5133 -0.6956  0.7856
 4426TIP3    H234838   3.039   0.063   1.668  0.4650 -1.5344 -0.1515
 4427TIP3   OH234839   6.898   5.272   3.268  0.3565  0.3451  0.0242
 4427TIP3    H134840   6.851   5.300   3.189  1.7088  0.1652 -0.8703
 4427TIP3    H234841   6.952   5.347   3.292  1.4648 -0.2833 -0.4228
 4428TIP3   OH234842   3.962   1.359   7.987  0.1884  0.5239 -0.0412
 4428TIP3    H134843   4.021   1.405   7.927  1.2068  0.1674  0.6523
 4428TIP3    H234844   4.009   1.358   8.070  1.2784 -3.5865 -0.4664
 4429TIP3   OH234845   6.944   4.279   7.492  0.5144  0.1176 -0.1895
 4429TIP3    H134846   6.870   4.334   7.466  1.8174  2.0507  0.0134
 4429TIP3    H234847   6.978   4.319   7.571  0.3822 -2.1356  1.0878
 4430TIP3   OH234848   6.590   2.082   0.538  0.4214 -0.4771 -0.0638
 4430TIP3    H134849   6.556   2.113   0.454  1.4820 -0.6245 -0.5561
 4430TIP3    H234850   6.613   1.990   0.523  0.0696 -0.6739  0.5574
 4431TIP3   OH234851   6.788   3.524   1.494 -0.3385 -0.5142  0.2878
 4431TIP3    H134852   6.785   3.466   1.418  0.2747  0.3388 -0.4015
 4431TIP3    H234853   6.808   3.610   1.458 -0.1559 -0.0743  1.4059
 4432TIP3   OH234854   3.593   1.046   1.843 -0.2707 -0.1245  0.6109
 4432TIP3    H134855   3.684   1.017   1.831 -0.7050 -1.1489 -0.4146
 4432TIP3    H234856   3.561   0.995   1.917  0.0720  0.4586  1.1675
 4433TIP3   OH234857   2.694   5.188   7.321 -0.3613 -0.0495 -0.3659
 4433TIP3    H134858   2.740   5.170   7.239 -3.8823  0.6571 -2.7106
 4433TIP3    H234859   2.691   5.104   7.367 -0.7400 -1.1827 -2.3604
 4434TIP3   OH234860   3.753   4.612   0.666  0.2012  0.4715 -0.5539
 4434TIP3    H134861   3.715   4.608   0.754 -1.2863 -1.4679 -1.1957
 4434TIP3    H234862   3.718   4.534   0.621  4.3027 -1.0788 -1.5369
 4435TIP3   OH234863   4.267   0.975   0.465  0.1591  0.1500 -0.2057
 4435TIP3    H134864   4.336   1.037   0.442 -0.2190  0.4422 -0.5655
 4435TIP3    H234865   4.252   0.990   0.559 -0.0413  0.7255 -0.3217
 4436TIP3   OH234866   4.774   6.135   7.828  0.0432 -0.2702  0.4388
 4436TIP3    H134867   4.793   6.117   7.736  1.8014  0.8023  0.5402
 4436TIP3    H234868   4.686   6.172   7.827 -1.1053 -2.7815 -0.4462
 4437TIP3   OH234869   6.081   0.980   0.841  0.3347 -0.0941 -0.2931
 4437TIP3    H134870   6.060   1.062   0.798  2.7885  0.8736  0.1608
 4437TIP3    H234871   6.053   0.993   0.932 -2.2121 -1.0538 -0.8606
 4438TIP3   OH234872   6.001   3.158   0.890 -0.1005 -0.4821 -0.3159
 4438TIP3    H134873   5.995   3.106   0.970 -0.1618  1.0957  0.7408
 4438TIP3    H234874   5.957   3.240   0.911  0.8084  0.3816 -1.6141
 4439TIP3   OH234875   1.699   1.203   7.797  0.6795 -0.4767  0.1250
 4439TIP3    H134876   1.609   1.189   7.770  0.3919  1.5231 -0.1054
 4439TIP3    H234877   1.742   1.239   7.719  1.0766  0.7484  0.8814
 4440TIP3   OH234878   4.866   6.870   0.380 -0.7302  0.3079  0.6123
 4440TIP3    H134879   4.823   6.952   0.406 -2.0865  0.0150 -0.5459
 4440TIP3    H234880   4.849   6.864   0.286  2.1764  0.3025  0.0079
 4441TIP3   OH234881   1.148   4.733   7.890 -0.3925 -0.1034 -0.1292
 4441TIP3    H134882   1.102   4.756   7.809  0.0119 -1.7654 -0.8767
 4441TIP3    H234883   1.126   4.803   7.951  0.4686  2.0188 -2.1014
 4442TIP3   OH234884   5.860   3.082   1.583 -0.4929  0.1894  0.0266
 4442TIP3    H134885   5.786   3.093   1.523  0.5561  0.5408 -1.2761
 4442TIP3    H234886   5.905   3.004   1.550  1.3982  1.6795 -1.1551
 4443TIP3   OH234887   4.830   1.038   7.556  0.3589  0.2800  0.3948
 4443TIP3    H134888   4.890   1.080   7.617 -0.4845  2.8640 -0.4013
 4443TIP3    H234889   4.857   1.070   7.470  2.0466 -3.8903 -0.8473
 4444TIP3   OH234890   5.334   4.220   0.183  0.0186  0.5395  0.7417
 4444TIP3    H134891   5.362   4.309   0.163  2.3948 -0.5988 -1.3804
 4444TIP3    H234892   5.378   4.200   0.266  2.0513  0.3153 -0.3399
 4445TIP3   OH234893   6.538   4.716   1.037 -0.1863  0.4701 -1.1039
 4445TIP3    H134894   6.504   4.786   1.093 -2.2403 -2.1539  1.2034
 4445TIP3    H234895   6.533   4.752   0.949 -0.9771  3.2798 -0.0300
 4446TIP3   OH234896   2.292   1.104   1.942 -0.2611 -0.2544  0.7290
 4446TIP3    H134897   2.280   1.031   2.002 -0.3328 -0.5881  0.3163
 4446TIP3    H234898   2.321   1.063   1.860  2.9080  0.3837  1.3988
 4447TIP3   OH234899   5.707   3.307   7.450  0.0346 -0.1399  0.0455
 4447TIP3    H134900   5.719   3.224   7.404  0.2749 -1.4948  2.4040
 4447TIP3    H234901   5.795   3.345   7.454  0.5798 -1.4427  1.8208
 4448TIP3   OH234902   2.716   1.101   0.334 -0.2859 -0.3231  0.2590
 4448TIP3    H134903   2.633   1.100   0.381 -0.5281 -0.2794 -0.1733
 4448TIP3    H234904   2.708   1.032   0.269 -1.0242  1.4513 -1.6122
 4449TIP3   OH234905   0.320   1.879   6.999 -0.0691 -0.1363  0.1167
 4449TIP3    H134906   0.403   1.839   7.026  0.1039 -0.3362 -0.6773
 4449TIP3    H234907   0.253   1.823   7.038  0.1613 -1.6225 -1.4773
 4450TIP3   OH234908   2.348   2.979   1.556  0.1500 -0.1933  0.0797
 4450TIP3    H134909   2.360   2.910   1.491 -1.4001 -0.0113 -0.4262
 4450TIP3    H234910   2.364   3.060   1.509 -1.2696 -0.0424 -0.1971
 4451TIP3   OH234911   0.380   1.585   0.806 -0.2332 -0.2771  0.4473
 4451TIP3    H134912   0.445   1.586   0.875 -0.7251 -0.2618  0.9153
 4451TIP3    H234913   0.363   1.677   0.787  0.6008 -0.2768 -0.3710
 4452TIP3   OH234914   2.334   1.558   7.246  0.3680 -0.3614  0.3646
 4452TIP3    H134915   2.325   1.636   7.191  1.4620  0.7341  1.7003
 4452TIP3    H234916   2.424   1.560   7.278  0.4407 -2.2088  0.4090
 4453TIP3   OH234917   3.749   5.486   2.279 -1.3369  0.0097  0.0926
 4453TIP3    H134918   3.835   5.522   2.300 -2.5793  2.7311  0.8660
 4453TIP3    H234919   3.756   5.393   2.300  1.1435  0.3287  0.9446
 4454TIP3   OH234920   1.260   4.120   0.667 -0.0125 -0.8201 -0.5316
 4454TIP3    H134921   1.253   4.163   0.582 -0.0367 -0.6047 -0.4221
 4454TIP3    H234922   1.355   4.115   0.683 -0.0204  0.2484 -0.0212
 4455TIP3   OH234923   0.275   0.083   7.305 -0.5080 -0.0233  0.2347
 4455TIP3    H134924   0.264   0.166   7.351  0.5977 -0.2466  0.9201
 4455TIP3    H234925   0.191   0.070   7.261 -1.3622  0.5324  1.6278
 4456TIP3   OH234926   4.908   6.477   7.829 -0.1705 -0.3693  0.1901
 4456TIP3    H134927   4.977   6.423   7.789 -0.1996 -0.7859  0.6891
 4456TIP3    H234928   4.951   6.561   7.846  0.1095 -0.5050  0.1659
 4457TIP3   OH234929   1.241   2.354   0.846  0.0799  0.2197 -0.0001
 4457TIP3    H134930   1.265   2.335   0.755 -2.4313  0.8407 -0.8475
 4457TIP3    H234931   1.151   2.384   0.842  0.4578  2.0040  2.5169
 4458TIP3   OH234932   0.109   0.022   7.045 -0.1306  0.0806  0.2764
 4458TIP3    H134933   0.037   0.084   7.031 -1.1531 -1.1633 -0.1153
 4458TIP3    H234934   0.167   0.035   6.970 -0.2638  0.6308  0.2609
 4459TIP3   OH234935   1.497   6.647   7.620  0.2082 -0.3648  0.1158
 4459TIP3    H134936   1.449   6.638   7.702 -0.8313  0.5634 -0.3665
 4459TIP3    H234937   1.430   6.665   7.555  1.0873 -0.4497 -0.8280
 4460TIP3   OH234938   5.217   0.161   0.707  0.5634 -0.1083  0.7199
 4460TIP3    H134939   5.300   0.119   0.683 -0.0183 -2.7459  2.8540
 4460TIP3    H234940   5.154   0.125   0.645 -0.0458 -3.1789  2.8873
 4461TIP3   OH234941   5.546   6.778   7.293  0.2119 -0.6049 -0.6224
 4461TIP3    H134942   5.473   6.741   7.244  1.4875 -1.0117 -2.3259
 4461TIP3    H234943   5.617   6.714   7.283  0.6820 -0.4385  1.3600
 4462TIP3   OH234944   3.770   1.250   0.379 -0.1039  0.0700  0.6885
 4462TIP3    H134945   3.752   1.336   0.341 -0.9727  0.1074  1.1638
 4462TIP3    H234946   3.845   1.264   0.437  1.2772  0.0051 -0.9888
 4463TIP3   OH234947   1.586   3.446   7.329 -0.1911  0.6362 -0.0886
 4463TIP3    H134948   1.615   3.375   7.272 -0.8064  1.4163 -1.4484
 4463TIP3    H234949   1.618   3.423   7.416 -0.6484 -1.4396 -0.4305
 4464TIP3   OH234950   6.341   1.088   6.570  0.5826  0.2787  0.2477
 4464TIP3    H134951   6.396   1.155   6.529 -0.6312  1.3480  0.2981
 4464TIP3    H234952   6.340   1.016   6.507 -0.3001  1.4205 -1.1145
 4465TIP3   OH234953   7.055   4.991   0.631  0.4967  0.3081 -0.6212
 4465TIP3    H134954   7.099   4.946   0.559  0.4619  0.1305 -0.5315
 4465TIP3    H234955   7.090   4.950   0.710  1.5499  1.4210 -0.4828
 4466TIP3   OH234956   0.537   1.174   7.546 -0.4926  0.4587 -0.0159
 4466TIP3    H134957   0.499   1.249   7.592 -0.9685  0.0378  0.2847
 4466TIP3    H234958   0.462   1.118   7.526 -0.0270 -0.4090  0.6329
 4467TIP3   OH234959   1.630   4.405   7.544  0.2232 -0.2634  0.1791
 4467TIP3    H134960   1.623   4.325   7.492 -2.0877  0.0066 -0.0237
 4467TIP3    H234961   1.724   4.417   7.556  0.8294 -0.9604 -2.9623
 4468TIP3   OH234962   1.210   1.339   1.084  0.4169 -0.1251 -0.0925
 4468TIP3    H134963   1.121   1.322   1.114  0.5570 -0.2056  0.2864
 4468TIP3    H234964   1.201   1.408   1.019  0.0386 -0.3783 -0.3122
 4469TIP3   OH234965   5.586   6.441   6.420  0.4686 -0.0558 -0.2853
 4469TIP3    H134966   5.648   6.462   6.350  0.2563  1.2800 -0.0943
 4469TIP3    H234967   5.550   6.356   6.395  1.8909 -0.5601 -0.7347
 4470TIP3   OH234968   4.903   6.617   1.620 -0.0467 -0.1874  0.4313
 4470TIP3    H134969   4.822   6.569   1.638 -0.5098  0.2127 -0.5072
 4470TIP3    H234970   4.905   6.625   1.524  1.5249 -0.9099  0.3743
 4471TIP3   OH234971   5.547   1.825   0.353  0.3626  0.5051 -0.0570
 4471TIP3    H134972   5.556   1.873   0.435 -0.2636  1.2676 -0.4073
 4471TIP3    H234973   5.522   1.737   0.378  0.4379  0.6637  0.5775
 4472TIP3   OH234974   1.335   4.892   2.041  0.5549 -0.3273  0.5886
 4472TIP3    H134975   1.334   4.987   2.030  1.6883 -0.2884  0.7000
 4472TIP3    H234976   1.396   4.877   2.113  0.6671 -1.1693  0.3292
 4473TIP3   OH234977   1.662   0.297   7.177  0.5613  0.2312 -0.0015
 4473TIP3    H134978   1.640   0.260   7.092 -0.3366  2.9856 -1.0783
 4473TIP3    H234979   1.756   0.283   7.186  0.1912 -2.8240  0.0441
 4474TIP3   OH234980   2.535   0.558   8.004 -0.1362  0.6437 -0.0118
 4474TIP3    H134981   2.593   0.615   7.953  0.9374  0.3893  0.8822
 4474TIP3    H234982   2.490   0.617   8.064 -0.7565  0.8282 -0.6377
 4475TIP3   OH234983   6.749   0.884   1.380  0.3558 -0.0739 -0.4210
 4475TIP3    H134984   6.835   0.846   1.363  0.7155  0.0284  1.0058
 4475TIP3    H234985   6.755   0.973   1.346  0.9102  0.0148 -0.1154
 4476TIP3   OH234986   1.294   6.830   0.293  0.4202  0.1359  0.7932
 4476TIP3    H134987   1.350   6.878   0.232  1.7864 -0.8356  1.2350
 4476TIP3    H234988   1.223   6.796   0.239  0.8542  0.4665 -0.0030
 4477TIP3   OH234989   6.647   2.486   2.227  0.2312 -0.0779 -0.0855
 4477TIP3    H134990   6.616   2.558   2.172 -0.3534  0.2485  0.6580
 4477TIP3    H234991   6.568   2.453   2.270  0.9993  1.8383  3.1343
 4478TIP3   OH234992   2.547   3.394   0.703  0.7779 -0.0337  0.0719
 4478TIP3    H134993   2.466   3.402   0.753  0.2351 -0.1309 -0.7677
 4478TIP3    H234994   2.572   3.302   0.714  0.3286 -0.2087 -0.3259
 4479TIP3   OH234995   0.506   5.326   0.088 -0.4280  0.0886  0.0779
 4479TIP3    H134996   0.589   5.295   0.052 -0.2913  0.2590  0.2498
 4479TIP3    H234997   0.475   5.253   0.142 -0.6381 -0.1742 -0.3833
 4480TIP3   OH234998   6.021   2.579   6.252 -0.2821 -0.0546 -0.4671
 4480TIP3    H134999   5.967   2.624   6.317  0.0701 -2.3177  1.5002
 4480TIP3    H235000   6.080   2.523   6.303  0.7404 -1.1486 -2.7041
 4481TIP3   OH235001   6.822   3.345   6.689 -0.5428 -0.1395  0.2805
 4481TIP3    H135002   6.882   3.332   6.763 -0.0092 -0.4349 -0.1886
 4481TIP3    H235003   6.877   3.328   6.612 -0.9359  0.7526 -0.2017
 4482TIP3   OH235004   2.419   1.562   0.613 -0.2250 -0.1630 -0.2648
 4482TIP3    H135005   2.459   1.611   0.541 -1.7583 -0.3975 -1.3301
 4482TIP3    H235006   2.421   1.622   0.687 -1.0464  1.1424 -1.2519
 4483TIP3   OH235007   5.585   3.103   1.987 -0.2869  0.0722  0.1761
 4483TIP3    H135008   5.527   3.027   1.992 -1.0108  0.6100  0.1384
 4483TIP3    H235009   5.578   3.133   1.896  0.0927  0.1156  0.1585
 4484TIP3   OH235010   0.842   1.491   0.062 -0.2919 -0.1076 -1.2000
 4484TIP3    H135011   0.847   1.417   0.002  3.5983 -1.6537  0.6834
 4484TIP3    H235012   0.761   1.478   0.111 -1.2456 -1.2791 -2.9700
 4485TIP3   OH235013   1.058   2.376   0.351  0.6234 -0.1608  0.2402
 4485TIP3    H135014   1.038   2.433   0.425 -1.6843  0.3699 -0.7207
 4485TIP3    H235015   1.087   2.294   0.392 -3.2366 -0.8896  1.9589
 4486TIP3   OH235016   3.753   4.108   7.467 -0.4417  0.1023 -0.1339
 4486TIP3    H135017   3.668   4.116   7.510 -0.2787 -0.5177  0.3262
 4486TIP3    H235018   3.761   4.015   7.446  1.4250 -0.4998  2.6654
 4487TIP3   OH235019   0.211   5.189   2.741  0.0048 -0.1961 -0.3560
 4487TIP3    H135020   0.141   5.188   2.806 -0.3941  0.2497 -0.7705
 4487TIP3    H235021   0.233   5.097   2.728 -1.6720 -0.4899 -1.4355
 4488TIP3   OH235022   6.799   5.009   1.488 -0.5393  0.2859  0.4663
 4488TIP3    H135023   6.862   5.081   1.489 -0.6047  0.3424  1.1561
 4488TIP3    H235024   6.825   4.954   1.414 -0.7584  1.2548 -0.3529
 4489TIP3   OH235025   0.110   4.552   1.210  0.4065  0.2519  0.0151
 4489TIP3    H135026   0.118   4.594   1.296  1.1921 -1.6554  0.9361
 4489TIP3    H235027   0.156   4.469   1.220 -1.0207 -0.8057 -1.7268
 4490TIP3   OH235028   1.692   6.045   7.567 -0.7225 -0.1361  0.0582
 4490TIP3    H135029   1.677   6.139   7.551 -0.6596 -0.1038  0.1906
 4490TIP3    H235030   1.750   6.018   7.496 -0.1731  0.0853  0.4183
 4491TIP3   OH235031   1.127   5.678   7.976 -0.1198  0.3604 -0.2531
 4491TIP3    H135032   1.219   5.691   7.954 -0.5782  0.3282 -2.4155
 4491TIP3    H235033   1.127   5.661   8.070  1.9785  1.2596 -0.0275
 4492TIP3   OH235034   0.813   6.350   1.442 -0.2421 -0.1285  0.3758
 4492TIP3    H135035   0.808   6.345   1.538  0.9621 -0.8685  0.4226
 4492TIP3    H235036   0.736   6.303   1.411 -0.9265  0.5782  0.9822
 4493TIP3   OH235037   1.362   2.371   2.108  0.1848  0.5679 -0.0334
 4493TIP3    H135038   1.306   2.430   2.158 -0.9706 -0.4192 -0.1132
 4493TIP3    H235039   1.436   2.353   2.166  0.0590  1.3253  0.3660
 4494TIP3   OH235040   1.614   2.182   1.109  0.1941 -0.0475  0.0620
 4494TIP3    H135041   1.587   2.160   1.198 -0.8579 -1.2378 -0.5204
 4494TIP3    H235042   1.651   2.100   1.074  0.0787  0.2439 -0.7746
 4495TIP3   OH235043   6.783   5.971   0.503  0.5827  0.1963  0.2824
 4495TIP3    H135044   6.706   5.919   0.479  0.6822  1.1037 -2.3400
 4495TIP3    H235045   6.758   6.014   0.584 -1.7307  0.4624 -0.4822
 4496TIP3   OH235046   1.518   4.707   2.662 -0.0592  0.7833  0.1887
 4496TIP3    H135047   1.424   4.692   2.677  0.2469 -0.8342  0.7358
 4496TIP3    H235048   1.558   4.623   2.682  1.3080  0.8645 -1.9147
 4497TIP3   OH235049   2.170   1.521   6.880  0.0026  0.0948 -0.6145
 4497TIP3    H135050   2.085   1.483   6.858  0.4300 -0.8484 -0.7075
 4497TIP3    H235051   2.182   1.591   6.816 -0.4726 -0.1119 -0.9397
 4498TIP3   OH235052   3.976   1.258   0.908 -0.2973 -0.2242  0.1219
 4498TIP3    H135053   4.035   1.246   0.983  0.0088  1.9137  0.2978
 4498TIP3    H235054   3.891   1.280   0.948 -0.9470 -2.0597 -0.1540
 4499TIP3   OH235055   5.037   2.372   0.860  0.2472 -0.4151  0.0666
 4499TIP3    H135056   5.071   2.291   0.823  1.6956  0.1229  0.1642
 4499TIP3    H235057   5.109   2.434   0.854 -0.8136  0.8630  0.0522
 4500TIP3   OH235058   4.098   4.092   0.907  0.0603 -0.1986 -0.5498
 4500TIP3    H135059   4.013   4.124   0.878  0.4988  2.2758  0.6224
 4500TIP3    H235060   4.157   4.110   0.834 -0.3441 -1.6640 -1.2570
 4501TIP3   OH235061   3.804   1.727   0.604  0.1775  0.1529 -0.0679
 4501TIP3    H135062   3.728   1.668   0.609 -0.8885  1.5485  1.2279
 4501TIP3    H235063   3.801   1.777   0.686  2.1270  0.7291 -0.2884
 4502TIP3   OH235064   5.274   1.178   0.200  0.3735  0.8992 -0.2034
 4502TIP3    H135065   5.240   1.212   0.283  0.3200  1.4589 -0.4502
 4502TIP3    H235066   5.205   1.120   0.168  0.3552  0.7503  0.0941
 4503TIP3   OH235067   6.491   0.199   5.964 -0.5241  0.6318  0.5558
 4503TIP3    H135068   6.536   0.136   5.907  1.5256  0.1021  2.5644
 4503TIP3    H235069   6.434   0.145   6.019 -0.7346  0.8518  0.5556
 4504TIP3   OH235070   0.478   4.921   0.452  0.1037  0.9758  0.0929
 4504TIP3    H135071   0.478   4.936   0.358 -0.9436  1.8087  0.2055
 4504TIP3    H235072   0.391   4.949   0.481  0.3864  0.6777  1.2963
 4505TIP3   OH235073   6.056   5.242   0.817  0.0611 -0.7227  0.0506
 4505TIP3    H135074   6.054   5.148   0.836  1.2862 -1.1020 -1.4374
 4505TIP3    H235075   6.138   5.255   0.769  1.3782  1.6375  2.6581
 4506TIP3   OH235076   5.759   1.014   0.650  0.7618  0.3750  0.1364
 4506TIP3    H135077   5.731   1.017   0.559  2.3327 -0.1135 -0.3993
 4506TIP3    H235078   5.851   1.042   0.648 -0.0596  3.7059  2.0086
 4507TIP3   OH235079   6.984   6.265   0.776 -0.3636 -0.5091  0.1778
 4507TIP3    H135080   7.012   6.235   0.690 -1.8042 -0.3051 -0.3819
 4507TIP3    H235081   6.957   6.356   0.762 -0.9628 -0.5933  0.7633
 4508TIP3   OH235082   5.990   2.623   1.404 -0.9164  0.4760 -0.0717
 4508TIP3    H135083   5.932   2.600   1.332 -1.0860  0.4399  0.0751
 4508TIP3    H235084   5.969   2.561   1.474  0.0727 -0.2599 -0.3988
 4509TIP3   OH235085   3.135   0.896   3.102  0.1338 -0.0153  0.0174
 4509TIP3    H135086   3.221   0.874   3.067  0.0277  1.0521 -0.9737
 4509TIP3    H235087   3.136   0.991   3.110 -1.4650  0.1681 -1.4293
 4510TIP3   OH235088   5.985   2.061   1.933  0.3935  0.5889  0.2037
 4510TIP3    H135089   5.958   2.147   1.900  2.2546  0.7288 -1.1327
 4510TIP3    H235090   6.042   2.080   2.007 -0.8401  0.4015  1.2245
 4511TIP3   OH235091   1.177   6.571   1.172 -0.1483 -0.5068 -0.3495
 4511TIP3    H135092   1.132   6.498   1.130  0.2248 -1.3086  0.6115
 4511TIP3    H235093   1.177   6.550   1.265 -0.7004  1.0965  0.0473
 4512TIP3   OH235094   3.937   0.100   1.572 -0.0151 -0.2958  0.1475
 4512TIP3    H135095   3.989   0.019   1.574 -0.0749 -0.3288  1.4240
 4512TIP3    H235096   3.960   0.145   1.653 -3.0823 -1.0506  1.5953
 4513TIP3   OH235097   2.466   4.859   0.276 -0.3514 -0.0278  0.0878
 4513TIP3    H135098   2.394   4.834   0.218  0.1667  0.9596 -1.0114
 4513TIP3    H235099   2.534   4.793   0.260  0.9225  1.7829 -2.6328
 4514TIP3   OH235100   4.450   6.206   0.022  0.2808 -0.1783 -0.1594
 4514TIP3    H135101   4.474   6.264  -0.050 -0.4532  0.2480 -0.0760
 4514TIP3    H235102   4.382   6.254   0.069 -0.3380 -1.0970 -0.0788
 4515TIP3   OH235103   6.999   4.491   7.139 -0.6498 -0.6029  0.1578
 4515TIP3    H135104   7.088   4.516   7.161 -1.3456  2.8664 -0.4368
 4515TIP3    H235105   7.004   4.456   7.050  0.1704 -1.0818  0.3832
 4516TIP3   OH235106   3.068   6.666   1.661 -0.4491  0.3472  0.0380
 4516TIP3    H135107   3.117   6.619   1.730  0.7912  2.7190  0.8773
 4516TIP3    H235108   2.979   6.670   1.694 -0.6344 -1.4739 -0.1257
 4517TIP3   OH235109   2.759   5.381   0.984 -0.0235  0.3455 -0.0402
 4517TIP3    H135110   2.729   5.309   0.928 -1.3435  0.2495  0.7539
 4517TIP3    H235111   2.843   5.408   0.946 -0.4131 -0.3725 -1.4534
 4518TIP3   OH235112   0.672   4.939   1.988  0.2590 -0.3890  0.1026
 4518TIP3    H135113   0.678   4.876   2.061 -0.4599  0.6016  1.0615
 4518TIP3    H235114   0.578   4.956   1.981  0.3479 -0.3173 -0.9397
 4519TIP3   OH235115   0.153   5.162   0.357  0.7887 -0.1103  0.1578
 4519TIP3    H135116   0.094   5.230   0.390 -0.9754 -1.9188  0.9661
 4519TIP3    H235117   0.183   5.116   0.435  1.4333 -0.6834 -0.4172
 4520TIP3   OH235118   6.469   2.303   0.038  0.0954 -0.3542 -0.4506
 4520TIP3    H135119   6.412   2.228   0.056  0.5316 -0.3904  0.9291
 4520TIP3    H235120   6.409   2.375   0.023 -0.3649 -0.3243  1.2984
 4521TIP3   OH235121   5.869   5.399   7.554  0.1693  0.7125 -0.2360
 4521TIP3    H135122   5.918   5.481   7.562 -0.1495  0.8520  0.3608
 4521TIP3    H235123   5.883   5.371   7.463  1.7633  0.4779  0.0571
 4522TIP3   OH235124   4.240   7.085   7.002  0.0822 -0.3354 -0.1356
 4522TIP3    H135125   4.310   7.024   7.024 -0.9910 -1.1209  1.2865
 4522TIP3    H235126   4.176   7.032   6.953  0.4269  0.3654 -1.3968
 4523TIP3   OH235127   0.954   3.459   1.151 -0.0880  1.0403 -0.4200
 4523TIP3    H135128   0.909   3.543   1.150 -1.2503  0.4295 -0.9702
 4523TIP3    H235129   0.888   3.396   1.122  0.4830 -0.2065  0.8740
 4524TIP3   OH235130   5.494   3.988   0.275 -0.0099  0.0975  0.4434
 4524TIP3    H135131   5.449   3.913   0.315  1.7232 -1.1810  0.1091
 4524TIP3    H235132   5.495   4.055   0.343  0.0368 -0.8561  1.4033
 4525TIP3   OH235133   1.809   0.138   6.781  0.1370 -0.0868  0.5586
 4525TIP3    H135134   1.892   0.177   6.753 -0.1117 -0.2944 -0.5070
 4525TIP3    H235135   1.807   0.053   6.739 -1.2409  0.4806 -0.6053
 4526TIP3   OH235136   7.146   4.972   7.837  0.8145 -0.3540 -0.0627
 4526TIP3    H135137   7.173   4.912   7.768 -0.2384 -1.0789  0.1279
 4526TIP3    H235138   7.122   4.915   7.910  0.2730  0.3188  0.3016
 4527TIP3   OH235139   1.868   3.641   0.983  0.3470  0.3171  0.1613
 4527TIP3    H135140   1.892   3.551   1.002 -0.2913  0.2308  0.5705
 4527TIP3    H235141   1.952   3.688   0.980  0.7386 -0.4206 -0.8421
 4528TIP3   OH235142   1.609   5.456   7.178  0.1688  0.0255  0.1048
 4528TIP3    H135143   1.665   5.504   7.240  0.2579  0.4056 -0.2597
 4528TIP3    H235144   1.612   5.365   7.208  1.9632 -0.1979 -0.5889
 4529TIP3   OH235145   6.038   3.790   1.025 -0.1724  0.2154  0.2154
 4529TIP3    H135146   6.039   3.845   0.947 -1.4484  2.8935  1.9414
 4529TIP3    H235147   6.129   3.787   1.054 -0.2792  3.5557  1.3292
 4530TIP3   OH235148   4.775   1.927   2.994  0.4101  0.3330 -0.0014
 4530TIP3    H135149   4.814   2.003   3.038  1.0243 -0.0156  0.0721
 4530TIP3    H235150   4.840   1.901   2.929 -1.0966  1.7458 -2.1986
 4531TIP3   OH235151   5.178   4.611   1.252 -0.2925  0.3524  0.4359
 4531TIP3    H135152   5.090   4.641   1.230 -0.6379  0.0469  1.3731
 4531TIP3    H235153   5.228   4.691   1.268 -0.4822  0.5137  0.2210
 4532TIP3   OH235154   2.062   4.378   0.184  0.2388  0.0407  0.1526
 4532TIP3    H135155   1.987   4.333   0.144  0.6102 -0.3569 -0.1041
 4532TIP3    H235156   2.138   4.329   0.154  0.5531 -0.0605  1.0822
 4533TIP3   OH235157   1.611   7.000   1.004 -0.6335  0.2486  0.0418
 4533TIP3    H135158   1.559   7.075   0.976 -0.7489 -0.1411 -0.8317
 4533TIP3    H235159   1.701   7.024   0.984 -0.9111 -1.1390 -3.5344
 4534TIP3   OH235160   4.809   2.475   0.775  0.6881  0.1312  0.6243
 4534TIP3    H135161   4.813   2.495   0.681 -1.6903  0.8821  0.6027
 4534TIP3    H235162   4.891   2.430   0.794  0.9212 -0.7304 -1.9859
 4535TIP3   OH235163   5.745   0.041   1.762  0.1406 -0.2307  0.3914
 4535TIP3    H135164   5.679   0.094   1.806 -0.4315 -0.5781 -0.0471
 4535TIP3    H235165   5.812   0.026   1.830 -0.5194 -0.4036  1.0192
 4536TIP3   OH235166   0.007   1.130   1.849  0.2004 -0.0446  0.3256
 4536TIP3    H135167   0.014   1.064   1.918  2.0779 -1.2089 -0.8707
 4536TIP3    H235168   0.006   1.080   1.768 -0.5211  1.3484 -0.5681
 4537TIP3   OH235169   6.831   6.199   1.468  0.8532  0.5499  0.4454
 4537TIP3    H135170   6.802   6.200   1.560  0.4085 -0.6480  0.3330
 4537TIP3    H235171   6.926   6.197   1.473  0.8743 -2.7244  1.0026
 4538TIP3   OH235172   2.334   0.104   2.280 -0.0289 -0.1011  0.3796
 4538TIP3    H135173   2.379   0.146   2.354  0.0371 -0.2143  0.4044
 4538TIP3    H235174   2.291   0.176   2.234 -0.9781 -0.1553  1.1484
 4539TIP3   OH235175   6.732   1.403   1.717  0.4926  0.1053 -0.2634
 4539TIP3    H135176   6.805   1.370   1.664 -0.3063 -1.3901 -0.4897
 4539TIP3    H235177   6.751   1.370   1.806  2.0582  2.9681  0.5789
 4540TIP3   OH235178   6.878   0.764   2.077 -0.0831 -0.0018  0.0578
 4540TIP3    H135179   6.884   0.837   2.014  0.2622 -0.7270 -0.7694
 4540TIP3    H235180   6.819   0.796   2.145 -2.9077 -0.2192 -2.1016
 4541TIP3   OH235181   2.446   6.850   1.488 -0.6659 -0.3418  0.3294
 4541TIP3    H135182   2.424   6.917   1.423  0.1946 -0.7468 -0.3957
 4541TIP3    H235183   2.361   6.823   1.524 -1.0981  0.3800 -0.1311
 4542TIP3   OH235184   6.336   0.411   0.554  0.3208 -0.4824  0.2161
 4542TIP3    H135185   6.319   0.442   0.643 -0.2234  1.5193 -0.5229
 4542TIP3    H235186   6.427   0.433   0.537  0.1663  0.0132 -0.0162
 4543TIP3   OH235187   1.205   0.738   7.874  0.3626 -0.5162 -0.3971
 4543TIP3    H135188   1.300   0.735   7.885  0.5225 -1.5018 -1.7873
 4543TIP3    H235189   1.171   0.685   7.946  0.9928 -1.6473 -0.9053
 4544TIP3   OH235190   3.725   2.984   1.561 -0.2071  0.5953  0.1702
 4544TIP3    H135191   3.714   2.893   1.588  0.6181  0.9296  1.7438
 4544TIP3    H235192   3.674   3.034   1.625 -2.1385  1.1873 -1.7020
 4545TIP3   OH235193   6.732   5.145   0.655 -0.6774 -0.0146  0.4563
 4545TIP3    H135194   6.728   5.058   0.617  1.6510 -0.8012  1.8133
 4545TIP3    H235195   6.804   5.141   0.719 -0.9150  2.7049  1.0473
 4546TIP3   OH235196   0.405   0.601   0.603 -0.3154 -0.0091  0.3805
 4546TIP3    H135197   0.367   0.603   0.515  0.3828 -0.4664  0.0638
 4546TIP3    H235198   0.433   0.511   0.616  0.3968  0.2470  0.7179
 4547TIP3   OH235199   5.810   6.847   0.393  0.3529  0.1909 -0.3084
 4547TIP3    H135200   5.810   6.765   0.342 -1.6470  0.8081 -1.3853
 4547TIP3    H235201   5.815   6.818   0.484  0.0910 -1.1090 -0.6846
 4548TIP3   OH235202   2.248   4.317   1.811  0.0979 -0.4225  0.2220
 4548TIP3    H135203   2.221   4.297   1.901 -1.1915 -0.5842 -0.1770
 4548TIP3    H235204   2.340   4.341   1.818 -0.0905 -0.0381  1.6473
 4549TIP3   OH235205   0.150   6.616   1.554 -0.1167 -0.0854  0.8591
 4549TIP3    H135206   0.121   6.671   1.627  1.9399  2.3475  0.0018
 4549TIP3    H235207   0.163   6.678   1.482 -0.1439 -2.1245 -0.9908
 4550TIP3   OH235208   0.289   5.855   0.834  0.3777 -0.2091 -0.4348
 4550TIP3    H135209   0.258   5.946   0.837  1.7852  0.2636  0.4750
 4550TIP3    H235210   0.209   5.803   0.845 -0.4105  0.9031 -0.6201
 4551TIP3   OH235211   1.964   4.611   0.102  0.2640 -0.2946 -0.3570
 4551TIP3    H135212   1.964   4.517   0.121 -1.0208 -0.3507 -0.5087
 4551TIP3    H235213   2.051   4.641   0.126  0.3973 -1.3594  0.5418
 4552TIP3   OH235214   1.767   2.093   1.648  0.0371 -0.3466  0.4928
 4552TIP3    H135215   1.762   2.064   1.739 -1.1095  1.4314  1.0646
 4552TIP3    H235216   1.854   2.066   1.619  0.1267 -1.6599  1.8417
 4553TIP3   OH235217   3.637   4.698   6.675  0.9055  0.1637 -0.4095
 4553TIP3    H135218   3.703   4.637   6.710  0.1719  0.8309  2.4289
 4553TIP3    H235219   3.682   4.783   6.673 -0.0890  0.9571  3.0596
 4554TIP3   OH235220   6.315   2.759   0.279 -0.3919 -0.3450  0.7323
 4554TIP3    H135221   6.384   2.701   0.311  0.5519 -0.8145 -1.9251
 4554TIP3    H235222   6.238   2.703   0.271  0.1097 -0.9091 -0.3641
 4555TIP3   OH235223   1.721   0.784   0.275  0.0741 -0.0124 -0.5435
 4555TIP3    H135224   1.794   0.737   0.317  0.8311  1.4915 -0.1261
 4555TIP3    H235225   1.705   0.734   0.194  0.7185 -1.0980 -0.0280
 4556TIP3   OH235226   0.847   4.891   7.999 -0.5211  0.2714 -0.3392
 4556TIP3    H135227   0.890   4.963   8.045 -0.0289 -0.0093 -0.3416
 4556TIP3    H235228   0.761   4.924   7.976 -0.6624  0.5157  0.5249
 4557TIP3   OH235229   2.807   5.481   7.289 -0.2369 -0.5716 -0.7432
 4557TIP3    H135230   2.802   5.389   7.315 -0.3050  0.0580  1.7181
 4557TIP3    H235231   2.899   5.504   7.299 -0.3787 -0.1353 -0.4129
 4558TIP3   OH235232   1.458   2.424   1.333  0.9735  0.4769 -0.7505
 4558TIP3    H135233   1.465   2.512   1.297  0.8862  0.1680 -1.5301
 4558TIP3    H235234   1.389   2.382   1.283  2.0054 -0.5156 -1.3892
 4559TIP3   OH235235   1.012   6.324   7.811 -0.1513 -0.3874  0.0824
 4559TIP3    H135236   0.928   6.366   7.798  0.0245 -0.0188  0.1167
 4559TIP3    H235237   1.063   6.347   7.733  0.1230 -0.0929  0.3425
 4560TIP3   OH235238   2.830   1.204   6.714 -0.0920 -0.0856  0.1114
 4560TIP3    H135239   2.913   1.198   6.667 -1.7297  0.2513 -3.1473
 4560TIP3    H235240   2.793   1.115   6.708 -1.8533  0.6788 -2.6347
 4561TIP3   OH235241   6.933   5.669   7.233  0.3383 -0.0626 -0.3571
 4561TIP3    H135242   6.930   5.633   7.145  2.1481  1.5355 -1.1503
 4561TIP3    H235243   7.011   5.629   7.272  0.8595  0.9721 -0.3192
 4562TIP3   OH235244   0.349   0.908   7.499 -0.2905  0.0452 -0.2680
 4562TIP3    H135245   0.268   0.892   7.548  0.0091 -0.1216  0.1803
 4562TIP3    H235246   0.417   0.909   7.566  0.0239  0.6274 -0.5910
 4563TIP3   OH235247   6.768   2.931   2.186  0.0015 -0.0713  0.0177
 4563TIP3    H135248   6.780   2.981   2.267 -2.3421 -2.0314  1.7556
 4563TIP3    H235249   6.845   2.874   2.182  0.7833  0.9437  0.1178
 4564TIP3   OH235250   7.011   4.662   3.058  0.1912 -0.3658  0.0249
 4564TIP3    H135251   6.960   4.673   3.138  0.7578 -0.8969  0.4714
 4564TIP3    H235252   6.947   4.672   2.987 -0.7832 -2.1263  0.5814
 4565TIP3   OH235253   5.376   5.066   7.909 -0.5376 -0.9304 -0.3241
 4565TIP3    H135254   5.428   4.987   7.897  1.5431  0.2391  0.4944
 4565TIP3    H235255   5.427   5.135   7.868 -0.7974  0.4974  1.6094
 4566TIP3   OH235256   4.519   2.065   2.827  0.1337  0.3594 -0.1394
 4566TIP3    H135257   4.550   2.155   2.813 -0.6586  0.8531  1.1296
 4566TIP3    H235258   4.587   2.025   2.881  0.4047  0.2245 -0.5667
 4567TIP3   OH235259   4.047   4.036   0.178  0.5181  0.0721 -0.5774
 4567TIP3    H135260   4.037   3.945   0.209  0.8516  0.0831 -0.4359
 4567TIP3    H235261   4.128   4.066   0.220 -1.3155  1.5731  2.2335
 4568TIP3   OH235262   5.922   1.026   1.403 -0.7228  0.1063  0.3809
 4568TIP3    H135263   5.951   1.003   1.314  0.6646  0.1251  0.8080
 4568TIP3    H235264   5.888   0.944   1.439 -0.9810  0.0225 -0.0425
 4569TIP3   OH235265   4.075   1.908   7.788  0.5648  0.4984 -0.6808
 4569TIP3    H135266   4.085   1.932   7.695  1.9094  0.1317 -0.6598
 4569TIP3    H235267   4.009   1.968   7.822  0.6130  1.1474 -1.6950
 4570TIP3   OH235268   7.097   4.245   1.974  0.0260 -0.2753  0.9577
 4570TIP3    H135269   7.069   4.153   1.976  0.5827 -0.4448  0.8771
 4570TIP3    H235270   7.021   4.293   2.008  0.1380 -0.8642  2.1143
 4571TIP3   OH235271   0.459   0.033   7.121  1.0404  0.1374  0.3796
 4571TIP3    H135272   0.383   0.035   7.179  0.6305  0.9050 -0.1751
 4571TIP3    H235273   0.480   0.125   7.105  0.3205 -0.0254 -1.7697
 4572TIP3   OH235274   2.872   4.481   0.501  0.6323 -0.1027 -0.1084
 4572TIP3    H135275   2.881   4.495   0.596  0.9991  0.1389 -0.1764
 4572TIP3    H235276   2.780   4.458   0.489  0.9009 -1.5719  0.4838
 4573TIP3   OH235277   2.737   5.984   1.582  0.4749  0.3630 -0.7061
 4573TIP3    H135278   2.682   5.956   1.655  0.5117  0.5328 -0.6116
 4573TIP3    H235279   2.686   6.052   1.539  0.3913  0.1602 -0.9260
 4574TIP3   OH235280   6.449   5.476   3.074  0.0398 -0.7391 -0.4426
 4574TIP3    H135281   6.488   5.480   2.986  0.5799  0.7323 -0.1493
 4574TIP3    H235282   6.520   5.499   3.133 -1.0100  1.0723  0.1725
 4575TIP3   OH235283   4.550   2.634   1.471 -0.7014  0.4670 -0.7000
 4575TIP3    H135284   4.619   2.618   1.536 -0.2194  0.9906 -1.0686
 4575TIP3    H235285   4.572   2.578   1.397 -2.1251 -1.3305  0.1616
 4576TIP3   OH235286   0.074   3.386   0.545  0.2209 -0.8093  0.8723
 4576TIP3    H135287  -0.009   3.341   0.530  0.6255 -1.4609  0.5275
 4576TIP3    H235288   0.130   3.321   0.588  1.0672 -0.8959 -0.3109
 4577TIP3   OH235289   5.558   2.430   1.902  0.8546  0.5911 -0.6432
 4577TIP3    H135290   5.536   2.466   1.816 -1.1051  0.8589 -0.0930
 4577TIP3    H235291   5.551   2.504   1.962 -1.2949 -0.2184  0.2162
 4578TIP3   OH235292   7.026   6.281   2.493  0.2431  0.2317 -0.2577
 4578TIP3    H135293   6.986   6.349   2.548 -0.9595  0.5193 -1.4354
 4578TIP3    H235294   7.074   6.226   2.554 -0.7666  0.7337  1.0361
 4579TIP3   OH235295   4.977   6.957   7.633 -0.1796  0.4407  0.0218
 4579TIP3    H135296   5.047   7.001   7.682 -0.6358  0.8224  0.3511
 4579TIP3    H235297   5.004   6.962   7.542  0.0534  0.8971  0.1126
 4580TIP3   OH235298   0.940   1.741   7.791 -0.4553  0.5776  0.0350
 4580TIP3    H135299   0.888   1.809   7.835  0.8859  1.6322  0.0493
 4580TIP3    H235300   0.901   1.735   7.703 -3.0680 -1.4493  1.1958
 4581TIP3   OH235301   5.250   5.143   0.924 -0.5858  0.7041  0.0713
 4581TIP3    H135302   5.343   5.132   0.945 -0.4614 -0.2579 -0.9203
 4581TIP3    H235303   5.208   5.152   1.010  0.2445 -0.3527  0.6245
 4582TIP3   OH235304   2.210   1.048   0.795  0.0620  0.0758  0.0887
 4582TIP3    H135305   2.264   1.118   0.833 -1.5209  1.5505 -0.2477
 4582TIP3    H235306   2.185   1.082   0.709 -0.0101 -1.3264 -0.4688
 4583TIP3   OH235307   5.127   5.133   6.823 -0.5598  0.0240 -0.6335
 4583TIP3    H135308   5.071   5.055   6.833 -0.6046  0.2225  0.8908
 4583TIP3    H235309   5.195   5.105   6.762  1.3552 -2.3936  2.2971
 4584TIP3   OH235310   5.852   1.611   7.393  0.2197 -0.2263 -0.3099
 4584TIP3    H135311   5.758   1.606   7.411  0.3594 -2.5997  0.0529
 4584TIP3    H235312   5.857   1.646   7.304 -0.9715  0.2342 -0.2205
 4585TIP3   OH235313   6.780   3.921   2.247  0.2969  0.2401 -0.0192
 4585TIP3    H135314   6.772   3.826   2.242  2.5992  0.0183 -0.7399
 4585TIP3    H235315   6.690   3.953   2.242 -0.6779 -1.9244  1.8703
 4586TIP3   OH235316   1.102   6.776   0.077  0.1858  0.0144  0.4379
 4586TIP3    H135317   1.065   6.855   0.037  1.2377  0.7801  0.9309
 4586TIP3    H235318   1.082   6.706   0.014 -1.6632  0.4479  0.4757
 4587TIP3   OH235319   6.704   5.601   2.553  0.1432 -0.0464 -0.2569
 4587TIP3    H135320   6.792   5.568   2.572  0.4279  2.1215  2.9568
 4587TIP3    H235321   6.717   5.658   2.477  1.5225  0.1553  0.0910
 4588TIP3   OH235322   3.904   6.772   2.087 -0.0946  0.3381  0.1449
 4588TIP3    H135323   3.897   6.801   2.178 -1.4258  1.8329 -0.3861
 4588TIP3    H235324   3.872   6.846   2.036  0.1883 -0.6425 -1.5321
 4589TIP3   OH235325   5.199   1.486   6.900  0.2258 -0.1313  0.0035
 4589TIP3    H135326   5.147   1.493   6.980 -0.1562 -0.6620 -0.1948
 4589TIP3    H235327   5.221   1.577   6.878  1.4908 -0.0412  1.4456
 4590TIP3   OH235328   5.096   3.260   7.668  0.3897  0.2731 -0.2822
 4590TIP3    H135329   5.060   3.326   7.727 -0.7437  0.3273 -1.0281
 4590TIP3    H235330   5.038   3.259   7.593  0.2472 -1.7173 -0.2043
 4591TIP3   OH235331   5.246   0.629   7.743 -0.0191 -0.5283 -0.4912
 4591TIP3    H135332   5.281   0.572   7.812  0.3710 -1.8933 -1.7737
 4591TIP3    H235333   5.153   0.636   7.762 -0.0215 -1.3854 -0.1717
 4592TIP3   OH235334   6.568   5.897   2.501  0.3195  0.1401 -0.0452
 4592TIP3    H135335   6.651   5.944   2.504  0.6019 -0.3927  0.5269
 4592TIP3    H235336   6.537   5.909   2.411 -1.0614  3.9061  0.7469
 4593TIP3   OH235337   1.886   4.788   1.929 -0.2278  0.1088  0.3410
 4593TIP3    H135338   1.829   4.815   1.857  0.1197 -0.7553 -0.2805
 4593TIP3    H235339   1.948   4.860   1.940 -0.7214  0.5505  0.2567
 4594TIP3   OH235340   2.559   6.487   6.998  0.0470  0.4065 -0.1836
 4594TIP3    H135341   2.643   6.440   7.003  2.6922  4.1767 -3.1912
 4594TIP3    H235342   2.567   6.556   7.064 -0.9164  0.5556 -0.2147
 4595TIP3   OH235343   5.604   5.588   1.124  0.5487 -0.1527 -0.1329
 4595TIP3    H135344   5.642   5.637   1.196  2.4916 -2.8440  0.8271
 4595TIP3    H235345   5.673   5.586   1.057  1.4182 -3.0467  0.6591
 4596TIP3   OH235346   5.283   4.977   6.643 -0.1954 -0.5415  0.5748
 4596TIP3    H135347   5.358   4.992   6.585 -2.0150  0.4384 -1.6862
 4596TIP3    H235348   5.215   5.035   6.608 -2.0002 -1.3589  2.5751
 4597TIP3   OH235349   6.134   4.813   1.048  0.0751  0.8101  0.3660
 4597TIP3    H135350   6.124   4.854   1.134 -0.5838  1.4437 -0.0046
 4597TIP3    H235351   6.128   4.719   1.066  0.9551  0.8820  1.1365
 4598TIP3   OH235352   3.176   2.451   8.010 -0.6882  0.6240  0.1164
 4598TIP3    H135353   3.082   2.467   8.018 -1.4715 -2.7889 -0.3658
 4598TIP3    H235354   3.198   2.400   8.088  0.3211 -0.1685 -0.6633
 4599TIP3   OH235355   5.541   1.123   7.297 -0.6134 -0.3470  0.7455
 4599TIP3    H135356   5.619   1.179   7.297 -0.3841 -0.6188  2.4747
 4599TIP3    H235357   5.574   1.035   7.281 -0.7657 -0.2667 -0.0781
 4600TIP3   OH235358   3.174   2.852   6.528 -0.6629  0.2791 -0.6304
 4600TIP3    H135359   3.170   2.838   6.434  0.4712 -0.3746 -0.6009
 4600TIP3    H235360   3.110   2.921   6.545  0.5593  1.8507 -2.1605
 4601TIP3   OH235361   2.307   5.355   0.796 -0.1906  0.2921 -0.0395
 4601TIP3    H135362   2.323   5.386   0.706 -0.9017  1.2357  0.1357
 4601TIP3    H235363   2.306   5.260   0.789  1.9219  0.2755 -0.6379
 4602TIP3   OH235364   2.636   0.719   7.042  0.2271 -0.4967  0.3243
 4602TIP3    H135365   2.705   0.750   7.100  0.4361  0.3624 -0.3556
 4602TIP3    H235366   2.681   0.692   6.962 -0.2115  0.1233 -0.1465
 4603TIP3   OH235367   6.433   5.119   2.920 -0.2690  0.7089  0.0714
 4603TIP3    H135368   6.414   5.089   3.009 -1.1820 -0.0780 -0.3694
 4603TIP3    H235369   6.444   5.213   2.928 -2.7339  1.0135  0.6642
 4604TIP3   OH235370   5.083   2.514   1.330 -0.2066  0.1836  0.1318
 4604TIP3    H135371   5.045   2.430   1.303 -2.6596  1.7487 -1.7484
 4604TIP3    H235372   5.133   2.543   1.254  1.9659 -0.2023  1.3332
 4605TIP3   OH235373   4.088   0.292   0.137 -1.0680 -0.0423 -0.6484
 4605TIP3    H135374   4.158   0.251   0.188 -0.8692 -0.9162 -1.5971
 4605TIP3    H235375   4.025   0.321   0.202  0.5241  1.5062  0.3069
 4606TIP3   OH235376   2.667   2.261   0.514  0.4228 -0.3714  0.5910
 4606TIP3    H135377   2.572   2.265   0.515  0.3990  0.3584 -1.2632
 4606TIP3    H235378   2.696   2.352   0.519  0.9293 -0.3946 -1.1513
 4607TIP3   OH235379   6.644   3.042   2.443  0.2180 -0.0688  0.4677
 4607TIP3    H135380   6.565   3.041   2.389  0.8569  1.3731 -0.5265
 4607TIP3    H235381   6.633   2.966   2.501 -1.4708 -0.4190 -0.2361
 4608TIP3   OH235382   0.748   3.202   1.921 -0.2111 -0.0868  0.5664
 4608TIP3    H135383   0.730   3.281   1.870 -2.0098 -0.2067  0.9313
 4608TIP3    H235384   0.684   3.138   1.889 -0.8295 -0.4262  2.3338
 4609TIP3   OH235385   0.053   1.618   0.391 -0.0724  0.0021 -0.5583
 4609TIP3    H135386   0.111   1.690   0.417  0.0090 -0.0750 -0.5275
 4609TIP3    H235387   0.108   1.560   0.339  0.4638 -1.1938  1.2602
 4610TIP3   OH235388   0.924   0.368   7.419 -0.2644 -0.0478  0.2879
 4610TIP3    H135389   0.842   0.319   7.418 -0.2236 -0.1196  0.4134
 4610TIP3    H235390   0.975   0.332   7.347 -0.3403 -0.0091  0.2153
 4611TIP3   OH235391   4.072   6.864   0.823 -0.0510 -0.2930 -0.2146
 4611TIP3    H135392   4.095   6.780   0.782  0.3150 -0.0977 -0.4084
 4611TIP3    H235393   3.993   6.892   0.776 -0.8615 -1.0871  0.6235
 4612TIP3   OH235394   4.527   2.465   7.335  0.1411 -0.7268  0.7753
 4612TIP3    H135395   4.608   2.421   7.362 -0.3009 -2.3740 -0.3969
 4612TIP3    H235396   4.457   2.416   7.380 -0.2725  0.2361  1.2192
 4613TIP3   OH235397   4.528   3.187   1.970 -0.0393  0.1420  0.6882
 4613TIP3    H135398   4.537   3.240   2.049 -2.7940  0.5378  0.8366
 4613TIP3    H235399   4.565   3.102   1.993  1.2491  0.9187  1.6057
 4614TIP3   OH235400   1.423   2.665   6.242 -0.1929  0.1567 -1.1265
 4614TIP3    H135401   1.401   2.586   6.193 -1.8251 -0.1171 -0.0068
 4614TIP3    H235402   1.348   2.722   6.230 -0.1398  0.5087  0.1682
 4615TIP3   OH235403   4.743   1.402   7.762 -0.3110 -0.0561  0.2004
 4615TIP3    H135404   4.802   1.444   7.824  0.8539 -1.2236 -0.0649
 4615TIP3    H235405   4.798   1.337   7.718 -0.8388  1.2612 -2.6328
 4616TIP3   OH235406   5.718   1.184   1.487 -0.7934 -0.7060 -0.0658
 4616TIP3    H135407   5.805   1.148   1.470 -0.9177 -2.4817  2.5296
 4616TIP3    H235408   5.659   1.111   1.471 -1.6482 -0.0142 -0.0962
 4617TIP3   OH235409   6.380   1.420   7.866  0.0855 -0.1977  0.4502
 4617TIP3    H135410   6.322   1.487   7.832  0.9084 -1.1680 -3.3210
 4617TIP3    H235411   6.467   1.444   7.833  0.9403 -1.5040  1.5988
 4618TIP3   OH235412   2.687   6.276   7.793  0.1659  0.6845 -0.1171
 4618TIP3    H135413   2.687   6.303   7.885  1.6556  0.3476  0.0104
 4618TIP3    H235414   2.764   6.219   7.785 -1.8162 -2.1193 -0.7750
 4619TIP3   OH235415   6.783   3.008   1.908 -0.7568  0.1609  0.1538
 4619TIP3    H135416   6.832   2.931   1.879 -0.8694 -0.2369  0.9926
 4619TIP3    H235417   6.771   2.995   2.002 -0.2719  1.4773  0.4243
 4620TIP3   OH235418   3.137   3.592   0.617 -0.6691  0.5822  0.2169
 4620TIP3    H135419   3.137   3.654   0.544 -0.1100  0.8833  0.4667
 4620TIP3    H235420   3.104   3.643   0.692  0.2943  0.7404  0.5466
 4621TIP3   OH235421   3.620   3.782   0.307  0.6685  0.0957 -0.0062
 4621TIP3    H135422   3.601   3.868   0.344  1.8948  1.5029 -2.4049
 4621TIP3    H235423   3.534   3.748   0.280  0.1587  0.4465  1.0927
 4622TIP3   OH235424   5.056   6.798   2.219 -0.3509 -0.1693  0.2282
 4622TIP3    H135425   5.132   6.838   2.262  0.6713 -0.0137 -1.6254
 4622TIP3    H235426   5.076   6.705   2.218 -0.8776 -0.3011  1.0028
 4623TIP3   OH235427   1.094   4.166   1.660  0.7913 -0.6237 -0.0384
 4623TIP3    H135428   1.114   4.211   1.578  1.7298  0.3687  0.6923
 4623TIP3    H235429   1.104   4.073   1.640 -0.1863 -0.4840 -1.3365
 4624TIP3   OH235430   0.074   1.669   6.614  0.4233  0.1989 -0.4930
 4624TIP3    H135431   0.160   1.709   6.631  1.5786 -1.6821 -1.4475
 4624TIP3    H235432   0.048   1.703   6.529  0.4183  0.4835 -0.3771
 4625TIP3   OH235433   7.076   4.093   7.027 -0.0118  0.3518  1.2211
 4625TIP3    H135434   7.170   4.081   7.018  0.7496  2.2999  4.6093
 4625TIP3    H235435   7.040   4.005   7.030  1.7347 -0.4337  0.2790
 4626TIP3   OH235436   0.142   1.259   7.243  0.2302 -0.3066 -0.3759
 4626TIP3    H135437   0.196   1.327   7.203  0.3565 -0.3311 -0.2463
 4626TIP3    H235438   0.204   1.200   7.285  0.0275  0.9882  1.9105
 4627TIP3   OH235439   5.969   1.350   0.809 -0.0226 -0.7531  0.0890
 4627TIP3    H135440   5.912   1.376   0.737 -1.1889  0.2262  1.3029
 4627TIP3    H235441   5.909   1.331   0.881  1.1454 -0.1955  1.2604
 4628TIP3   OH235442   5.811   6.659   6.745  0.4398 -0.0842  0.3953
 4628TIP3    H135443   5.806   6.753   6.726  1.4036 -0.1923 -0.4959
 4628TIP3    H235444   5.845   6.654   6.834  0.3232  0.4074  0.4721
 4629TIP3   OH235445   0.854   6.727   0.912  0.0841 -0.6251 -0.8136
 4629TIP3    H135446   0.888   6.660   0.971  0.0320  1.2823  1.5205
 4629TIP3    H235447   0.931   6.761   0.867  0.6596  0.2070  0.7221
 4630TIP3   OH235448   5.971   5.086   0.573 -0.1522 -0.1106 -0.0521
 4630TIP3    H135449   6.034   5.096   0.502  1.3421  1.3428  1.3876
 4630TIP3    H235450   5.995   5.154   0.636 -1.0780 -1.6802  2.1058
 4631TIP3   OH235451   0.294   0.057   2.613  0.9625  0.6016  0.6197
 4631TIP3    H135452   0.211   0.089   2.578  0.6864 -0.4490  0.2633
 4631TIP3    H235453   0.270   0.010   2.693  1.3439  1.1439  1.0669
 4632TIP3   OH235454   4.209   6.601   7.586 -0.3761 -0.1565 -0.0320
 4632TIP3    H135455   4.220   6.568   7.674 -1.6533 -0.1156  0.1717
 4632TIP3    H235456   4.144   6.671   7.595 -0.1544  0.1832 -0.9300
 4633TIP3   OH235457   6.516   4.166   0.178 -0.2272  0.4126  0.5948
 4633TIP3    H135458   6.469   4.110   0.116  0.2754 -0.4410  0.9616
 4633TIP3    H235459   6.451   4.231   0.206 -1.0547 -0.4519  0.7350
 4634TIP3   OH235460   3.460   5.586   0.310 -0.4384 -0.3221  0.2364
 4634TIP3    H135461   3.536   5.537   0.342 -1.3833 -0.8162  1.7826
 4634TIP3    H235462   3.394   5.519   0.293 -0.7552  0.1661 -0.5361
 4635TIP3   OH235463   2.525   0.041   1.134  0.4865  0.1446  0.4849
 4635TIP3    H135464   2.498   0.072   1.048 -0.2278  1.0036  1.0071
 4635TIP3    H235465   2.600  -0.017   1.116 -1.4454 -2.0909 -0.9881
 4636TIP3   OH235466   7.128   1.784   1.439 -0.3909 -0.2788  0.3401
 4636TIP3    H135467   7.050   1.785   1.384 -0.9063  1.7883  1.0044
 4636TIP3    H235468   7.095   1.766   1.527  0.0342 -0.4568  0.4668
 4637TIP3   OH235469   2.592   5.199   1.741  0.8452 -0.2453  0.4769
 4637TIP3    H135470   2.506   5.158   1.749  1.2701 -1.4822 -0.8911
 4637TIP3    H235471   2.647   5.152   1.803  1.0033 -0.8604 -0.1146
 4638TIP3   OH235472   1.492   1.906   7.222 -0.0961 -0.4885  0.3763
 4638TIP3    H135473   1.493   1.926   7.128  2.8616 -0.5043  0.3109
 4638TIP3    H235474   1.426   1.838   7.231 -0.0076 -0.9447 -1.8086
 4639TIP3   OH235475   2.324   0.328   1.695 -0.0374 -0.4677 -0.0032
 4639TIP3    H135476   2.319   0.424   1.690  0.0058 -0.5268 -2.5964
 4639TIP3    H235477   2.261   0.305   1.763  1.3852  1.4573  2.1298
 4640TIP3   OH235478   5.326   3.801   1.767 -0.0561 -0.0994 -0.2198
 4640TIP3    H135479   5.405   3.816   1.715 -0.0198  1.0137  0.1260
 4640TIP3    H235480   5.334   3.862   1.841 -1.3706  0.2406 -0.3356
 4641TIP3   OH235481   4.417   0.621   2.043  0.1316 -0.2053  0.0175
 4641TIP3    H135482   4.384   0.558   2.107 -0.8541 -2.2752 -2.3315
 4641TIP3    H235483   4.362   0.698   2.053 -1.1526 -1.1570  0.5053
 4642TIP3   OH235484   6.306   0.193   6.691  0.0364  0.8093 -0.0887
 4642TIP3    H135485   6.300   0.102   6.662  1.8110  0.5819  0.1119
 4642TIP3    H235486   6.289   0.244   6.613  1.1747  0.2442 -0.7417
 4643TIP3   OH235487   1.278   5.310   2.385 -0.4521 -0.2379 -0.1856
 4643TIP3    H135488   1.258   5.223   2.420 -1.4177  0.2597  0.5383
 4643TIP3    H235489   1.366   5.329   2.418 -0.3885 -0.7717 -0.0306
 4644TIP3   OH235490   2.855   2.166   0.681  0.3735  0.6047  0.1902
 4644TIP3    H135491   2.804   2.144   0.760  0.3754 -2.0049 -0.4529
 4644TIP3    H235492   2.799   2.228   0.634 -0.5926  0.5420  1.1969
 4645TIP3   OH235493   5.505   3.448   7.302  0.3836 -0.3078  0.8344
 4645TIP3    H135494   5.419   3.419   7.331 -0.2166  0.3429 -0.2701
 4645TIP3    H235495   5.566   3.388   7.347 -0.5315  0.0131  2.6091
 4646TIP3   OH235496   2.233   1.868   0.648  0.6069  0.1000  0.7738
 4646TIP3    H135497   2.260   1.808   0.717  0.7647  0.2696  0.8598
 4646TIP3    H235498   2.314   1.890   0.603  0.2912 -1.5370 -0.7143
 4647TIP3   OH235499   1.535   7.120   2.030  0.2499 -0.0765  0.2759
 4647TIP3    H135500   1.533   7.026   2.009  2.1118 -0.4774  1.6111
 4647TIP3    H235501   1.565   7.162   1.949 -1.2129 -0.5242 -0.5329
 4648TIP3   OH235502   5.861   2.540   6.742 -0.2809 -0.3565  0.2242
 4648TIP3    H135503   5.900   2.619   6.705  1.1091 -2.0432 -2.1362
 4648TIP3    H235504   5.884   2.543   6.835  0.3629  1.6214  0.0489
 4649TIP3   OH235505   5.767   0.353   2.033 -0.2037  0.3710 -0.4490
 4649TIP3    H135506   5.761   0.298   2.111  1.8149 -0.2968 -0.6946
 4649TIP3    H235507   5.743   0.441   2.063 -0.4447 -0.0625  0.6732
 4650TIP3   OH235508   0.075   4.811   6.468  0.0673 -0.4415 -0.2144
 4650TIP3    H135509   0.075   4.723   6.507 -1.0291 -0.6173 -0.5917
 4650TIP3    H235510   0.142   4.807   6.400 -0.8257 -1.3806 -1.0690
 4651TIP3   OH235511   6.368   5.664   2.477 -0.6120  0.0184 -0.4677
 4651TIP3    H135512   6.314   5.637   2.551  0.8307 -2.8348 -0.3305
 4651TIP3    H235513   6.446   5.702   2.517  1.3904 -3.8600 -0.1787
 4652TIP3   OH235514   0.086   6.006   7.561 -0.4128  0.3923 -0.2865
 4652TIP3    H135515   0.100   6.083   7.616 -1.3187  0.5645 -0.2885
 4652TIP3    H235516   0.141   5.938   7.601 -0.6241  0.6746  0.4954
 4653TIP3   OH235517   5.588   3.257   7.832  0.0714 -0.2214 -0.4217
 4653TIP3    H135518   5.523   3.325   7.813 -0.0653 -0.0974  0.4555
 4653TIP3    H235519   5.581   3.196   7.759  0.5173  0.9317 -1.4811
 4654TIP3   OH235520   1.398   3.608   7.593 -0.4489  0.2895  0.3726
 4654TIP3    H135521   1.358   3.599   7.679 -0.4527 -1.7137  0.2036
 4654TIP3    H235522   1.430   3.520   7.572  1.6756  1.2313 -0.6555
 4655TIP3   OH235523   3.951   5.611   0.007  0.2174 -0.1373 -0.3615
 4655TIP3    H135524   3.868   5.656   0.022  1.1066  1.3690  0.2328
 4655TIP3    H235525   3.964   5.616  -0.088  0.0127  0.3093 -0.3655
 4656TIP3   OH235526   5.172   4.704   6.621  0.5139  0.0697  0.5878
 4656TIP3    H135527   5.223   4.785   6.619  1.5488 -0.4863 -3.0236
 4656TIP3    H235528   5.081   4.733   6.629  0.9267  1.5336  0.2311
 4657TIP3   OH235529   1.273   1.101   0.886  0.5603  0.0178  0.0635
 4657TIP3    H135530   1.239   1.016   0.915 -0.6250  0.4550  0.0232
 4657TIP3    H235531   1.278   1.153   0.966  3.2956 -0.6857  0.4567
 4658TIP3   OH235532   2.737   4.250   7.597  0.0739 -0.0084 -0.0031
 4658TIP3    H135533   2.648   4.231   7.626  0.4198  0.1226  1.1780
 4658TIP3    H235534   2.763   4.328   7.645  1.1208 -0.5151  0.2940
 4659TIP3   OH235535   4.690   2.027   0.151  0.7386  0.1855  0.0825
 4659TIP3    H135536   4.658   2.012   0.062  1.3343  0.9177 -0.2656
 4659TIP3    H235537   4.740   1.947   0.172 -0.5848 -0.6121  0.3298
 4660TIP3   OH235538   0.297   1.498   0.194  0.0330  0.2897  0.1187
 4660TIP3    H135539   0.295   1.435   0.122 -1.0054  0.2726  0.1365
 4660TIP3    H235540   0.381   1.542   0.186  0.8490 -1.1872  0.1826
 4661TIP3   OH235541   0.993   6.109   7.109  0.2841  0.2550  0.4514
 4661TIP3    H135542   0.948   6.187   7.140 -0.3637  0.5171 -1.0992
 4661TIP3    H235543   0.931   6.066   7.050  0.9927 -0.9225  0.5127
 4662TIP3   OH235544   4.923   5.377   7.295  0.1584 -0.2999  0.0730
 4662TIP3    H135545   4.934   5.288   7.261 -0.6598  0.0089 -1.0578
 4662TIP3    H235546   4.995   5.426   7.255 -0.7884  0.0571 -1.2802
 4663TIP3   OH235547   6.744   4.136   1.384 -0.0237 -0.1419 -0.1569
 4663TIP3    H135548   6.781   4.078   1.317 -1.7512 -0.8991 -0.5027
 4663TIP3    H235549   6.748   4.086   1.465 -0.8272 -0.4719 -0.3131
 4664TIP3   OH235550   4.803   4.514   0.192 -0.0435 -0.0627 -0.2909
 4664TIP3    H135551   4.856   4.566   0.253  0.0986  0.6689 -1.0193
 4664TIP3    H235552   4.863   4.494   0.120 -0.2034 -0.9379 -0.1922
 4665TIP3   OH235553   4.577   3.146   1.088  0.1203 -0.8521  0.1397
 4665TIP3    H135554   4.587   3.215   1.154  0.9822 -2.4564  1.7940
 4665TIP3    H235555   4.488   3.157   1.055 -0.2454  0.2044  1.3619
 4666TIP3   OH235556   5.502   3.038   7.644 -0.1346  0.7586  0.1444
 4666TIP3    H135557   5.406   3.038   7.638 -0.0660  1.9200 -1.6368
 4666TIP3    H235558   5.532   3.044   7.554  1.6779 -0.9892  0.5449
 4667TIP3   OH235559   0.787   6.764   1.987 -0.0084  0.4180  0.2717
 4667TIP3    H135560   0.726   6.838   1.978  0.8543  1.1229  0.1238
 4667TIP3    H235561   0.742   6.704   2.046 -1.4952  0.2264 -0.9835
 4668TIP3   OH235562   3.554   5.349   7.241 -0.4930  0.9400 -0.1473
 4668TIP3    H135563   3.503   5.430   7.240  0.0012  1.3287  2.0817
 4668TIP3    H235564   3.639   5.373   7.206 -0.9609  0.8861 -1.3820
 4669TIP3   OH235565   3.649   4.991   2.648 -0.8253  0.0701 -0.1676
 4669TIP3    H135566   3.735   5.031   2.638  0.6536 -2.5224  1.1214
 4669TIP3    H235567   3.596   5.029   2.578  0.1535  4.5665  1.2283
 4670TIP3   OH235568   4.303   0.681   7.026  0.5780  0.3500 -0.7182
 4670TIP3    H135569   4.313   0.657   6.933 -0.5726  2.3151 -1.4176
 4670TIP3    H235570   4.245   0.757   7.024  0.0934  0.0930  1.6898
 4671TIP3   OH235571   4.203   6.863   1.861 -0.0539  0.2062  0.2997
 4671TIP3    H135572   4.297   6.846   1.850 -0.1187  1.3881 -3.1860
 4671TIP3    H235573   4.200   6.944   1.912  0.6961 -0.4998  1.5489
 4672TIP3   OH235574   6.405   2.243   1.184 -0.6326  0.2495 -0.6269
 4672TIP3    H135575   6.321   2.210   1.151 -1.9087  1.4805  1.2509
 4672TIP3    H235576   6.399   2.232   1.279  1.3485  0.3732 -0.4594
 4673TIP3   OH235577   6.269   6.987   1.884  0.5138  0.4321  0.0149
 4673TIP3    H135578   6.288   6.954   1.972  1.2443  0.4764 -0.1197
 4673TIP3    H235579   6.204   7.056   1.898 -0.5920 -0.6515  0.3580
 4674TIP3   OH235580   5.917   0.967   1.761 -0.2165  1.0281  0.4366
 4674TIP3    H135581   5.851   1.003   1.819  0.4058 -0.7383  2.3863
 4674TIP3    H235582   5.878   0.885   1.728 -0.1072  1.4343 -0.7616
 4675TIP3   OH235583   3.387   5.342   2.076 -0.1535  0.2284  0.3174
 4675TIP3    H135584   3.447   5.389   2.134  1.1205 -0.0996 -0.6929
 4675TIP3    H235585   3.314   5.317   2.132 -0.0138  1.8455  1.2734
 4676TIP3   OH235586   3.183   1.794   2.737 -0.1134 -0.5989 -0.0594
 4676TIP3    H135587   3.180   1.773   2.644 -0.2210  1.9588 -0.7314
 4676TIP3    H235588   3.092   1.812   2.761  0.1769  1.1798 -0.1553
 4677TIP3   OH235589   1.698   1.316   0.756 -0.4270 -0.2648 -0.1544
 4677TIP3    H135590   1.738   1.395   0.721  0.5636 -0.4880  0.4138
 4677TIP3    H235591   1.609   1.342   0.781 -0.3790  0.4508 -0.7175
 4678TIP3   OH235592   0.001   5.934   1.047  0.7821  0.5778  0.2679
 4678TIP3    H135593   0.084   5.942   1.094  0.2699  1.3299  1.0817
 4678TIP3    H235594  -0.042   5.859   1.088 -0.2310  2.0214  1.9540
 4679TIP3   OH235595   5.605   0.065   0.533  0.2754 -0.2181 -0.4725
 4679TIP3    H135596   5.555   0.070   0.452 -1.7648  0.6641  0.7578
 4679TIP3    H235597   5.559   0.001   0.587  2.3573 -1.7921 -0.4343
 4680TIP3   OH235598   0.055   0.305   5.996 -0.3807  0.2071 -0.4851
 4680TIP3    H135599   0.076   0.227   6.047 -0.1101  0.1210 -0.7261
 4680TIP3    H235600   0.080   0.283   5.907  0.0488  0.7068 -0.4927
 4681TIP3   OH235601   6.679   5.108   2.823  0.0014  0.3997  0.3246
 4681TIP3    H135602   6.710   5.198   2.825 -0.1792  0.4567  1.0684
 4681TIP3    H235603   6.585   5.114   2.841 -0.1023  0.0980 -0.1048
 4682TIP3   OH235604   7.058   1.319   0.113  0.2732  0.1342  0.1762
 4682TIP3    H135605   6.975   1.289   0.150  0.5988 -1.1827 -0.0921
 4682TIP3    H235606   7.072   1.262   0.037  1.8425 -0.2580  0.7223
 4683TIP3   OH235607   3.702   1.358   0.967  0.1800 -0.1547  0.6429
 4683TIP3    H135608   3.717   1.305   0.888  0.2198  0.5999  0.1319
 4683TIP3    H235609   3.607   1.353   0.980 -0.1248  1.3704 -0.6709
 4684TIP3   OH235610   4.357   4.187   2.127 -0.1578  0.2580 -0.1466
 4684TIP3    H135611   4.335   4.280   2.137 -0.5812  0.3640 -1.8637
 4684TIP3    H235612   4.356   4.153   2.217 -0.8838  1.7125  0.4313
 4685TIP3   OH235613   4.611   1.295   7.021 -0.2868  0.5394  0.3129
 4685TIP3    H135614   4.601   1.239   6.944 -2.0520  1.3359 -0.1052
 4685TIP3    H235615   4.668   1.245   7.080 -1.6731 -1.6848 -0.0728
 4686TIP3   OH235616   5.356   3.867   6.764 -0.1454 -0.3487  0.0905
 4686TIP3    H135617   5.296   3.923   6.814  1.1008  0.0777  1.1828
 4686TIP3    H235618   5.324   3.778   6.778 -1.7329 -0.0001 -1.0826
 4687TIP3   OH235619   0.729   5.804   1.509  0.0851 -0.5837 -0.0568
 4687TIP3    H135620   0.755   5.772   1.423 -0.7984 -1.5367  0.0165
 4687TIP3    H235621   0.639   5.834   1.498  0.4023  0.5556  0.2315
 4688TIP3   OH235622   2.065   4.670   2.419  0.6223 -0.2781 -0.6448
 4688TIP3    H135623   2.111   4.753   2.425 -0.4412  0.2329  1.5315
 4688TIP3    H235624   2.097   4.620   2.495  0.6634 -1.5760 -1.4803
 4689TIP3   OH235625   5.255   2.890   7.129  0.4770  0.0583  0.6251
 4689TIP3    H135626   5.293   2.831   7.194 -1.5822  0.5058  2.3384
 4689TIP3    H235627   5.302   2.973   7.141  0.1271  0.1293  1.5617
 4690TIP3   OH235628   6.638   7.119   2.551 -0.6236  0.1289  0.0862
 4690TIP3    H135629   6.707   7.185   2.563  0.3515 -0.4529 -1.8340
 4690TIP3    H235630   6.627   7.079   2.637 -0.8207  2.3694  1.1695
 4691TIP3   OH235631   4.357   1.027   0.135 -0.1596 -0.7140  0.0377
 4691TIP3    H135632   4.350   0.993   0.224 -0.2454 -2.5797 -0.6493
 4691TIP3    H235633   4.326   0.956   0.079 -0.3015  0.4941 -1.4843
 4692TIP3   OH235634   6.332   5.258   1.247  0.9310  0.1994  0.7508
 4692TIP3    H135635   6.403   5.197   1.265  0.9410  0.8505  3.1757
 4692TIP3    H235636   6.364   5.311   1.173  1.1377 -2.2558 -1.0607
 4693TIP3   OH235637   0.650   2.258   1.902 -0.7260 -0.4313  0.3789
 4693TIP3    H135638   0.597   2.315   1.958 -1.9287  0.4609 -1.5341
 4693TIP3    H235639   0.740   2.280   1.924 -1.1558  1.7409  0.2483
 4694TIP3   OH235640   4.465   6.790   1.785  0.6053  0.1743  0.1460
 4694TIP3    H135641   4.510   6.843   1.719  0.0463 -0.0496 -0.4268
 4694TIP3    H235642   4.443   6.709   1.740 -0.8216  0.4720  0.2471
 4695TIP3   OH235643   3.733   7.041   1.571  0.4786  0.1665 -0.6278
 4695TIP3    H135644   3.753   7.134   1.583 -1.8711  0.8552 -1.4753
 4695TIP3    H235645   3.702   7.034   1.481  1.9266 -1.7566 -1.0558
 4696TIP3   OH235646   6.373   1.225   7.494  0.9189 -0.0759 -0.0241
 4696TIP3    H135647   6.333   1.312   7.487 -0.0069 -0.3151  1.8015
 4696TIP3    H235648   6.320   1.170   7.436 -0.9030 -0.1817  1.6322
 4697TIP3   OH235649   1.744   4.981   6.660  0.1477  0.4415 -1.0392
 4697TIP3    H135650   1.745   4.886   6.648  0.3098  0.1687  0.8471
 4697TIP3    H235651   1.797   4.996   6.738  0.0733  2.0897 -1.2653
 4698TIP3   OH235652   5.216   2.875   2.448 -0.0563  0.4645 -0.6730
 4698TIP3    H135653   5.263   2.902   2.369 -0.6232  0.9713 -0.8495
 4698TIP3    H235654   5.123   2.885   2.426 -0.3087 -1.7631 -0.7609
 4699TIP3   OH235655   5.963   5.479   7.866  0.0109 -0.2089 -0.0959
 4699TIP3    H135656   6.054   5.471   7.836 -0.3988 -1.4149 -1.0919
 4699TIP3    H235657   5.914   5.507   7.788 -0.6580 -0.7432  0.1251
 4700TIP3   OH235658   6.431   6.734   6.724 -0.3451  0.3814  0.1422
 4700TIP3    H135659   6.348   6.693   6.748 -0.3218 -0.3077 -0.9143
 4700TIP3    H235660   6.441   6.805   6.787 -2.2315  1.1297 -0.3464
 4701TIP3   OH235661   6.380   0.134   1.341  0.3599  0.4264 -0.6537
 4701TIP3    H135662   6.439   0.172   1.406 -0.3801  2.0649 -0.8841
 4701TIP3    H235663   6.312   0.092   1.392  0.8258 -0.0262 -0.3912
 4702TIP3   OH235664   5.059   3.965   7.273 -0.3720 -0.2118 -0.3415
 4702TIP3    H135665   5.000   3.994   7.203 -1.3069 -0.4224  0.3321
 4702TIP3    H235666   5.132   3.923   7.228 -0.3168  0.8116 -1.2304
 4703TIP3   OH235667   6.989   0.754   1.310  0.0578 -0.1431  0.0633
 4703TIP3    H135668   7.055   0.812   1.274 -0.1083 -0.1159 -0.2052
 4703TIP3    H235669   6.954   0.707   1.234  0.3979 -0.8149  0.3089
 4704TIP3   OH235670   6.339   3.906   7.244  0.1964 -0.3831  0.2466
 4704TIP3    H135671   6.359   3.921   7.337  0.2379  1.3136 -0.0096
 4704TIP3    H235672   6.411   3.850   7.214 -0.0554 -1.3374  1.3194
 4705TIP3   OH235673   1.173   6.715   2.557 -0.1079 -0.2757  0.4365
 4705TIP3    H135674   1.260   6.752   2.539 -0.2675  0.2200  0.6464
 4705TIP3    H235675   1.170   6.633   2.508 -0.0685  0.4237 -0.7751
 4706TIP3   OH235676   5.062   6.535   0.413 -0.0217  0.1347 -0.4794
 4706TIP3    H135677   5.077   6.445   0.386 -1.2596 -0.9744  2.1508
 4706TIP3    H235678   4.980   6.560   0.369 -1.3593 -1.1996  1.1158
 4707TIP3   OH235679   0.476   3.568   1.588  0.3866 -0.2584 -0.3751
 4707TIP3    H135680   0.410   3.613   1.642  0.2291 -0.4798 -0.3808
 4707TIP3    H235681   0.504   3.634   1.525  0.4774 -0.0351 -0.1062
 4708TIP3   OH235682   3.612   2.784   0.272  0.3548 -0.0151  0.2531
 4708TIP3    H135683   3.516   2.782   0.265  0.1776  3.1082  0.1773
 4708TIP3    H235684   3.641   2.808   0.184  1.1474 -0.0479  0.5039
 4709TIP3   OH235685   6.276   1.829   1.947  0.0511 -0.4758 -0.6029
 4709TIP3    H135686   6.317   1.903   1.992  1.7544 -2.1552  0.7816
 4709TIP3    H235687   6.221   1.869   1.880  3.3320  2.0292 -2.0990
 4710TIP3   OH235688   1.749   4.017   6.366  0.3443 -0.0946 -0.4987
 4710TIP3    H135689   1.818   3.964   6.325  1.2777  0.2119  0.6068
 4710TIP3    H235690   1.770   4.014   6.460 -0.6012  0.8032 -0.2480
 4711TIP3   OH235691   3.928   0.782   1.193 -0.1698  0.0127  0.2033
 4711TIP3    H135692   3.977   0.700   1.196 -0.0829  0.0770  0.7815
 4711TIP3    H235693   3.975   0.839   1.254 -0.8863  0.1174  0.6676
 4712TIP3   OH235694   4.430   4.408   7.526  0.5972  0.3308 -0.2394
 4712TIP3    H135695   4.426   4.504   7.524  2.6397  0.4435 -1.8664
 4712TIP3    H235696   4.339   4.381   7.514  0.2733  2.0880 -2.4111
 4713TIP3   OH235697   0.906   2.700   2.007  0.4069 -0.2836  0.0005
 4713TIP3    H135698   0.956   2.734   1.932 -1.5336  1.2760 -0.6904
 4713TIP3    H235699   0.972   2.677   2.072  2.1107 -0.6753 -1.7839
 4714TIP3   OH235700   0.038   6.764   6.908  0.1154 -0.2526 -0.1781
 4714TIP3    H135701  -0.004   6.688   6.868  0.5954  0.4748 -2.1780
 4714TIP3    H235702  -0.034   6.812   6.949 -0.4383 -0.9472 -0.3260
 4715TIP3   OH235703   6.896   5.338   2.153 -0.1135  0.3839 -0.1114
 4715TIP3    H135704   6.990   5.352   2.161 -0.1095  0.9239 -0.9983
 4715TIP3    H235705   6.862   5.420   2.117 -1.1289  0.7130  1.4630
 4716TIP3   OH235706   4.863   0.291   6.918 -0.3617  0.3328 -0.3067
 4716TIP3    H135707   4.853   0.338   6.835 -2.2775  0.9998  0.2462
 4716TIP3    H235708   4.803   0.336   6.978 -1.1924 -1.8911  0.6476
 4717TIP3   OH235709   5.942   5.924   2.605 -0.0931  0.5138 -0.0792
 4717TIP3    H135710   5.973   6.014   2.596  0.6863  0.4383  1.4308
 4717TIP3    H235711   5.909   5.920   2.695 -1.1361 -0.4199 -0.4868
 4718TIP3   OH235712   4.614   5.948   0.527 -0.3544 -0.1920  0.4402
 4718TIP3    H135713   4.692   5.893   0.531  0.6411  1.0536 -0.8622
 4718TIP3    H235714   4.630   6.016   0.593 -0.7908 -0.4592  0.8302
 4719TIP3   OH235715   2.054   3.856   2.637  0.1422 -0.0051 -0.5906
 4719TIP3    H135716   1.996   3.891   2.569  1.1458 -1.9246 -2.5716
 4719TIP3    H235717   1.995   3.810   2.697 -0.8873  2.6856  0.6027
 4720TIP3   OH235718   4.258   2.314   2.245  0.4507  0.3952  0.1780
 4720TIP3    H135719   4.198   2.371   2.293 -0.8129  0.4076 -1.3564
 4720TIP3    H235720   4.201   2.253   2.198  1.7331 -1.3732  0.8070
 4721TIP3   OH235721   0.257   3.150   1.454 -0.2056 -0.8103 -0.5968
 4721TIP3    H135722   0.222   3.214   1.516 -0.5374  1.0349 -2.5674
 4721TIP3    H235723   0.305   3.088   1.509 -0.4581  0.7053  1.4968
 4722TIP3   OH235724   0.223   6.170   7.369 -0.0070 -0.0501  0.0525
 4722TIP3    H135725   0.215   6.095   7.428  0.3807 -0.7480 -0.7418
 4722TIP3    H235726   0.151   6.159   7.307  0.9837 -0.6986 -1.0365
 4723TIP3   OH235727   1.431   3.177   7.399  0.6750 -0.5631  0.0224
 4723TIP3    H135728   1.485   3.099   7.412  1.7927 -0.1209 -1.6559
 4723TIP3    H235729   1.341   3.144   7.399  1.0492 -1.6464  0.6500
 4724TIP3   OH235730   7.102   0.073   7.745  0.0706 -0.5015  0.3953
 4724TIP3    H135731   7.088   0.013   7.672 -1.0876 -0.4318  0.5384
 4724TIP3    H235732   7.193   0.100   7.737 -0.3536  0.5033 -1.7869
 4725TIP3   OH235733   5.510   1.424   6.655  0.1048 -0.0814  0.6687
 4725TIP3    H135734   5.555   1.508   6.646 -0.1197 -0.0568 -0.2905
 4725TIP3    H235735   5.537   1.374   6.578  0.2181 -0.8844  1.2222
 4726TIP3   OH235736   3.967   4.536   1.796 -0.1353 -0.1335 -0.0564
 4726TIP3    H135737   3.958   4.620   1.842 -0.0063 -0.4754  0.6055
 4726TIP3    H235738   4.060   4.517   1.799 -0.2905 -0.8539  0.8183
 4727TIP3   OH235739   2.038   4.166   6.877 -0.0168 -0.4057  0.1948
 4727TIP3    H135740   2.021   4.082   6.835  1.5357 -0.0715 -1.2074
 4727TIP3    H235741   1.994   4.231   6.822  1.7348 -0.0015 -0.8253
 4728TIP3   OH235742   1.997   6.298   7.293  0.0474 -0.3731 -0.4124
 4728TIP3    H135743   1.925   6.361   7.281  0.1906 -0.2548 -0.6583
 4728TIP3    H235744   1.990   6.272   7.385 -0.2962 -0.3453 -0.4275
 4729TIP3   OH235745   0.667   5.163   0.962 -0.0292 -0.5247  0.0194
 4729TIP3    H135746   0.614   5.153   0.883 -1.0213 -0.7637  0.6976
 4729TIP3    H235747   0.610   5.209   1.024  0.8498 -0.0382  0.4863
 4730TIP3   OH235748   1.342   3.603   0.124  0.1091 -0.3658  0.0599
 4730TIP3    H135749   1.398   3.678   0.145  1.3545 -0.2410 -3.0650
 4730TIP3    H235750   1.381   3.529   0.170  2.1043 -0.0170 -0.9820
 4731TIP3   OH235751   4.906   1.127   1.560  0.6003  0.4209 -0.0580
 4731TIP3    H135752   4.813   1.122   1.542 -0.8123 -0.4262  5.4393
 4731TIP3    H235753   4.927   1.221   1.554 -0.7372  0.6932 -0.7819
 4732TIP3   OH235754   0.828   4.660   6.729  0.1217 -0.3748 -0.1993
 4732TIP3    H135755   0.882   4.739   6.722  1.6084 -1.4081 -1.1689
 4732TIP3    H235756   0.770   4.664   6.653  1.5450 -1.1258 -1.3749
 4733TIP3   OH235757   1.147   4.424   7.877  0.2952 -0.5121 -0.5375
 4733TIP3    H135758   1.101   4.359   7.824  0.6932 -1.5491  0.3661
 4733TIP3    H235759   1.095   4.504   7.866 -1.5318 -1.5494  0.1416
 4734TIP3   OH235760   7.019   6.085   0.039  0.4525 -0.5276 -0.2534
 4734TIP3    H135761   7.044   6.177   0.031 -0.5322 -0.2274 -0.0103
 4734TIP3    H235762   7.087   6.037  -0.007  2.0353  0.1719  1.2434
 4735TIP3   OH235763   1.700   5.908   7.174 -0.7115 -0.0385 -0.0542
 4735TIP3    H135764   1.639   5.978   7.195 -1.6089 -1.0043  0.7304
 4735TIP3    H235765   1.778   5.927   7.225 -0.6339  0.8075 -0.4790
 4736TIP3   OH235766   3.308   6.852   0.484 -0.3407 -0.4858 -0.1451
 4736TIP3    H135767   3.269   6.800   0.554  1.4278 -1.1312  0.4258
 4736TIP3    H235768   3.395   6.875   0.516  0.3936 -0.4887 -1.9587
 4737TIP3   OH235769   4.190   5.116   1.356 -0.9060  0.5745 -0.5050
 4737TIP3    H135770   4.273   5.163   1.362 -0.6895  0.3243 -1.4471
 4737TIP3    H235771   4.137   5.152   1.427  0.1893  0.3585  0.4721
 4738TIP3   OH235772   4.012   3.246   6.639 -0.2427  0.3894 -0.1050
 4738TIP3    H135773   4.068   3.254   6.562  0.1441 -0.0779  0.1197
 4738TIP3    H235774   3.976   3.333   6.652  0.5112  0.7229 -0.1994
 4739TIP3   OH235775   2.470   1.023   0.977 -0.5640 -0.1757 -0.3510
 4739TIP3    H135776   2.499   1.052   1.063 -0.9671  0.9078 -0.5622
 4739TIP3    H235777   2.542   0.969   0.944  0.4976  1.0697 -0.1719
 4740TIP3   OH235778   0.508   6.587   1.531  0.3107 -0.0847 -0.1121
 4740TIP3    H135779   0.477   6.579   1.621  0.4813  1.4518  0.1187
 4740TIP3    H235780   0.583   6.528   1.526  0.4106 -0.0585  0.8197
 4741TIP3   OH235781   3.838   3.452   1.066  0.7391 -0.8249 -0.4163
 4741TIP3    H135782   3.769   3.412   1.013 -0.4507  2.6302 -1.7732
 4741TIP3    H235783   3.916   3.446   1.011  0.0841  0.4941 -1.5496
 4742TIP3   OH235784   6.054   6.516   5.861 -0.2988 -0.4201  0.0991
 4742TIP3    H135785   6.034   6.430   5.823 -1.5379  0.4907 -1.4584
 4742TIP3    H235786   5.978   6.537   5.915 -0.1545 -0.1583  0.2028
 4743TIP3   OH235787   1.277   1.964   7.605  0.1412  0.3741 -0.4666
 4743TIP3    H135788   1.242   1.894   7.660  0.6794  1.2022  0.9729
 4743TIP3    H235789   1.359   1.929   7.570 -0.9404 -0.7381 -2.0695
 4744TIP3   OH235790   6.320   3.366   2.260  0.0764  0.0165 -0.8940
 4744TIP3    H135791   6.397   3.391   2.208 -0.1097  0.8817 -0.7634
 4744TIP3    H235792   6.291   3.447   2.300 -0.8658 -0.3251 -0.8764
 4745TIP3   OH235793   3.613   0.405   6.781  0.4405  0.2691 -0.0981
 4745TIP3    H135794   3.589   0.451   6.861 -0.0234 -1.2306  0.6696
 4745TIP3    H235795   3.666   0.467   6.732  0.2411  1.4245  1.1005
 4746TIP3   OH235796   4.714   4.522   7.375  0.6620 -0.1549  0.7969
 4746TIP3    H135797   4.770   4.600   7.379  1.7861 -0.8760 -0.1929
 4746TIP3    H235798   4.648   4.536   7.443  2.4744  0.3840  2.5169
 4747TIP3   OH235799   5.810   2.990   7.089  0.1316  0.5481 -0.1970
 4747TIP3    H135800   5.804   3.026   7.000  0.9598 -2.0434 -1.4171
 4747TIP3    H235801   5.745   2.920   7.090  0.5819  0.1318  1.0317
 4748TIP3   OH235802   6.174   2.477   6.762 -0.2884 -0.1274  0.6447
 4748TIP3    H135803   6.208   2.554   6.716  0.3673 -0.0296  1.2585
 4748TIP3    H235804   6.144   2.418   6.693  2.0724 -0.6481 -0.0307
 4749TIP3   OH235805   6.363   4.368   2.414  0.4111 -0.0366  0.5524
 4749TIP3    H135806   6.322   4.451   2.438 -1.2159 -1.3079  2.5254
 4749TIP3    H235807   6.442   4.364   2.468  1.2988  0.7932 -0.6059
 4750TIP3   OH235808   2.422   4.469   7.953 -0.6976  0.0762 -0.2821
 4750TIP3    H135809   2.389   4.501   7.869 -0.3507  0.0754 -0.4186
 4750TIP3    H235810   2.362   4.506   8.018 -1.9574 -1.2345 -0.6392
 4751TIP3   OH235811   6.398   1.705   1.100 -0.3519  0.0472  0.1254
 4751TIP3    H135812   6.384   1.619   1.141  0.6936 -0.2263 -0.0589
 4751TIP3    H235813   6.491   1.723   1.113 -0.7022  1.5161  0.8301
 4752TIP3   OH235814   4.122   3.097   1.246 -0.1532 -0.3881  0.0305
 4752TIP3    H135815   4.061   3.092   1.320 -0.7887  0.8430 -0.3741
 4752TIP3    H235816   4.143   3.006   1.225 -0.8615 -0.7859  0.9927
 4753TIP3   OH235817   5.029   4.208   1.175 -0.3121  0.2924  0.8783
 4753TIP3    H135818   5.012   4.292   1.133 -3.4181 -0.9813 -0.7473
 4753TIP3    H235819   4.987   4.144   1.118 -0.1291 -2.1298  3.2653
 4754TIP3   OH235820   3.515   1.392   0.180 -0.1696 -0.5054 -0.0595
 4754TIP3    H135821   3.495   1.485   0.195 -1.2215 -0.8131  0.5544
 4754TIP3    H235822   3.581   1.393   0.111 -0.7240  0.6725 -0.6131
 4755TIP3   OH235823   0.983   0.999   6.709  0.5583  0.0823 -0.0264
 4755TIP3    H135824   1.071   0.961   6.710  0.5491  0.0466  1.5361
 4755TIP3    H235825   0.993   1.083   6.754 -0.6796 -1.1793  2.9058
 4756TIP3   OH235826   0.622   4.584   1.684 -0.3210  0.5529  0.1977
 4756TIP3    H135827   0.668   4.666   1.669 -1.1767  0.5832 -3.1287
 4756TIP3    H235828   0.588   4.591   1.773 -1.3069  4.3466 -0.3056
 4757TIP3   OH235829   1.762   0.939   7.505 -0.0428 -0.0309 -0.4414
 4757TIP3    H135830   1.742   0.920   7.414  0.5894  1.6127 -0.9499
 4757TIP3    H235831   1.841   0.888   7.523  2.1387  2.5195 -2.0433
 4758TIP3   OH235832   5.830   5.550   6.189  0.4664 -0.1296 -0.2488
 4758TIP3    H135833   5.758   5.499   6.151  0.6589 -0.1892 -0.5300
 4758TIP3    H235834   5.907   5.495   6.177  0.4090 -0.4916  0.9239
 4759TIP3   OH235835   1.820   6.546   0.863 -0.4226  0.7097  0.0138
 4759TIP3    H135836   1.865   6.501   0.792 -1.3569  0.0993 -0.2081
 4759TIP3    H235837   1.729   6.555   0.833 -0.7960  0.5816  1.0503
 4760TIP3   OH235838   1.573   2.024   0.255 -0.5569 -0.1347  0.4053
 4760TIP3    H135839   1.598   2.110   0.222  1.5909 -0.0495  2.0357
 4760TIP3    H235840   1.638   1.964   0.217 -1.6720 -0.9697 -0.2409
 4761TIP3   OH235841   5.168   1.610   1.773  0.1189  0.0919 -0.3781
 4761TIP3    H135842   5.222   1.637   1.699 -0.3910  0.6844 -0.5438
 4761TIP3    H235843   5.116   1.537   1.739 -0.3136  0.5416 -0.6966
 4762TIP3   OH235844   0.470   5.631   7.545 -0.4224  0.2579 -0.2303
 4762TIP3    H135845   0.434   5.554   7.589  0.6595  0.5446  1.2304
 4762TIP3    H235846   0.438   5.705   7.596 -1.4303  0.8173 -1.6072
 4763TIP3   OH235847   1.303   3.848   1.510 -0.1429 -0.2201 -0.1360
 4763TIP3    H135848   1.252   3.866   1.589 -0.1821  3.1161 -0.7967
 4763TIP3    H235849   1.390   3.883   1.527  1.0596 -2.8635 -0.2786
 4764TIP3   OH235850   5.818   5.398   0.696 -0.0763 -0.1300 -0.6278
 4764TIP3    H135851   5.887   5.349   0.741 -0.0894 -1.8591 -2.3788
 4764TIP3    H235852   5.857   5.425   0.613 -1.2052 -0.3415 -1.2484
 4765TIP3   OH235853   2.826   4.806   0.220  0.3471 -0.5361  0.5349
 4765TIP3    H135854   2.870   4.776   0.300 -0.4584 -0.7704  0.9033
 4765TIP3    H235855   2.848   4.739   0.155  3.4097  1.1080 -0.3006
 4766TIP3   OH235856   5.527   1.893   1.484  0.3025 -0.6340 -0.4479
 4766TIP3    H135857   5.432   1.903   1.485  0.4765  1.8408 -1.4024
 4766TIP3    H235858   5.543   1.818   1.427 -1.0859 -1.1727 -0.1411
 4767TIP3   OH235859   5.125   0.695   7.090  0.0931 -0.2319  0.4780
 4767TIP3    H135860   5.162   0.741   7.166  0.6797  0.8526 -0.4289
 4767TIP3    H235861   5.160   0.606   7.096 -0.8196 -0.5201  2.1164
 4768TIP3   OH235862   4.022   6.272   1.485  0.2163 -0.5641  0.3080
 4768TIP3    H135863   4.099   6.218   1.470  0.5317 -0.5717  1.8632
 4768TIP3    H235864   4.043   6.356   1.443  0.9966 -0.6328  0.5553
 4769TIP3   OH235865   0.286   4.559   0.381  0.8891  1.1854  0.1581
 4769TIP3    H135866   0.322   4.505   0.452  0.9089 -0.0883 -0.7848
 4769TIP3    H235867   0.361   4.576   0.324  0.4479  0.3741 -0.6752
 4770TIP3   OH235868   1.843   2.365   0.445  0.0197  0.3722 -0.2069
 4770TIP3    H135869   1.831   2.290   0.387  1.6493  0.4167 -0.6676
 4770TIP3    H235870   1.765   2.419   0.433 -1.1257 -1.1789  0.0455
 4771TIP3   OH235871   3.503   2.622   7.166 -0.6463  0.0648  0.1927
 4771TIP3    H135872   3.567   2.615   7.095 -2.5961  0.4443 -1.7248
 4771TIP3    H235873   3.457   2.705   7.148 -2.5246 -0.8044  0.6961
 4772TIP3   OH235874   5.535   1.267   7.769 -0.2749  1.0759  0.1023
 4772TIP3    H135875   5.626   1.290   7.747 -0.0979 -0.2379 -0.6275
 4772TIP3    H235876   5.487   1.281   7.687 -0.4910  0.5568  0.1424
 4773TIP3   OH235877   1.536   3.713   7.297  0.4384  0.1597 -0.1591
 4773TIP3    H135878   1.536   3.618   7.310 -1.2519 -0.1341 -1.8423
 4773TIP3    H235879   1.588   3.748   7.369 -0.5292 -1.8940  1.6268
 4774TIP3   OH235880   4.733   4.873   0.958 -0.0044  0.5200  0.2100
 4774TIP3    H135881   4.764   4.856   0.869 -1.7125  0.2492 -0.3552
 4774TIP3    H235882   4.667   4.942   0.947 -0.2850  0.4245  1.2641
 4775TIP3   OH235883   3.308   4.421   1.632  0.1681 -0.5269 -0.6498
 4775TIP3    H135884   3.369   4.362   1.589  0.3167 -1.8993  1.3278
 4775TIP3    H235885   3.233   4.366   1.654 -1.6723  1.0241 -2.6309
 4776TIP3   OH235886   1.001   1.493   7.374 -0.2071  0.4345  0.4361
 4776TIP3    H135887   0.910   1.510   7.349 -0.7110 -3.8047 -1.5042
 4776TIP3    H235888   1.052   1.550   7.316 -1.6048  0.4006 -0.8923
 4777TIP3   OH235889   0.226   4.864   7.593  0.2517 -0.2197 -0.1957
 4777TIP3    H135890   0.201   4.919   7.519 -0.8610 -1.2257 -0.5812
 4777TIP3    H235891   0.316   4.891   7.612 -0.1998  1.6337 -0.4463
 4778TIP3   OH235892   0.766   0.104   7.324  0.3429  0.0119  0.0648
 4778TIP3    H135893   0.747   0.014   7.299  1.2442 -0.0680 -0.3648
 4778TIP3    H235894   0.861   0.107   7.336  0.5420  1.2698 -1.4842
 4779TIP3   OH235895   1.599   4.952   7.858  0.4871  0.5204  0.2409
 4779TIP3    H135896   1.628   5.009   7.787 -0.5581  1.4423  0.5267
 4779TIP3    H235897   1.523   4.906   7.823  1.6933 -1.2461 -0.2112
 4780TIP3   OH235898   6.904   5.259   1.135  0.2984  0.4875 -0.1017
 4780TIP3    H135899   6.824   5.290   1.179  1.6682  1.0154  2.1660
 4780TIP3    H235900   6.975   5.307   1.177  1.9496 -1.0138 -1.0452
 4781TIP3   OH235901   7.071   3.446   7.970  0.0767  0.5633  0.1046
 4781TIP3    H135902   7.045   3.359   7.940  2.3192  0.0250 -0.4265
 4781TIP3    H235903   6.997   3.502   7.946 -1.8418 -1.2802  1.2905
 4782TIP3   OH235904   4.031   3.524   6.170 -0.2815 -0.1498 -0.1156
 4782TIP3    H135905   4.018   3.615   6.145 -0.2604 -0.3174 -0.7446
 4782TIP3    H235906   3.988   3.516   6.255  1.6082  0.9996  1.0250
 4783TIP3   OH235907   6.232   0.072   7.205 -0.2304 -0.4795  0.0024
 4783TIP3    H135908   6.149   0.098   7.246 -1.2830 -1.7541 -1.2092
 4783TIP3    H235909   6.220  -0.020   7.184  0.7600 -0.2155 -1.9105
 4784TIP3   OH235910   5.881   4.567   6.887 -0.2707 -0.1075 -0.1923
 4784TIP3    H135911   5.794   4.564   6.847 -0.2872  1.1404 -0.2722
 4784TIP3    H235912   5.936   4.519   6.825 -0.7974 -0.4989 -0.3741
 4785TIP3   OH235913   1.505   2.551   0.177 -0.6271 -0.1672  0.3143
 4785TIP3    H135914   1.480   2.463   0.149  1.3235 -0.8003  0.4371
 4785TIP3    H235915   1.422   2.600   0.177 -1.5136 -1.5331 -1.3644
 4786TIP3   OH235916   2.606   4.560   1.261 -0.5572 -0.4705  0.0796
 4786TIP3    H135917   2.606   4.475   1.218  0.9655 -0.7538  0.5594
 4786TIP3    H235918   2.615   4.539   1.354  1.0668  0.2054  0.1095
 4787TIP3   OH235919   1.486   0.215   7.651 -0.0117  0.0356 -0.1665
 4787TIP3    H135920   1.569   0.181   7.683  0.5116  0.4465 -1.0507
 4787TIP3    H235921   1.451   0.145   7.595  0.5507  0.5049 -1.1270
 4788TIP3   OH235922   0.212   0.379   7.072 -0.5577 -0.5306 -0.4472
 4788TIP3    H135923   0.124   0.377   7.107 -1.2722 -0.3928 -2.1215
 4788TIP3    H235924   0.207   0.326   6.992  1.1454 -1.4464 -0.0130
 4789TIP3   OH235925   2.912   2.393   7.891 -0.1284 -0.3651  1.0840
 4789TIP3    H135926   2.826   2.412   7.930  0.8035  1.4331  2.4141
 4789TIP3    H235927   2.908   2.434   7.804 -1.2694 -2.0575  0.2705
 4790TIP3   OH235928   1.706   3.403   7.738 -0.2318  0.3121  0.4999
 4790TIP3    H135929   1.693   3.465   7.810 -1.0934  1.4069 -0.5569
 4790TIP3    H235930   1.744   3.456   7.668 -0.7110 -0.4223 -0.3332
 4791TIP3   OH235931   2.601   4.920   6.886  0.1965 -0.1145  0.4505
 4791TIP3    H135932   2.663   4.860   6.844  0.6976  1.4322 -1.1148
 4791TIP3    H235933   2.647   4.952   6.963  0.7568 -0.1624  0.1434
 4792TIP3   OH235934   1.831   3.403   1.126 -0.1708  0.2286 -0.6098
 4792TIP3    H135935   1.908   3.363   1.085  1.0816 -0.1480  1.9208
 4792TIP3    H235936   1.789   3.332   1.174 -1.7839  0.5785 -1.4133
 4793TIP3   OH235937   4.208   0.131   0.506  0.5012  0.0068 -0.6586
 4793TIP3    H135938   4.268   0.080   0.452  1.6975  0.8853 -0.1882
 4793TIP3    H235939   4.260   0.206   0.537 -0.9229  0.9886 -0.5314
 4794TIP3   OH235940   6.838   7.084   6.914 -0.3561  0.5630 -0.2999
 4794TIP3    H135941   6.873   7.056   6.830 -0.5726 -1.2297  0.1711
 4794TIP3    H235942   6.876   7.023   6.977 -0.2288  1.8382  0.9221
 4795TIP3   OH235943   5.097   2.588   7.889 -0.2273  0.4135  0.5485
 4795TIP3    H135944   5.035   2.598   7.817 -0.0157 -0.8425  0.1711
 4795TIP3    H235945   5.053   2.530   7.951  1.3349 -2.3834 -0.7492
 4796TIP3   OH235946   5.534   4.695   6.985 -0.7277 -0.1618  0.3032
 4796TIP3    H135947   5.460   4.738   6.941 -1.2394 -1.7556 -0.4516
 4796TIP3    H235948   5.572   4.638   6.918  0.5723 -0.1285  0.9866
 4797TIP3   OH235949   1.552   4.076   1.274 -0.1197  0.2480  0.5642
 4797TIP3    H135950   1.609   4.009   1.311 -0.1007 -0.0736 -0.0246
 4797TIP3    H235951   1.607   4.153   1.266  0.9125 -0.6284 -1.9675
 4798TIP3   OH235952   6.003   6.697   2.447  0.0078  0.2857  0.3775
 4798TIP3    H135953   5.937   6.644   2.492 -0.5143  0.0718 -0.6157
 4798TIP3    H235954   6.028   6.764   2.511 -0.9281  0.1731  0.8732
 4799TIP3   OH235955   5.343   2.576   6.952  0.3613  0.2115  0.3017
 4799TIP3    H135956   5.402   2.641   6.913  0.1439  0.1841 -0.0684
 4799TIP3    H235957   5.256   2.609   6.933  0.2513  0.2204  0.8004
 4800TIP3   OH235958   5.375   6.273   0.687 -0.1029  0.0748  0.2748
 4800TIP3    H135959   5.362   6.214   0.762 -1.4551  1.4281  1.1754
 4800TIP3    H235960   5.294   6.265   0.637  0.2123  0.2386 -0.2603
 4801TIP3   OH235961   5.947   2.158   1.581  0.5227  0.3959  0.3726
 4801TIP3    H135962   5.897   2.077   1.569  0.4744  0.2295  1.5265
 4801TIP3    H235963   6.032   2.140   1.541  1.2576 -1.0241  2.3877
 4802TIP3   OH235964   4.950   6.168   0.978  0.0082  0.2957 -0.2319
 4802TIP3    H135965   4.895   6.131   0.910  0.8354  0.6652 -1.1309
 4802TIP3    H235966   4.952   6.101   1.047  0.5882 -0.8834 -1.3437
 4803TIP3   OH235967   4.887   6.882   2.020  0.4345  0.2175  0.4220
 4803TIP3    H135968   4.941   6.831   2.080  0.3953 -2.0293 -1.3096
 4803TIP3    H235969   4.799   6.845   2.031  0.2968  0.2679 -0.4852
 4804TIP3   OH235970   2.724   6.888   0.394  0.6932 -0.2118 -0.2215
 4804TIP3    H135971   2.748   6.919   0.307  3.2327 -2.1275 -0.3361
 4804TIP3    H235972   2.756   6.956   0.454  0.7480  0.1755 -0.6860
 4805TIP3   OH235973   2.705   4.778   7.151  0.6565 -0.4133  0.9866
 4805TIP3    H135974   2.752   4.695   7.155  1.8412  0.1617 -0.1909
 4805TIP3    H235975   2.616   4.754   7.126  0.1004 -1.5621  3.6513
 4806TIP3   OH235976   5.499   6.451   0.938 -0.3392 -0.5424  0.5506
 4806TIP3    H135977   5.553   6.380   0.972  1.6219  0.1124 -0.9982
 4806TIP3    H235978   5.520   6.526   0.994  1.3337  0.0031 -0.7048
 4807TIP3   OH235979   3.854   5.334   7.266 -0.2207 -0.0211 -0.1044
 4807TIP3    H135980   3.835   5.428   7.274 -0.3813  0.0769 -1.3686
 4807TIP3    H235981   3.936   5.322   7.312  0.5640  1.0346 -1.1578
 4808TIP3   OH235982   4.660   0.506   1.376 -0.4323 -0.1170  0.0846
 4808TIP3    H135983   4.621   0.457   1.304  4.0434 -3.5770 -0.3993
 4808TIP3    H235984   4.691   0.587   1.335 -0.2950 -0.8195 -1.2614
 4809TIP3   OH235985   1.737   4.541   7.958 -0.4317  0.2527 -0.0525
 4809TIP3    H135986   1.762   4.492   7.879 -0.9197 -0.8480  0.4599
 4809TIP3    H235987   1.819   4.555   8.005 -0.4949 -1.8609  0.7855
 4810TIP3   OH235988   3.771   4.874   7.351  0.7423  0.2898 -0.5556
 4810TIP3    H135989   3.813   4.846   7.432 -1.3162  0.0199  0.4674
 4810TIP3    H235990   3.731   4.958   7.372 -0.1912  0.0038 -1.1466
 4811TIP3   OH235991   4.890   3.452   0.681 -0.6404 -0.1108 -0.3006
 4811TIP3    H135992   4.901   3.545   0.702 -3.1523 -0.0055  0.9668
 4811TIP3    H235993   4.898   3.407   0.765 -2.3445 -0.6796 -0.4072
 4812TIP3   OH235994   6.915   1.136   0.971  0.2475 -0.0245 -0.3148
 4812TIP3    H135995   6.854   1.071   0.936 -1.0676  1.5028 -0.9723
 4812TIP3    H235996   6.928   1.198   0.899  1.4781  0.4563  0.2918
 4813TIP3   OH235997   0.457   4.357   2.358  0.6888 -0.4841 -0.0952
 4813TIP3    H135998   0.514   4.383   2.285 -1.0166 -0.4492 -1.4590
 4813TIP3    H235999   0.514   4.362   2.435  2.2842  0.4378 -1.2741
 4814TIP3   OH236000   4.157   2.619   0.718 -0.5551 -0.0690 -0.3281
 4814TIP3    H136001   4.110   2.620   0.634 -2.4228 -0.9500  0.6319
 4814TIP3    H236002   4.247   2.596   0.696 -1.0836 -0.5820 -2.0557
 4815TIP3   OH236003   0.518   2.964   1.390  0.2985  0.0441 -0.5071
 4815TIP3    H136004   0.481   2.881   1.423  0.4792  0.0016 -0.4101
 4815TIP3    H236005   0.585   2.987   1.455  0.4807  0.0913 -0.7130
 4816TIP3   OH236006   5.421   4.272   1.768  0.0052 -0.3943 -0.3769
 4816TIP3    H136007   5.329   4.247   1.780 -0.2949  1.0991  0.8427
 4816TIP3    H236008   5.422   4.320   1.685 -0.1081 -1.2563 -0.8885
 4817TIP3   OH236009   4.142   3.981   1.592 -0.0340 -0.4397  0.5520
 4817TIP3    H136010   4.225   3.934   1.576  1.7838  2.9092 -0.9786
 4817TIP3    H236011   4.097   3.977   1.508  0.7808  1.4885 -0.0446
 4818TIP3   OH236012   3.991   2.993   1.469  0.4199  0.3283  0.4544
 4818TIP3    H136013   3.911   2.977   1.519  0.4880 -1.2532  0.0924
 4818TIP3    H236014   4.049   2.920   1.490  0.8503  0.1761 -1.1062
 4819TIP3   OH236015   3.586   5.428   0.702  0.0617 -0.1021 -0.2786
 4819TIP3    H136016   3.548   5.507   0.740 -1.2787 -0.7165 -0.2879
 4819TIP3    H236017   3.642   5.393   0.772  2.9730  2.2937 -1.2102
 4820TIP3   OH236018   1.391   3.361   7.911  0.6450  0.4008  0.3440
 4820TIP3    H136019   1.390   3.333   7.820  0.3726 -0.1381  0.5095
 4820TIP3    H236020   1.339   3.441   7.912 -0.4817 -0.3068  0.2454
 4821TIP3   OH236021   6.845   1.999   1.754  0.4539 -0.2516  0.3206
 4821TIP3    H136022   6.879   2.063   1.692  1.5484 -0.3610  0.7840
 4821TIP3    H236023   6.891   1.918   1.733 -1.0306 -0.9558 -0.3592
 4822TIP3   OH236024   3.960   6.642   2.368 -0.1820  0.1146 -0.0166
 4822TIP3    H136025   4.005   6.582   2.309  0.0410  0.5600 -0.3025
 4822TIP3    H236026   4.028   6.670   2.429 -0.7120 -1.4535  1.3794
 4823TIP3   OH236027   0.902   1.558   1.668 -0.3587 -0.0573 -0.3069
 4823TIP3    H136028   0.862   1.479   1.632 -0.0582 -0.5687  0.4508
 4823TIP3    H236029   0.917   1.537   1.760  1.1524  0.3113 -0.4520
 4824TIP3   OH236030   5.619   1.247   6.102  0.5994 -0.0036 -0.1240
 4824TIP3    H136031   5.698   1.270   6.151  1.9186 -0.3168 -1.9974
 4824TIP3    H236032   5.595   1.327   6.055  0.1581 -0.0803 -0.0313
 4825TIP3   OH236033   6.253   2.700   7.571  0.1288 -0.3347  0.1496
 4825TIP3    H136034   6.196   2.745   7.509 -0.2743 -2.0234 -0.7647
 4825TIP3    H236035   6.209   2.616   7.588  1.1468 -0.6689  1.3078
 4826TIP3   OH236036   6.182   5.995   1.959  0.1314  0.1558 -0.3127
 4826TIP3    H136037   6.250   6.052   1.994 -0.6358  1.4093 -0.8107
 4826TIP3    H236038   6.179   6.015   1.865 -0.1940 -0.6635 -0.4897
 4827TIP3   OH236039   5.943   6.535   7.772 -0.2243 -0.0700  0.5819
 4827TIP3    H136040   5.985   6.621   7.774  2.2355 -1.1833 -0.0199
 4827TIP3    H236041   5.994   6.481   7.831 -1.6247 -1.2131  0.8155
 4828TIP3   OH236042   4.951   6.796   1.296  0.5764  0.5788 -0.0027
 4828TIP3    H136043   4.918   6.706   1.302 -0.4077  0.9388  0.2265
 4828TIP3    H236044   4.896   6.846   1.357  0.0915  1.6157 -1.2320
 4829TIP3   OH236045   5.290   0.943   2.840  0.0803  0.3290 -0.1270
 4829TIP3    H136046   5.268   0.851   2.823  0.1908  0.5887 -1.9481
 4829TIP3    H236047   5.373   0.957   2.796 -0.9626  1.8074 -1.7942
 4830TIP3   OH236048   3.794   2.719   0.686 -0.2169  0.5732 -0.1608
 4830TIP3    H136049   3.848   2.707   0.608  0.5984  0.5768  0.3887
 4830TIP3    H236050   3.732   2.789   0.661  0.9557  1.5772 -0.3470
 4831TIP3   OH236051   4.686   0.798   1.500 -0.1487 -0.1126  0.1452
 4831TIP3    H136052   4.597   0.827   1.520 -1.0737 -2.9598  0.7288
 4831TIP3    H236053   4.734   0.810   1.582  0.5444  2.8612 -0.5815
 4832TIP3   OH236054   2.607   0.684   0.466 -0.4668 -0.5553 -0.6538
 4832TIP3    H136055   2.700   0.702   0.456 -0.3392  0.2722  1.4829
 4832TIP3    H236056   2.600   0.588   0.458  0.7542 -0.7448  0.2423
 4833TIP3   OH236057   6.091   5.751   6.323 -0.1732 -0.3293 -0.3466
 4833TIP3    H136058   6.140   5.677   6.286 -0.2646 -0.2451 -0.6457
 4833TIP3    H236059   6.157   5.817   6.341  0.0245 -0.8222  0.7778
 4834TIP3   OH236060   0.220   0.865   1.754  0.0919  0.0973  0.4454
 4834TIP3    H136061   0.257   0.777   1.757  0.4221  0.2621  1.3476
 4834TIP3    H236062   0.273   0.911   1.689 -0.6093 -0.5932 -0.6462
 4835TIP3   OH236063   0.557   6.322   0.401 -0.3150  0.6991 -0.0638
 4835TIP3    H136064   0.541   6.285   0.314 -1.5565 -0.8130  0.7630
 4835TIP3    H236065   0.623   6.265   0.440 -1.6033 -0.1882  0.8965
 4836TIP3   OH236066   6.198   2.698   0.791 -0.6319 -0.3753 -0.3425
 4836TIP3    H136067   6.289   2.724   0.776 -0.5101 -1.1814 -1.0342
 4836TIP3    H236068   6.167   2.758   0.859 -0.0462  0.8932 -1.1607
 4837TIP3   OH236069   3.235   5.593   1.066 -0.1674 -0.0509 -0.1914
 4837TIP3    H136070   3.178   5.668   1.050 -0.9450 -0.6032 -0.0915
 4837TIP3    H236071   3.195   5.549   1.141  1.4384  0.5596  1.0777
 4838TIP3   OH236072   3.575   1.728   7.417  0.5439  0.5546 -0.2888
 4838TIP3    H136073   3.528   1.811   7.412  1.5622  1.2239  0.8444
 4838TIP3    H236074   3.659   1.745   7.375  0.1538 -0.3973 -1.5309
 4839TIP3   OH236075   7.016   1.409   0.832  0.3916  0.3438 -0.2114
 4839TIP3    H136076   7.088   1.408   0.768  0.4173 -0.5141 -0.1786
 4839TIP3    H236077   6.940   1.379   0.783  0.6218 -1.2990  0.3856
 4840TIP3   OH236078   6.259   1.891   6.907 -0.3621  0.2462 -0.4707
 4840TIP3    H136079   6.301   1.833   6.844 -1.6396  0.5846 -1.7035
 4840TIP3    H236080   6.327   1.953   6.933  0.1089  0.3003 -1.7843
 4841TIP3   OH236081   5.771   0.846   0.037  0.7105 -0.1416  0.4710
 4841TIP3    H136082   5.687   0.883   0.063 -0.7568 -1.8187 -1.5789
 4841TIP3    H236083   5.775   0.761   0.081 -0.1403 -1.3923 -1.6848
 4842TIP3   OH236084   1.425   4.124   2.185 -0.0195 -0.2379  0.3426
 4842TIP3    H136085   1.394   4.039   2.216  1.0357 -0.6259  0.3575
 4842TIP3    H236086   1.388   4.187   2.247 -0.4540 -0.7157  0.5828
 4843TIP3   OH236087   0.954   4.791   0.868  0.0342 -0.0578  0.3301
 4843TIP3    H136088   0.996   4.874   0.844  0.4732 -0.1364  0.7914
 4843TIP3    H236089   0.974   4.733   0.795  2.0185 -0.5189  1.1581
 4844TIP3   OH236090   0.352   4.524   0.931 -0.0230  0.5411  0.0699
 4844TIP3    H136091   0.365   4.601   0.986 -0.2153  0.7189 -0.1346
 4844TIP3    H236092   0.258   4.523   0.912  0.1220  0.7658 -0.6735
 4845TIP3   OH236093   4.678   2.471   1.302  0.0477 -0.1105 -0.6657
 4845TIP3    H136094   4.706   2.555   1.265  0.9604 -0.4545 -0.7746
 4845TIP3    H236095   4.726   2.405   1.252 -0.0381 -0.6697 -0.0332
 4846TIP3   OH236096   6.004   0.424   0.511 -0.2013  0.0043 -0.0311
 4846TIP3    H136097   5.950   0.347   0.495  1.5716 -1.0184 -1.4653
 4846TIP3    H236098   5.970   0.460   0.593 -1.5724 -1.8549  0.2950
 4847TIP3   OH236099   3.807   3.051   1.254  0.2249 -0.3691  0.1000
 4847TIP3    H136100   3.866   3.001   1.309 -1.5902 -1.9439  0.7393
 4847TIP3    H236101   3.813   3.140   1.288  2.0255 -0.5146  0.2654
 4848TIP3   OH236102   4.236   3.722   0.851 -0.0866  0.0869  0.0684
 4848TIP3    H136103   4.242   3.632   0.883 -0.1631  0.0114 -0.1279
 4848TIP3    H236104   4.271   3.776   0.922 -0.2417 -0.0822  0.2724
 4849TIP3   OH236105   5.488   4.934   7.532  0.3507 -0.1685 -0.4718
 4849TIP3    H136106   5.488   5.029   7.518  2.2186  0.0908  0.9282
 4849TIP3    H236107   5.566   4.903   7.486  0.0478 -0.9566 -0.4658
 4850TIP3   OH236108   0.648   6.755   0.731 -0.5163 -0.1127  0.3370
 4850TIP3    H136109   0.716   6.779   0.794 -0.4925 -1.7814  1.0229
 4850TIP3    H236110   0.638   6.660   0.743 -1.2259 -0.3018 -1.4939
 4851TIP3   OH236111   3.697   1.876   0.147  0.0672  0.2576 -0.0402
 4851TIP3    H136112   3.752   1.813   0.195 -0.5732  0.6136  1.2132
 4851TIP3    H236113   3.679   1.945   0.211  0.1972  1.3947 -1.1841
 4852TIP3   OH236114   6.106   5.859   7.906 -0.3953  0.5772 -0.6005
 4852TIP3    H136115   6.011   5.851   7.906 -0.2694 -1.5356 -0.9764
 4852TIP3    H236116   6.125   5.923   7.838 -1.5260  0.6103 -0.9095
 4853TIP3   OH236117   0.717   3.123   6.814 -0.2572  0.0581 -0.3908
 4853TIP3    H136118   0.701   3.030   6.800 -3.8354  0.4211  0.3439
 4853TIP3    H236119   0.739   3.157   6.728 -3.3485 -0.8150 -1.6420
 4854TIP3   OH236120   2.618   3.835   1.873  0.6316  0.3928  0.1559
 4854TIP3    H136121   2.540   3.799   1.832  0.4000  0.2234  0.7390
 4854TIP3    H236122   2.688   3.819   1.809  0.5022 -0.9295  0.3196
 4855TIP3   OH236123   1.632   4.355   0.680  0.1147  0.3635  0.4390
 4855TIP3    H136124   1.721   4.390   0.677  0.0868  0.4435  0.5351
 4855TIP3    H236125   1.595   4.389   0.762 -0.1248  0.6270  0.2241
 4856TIP3   OH236126   2.102   1.834   6.909 -0.0884  0.2122 -0.0890
 4856TIP3    H136127   2.136   1.809   6.823 -0.9400 -0.7937 -0.1545
 4856TIP3    H236128   2.007   1.837   6.897 -0.1116  2.2948  0.2641
 4857TIP3   OH236129   1.361   0.449   6.496 -0.1654 -0.5773 -0.1172
 4857TIP3    H136130   1.402   0.536   6.488 -0.0225 -0.6161  0.1692
 4857TIP3    H236131   1.268   0.468   6.508 -0.3398 -0.5126 -1.5014
 4858TIP3   OH236132   7.141   6.508   7.713 -0.0507  0.1203 -0.1641
 4858TIP3    H136133   7.084   6.585   7.716  0.4830  0.4896  1.2037
 4858TIP3    H236134   7.124   6.469   7.627 -1.6071  0.7918 -0.1937
 4859TIP3   OH236135   0.205   6.595   7.117  0.3562  0.3835 -0.4317
 4859TIP3    H136136   0.258   6.529   7.071  0.4529  0.4802 -0.4602
 4859TIP3    H236137   0.154   6.637   7.048  0.2105  0.2617 -0.3983
 4860TIP3   OH236138   0.877   1.973   0.439 -0.2087  0.1162 -0.4112
 4860TIP3    H136139   0.949   2.025   0.403  0.1787  0.5305  0.9037
 4860TIP3    H236140   0.908   1.882   0.435 -0.1524  0.1637 -1.0566
 4861TIP3   OH236141   3.196   0.901   6.463  0.2945 -0.0365  0.3654
 4861TIP3    H136142   3.260   0.938   6.402  0.9946 -0.9832  0.4989
 4861TIP3    H236143   3.190   0.809   6.438  0.9025 -0.5403  1.9689
 4862TIP3   OH236144   2.409   4.778   7.173 -0.3095  0.2359  0.6577
 4862TIP3    H136145   2.352   4.728   7.231 -0.1517  1.4449  1.9189
 4862TIP3    H236146   2.359   4.788   7.092  0.2495 -3.1781 -0.2466
 4863TIP3   OH236147   1.439   4.966   1.191  0.3103 -0.7708  0.3049
 4863TIP3    H136148   1.348   4.996   1.193  0.4763 -0.2548  1.1253
 4863TIP3    H236149   1.468   4.983   1.102 -0.4436 -1.0906 -0.0103
 4864TIP3   OH236150   3.626   0.803   0.184  0.3862 -0.4893  0.6688
 4864TIP3    H136151   3.690   0.872   0.198 -0.2132  0.3096 -0.3775
 4864TIP3    H236152   3.678   0.723   0.172  1.1478  0.0339  0.4638
 4865TIP3   OH236153   6.666   0.065   7.869 -0.3641  0.3598  0.2071
 4865TIP3    H136154   6.610   0.100   7.800 -1.7990  1.4826  1.8647
 4865TIP3    H236155   6.613  -0.001   7.913  0.1108  0.4760  0.9703
 4866TIP3   OH236156   3.960   4.975   7.976 -0.4533  0.3299  0.3583
 4866TIP3    H136157   4.016   5.024   8.036 -1.6075  0.7433  1.1119
 4866TIP3    H236158   3.874   5.014   7.985 -0.9243 -0.4329 -0.6387
 4867TIP3   OH236159   6.346   6.298   6.948  0.1238  0.0241 -0.0757
 4867TIP3    H136160   6.352   6.327   7.039  0.5576  1.2609 -0.4896
 4867TIP3    H236161   6.319   6.375   6.899  0.3257 -0.5178 -1.0711
 4868TIP3   OH236162   6.603   1.177   6.303  0.4279  0.1323  0.1231
 4868TIP3    H136163   6.527   1.212   6.350 -0.0180  1.0298 -1.2153
 4868TIP3    H236164   6.673   1.241   6.320  0.3582  0.2854 -0.1634
 4869TIP3   OH236165   2.958   2.749   7.090  0.5424 -0.0149  0.2697
 4869TIP3    H136166   2.907   2.792   7.022  0.7956  0.7591  0.5585
 4869TIP3    H236167   3.000   2.676   7.046  1.3184  0.9278 -0.5957
 4870TIP3   OH236168   5.775   3.803   7.191 -0.3096 -0.7612  0.6036
 4870TIP3    H136169   5.749   3.788   7.282 -1.9800  0.0626  0.3050
 4870TIP3    H236170   5.692   3.808   7.143  0.5640 -2.2278 -1.1675
 4871TIP3   OH236171   0.541   3.770   2.585 -0.0118  0.1230 -0.2241
 4871TIP3    H136172   0.544   3.699   2.650  1.1457  0.6968  0.3814
 4871TIP3    H236173   0.449   3.776   2.562 -0.1569 -1.5177 -0.2324
 4872TIP3   OH236174   0.596   0.277   2.715 -0.2547 -0.1311 -1.3073
 4872TIP3    H136175   0.564   0.192   2.745 -0.2631  0.2747 -0.1336
 4872TIP3    H236176   0.519   0.334   2.716 -0.0478  0.1491 -1.1021
 4873TIP3   OH236177   3.333   0.219   1.929 -0.2960  0.0123 -0.8097
 4873TIP3    H136178   3.244   0.242   1.904 -0.5904  1.8071  1.5021
 4873TIP3    H236179   3.388   0.273   1.873 -0.6166 -0.9658 -2.1178
 4874TIP3   OH236180   2.561   4.964   6.522  0.3903  0.1203  0.0983
 4874TIP3    H136181   2.592   4.897   6.582  1.4038 -0.2910 -0.8674
 4874TIP3    H236182   2.639   5.013   6.497  0.3391 -0.9664 -2.4198
 4875TIP3   OH236183   5.798   1.048   0.352 -0.1892  0.3747  0.4100
 4875TIP3    H136184   5.863   1.116   0.333 -0.0736  0.4713  1.1338
 4875TIP3    H236185   5.754   1.033   0.268  1.5677 -0.5598 -0.4065
 4876TIP3   OH236186   2.103   5.337   7.473 -0.4412  0.1328  0.1475
 4876TIP3    H136187   2.161   5.286   7.417 -0.0689 -0.2475  0.8721
 4876TIP3    H236188   2.159   5.404   7.511 -0.2283 -0.8882  1.6809
 4877TIP3   OH236189   2.503   4.389   1.848  0.3055  0.2863  0.3755
 4877TIP3    H136190   2.595   4.416   1.836  0.5791 -0.1241  1.4268
 4877TIP3    H236191   2.506   4.293   1.846  0.2466  0.1918  2.5198
 4878TIP3   OH236192   5.261   3.256   1.901  0.5038  0.4103 -0.2425
 4878TIP3    H136193   5.200   3.190   1.868 -0.1864  0.0075  1.7192
 4878TIP3    H236194   5.228   3.339   1.866 -1.7855  0.3269  1.4413
 4879TIP3   OH236195   4.567   0.106   6.393 -0.1693 -0.2323 -0.0946
 4879TIP3    H136196   4.574   0.021   6.435  1.9644 -0.1213 -0.0869
 4879TIP3    H236197   4.597   0.168   6.460  1.1699  0.1717 -1.0126
 4880TIP3   OH236198   4.628   1.640   7.669  0.0357  0.6281 -0.3124
 4880TIP3    H136199   4.616   1.684   7.585 -1.9065 -2.0584 -1.5993
 4880TIP3    H236200   4.700   1.579   7.654 -0.7733 -0.3638 -0.3300
 4881TIP3   OH236201   0.041   6.215   7.736 -0.9303  0.2383 -0.0026
 4881TIP3    H136202   0.123   6.202   7.783 -0.5524 -0.5410 -0.8489
 4881TIP3    H236203   0.034   6.310   7.726  0.9874  0.2781 -1.7803
 4882TIP3   OH236204   2.464   5.290   1.322  0.1570  1.2661 -0.1198
 4882TIP3    H136205   2.539   5.349   1.317  1.2839  0.0686  1.5284
 4882TIP3    H236206   2.466   5.257   1.412 -2.5377  1.4053  0.0678
 4883TIP3   OH236207   2.095   4.842   7.270 -0.3542  0.0467  0.1154
 4883TIP3    H136208   2.162   4.908   7.286 -0.0946 -0.2618  0.3209
 4883TIP3    H236209   2.143   4.760   7.264 -0.4429  0.0892 -2.1072
 4884TIP3   OH236210   2.287   5.416   7.974 -0.5670 -0.1650 -0.0217
 4884TIP3    H136211   2.287   5.344   8.037  0.5723  1.9311  2.5274
 4884TIP3    H236212   2.224   5.479   8.010 -0.4886  0.7670 -1.4379
 4885TIP3   OH236213   0.512   2.251   1.596 -0.2120  0.2865  0.2804
 4885TIP3    H136214   0.420   2.260   1.622 -0.1948 -2.0352  1.3953
 4885TIP3    H236215   0.562   2.272   1.674  0.1893  0.7814 -0.1018
 4886TIP3   OH236216   5.515   5.150   0.979 -0.0619  0.2500  0.6812
 4886TIP3    H136217   5.587   5.190   1.028 -0.4807  1.3457  0.4148
 4886TIP3    H236218   5.531   5.055   0.988  1.5862  0.4622  0.3700
 4887TIP3   OH236219   2.403   2.355   7.042  0.0038  0.6393 -0.0515
 4887TIP3    H136220   2.487   2.326   7.006  0.6969  0.7817  1.3956
 4887TIP3    H236221   2.343   2.355   6.966  0.9122 -0.9089 -0.8168
 4888TIP3   OH236222   2.906   2.566   0.728 -0.1810  0.5155  0.2357
 4888TIP3    H136223   2.980   2.606   0.681  0.6289 -1.0631  0.0750
 4888TIP3    H236224   2.943   2.539   0.812 -0.7980  0.4818  0.4979
 4889TIP3   OH236225   0.490   0.542   6.604 -0.3976  0.2499  0.1526
 4889TIP3    H136226   0.501   0.596   6.682  1.6541 -0.8795  0.7017
 4889TIP3    H236227   0.577   0.540   6.564 -0.9494 -0.8381 -1.0688
 4890TIP3   OH236228   6.461   0.202   6.937  0.0131  0.7438 -0.2732
 4890TIP3    H136229   6.373   0.185   6.904  0.0899  0.0660 -0.1634
 4890TIP3    H236230   6.453   0.191   7.032  1.0420 -3.8312 -0.4556
 4891TIP3   OH236231   0.283   3.724   2.043  0.1635 -0.3586  0.2564
 4891TIP3    H136232   0.223   3.794   2.070 -0.9078 -1.4359  0.7543
 4891TIP3    H236233   0.280   3.661   2.115 -0.7558 -2.0638 -1.1824
 4892TIP3   OH236234   2.888   2.225   0.214 -0.0626  0.8143 -0.0145
 4892TIP3    H136235   2.803   2.220   0.171  0.8005 -0.0493 -1.7306
 4892TIP3    H236236   2.919   2.314   0.195 -0.7914  1.3211  1.0882
 4893TIP3   OH236237   5.512   6.077   2.365  0.0767 -0.7075 -0.5722
 4893TIP3    H136238   5.600   6.040   2.375  0.5293  0.3903 -0.3872
 4893TIP3    H236239   5.487   6.104   2.453  0.7987  1.6727 -1.0163
 4894TIP3   OH236240   6.069   1.137   0.311 -0.2471 -0.2104 -0.5062
 4894TIP3    H136241   6.117   1.091   0.242 -1.3750  0.9079 -2.0880
 4894TIP3    H236242   6.125   1.212   0.333 -0.1714 -0.2233 -0.6544
 4895TIP3   OH236243   5.405   2.331   1.006  0.0433  0.0455  0.3985
 4895TIP3    H136244   5.419   2.425   1.002  1.6128 -0.1190  1.5926
 4895TIP3    H236245   5.450   2.297   0.928  0.4839  0.1620  0.6036
 4896TIP3   OH236246   2.380   4.740   1.253 -0.2607 -0.2547  0.3304
 4896TIP3    H136247   2.463   4.714   1.293  0.0931  1.2000  0.5995
 4896TIP3    H236248   2.320   4.750   1.326 -0.5618 -0.8799  0.1748
 4897TIP3   OH236249   7.114   1.766   7.694 -0.4873  0.3546 -0.3436
 4897TIP3    H136250   7.192   1.786   7.643 -0.0384 -0.7905 -0.1459
 4897TIP3    H236251   7.124   1.817   7.775  1.1903 -1.4040  0.6569
 4898TIP3   OH236252   6.712   5.114   7.439  0.0111  0.3363 -0.2550
 4898TIP3    H136253   6.775   5.051   7.474  0.8174  1.3534  0.1647
 4898TIP3    H236254   6.722   5.192   7.494  0.7899  1.7129 -2.2167
 4899TIP3   OH236255   5.695   0.103   6.331 -0.9940 -0.1994  0.2385
 4899TIP3    H136256   5.663   0.159   6.261  1.8534  1.1923 -0.0908
 4899TIP3    H236257   5.775   0.063   6.296 -0.9626 -1.6301  1.7787
 4900TIP3   OH236258   5.972   4.808   7.019  0.3689  0.3076  0.1182
 4900TIP3    H136259   5.946   4.721   6.989 -2.2599  0.4935  1.5641
 4900TIP3    H236260   6.034   4.791   7.090 -0.4576 -0.4088  0.6787
 4901TIP3   OH236261   4.395   0.223   7.883  0.3531  0.5694 -0.1336
 4901TIP3    H136262   4.416   0.316   7.886  0.9342  0.4538 -0.4236
 4901TIP3    H236263   4.300   0.219   7.893  0.3841  1.1578  0.4042
 4902TIP3   OH236264   4.999   1.979   1.057  0.4500 -0.0963 -0.8543
 4902TIP3    H136265   5.076   2.036   1.063  0.8108 -0.5866 -0.7393
 4902TIP3    H236266   5.011   1.916   1.128 -0.2563  0.0496 -0.5911
 4903TIP3   OH236267   5.460   1.548   0.431 -0.5562 -0.3373  0.1721
 4903TIP3    H136268   5.392   1.528   0.367 -0.2183 -0.3339 -0.1941
 4903TIP3    H236269   5.531   1.486   0.411  0.2468  0.7774 -0.5723
 4904TIP3   OH236270   4.665   2.257   1.448  0.1207  0.6422  0.4132
 4904TIP3    H136271   4.660   2.252   1.543 -0.4558  1.5145  0.4391
 4904TIP3    H236272   4.644   2.348   1.427  1.1378  0.6912 -0.5031
 4905TIP3   OH236273   4.594   5.110   1.188 -0.4776 -0.0601  0.0047
 4905TIP3    H136274   4.547   5.168   1.248 -0.4762 -1.6335  1.6496
 4905TIP3    H236275   4.536   5.102   1.112 -0.6107  1.7861 -0.1172
 4906TIP3   OH236276   2.658   2.633   1.717 -0.3173  0.5078 -0.0136
 4906TIP3    H136277   2.567   2.649   1.743 -0.0342 -0.0731  1.4582
 4906TIP3    H236278   2.706   2.708   1.751 -0.1118  0.3702 -0.0005
 4907TIP3   OH236279   1.650   6.223   0.596 -0.4111 -0.3681  0.9020
 4907TIP3    H136280   1.680   6.136   0.570 -2.0404 -0.6415 -0.2222
 4907TIP3    H236281   1.560   6.210   0.623 -0.4901  0.8861  1.2955
 4908TIP3   OH236282   0.318   3.258   6.377  0.1735  0.0325 -0.1106
 4908TIP3    H136283   0.351   3.172   6.404 -0.1774  0.1022  0.5655
 4908TIP3    H236284   0.314   3.309   6.458 -1.3867  0.0890 -0.1877
 4909TIP3   OH236285   4.817   2.940   6.887 -0.1059  0.6146 -0.3808
 4909TIP3    H136286   4.864   2.927   6.969  0.6458  1.5785 -0.6326
 4909TIP3    H236287   4.747   3.002   6.909  1.6005  2.8774 -0.9112
 4910TIP3   OH236288   1.561   6.719   0.737  0.2430  0.1356 -0.7877
 4910TIP3    H136289   1.476   6.762   0.728  0.1335 -0.0443 -0.6226
 4910TIP3    H236290   1.565   6.693   0.829  0.6618  0.5278 -0.6918
 4911TIP3   OH236291   1.682   6.801   0.523  0.0314 -0.3675 -0.0781
 4911TIP3    H136292   1.636   6.754   0.591 -0.2117  0.5027  0.3789
 4911TIP3    H236293   1.661   6.893   0.539  0.3398 -0.1109 -1.0487
 4912TIP3   OH236294   0.745   3.441   7.086 -0.0732 -0.2605 -0.1302
 4912TIP3    H136295   0.738   3.347   7.102 -0.2242  0.0254  1.6949
 4912TIP3    H236296   0.680   3.480   7.145  0.6662  1.0492 -0.1480
 4913TIP3   OH236297   6.024   4.498   0.248  0.1516  0.3491 -0.6273
 4913TIP3    H136298   6.106   4.475   0.206 -0.0125  2.4482 -2.2649
 4913TIP3    H236299   6.048   4.514   0.339  0.5485 -4.0944  0.2931
 4914TIP3   OH236300   3.515   2.198   6.803 -0.1912  0.4632 -0.3199
 4914TIP3    H136301   3.598   2.234   6.834 -0.2411 -1.2030  2.0039
 4914TIP3    H236302   3.477   2.267   6.750  3.1687  0.9080 -2.4744
 4915TIP3   OH236303   6.952   6.961   7.624 -0.6347 -0.4866  0.5037
 4915TIP3    H136304   7.014   6.888   7.634  0.4697  0.5824  1.8965
 4915TIP3    H236305   6.909   6.966   7.709 -0.0434  1.0381  0.7381
 4916TIP3   OH236306   2.747   3.890   0.532 -0.0287 -0.2958 -0.1585
 4916TIP3    H136307   2.699   3.811   0.558 -1.3562  0.8997  1.2426
 4916TIP3    H236308   2.693   3.930   0.465  0.2954 -0.2162 -0.3738
 4917TIP3   OH236309   3.720   6.295   0.604  0.1303  0.0330 -0.1649
 4917TIP3    H136310   3.742   6.389   0.605  0.9035 -0.1375 -0.3280
 4917TIP3    H236311   3.772   6.259   0.532  1.1202 -0.8193  0.9401
 4918TIP3   OH236312   3.357   1.696   2.906  0.4969  0.0337 -0.7840
 4918TIP3    H136313   3.404   1.635   2.849 -2.2493  0.2029 -3.4825
 4918TIP3    H236314   3.286   1.730   2.851 -1.2139  1.7210  2.2232
 4919TIP3   OH236315   1.636   5.591   0.878  0.0752  0.3370  0.3530
 4919TIP3    H136316   1.724   5.604   0.842  0.0392 -0.9527 -0.2768
 4919TIP3    H236317   1.646   5.603   0.972  0.7073  1.2139  0.1832
 4920TIP3   OH236318   3.771   1.932   7.916  0.1075  0.0788 -0.6507
 4920TIP3    H136319   3.765   1.901   8.006  0.5129 -1.2360 -1.0670
 4920TIP3    H236320   3.738   2.022   7.920  1.5224  0.5846  1.0819
 4921TIP3   OH236321   5.736   2.311   0.829 -0.0490  0.2365  0.5865
 4921TIP3    H136322   5.663   2.333   0.771 -1.1673 -0.6186  1.6135
 4921TIP3    H236323   5.743   2.215   0.824 -0.1056  0.1610  1.7735
 4922TIP3   OH236324   2.782   4.995   7.853 -0.1722 -0.0279  0.1437
 4922TIP3    H136325   2.799   5.088   7.837  0.0477  0.2458  1.7669
 4922TIP3    H236326   2.688   4.992   7.873 -0.8988 -0.6494 -2.8611
 4923TIP3   OH236327   1.759   6.586   1.253  0.2428 -0.1353 -0.7564
 4923TIP3    H136328   1.677   6.591   1.204  0.0405 -0.8495 -0.5092
 4923TIP3    H236329   1.734   6.543   1.335  0.8792 -0.4272 -0.7144
 4924TIP3   OH236330   6.885   3.366   7.638 -0.4680  0.0117 -0.0154
 4924TIP3    H136331   6.901   3.332   7.726  1.0664  1.0774  0.1602
 4924TIP3    H236332   6.947   3.319   7.582  0.3304  1.1234 -0.0870
 4925TIP3   OH236333   0.361   4.885   6.643 -0.5230  0.3476 -0.2323
 4925TIP3    H136334   0.370   4.790   6.640  0.5223  0.4474 -1.8979
 4925TIP3    H236335   0.267   4.901   6.648 -0.8672 -0.8039 -1.9415
 4926TIP3   OH236336   2.170   4.429   7.056 -0.2572 -0.1898  1.0145
 4926TIP3    H136337   2.103   4.484   7.014  0.2165 -0.1532  0.2981
 4926TIP3    H236338   2.152   4.341   7.024  1.1580  0.0892 -0.6663
 4927TIP3   OH236339   5.230   0.441   7.051  0.0333 -0.4345 -0.6759
 4927TIP3    H136340   5.305   0.387   7.078 -1.5434 -2.2403  0.3648
 4927TIP3    H236341   5.157   0.407   7.102 -1.0942  2.7994  0.1024
 4928TIP3   OH236342   6.599   6.411   7.457 -0.0918 -0.9975 -0.5343
 4928TIP3    H136343   6.584   6.405   7.363 -1.7572 -3.2869 -0.2314
 4928TIP3    H236344   6.524   6.460   7.491  0.7819  0.3011 -0.4202
 4929TIP3   OH236345   0.306   7.051   0.538  0.0049  0.0046 -0.2516
 4929TIP3    H136346   0.396   7.057   0.506 -0.5360  1.7206 -1.6585
 4929TIP3    H236347   0.283   6.959   0.528  1.6424 -0.4894  0.2962
 4930TIP3   OH236348   5.353   6.656   1.086  0.1655  0.3383  0.3663
 4930TIP3    H136349   5.324   6.645   0.996  0.8326 -0.5675  0.2491
 4930TIP3    H236350   5.290   6.606   1.138 -0.7663  1.6285  0.5084
 4931TIP3   OH236351   0.718   0.323   0.870 -0.4277  0.1412 -0.1737
 4931TIP3    H136352   0.783   0.372   0.820  0.3706  0.1076  0.7983
 4931TIP3    H236353   0.762   0.302   0.953 -1.8585  0.6530  0.7682
 4932TIP3   OH236354   5.133   0.775   0.299 -0.2120 -0.0159 -0.1266
 4932TIP3    H136355   5.055   0.830   0.307  0.2582  0.9443 -1.6382
 4932TIP3    H236356   5.158   0.783   0.207  2.2172  0.4925  0.5043
 4933TIP3   OH236357   7.042   3.172   1.922  0.2330 -0.1044 -0.0495
 4933TIP3    H136358   6.969   3.118   1.955 -0.9105  1.3203 -0.1339
 4933TIP3    H236359   7.119   3.137   1.967  0.0780 -3.5928 -2.0790
 4934TIP3   OH236360   6.446   2.745   0.976 -0.2855  0.6344 -0.1885
 4934TIP3    H136361   6.463   2.656   1.007  1.0868  0.6465 -0.8081
 4934TIP3    H236362   6.466   2.801   1.050 -1.5387  0.4292  0.3319
 4935TIP3   OH236363   6.827   5.506   0.141 -0.2670 -0.0857  0.9730
 4935TIP3    H136364   6.746   5.472   0.105 -2.2519  0.4678  4.4935
 4935TIP3    H236365   6.885   5.430   0.145 -0.8807 -0.6949 -0.7193
 4936TIP3   OH236366   6.848   4.499   7.792  0.3614 -0.0105 -0.5563
 4936TIP3    H136367   6.788   4.424   7.788  0.7804 -0.5458  1.6284
 4936TIP3    H236368   6.833   4.537   7.878  1.3438  1.4285 -0.9804
 4937TIP3   OH236369   0.074   5.486   6.740 -0.1979 -0.6035 -0.1779
 4937TIP3    H136370   0.156   5.515   6.701 -2.3590 -0.6534 -5.5325
 4937TIP3    H236371   0.090   5.395   6.766  1.8248 -0.0726  0.6263
 4938TIP3   OH236372   2.133   3.961   2.242  0.4574  0.4846  0.5632
 4938TIP3    H136373   2.189   3.960   2.164 -0.5748  0.0591 -0.1859
 4938TIP3    H236374   2.057   4.013   2.216  0.2142  0.5365  1.3695
 4939TIP3   OH236375   2.984   2.478   1.999  0.2538  0.6406 -0.1414
 4939TIP3    H136376   3.054   2.445   2.054 -1.7881 -0.1137  2.1818
 4939TIP3    H236377   2.964   2.565   2.034  1.4177  1.8142 -2.2070
 4940TIP3   OH236378   2.328   3.815   1.038 -0.3416  0.1934 -0.0577
 4940TIP3    H136379   2.313   3.896   1.087 -1.1798  0.5759 -0.9270
 4940TIP3    H236380   2.324   3.841   0.946  1.4601 -0.4758 -0.3596
 4941TIP3   OH236381   0.794   3.778   6.990  0.0007 -0.1111 -0.6778
 4941TIP3    H136382   0.749   3.698   6.961  0.1530  0.5582 -2.9273
 4941TIP3    H236383   0.731   3.821   7.048 -1.1199 -0.6226 -1.4762
 4942TIP3   OH236384   5.864   5.617   2.571 -0.0275  0.4372  0.3616
 4942TIP3    H136385   5.871   5.711   2.589  0.3784  0.4964 -0.0853
 4942TIP3    H236386   5.779   5.606   2.529  0.1819  0.6920 -0.1279
 4943TIP3   OH236387   5.032   5.111   7.141  0.4854 -0.2921  0.8928
 4943TIP3    H136388   5.091   5.173   7.099 -0.2032  2.2203  3.3394
 4943TIP3    H236389   5.072   5.092   7.225 -0.5871 -1.1360  1.2440
 4944TIP3   OH236390   5.096   0.768   2.493  0.6218 -0.1051 -0.2277
 4944TIP3    H136391   5.074   0.723   2.412  0.9171 -0.9442  0.1462
 4944TIP3    H236392   5.060   0.856   2.482 -0.6166 -0.6424 -0.6800
 4945TIP3   OH236393   4.996   2.093   2.318 -0.2475 -0.2427 -0.0456
 4945TIP3    H136394   5.019   2.106   2.410 -0.4668  1.1775 -0.1544
 4945TIP3    H236395   5.069   2.132   2.270 -0.2703 -0.7198 -0.4698
 4946TIP3   OH236396   3.663   3.455   2.847 -0.0733  0.1165 -0.4045
 4946TIP3    H136397   3.657   3.527   2.786 -0.3715  0.9321  0.5559
 4946TIP3    H236398   3.732   3.398   2.812  1.7773  2.0109  0.0072
 4947TIP3   OH236399   0.425   4.183   1.903 -0.2631 -0.0107 -0.0072
 4947TIP3    H136400   0.460   4.234   1.830  0.3246  0.8987  0.8839
 4947TIP3    H236401   0.501   4.163   1.958 -0.8206  0.1232  0.8363
 4948TIP3   OH236402   6.758   4.407   0.972 -0.1522  0.0778 -0.0083
 4948TIP3    H136403   6.750   4.410   0.876 -0.5043 -2.0192 -0.0744
 4948TIP3    H236404   6.791   4.320   0.991  0.4483  0.6477  1.7766
 4949TIP3   OH236405   1.126   5.562   0.225  0.2979  0.3987  0.2421
 4949TIP3    H136406   1.169   5.637   0.267  1.0495 -0.2795  0.7132
 4949TIP3    H236407   1.051   5.543   0.282  0.4783  0.3881  0.4787
 4950TIP3   OH236408   0.381   1.879   5.993 -0.4041  0.2787 -0.6258
 4950TIP3    H136409   0.289   1.885   6.015 -0.3024  1.1335 -0.4008
 4950TIP3    H236410   0.422   1.837   6.068 -0.3307  1.5928  0.0980
 4951TIP3   OH236411   2.433   6.323   1.576  0.1972 -0.3816 -0.1299
 4951TIP3    H136412   2.424   6.325   1.671 -1.0111 -0.7073 -0.2127
 4951TIP3    H236413   2.344   6.307   1.544  0.4249  0.6238 -1.3520
 4952TIP3   OH236414   5.501   0.596   7.910 -0.0984 -0.1370  0.1112
 4952TIP3    H136415   5.477   0.541   7.984  0.2548 -0.1850  0.1925
 4952TIP3    H236416   5.594   0.578   7.896 -0.2211 -0.3131 -0.5007
 4953TIP3   OH236417   5.879   3.284   6.283  0.0476 -0.0380 -0.5627
 4953TIP3    H136418   5.903   3.206   6.233 -2.1648 -0.5325 -0.9405
 4953TIP3    H236419   5.833   3.249   6.360  0.3963  0.8579  0.0709
 4954TIP3   OH236420   2.392   0.907   7.931 -0.8029  0.3532  0.1078
 4954TIP3    H136421   2.441   0.978   7.972 -1.7170  0.9678  0.1613
 4954TIP3    H236422   2.301   0.923   7.956 -1.2351  0.1175 -1.2661
 4955TIP3   OH236423   6.859   2.868   7.368  0.2180  0.0366 -0.4233
 4955TIP3    H136424   6.941   2.826   7.394  0.4178  0.7259  0.0864
 4955TIP3    H236425   6.796   2.842   7.435 -0.1035 -0.8513 -1.0533
 4956TIP3   OH236426   2.943   4.100   0.322  0.2062 -0.2656  0.2612
 4956TIP3    H136427   2.921   4.193   0.314  0.1202 -0.2583  0.5869
 4956TIP3    H236428   2.859   4.055   0.322  0.2523 -0.3553 -0.0196
 4957TIP3   OH236429   1.298   3.807   7.221 -0.9617  0.6842 -0.1280
 4957TIP3    H136430   1.386   3.772   7.237 -1.1538 -0.6528 -1.6955
 4957TIP3    H236431   1.240   3.751   7.272 -0.9993  0.7545 -0.0935
 4958TIP3   OH236432   6.952   0.088   1.890 -0.7748  0.1579  0.0663
 4958TIP3    H136433   6.874   0.056   1.935  0.6158 -1.2088  1.6210
 4958TIP3    H236434   6.985   0.012   1.842  0.5270  0.2186  0.8153
 4959TIP3   OH236435   2.837   1.609   1.662 -0.3910 -0.3312  0.1867
 4959TIP3    H136436   2.884   1.689   1.683  2.1471 -1.7560  0.3254
 4959TIP3    H236437   2.828   1.610   1.567 -1.7636  0.7797  0.2911
 4960TIP3   OH236438   2.346   1.709   6.365  0.9816 -0.2316 -0.6516
 4960TIP3    H136439   2.421   1.655   6.337  0.3506 -0.8352 -1.2075
 4960TIP3    H236440   2.380   1.759   6.439  1.5663 -1.4796 -0.0421
 4961TIP3   OH236441   4.012   5.644   1.417  0.3315 -0.2538 -1.2090
 4961TIP3    H136442   3.949   5.646   1.346  0.2274 -2.0205 -1.2106
 4961TIP3    H236443   4.095   5.668   1.376 -0.0262  0.4132 -1.5566
 4962TIP3   OH236444   3.895   4.715   7.147 -0.2483 -0.0593  0.3296
 4962TIP3    H136445   3.838   4.760   7.210 -0.5081 -0.8589  0.6826
 4962TIP3    H236446   3.856   4.732   7.062 -0.0760  0.7667  0.4042
 4963TIP3   OH236447   0.309   6.762   0.831 -0.3121  0.4506  1.0864
 4963TIP3    H136448   0.310   6.730   0.921  1.4486 -0.0225  0.9310
 4963TIP3    H236449   0.352   6.848   0.835 -2.7756  1.7918  1.0996
 4964TIP3   OH236450   3.121   6.783   7.650  0.0636  0.0199 -0.0876
 4964TIP3    H136451   3.186   6.713   7.643  0.7759  0.5873  0.7517
 4964TIP3    H236452   3.037   6.737   7.652  0.6072 -1.2182  4.4384
 4965TIP3   OH236453   0.294   4.074   7.305 -0.4422 -0.0107  0.3505
 4965TIP3    H136454   0.349   4.080   7.383  0.7419 -0.8674 -0.3799
 4965TIP3    H236455   0.213   4.119   7.329 -0.3855 -0.8654  2.2957
 4966TIP3   OH236456   0.357   1.687   0.470  0.2912  0.1256 -0.1356
 4966TIP3    H136457   0.324   1.724   0.388  0.4122 -0.9025 -0.6696
 4966TIP3    H236458   0.411   1.756   0.508  1.2875  0.1708 -1.5691
 4967TIP3   OH236459   4.253   3.867   0.623  0.7556  0.8079  0.2705
 4967TIP3    H136460   4.248   3.799   0.690 -1.0762  0.3591 -0.2574
 4967TIP3    H236461   4.202   3.940   0.658  1.2531  1.2475  0.0959
 4968TIP3   OH236462   3.402   3.334   0.260 -0.2429  0.2547 -0.5387
 4968TIP3    H136463   3.358   3.403   0.210 -0.1819  2.1523  1.8484
 4968TIP3    H236464   3.451   3.381   0.328  1.1901 -2.0789  0.1579
 4969TIP3   OH236465   4.133   5.990   1.283  0.7314  0.0524  0.1621
 4969TIP3    H136466   4.158   6.081   1.274  2.7082 -0.4365  0.1689
 4969TIP3    H236467   4.119   5.979   1.377 -0.4059  0.5377  0.0621
 4970TIP3   OH236468   0.727   5.921   7.241 -0.4016  0.9438 -0.0916
 4970TIP3    H136469   0.736   6.000   7.295  1.4217  0.8809 -0.2121
 4970TIP3    H236470   0.799   5.929   7.178  0.7777 -1.5216  0.8371
 4971TIP3   OH236471   4.154   0.545   7.267  0.1437  0.2109 -0.4150
 4971TIP3    H136472   4.125   0.602   7.195  1.8897  0.9792 -0.5527
 4971TIP3    H236473   4.223   0.491   7.228 -1.0149 -1.5667 -0.0969
 4972TIP3   OH236474   2.595   0.855   1.219 -0.1982 -0.1832  0.1122
 4972TIP3    H136475   2.508   0.894   1.221 -0.1022 -0.0145  1.6318
 4972TIP3    H236476   2.580   0.761   1.229 -0.1685 -0.0560  1.5354
 4973TIP3   OH236477   0.393   5.079   7.163  0.2000 -0.2133  0.2186
 4973TIP3    H136478   0.327   5.052   7.227  0.2562  0.5323  0.6128
 4973TIP3    H236479   0.363   5.043   7.080  0.2949 -1.4690  0.7169
 4974TIP3   OH236480   2.633   4.028   0.921  0.5675 -0.1573  0.1226
 4974TIP3    H136481   2.543   4.053   0.900  0.2009 -2.2621 -1.0344
 4974TIP3    H236482   2.687   4.086   0.867 -0.1843 -0.5258 -1.0589
 4975TIP3   OH236483   6.706   5.354   1.861 -0.0970 -0.0484  0.1957
 4975TIP3    H136484   6.760   5.275   1.862 -0.9760 -0.6638 -0.3092
 4975TIP3    H236485   6.760   5.419   1.815 -0.0278 -0.8393 -0.8849
 4976TIP3   OH236486   1.035   4.467   0.499  0.4708  0.0479 -0.2250
 4976TIP3    H136487   1.034   4.494   0.407  1.7246  1.2434  0.0828
 4976TIP3    H236488   1.090   4.389   0.500 -0.5441 -0.6936 -0.6494
 4977TIP3   OH236489   3.892   5.690   7.223 -0.3118 -0.0334 -0.0710
 4977TIP3    H136490   3.913   5.715   7.133 -0.1911 -2.3727 -0.7338
 4977TIP3    H236491   3.947   5.746   7.277  0.6724  0.4131 -1.4914
 4978TIP3   OH236492   6.363   1.946   2.402 -0.4416  0.4277 -0.0042
 4978TIP3    H136493   6.291   1.989   2.355 -0.9472 -1.8471 -1.4990
 4978TIP3    H236494   6.320   1.894   2.469 -0.1831 -0.5324 -0.5629
 4979TIP3   OH236495   2.543   4.813   7.653  0.0334  0.7703 -0.1733
 4979TIP3    H136496   2.476   4.745   7.642  1.4441 -0.5540 -0.9130
 4979TIP3    H236497   2.573   4.803   7.743 -0.6476  1.2612  0.1100
 4980TIP3   OH236498   1.792   6.225   2.163 -0.1841 -0.5721  0.1507
 4980TIP3    H136499   1.729   6.185   2.104 -0.5198  1.7083 -1.1769
 4980TIP3    H236500   1.738   6.267   2.231 -0.1268  0.7894 -0.5988
 4981TIP3   OH236501   0.101   1.697   7.083 -0.1481 -0.2419  0.1777
 4981TIP3    H136502   0.086   1.680   7.176  0.3334 -0.1338  0.2787
 4981TIP3    H236503   0.163   1.628   7.056 -1.7559 -1.4745 -0.5385
 4982TIP3   OH236504   1.390   5.348   1.675  0.3588  0.8957 -0.1773
 4982TIP3    H136505   1.335   5.355   1.753  1.0913 -2.4245  0.8191
 4982TIP3    H236506   1.332   5.307   1.610  1.2608 -1.7971  0.5984
 4983TIP3   OH236507   3.354   4.743   6.640  0.4764  0.0188  0.0360
 4983TIP3    H136508   3.448   4.735   6.619  0.3767  0.6717 -0.7303
 4983TIP3    H236509   3.325   4.817   6.587 -0.1530  0.7813  1.4113
 4984TIP3   OH236510   3.975   3.530   1.805  0.6883 -0.8817 -0.2947
 4984TIP3    H136511   3.955   3.598   1.870 -0.5022 -0.1829 -1.3425
 4984TIP3    H236512   4.026   3.575   1.738 -3.3598  0.2125 -3.0418
 4985TIP3   OH236513   2.105   1.997   7.271 -0.3445  0.5400  0.3588
 4985TIP3    H136514   2.086   1.905   7.250  1.4124  0.4088 -0.9252
 4985TIP3    H236515   2.075   2.046   7.194  0.9225  0.7382 -0.0263
 4986TIP3   OH236516   3.845   1.279   1.627  0.0126  0.0691 -0.2036
 4986TIP3    H136517   3.908   1.252   1.695  2.6007 -1.2963 -2.9045
 4986TIP3    H236518   3.896   1.335   1.568 -2.4680  2.2204 -0.4773
 4987TIP3   OH236519   1.184   6.046   0.999  0.5199 -0.0775  0.7417
 4987TIP3    H136520   1.210   5.960   0.966  1.6473  1.0925 -1.6932
 4987TIP3    H236521   1.090   6.051   0.982  0.8391 -0.0131 -1.3340
 4988TIP3   OH236522   0.409   5.350   7.093  0.0994 -0.2890 -0.1469
 4988TIP3    H136523   0.492   5.394   7.072 -0.2625 -0.0544 -1.1532
 4988TIP3    H236524   0.421   5.261   7.061  0.1260 -0.3831  0.1243
 4989TIP3   OH236525   1.170   4.693   2.273 -0.0453  0.3378 -0.0652
 4989TIP3    H136526   1.160   4.650   2.188  1.1921 -1.0059  0.4195
 4989TIP3    H236527   1.260   4.673   2.299 -0.2908  1.0306  1.4033
 4990TIP3   OH236528   3.824   5.516   7.788 -0.4248  0.7080  0.6806
 4990TIP3    H136529   3.761   5.587   7.801  0.8377  1.7795  1.2229
 4990TIP3    H236530   3.836   5.512   7.693 -0.4502  1.2919  0.6451
 4991TIP3   OH236531   4.426   5.747   1.009  1.0820 -0.5052 -0.3910
 4991TIP3    H136532   4.393   5.706   1.089  1.7418 -3.8144 -1.6562
 4991TIP3    H236533   4.374   5.827   1.000 -2.1507 -2.2489  1.0403
 4992TIP3   OH236534   3.019   0.383   7.938  0.0409 -0.5074  0.2136
 4992TIP3    H136535   3.108   0.419   7.933  0.4251 -1.2935  1.1263
 4992TIP3    H236536   2.975   0.437   8.004 -0.9643  1.4605 -1.9254
 4993TIP3   OH236537   6.368   0.759   6.825  0.2669 -0.0580 -0.2400
 4993TIP3    H136538   6.354   0.732   6.916 -3.4353 -2.8108 -1.3834
 4993TIP3    H236539   6.319   0.841   6.816  0.8403  0.3468  0.2713
 4994TIP3   OH236540   1.406   2.643   7.449 -0.3726  0.2535  0.0955
 4994TIP3    H136541   1.341   2.605   7.508 -3.0563  4.3173  0.1137
 4994TIP3    H236542   1.476   2.674   7.507  0.4019 -1.7365  0.3258
 4995TIP3   OH236543   3.890   0.886   6.734 -0.3351  0.2095  0.0667
 4995TIP3    H136544   3.960   0.860   6.674 -0.0907  0.5550  0.2029
 4995TIP3    H236545   3.848   0.961   6.692  1.1410  1.7785  1.2567
 4996TIP3   OH236546   0.385   5.926   7.953  0.1971  0.3805 -0.1863
 4996TIP3    H136547   0.343   5.842   7.937 -2.1100  1.2748  0.7258
 4996TIP3    H236548   0.407   5.959   7.865  0.7261 -0.9319 -0.5740
 4997TIP3   OH236549   0.465   4.048   2.359 -0.3778 -0.1192  0.4413
 4997TIP3    H136550   0.430   4.131   2.329 -1.6175 -0.3589  1.1581
 4997TIP3    H236551   0.552   4.070   2.395  0.6278  0.3475 -2.0841
 4998TIP3   OH236552   1.825   2.515   7.644  0.0875 -0.5396 -0.1752
 4998TIP3    H136553   1.899   2.459   7.620  1.0971  1.2429 -1.4020
 4998TIP3    H236554   1.749   2.458   7.636  1.1760 -2.0569 -0.2061
 4999TIP3   OH236555   5.824   1.624   1.580 -0.0056 -0.4238 -0.1123
 4999TIP3    H136556   5.788   1.634   1.493 -0.5986 -1.7787 -0.0575
 4999TIP3    H236557   5.867   1.538   1.578 -0.3364 -0.6355  1.0136
 5000TIP3   OH236558   4.028   4.081   7.477 -0.1028  0.0071 -0.4767
 5000TIP3    H136559   4.060   4.051   7.562  0.3648 -0.5999 -0.8540
 5000TIP3    H236560   3.935   4.100   7.491  0.0542  0.2371  0.2446
 5001TIP3   OH236561   0.617   3.379   2.655  0.0595  0.6988  0.2935
 5001TIP3    H136562   0.622   3.409   2.564 -1.2803  0.5048  0.1340
 5001TIP3    H236563   0.624   3.459   2.707  2.6798  0.6563  0.1362
 5002TIP3   OH236564   0.037   2.765   0.893  0.3073 -0.0294  0.0038
 5002TIP3    H136565   0.111   2.825   0.901  0.4030 -0.2282  0.6851
 5002TIP3    H236566   0.032   2.746   0.799  0.8277  0.3500 -0.1080
 5003TIP3   OH236567   6.364   3.002   7.311  0.1018 -0.5142 -0.0887
 5003TIP3    H136568   6.418   2.957   7.376  2.3784 -1.2616 -2.3302
 5003TIP3    H236569   6.357   3.092   7.343  3.7985 -0.0414 -0.2141
 5004TIP3   OH236570   6.229   0.791   1.064 -0.1335  0.2644  0.0983
 5004TIP3    H136571   6.210   0.698   1.068  0.2240  0.0756 -1.8404
 5004TIP3    H236572   6.156   0.833   1.109 -1.2381 -0.8550 -0.6201
 5005TIP3   OH236573   4.589   5.829   2.464  0.2312  0.0552 -0.2920
 5005TIP3    H136574   4.644   5.753   2.485  1.3987  1.1621  0.7710
 5005TIP3    H236575   4.499   5.797   2.472  0.6723 -0.7042  2.1594
 5006TIP3   OH236576   6.223   7.128   0.856  0.7458 -0.1113 -0.1894
 5006TIP3    H136577   6.262   7.193   0.798 -0.1994  1.2077  0.5845
 5006TIP3    H236578   6.238   7.163   0.944 -1.2642 -0.0349  0.1763
 5007TIP3   OH236579   6.143   3.277   1.427 -0.7215 -0.4697  0.4519
 5007TIP3    H136580   6.125   3.257   1.335  2.1277  0.7313 -0.4931
 5007TIP3    H236581   6.220   3.225   1.449  1.2873  2.3303  0.7079
 5008TIP3   OH236582   1.200   7.056   0.447  0.1264 -0.0419 -0.0414
 5008TIP3    H136583   1.217   6.970   0.408  0.8497 -0.1899  0.5854
 5008TIP3    H236584   1.285   7.098   0.453 -0.3825  1.3610 -1.7392
 5009TIP3   OH236585   6.088   5.398   6.164 -0.2544  0.2328 -0.2764
 5009TIP3    H136586   6.132   5.321   6.200 -0.5363  1.9982  4.4569
 5009TIP3    H236587   6.151   5.469   6.176 -1.5939  1.4950 -0.5504
 5010TIP3   OH236588   6.958   1.312   1.595  0.1077  0.0966  0.4531
 5010TIP3    H136589   6.928   1.352   1.513  2.1619  0.5916 -0.1266
 5010TIP3    H236590   7.011   1.237   1.567  1.4671  0.7155  1.2593
 5011TIP3   OH236591   4.077   6.767   6.568  0.2550 -0.5356 -0.0354
 5011TIP3    H136592   4.028   6.685   6.579 -2.3170  0.8140 -0.6275
 5011TIP3    H236593   4.038   6.826   6.632  2.6628  0.0510  0.9810
 5012TIP3   OH236594   3.456   3.413   1.655 -0.0615  0.3476  0.5112
 5012TIP3    H136595   3.437   3.499   1.692 -1.2001 -0.3739  1.6988
 5012TIP3    H236596   3.370   3.375   1.638  0.4332  0.2067 -1.9286
 5013TIP3   OH236597   4.783   4.281   1.010  0.2143 -0.2410 -0.0495
 5013TIP3    H136598   4.723   4.355   0.999  0.5981  0.2775  1.2053
 5013TIP3    H236599   4.870   4.318   0.995  0.4248 -0.3884  0.7985
 5014TIP3   OH236600   5.366   4.656   7.989 -0.1865  0.4075 -0.0467
 5014TIP3    H136601   5.401   4.702   7.913 -1.6818  0.2052 -0.8917
 5014TIP3    H236602   5.364   4.722   8.058 -0.7335  1.1577 -0.7695
 5015TIP3   OH236603   1.852   7.085   7.938  0.3579 -0.3620  0.2235
 5015TIP3    H136604   1.897   7.143   7.877  1.7881 -0.4334  1.1608
 5015TIP3    H236605   1.898   7.001   7.931 -0.2464 -0.7274  0.5078
 5016TIP3   OH236606   4.643   6.170   2.091 -0.2907 -0.4919  0.2183
 5016TIP3    H136607   4.574   6.235   2.106  0.0815 -0.3158  1.2327
 5016TIP3    H236608   4.680   6.153   2.178  2.0026  0.5933 -0.4658
 5017TIP3   OH236609   4.318   0.011   7.715  0.4444  0.5644  0.6916
 5017TIP3    H136610   4.239  -0.029   7.751  0.0066 -0.7868 -1.5760
 5017TIP3    H236611   4.356   0.060   7.788 -1.3047 -0.5456  2.4307
 5018TIP3   OH236612   1.647   4.103   6.687  0.9463  0.0822 -0.6644
 5018TIP3    H136613   1.678   4.103   6.777  0.8299 -0.1955 -0.6235
 5018TIP3    H236614   1.721   4.069   6.636  0.4753 -1.3050 -0.4781
 5019TIP3   OH236615   2.440   2.743   6.949 -0.2664 -0.1587  0.0943
 5019TIP3    H136616   2.390   2.718   7.027 -1.3449 -0.2842 -0.6140
 5019TIP3    H236617   2.375   2.746   6.879  0.7662 -0.5723 -0.9198
 5020TIP3   OH236618   2.256   2.254   7.344  0.2770 -0.1425  0.2878
 5020TIP3    H136619   2.252   2.309   7.266  1.1419  0.1692  0.4504
 5020TIP3    H236620   2.171   2.210   7.348  0.3549 -0.4327 -1.0234
 5021TIP3   OH236621   1.778   0.144   0.076 -0.1774 -0.4336 -0.1240
 5021TIP3    H136622   1.799   0.060   0.034 -1.9339 -0.2515 -1.4811
 5021TIP3    H236623   1.823   0.140   0.160  0.8276 -2.1991 -0.6821
 5022TIP3   OH236624   0.321   4.073   0.215  0.0317 -0.4547  0.0562
 5022TIP3    H136625   0.330   4.168   0.210 -1.7742 -0.3018 -1.1365
 5022TIP3    H236626   0.393   4.039   0.161  0.1210  0.2638 -0.2921
 5023TIP3   OH236627   7.102   6.191   1.549  0.5321  0.5477 -0.1890
 5023TIP3    H136628   7.185   6.222   1.513  1.1243 -0.3968  0.3344
 5023TIP3    H236629   7.124   6.110   1.595 -0.7917 -0.0587 -0.5809
 5024TIP3   OH236630   0.947   3.462   6.496  0.3615 -0.0312 -0.1354
 5024TIP3    H136631   1.016   3.453   6.430  1.1990  0.1662  0.6908
 5024TIP3    H236632   0.946   3.555   6.517 -0.1365 -0.0394 -0.1081
 5025TIP3   OH236633   0.482   5.774   0.623  0.2725 -0.4466 -0.1330
 5025TIP3    H136634   0.428   5.842   0.583  0.2158 -1.0053 -1.0314
 5025TIP3    H236635   0.455   5.773   0.715 -0.0507  0.4236 -0.2129
 5026TIP3   OH236636   5.376   6.043   6.864 -0.3567  0.4236  0.1711
 5026TIP3    H136637   5.396   6.065   6.773 -0.8584 -0.7849 -0.2493
 5026TIP3    H236638   5.461   6.038   6.907 -0.1454  1.5920 -0.0703
 5027TIP3   OH236639   0.746   6.617   0.423  0.2161  0.4924  0.6215
 5027TIP3    H136640   0.811   6.569   0.474 -0.3786 -1.0662 -0.0391
 5027TIP3    H236641   0.695   6.549   0.379 -0.2727  1.7515 -0.8278
 5028TIP3   OH236642   6.804   3.787   1.430  0.2411 -0.4541  0.3773
 5028TIP3    H136643   6.849   3.849   1.488  1.2726 -1.6789  0.9353
 5028TIP3    H236644   6.807   3.829   1.344  0.7805  0.3373  0.7641
 5029TIP3   OH236645   2.618   2.827   7.144  0.0120 -0.0258 -0.2252
 5029TIP3    H136646   2.709   2.822   7.115 -0.1252  0.4221 -0.7620
 5029TIP3    H236647   2.570   2.775   7.081  0.0408 -1.3336  0.7933
 5030TIP3   OH236648   4.996   0.035   0.932 -0.7720  0.5674 -0.6443
 5030TIP3    H136649   5.046   0.046   0.852 -0.4530  0.1529 -0.5071
 5030TIP3    H236650   4.908   0.009   0.903  0.0477 -2.3143 -0.8371
 5031TIP3   OH236651   0.367   4.711   0.027 -0.6595 -0.4999  0.3072
 5031TIP3    H136652   0.324   4.765  -0.040 -0.5487  0.7792  1.2399
 5031TIP3    H236653   0.296   4.686   0.086 -0.4913 -0.2242  0.6284
 5032TIP3   OH236654   0.805   1.000   1.989  0.4594  0.2324 -0.2666
 5032TIP3    H136655   0.814   1.078   1.933  2.4078  0.3344  0.1037
 5032TIP3    H236656   0.741   1.025   2.055  1.5080  1.8067  0.2234
 5033TIP3   OH236657   4.935   3.442   6.134 -0.1932 -0.3874  0.0151
 5033TIP3    H136658   4.980   3.386   6.198  1.1843  2.3886  1.6525
 5033TIP3    H236659   4.872   3.492   6.186  0.8391  1.8214 -0.7496
 5034TIP3   OH236660   1.144   1.716   6.626 -0.0437 -0.5002 -0.2704
 5034TIP3    H136661   1.085   1.791   6.621  1.0703  0.5363  1.3048
 5034TIP3    H236662   1.232   1.753   6.616  0.4810 -1.7392 -0.4806
 5035TIP3   OH236663   3.128   0.964   6.730 -0.4255  0.2088 -0.2887
 5035TIP3    H136664   3.146   0.951   6.637 -2.1196 -0.2425 -0.5836
 5035TIP3    H236665   3.210   0.996   6.766  1.0560 -2.0041 -1.4489
 5036TIP3   OH236666   4.618   5.290   7.428  0.1068 -0.1607 -0.1975
 5036TIP3    H136667   4.686   5.229   7.456  0.4032  0.6162  0.8168
 5036TIP3    H236668   4.652   5.376   7.450 -0.5667  0.3452 -1.0602
 5037TIP3   OH236669   1.376   1.867   6.635 -0.0952 -0.9134 -0.0440
 5037TIP3    H136670   1.470   1.887   6.628 -0.0964 -0.9763 -0.2593
 5037TIP3    H236671   1.333   1.950   6.613 -0.0863 -0.3634  1.8165
 5038TIP3   OH236672   3.075   4.850   0.016  0.7776 -0.2706  0.1992
 5038TIP3    H136673   3.021   4.771   0.023  1.8558 -0.9874  0.5470
 5038TIP3    H236674   3.018   4.920   0.049  0.1085 -1.0429  0.7217
 5039TIP3   OH236675   5.942   6.675   4.904 -0.2487  0.1234 -0.3776
 5039TIP3    H136676   6.029   6.634   4.907 -0.1833  0.3037  1.0293
 5039TIP3    H236677   5.905   6.647   4.821  1.1295 -0.0173 -0.9825
 5040TIP3   OH236678   6.772   1.940   2.340  0.2191 -0.0770 -0.3498
 5040TIP3    H136679   6.820   1.857   2.345  0.1641 -0.1513 -0.9013
 5040TIP3    H236680   6.818   1.990   2.272 -1.1342 -0.6092 -1.7249
 5041TIP3   OH236681   6.714   4.278   0.002 -0.9909  0.0246  0.3549
 5041TIP3    H136682   6.646   4.298   0.066 -0.8150  0.3552  0.4411
 5041TIP3    H236683   6.796   4.294   0.049 -0.8659  0.9381 -0.1597
 5042TIP3   OH236684   3.113   4.109   6.909  0.1030 -0.8445  0.6065
 5042TIP3    H136685   3.155   4.123   6.825 -0.1448 -3.3343  0.0073
 5042TIP3    H236686   3.075   4.022   6.903 -3.4110  0.4076  1.8357
 5043TIP3   OH236687   1.600   3.025   0.288  0.0339 -0.0478 -0.6392
 5043TIP3    H136688   1.616   3.120   0.287  1.8894 -0.3042 -2.1002
 5043TIP3    H236689   1.535   3.011   0.219 -1.0072  0.2409  0.2619
 5044TIP3   OH236690   2.333   6.265   0.586 -0.0398  0.1800  0.0013
 5044TIP3    H136691   2.345   6.180   0.629 -0.8233 -0.3722 -0.8196
 5044TIP3    H236692   2.248   6.295   0.617 -0.3706  0.0240 -0.7343
 5045TIP3   OH236693   1.520   4.576   0.123  0.0671  0.1634  0.0616
 5045TIP3    H136694   1.454   4.508   0.110  1.9323 -1.6525 -0.3824
 5045TIP3    H236695   1.582   4.565   0.051  2.0148  0.3622  1.5994
 5046TIP3   OH236696   3.895   2.652   2.087 -0.2643 -0.2107  0.4207
 5046TIP3    H136697   3.846   2.589   2.140 -0.9238  0.3524  0.5004
 5046TIP3    H236698   3.971   2.674   2.140 -0.4030 -0.4042  0.7030
 5047TIP3   OH236699   1.555   5.821   1.143  0.1315  0.7188  0.3737
 5047TIP3    H136700   1.461   5.810   1.130 -0.3739  2.1418  2.3818
 5047TIP3    H236701   1.585   5.865   1.063 -0.6016 -0.9691 -0.8926
 5048TIP3   OH236702   1.289   3.616   1.844  0.2335  0.8989  0.6024
 5048TIP3    H136703   1.260   3.661   1.765  0.0718 -0.5311 -0.1800
 5048TIP3    H236704   1.385   3.617   1.837  0.2035 -0.8900 -0.6213
 5049TIP3   OH236705   4.852   3.345   7.170  0.3294 -0.6507  0.5819
 5049TIP3    H136706   4.873   3.253   7.151  0.5072 -0.7526  1.2360
 5049TIP3    H236707   4.756   3.347   7.170  0.3226 -0.6055 -0.4741
 5050TIP3   OH236708   0.854   6.319   7.256  0.0685  0.3378 -0.3803
 5050TIP3    H136709   0.841   6.399   7.306  0.1284  0.2854 -0.2807
 5050TIP3    H236710   0.860   6.250   7.322  0.3946  0.3025 -0.4462
 5051TIP3   OH236711   0.404   1.339   7.734  0.2566 -0.0980  0.5281
 5051TIP3    H136712   0.344   1.411   7.756 -0.2419 -0.2837 -0.1738
 5051TIP3    H236713   0.386   1.272   7.800 -3.6934 -2.0845 -2.1262
 5052TIP3   OH236714   2.399   3.191   1.357  0.0235  0.0730 -0.6452
 5052TIP3    H136715   2.375   3.135   1.284 -0.8310 -0.5455  0.0793
 5052TIP3    H236716   2.406   3.279   1.320  1.2297 -0.4644 -1.7734
 5053TIP3   OH236717   3.881   4.775   2.453  0.0930 -0.1790 -0.0976
 5053TIP3    H136718   3.859   4.799   2.543  0.0348  1.0323 -0.4058
 5053TIP3    H236719   3.932   4.850   2.420  0.6004 -0.8500 -0.8920
 5054TIP3   OH236720   0.412   4.953   0.185  0.1359 -0.2438 -0.4576
 5054TIP3    H136721   0.344   5.014   0.156 -1.4416 -1.3422  0.6883
 5054TIP3    H236722   0.375   4.867   0.167 -0.2483 -0.9589  3.0645
 5055TIP3   OH236723   6.128   3.506   7.040  0.1475 -0.3394 -0.0453
 5055TIP3    H136724   6.038   3.537   7.032  0.5860  0.6947 -1.4618
 5055TIP3    H236725   6.120   3.417   7.073 -1.2937  0.4083  1.8314
 5056TIP3   OH236726   5.770   4.572   0.685  0.7105 -0.3183  0.2397
 5056TIP3    H136727   5.737   4.552   0.598 -0.8468 -1.5012  1.0732
 5056TIP3    H236728   5.735   4.659   0.705  0.0686 -0.5532  0.1501
 5057TIP3   OH236729   5.582   4.756   0.793 -0.1250 -0.9851  0.4870
 5057TIP3    H136730   5.569   4.766   0.888  2.5461 -1.4822  0.9828
 5057TIP3    H236731   5.614   4.841   0.764  0.9833 -1.4034  0.4427
 5058TIP3   OH236732   6.780   6.484   0.557 -0.0962 -0.2334 -0.3383
 5058TIP3    H136733   6.820   6.414   0.505  1.6941  0.2399  0.3319
 5058TIP3    H236734   6.843   6.501   0.627 -1.5322  0.5149  0.8359
 5059TIP3   OH236735   0.651   3.838   6.731 -0.3337 -0.3585  0.1261
 5059TIP3    H136736   0.730   3.851   6.678 -1.2379 -0.6674 -1.3373
 5059TIP3    H236737   0.641   3.743   6.737 -1.7780 -0.3584 -1.5704
 5060TIP3   OH236738   3.300   5.364   1.723  0.3984 -0.4411 -0.3300
 5060TIP3    H136739   3.331   5.305   1.654 -0.3365  0.1248 -1.1791
 5060TIP3    H236740   3.218   5.325   1.753 -1.6468  1.4666 -2.8810
 5061TIP3   OH236741   0.737   6.776   2.898  0.7935  0.0266 -0.3772
 5061TIP3    H136742   0.790   6.744   2.826  0.2214 -1.3659 -0.2102
 5061TIP3    H236743   0.795   6.834   2.948  1.6460 -0.2069 -1.0897
 5062TIP3   OH236744   2.757   6.312   7.035  0.0376 -0.1424  0.1696
 5062TIP3    H136745   2.826   6.277   7.091 -0.5399  0.2894  1.1735
 5062TIP3    H236746   2.681   6.255   7.052 -0.4246  0.5835  0.5699
 5063TIP3   OH236747   6.838   0.110   6.050  0.1202 -0.0673  0.5338
 5063TIP3    H136748   6.910   0.047   6.049  0.5094  0.3801 -0.2077
 5063TIP3    H236749   6.774   0.074   5.989  0.7977  0.7553 -0.7021
 5064TIP3   OH236750   5.142   5.907   0.987  0.4378  0.5258  0.5678
 5064TIP3    H136751   5.143   5.942   1.076  0.2862  0.5272  0.5695
 5064TIP3    H236752   5.050   5.887   0.970  0.7354 -1.5658  1.2061
 5065TIP3   OH236753   2.225   6.103   1.915 -0.6557  0.4667  0.1123
 5065TIP3    H136754   2.190   6.145   1.993  0.4618  0.2205  0.7674
 5065TIP3    H236755   2.311   6.144   1.902 -0.5464  0.0357 -0.5968
 5066TIP3   OH236756   0.844   1.047   1.635  0.5545 -0.0938 -0.2253
 5066TIP3    H136757   0.911   0.979   1.637 -1.0862 -1.7949  2.4945
 5066TIP3    H236758   0.763   1.001   1.613 -0.9610  0.4197  3.4635
 5067TIP3   OH236759   2.620   5.094   1.182 -0.5346 -0.1526 -0.2265
 5067TIP3    H136760   2.573   5.151   1.243 -0.8246  0.0538 -0.6445
 5067TIP3    H236761   2.685   5.050   1.237  0.2977  1.2402 -0.0588
 5068TIP3   OH236762   3.199   1.473   0.029 -0.0131 -0.0347  0.6923
 5068TIP3    H136763   3.262   1.414  -0.011  0.6517  0.0312  1.6185
 5068TIP3    H236764   3.178   1.433   0.113 -2.9314 -1.2177 -0.4771
 5069TIP3   OH236765   5.521   1.034   6.755 -0.1969 -0.5832 -0.1518
 5069TIP3    H136766   5.450   1.003   6.699 -0.9525 -3.0642  1.9901
 5069TIP3    H236767   5.485   1.110   6.801 -0.8967 -0.8601 -0.2370
 5070TIP3   OH236768   3.470   1.480   1.546 -0.1965  0.4863  0.3112
 5070TIP3    H136769   3.553   1.520   1.520  0.2343 -0.9610 -0.6317
 5070TIP3    H236770   3.495   1.402   1.595 -0.9639 -0.5658 -0.9218
 5071TIP3   OH236771   3.981   2.102   6.877  0.0424 -0.5610 -0.4597
 5071TIP3    H136772   3.974   2.009   6.900  4.7716 -1.3552 -1.1767
 5071TIP3    H236773   3.964   2.104   6.783 -1.4838 -0.4047 -0.1971
 5072TIP3   OH236774   4.432   3.272   0.215  0.5750  0.3108 -0.1111
 5072TIP3    H136775   4.518   3.304   0.242  0.8389 -1.5700  1.5108
 5072TIP3    H236776   4.373   3.294   0.287  0.6245 -2.0568  0.7279
 5073TIP3   OH236777   0.389   6.401   7.270  0.0903  0.3057 -0.0756
 5073TIP3    H136778   0.368   6.314   7.237 -0.2850  1.3253 -2.8093
 5073TIP3    H236779   0.303   6.444   7.278  0.3849  1.0565 -0.8058
 5074TIP3   OH236780   4.382   6.408   0.695 -0.1591  0.0791 -0.6822
 5074TIP3    H136781   4.312   6.468   0.719 -2.4445 -2.3372 -0.8972
 5074TIP3    H236782   4.370   6.392   0.602  0.0273 -1.1303 -0.5145
 5075TIP3   OH236783   6.764   5.753   2.327 -0.4472  0.0315  0.2251
 5075TIP3    H136784   6.748   5.837   2.284  1.1447  0.2382 -0.0227
 5075TIP3    H236785   6.792   5.695   2.256 -0.3115 -0.3461  0.5847
 5076TIP3   OH236786   0.057   6.702   6.071  0.3060  0.2782 -0.0134
 5076TIP3    H136787   0.051   6.702   5.976  2.5806 -0.5159 -0.2196
 5076TIP3    H236788   0.070   6.794   6.094  0.7378  0.3631 -0.5705
 5077TIP3   OH236789   6.851   2.353   6.742 -0.2552  0.1902  0.3758
 5077TIP3    H136790   6.844   2.375   6.649 -0.2904  0.2045  0.3819
 5077TIP3    H236791   6.913   2.280   6.745 -0.0012  0.4028  0.3709
 5078TIP3   OH236792   6.834   3.644   0.863 -0.7285  0.5435  0.1433
 5078TIP3    H136793   6.889   3.722   0.854  2.2512 -1.3476  0.4295
 5078TIP3    H236794   6.835   3.604   0.776  2.2087 -1.7340  1.0393
 5079TIP3   OH236795   2.300   6.008   1.278  0.3039 -0.6211  0.5928
 5079TIP3    H136796   2.362   6.023   1.349  0.2272  0.4729  0.4502
 5079TIP3    H236797   2.232   5.953   1.316 -1.7358  2.9161  2.5881
 5080TIP3   OH236798   1.167   4.717   1.892 -0.2212  0.1029  0.3425
 5080TIP3    H136799   1.159   4.642   1.951  0.9345 -1.1924 -1.0783
 5080TIP3    H236800   1.241   4.767   1.927  1.5330 -1.5269 -0.8118
 5081TIP3   OH236801   4.375   3.144   0.886  0.3733 -0.5908  0.2751
 5081TIP3    H136802   4.415   3.061   0.861  1.0045 -0.1678 -0.1395
 5081TIP3    H236803   4.354   3.187   0.803  4.0078  1.5729  0.2312
 5082TIP3   OH236804   3.853   4.212   1.731  0.5317  0.3834 -0.0345
 5082TIP3    H136805   3.829   4.136   1.678  1.7385  0.2489 -0.4097
 5082TIP3    H236806   3.946   4.224   1.715  0.9345  0.3913  1.9724
 5083TIP3   OH236807   2.536   4.067   1.320  0.0891  0.1267  0.2770
 5083TIP3    H136808   2.473   4.114   1.265 -0.8655  0.1383  1.3439
 5083TIP3    H236809   2.513   3.975   1.310  1.0000 -0.0211 -0.6365
 5084TIP3   OH236810   5.948   3.680   0.141 -0.0049  0.3303  0.5036
 5084TIP3    H136811   5.952   3.766   0.099  2.5140  0.6096  1.1433
 5084TIP3    H236812   6.039   3.653   0.149 -0.6477 -1.7023  1.7688
 5085TIP3   OH236813   5.798   1.367   1.283 -0.1286 -0.0316  0.0970
 5085TIP3    H136814   5.723   1.309   1.296 -0.8184  1.1053  1.6707
 5085TIP3    H236815   5.856   1.349   1.357  1.8955 -1.8402 -1.7957
 5086TIP3   OH236816   2.970   2.445   6.394  0.3578 -0.2351 -0.4776
 5086TIP3    H136817   3.062   2.447   6.421  0.1002  0.7857  0.4057
 5086TIP3    H236818   2.945   2.537   6.387 -0.6680 -0.5010 -0.4826
 5087TIP3   OH236819   1.152   6.898   7.551  0.3683  0.0503  0.2505
 5087TIP3    H136820   1.101   6.893   7.632 -0.2166  1.6270  0.0154
 5087TIP3    H236821   1.193   6.984   7.554  1.5791 -0.4788 -0.4314
 5088TIP3   OH236822   5.879   4.072   0.472  0.0348 -0.1403  0.4383
 5088TIP3    H136823   5.945   4.138   0.449 -0.2430  0.8024  2.1871
 5088TIP3    H236824   5.930   3.997   0.501  0.3478 -0.5881 -1.1637
 5089TIP3   OH236825   3.964   0.328   7.287  0.3614  0.1878  0.4232
 5089TIP3    H136826   4.017   0.408   7.283 -1.0469  1.1286 -0.6491
 5089TIP3    H236827   3.996   0.274   7.215 -1.0508  1.3951 -1.1719
 5090TIP3   OH236828   3.322   6.265   6.954  0.1045  0.2978  0.0434
 5090TIP3    H136829   3.341   6.182   6.910 -0.9242  0.0156  0.0924
 5090TIP3    H236830   3.377   6.330   6.910 -0.3168 -0.1193 -1.1288
 5091TIP3   OH236831   0.348   6.767   1.772 -0.0781  0.2825  0.2532
 5091TIP3    H136832   0.293   6.783   1.695 -0.5194 -1.1438  0.2315
 5091TIP3    H236833   0.365   6.854   1.808  1.4607  1.1491 -2.3205
 5092TIP3   OH236834   2.409   0.168   6.997  0.2434 -0.0662  0.7678
 5092TIP3    H136835   2.479   0.177   7.061 -1.0092  2.0570  1.9735
 5092TIP3    H236836   2.387   0.258   6.973 -1.3622 -0.7147 -0.3737
 5093TIP3   OH236837   0.287   0.572   1.011 -0.0189 -0.3956 -0.1570
 5093TIP3    H136838   0.198   0.575   1.047 -0.1774 -2.1643 -0.3238
 5093TIP3    H236839   0.282   0.625   0.931 -0.5968  0.5220  0.4684
 5094TIP3   OH236840   6.645   4.514   6.867 -0.0499  0.4018 -0.0680
 5094TIP3    H136841   6.694   4.521   6.786 -0.0662  0.2492 -0.0903
 5094TIP3    H236842   6.561   4.556   6.848  0.4757  1.6772  0.3033
 5095TIP3   OH236843   5.827   4.240   7.637  0.0558 -0.1467 -0.1925
 5095TIP3    H136844   5.841   4.258   7.730  0.7655 -0.1875 -0.2873
 5095TIP3    H236845   5.904   4.190   7.610 -0.2225 -0.2757 -0.7651
 5096TIP3   OH236846   5.456   2.951   1.647  0.2022 -0.0651  0.8980
 5096TIP3    H136847   5.384   2.948   1.584  0.2067 -0.6865  0.9165
 5096TIP3    H236848   5.525   2.897   1.608  1.1454  1.4632  0.3119
 5097TIP3   OH236849   1.069   3.606   6.813  0.3564  0.0732 -0.1003
 5097TIP3    H136850   1.094   3.617   6.904 -1.8304  2.2423  0.3598
 5097TIP3    H236851   1.109   3.523   6.786  2.1572  0.0349  2.3934
 5098TIP3   OH236852   6.054   6.867   5.633  0.0805  0.3492  0.2993
 5098TIP3    H136853   6.000   6.788   5.644 -1.1634  1.1196 -0.1021
 5098TIP3    H236854   5.991   6.936   5.613  1.1946  1.3717  0.2562
 5099TIP3   OH236855   2.609   1.063   6.914  0.0686 -0.2520  0.6128
 5099TIP3    H136856   2.696   1.023   6.906  0.0307 -0.4339  1.1196
 5099TIP3    H236857   2.581   1.077   6.823  0.9202  0.4486  0.4346
 5100TIP3   OH236858   4.582   5.412   7.801  0.3335  0.3605 -0.3554
 5100TIP3    H136859   4.573   5.367   7.885  0.9652  0.3281 -0.2949
 5100TIP3    H236860   4.676   5.430   7.794  0.1730  1.1085 -0.6707
 5101TIP3   OH236861   1.325   0.319   6.832  0.0583 -0.9201 -0.0076
 5101TIP3    H136862   1.325   0.223   6.824  0.4503 -0.8455 -0.9853
 5101TIP3    H236863   1.353   0.335   6.922  0.0300 -1.7213  0.1570
 5102TIP3   OH236864   6.601   4.371   1.751 -0.1464 -0.2631 -0.2659
 5102TIP3    H136865   6.606   4.457   1.792  2.5606 -0.8053  0.6989
 5102TIP3    H236866   6.566   4.314   1.820 -0.2642 -0.2605 -0.3237
 5103TIP3   OH236867   2.079   6.691   1.068  0.0404 -0.0225  0.9248
 5103TIP3    H136868   2.088   6.646   1.152  0.1573  0.4416  1.1668
 5103TIP3    H236869   2.046   6.624   1.008 -0.4743 -0.2464  1.4473
 5104TIP3   OH236870   2.418   2.140   0.294  0.2047  0.8958  0.0753
 5104TIP3    H136871   2.324   2.129   0.277 -0.2693  0.3413  2.6247
 5104TIP3    H236872   2.424   2.219   0.348  1.4782  2.0533 -1.6357
 5105TIP3   OH236873   2.298   1.109   6.931 -0.3894 -0.3727 -0.6728
 5105TIP3    H136874   2.315   1.194   6.973 -0.8062 -0.1507 -0.9414
 5105TIP3    H236875   2.206   1.090   6.952 -0.5154 -0.3990 -1.2326
 5106TIP3   OH236876   4.209   7.146   7.272  0.0001 -0.4942  0.0163
 5106TIP3    H136877   4.224   7.147   7.178  1.1355 -3.0449  0.0739
 5106TIP3    H236878   4.152   7.221   7.288  0.4193  0.4848 -2.5575
 5107TIP3   OH236879   6.555   1.256   0.477  0.2647 -0.0702 -0.2301
 5107TIP3    H136880   6.488   1.277   0.541  0.0114 -0.6831 -0.2900
 5107TIP3    H236881   6.609   1.335   0.472 -0.2846  0.3269  0.0208
 5108TIP3   OH236882   1.516   4.342   0.427 -0.0180  0.4974  0.0088
 5108TIP3    H136883   1.542   4.329   0.518  0.1736 -2.6086 -0.3667
 5108TIP3    H236884   1.586   4.394   0.389 -0.1167  1.8786  1.5916
 5109TIP3   OH236885   4.192   2.615   1.984 -0.7421 -0.3744 -0.2535
 5109TIP3    H136886   4.163   2.677   2.051 -3.1429 -0.5210 -1.0749
 5109TIP3    H236887   4.214   2.536   2.033  3.5124  1.2814  0.9566
 5110TIP3   OH236888   6.219   0.520   7.970 -0.5653 -0.2979 -0.2503
 5110TIP3    H136889   6.226   0.501   8.063  0.5314  0.8052 -0.0856
 5110TIP3    H236890   6.301   0.487   7.932 -0.1406  1.0060 -0.4973
 5111TIP3   OH236891   1.784   2.019   7.278 -0.3902 -0.0293 -0.2845
 5111TIP3    H136892   1.772   2.009   7.183 -1.1830 -1.2534 -0.0723
 5111TIP3    H236893   1.799   1.931   7.310  0.3510  0.4337  0.6867
 5112TIP3   OH236894   4.487   3.003   0.204 -0.2923  0.3400 -0.4632
 5112TIP3    H136895   4.458   3.094   0.210  1.8051  1.0954 -1.1978
 5112TIP3    H236896   4.549   3.001   0.131 -0.4749 -1.7462 -0.6324
 5113TIP3   OH236897   1.814   3.461   1.978 -0.1456  0.2213  0.5869
 5113TIP3    H136898   1.780   3.372   1.974  0.7204 -0.1423  1.0211
 5113TIP3    H236899   1.785   3.495   2.063  0.6278 -0.1247  1.0018
 5114TIP3   OH236900   1.517   0.529   1.719  0.2893 -0.3099 -0.2992
 5114TIP3    H136901   1.518   0.492   1.808  0.9418 -1.0073 -0.5874
 5114TIP3    H236902   1.470   0.465   1.667 -2.5106  1.3088  0.0016
 5115TIP3   OH236903   5.919   0.000   1.975  0.6620 -0.2406  0.1942
 5115TIP3    H136904   5.841   0.012   2.030  1.7559 -0.5981  1.9094
 5115TIP3    H236905   5.990   0.036   2.028  2.0767 -2.3964 -0.1242
 5116TIP3   OH236906   0.039   4.033   1.350  0.2972  0.3083 -0.7151
 5116TIP3    H136907   0.051   4.085   1.430 -1.6194  1.3605 -1.0604
 5116TIP3    H236908   0.005   3.949   1.380  1.2174  0.0595 -0.3268
 5117TIP3   OH236909   3.462   3.233   7.696 -0.2758 -0.1267  0.2907
 5117TIP3    H136910   3.476   3.161   7.635 -0.4972 -0.6517  0.8484
 5117TIP3    H236911   3.436   3.307   7.640 -2.1852 -1.0524 -0.1390
 5118TIP3   OH236912   5.145   4.929   7.936  0.2978 -0.2770  0.2428
 5118TIP3    H136913   5.152   4.865   7.865  1.1747 -1.3381  1.2491
 5118TIP3    H236914   5.228   4.976   7.935 -0.3764  0.9620 -0.5544
 5119TIP3   OH236915   1.999   0.703   0.717 -0.2166 -0.3875  0.1639
 5119TIP3    H136916   2.058   0.630   0.735  0.3116 -0.1520 -0.5454
 5119TIP3    H236917   1.966   0.730   0.803 -0.2136 -1.2852  0.4538
 5120TIP3   OH236918   1.328   2.658   1.757 -0.0729 -0.2954  0.1162
 5120TIP3    H136919   1.342   2.751   1.739 -2.2271 -0.1305 -0.9723
 5120TIP3    H236920   1.409   2.616   1.727  0.0107  0.9874 -1.6098
 5121TIP3   OH236921   5.528   1.860   7.605 -0.5625  0.4835 -0.0339
 5121TIP3    H136922   5.533   1.780   7.656 -0.6065  1.5048  1.6331
 5121TIP3    H236923   5.599   1.915   7.637 -1.2697  1.5858 -0.2684
 5122TIP3   OH236924   1.401   5.228   6.330 -0.0186  0.0639  0.2494
 5122TIP3    H136925   1.386   5.270   6.415 -0.2153 -2.5507  1.6012
 5122TIP3    H236926   1.454   5.151   6.350  0.4156 -0.3280 -2.1084
 5123TIP3   OH236927   6.558   6.887   1.620 -0.1726  0.6929  0.4299
 5123TIP3    H136928   6.481   6.943   1.608 -0.1697  0.3540 -1.4227
 5123TIP3    H236929   6.570   6.845   1.535  0.9624 -0.6779  1.2372
 5124TIP3   OH236930   1.707   3.594   7.966  0.1145 -0.4850 -0.5965
 5124TIP3    H136931   1.776   3.660   7.963  0.1396 -0.5299 -2.6303
 5124TIP3    H236932   1.629   3.641   7.995  0.2228  0.3660 -1.6362
 5125TIP3   OH236933   3.680   6.401   6.942 -0.7085 -0.2020 -0.1272
 5125TIP3    H136934   3.749   6.388   6.878 -0.6220  2.6171 -0.7464
 5125TIP3    H236935   3.600   6.407   6.890 -0.7018  1.6154  0.0158
 5126TIP3   OH236936   2.285   0.888   2.137  0.6860  0.2607 -0.0292
 5126TIP3    H136937   2.263   0.822   2.203  2.0582 -0.4347 -0.2265
 5126TIP3    H236938   2.358   0.850   2.089  0.0752  0.9915 -1.6120
 5127TIP3   OH236939   5.475   4.477   0.701  0.3304 -0.5035  0.4324
 5127TIP3    H136940   5.459   4.494   0.609 -1.0173 -0.1099  0.7105
 5127TIP3    H236941   5.509   4.560   0.735  1.8754 -0.9735  0.0875
 5128TIP3   OH236942   4.755   2.032   0.937 -0.3608  0.1115  0.0224
 5128TIP3    H136943   4.842   2.023   0.976 -0.4716 -0.7032  0.1019
 5128TIP3    H236944   4.723   1.942   0.929 -0.8362  0.3520 -0.8361
 5129TIP3   OH236945   0.224   0.327   7.401  0.1510 -0.5338 -0.1817
 5129TIP3    H136946   0.265   0.412   7.415  0.1885 -0.3407 -1.3174
 5129TIP3    H236947   0.170   0.339   7.323  0.3943 -1.6191 -0.5360
 5130TIP3   OH236948   4.471   2.491   2.323 -0.0926  0.8847 -0.4330
 5130TIP3    H136949   4.393   2.444   2.295  0.0891  0.7344 -0.6948
 5130TIP3    H236950   4.541   2.425   2.319  0.4798  1.5681 -2.3361
 5131TIP3   OH236951   6.929   5.733   0.001 -0.3849  0.3558  0.4267
 5131TIP3    H136952   6.888   5.666   0.055 -1.4904  1.6740  1.2958
 5131TIP3    H236953   6.856   5.788  -0.029  0.4149  0.8323 -0.7590
 5132TIP3   OH236954   3.281   1.006   0.960  0.3081  0.4090  0.3028
 5132TIP3    H136955   3.203   1.015   0.906 -0.1499  1.7005  1.1588
 5132TIP3    H236956   3.249   0.997   1.049  1.0644 -1.6677  0.4411
 5133TIP3   OH236957   3.097   0.795   6.932  0.1390 -0.5255  0.5507
 5133TIP3    H136958   3.152   0.717   6.939  0.5325 -0.1726  1.5975
 5133TIP3    H236959   3.125   0.838   6.852  1.0750 -0.5897  0.8373
 5134TIP3   OH236960   0.167   3.154   7.762  0.0211 -0.0130  0.0617
 5134TIP3    H136961   0.184   3.126   7.852 -1.7931  0.6202  0.6416
 5134TIP3    H236962   0.212   3.089   7.707  1.8211  0.0331  1.3935
 5135TIP3   OH236963   1.603   4.882   0.114 -0.6307  0.0724  0.3298
 5135TIP3    H136964   1.587   4.938   0.038 -0.3437 -0.4826 -0.1539
 5135TIP3    H236965   1.603   4.793   0.078  1.3336 -0.0976  0.6590
 5136TIP3   OH236966   4.056   4.873   1.408 -0.3343 -0.8333 -0.2855
 5136TIP3    H136967   3.965   4.884   1.438  0.0327 -0.3012  0.6762
 5136TIP3    H236968   4.075   4.953   1.359 -0.3208 -0.8716 -0.3436
 5137TIP3   OH236969   1.648   6.057   2.451 -0.0957  0.2715 -0.4039
 5137TIP3    H136970   1.596   5.986   2.488 -0.7469  1.9433  2.1721
 5137TIP3    H236971   1.588   6.100   2.390 -1.1963  1.0547  1.1529
 5138TIP3   OH236972   4.729   3.704   1.378  0.2342 -0.3686 -0.5159
 5138TIP3    H136973   4.795   3.761   1.338 -0.6908  2.0268  1.1510
 5138TIP3    H236974   4.663   3.693   1.309 -0.0639  1.4982 -0.5889
 5139TIP3   OH236975   1.174   5.242   1.523 -0.2062 -0.1485 -0.2969
 5139TIP3    H136976   1.089   5.265   1.487 -0.0727 -0.8562 -1.0825
 5139TIP3    H236977   1.168   5.148   1.540 -0.2008  0.1198  1.3675
 5140TIP3   OH236978   0.916   5.136   2.078  0.6590  0.5212  0.3661
 5140TIP3    H136979   1.006   5.120   2.106  0.2213  0.9014  2.0846
 5140TIP3    H236980   0.862   5.089   2.142 -0.3905  0.6875 -0.3690
 5141TIP3   OH236981   7.114   5.176   7.646  0.0199  0.0138 -0.0832
 5141TIP3    H136982   7.128   5.103   7.706  0.8869  0.2400 -0.0017
 5141TIP3    H236983   7.025   5.163   7.612  0.1768 -1.0784 -0.0783
 5142TIP3   OH236984   1.753   4.526   1.832  0.5135 -0.3687  0.1686
 5142TIP3    H136985   1.663   4.500   1.811  0.8973 -1.9466  0.4035
 5142TIP3    H236986   1.750   4.622   1.833 -0.7670 -0.3311 -1.6116
 5143TIP3   OH236987   4.033   4.497   0.475  0.2809 -0.8882 -0.4360
 5143TIP3    H136988   3.967   4.438   0.513 -2.3125  0.2959 -2.6901
 5143TIP3    H236989   4.027   4.576   0.528 -2.8312  0.5055 -2.5256
 5144TIP3   OH236990   4.159   1.160   1.090 -0.5981 -0.0554 -0.2622
 5144TIP3    H136991   4.107   1.109   1.152 -0.0225 -2.6562 -1.7825
 5144TIP3    H236992   4.221   1.098   1.053  1.1567  2.1060 -1.2337
 5145TIP3   OH236993   2.983   3.675   0.258 -0.9550 -0.0088 -0.1341
 5145TIP3    H136994   3.000   3.706   0.348 -0.2297 -0.5736 -0.0709
 5145TIP3    H236995   2.929   3.744   0.219 -0.3384  0.7791  0.3780
 5146TIP3   OH236996   0.404   3.043   0.586 -0.0284 -0.0912 -0.2238
 5146TIP3    H136997   0.378   2.953   0.567 -2.0975  0.7008 -1.5825
 5146TIP3    H236998   0.473   3.062   0.523 -1.0451 -0.1273 -1.3947
 5147TIP3   OH236999   3.085   1.108   6.294 -0.0262 -0.1987 -0.3700
 5147TIP3    H137000   3.063   1.169   6.364 -0.2252 -1.2029  0.4594
 5147TIP3    H237001   3.156   1.055   6.330  1.7958  1.0518 -1.9283
 5148TIP3   OH237002   1.318   3.999   0.415 -0.1832  0.2411 -0.6886
 5148TIP3    H137003   1.401   3.958   0.441  0.4151  1.6242 -0.3120
 5148TIP3    H237004   1.267   4.005   0.496  0.0114  0.8302 -0.6021
 5149TIP3   OH237005   4.625   0.894   0.146  0.1299  0.6517  0.1611
 5149TIP3    H137006   4.628   0.822   0.210 -0.1219  0.6300  0.1490
 5149TIP3    H237007   4.583   0.966   0.194  2.1536  1.4516  0.8292
 5150TIP3   OH237008   4.997   6.899   1.039  0.3610  0.2847 -0.0279
 5150TIP3    H137009   4.999   6.994   1.029  0.3448  0.3075  0.1789
 5150TIP3    H237010   4.999   6.885   1.133  0.5392  0.0743 -0.0629
 5151TIP3   OH237011   3.602   1.843   1.403  0.7693  0.0810 -0.3488
 5151TIP3    H137012   3.510   1.861   1.382  0.9054  0.9126 -0.2461
 5151TIP3    H237013   3.605   1.839   1.498  0.3924 -2.4479 -0.3508
 5152TIP3   OH237014   1.777   0.006   7.200  0.0765 -0.3704 -0.1277
 5152TIP3    H137015   1.812  -0.073   7.242  0.5947  0.1576  0.4683
 5152TIP3    H237016   1.846   0.033   7.140 -0.9298 -1.4862 -1.8497
 5153TIP3   OH237017   6.305   3.119   7.933  0.2113 -0.0713 -0.6804
 5153TIP3    H137018   6.346   3.064   7.999  0.6938 -0.4654 -1.2954
 5153TIP3    H237019   6.294   3.061   7.857 -0.0601  0.4495 -1.0479
 5154TIP3   OH237020   4.226   7.067   2.478  0.0678 -0.1981  0.1603
 5154TIP3    H137021   4.231   6.977   2.510  0.1716 -0.1368  0.3199
 5154TIP3    H237022   4.133   7.085   2.469  0.0612 -0.5953 -0.6547
 5155TIP3   OH237023   1.410   6.376   1.589  0.0581  0.2276 -0.4092
 5155TIP3    H137024   1.416   6.336   1.503  3.5663  0.8433 -0.5746
 5155TIP3    H237025   1.426   6.304   1.650 -0.4491  0.1545 -0.3595
 5156TIP3   OH237026   3.109   7.102   7.895 -0.2650  0.0741  0.0919
 5156TIP3    H137027   3.170   7.128   7.964  0.2459 -0.8744  0.0284
 5156TIP3    H237028   3.138   7.150   7.818 -1.8631  2.4304  0.8752
 5157TIP3   OH237029   2.704   5.682   0.026 -0.0738 -0.2153  0.6325
 5157TIP3    H137030   2.624   5.638   0.057  1.5671 -3.0489  1.1669
 5157TIP3    H237031   2.749   5.708   0.106  0.6347 -0.7873  0.4303
 5158TIP3   OH237032   5.832   0.419   7.404  0.4755  0.2189 -0.2628
 5158TIP3    H137033   5.891   0.451   7.472 -0.8588  1.3904  0.3904
 5158TIP3    H237034   5.751   0.397   7.451  0.2213 -0.9448 -1.1928
 5159TIP3   OH237035   0.681   3.465   1.755 -0.3047 -0.2444 -0.7804
 5159TIP3    H137036   0.749   3.492   1.693 -1.3686 -0.2474 -2.0060
 5159TIP3    H237037   0.617   3.536   1.753 -0.2558 -0.1394  0.5193
 5160TIP3   OH237038   6.881   4.447   0.280 -0.5054  1.1178  0.2423
 5160TIP3    H137039   6.847   4.360   0.302  1.6692  0.3368  0.8050
 5160TIP3    H237040   6.926   4.434   0.197  2.1884  0.9341  1.6057
 5161TIP3   OH237041   4.772   0.049   0.146  0.2260 -0.1785  0.0540
 5161TIP3    H137042   4.829   0.007   0.082  0.6669  0.7114 -0.1513
 5161TIP3    H237043   4.683   0.034   0.112  0.4679  0.5282 -0.9239
 5162TIP3   OH237044   7.136   5.377   1.204 -0.4883  0.4573  0.8223
 5162TIP3    H137045   7.087   5.432   1.265 -1.0651 -1.0505  1.7845
 5162TIP3    H237046   7.203   5.335   1.258  0.0047  0.2812  0.0918
 5163TIP3   OH237047   1.609   3.798   6.986 -0.1586 -0.3155 -0.0161
 5163TIP3    H137048   1.701   3.823   6.996 -1.3753  5.9304 -0.4910
 5163TIP3    H237049   1.577   3.788   7.076  0.6410 -1.3153  0.1787
 5164TIP3   OH237050   2.205   4.321   7.659 -0.0141  0.1739 -0.1546
 5164TIP3    H137051   2.207   4.319   7.563  0.0028  1.9063 -0.2210
 5164TIP3    H237052   2.111   4.323   7.680 -0.0056  0.4462 -0.1500
 5165TIP3   OH237053   1.122   5.509   7.429 -0.6100 -0.1840  0.1340
 5165TIP3    H137054   1.177   5.456   7.487 -1.4805 -0.9829  0.2406
 5165TIP3    H237055   1.104   5.452   7.354 -0.5489  0.3935 -0.3256
 5166TIP3   OH237056   1.404   5.070   0.527  0.2672 -0.3580  0.5732
 5166TIP3    H137057   1.425   5.016   0.450  1.1501  1.0643 -0.2389
 5166TIP3    H237058   1.346   5.139   0.493 -1.6280 -1.2806  1.7790
 5167TIP3   OH237059   1.147   0.654   7.050 -0.2784  0.5011 -0.2860
 5167TIP3    H137060   1.124   0.614   6.967  0.3444  0.3646 -0.3986
 5167TIP3    H237061   1.180   0.741   7.027 -4.0486  2.2357  0.1222
 5168TIP3   OH237062   2.019   6.717   2.261  0.9667  0.0414  0.2450
 5168TIP3    H137063   2.040   6.637   2.213 -0.7644  0.4913 -1.3497
 5168TIP3    H237064   2.034   6.694   2.353  2.3075 -1.5104 -0.3178
 5169TIP3   OH237065   4.703   3.125   2.224  0.7128  0.3118 -0.0649
 5169TIP3    H137066   4.697   3.220   2.220  1.3483  0.3636  0.1359
 5169TIP3    H237067   4.791   3.108   2.257  0.2881 -0.3235  0.7745
 5170TIP3   OH237068   5.384   4.647   7.224  0.1298  0.0174  0.6018
 5170TIP3    H137069   5.433   4.642   7.307 -0.0675  0.0393  0.7206
 5170TIP3    H237070   5.450   4.633   7.156  0.0816 -1.2812  0.8107
 5171TIP3   OH237071   5.806   0.765   7.614 -0.4824 -0.3204  0.1060
 5171TIP3    H137072   5.720   0.800   7.639  0.1795  0.4498  1.4038
 5171TIP3    H237073   5.806   0.768   7.518 -2.4061 -1.6217  0.0070
 5172TIP3   OH237074   4.248   5.593   6.461  0.2490 -0.2648 -0.5208
 5172TIP3    H137075   4.289   5.535   6.525 -2.9761 -0.4326  1.6616
 5172TIP3    H237076   4.260   5.550   6.377  0.5875 -2.5343  0.6336
 5173TIP3   OH237077   1.737   2.813   0.407  0.0419 -0.1179 -0.8559
 5173TIP3    H137078   1.799   2.846   0.471 -2.0113  1.2494  0.5529
 5173TIP3    H237079   1.705   2.891   0.361 -0.9348 -0.7337 -1.2595
 5174TIP3   OH237080   3.061   1.530   7.795  0.1333 -0.8684  0.0519
 5174TIP3    H137081   3.006   1.455   7.771  0.2371 -0.4172 -1.7059
 5174TIP3    H237082   3.108   1.500   7.873 -1.3414 -1.8670  0.6189
 5175TIP3   OH237083   6.935   0.040   0.399  0.4925 -0.1489 -0.1498
 5175TIP3    H137084   6.908   0.117   0.448 -0.9026  0.2934 -1.5051
 5175TIP3    H237085   6.966  -0.022   0.465  0.5090  1.1188  1.0700
 5176TIP3   OH237086   3.390   1.005   2.266 -0.0476  0.2140 -0.7713
 5176TIP3    H137087   3.325   1.075   2.276 -2.1358 -1.7106 -0.0178
 5176TIP3    H237088   3.437   1.004   2.350 -0.4967  0.2662 -0.5157
 5177TIP3   OH237089   0.684   5.808   7.750 -0.0047  0.5575 -0.1301
 5177TIP3    H137090   0.667   5.751   7.825  0.7804 -1.2023 -1.2077
 5177TIP3    H237091   0.773   5.841   7.764  0.7434 -0.9765 -0.9417
 5178TIP3   OH237092   0.603   6.495   7.434  0.1861  0.3007 -0.0072
 5178TIP3    H137093   0.612   6.406   7.469  0.1612 -0.1501 -1.1112
 5178TIP3    H237094   0.540   6.487   7.363  0.5066  1.1212 -0.4009
 5179TIP3   OH237095   2.425   7.109   1.384 -0.1307  0.0637 -0.3113
 5179TIP3    H137096   2.440   7.137   1.294 -2.3767  1.6507 -0.2880
 5179TIP3    H237097   2.447   7.186   1.437  2.7460 -1.3339  0.7678
 5180TIP3   OH237098   3.387   4.967   2.180 -0.3412  0.5403  0.2393
 5180TIP3    H137099   3.394   4.950   2.086 -0.5628  1.3630  0.0635
 5180TIP3    H237100   3.293   4.972   2.196 -0.3018  0.4752  0.4873
 5181TIP3   OH237101   0.884   7.060   7.024  0.4151  0.2419  0.1465
 5181TIP3    H137102   0.881   7.154   7.009  1.7458 -0.0033 -2.1713
 5181TIP3    H237103   0.976   7.037   7.015 -0.0991 -1.5161 -1.2706
 5182TIP3   OH237104   2.948   1.849   7.452 -0.2492 -0.3009 -0.1500
 5182TIP3    H137105   2.923   1.773   7.399  0.8021 -1.6819  1.2373
 5182TIP3    H237106   2.899   1.837   7.534 -2.2895  2.0844 -0.8990
 5183TIP3   OH237107   6.798   0.199   2.178 -0.1179 -0.3797  0.1883
 5183TIP3    H137108   6.818   0.170   2.267  1.8371 -2.8719 -0.9465
 5183TIP3    H237109   6.879   0.241   2.148 -0.4895 -0.2729 -0.6906
 5184TIP3   OH237110   0.957   6.560   7.376 -0.1177  0.6973 -0.0265
 5184TIP3    H137111   1.043   6.574   7.416 -0.1440  1.6274 -0.2824
 5184TIP3    H237112   0.896   6.608   7.431 -0.2522  1.3878 -0.7606
 5185TIP3   OH237113   6.873   0.696   6.436 -0.6164 -0.7496 -0.1036
 5185TIP3    H137114   6.896   0.751   6.361  0.2673 -1.3137 -0.2678
 5185TIP3    H237115   6.797   0.738   6.475  0.7965  1.3644  0.5596
 5186TIP3   OH237116   4.615   2.935   0.456 -0.4155 -0.3825 -0.1605
 5186TIP3    H137117   4.694   2.967   0.413 -0.5547  1.7315  1.0320
 5186TIP3    H237118   4.548   2.937   0.387  0.3902 -1.6696 -1.0316
 5187TIP3   OH237119   4.588   6.919   1.567  0.4770  0.3179  0.0983
 5187TIP3    H137120   4.556   6.882   1.485 -0.2073 -0.5728  0.7483
 5187TIP3    H237121   4.542   7.002   1.576 -2.4565 -1.3008  1.4299
 5188TIP3   OH237122   1.806   2.548   1.734  0.0404 -0.4288 -0.1344
 5188TIP3    H137123   1.832   2.565   1.644  0.3975 -0.3460 -0.0150
 5188TIP3    H237124   1.748   2.472   1.728 -2.1430  1.1758 -0.7589
 5189TIP3   OH237125   2.309   3.815   0.779 -0.1421  0.5108 -0.2155
 5189TIP3    H137126   2.354   3.865   0.711  0.8985 -0.1058 -0.0039
 5189TIP3    H237127   2.306   3.725   0.746 -0.2229  0.3381  0.2444
 5190TIP3   OH237128   0.326   6.444   5.927 -0.2835  0.2699  0.0714
 5190TIP3    H137129   0.353   6.354   5.910  1.9730  0.9579 -0.2689
 5190TIP3    H237130   0.330   6.453   6.022 -2.9838 -0.6499  0.3497
 5191TIP3   OH237131   4.231   2.133   1.349  0.2396  0.7827  0.5655
 5191TIP3    H137132   4.245   2.114   1.256 -0.5125  0.1827  0.5654
 5191TIP3    H237133   4.180   2.215   1.349  2.9126  2.5504  0.5526
 5192TIP3   OH237134   3.803   6.089   6.873 -0.0724 -0.2533  0.1320
 5192TIP3    H137135   3.855   6.094   6.953  2.2991 -0.0963 -1.3323
 5192TIP3    H237136   3.806   6.177   6.837 -0.3898 -0.5233 -0.5718
 5193TIP3   OH237137   4.979   2.282   1.265  0.0764 -0.2686  0.4384
 5193TIP3    H137138   4.954   2.245   1.180 -0.8270 -0.9843  0.9905
 5193TIP3    H237139   5.014   2.208   1.314  0.1107  0.0345  0.8759
 5194TIP3   OH237140   4.327   5.944   7.315  0.1680  0.3815 -0.4330
 5194TIP3    H137141   4.415   5.928   7.349  0.0834  0.2802 -0.2574
 5194TIP3    H237142   4.301   6.027   7.355  0.4031  0.6971 -0.9293
 5195TIP3   OH237143   5.636   3.461   7.058  0.6633  0.3747  0.0472
 5195TIP3    H137144   5.617   3.454   7.151  0.9371  0.6674  0.1268
 5195TIP3    H237145   5.552   3.478   7.017  0.5810  0.5017  0.2690
 5196TIP3   OH237146   1.080   2.476   0.095 -0.1207  0.1928 -0.0078
 5196TIP3    H137147   1.079   2.466   0.190 -1.6519 -0.6056 -0.0773
 5196TIP3    H237148   1.102   2.568   0.081 -0.7238  0.5343  1.1507
 5197TIP3   OH237149   3.281   0.756   2.250 -0.5899  0.4827  0.0011
 5197TIP3    H137150   3.203   0.760   2.305 -0.5611 -1.6066  0.2705
 5197TIP3    H237151   3.322   0.842   2.260 -3.3244  2.0305 -0.9116
 5198TIP3   OH237152   4.534   6.977   6.570 -0.1102 -0.1794 -0.0069
 5198TIP3    H137153   4.558   6.885   6.572  0.6577  0.0209  0.9209
 5198TIP3    H237154   4.440   6.978   6.552  0.4416 -1.0011 -3.6229
 5199TIP3   OH237155   3.404   0.533   0.351 -0.3695  0.3190  0.1045
 5199TIP3    H137156   3.404   0.572   0.439 -0.6802 -2.3013  1.3795
 5199TIP3    H237157   3.362   0.598   0.296  0.1560  2.2171  1.8068
 5200TIP3   OH237158   6.131   6.768   0.351 -0.0846 -0.1009 -0.4063
 5200TIP3    H137159   6.048   6.816   0.344  0.8301  1.9157  1.3048
 5200TIP3    H237160   6.107   6.686   0.395 -1.0781  0.9464  1.1400
 5201TIP3   OH237161   1.534   0.899   1.846  0.2612  0.5705  0.0246
 5201TIP3    H137162   1.607   0.845   1.875  0.6051  1.2209  0.3868
 5201TIP3    H237163   1.561   0.931   1.760 -0.1408 -0.1952 -0.3953
 5202TIP3   OH237164   2.361   3.682   2.025  0.4414  0.3748  0.6857
 5202TIP3    H137165   2.350   3.734   1.945 -1.4426 -0.2837  0.4679
 5202TIP3    H237166   2.420   3.611   1.999  1.9910  1.6045  0.6436
 5203TIP3   OH237167   2.606   4.420   6.669  0.1426  0.5713 -0.3268
 5203TIP3    H137168   2.623   4.374   6.751  0.8118 -0.2825 -0.9197
 5203TIP3    H237169   2.693   4.442   6.636 -0.1593  1.9189 -0.2558
 5204TIP3   OH237170   2.645   0.301   7.590  0.0393 -0.5676 -0.3402
 5204TIP3    H137171   2.697   0.221   7.579 -1.7311 -1.7600 -0.4187
 5204TIP3    H237172   2.666   0.330   7.679  0.3133 -1.4178 -0.1127
 5205TIP3   OH237173   6.582   6.996   6.148  0.0489 -0.0730  0.4740
 5205TIP3    H137174   6.506   6.945   6.177  1.3196 -1.7016  1.0642
 5205TIP3    H237175   6.634   6.935   6.096  1.8638  0.4480  1.5875
 5206TIP3   OH237176   0.607   1.478   2.190 -0.6461  0.2448 -0.2870
 5206TIP3    H137177   0.684   1.452   2.240 -1.3692  0.5726  1.0532
 5206TIP3    H237178   0.600   1.572   2.203 -1.6289  0.1223  0.1499
 5207TIP3   OH237179   6.638   6.166   2.744 -0.2458 -0.1481  0.0221
 5207TIP3    H137180   6.555   6.190   2.784 -0.6546  0.8617 -1.3728
 5207TIP3    H237181   6.682   6.249   2.726  0.4498 -0.6097 -0.4961
 5208TIP3   OH237182   0.224   0.791   2.211  0.1709  0.2867  0.2302
 5208TIP3    H137183   0.256   0.705   2.185  0.3287  0.5113 -0.3368
 5208TIP3    H237184   0.298   0.831   2.258  0.5862  0.6356 -0.6987
 5209TIP3   OH237185   2.506   5.125   2.170  0.8029  0.1258  0.2506
 5209TIP3    H137186   2.591   5.168   2.170  0.7975  0.1503 -0.4490
 5209TIP3    H237187   2.526   5.033   2.189  0.9048  0.2675  0.8468
 5210TIP3   OH237188   1.154   5.403   7.818  0.1801 -0.2680  0.0364
 5210TIP3    H137189   1.110   5.382   7.735  0.5759  0.1239 -0.2810
 5210TIP3    H237190   1.212   5.477   7.796  0.9423 -0.7280  0.4567
 5211TIP3   OH237191   0.562   5.971   0.120  0.1082  0.3160 -0.5279
 5211TIP3    H137192   0.518   5.978   0.035 -1.1799  1.4551  0.1958
 5211TIP3    H237193   0.536   5.885   0.154 -0.1964  0.2762 -0.8533
 5212TIP3   OH237194   3.140   4.149   1.441 -0.3299 -0.2973  0.2917
 5212TIP3    H137195   3.083   4.156   1.365 -1.2612  0.4949  1.0393
 5212TIP3    H237196   3.228   4.159   1.406 -0.5243 -2.3757 -1.0120
 5213TIP3   OH237197   1.799   2.362   7.989 -0.3198  0.0046  0.1443
 5213TIP3    H137198   1.725   2.307   7.963 -0.1416 -0.7297  1.1231
 5213TIP3    H237199   1.877   2.312   7.962 -0.1460 -0.5121  1.5532
 5214TIP3   OH237200   6.911   5.293   7.087 -0.1497 -0.3188  0.3777
 5214TIP3    H137201   6.872   5.247   7.013 -0.0232 -1.6677  1.1274
 5214TIP3    H237202   6.885   5.384   7.074 -1.7119 -0.8263 -0.3092
 5215TIP3   OH237203   0.613   1.140   0.046 -0.2677  0.2012  0.5670
 5215TIP3    H137204   0.662   1.165  -0.033 -0.9369  2.5648  0.8281
 5215TIP3    H237205   0.596   1.223   0.090 -0.7328 -0.9893  2.7369
 5216TIP3   OH237206   4.076   2.481   6.913 -0.0802  0.4725 -0.3023
 5216TIP3    H137207   4.156   2.456   6.868 -1.2339 -0.5756 -1.8426
 5216TIP3    H237208   4.058   2.570   6.883 -0.1819  0.2281 -0.9724
 5217TIP3   OH237209   2.504   1.280   0.653  0.0133 -0.5193 -0.0853
 5217TIP3    H137210   2.459   1.275   0.738 -0.4400 -1.1552 -0.3577
 5217TIP3    H237211   2.518   1.373   0.639 -0.4337 -0.3716  0.4183
 5218TIP3   OH237212   4.955   3.824   7.478  0.5455  0.1095  0.1720
 5218TIP3    H137213   5.009   3.858   7.407  0.1925  0.1569 -0.0776
 5218TIP3    H237214   4.882   3.886   7.484 -0.3654 -0.8522 -0.6040
 5219TIP3   OH237215   0.331   3.392   6.627 -0.2279  0.1187 -0.3577
 5219TIP3    H137216   0.422   3.389   6.601 -0.4284  2.8355 -1.6937
 5219TIP3    H237217   0.332   3.427   6.716  0.0371 -0.6373 -0.0564
 5220TIP3   OH237218   0.579   1.542   7.784 -0.2112  0.0141 -0.5105
 5220TIP3    H137219   0.574   1.616   7.724  0.6945  0.2836 -0.2708
 5220TIP3    H237220   0.525   1.475   7.744 -0.4065  0.5326 -1.1320
 5221TIP3   OH237221   0.925   3.973   7.193  0.1644  0.3979 -0.6355
 5221TIP3    H137222   0.956   4.043   7.135  1.9601  1.1580  1.1234
 5221TIP3    H237223   0.904   4.017   7.275 -0.0744 -0.9484  0.0603
 5222TIP3   OH237224   1.516   5.457   1.196  0.5338 -0.0928  0.0834
 5222TIP3    H137225   1.476   5.424   1.277  1.3257 -1.5330 -0.0810
 5222TIP3    H237226   1.600   5.412   1.191  0.5279  0.0187 -1.5179
 5223TIP3   OH237227   4.502   0.009   0.009  0.3428 -0.3467  0.6166
 5223TIP3    H137228   4.464   0.091  -0.021  0.3502 -1.0314 -1.4699
 5223TIP3    H237229   4.438  -0.026   0.071 -0.0862  0.8080  0.8448
 5224TIP3   OH237230   4.484   2.971   0.682  0.0042  0.4127  0.2647
 5224TIP3    H137231   4.560   3.024   0.705  0.1357  0.2452  0.2165
 5224TIP3    H237232   4.500   2.944   0.592 -0.6951  1.3844 -0.1742
 5225TIP3   OH237233   5.759   5.575   0.431  0.3237  0.5254  0.3669
 5225TIP3    H137234   5.697   5.538   0.369  0.8095  0.4125 -0.0584
 5225TIP3    H237235   5.824   5.620   0.377  0.8702  0.2441  0.7764
 5226TIP3   OH237236   3.870   6.957   0.609 -0.4906 -0.1636  0.0500
 5226TIP3    H137237   3.921   7.033   0.579  1.8617 -1.8231 -0.4955
 5226TIP3    H237238   3.824   6.927   0.531 -1.2563  0.5695  0.2159
 5227TIP3   OH237239   2.514   6.605   7.305  0.1719  0.8791 -0.4845
 5227TIP3    H137240   2.565   6.620   7.384 -0.1519  0.1738 -0.1382
 5227TIP3    H237241   2.481   6.515   7.313 -0.4324  1.0332 -1.0945
 5228TIP3   OH237242   0.660   0.664   7.015  0.7562 -0.3757  1.3545
 5228TIP3    H137243   0.731   0.606   6.988  0.2254 -1.2627  1.8308
 5228TIP3    H237244   0.649   0.646   7.108 -1.2132 -1.4762  0.9472
 5229TIP3   OH237245   0.877   5.367   6.928 -0.0514  0.1819  1.2573
 5229TIP3    H137246   0.891   5.291   6.872 -0.0041  1.2181 -0.1963
 5229TIP3    H237247   0.965   5.402   6.943 -0.2464  1.7874 -0.8173
 5230TIP3   OH237248   1.239   5.278   0.419 -0.4808 -0.1495  0.3977
 5230TIP3    H137249   1.309   5.334   0.385 -0.1427  0.6586  2.3084
 5230TIP3    H237250   1.167   5.291   0.358  0.9627 -0.9256 -1.5707
 5231TIP3   OH237251   1.176   0.626   1.305  0.2228 -0.3630  0.4880
 5231TIP3    H137252   1.174   0.683   1.228  0.0812 -0.3684  0.4871
 5231TIP3    H237253   1.264   0.637   1.341  1.1369 -2.1313 -1.0021
 5232TIP3   OH237254   5.822   3.356   0.839 -0.3986 -0.1782  0.3657
 5232TIP3    H137255   5.772   3.366   0.757 -0.9754 -1.6554  0.4985
 5232TIP3    H237256   5.761   3.383   0.907 -0.8605 -1.4538  0.4850
 5233TIP3   OH237257   4.840   1.611   6.415  0.2643  0.0408  0.5480
 5233TIP3    H137258   4.753   1.640   6.386 -0.3109 -1.4420  0.7006
 5233TIP3    H237259   4.896   1.687   6.401 -0.8250  0.6826 -0.5923
 5234TIP3   OH237260   3.319   0.367   2.676 -0.3530 -0.2973 -0.5799
 5234TIP3    H137261   3.350   0.292   2.625 -0.6534 -0.6312 -0.2808
 5234TIP3    H237262   3.290   0.430   2.611  1.4769  0.2685 -0.8937
 5235TIP3   OH237263   3.203   4.624   2.059 -0.1268  0.6571  0.2070
 5235TIP3    H137264   3.201   4.534   2.025 -1.3234  0.9575 -0.5785
 5235TIP3    H237265   3.236   4.677   1.987 -2.1748  1.2211 -0.3898
 5236TIP3   OH237266   7.040   0.938   2.314 -0.2521  0.0692 -0.7423
 5236TIP3    H137267   7.021   1.008   2.376 -1.2270 -0.2896 -0.6186
 5236TIP3    H237268   7.029   0.978   2.228 -0.4141  0.1694 -0.6754
 5237TIP3   OH237269   0.508   6.546   1.830  0.8680 -0.0601  0.0673
 5237TIP3    H137270   0.542   6.586   1.910 -2.6462 -0.0485  1.7388
 5237TIP3    H237271   0.457   6.616   1.789 -1.4452 -1.3625  0.5427
 5238TIP3   OH237272   3.157   6.379   0.913 -0.1124  0.1582  0.0975
 5238TIP3    H137273   3.105   6.347   0.987 -0.2747 -2.2219 -0.9487
 5238TIP3    H237274   3.180   6.300   0.864  3.1617  1.2709 -0.3877
 5239TIP3   OH237275   3.031   3.843   7.541  0.0539  0.1277  0.1559
 5239TIP3    H137276   2.952   3.817   7.494 -1.1818 -3.0325  3.4403
 5239TIP3    H237277   3.067   3.916   7.491 -1.9781 -1.6865 -4.4856
 5240TIP3   OH237278   4.500   6.386   6.883  0.0396  0.1817  0.3604
 5240TIP3    H137279   4.528   6.474   6.909 -1.0363  1.5641 -2.7082
 5240TIP3    H237280   4.581   6.340   6.862  0.5721  0.5959  1.4474
 5241TIP3   OH237281   1.449   0.686   7.119 -0.1340 -0.0789 -0.1746
 5241TIP3    H137282   1.507   0.751   7.079 -0.7724  1.0759  0.7230
 5241TIP3    H237283   1.361   0.714   7.094 -0.3825 -2.3693 -2.3877
 5242TIP3   OH237284   3.168   5.971   1.357 -0.6305 -0.6171  0.1899
 5242TIP3    H137285   3.235   6.036   1.380 -0.3173 -1.4515  1.7875
 5242TIP3    H237286   3.202   5.929   1.277 -0.7471  0.9943 -0.7572
 5243TIP3   OH237287   3.550   3.106   0.121 -0.4923 -0.4517  0.2465
 5243TIP3    H137288   3.517   3.174   0.180 -0.4982 -1.3980  1.3629
 5243TIP3    H237289   3.645   3.106   0.135 -0.5839 -1.2894  0.9520
 5244TIP3   OH237290   5.734   4.306   0.555 -0.6766 -0.1664 -0.3395
 5244TIP3    H137291   5.777   4.225   0.580  1.1064  0.3658 -1.4763
 5244TIP3    H237292   5.642   4.294   0.581 -0.5201 -2.6255 -0.7066
 5245TIP3   OH237293   1.105   4.309   1.901 -0.0973  0.3465  0.6914
 5245TIP3    H137294   1.127   4.235   1.846  2.1503 -0.2061  2.2426
 5245TIP3    H237295   1.082   4.379   1.839  0.1229 -0.9051 -0.8499
 5246TIP3   OH237296   1.869   2.332   1.151 -0.4916 -0.3093  0.1270
 5246TIP3    H137297   1.829   2.322   1.237 -0.6653  2.1049  0.3971
 5246TIP3    H237298   1.796   2.329   1.090 -0.8020  1.3445  0.3845
 5247TIP3   OH237299   5.788   5.402   1.576 -0.1080  0.3261 -0.0309
 5247TIP3    H137300   5.814   5.493   1.593 -1.6946  0.6729  0.7244
 5247TIP3    H237301   5.855   5.369   1.516  1.7089  1.3090  1.3265
 5248TIP3   OH237302   5.353   4.338   7.303 -0.2851  0.3947 -0.5792
 5248TIP3    H137303   5.290   4.304   7.366  0.2377 -0.2687 -0.3998
 5248TIP3    H237304   5.398   4.409   7.349 -0.7220  0.7045 -0.6248
 5249TIP3   OH237305   4.228   4.290   7.157  0.9808 -0.0781  1.1427
 5249TIP3    H137306   4.283   4.258   7.229 -0.4098 -0.7419  1.9440
 5249TIP3    H237307   4.144   4.309   7.198  0.4316  0.3921 -0.1621
 5250TIP3   OH237308   6.096   6.058   6.613 -0.7353  0.1516  0.2019
 5250TIP3    H137309   6.025   6.070   6.550 -0.5925  1.1629  0.2131
 5250TIP3    H237310   6.062   5.995   6.676 -1.0333 -0.5685 -0.6479
 5251TIP3   OH237311   1.203   2.049   0.672  0.4891  0.1411 -0.3659
 5251TIP3    H137312   1.138   2.045   0.742  0.6351 -1.0693 -0.2846
 5251TIP3    H237313   1.273   2.104   0.707  0.4162 -0.1988  0.3042
 5252TIP3   OH237314   3.484   5.989   1.264  0.4560  0.0199 -0.2924
 5252TIP3    H137315   3.420   6.004   1.194  0.8539  0.3580 -0.5905
 5252TIP3    H237316   3.514   5.899   1.249 -0.5985 -0.4642  0.3965
 5253TIP3   OH237317   6.092   2.324   2.068  0.0506 -0.7109 -0.5086
 5253TIP3    H137318   6.183   2.354   2.074 -0.1914  0.0814 -0.6584
 5253TIP3    H237319   6.049   2.363   2.144  0.2714 -2.7896  0.7662
 5254TIP3   OH237320   1.324   5.618   7.726 -0.4221  0.2554  0.0079
 5254TIP3    H137321   1.297   5.689   7.668  2.5057  1.3331 -0.2217
 5254TIP3    H237322   1.370   5.662   7.797  1.9125 -1.3648 -0.3915
 5255TIP3   OH237323   2.021   1.700   0.516  0.1320 -0.2996 -0.0102
 5255TIP3    H137324   2.002   1.713   0.423 -0.9408 -1.3125  0.0375
 5255TIP3    H237325   2.011   1.786   0.554 -1.2794 -0.1890 -0.5572
 5256TIP3   OH237326   4.085   5.473   1.166 -0.4322  0.0476  0.6953
 5256TIP3    H137327   4.110   5.562   1.189  0.7176  0.3024 -1.2976
 5256TIP3    H237328   4.168   5.426   1.157 -1.0281 -1.4589  2.3781
 5257TIP3   OH237329   3.355   1.406   7.471 -0.4529  0.2499 -0.4158
 5257TIP3    H137330   3.368   1.319   7.431  1.0632  0.9289 -1.4921
 5257TIP3    H237331   3.327   1.461   7.398 -1.2305  0.7169  0.2273
 5258TIP3   OH237332   6.832   1.153   1.229  0.1512  0.5995 -0.1098
 5258TIP3    H137333   6.906   1.161   1.288  0.6535  2.0303 -0.8746
 5258TIP3    H237334   6.871   1.139   1.143 -0.5094  0.0293 -0.3278
 5259TIP3   OH237335   2.039   0.769   7.838  0.0015 -0.5983 -0.7551
 5259TIP3    H137336   2.084   0.704   7.893 -0.3093 -1.5469 -1.5925
 5259TIP3    H237337   2.035   0.847   7.893  0.6848 -1.1747  0.1618
 5260TIP3   OH237338   1.050   2.048   1.081 -0.0892 -0.0078 -0.8492
 5260TIP3    H137339   0.988   1.978   1.100 -0.6815  0.4444 -1.1096
 5260TIP3    H237340   1.130   2.002   1.054 -0.9628 -0.5883 -2.6180
 5261TIP3   OH237341   6.418   4.430   7.753 -0.6752  0.2472  0.7207
 5261TIP3    H137342   6.507   4.397   7.769 -1.1851 -2.6148 -1.5561
 5261TIP3    H237343   6.364   4.387   7.819 -0.7843 -0.6907  0.0527
 5262TIP3   OH237344   3.720   1.162   0.757 -0.1326 -0.3004 -0.4797
 5262TIP3    H137345   3.677   1.192   0.677 -0.5661  1.1889  0.2878
 5262TIP3    H237346   3.680   1.077   0.775 -2.4230  0.7878 -0.0961
 5263TIP3   OH237347   3.030   1.104   0.038  0.5968 -0.3712  0.1855
 5263TIP3    H137348   3.116   1.146   0.041  0.0035  0.8914  0.0388
 5263TIP3    H237349   3.035   1.034   0.103  1.6533 -0.1733  0.3383
 5264TIP3   OH237350   3.002   1.854   7.083  0.2932 -0.5389 -0.2013
 5264TIP3    H137351   3.047   1.933   7.054 -0.2975  0.8039  2.3229
 5264TIP3    H237352   2.957   1.823   7.004  1.8400  0.6614 -1.6547
 5265TIP3   OH237353   0.910   0.534   1.918  0.2814 -0.3111  0.4271
 5265TIP3    H137354   0.938   0.443   1.912  0.2243 -0.2455 -2.0720
 5265TIP3    H237355   0.822   0.530   1.956  0.6219 -1.2104  1.1458
 5266TIP3   OH237356   6.858   6.604   0.096  0.1117  0.2167 -0.3234
 5266TIP3    H137357   6.768   6.573   0.084 -0.4421  2.2303 -1.7606
 5266TIP3    H237358   6.851   6.699   0.093  2.1004  0.4510  1.2175
 5267TIP3   OH237359   5.088   0.461   0.369 -0.2092 -0.0053 -0.1341
 5267TIP3    H137360   5.034   0.413   0.306 -1.2319 -0.4737  1.0456
 5267TIP3    H237361   5.037   0.539   0.389  0.9180  1.0328 -1.1742
 5268TIP3   OH237362   5.141   2.857   2.016  0.2331 -0.1034  0.2606
 5268TIP3    H137363   5.072   2.799   1.985  0.6209  0.0931 -1.0465
 5268TIP3    H237364   5.200   2.801   2.065 -1.5350 -0.0354  2.6468
 5269TIP3   OH237365   2.892   5.170   1.296 -0.0561  0.2216  0.0405
 5269TIP3    H137366   2.941   5.182   1.377  0.6797 -1.9711 -0.0090
 5269TIP3    H237367   2.831   5.243   1.293 -0.1881  0.2896  2.6466
 5270TIP3   OH237368   6.175   2.982   0.504  0.4424 -0.4518 -0.4221
 5270TIP3    H137369   6.109   2.981   0.573  0.6441  0.8847 -0.1889
 5270TIP3    H237370   6.192   2.889   0.487  2.8446 -1.0338  3.6783
 5271TIP3   OH237371   1.810   1.902   0.206 -0.0635  0.2997 -0.1433
 5271TIP3    H137372   1.836   1.916   0.115  1.9405  0.6063  0.4149
 5271TIP3    H237373   1.838   1.812   0.225 -3.1885 -0.9152 -0.6185
 5272TIP3   OH237374   5.100   1.137   7.029 -0.3987  0.2148 -0.0025
 5272TIP3    H137375   5.167   1.171   7.088 -0.1612 -2.0778  1.1555
 5272TIP3    H237376   5.149   1.086   6.964 -0.8886  0.0878 -0.2806
 5273TIP3   OH237377   5.894   1.181   6.443  0.2847 -0.5713 -0.0702
 5273TIP3    H137378   5.806   1.174   6.481 -0.2491  1.3310 -0.8695
 5273TIP3    H237379   5.946   1.223   6.511  1.5936 -4.6608  1.7950
 5274TIP3   OH237380   4.742   7.072   1.070 -0.1776  0.1284  0.0200
 5274TIP3    H137381   4.732   7.132   0.997 -0.3036  1.0389  0.7689
 5274TIP3    H237382   4.730   6.985   1.032 -0.2662  0.5918 -1.0253
 5275TIP3   OH237383   6.293   6.564   1.499 -0.4943 -0.3348  0.5223
 5275TIP3    H137384   6.278   6.587   1.591  2.3710  2.0597  0.5268
 5275TIP3    H237385   6.321   6.472   1.502 -2.4000 -0.9336  1.7489
 5276TIP3   OH237386   0.718   6.409   1.699  0.3656  0.2608  0.2376
 5276TIP3    H137387   0.792   6.414   1.759  0.5607  1.0884 -0.0624
 5276TIP3    H237388   0.655   6.473   1.732 -1.0829 -1.7538  1.6042
 5277TIP3   OH237389   6.578   2.900   7.924 -0.2604 -0.0370 -0.1379
 5277TIP3    H137390   6.655   2.864   7.967  1.0152  0.9788 -1.4378
 5277TIP3    H237391   6.523   2.933   7.995  0.7174 -0.3908  0.8015
 5278TIP3   OH237392   2.356   5.082   0.723  0.2198  0.2005 -0.0707
 5278TIP3    H137393   2.326   5.099   0.634 -2.2933  0.7288  0.8003
 5278TIP3    H237394   2.314   5.000   0.747  0.9184  0.0377  0.6484
 5279TIP3   OH237395   5.938   1.453   7.607  0.3433 -0.1382  0.3532
 5279TIP3    H137396   5.914   1.518   7.542  3.8898 -1.1830 -2.2982
 5279TIP3    H237397   5.875   1.381   7.593  0.0673  0.3110 -0.8211
 5280TIP3   OH237398   3.299   4.401   0.858 -0.0767 -0.2300 -0.3294
 5280TIP3    H137399   3.240   4.367   0.791 -1.8691  1.1840  0.4532
 5280TIP3    H237400   3.307   4.494   0.838 -0.3354  0.1390  1.1645
 5281TIP3   OH237401   2.574   1.668   0.401 -0.5228  0.1615  1.0607
 5281TIP3    H137402   2.636   1.679   0.473 -0.1149 -1.5408  1.0228
 5281TIP3    H237403   2.623   1.693   0.323 -0.0922 -0.5092  1.1067
 5282TIP3   OH237404   6.200   6.177   1.183 -0.5190  0.3257  0.1198
 5282TIP3    H137405   6.269   6.221   1.132 -0.9323  0.0001 -0.7533
 5282TIP3    H237406   6.177   6.100   1.130 -1.6168  0.4814  0.3486
 5283TIP3   OH237407   1.587   1.122   2.068 -0.0295  0.4600 -0.5451
 5283TIP3    H137408   1.528   1.183   2.114 -2.2769 -0.9699 -1.3676
 5283TIP3    H237409   1.536   1.091   1.993  1.2849 -1.8965 -0.5577
 5284TIP3   OH237410   1.872   1.108   0.660 -0.1525 -0.1758  0.2815
 5284TIP3    H137411   1.791   1.155   0.680  0.5554  1.0236  0.4439
 5284TIP3    H237412   1.923   1.111   0.741  0.3876 -0.2150 -0.0459
 5285TIP3   OH237413   1.878   1.818   1.669  0.5045  0.1978  0.1345
 5285TIP3    H137414   1.792   1.797   1.632 -0.2578  2.4575  0.4896
 5285TIP3    H237415   1.940   1.793   1.601 -0.6410  1.0074 -1.2540
 5286TIP3   OH237416   3.530   0.248   7.643 -0.0682 -0.0967 -0.4210
 5286TIP3    H137417   3.453   0.249   7.700  0.6635  1.3556  0.6139
 5286TIP3    H237418   3.573   0.165   7.662 -1.1155 -0.7062 -0.6576
 5287TIP3   OH237419   3.020   0.998   1.150  0.4211  0.2130 -0.4900
 5287TIP3    H137420   3.062   1.078   1.181 -1.9129  1.0558  0.7302
 5287TIP3    H237421   3.024   0.938   1.225 -0.1847  0.1677 -0.4889
 5288TIP3   OH237422   5.611   3.160   0.363  0.0675  0.1760 -0.0154
 5288TIP3    H137423   5.573   3.183   0.278 -0.9874  1.4033  0.7584
 5288TIP3    H237424   5.698   3.200   0.362 -0.4040  1.2301 -0.0677
 5289TIP3   OH237425   1.879   0.380   0.773 -0.2469  0.7523 -0.5792
 5289TIP3    H137426   1.953   0.336   0.732 -0.0932 -0.7158  1.1493
 5289TIP3    H237427   1.917   0.430   0.845 -0.9084  0.1665  0.1843
 5290TIP3   OH237428   5.301   4.420   2.339  0.0513 -0.0709  0.1057
 5290TIP3    H137429   5.301   4.346   2.401 -0.4360 -1.3335 -1.3396
 5290TIP3    H237430   5.242   4.392   2.269 -0.7526  2.0321 -0.1313
 5291TIP3   OH237431   0.129   1.416   1.708  0.5102  0.4072  0.4392
 5291TIP3    H137432   0.060   1.452   1.764  0.2899 -0.2659  0.6147
 5291TIP3    H237433   0.119   1.462   1.625  1.8168  2.5563  1.3612
 5292TIP3   OH237434   5.737   3.554   0.403 -0.0762  0.2588 -0.2832
 5292TIP3    H137435   5.734   3.650   0.403 -0.2833  0.2560 -0.5539
 5292TIP3    H237436   5.790   3.533   0.326  1.8476  0.1856  0.9931
 5293TIP3   OH237437   7.028   6.702   2.104 -0.3188 -0.1757  0.5377
 5293TIP3    H137438   6.984   6.622   2.074  0.9367 -1.0180  0.8462
 5293TIP3    H237439   7.095   6.671   2.165  2.0109  0.8184 -1.3689
 5294TIP3   OH237440   2.953   2.632   1.466  0.8398 -0.0446  0.4865
 5294TIP3    H137441   2.914   2.549   1.494  1.6928 -0.3413  0.8557
 5294TIP3    H237442   2.880   2.685   1.436  0.3041 -1.0399 -0.0181
 5295TIP3   OH237443   7.100   0.868   1.691 -0.4496  0.3676 -0.0477
 5295TIP3    H137444   7.189   0.849   1.724 -0.3650 -2.1979 -1.4717
 5295TIP3    H237445   7.051   0.788   1.711 -2.1382  1.2956 -0.3791
 5296TIP3   OH237446   4.156   3.245   0.997 -0.4648  0.2389 -0.4009
 5296TIP3    H137447   4.124   3.220   1.083 -0.8706 -1.1904 -0.9403
 5296TIP3    H237448   4.235   3.191   0.984 -0.0763  0.8648 -0.6866
 5297TIP3   OH237449   2.609   1.657   7.955 -0.5401  0.0799  0.3832
 5297TIP3    H137450   2.654   1.575   7.934  2.0557  1.5199 -0.0738
 5297TIP3    H237451   2.588   1.695   7.870 -1.5993 -0.0041  0.5925
 5298TIP3   OH237452   6.683   3.162   6.890  0.2616 -0.5820  0.2555
 5298TIP3    H137453   6.776   3.142   6.896  0.2930 -0.6366 -0.3497
 5298TIP3    H237454   6.676   3.219   6.814 -0.2128 -0.6424  0.2515
 5299TIP3   OH237455   5.371   4.144   0.748  0.0853  0.3876 -0.1388
 5299TIP3    H137456   5.466   4.148   0.750  0.1309  0.0678 -1.1288
 5299TIP3    H237457   5.344   4.158   0.839  1.0943 -0.1691  0.2585
 5300TIP3   OH237458   3.574   0.879   7.133  0.2300  0.4398 -0.1644
 5300TIP3    H137459   3.593   0.968   7.165  0.7851  0.5842 -0.8609
 5300TIP3    H237460   3.479   0.875   7.127  0.2168  1.1396 -0.5180
 5301TIP3   OH237461   2.052   1.726   7.235  0.1019  0.0336  0.8818
 5301TIP3    H137462   2.147   1.716   7.229 -0.0779 -1.4726  0.0924
 5301TIP3    H237463   2.018   1.663   7.172 -1.4041  1.4441  0.2410
 5302TIP3   OH237464   3.478   0.957   1.615  0.2835  0.4063  0.0255
 5302TIP3    H137465   3.517   1.025   1.560  0.1911 -0.2605 -0.8892
 5302TIP3    H237466   3.510   0.976   1.703  1.8549  0.4774 -0.5341
 5303TIP3   OH237467   4.307   3.468   0.939 -0.1629 -0.1509  0.0178
 5303TIP3    H137468   4.325   3.467   1.033  0.9544  1.7464 -0.1290
 5303TIP3    H237469   4.263   3.385   0.922  0.4505 -0.9382  2.0470
 5304TIP3   OH237470   4.170   0.364   6.878 -0.0362  0.8906 -0.1404
 5304TIP3    H137471   4.211   0.445   6.846 -0.0502  1.0301  0.1907
 5304TIP3    H237472   4.078   0.387   6.888  0.2736  1.4571  1.8935
 5305TIP3   OH237473   1.087   0.333   7.669  0.6891  0.1841  0.0041
 5305TIP3    H137474   1.127   0.248   7.651 -0.2550 -0.2796  0.0069
 5305TIP3    H237475   1.035   0.352   7.591 -0.2637  0.0570  0.5848
 5306TIP3   OH237476   3.657   3.978   2.424 -0.0090 -0.1334  0.2533
 5306TIP3    H137477   3.579   4.001   2.474  0.1997  0.7086  0.2118
 5306TIP3    H237478   3.690   4.062   2.391  2.0361 -0.1822  1.9221
 5307TIP3   OH237479   0.639   4.941   6.600  0.2694 -0.0094 -1.0713
 5307TIP3    H137480   0.554   4.896   6.602  0.7045 -0.8249 -0.4904
 5307TIP3    H237481   0.697   4.880   6.553  0.7389  0.1688 -0.7261
 5308TIP3   OH237482   2.636   6.703   1.115  0.2356  0.4034  0.8092
 5308TIP3    H137483   2.605   6.626   1.162  1.3790 -1.1629 -0.8564
 5308TIP3    H237484   2.728   6.685   1.097  0.5263  2.1686  0.3462
 5309TIP3   OH237485   6.710   3.049   1.657  0.3776  0.0192  0.3468
 5309TIP3    H137486   6.685   2.957   1.646 -1.2878  0.5362 -0.3329
 5309TIP3    H237487   6.740   3.054   1.748  0.1077 -1.1012  0.5156
 5310TIP3   OH237488   4.239   5.483   2.071  0.0221  0.3656  0.5637
 5310TIP3    H137489   4.212   5.517   2.156 -1.0996 -0.0456  0.3954
 5310TIP3    H237490   4.328   5.451   2.085 -0.1660  0.2464  1.6002
 5311TIP3   OH237491   0.756   6.169   0.511  0.0054 -0.2712  0.0500
 5311TIP3    H137492   0.804   6.115   0.574  0.7598  0.0263 -0.2552
 5311TIP3    H237493   0.799   6.151   0.427 -0.3596  0.0812 -0.2137
 5312TIP3   OH237494   3.367   6.915   1.208  0.0991 -0.2142  0.0446
 5312TIP3    H137495   3.371   7.006   1.240  0.1166 -0.1626 -0.1028
 5312TIP3    H237496   3.450   6.902   1.162 -0.5794  0.2480 -1.3938
 5313TIP3   OH237497   0.276   3.664   0.288  0.4987 -0.0522  0.4664
 5313TIP3    H137498   0.271   3.641   0.381  2.2781 -1.5004  0.2521
 5313TIP3    H237499   0.222   3.599   0.244  2.3629 -1.5276  0.2298
 5314TIP3   OH237500   6.918   3.223   7.894  0.4354  0.6545  0.1511
 5314TIP3    H137501   6.960   3.153   7.845  1.0476 -0.3463  2.0233
 5314TIP3    H237502   6.824   3.206   7.886  0.5548  0.1258 -0.1191
 5315TIP3   OH237503   5.550   5.706   6.285 -0.0148  0.1598 -0.2596
 5315TIP3    H137504   5.500   5.786   6.272 -0.5778 -0.5034 -2.5530
 5315TIP3    H237505   5.639   5.737   6.305 -0.2540  1.3680 -0.9535
 5316TIP3   OH237506   3.837   1.600   6.269  0.4324  0.3643  0.3676
 5316TIP3    H137507   3.814   1.660   6.198 -0.3666 -0.3047  0.0398
 5316TIP3    H237508   3.893   1.534   6.229  2.0119  1.3299  0.9114
 5317TIP3   OH237509   5.405   1.086   7.954  0.4187  0.2531  0.1854
 5317TIP3    H137510   5.320   1.050   7.928  1.1517 -0.7773 -0.9353
 5317TIP3    H237511   5.440   1.124   7.873  1.2104  0.2382  0.5101
 5318TIP3   OH237512   1.729   1.869   7.647 -0.1707 -0.3353  0.7563
 5318TIP3    H137513   1.780   1.843   7.570 -0.0971 -0.2261  0.7674
 5318TIP3    H237514   1.639   1.848   7.624 -0.5157  2.0289 -0.4105
 5319TIP3   OH237515   4.102   0.785   7.826 -0.9015  0.2212 -0.3014
 5319TIP3    H137516   4.084   0.845   7.754 -1.4163 -1.0008 -1.2146
 5319TIP3    H237517   4.019   0.777   7.873 -1.3570 -1.2186 -1.3063
 5320TIP3   OH237518   4.038   5.194   7.489  0.1028 -0.4743 -0.6087
 5320TIP3    H137519   4.036   5.138   7.566 -0.3634  2.0799  1.3782
 5320TIP3    H237520   4.078   5.140   7.420  2.5162 -2.2303  1.9484
 5321TIP3   OH237521   4.003   2.128   7.260  0.2986 -0.4594 -0.0883
 5321TIP3    H137522   4.042   2.195   7.205  0.5749 -1.0199 -0.5829
 5321TIP3    H237523   3.948   2.077   7.201 -0.7672 -0.0163  0.4906
 5322TIP3   OH237524   0.776   5.687   7.006 -0.2877  0.2966  0.5412
 5322TIP3    H137525   0.853   5.698   7.061 -1.6818  4.1601  2.0776
 5322TIP3    H237526   0.794   5.741   6.929 -1.4860  1.4592  1.0398
 5323TIP3   OH237527   6.378   0.397   7.520  0.1991 -0.5968 -0.3832
 5323TIP3    H137528   6.329   0.383   7.439  2.0008 -1.6652 -1.3491
 5323TIP3    H237529   6.392   0.492   7.523 -0.4608 -0.4717 -0.9550
 5324TIP3   OH237530   2.733   0.354   7.299  0.1334 -0.2718 -0.6271
 5324TIP3    H137531   2.725   0.448   7.287 -0.3899 -0.2496 -0.0806
 5324TIP3    H237532   2.690   0.335   7.382 -1.8806 -1.3151 -1.8330
 5325TIP3   OH237533   1.828   4.481   7.212  0.1173 -0.4045  0.2258
 5325TIP3    H137534   1.775   4.508   7.137  0.6134  0.3631  0.1352
 5325TIP3    H237535   1.846   4.389   7.198  0.6159 -0.1546 -0.8616
 5326TIP3   OH237536   3.577   3.187   6.811  0.5708  0.5510  0.1884
 5326TIP3    H137537   3.522   3.204   6.735 -0.6629 -1.2415  0.6146
 5326TIP3    H237538   3.651   3.247   6.802 -0.2380  1.3194 -1.6829
 5327TIP3   OH237539   7.000   5.843   2.734 -0.5244  0.0479 -0.1284
 5327TIP3    H137540   7.012   5.751   2.755  0.6000  0.0535 -0.6741
 5327TIP3    H237541   6.984   5.845   2.639  1.6299  0.5441 -0.5337
 5328TIP3   OH237542   3.564   4.041   2.002 -0.5439  0.3783 -0.3004
 5328TIP3    H137543   3.635   4.105   2.009  2.6032 -3.0134  2.4785
 5328TIP3    H237544   3.501   4.068   2.069  0.5393  0.7791  0.5862
 5329TIP3   OH237545   5.978   2.422   0.876  0.3494  0.7941  0.1014
 5329TIP3    H137546   5.893   2.381   0.890  0.1928  1.1549  0.2423
 5329TIP3    H237547   5.986   2.431   0.781  1.1817 -1.1923 -0.0753
 5330TIP3   OH237548   3.426   6.566   1.120 -0.0449 -0.1674  0.5458
 5330TIP3    H137549   3.332   6.578   1.129  0.4397  3.1679  3.0740
 5330TIP3    H237550   3.453   6.525   1.202  0.8831  0.1677  0.4159
 5331TIP3   OH237551   6.548   2.511   1.833  0.7833 -0.2773 -0.0602
 5331TIP3    H137552   6.578   2.421   1.833 -0.5333 -0.7316  0.0161
 5331TIP3    H237553   6.473   2.512   1.773  1.0336  0.8533 -0.3833
 5332TIP3   OH237554   2.680   2.431   0.803 -0.1946 -0.2745  0.6401
 5332TIP3    H137555   2.757   2.483   0.785 -0.6576 -0.1076 -1.0642
 5332TIP3    H237556   2.609   2.475   0.755 -0.7807 -1.9126 -0.0807
 5333TIP3   OH237557   5.737   6.525   1.365 -0.5988 -0.2727  0.2104
 5333TIP3    H137558   5.650   6.486   1.371 -1.0229  0.5372 -0.4110
 5333TIP3    H237559   5.789   6.462   1.316 -0.3387 -1.5546  2.0447
 5334TIP3   OH237560   3.173   2.944   1.271  0.3329 -0.2113 -0.1037
 5334TIP3    H137561   3.261   2.919   1.298  0.2280  0.9748  1.4511
 5334TIP3    H237562   3.185   3.017   1.211  0.3978  0.9415  1.2643
 5335TIP3   OH237563   5.631   4.020   0.743  0.6523 -0.1213  0.2577
 5335TIP3    H137564   5.632   3.945   0.803  2.0675 -0.9144 -0.6790
 5335TIP3    H237565   5.718   4.059   0.753  0.8073 -0.1056 -1.0371
 5336TIP3   OH237566   1.863   0.139   1.859  0.0466 -0.2265 -0.1230
 5336TIP3    H137567   1.869   0.151   1.953 -0.3150 -0.3866 -0.0752
 5336TIP3    H237568   1.769   0.149   1.839 -0.2639 -2.4950 -0.1164
 5337TIP3   OH237569   1.239   0.286   7.976  0.1479  0.7586 -0.2829
 5337TIP3    H137570   1.320   0.240   7.955 -0.1325  0.0325  0.1673
 5337TIP3    H237571   1.245   0.304   8.070 -1.4027 -1.8429  0.4256
 5338TIP3   OH237572   5.923   4.390   1.894 -0.4532 -0.9278  0.0135
 5338TIP3    H137573   5.934   4.430   1.807 -0.2159  0.3412  0.6095
 5338TIP3    H237574   5.876   4.309   1.877 -2.5608  0.4314 -1.0821
 5339TIP3   OH237575   1.668   6.395   0.068 -0.0982  0.1125 -0.1932
 5339TIP3    H137576   1.733   6.333   0.035  0.2867  0.2208  0.3514
 5339TIP3    H237577   1.707   6.481   0.054  0.4994  0.1257  1.4182
 5340TIP3   OH237578   6.495   4.209   7.545  0.1868 -1.1746  0.1887
 5340TIP3    H137579   6.572   4.231   7.598 -0.1620 -1.0520  0.6566
 5340TIP3    H237580   6.443   4.290   7.546  0.1124 -1.2200 -0.2268
 5341TIP3   OH237581   5.409   6.442   2.806 -0.3360 -0.3140  0.0592
 5341TIP3    H137582   5.362   6.519   2.838 -1.4731 -0.4476 -1.1913
 5341TIP3    H237583   5.446   6.470   2.722 -0.0855 -0.8939 -0.0262
 5342TIP3   OH237584   0.125   0.778   0.610 -0.2450 -0.1967 -0.1884
 5342TIP3    H137585   0.084   0.761   0.525 -0.3793  0.8184 -0.3413
 5342TIP3    H237586   0.078   0.722   0.672 -1.5412  0.5669 -0.4433
 5343TIP3   OH237587   4.925   6.325   0.683  0.6217 -0.0632 -0.1194
 5343TIP3    H137588   4.834   6.296   0.687  0.6308  0.0580  1.2037
 5343TIP3    H237589   4.964   6.271   0.613 -0.5887  0.3006 -1.1031
 5344TIP3   OH237590   3.918   5.238   1.296 -0.3456 -0.3149 -0.2272
 5344TIP3    H137591   3.855   5.271   1.232  0.9509 -0.5607 -1.6718
 5344TIP3    H237592   4.003   5.245   1.253  0.4840 -1.2392  1.1659
 5345TIP3   OH237593   1.287   2.368   1.121 -0.4233 -0.0242  0.2039
 5345TIP3    H137594   1.205   2.415   1.139  0.9549  3.2283 -1.1000
 5345TIP3    H237595   1.295   2.371   1.026  2.9179  3.3805  0.3599
 5346TIP3   OH237596   3.903   4.205   1.371 -0.3655 -0.4261 -0.2648
 5346TIP3    H137597   3.837   4.224   1.438 -0.2622 -0.5981 -0.1136
 5346TIP3    H237598   3.899   4.110   1.360  1.5570 -0.7866  1.5187
 5347TIP3   OH237599   3.787   6.464   0.143 -0.5537  0.4537 -0.3396
 5347TIP3    H137600   3.824   6.537   0.094  0.3426  0.2444  0.0079
 5347TIP3    H237601   3.804   6.486   0.235  0.5490 -0.6064 -0.2635
 5348TIP3   OH237602   6.868   6.589   6.899 -0.1597  0.3024 -0.6009
 5348TIP3    H137603   6.862   6.664   6.840  2.6681 -0.7370 -2.3858
 5348TIP3    H237604   6.952   6.549   6.879  0.0376 -1.3457  2.7605
 5349TIP3   OH237605   5.477   6.897   6.536 -0.0591 -0.3821 -0.4471
 5349TIP3    H137606   5.515   6.816   6.570  0.2586 -0.1844 -0.3254
 5349TIP3    H237607   5.388   6.873   6.511 -0.6103 -0.3338  1.3529
 5350TIP3   OH237608   0.282   4.424   7.875  0.2330  0.0846 -0.3073
 5350TIP3    H137609   0.305   4.461   7.959 -2.4874 -0.1404  0.6381
 5350TIP3    H237610   0.304   4.492   7.811  2.7881  0.0587  0.4597
 5351TIP3   OH237611   5.083   5.694   2.204 -0.4910 -0.2588 -0.1095
 5351TIP3    H137612   5.032   5.725   2.278 -0.1505  0.6306 -0.2305
 5351TIP3    H237613   5.174   5.712   2.228 -0.2366 -1.6222  0.0145
 5352TIP3   OH237614   5.847   6.357   2.882 -0.0747 -0.3556  0.0521
 5352TIP3    H137615   5.878   6.331   2.969 -0.1341  2.5582  1.0541
 5352TIP3    H237616   5.755   6.330   2.881 -0.0362 -0.5627  0.8304
 5353TIP3   OH237617   3.728   1.749   7.726  0.2491  0.3755 -0.1002
 5353TIP3    H137618   3.815   1.710   7.733  0.7148  1.3103 -0.5547
 5353TIP3    H237619   3.732   1.826   7.783 -0.5333 -0.0003  0.4810
 5354TIP3   OH237620   3.311   4.189   7.864 -0.4633  0.3454  0.1609
 5354TIP3    H137621   3.239   4.202   7.926 -1.3122 -0.4069 -0.6496
 5354TIP3    H237622   3.277   4.221   7.781  1.1661  2.6979  0.2942
 5355TIP3   OH237623   5.262   6.406   6.632  0.5461  0.6682 -0.0643
 5355TIP3    H137624   5.266   6.413   6.728 -2.1310 -0.4546  0.2142
 5355TIP3    H237625   5.222   6.488   6.604  0.3347  0.5476 -0.1140
 5356TIP3   OH237626   0.198   1.039   0.817 -0.2447 -0.3512 -0.1035
 5356TIP3    H137627   0.151   1.068   0.739 -0.6013 -0.1381  0.1869
 5356TIP3    H237628   0.145   1.070   0.891  0.3174 -0.1631  0.2310
 5357TIP3   OH237629   2.648   0.344   6.852 -0.0421 -0.0435  0.3132
 5357TIP3    H137630   2.664   0.331   6.759  0.8906  1.1192  0.2814
 5357TIP3    H237631   2.679   0.264   6.894 -1.5377 -1.0596 -0.4422
 5358TIP3   OH237632   2.395   2.839   0.345 -1.1159  0.6913  0.1158
 5358TIP3    H137633   2.352   2.867   0.425 -1.2942  1.1922 -0.1493
 5358TIP3    H237634   2.333   2.780   0.304 -0.8651  0.1346  0.5305
 5359TIP3   OH237635   4.478   5.606   6.705  0.0764 -0.6419  0.6625
 5359TIP3    H137636   4.425   5.531   6.675 -0.1570  0.0836 -0.8059
 5359TIP3    H237637   4.549   5.612   6.642  0.0843  0.3882  0.7564
 5360TIP3   OH237638   4.908   3.497   2.601  0.0097 -0.3764  0.2395
 5360TIP3    H137639   4.936   3.449   2.524 -1.1529  0.1588 -0.5439
 5360TIP3    H237640   4.956   3.580   2.597 -1.1601  0.2850 -0.7652
 5361TIP3   OH237641   5.427   0.929   7.030 -0.5359 -0.1966  0.6001
 5361TIP3    H137642   5.340   0.939   6.991 -0.1883  0.0397 -0.1239
 5361TIP3    H237643   5.488   0.949   6.959  0.1115  0.4496  1.3133
 5362TIP3   OH237644   0.838   4.288   1.755 -0.1223  0.2684 -0.7019
 5362TIP3    H137645   0.883   4.327   1.830  1.9937 -0.2166 -1.6689
 5362TIP3    H237646   0.900   4.225   1.719 -1.2023  0.2649 -2.6822
 5363TIP3   OH237647   1.757   2.595   6.406 -0.2151  0.5270 -0.4677
 5363TIP3    H137648   1.705   2.673   6.428 -0.2527  0.2154  0.5703
 5363TIP3    H237649   1.846   2.618   6.431 -0.6199 -0.7455  2.6369
 5364TIP3   OH237650   5.854   5.683   0.017  0.5267 -0.1457 -0.2427
 5364TIP3    H137651   5.873   5.606  -0.037  0.7955 -1.7102  1.9793
 5364TIP3    H237652   5.883   5.659   0.105 -3.9542  0.5546  1.6645
 5365TIP3   OH237653   4.035   6.762   1.407  0.3789  0.2257 -0.3430
 5365TIP3    H137654   4.067   6.834   1.463  1.5537 -1.6661  1.5523
 5365TIP3    H237655   3.985   6.807   1.338  0.6666  2.8320  0.9894
 5366TIP3   OH237656   0.903   0.267   1.060 -0.8291  0.2697 -0.1834
 5366TIP3    H137657   0.932   0.193   1.114  2.8742  2.4247  1.1290
 5366TIP3    H237658   0.916   0.344   1.115 -1.2794  2.2274 -2.6398
 5367TIP3   OH237659   5.243   0.424   1.966 -0.3839 -0.1620 -0.2864
 5367TIP3    H137660   5.255   0.504   2.017 -2.1790  0.3748 -0.6332
 5367TIP3    H237661   5.290   0.357   2.015 -0.7463  0.6547  1.2388
 5368TIP3   OH237662   7.121   4.854   1.354 -0.5129  0.3083  0.2657
 5368TIP3    H137663   7.152   4.920   1.415  1.1761  2.0523 -2.2821
 5368TIP3    H237664   7.188   4.784   1.358  0.3042  1.0206 -0.4537
 5369TIP3   OH237665   1.423   4.281   1.102  0.4688 -0.5605 -0.3930
 5369TIP3    H137666   1.490   4.251   1.164 -0.0866  1.5596  1.3688
 5369TIP3    H237667   1.353   4.315   1.157 -0.2903  0.9828 -2.1993
 5370TIP3   OH237668   3.855   2.266   1.009 -0.1522  0.0216 -0.9310
 5370TIP3    H137669   3.860   2.312   0.925 -0.2224  0.1753 -0.8494
 5370TIP3    H237670   3.916   2.192   0.998  0.6983  0.6750 -0.7197
 5371TIP3   OH237671   1.363   5.811   0.833  0.0242 -0.2754 -0.0772
 5371TIP3    H137672   1.385   5.753   0.905  0.2421  0.8761  0.8067
 5371TIP3    H237673   1.279   5.778   0.800 -0.7626 -0.0104  1.5851
 5372TIP3   OH237674   6.685   0.176   0.868  0.5741  0.4453  0.1346
 5372TIP3    H137675   6.672   0.271   0.868 -0.7837  0.2967  1.2807
 5372TIP3    H237676   6.633   0.145   0.942 -0.1378 -1.3603 -1.0585
 5373TIP3   OH237677   1.713   5.656   7.368  0.4431 -0.0395 -0.0396
 5373TIP3    H137678   1.720   5.687   7.459 -0.0336 -0.1605  0.0437
 5373TIP3    H237679   1.784   5.700   7.322 -0.1405  1.1015  0.0958
 5374TIP3   OH237680   4.644   3.958   7.010  0.0253 -0.5462 -0.2037
 5374TIP3    H137681   4.589   3.977   6.934  0.1424  2.0676  0.2542
 5374TIP3    H237682   4.590   3.985   7.085  1.0576 -0.0804  0.3909
 5375TIP3   OH237683   6.424   5.404   1.043 -0.4498  0.3551 -0.4913
 5375TIP3    H137684   6.395   5.494   1.025 -1.6112 -0.0671 -0.8069
 5375TIP3    H237685   6.448   5.369   0.957  1.3838  0.7987 -0.2015
 5376TIP3   OH237686   2.509   1.372   6.414 -0.5258  0.2337  0.6684
 5376TIP3    H137687   2.512   1.408   6.326 -2.2585 -3.7430 -1.2791
 5376TIP3    H237688   2.600   1.351   6.436 -0.2117 -0.0790 -0.8536
 5377TIP3   OH237689   0.458   3.668   1.192  0.7630  0.0983  0.0465
 5377TIP3    H137690   0.521   3.693   1.260 -0.1092  1.1477  0.5033
 5377TIP3    H237691   0.375   3.660   1.238  0.4176 -0.5729 -0.6710
 5378TIP3   OH237692   6.661   2.907   7.115 -0.1318 -0.0034  0.7902
 5378TIP3    H137693   6.683   2.988   7.161 -0.3512  0.2875  0.3970
 5378TIP3    H237694   6.648   2.934   7.024 -2.6696 -0.0314  1.0605
 5379TIP3   OH237695   5.408   1.740   7.107 -0.2267  0.4270 -0.5372
 5379TIP3    H137696   5.405   1.645   7.111  1.2762  0.3082 -1.2595
 5379TIP3    H237697   5.364   1.762   7.024 -0.3971  0.3452 -0.4687
 5380TIP3   OH237698   7.078   4.020   2.389  0.1445  0.0709  0.5350
 5380TIP3    H137699   7.054   3.934   2.422 -2.9548  0.1090 -1.2076
 5380TIP3    H237700   7.076   4.078   2.465 -0.4771 -0.9194  1.2811
 5381TIP3   OH237701   3.490   3.141   1.365 -0.5237  0.0650 -0.0534
 5381TIP3    H137702   3.555   3.149   1.435  1.0130  0.0905 -1.4215
 5381TIP3    H237703   3.417   3.196   1.394  0.2818  0.4785  1.2928
 5382TIP3   OH237704   3.782   3.950   2.675  0.5601  0.1453  0.6559
 5382TIP3    H137705   3.737   3.963   2.592  0.5686  0.6494  0.7293
 5382TIP3    H237706   3.745   4.016   2.734  1.6478  0.8083  0.6168
 5383TIP3   OH237707   4.977   3.076   7.156 -0.0689 -0.0419 -0.1462
 5383TIP3    H137708   4.991   2.981   7.149 -0.5236 -0.1247  0.0609
 5383TIP3    H237709   5.042   3.105   7.220 -2.3750 -0.8078  2.7777
 5384TIP3   OH237710   0.366   6.171   7.625  0.5352  0.3058  0.2521
 5384TIP3    H137711   0.426   6.225   7.676  1.4260 -0.5852  0.1863
 5384TIP3    H237712   0.362   6.214   7.539  0.4474  0.8119  0.5074
 5385TIP3   OH237713   4.578   3.539   6.049  0.4351 -0.3828 -0.0859
 5385TIP3    H137714   4.609   3.558   6.138 -0.4739 -0.1810  0.1939
 5385TIP3    H237715   4.488   3.510   6.060  0.7307 -1.6609 -0.8294
 5386TIP3   OH237716   2.428   4.939   1.052 -0.0865  0.1921 -0.5294
 5386TIP3    H137717   2.503   4.971   1.103 -2.4246  1.3668  2.4621
 5386TIP3    H237718   2.398   4.861   1.099 -0.5567 -0.5128 -1.9310
 5387TIP3   OH237719   6.079   6.800   1.716  0.4876 -0.1850 -0.7492
 5387TIP3    H137720   6.086   6.729   1.780  0.7539 -2.5730 -3.2724
 5387TIP3    H237721   6.163   6.844   1.720  0.6552 -0.5535  0.2095
 5388TIP3   OH237722   3.534   0.520   7.024  0.0383 -0.3421 -0.2649
 5388TIP3    H137723   3.451   0.498   7.066 -0.6286  0.2262 -1.2371
 5388TIP3    H237724   3.601   0.489   7.085 -0.8857 -0.2129  0.8410
 5389TIP3   OH237725   7.072   4.542   2.086 -0.2324  0.2785  0.1760
 5389TIP3    H137726   7.085   4.519   1.994  0.6768  0.0111  0.3613
 5389TIP3    H237727   6.991   4.594   2.087 -0.8986 -0.7151 -0.6001
 5390TIP3   OH237728   5.815   5.347   2.710 -0.4365 -0.0149  0.3777
 5390TIP3    H137729   5.849   5.420   2.658  0.0165  0.0714  0.7856
 5390TIP3    H237730   5.760   5.389   2.777  0.8682  0.0695  1.4255
 5391TIP3   OH237731   3.271   1.973   0.477 -0.0034 -0.0944 -0.3765
 5391TIP3    H137732   3.229   2.019   0.405 -0.2271 -0.3157 -0.3898
 5391TIP3    H237733   3.269   2.035   0.550  1.3000  0.5805 -0.8894
 5392TIP3   OH237734   5.007   2.296   7.475  0.4544 -0.0588  0.1140
 5392TIP3    H137735   5.054   2.235   7.532 -0.4603 -1.2792 -0.4010
 5392TIP3    H237736   5.008   2.254   7.389  0.5468  1.0742 -0.4501
 5393TIP3   OH237737   0.939   1.087   7.530 -0.9008 -0.1838 -0.3951
 5393TIP3    H137738   0.977   1.175   7.530 -0.4581 -0.3412 -1.9958
 5393TIP3    H237739   1.009   1.031   7.564 -1.1175  0.0409  0.4467
 5394TIP3   OH237740   2.750   2.667   1.015 -0.3162 -0.1498  0.7967
 5394TIP3    H137741   2.832   2.626   0.988 -0.4199 -1.1028  1.8889
 5394TIP3    H237742   2.701   2.678   0.933 -0.6509 -3.0463  0.5122
 5395TIP3   OH237743   6.412   6.315   1.485  0.0285  0.1271 -0.3930
 5395TIP3    H137744   6.416   6.236   1.539 -0.8191  0.0692 -0.3927
 5395TIP3    H237745   6.501   6.349   1.485  0.7862 -1.7102 -1.7309
 5396TIP3   OH237746   1.792   6.492   7.205 -0.9384  0.5518  0.3112
 5396TIP3    H137747   1.745   6.533   7.133  0.2308  0.1635 -0.7199
 5396TIP3    H237748   1.783   6.553   7.278 -2.1231  0.9691 -0.1683
 5397TIP3   OH237749   3.844   0.980   1.760 -0.1658 -0.0358  0.1394
 5397TIP3    H137750   3.887   1.056   1.800 -0.7680  0.9480 -1.0210
 5397TIP3    H237751   3.883   0.974   1.673  0.1249 -1.2978  0.3393
 5398TIP3   OH237752   1.154   3.644   7.423 -0.0051  0.0269 -0.1248
 5398TIP3    H137753   1.248   3.636   7.437 -0.1477 -0.6480  0.5478
 5398TIP3    H237754   1.116   3.575   7.477 -0.8462 -0.1913 -0.9679
 5399TIP3   OH237755   5.744   4.480   7.179 -0.3397 -0.3644 -0.2729
 5399TIP3    H137756   5.803   4.412   7.146 -0.9752 -1.1040  0.0978
 5399TIP3    H237757   5.741   4.545   7.109  2.8150  0.9287  0.6075
 5400TIP3   OH237758   7.004   5.996   2.230 -0.2529 -0.7878 -0.2179
 5400TIP3    H137759   7.006   5.952   2.315  0.8437 -0.2534  0.0656
 5400TIP3    H237760   7.024   6.088   2.251 -0.1263 -0.6200 -1.0325
 5401TIP3   OH237761   5.609   1.670   7.773 -0.1188  0.7638 -0.0552
 5401TIP3    H137762   5.550   1.668   7.849  0.5541 -0.4142  0.4695
 5401TIP3    H237763   5.696   1.680   7.811  0.1910  0.5533 -0.6965
 5402TIP3   OH237764   3.759   3.348   2.548  0.1145 -0.2003 -0.2427
 5402TIP3    H137765   3.845   3.336   2.587 -0.7398 -1.7618  1.2866
 5402TIP3    H237766   3.741   3.265   2.503 -0.8263 -0.1007 -0.0678
 5403TIP3   OH237767   4.888   3.444   7.874  0.7357 -0.0258  0.0670
 5403TIP3    H137768   4.799   3.466   7.846  0.9351 -0.9474 -1.3837
 5403TIP3    H237769   4.877   3.405   7.961 -0.1765  0.6286  0.2597
 5404TIP3   OH237770   6.146   0.684   0.363  0.5282  0.1085 -0.1454
 5404TIP3    H137771   6.190   0.742   0.301 -0.1585 -0.9144 -1.6410
 5404TIP3    H237772   6.053   0.694   0.345  0.3613 -0.8533  0.1054
 5405TIP3   OH237773   5.431   0.660   6.914  0.0017  0.3563 -1.1125
 5405TIP3    H137774   5.482   0.593   6.961  0.0997  0.2571 -1.3588
 5405TIP3    H237775   5.409   0.724   6.981 -0.8963 -0.3935 -0.6827
 5406TIP3   OH237776   0.537   4.144   1.239  0.7311  0.0343  0.2090
 5406TIP3    H137777   0.544   4.229   1.196  0.2727 -0.1827 -0.3069
 5406TIP3    H237778   0.528   4.081   1.167  0.7614 -0.4217  0.5928
 5407TIP3   OH237779   1.955   3.352   7.837  0.5395 -0.5658 -0.4722
 5407TIP3    H137780   1.983   3.287   7.900  0.3533 -2.3247 -2.0901
 5407TIP3    H237781   1.875   3.315   7.798 -0.7214  1.5636 -0.0825
 5408TIP3   OH237782   3.210   6.510   7.690  0.1257  0.1383  0.6465
 5408TIP3    H137783   3.173   6.453   7.622 -1.3925  0.0643  1.4953
 5408TIP3    H237784   3.293   6.469   7.713 -0.0938 -0.7286 -0.0395
 5409TIP3   OH237785   0.679   6.266   6.405  0.7576  0.0996 -0.1231
 5409TIP3    H137786   0.719   6.233   6.325  2.0828  1.3259 -0.0086
 5409TIP3    H237787   0.590   6.291   6.379  1.3484  1.0205 -1.3683
 5410TIP3   OH237788   0.775   2.551   2.201 -0.1811  0.7469  0.0058
 5410TIP3    H137789   0.866   2.582   2.212  0.0800  0.2707 -0.7727
 5410TIP3    H237790   0.726   2.600   2.267  1.0958 -1.0658  2.5037
 5411TIP3   OH237791   6.321   2.664   7.207  0.4506  0.4157  0.7329
 5411TIP3    H137792   6.323   2.583   7.258  1.1970 -1.2865 -1.8132
 5411TIP3    H237793   6.228   2.682   7.195  0.2781 -0.3334  0.9076
 5412TIP3   OH237794   6.120   4.844   7.288  0.7616 -0.3366 -0.4922
 5412TIP3    H137795   6.207   4.816   7.256 -0.4829 -1.8869 -2.8470
 5412TIP3    H237796   6.098   4.781   7.356  0.4315 -1.6499 -1.7521
 5413TIP3   OH237797   2.283   2.518   1.029 -0.0834 -0.0303  0.1704
 5413TIP3    H137798   2.315   2.600   0.991 -2.2442  0.7862  0.0044
 5413TIP3    H237799   2.228   2.479   0.961 -2.1665  0.3119  1.5585
 5414TIP3   OH237800   2.128   5.124   1.417 -0.1969 -0.0153 -0.5787
 5414TIP3    H137801   2.070   5.117   1.493  0.5917  1.6578  0.2477
 5414TIP3    H237802   2.141   5.034   1.387  0.0640 -0.8128  1.7353
 5415TIP3   OH237803   0.370   6.202   0.246 -0.0498 -0.1076  0.2313
 5415TIP3    H137804   0.324   6.151   0.179 -0.9402 -0.8999  1.4111
 5415TIP3    H237805   0.329   6.288   0.243  1.8088  0.8158 -2.1352
 5416TIP3   OH237806   5.310   6.904   1.169  0.8603  0.2172  0.0557
 5416TIP3    H137807   5.221   6.910   1.134 -0.5273  0.1633  3.2411
 5416TIP3    H237808   5.342   6.820   1.138  0.2638  0.7037 -2.0395
 5417TIP3   OH237809   0.533   2.475   7.837 -0.3062  0.3138 -0.3778
 5417TIP3    H137810   0.558   2.474   7.929 -0.6303  1.7847 -0.2559
 5417TIP3    H237811   0.591   2.540   7.797 -0.4335 -0.0269 -1.1513
 5418TIP3   OH237812   3.049   2.643   0.507 -0.6430  0.2804 -0.5565
 5418TIP3    H137813   3.045   2.718   0.447 -1.6403  0.5305 -0.1890
 5418TIP3    H237814   3.142   2.636   0.530 -0.3422  0.5821 -1.6180
 5419TIP3   OH237815   0.182   3.646   0.548  0.0245 -0.4375 -0.7433
 5419TIP3    H137816   0.134   3.713   0.597 -0.7341  1.3022 -3.6170
 5419TIP3    H237817   0.134   3.565   0.564  0.4829 -0.2288  2.1891
 5420TIP3   OH237818   6.357   6.834   7.987 -0.3094 -0.3950 -0.1379
 5420TIP3    H137819   6.297   6.764   7.961 -1.8954  1.2042 -1.0299
 5420TIP3    H237820   6.399   6.862   7.905 -1.2640  1.0494 -0.1786
 5421TIP3   OH237821   6.163   6.753   6.833  0.0719  0.5282 -0.3119
 5421TIP3    H137822   6.087   6.769   6.777 -1.4763 -0.2853  1.4473
 5421TIP3    H237823   6.181   6.837   6.874 -0.7579  0.4319  0.2740
 5422TIP3   OH237824   5.227   1.721   2.175  0.6349 -0.4469  0.0368
 5422TIP3    H137825   5.206   1.672   2.254 -2.0986 -0.9117 -0.8546
 5422TIP3    H237826   5.248   1.654   2.110  0.2980 -0.2518 -0.2813
 5423TIP3   OH237827   5.775   1.266   7.570  0.2032 -0.1101  0.0937
 5423TIP3    H137828   5.726   1.292   7.492  0.0954 -0.7693 -0.0654
 5423TIP3    H237829   5.754   1.173   7.582 -0.9454  0.3144  1.7543
 5424TIP3   OH237830   0.543   1.412   0.662  0.1951 -0.1786  0.8085
 5424TIP3    H137831   0.486   1.470   0.713 -1.0496 -1.0834  0.4895
 5424TIP3    H237832   0.496   1.397   0.581  1.5717  0.2016 -0.0977
 5425TIP3   OH237833   5.149   6.438   0.873  0.5390 -0.0367  0.6469
 5425TIP3    H137834   5.091   6.429   0.798 -1.3552  1.3677  1.8671
 5425TIP3    H237835   5.129   6.362   0.928  0.5343 -0.0407  0.6398
 5426TIP3   OH237836   1.671   6.845   7.689 -0.1415  0.4056  0.1867
 5426TIP3    H137837   1.766   6.838   7.676  0.5395  0.9456  3.7802
 5426TIP3    H237838   1.636   6.762   7.658  1.1766  0.8362 -2.8449
 5427TIP3   OH237839   4.957   2.043   1.918 -0.3635 -1.1048 -0.2640
 5427TIP3    H137840   4.871   2.083   1.905  1.2706  2.3498 -1.6867
 5427TIP3    H237841   4.953   2.004   2.005 -2.4995  1.5122  0.9488
 5428TIP3   OH237842   2.503   3.634   0.953  0.0883 -0.4906 -0.0302
 5428TIP3    H137843   2.447   3.563   0.922 -0.9196  0.7207 -1.0972
 5428TIP3    H237844   2.442   3.702   0.983  0.9016  1.1283 -1.8209
 5429TIP3   OH237845   3.763   4.887   6.975 -0.0625 -0.8166 -0.1110
 5429TIP3    H137846   3.709   4.955   7.015  0.7887  0.2239 -0.6920
 5429TIP3    H237847   3.844   4.931   6.951  0.5164 -2.0473 -0.4914
 5430TIP3   OH237848   0.387   6.423   6.929  0.3729 -0.4656  0.1818
 5430TIP3    H137849   0.405   6.501   6.876 -0.3215 -0.4933 -0.1054
 5430TIP3    H237850   0.473   6.397   6.963  0.4923  0.9665  1.0501
 5431TIP3   OH237851   5.296   4.322   2.961 -0.2905  0.3457  0.1849
 5431TIP3    H137852   5.338   4.391   2.909 -0.8930  0.5460 -0.0335
 5431TIP3    H237853   5.269   4.365   3.041  0.1446  0.1556  0.4394
 5432TIP3   OH237854   6.770   4.604   2.069  0.4598  0.1621  0.0061
 5432TIP3    H137855   6.778   4.697   2.090 -0.1215  0.4432 -0.9515
 5432TIP3    H237856   6.711   4.601   1.993  1.8179 -0.8485 -1.0674
 5433TIP3   OH237857   2.319   3.200   7.770 -0.0293 -0.0491  0.0169
 5433TIP3    H137858   2.249   3.152   7.813 -0.2946 -0.5614 -0.9503
 5433TIP3    H237859   2.348   3.264   7.835 -1.1788 -0.0397  0.5440
 5434TIP3   OH237860   0.974   5.129   1.367  0.4729 -0.2100  0.1162
 5434TIP3    H137861   0.909   5.065   1.397  1.4394 -0.5844  1.4512
 5434TIP3    H237862   1.045   5.077   1.331  1.4749  0.0395  1.6237
 5435TIP3   OH237863   4.494   4.448   0.483 -0.3052 -0.2731 -0.0454
 5435TIP3    H137864   4.435   4.500   0.539  1.0819  1.2043  0.1025
 5435TIP3    H237865   4.558   4.410   0.544 -0.3268 -0.8182 -0.3546
 5436TIP3   OH237866   4.745   2.052   2.198  0.1993  0.2498  0.2890
 5436TIP3    H137867   4.701   1.967   2.208  0.0358  0.4262  1.1367
 5436TIP3    H237868   4.834   2.036   2.228  1.5335 -0.7160 -3.5665
 5437TIP3   OH237869   6.100   3.734   2.229  0.7721  0.6190 -0.0121
 5437TIP3    H137870   6.146   3.672   2.285 -0.7554  0.4313  1.0868
 5437TIP3    H237871   6.008   3.727   2.255  0.0054  0.6704 -2.3912
 5438TIP3   OH237872   2.642   6.110   0.071 -0.2738  0.2510 -0.6380
 5438TIP3    H137873   2.590   6.053   0.127 -0.1262 -0.4362 -1.1798
 5438TIP3    H237874   2.714   6.055   0.041  0.6780  1.1334 -0.0371
 5439TIP3   OH237875   5.453   1.732   0.948  0.2301 -0.0788 -0.1958
 5439TIP3    H137876   5.382   1.794   0.934  0.4177  0.5876  1.5660
 5439TIP3    H237877   5.530   1.786   0.965  0.7000 -0.7924 -0.0183
 5440TIP3   OH237878   6.421   0.829   2.810 -0.6335  0.5042  0.0422
 5440TIP3    H137879   6.368   0.857   2.885 -0.7131  1.1463 -0.2545
 5440TIP3    H237880   6.441   0.909   2.763 -1.7841 -0.0191 -1.4327
 5441TIP3   OH237881   0.122   3.456   7.481 -0.4944 -0.6499  0.3933
 5441TIP3    H137882   0.047   3.396   7.474 -0.1794 -1.1692  1.3128
 5441TIP3    H237883   0.094   3.520   7.547 -0.3086 -0.5747  0.3981
 5442TIP3   OH237884   2.103   6.070   7.199  0.1300 -0.0254  0.4643
 5442TIP3    H137885   2.049   6.032   7.130  0.9979  0.2110 -0.3554
 5442TIP3    H237886   2.054   6.147   7.228  0.1763  0.3773 -0.5011
 5443TIP3   OH237887   4.832   4.033   1.310 -0.2837 -0.3873  0.2983
 5443TIP3    H137888   4.849   4.119   1.272 -0.6212  1.1813  3.3598
 5443TIP3    H237889   4.741   4.015   1.288 -0.0316 -0.2748 -0.8875
 5444TIP3   OH237890   5.179   4.398   0.745 -0.4851  0.4107 -0.5614
 5444TIP3    H137891   5.200   4.471   0.803  0.0786 -1.6536  1.9977
 5444TIP3    H237892   5.256   4.341   0.749 -0.8728 -0.3519 -2.5623
 5445TIP3   OH237893   5.393   4.329   7.733 -0.5070 -0.0934 -0.0440
 5445TIP3    H137894   5.402   4.274   7.655  0.3821  0.5421 -0.4208
 5445TIP3    H237895   5.306   4.311   7.766 -1.2828  0.3043 -1.7470
 5446TIP3   OH237896   6.433   4.814   7.495 -0.4507  0.1638  0.0573
 5446TIP3    H137897   6.418   4.821   7.401  0.4731 -0.1643 -0.1250
 5446TIP3    H237898   6.396   4.894   7.532 -1.9488 -0.2724 -0.4308
 5447TIP3   OH237899   3.049   6.323   7.568 -0.0215 -0.4983 -0.0726
 5447TIP3    H137900   3.001   6.241   7.557 -2.1307  0.4059  1.6131
 5447TIP3    H237901   2.990   6.390   7.534  0.9143  0.5080  0.2276
 5448TIP3   OH237902   5.229   3.018   7.686 -0.2801 -0.1724 -0.6108
 5448TIP3    H137903   5.172   2.950   7.721 -1.5744  0.9444 -0.4874
 5448TIP3    H237904   5.170   3.081   7.644  0.5819  2.1519  1.4173
 5449TIP3   OH237905   0.733   6.858   0.253  0.4786 -0.2072 -0.0806
 5449TIP3    H137906   0.705   6.928   0.312 -0.8513 -0.5868 -0.2252
 5449TIP3    H237907   0.714   6.777   0.301 -0.1849 -0.5088 -0.8410
 5450TIP3   OH237908   4.304   6.422   7.391  0.6327  0.1825 -0.0882
 5450TIP3    H137909   4.273   6.485   7.326 -0.4098 -1.4647 -1.2648
 5450TIP3    H237910   4.303   6.471   7.474  0.3096  1.8230 -1.0152
 5451TIP3   OH237911   4.625   2.237   7.515  0.7702 -0.0399  0.5047
 5451TIP3    H137912   4.684   2.216   7.443  0.9891 -0.5291  0.8233
 5451TIP3    H237913   4.667   2.311   7.559  0.2676  0.7455 -0.2980
 5452TIP3   OH237914   5.434   1.316   2.792 -0.3593 -0.3716  0.4007
 5452TIP3    H137915   5.422   1.253   2.863  1.0081  1.1647  2.0971
 5452TIP3    H237916   5.526   1.341   2.797 -0.2213 -0.1434 -1.9208
 5453TIP3   OH237917   0.237   1.828   0.270 -0.4577 -0.0547  0.5476
 5453TIP3    H137918   0.245   1.923   0.280  0.2882 -0.1300  0.6595
 5453TIP3    H237919   0.241   1.813   0.176  2.1135 -0.2018  0.6328
 5454TIP3   OH237920   0.359   0.611   7.456 -0.2009 -0.1402  0.6712
 5454TIP3    H137921   0.365   0.703   7.483  2.4640 -0.1155  0.2647
 5454TIP3    H237922   0.420   0.565   7.514  0.0955 -1.2858 -0.5067
 5455TIP3   OH237923   5.009   1.183   7.760  0.1438 -0.0043  0.1159
 5455TIP3    H137924   5.055   1.235   7.694  0.4348  0.0485  0.3633
 5455TIP3    H237925   5.075   1.123   7.795  0.2100  0.5594  0.9826
 5456TIP3   OH237926   2.129   5.614   1.439 -0.0456  0.1092 -0.0512
 5456TIP3    H137927   2.048   5.565   1.455 -0.3873 -0.6618 -3.4298
 5456TIP3    H237928   2.181   5.557   1.383  2.6865  0.8314  1.5833
 5457TIP3   OH237929   5.675   6.724   1.163  0.4562  0.1254 -0.1032
 5457TIP3    H137930   5.710   6.667   1.232  1.3165 -0.6022 -1.0917
 5457TIP3    H237931   5.603   6.771   1.204 -0.6799 -2.0992  0.6469
 5458TIP3   OH237932   5.302   2.640   1.485 -0.2561  0.0101  0.2653
 5458TIP3    H137933   5.355   2.600   1.416  0.0818 -1.1282  1.1444
 5458TIP3    H237934   5.216   2.601   1.475 -0.4773  0.5928 -0.1225
 5459TIP3   OH237935   3.069   0.306   7.137 -0.3442 -0.3729 -0.7842
 5459TIP3    H137936   3.039   0.223   7.101  0.3473 -0.7677 -0.4588
 5459TIP3    H237937   3.000   0.369   7.113 -1.7124 -1.3518  0.3538
 5460TIP3   OH237938   0.419   6.207   7.940 -0.7687 -0.4222 -0.4602
 5460TIP3    H137939   0.366   6.266   7.995  1.1373 -0.6545  1.7957
 5460TIP3    H237940   0.377   6.122   7.951 -0.0131 -0.6172  1.3541
 5461TIP3   OH237941   4.199   2.093   6.589  0.4829  0.1366 -0.3621
 5461TIP3    H137942   4.185   2.008   6.632  0.0191  0.6684  0.5650
 5461TIP3    H237943   4.154   2.086   6.506 -1.3067  0.1673  0.5690
 5462TIP3   OH237944   6.435   0.326   2.392 -0.1850  0.3863 -0.1634
 5462TIP3    H137945   6.436   0.230   2.384  0.1343  0.2067  1.6067
 5462TIP3    H237946   6.359   0.344   2.447 -0.4765  1.1985 -0.8240
 5463TIP3   OH237947   0.720   2.505   7.467  0.9267 -0.1566  0.2430
 5463TIP3    H137948   0.777   2.523   7.392  2.1503 -1.0094  0.9508
 5463TIP3    H237949   0.631   2.521   7.433  1.5733  1.7808 -0.7048
 5464TIP3   OH237950   0.710   6.972   7.239  0.0244  0.6870  0.4101
 5464TIP3    H137951   0.768   7.005   7.170 -0.8606  1.4562  0.0249
 5464TIP3    H237952   0.643   6.923   7.193 -0.1096  0.5090  0.7923
 5465TIP3   OH237953   2.273   2.346   1.537  0.0114 -0.1063 -0.1907
 5465TIP3    H137954   2.271   2.426   1.484 -0.6441 -1.4884 -2.3851
 5465TIP3    H237955   2.182   2.317   1.539  0.4768 -1.7457 -1.0195
 5466TIP3   OH237956   5.408   2.488   7.840 -0.2387  0.1363  0.4230
 5466TIP3    H137957   5.338   2.423   7.840  0.0633 -0.2221 -1.3637
 5466TIP3    H237958   5.362   2.572   7.833 -0.4968 -0.1369 -1.5126
 5467TIP3   OH237959   1.811   5.085   0.154 -0.3577 -0.2269  0.2599
 5467TIP3    H137960   1.780   5.170   0.122  1.5496  0.1919 -0.6243
 5467TIP3    H237961   1.740   5.024   0.135 -0.7944  0.7373 -1.3307
 5468TIP3   OH237962   4.336   0.540   1.272 -0.1230 -0.4441 -0.1574
 5468TIP3    H137963   4.410   0.496   1.230 -0.1734 -1.2236  0.5655
 5468TIP3    H237964   4.283   0.470   1.309 -0.5392  0.1815  0.4658
 5469TIP3   OH237965   6.848   6.662   6.091 -0.3386 -0.4300 -0.1929
 5469TIP3    H137966   6.836   6.575   6.054 -1.2040 -0.3642 -0.0977
 5469TIP3    H237967   6.906   6.649   6.166 -3.1265 -1.5430  1.9542
 5470TIP3   OH237968   4.180   0.380   1.461  0.0252 -0.0015  0.3140
 5470TIP3    H137969   4.175   0.341   1.548 -1.2138  0.2577  0.3754
 5470TIP3    H237970   4.101   0.350   1.416  0.0870  0.7627 -0.3406
 5471TIP3   OH237971   1.649   3.962   0.489 -0.1482  0.1683 -0.1231
 5471TIP3    H137972   1.623   3.872   0.507  1.2918 -0.4128 -0.8198
 5471TIP3    H237973   1.673   3.963   0.397  1.1339  0.9182  0.1856
 5472TIP3   OH237974   6.563   0.525   6.854 -0.2266 -0.4143  0.4297
 5472TIP3    H137975   6.501   0.455   6.834  0.5280 -1.0661  0.3362
 5472TIP3    H237976   6.522   0.573   6.926 -0.2882 -1.5720  1.1940
 5473TIP3   OH237977   1.519   0.246   0.962  0.5075  0.1441  0.1617
 5473TIP3    H137978   1.468   0.207   1.034  0.5742  1.1587  0.7686
 5473TIP3    H237979   1.457   0.303   0.917  0.2551 -1.0513 -1.0830
 5474TIP3   OH237980   4.693   6.807   7.830 -0.1449 -0.5594  0.1036
 5474TIP3    H137981   4.602   6.813   7.860 -0.0994  1.1789 -0.0300
 5474TIP3    H237982   4.687   6.762   7.746 -0.8853 -0.4423  0.0830
 5475TIP3   OH237983   6.365   5.082   7.552 -1.0399  0.2124  0.2128
 5475TIP3    H137984   6.287   5.097   7.606 -1.3118  0.9368 -0.3559
 5475TIP3    H237985   6.406   5.169   7.544 -0.5032 -0.0522  0.0160
 5476TIP3   OH237986   1.610   1.228   6.955  0.3559 -0.0453 -0.1489
 5476TIP3    H137987   1.537   1.166   6.948  0.9598 -0.7041 -0.6406
 5476TIP3    H237988   1.654   1.223   6.870  0.4901  0.9679 -0.1512
 5477TIP3   OH237989   3.623   0.556   2.254 -0.3010  0.3055 -0.5818
 5477TIP3    H137990   3.553   0.515   2.204  0.1502 -0.0559 -0.9376
 5477TIP3    H237991   3.693   0.569   2.190 -0.0871  0.7647 -0.2604
 5478TIP3   OH237992   2.971   5.507   0.380  0.4101  0.4899 -0.2651
 5478TIP3    H137993   2.910   5.563   0.331 -0.3624 -1.0510 -1.1404
 5478TIP3    H237994   2.980   5.429   0.325  0.5923 -0.7164  1.4124
 5479TIP3   OH237995   0.415   6.256   1.590  0.2336  0.7794 -0.4400
 5479TIP3    H137996   0.478   6.220   1.527 -0.2597  0.8020 -0.9439
 5479TIP3    H237997   0.451   6.230   1.675  0.2149 -0.3974 -0.7677
 5480TIP3   OH237998   4.076   4.523   2.397 -0.1561  0.5780 -0.1910
 5480TIP3    H137999   4.002   4.469   2.368 -0.2197  0.0700  0.8555
 5480TIP3    H238000   4.036   4.601   2.436 -0.0777  1.1713 -1.2794
 5481TIP3   OH238001   2.007   5.430   0.820  0.1678  0.0751  0.0328
 5481TIP3    H138002   2.091   5.403   0.784 -0.0217  1.6235 -1.7326
 5481TIP3    H238003   1.942   5.376   0.774  0.0695  0.4638 -0.2939
 5482TIP3   OH238004   0.266   3.475   1.085 -0.0339 -0.0045 -0.3328
 5482TIP3    H138005   0.314   3.405   1.042  0.8783  0.7060 -0.5152
 5482TIP3    H238006   0.334   3.533   1.120 -0.6962 -0.7570  2.4624
 5483TIP3   OH238007   7.087   6.427   7.095 -0.2550 -0.5186 -0.6710
 5483TIP3    H138008   7.154   6.403   7.032 -0.8829  0.2551 -1.6530
 5483TIP3    H238009   7.036   6.346   7.108  1.5991 -1.5091  1.1024
 5484TIP3   OH238010   5.854   6.091   6.886 -0.4120 -0.7140 -0.4786
 5484TIP3    H138011   5.806   6.071   6.966  1.0014  1.2104  0.9787
 5484TIP3    H238012   5.913   6.017   6.873 -0.7328 -1.0889  0.2034
 5485TIP3   OH238013   2.216   4.081   1.017 -0.5009 -0.1416  0.1913
 5485TIP3    H138014   2.277   4.117   0.953 -1.2699 -0.6075 -0.8267
 5485TIP3    H238015   2.130   4.087   0.975 -1.0667 -0.1622  1.3101
 5486TIP3   OH238016   0.871   5.092   6.488  0.6522  0.1410 -0.0986
 5486TIP3    H138017   0.777   5.077   6.497  0.8646 -1.4911 -0.4017
 5486TIP3    H238018   0.912   5.014   6.526  1.9455  1.4536  1.3701
 5487TIP3   OH238019   6.402   6.009   0.855 -0.3608 -0.5176 -0.3578
 5487TIP3    H138020   6.401   5.933   0.912 -0.6646  0.5089  1.0524
 5487TIP3    H238021   6.432   6.081   0.911 -0.1508  0.4171 -1.6303
 5488TIP3   OH238022   5.691   6.237   7.585  0.3893 -0.0532  0.0019
 5488TIP3    H138023   5.691   6.167   7.520  0.2692  0.0791 -0.1450
 5488TIP3    H238024   5.701   6.193   7.669  1.5754 -0.1494 -0.1814
 5489TIP3   OH238025   0.792   6.469   7.768 -0.1033 -0.1608 -0.0000
 5489TIP3    H138026   0.806   6.561   7.749 -0.2462  0.4190  2.4204
 5489TIP3    H238027   0.707   6.466   7.812 -0.2784 -1.5190 -0.3712
 5490TIP3   OH238028   6.241   7.067   6.640  0.2692  0.9191  0.5191
 5490TIP3    H138029   6.194   7.026   6.568  0.7168  0.5907  0.4108
 5490TIP3    H238030   6.244   7.000   6.708  2.8104 -0.0139 -0.4158
 5491TIP3   OH238031   6.851   1.476   1.384 -0.4147 -0.1351 -0.0098
 5491TIP3    H138032   6.816   1.563   1.402  0.2688  0.8304 -2.8726
 5491TIP3    H238033   6.774   1.422   1.366 -0.8161 -0.0900  1.4455
 5492TIP3   OH238034   2.639   4.792   2.447  0.5075  0.0149 -0.2839
 5492TIP3    H138035   2.732   4.788   2.469  0.1706 -0.4130  1.1360
 5492TIP3    H238036   2.595   4.818   2.528 -0.7662 -1.4927 -0.4257
 5493TIP3   OH238037   3.058   5.780   7.413 -0.0404 -0.1495 -0.1299
 5493TIP3    H138038   3.124   5.824   7.466  1.1608 -1.9796  0.0166
 5493TIP3    H238039   3.012   5.850   7.368  1.1333  1.2648  0.7770
 5494TIP3   OH238040   5.469   1.281   2.495 -0.1117 -0.2880 -0.3984
 5494TIP3    H138041   5.465   1.333   2.575  1.6747  0.4702 -0.7587
 5494TIP3    H238042   5.411   1.326   2.434 -0.2162  0.0746 -0.0350
 5495TIP3   OH238043   3.520   4.341   2.008 -0.6055 -0.3810  0.1891
 5495TIP3    H138044   3.607   4.377   2.024 -1.1797  1.1827  0.0503
 5495TIP3    H238045   3.503   4.284   2.083  0.0414  0.3103  0.8784
 5496TIP3   OH238046   0.190   1.077   2.594 -0.3805  0.6652 -0.6049
 5496TIP3    H138047   0.259   1.054   2.531  1.9344  0.1741  1.9228
 5496TIP3    H238048   0.150   0.994   2.617  0.4818  0.5052  0.3731
 5497TIP3   OH238049   6.996   5.810   1.595 -0.3086 -0.2176 -0.4053
 5497TIP3    H138050   6.962   5.793   1.507  0.1793 -0.6744 -0.5104
 5497TIP3    H238051   6.918   5.826   1.648 -0.8723 -3.0332 -0.2463
 5498TIP3   OH238052   2.862   5.194   6.395  0.4200  1.2269  0.1983
 5498TIP3    H138053   2.955   5.177   6.412  0.1867  0.2805  0.6242
 5498TIP3    H238054   2.855   5.289   6.397  1.4072  1.3225  0.0188
 5499TIP3   OH238055   5.463   4.469   1.511 -0.1413  0.6185  0.1173
 5499TIP3    H138056   5.543   4.418   1.518 -1.1627 -1.1323 -0.2851
 5499TIP3    H238057   5.445   4.474   1.417  0.3502  2.4646  0.0771
 5500TIP3   OH238058   1.000   6.337   2.046 -0.2897  0.4976 -0.0103
 5500TIP3    H138059   0.977   6.315   2.137 -0.3192  2.6159  0.5412
 5500TIP3    H238060   1.054   6.263   2.017  1.5354  0.6995  2.4755
 5501TIP3   OH238061   6.683   5.665   0.683  0.2243 -0.7280 -0.1964
 5501TIP3    H138062   6.598   5.667   0.728  1.0435 -1.7043  1.4891
 5501TIP3    H238063   6.696   5.573   0.661  1.1922 -0.7032  0.2487
 5502TIP3   OH238064   0.165   5.718   0.534 -0.0751 -0.1959 -0.2157
 5502TIP3    H138065   0.082   5.763   0.549 -0.2928 -0.9010  0.8109
 5502TIP3    H238066   0.229   5.788   0.522 -0.2588  0.4434  2.0847
 5503TIP3   OH238067   0.947   1.196   6.899 -0.0258 -0.1321  0.0751
 5503TIP3    H138068   0.989   1.278   6.924 -0.6206 -0.0608  0.8898
 5503TIP3    H238069   0.887   1.177   6.971  2.3074 -2.8847  1.4612
 5504TIP3   OH238070   3.594   1.565   0.642  0.5408 -0.6484 -0.1851
 5504TIP3    H138071   3.593   1.484   0.591  1.8512 -1.2213  0.6411
 5504TIP3    H238072   3.542   1.545   0.720 -1.2561  0.1490 -1.1117
 5505TIP3   OH238073   0.238   3.969   0.442  0.1794  0.2727  0.0866
 5505TIP3    H138074   0.283   4.003   0.365  2.7757 -1.6329  0.6000
 5505TIP3    H238075   0.292   3.895   0.470 -1.9753 -0.5778  2.3507
 5506TIP3   OH238076   6.009   4.018   7.522  0.2820 -0.0802  0.5804
 5506TIP3    H138077   6.018   3.980   7.435 -1.3559  0.7913 -0.0119
 5506TIP3    H238078   6.087   3.989   7.569  1.0959 -0.7421 -1.1014
 5507TIP3   OH238079   1.087   3.617   1.407 -0.2833 -0.2492  0.0682
 5507TIP3    H138080   1.168   3.619   1.459 -0.5382 -1.3111  0.5327
 5507TIP3    H238081   1.055   3.707   1.410  0.7085  0.1225  0.1444
 5508TIP3   OH238082   4.527   3.378   6.398  0.2679  0.0148 -0.4565
 5508TIP3    H138083   4.549   3.303   6.343  0.3841 -0.9233  0.8180
 5508TIP3    H238084   4.469   3.432   6.344 -1.1314 -1.8050 -0.8639
 5509TIP3   OH238085   2.164   2.880   7.191  0.2329  0.1966 -0.5424
 5509TIP3    H138086   2.248   2.911   7.224 -0.2007  1.2069 -0.3291
 5509TIP3    H238087   2.183   2.796   7.150  0.6758 -1.5498  2.8972
 5510TIP3   OH238088   2.045   1.477   0.950 -0.0276 -0.6915 -0.2498
 5510TIP3    H138089   2.102   1.441   0.882  0.5412  0.1199 -0.2169
 5510TIP3    H238090   2.007   1.555   0.911  1.4290  0.6115  0.8214
 5511TIP3   OH238091   0.860   0.154   0.495  0.4480 -0.3097  0.4232
 5511TIP3    H138092   0.833   0.232   0.543 -0.0669 -0.0005 -0.3474
 5511TIP3    H238093   0.928   0.184   0.435 -1.2307  0.0382 -1.4094
 5512TIP3   OH238094   5.994   6.871   5.918 -0.3419 -0.3917 -0.3048
 5512TIP3    H138095   5.928   6.921   5.870 -0.2386  0.3754  0.3118
 5512TIP3    H238096   5.946   6.796   5.954 -0.7820 -0.0914 -0.2492
 5513TIP3   OH238097   2.235   2.115   7.888  0.2542  0.1938  0.1008
 5513TIP3    H138098   2.318   2.094   7.845 -0.3034 -1.6651 -0.1493
 5513TIP3    H238099   2.221   2.043   7.949 -0.0506  1.6919  1.8672
 5514TIP3   OH238100   0.132   4.408   2.688  0.2017 -0.2689  0.2700
 5514TIP3    H138101   0.085   4.425   2.769 -1.0216  1.8150 -0.7739
 5514TIP3    H238102   0.192   4.483   2.679 -0.0219 -0.2068 -0.9396
 5515TIP3   OH238103   2.179   5.072   7.050 -0.1888  0.0485 -0.9414
 5515TIP3    H138104   2.175   5.118   6.966 -0.8787  1.3861 -0.1989
 5515TIP3    H238105   2.185   4.979   7.025 -0.6099  0.3923 -2.4653
 5516TIP3   OH238106   6.184   3.206   2.061  0.0148  0.5366  0.4414
 5516TIP3    H138107   6.212   3.257   2.137  2.3482  1.4457 -0.9367
 5516TIP3    H238108   6.123   3.263   2.015  0.3813  0.9142  0.4231
 5517TIP3   OH238109   3.573   4.310   6.827 -0.4604 -0.5073 -0.5357
 5517TIP3    H138110   3.511   4.237   6.823 -0.6918 -0.3046 -0.6439
 5517TIP3    H238111   3.519   4.387   6.842 -0.2272 -0.3393 -0.5519
 5518TIP3   OH238112   3.808   4.167   1.995  0.6209 -0.8543 -0.0305
 5518TIP3    H138113   3.816   4.153   1.901 -1.6684 -0.6193 -0.3177
 5518TIP3    H238114   3.871   4.236   2.015 -1.9902  2.5399 -2.3279
 5519TIP3   OH238115   0.035   5.824   7.881 -0.2807 -0.8368  0.3380
 5519TIP3    H138116   0.089   5.789   7.951  0.2920 -1.5074 -0.4204
 5519TIP3    H238117  -0.054   5.795   7.902  0.2094 -3.0684 -0.4141
 5520TIP3   OH238118   6.946   0.610   7.771  0.5976  0.6241 -0.3474
 5520TIP3    H138119   6.877   0.595   7.706  1.0803 -0.4357 -0.6422
 5520TIP3    H238120   7.017   0.651   7.721  1.1254 -0.5569 -0.6100
 5521TIP3   OH238121   2.124   3.520   2.717 -0.3328 -0.0766 -0.1411
 5521TIP3    H138122   2.147   3.584   2.784 -0.8277  0.8913 -0.8632
 5521TIP3    H238123   2.039   3.486   2.743  0.0533 -0.6725  0.3897
 5522TIP3   OH238124   6.925   3.786   0.584  0.1805 -0.5911  0.0800
 5522TIP3    H138125   6.963   3.705   0.620 -0.7372 -1.1196 -0.1133
 5522TIP3    H238126   7.000   3.830   0.543  0.8488 -0.9466  0.8738
 5523TIP3   OH238127   0.057   3.478   1.858 -0.2801  0.7612 -0.1958
 5523TIP3    H138128   0.126   3.530   1.817 -0.9347 -0.2663 -2.7959
 5523TIP3    H238129   0.102   3.401   1.892  0.0216  0.6479 -0.8378
 5524TIP3   OH238130   4.965   2.657   1.942 -0.4373  0.0748  0.0589
 5524TIP3    H138131   4.925   2.571   1.941 -0.8164  0.1946  1.5612
 5524TIP3    H238132   5.006   2.666   1.856 -2.6930 -0.4878 -1.1622
 5525TIP3   OH238133   4.572   3.752   0.702 -0.3867 -0.1001  0.5148
 5525TIP3    H138134   4.655   3.723   0.664 -0.4770  0.1932  0.0755
 5525TIP3    H238135   4.572   3.717   0.791  0.8097  1.0145  0.9798
 5526TIP3   OH238136   3.693   4.616   0.958  0.7286  0.7606  0.0654
 5526TIP3    H138137   3.686   4.683   1.026  0.2163  1.1595 -0.3715
 5526TIP3    H238138   3.685   4.533   1.005  0.1917  1.0379  0.4704
 5527TIP3   OH238139   0.763   1.727   1.038 -0.7080  0.0828  0.0858
 5527TIP3    H138140   0.730   1.814   1.060 -1.2431  0.2402 -1.2164
 5527TIP3    H238141   0.795   1.736   0.948  0.5930 -0.7099  0.4457
 5528TIP3   OH238142   2.863   5.033   7.157  0.7359 -0.1681 -0.4435
 5528TIP3    H138143   2.947   5.014   7.116  1.3735 -0.8391  1.0768
 5528TIP3    H238144   2.819   4.948   7.162  0.4937 -0.0268 -0.1281
 5529TIP3   OH238145   1.291   0.334   1.872  0.4070  0.0663 -0.4582
 5529TIP3    H138146   1.298   0.360   1.780  1.3181 -2.5210 -1.2281
 5529TIP3    H238147   1.378   0.353   1.909  0.4586 -0.0921 -0.4969
 5530TIP3   OH238148   1.304   1.547   0.382  0.0874 -0.3246 -0.4373
 5530TIP3    H138149   1.290   1.634   0.419 -0.6464 -1.3297  1.8590
 5530TIP3    H238150   1.216   1.515   0.362  0.3153 -0.7413 -0.7931
 5531TIP3   OH238151   1.182   6.407   7.077  0.1640 -0.2744  0.4136
 5531TIP3    H138152   1.223   6.429   6.994 -2.3006  1.4851 -0.4576
 5531TIP3    H238153   1.220   6.469   7.140  1.1753 -0.8285  0.3593
 5532TIP3   OH238154   3.432   5.198   0.869 -0.1318 -0.2561 -0.0510
 5532TIP3    H138155   3.454   5.272   0.925  0.0452  0.3269 -0.8728
 5532TIP3    H238156   3.514   5.149   0.860  0.4994  1.0067 -1.7677
 5533TIP3   OH238157   4.981   1.698   7.339 -0.4291 -0.3682  0.0409
 5533TIP3    H138158   4.977   1.687   7.244 -0.0042  1.1233 -0.1640
 5533TIP3    H238159   5.059   1.650   7.366  0.2512  0.3777 -0.5593
 5534TIP3   OH238160   3.790   0.897   7.667  0.2133  0.1981 -0.1385
 5534TIP3    H138161   3.724   0.852   7.614 -0.6599  1.4310 -0.1440
 5534TIP3    H238162   3.793   0.846   7.748  1.1779 -1.3932 -1.1133
 5535TIP3   OH238163   5.132   6.036   7.944 -0.1133  0.9199 -0.2674
 5535TIP3    H138164   5.051   6.032   7.995 -0.5298  0.2508 -0.9681
 5535TIP3    H238165   5.202   6.022   8.009 -0.5535  1.3167  0.3099
 5536TIP3   OH238166   5.415   2.374   0.118  0.4445  0.5754 -0.1009
 5536TIP3    H138167   5.329   2.409   0.140 -0.1335 -0.6468 -0.3380
 5536TIP3    H238168   5.410   2.358   0.024  0.9144  0.4271 -0.1020
 5537TIP3   OH238169   6.916   2.039   1.026 -0.1878  0.3752  0.0492
 5537TIP3    H138170   6.894   1.961   1.077 -0.1083 -0.4097 -1.0786
 5537TIP3    H238171   6.972   2.091   1.084 -0.6286 -0.1786  0.9873
 5538TIP3   OH238172   6.499   1.283   1.628  0.1069 -0.4966 -0.3490
 5538TIP3    H138173   6.457   1.318   1.707  0.7909 -1.2603  0.3760
 5538TIP3    H238174   6.588   1.317   1.632 -0.6150  1.8997 -2.3761
 5539TIP3   OH238175   4.699   5.429   1.310 -0.0028  0.1857 -0.1770
 5539TIP3    H138176   4.789   5.401   1.320 -0.6786 -2.7121 -1.0649
 5539TIP3    H238177   4.687   5.499   1.374  3.1368  1.5031 -0.8704
 5540TIP3   OH238178   0.874   5.378   1.264 -0.1819  0.3249  0.1135
 5540TIP3    H138179   0.927   5.416   1.193  0.2183 -0.8897 -0.2705
 5540TIP3    H238180   0.903   5.287   1.269 -1.1815  0.0320  0.9286
 5541TIP3   OH238181   5.199   2.162   2.152 -0.1153  0.4459  0.1846
 5541TIP3    H138182   5.247   2.243   2.168 -1.1932  1.1219  0.0818
 5541TIP3    H238183   5.262   2.093   2.173  1.9367  1.2198 -2.7252
 5542TIP3   OH238184   1.667   0.092   7.450 -0.1848 -0.6127 -0.1370
 5542TIP3    H138185   1.718   0.100   7.369  1.6578  2.8089  1.1403
 5542TIP3    H238186   1.723   0.040   7.508  1.0666  1.3741  0.5594
 5543TIP3   OH238187   3.330   1.917   6.843  0.3814 -0.2906 -0.0527
 5543TIP3    H138188   3.363   1.989   6.897  0.4361 -0.6573  0.4145
 5543TIP3    H238189   3.369   1.932   6.757  0.5242  0.1448  0.0821
 5544TIP3   OH238190   1.966   6.164   1.282 -0.1961  0.5948 -0.4872
 5544TIP3    H138191   1.893   6.104   1.273  0.4323  0.0342 -2.2090
 5544TIP3    H238192   1.937   6.245   1.239 -0.1372  0.6988 -0.3354
 5545TIP3   OH238193   6.043   5.040   6.891  0.6768  0.2793 -0.2061
 5545TIP3    H138194   5.975   5.059   6.826  0.5377  0.5631  0.0199
 5545TIP3    H238195   6.003   4.975   6.948  0.5966  0.4396 -0.0786
 5546TIP3   OH238196   4.328   6.020   0.225 -0.6302  0.0061  0.5136
 5546TIP3    H138197   4.233   6.013   0.211 -0.2667 -0.4301 -2.3498
 5546TIP3    H238198   4.344   5.964   0.301 -2.7154  0.6263  1.5035
 5547TIP3   OH238199   0.175   2.582   0.264 -0.0383 -0.0782  0.1294
 5547TIP3    H138200   0.199   2.633   0.186 -1.1069  1.2780  0.6418
 5547TIP3    H238201   0.096   2.534   0.238  0.5976 -1.0187 -0.1434
 5548TIP3   OH238202   0.992   2.859   6.997  0.0136  0.6341  0.7228
 5548TIP3    H138203   1.001   2.772   7.036 -1.0935  0.6026  0.9456
 5548TIP3    H238204   1.082   2.890   6.986  0.4254 -0.5870  0.5244
 5549TIP3   OH238205   4.572   6.406   7.504 -0.6706 -0.2913 -0.5816
 5549TIP3    H138206   4.512   6.405   7.430 -0.0210 -1.0850 -1.1171
 5549TIP3    H238207   4.657   6.388   7.466 -0.2282 -0.0691  0.2841
 5550TIP3   OH238208   0.257   6.997   2.132 -0.3713 -0.3071  0.0625
 5550TIP3    H138209   0.212   7.006   2.216 -1.7790  0.0791 -0.6969
 5550TIP3    H238210   0.240   7.079   2.087  0.9733 -0.2230 -0.3428
 5551TIP3   OH238211   0.069   3.979   0.650  0.0592  0.6353  0.2355
 5551TIP3    H138212   0.129   3.940   0.713 -2.0033 -0.8549  1.3743
 5551TIP3    H238213   0.120   3.986   0.569  1.3743 -1.7961  0.7785
 5552TIP3   OH238214   0.273   0.138   0.045  0.0231  0.1811  0.4626
 5552TIP3    H138215   0.309   0.129   0.134  0.6844  0.6562  0.2518
 5552TIP3    H238216   0.326   0.078  -0.007 -0.9418 -0.7605  0.5366
 5553TIP3   OH238217   1.997   5.545   2.558 -0.3031 -0.4754 -0.1695
 5553TIP3    H138218   2.030   5.455   2.566  0.1464 -0.4172 -1.1600
 5553TIP3    H238219   2.064   5.590   2.506 -0.2201  0.6045  0.8067
 5554TIP3   OH238220   2.335   5.625   2.066  0.4847  0.2038  0.6962
 5554TIP3    H138221   2.301   5.555   2.122  1.2947 -0.2895  0.5832
 5554TIP3    H238222   2.291   5.704   2.097 -0.8420 -0.4231  0.4848
 5555TIP3   OH238223   1.599   1.590   0.443 -0.1992 -0.1189  0.1000
 5555TIP3    H138224   1.548   1.668   0.466  1.8393  1.8199 -1.5313
 5555TIP3    H238225   1.579   1.575   0.351  1.0134 -0.2203 -0.1617
 5556TIP3   OH238226   4.736   2.253   6.545 -0.3341  0.1124  0.4316
 5556TIP3    H138227   4.741   2.190   6.617 -1.2693 -0.8115 -0.3022
 5556TIP3    H238228   4.643   2.275   6.538 -0.3339 -0.1972 -0.8152
 5557TIP3   OH238229   4.868   5.157   7.511  0.1026  0.3974  0.2889
 5557TIP3    H138230   4.949   5.162   7.460 -0.1393  1.2157 -0.0267
 5557TIP3    H238231   4.822   5.082   7.475  0.9932 -0.4772  0.8970
 5558TIP3   OH238232   0.076   0.818   2.516 -0.2434  0.4887 -0.6963
 5558TIP3    H138233   0.092   0.733   2.476 -0.9749  0.0819 -0.1608
 5558TIP3    H238234   0.013   0.860   2.457  0.3880  0.8030 -1.1462
 5559TIP3   OH238235   3.682   6.267   7.203  0.5922  0.0309  0.2405
 5559TIP3    H138236   3.654   6.317   7.126  2.1106 -1.1107 -1.1310
 5559TIP3    H238237   3.609   6.273   7.264 -1.0541  0.1973 -1.6598
 5560TIP3   OH238238   5.749   5.375   2.251  0.2535  0.1473  0.0293
 5560TIP3    H138239   5.699   5.371   2.170 -1.6039  0.5175  1.1078
 5560TIP3    H238240   5.692   5.335   2.317  2.6597 -2.3985  0.7721
 5561TIP3   OH238241   3.366   7.071   6.744 -0.4230  0.7828 -0.5590
 5561TIP3    H138242   3.378   6.977   6.754 -0.7970  0.9846  4.5948
 5561TIP3    H238243   3.296   7.080   6.679 -0.8982 -2.5310 -0.6538
 5562TIP3   OH238244   6.881   4.851   2.163  0.2289 -0.3648  0.0888
 5562TIP3    H138245   6.924   4.838   2.248  1.3244 -1.2217 -0.5794
 5562TIP3    H238246   6.938   4.913   2.117 -1.4495  1.7739  0.7181
 5563TIP3   OH238247   0.557   1.983   7.289 -0.6403 -0.0884  1.0629
 5563TIP3    H138248   0.642   1.971   7.247 -0.6333  1.1871  0.6846
 5563TIP3    H238249   0.514   1.898   7.279  0.2902 -0.5262  0.6051
 5564TIP3   OH238250   4.946   1.000   0.165 -0.1050  0.6678 -0.0165
 5564TIP3    H138251   4.881   0.935   0.187 -1.4390  1.8629 -0.2765
 5564TIP3    H238252   4.922   1.029   0.077  2.2667 -0.6044 -1.1775
 5565TIP3   OH238253   4.046   6.723   6.303  0.1511  0.2106  0.1507
 5565TIP3    H138254   4.127   6.730   6.252 -0.6751 -0.3433 -1.2954
 5565TIP3    H238255   4.068   6.759   6.389  2.0922 -0.4933 -0.0156
 5566TIP3   OH238256   3.030   6.982   0.615 -0.0197  0.6756 -0.7650
 5566TIP3    H138257   3.095   6.964   0.547 -0.0425 -0.0565 -0.5947
 5566TIP3    H238258   3.081   7.013   0.690  0.1832 -0.2375 -0.5083
 5567TIP3   OH238259   1.920   5.110   7.138  0.1540  0.3576  0.9386
 5567TIP3    H138260   2.012   5.125   7.117 -0.1525  0.7642 -0.1532
 5567TIP3    H238261   1.920   5.095   7.233  1.2108  1.4711  1.1453
 5568TIP3   OH238262   0.993   0.601   7.708 -0.3654 -0.3554 -0.1551
 5568TIP3    H138263   1.008   0.509   7.729  0.1924 -0.0106  1.0289
 5568TIP3    H238264   1.064   0.648   7.752 -0.8218  0.6764 -0.4841
 5569TIP3   OH238265   6.702   2.846   7.641 -0.3593 -0.2875 -0.0483
 5569TIP3    H138266   6.670   2.757   7.630 -1.2030  0.1694 -1.5544
 5569TIP3    H238267   6.693   2.862   7.735  0.1728 -1.8972  0.3080
 5570TIP3   OH238268   1.133   6.304   1.757 -0.5967  0.3373 -0.2555
 5570TIP3    H138269   1.174   6.362   1.821 -1.0840  0.8080 -0.3574
 5570TIP3    H238270   1.201   6.240   1.735 -0.5491 -0.0953  1.0495
 5571TIP3   OH238271   1.414   2.138   0.918  0.2160 -0.1109  0.7115
 5571TIP3    H138272   1.352   2.209   0.900  1.2751  0.5831 -0.4520
 5571TIP3    H238273   1.464   2.168   0.994 -0.4844 -0.4195  1.3037
 5572TIP3   OH238274   0.985   0.786   1.553 -0.0194  0.3483 -0.6137
 5572TIP3    H138275   1.024   0.702   1.580  2.0186  1.4968  0.2208
 5572TIP3    H238276   1.038   0.813   1.478 -1.5248  0.2882 -1.7342
 5573TIP3   OH238277   0.057   0.835   7.372 -0.4759 -0.1026  0.1058
 5573TIP3    H138278   0.037   0.891   7.297  0.0002  0.0591  0.0979
 5573TIP3    H238279   0.150   0.814   7.363  0.1535  1.6766  1.7970
 5574TIP3   OH238280   3.482   0.285   6.335  0.3152 -0.2350 -0.2783
 5574TIP3    H138281   3.470   0.213   6.396  1.4854 -0.1109  0.1180
 5574TIP3    H238282   3.572   0.315   6.350 -0.5981  2.3284  0.6983
 5575TIP3   OH238283   3.304   5.015   1.090  0.1291  0.2775  0.9345
 5575TIP3    H138284   3.316   5.069   1.012  0.9928 -0.3404  0.6222
 5575TIP3    H238285   3.387   5.021   1.137 -0.2646  0.3735  1.6450
 5576TIP3   OH238286   0.198   4.034   2.725  0.1901 -0.1805 -0.1559
 5576TIP3    H138287   0.218   3.999   2.638 -0.1525 -1.5442  0.2925
 5576TIP3    H238288   0.266   3.998   2.782  0.0009  0.1332  0.2759
 5577TIP3   OH238289   2.244   4.576   7.278 -0.1292  0.0194  0.2185
 5577TIP3    H138290   2.269   4.526   7.355  1.9667 -0.6987 -0.8527
 5577TIP3    H238291   2.206   4.511   7.219 -4.2391  0.9481  1.4891
 5578TIP3   OH238292   6.260   5.892   0.431 -0.1600 -0.1122  0.9129
 5578TIP3    H138293   6.216   5.832   0.491  0.6398 -1.2469  0.4104
 5578TIP3    H238294   6.227   5.869   0.344  1.1707 -0.8187  0.5547
 5579TIP3   OH238295   1.013   3.227   0.089  0.3886 -0.2814  0.2479
 5579TIP3    H138296   0.992   3.276   0.010 -0.8710 -0.2991  0.5537
 5579TIP3    H238297   1.038   3.140   0.058 -0.1956 -0.3195 -0.1196
 5580TIP3   OH238298   6.067   2.684   2.424  0.0569  0.1783  0.3335
 5580TIP3    H138299   6.143   2.633   2.448 -1.2086 -2.0760 -0.1889
 5580TIP3    H238300   6.020   2.698   2.506 -0.7114 -1.5040  0.2292
 5581TIP3   OH238301   2.122   6.605   0.785  0.1006  0.2309 -0.4548
 5581TIP3    H138302   2.050   6.667   0.772 -0.9422 -0.3975  1.8733
 5581TIP3    H238303   2.194   6.641   0.732 -0.7354  2.9515  0.0970
 5582TIP3   OH238304   4.733   5.980   6.602 -0.1460  0.6517  0.5345
 5582TIP3    H138305   4.653   5.927   6.599 -0.0997  0.5261  1.2985
 5582TIP3    H238306   4.723   6.043   6.530 -0.2486 -0.3166 -0.3318
 5583TIP3   OH238307   1.832   1.012   7.948 -0.6647  0.5584 -0.2174
 5583TIP3    H138308   1.774   0.942   7.919 -0.6881  0.6951 -0.5034
 5583TIP3    H238309   1.820   1.081   7.883 -1.1357  1.0874  0.4061
 5584TIP3   OH238310   0.397   1.644   1.514  0.3031 -0.3238  0.3917
 5584TIP3    H138311   0.433   1.629   1.427  1.3907  0.4673  0.6742
 5584TIP3    H238312   0.444   1.583   1.571  0.4107 -0.0497  0.5986
 5585TIP3   OH238313   6.003   3.625   7.605  0.4570  0.4632 -0.4637
 5585TIP3    H138314   5.940   3.695   7.595  1.5826  1.4711 -0.8036
 5585TIP3    H238315   5.960   3.561   7.662 -0.6592  1.3354 -0.2938
 5586TIP3   OH238316   0.047   1.518   1.021 -0.6793  0.3004 -0.1475
 5586TIP3    H138317  -0.044   1.500   0.997 -0.6934 -0.2771  0.3089
 5586TIP3    H238318   0.096   1.501   0.941 -0.8263 -0.7290 -0.0323
 5587TIP3   OH238319   6.364   2.422   0.680 -0.2644  0.3088  0.1526
 5587TIP3    H138320   6.420   2.429   0.603  0.3565 -2.0067  0.3079
 5587TIP3    H238321   6.348   2.512   0.707  0.0416  1.1705 -2.2737
 5588TIP3   OH238322   1.150   2.567   1.552 -0.9847 -0.0952 -0.0060
 5588TIP3    H138323   1.205   2.575   1.631 -1.4921 -0.3729  0.3798
 5588TIP3    H238324   1.211   2.582   1.480  0.0257 -2.1613  0.3150
 5589TIP3   OH238325   0.532   0.094   1.383  0.3193  0.3450 -0.2336
 5589TIP3    H138326   0.524   0.104   1.478 -0.9004 -1.4457 -0.1069
 5589TIP3    H238327   0.503   0.177   1.348 -2.0272  0.0793  0.9019
 5590TIP3   OH238328   4.071   3.767   7.946 -0.2843  0.1643  0.2843
 5590TIP3    H138329   4.004   3.753   8.013 -1.7357 -0.5132 -1.2578
 5590TIP3    H238330   4.036   3.726   7.867  1.6441  0.4112 -0.7618
 5591TIP3   OH238331   0.708   4.148   2.467 -0.4494 -0.4497 -0.3603
 5591TIP3    H138332   0.782   4.150   2.407  0.3235 -1.2762  0.5580
 5591TIP3    H238333   0.741   4.107   2.547 -1.8036 -0.5481  0.1839
 5592TIP3   OH238334   0.808   3.890   1.771  0.7397  0.2158 -0.0227
 5592TIP3    H138335   0.779   3.811   1.726 -0.4585  0.3073  0.5642
 5592TIP3    H238336   0.876   3.926   1.714  0.9248 -0.9354 -0.5634
 5593TIP3   OH238337   5.719   5.119   6.905  0.7566 -1.1066 -0.0620
 5593TIP3    H138338   5.776   5.149   6.835 -1.5149 -2.0457 -2.4852
 5593TIP3    H238339   5.651   5.068   6.861 -1.4370 -0.8432  2.7100
 5594TIP3   OH238340   7.088   4.716   1.075 -0.5888  0.3280  0.7589
 5594TIP3    H138341   6.997   4.692   1.095 -0.7778 -1.8079 -1.9920
 5594TIP3    H238342   7.141   4.645   1.111 -0.1233  0.8714  1.1631
 5595TIP3   OH238343   2.266   5.146   1.099  0.4045  0.5481 -0.5064
 5595TIP3    H138344   2.300   5.219   1.152 -1.2252 -0.4179  2.0848
 5595TIP3    H238345   2.338   5.083   1.095  0.6355  0.7392  0.4183
 5596TIP3   OH238346   6.009   6.526   1.848 -0.0957 -0.3821  0.0582
 5596TIP3    H138347   6.061   6.446   1.835  1.0902  0.4072 -0.2406
 5596TIP3    H238348   5.924   6.495   1.879  0.4531 -1.7432  0.2668
 5597TIP3   OH238349   5.140   6.080   6.563  0.0016 -0.5930  0.3432
 5597TIP3    H138350   5.116   6.132   6.487 -1.9287 -1.1300  0.5302
 5597TIP3    H238351   5.095   6.122   6.636  0.2842 -1.1958  0.8765
 5598TIP3   OH238352   4.351   0.192   0.228  0.3704 -0.4206 -0.1081
 5598TIP3    H138353   4.344   0.097   0.241  0.6528 -0.7613 -2.2235
 5598TIP3    H238354   4.419   0.203   0.162 -0.3794  1.1876 -0.6659
 5599TIP3   OH238355   6.095   5.545   2.409  0.2319  0.5588  0.1050
 5599TIP3    H138356   6.039   5.585   2.476 -2.3703  0.4044 -1.8137
 5599TIP3    H238357   6.092   5.451   2.428 -1.5257  0.3820 -0.8547
 5600TIP3   OH238358   3.952   0.067   2.509  0.2173 -0.2395 -0.0489
 5600TIP3    H138359   3.891   0.137   2.533  0.2451 -0.4364  0.6151
 5600TIP3    H238360   3.998   0.101   2.432  0.6506  0.7375  0.6105
 5601TIP3   OH238361   2.606   2.973   7.462 -0.4311  0.8501 -0.0781
 5601TIP3    H138362   2.675   2.929   7.513 -1.8490 -1.3804  0.0415
 5601TIP3    H238363   2.563   3.030   7.526 -1.8318 -1.5042  1.2680
 5602TIP3   OH238364   5.507   2.528   1.290  0.2449 -0.4897  0.3489
 5602TIP3    H138365   5.600   2.544   1.275  0.1981 -0.1013  0.4621
 5602TIP3    H238366   5.478   2.482   1.212  0.7390 -1.4611  0.7183
 5603TIP3   OH238367   4.892   4.304   0.725 -0.4889 -0.2415 -0.4876
 5603TIP3    H138368   4.919   4.241   0.793 -1.9153 -0.5226 -0.1592
 5603TIP3    H238369   4.968   4.360   0.714 -0.1783 -0.2503  1.2766
 5604TIP3   OH238370   1.793   5.204   7.796 -0.1179  0.4070 -0.4993
 5604TIP3    H138371   1.787   5.269   7.726  0.2936  1.5845  0.5335
 5604TIP3    H238372   1.849   5.135   7.760 -0.4131  0.6896 -1.5390
 5605TIP3   OH238373   2.213   4.889   2.446 -0.0307  0.2434 -0.5296
 5605TIP3    H138374   2.156   4.951   2.492  1.1218  0.2303  1.0291
 5605TIP3    H238375   2.272   4.944   2.395  0.2403  0.3835 -0.0702
 5606TIP3   OH238376   2.723   3.485   0.926 -0.8118 -0.3837  0.8786
 5606TIP3    H138377   2.750   3.476   0.835  0.5092 -0.0645  1.2178
 5606TIP3    H238378   2.649   3.546   0.923 -1.1803 -0.8479 -0.0279
 5607TIP3   OH238379   0.696   4.847   0.804 -0.5929 -0.7554 -0.0318
 5607TIP3    H138380   0.695   4.927   0.753 -1.0072 -1.8894 -1.9249
 5607TIP3    H238381   0.786   4.838   0.836  0.0686 -0.7214 -1.8120
 5608TIP3   OH238382   2.955   5.486   0.859 -0.0291  0.1909 -0.5309
 5608TIP3    H138383   3.019   5.557   0.849 -0.7319  0.7583 -1.0902
 5608TIP3    H238384   2.927   5.466   0.769  0.3738 -1.0004 -0.4034
 5609TIP3   OH238385   5.954   4.247   0.161  0.0518  0.1871  0.2416
 5609TIP3    H138386   5.953   4.334   0.200 -0.2199  0.8787 -1.2336
 5609TIP3    H238387   5.873   4.206   0.192 -0.4787  0.9570 -0.0773
 5610TIP3   OH238388   3.770   4.786   1.446  0.1525  0.2145  0.0417
 5610TIP3    H138389   3.751   4.695   1.424 -2.1023  0.5351  0.3919
 5610TIP3    H238390   3.776   4.787   1.542  1.6639  0.2173 -0.0298
 5611TIP3   OH238391   4.010   2.380   1.681  0.0453  0.5280 -0.7630
 5611TIP3    H138392   3.950   2.439   1.727 -0.2345  0.8514 -1.5233
 5611TIP3    H238393   4.039   2.430   1.605  0.8098  0.1473 -0.7244
 5612TIP3   OH238394   3.774   1.245   6.966 -0.5359  0.7762  0.1427
 5612TIP3    H138395   3.751   1.338   6.958 -0.4459  0.7791 -0.1012
 5612TIP3    H238396   3.863   1.245   7.001 -0.1990  0.8029 -0.6866
 5613TIP3   OH238397   5.390   1.481   7.216  0.5222  0.2512  0.3877
 5613TIP3    H138398   5.344   1.523   7.288 -2.2301  0.3689 -1.2742
 5613TIP3    H238399   5.347   1.396   7.206  0.8108  0.2484 -1.0859
 5614TIP3   OH238400   0.247   2.329   1.727 -0.2598 -0.2396 -0.0771
 5614TIP3    H138401   0.158   2.343   1.695 -1.4618 -0.8739  2.7022
 5614TIP3    H238402   0.252   2.382   1.807  2.0362  0.0943 -0.3652
 5615TIP3   OH238403   1.858   4.663   1.244  0.6480 -0.3929  0.1567
 5615TIP3    H138404   1.854   4.615   1.162 -0.3430  0.0834 -0.1004
 5615TIP3    H238405   1.771   4.702   1.252  0.9243  0.0459  1.1416
 5616TIP3   OH238406   0.498   2.472   7.257 -0.4828 -0.4633 -0.5197
 5616TIP3    H138407   0.459   2.523   7.328  0.1598 -0.5277 -0.1102
 5616TIP3    H238408   0.459   2.385   7.266  0.3329 -0.7543  0.3898
 5617TIP3   OH238409   4.893   3.837   0.957 -0.3657 -0.2983 -0.4624
 5617TIP3    H138410   4.926   3.799   1.039  1.7356 -0.0416 -1.1383
 5617TIP3    H238411   4.900   3.766   0.893 -1.2848 -0.2712 -0.6090
 5618TIP3   OH238412   6.399   4.494   7.239 -0.3107  0.3601 -0.1429
 5618TIP3    H138413   6.435   4.495   7.327  0.1357 -1.2985 -0.2601
 5618TIP3    H238414   6.307   4.470   7.250 -0.2580  0.1655 -0.1151
 5619TIP3   OH238415   6.207   5.372   2.607  0.0126 -0.3616 -0.3832
 5619TIP3    H138416   6.161   5.289   2.594  1.5292 -1.4364  0.7188
 5619TIP3    H238417   6.282   5.366   2.547  0.2451  0.1120 -0.1401
 5620TIP3   OH238418   3.488   6.617   7.898 -0.0318  0.3881 -0.2789
 5620TIP3    H138419   3.513   6.614   7.991 -2.1103 -1.1072  0.2980
 5620TIP3    H238420   3.405   6.666   7.898  0.2439  0.8847 -1.4506
 5621TIP3   OH238421   6.646   6.288   0.344 -0.0971  0.3875 -0.4275
 5621TIP3    H138422   6.710   6.217   0.338 -1.3214 -0.9772  1.5410
 5621TIP3    H238423   6.561   6.244   0.347 -0.9569  1.9913 -0.0897
 5622TIP3   OH238424   4.474   5.016   2.077 -0.1688  0.4788  0.1458
 5622TIP3    H138425   4.516   5.065   2.148 -0.0592  1.1717 -0.3822
 5622TIP3    H238426   4.546   4.969   2.034  0.0757  1.5432 -0.6618
 5623TIP3   OH238427   4.586   4.739   6.602  0.5059  0.4641 -0.0339
 5623TIP3    H138428   4.554   4.787   6.525  1.0013  1.1747  0.1862
 5623TIP3    H238429   4.587   4.647   6.574  0.5722  0.6995 -0.8432
 5624TIP3   OH238430   4.544   6.733   0.147 -0.1393  0.0058  0.4353
 5624TIP3    H138431   4.516   6.812   0.195 -2.1567 -1.8340  2.5292
 5624TIP3    H238432   4.490   6.732   0.069 -0.2137  0.5942  0.4709
 5625TIP3   OH238433   5.993   3.777   6.552  0.1403 -0.2777 -0.2540
 5625TIP3    H138434   5.975   3.871   6.552 -1.4352 -0.5030  1.8602
 5625TIP3    H238435   6.075   3.769   6.601  0.4904  0.0021 -0.7804
 5626TIP3   OH238436   1.307   1.529   0.054  0.0261 -0.4413 -0.2242
 5626TIP3    H138437   1.234   1.589   0.035  0.7859  0.3241 -0.8262
 5626TIP3    H238438   1.265   1.450   0.087 -1.1322 -0.3003 -1.2773
 5627TIP3   OH238439   6.869   4.639   1.415 -0.5303  0.3189  0.1202
 5627TIP3    H138440   6.885   4.556   1.369  2.5836  0.1011  1.3170
 5627TIP3    H238441   6.850   4.702   1.346  1.6908 -0.4613 -1.3159
 5628TIP3   OH238442   0.104   1.791   1.079  0.0002 -0.0124  0.2683
 5628TIP3    H138443   0.199   1.784   1.078  0.0252 -0.6605 -2.6998
 5628TIP3    H238444   0.073   1.700   1.088 -0.2693 -0.0598 -0.9691
 5629TIP3   OH238445   3.912   0.317   1.412 -0.7571  0.4127  0.2794
 5629TIP3    H138446   3.883   0.301   1.322 -0.4489 -0.2604  0.2917
 5629TIP3    H238447   3.932   0.230   1.447  1.6882  0.8187  0.1194
 5630TIP3   OH238448   4.943   6.663   7.507 -0.1648  0.2231  0.4339
 5630TIP3    H138449   4.900   6.686   7.424  1.0047 -1.2215 -0.6507
 5630TIP3    H238450   4.873   6.630   7.562 -0.7441 -0.3928 -0.6287
 5631TIP3   OH238451   2.734   1.068   1.116  0.7220 -0.1799 -0.3672
 5631TIP3    H138452   2.828   1.050   1.116  0.4860 -1.5121 -0.8067
 5631TIP3    H238453   2.693   0.985   1.140 -0.3488  0.3392 -0.3367
 5632TIP3   OH238454   5.361   5.384   1.719 -0.0882  0.0853 -0.0235
 5632TIP3    H138455   5.335   5.361   1.808  2.2745  0.3329  0.7984
 5632TIP3    H238456   5.416   5.311   1.691 -2.8290 -1.3200 -2.3857
 5633TIP3   OH238457   2.997   0.168   1.421 -0.2846  0.2572 -0.8732
 5633TIP3    H138458   3.078   0.171   1.472  0.0336 -1.5849 -1.2142
 5633TIP3    H238459   3.026   0.177   1.331 -0.4875 -0.2378 -0.9846
 5634TIP3   OH238460   1.383   1.101   1.611 -0.2752 -0.4089  0.4385
 5634TIP3    H138461   1.403   1.153   1.689 -0.7799  0.8866 -0.2596
 5634TIP3    H238462   1.468   1.085   1.570 -0.2408  1.8816 -0.5449
 5635TIP3   OH238463   0.978   4.487   1.156  0.1781  0.0894 -0.3131
 5635TIP3    H138464   1.060   4.473   1.108  0.6141  0.6406  0.2592
 5635TIP3    H238465   0.950   4.575   1.130  0.4434  0.4113  0.4643
 5636TIP3   OH238466   5.898   0.177   0.280 -0.9170 -0.5901 -0.6039
 5636TIP3    H138467   5.917   0.141   0.367 -1.1635 -0.3345 -0.4431
 5636TIP3    H238468   5.816   0.224   0.291 -0.6452 -0.0501 -0.8281
 5637TIP3   OH238469   0.277   0.407   6.226  0.4526  0.3593  0.0431
 5637TIP3    H138470   0.326   0.399   6.307  0.7066 -1.7039 -0.2777
 5637TIP3    H238471   0.341   0.393   6.157  0.1776  1.7677 -0.5414
 5638TIP3   OH238472   6.379   0.859   6.428 -0.3312 -0.1702  0.0960
 5638TIP3    H138473   6.473   0.854   6.412 -0.1732  0.6495  0.7002
 5638TIP3    H238474   6.355   0.771   6.457  0.0290 -0.6907 -1.1504
 5639TIP3   OH238475   5.668   4.151   1.076 -0.8060 -0.0594  0.7674
 5639TIP3    H138476   5.759   4.180   1.070 -0.3160 -0.9138  2.9701
 5639TIP3    H238477   5.617   4.225   1.044  0.6416  0.4121 -0.5782
 5640TIP3   OH238478   1.559   3.629   1.830  0.1317  0.1482  0.5485
 5640TIP3    H138479   1.595   3.624   1.918  0.7754  0.0304  0.2883
 5640TIP3    H238480   1.614   3.570   1.778 -0.3991  0.0207  0.1217
 5641TIP3   OH238481   0.408   4.304   0.103 -0.6716 -0.4652  0.2076
 5641TIP3    H138482   0.471   4.260   0.046 -1.7914 -1.8949  0.0245
 5641TIP3    H238483   0.451   4.387   0.126  0.2155 -0.2926 -1.8865
 5642TIP3   OH238484   4.132   3.673   1.237  0.4994 -0.0692 -0.1467
 5642TIP3    H138485   4.048   3.693   1.195  0.5342  0.5246  0.0500
 5642TIP3    H238486   4.148   3.581   1.217  0.6811  0.2923 -1.7204
 5643TIP3   OH238487   7.117   6.714   0.398 -0.4589 -0.1010  0.0143
 5643TIP3    H138488   7.169   6.748   0.471  0.3011  0.7201 -0.8792
 5643TIP3    H238489   7.028   6.744   0.415 -0.1346  0.7979  0.1852
 5644TIP3   OH238490   1.447   0.288   6.306  0.1336  0.6686 -0.3222
 5644TIP3    H138491   1.371   0.244   6.266 -0.1299 -1.2886  2.1330
 5644TIP3    H238492   1.408   0.351   6.366  0.5273  2.0164 -1.4302
 5645TIP3   OH238493   6.719   6.178   6.439 -0.3907  0.5285  0.2086
 5645TIP3    H138494   6.788   6.127   6.395 -0.9895  0.3841 -0.5770
 5645TIP3    H238495   6.722   6.148   6.530  1.1475  1.1270  0.3978
 5646TIP3   OH238496   0.590   2.329   0.510 -0.5761  0.0836 -0.2156
 5646TIP3    H138497   0.506   2.368   0.486  0.2067  3.2447  1.5045
 5646TIP3    H238498   0.644   2.338   0.432 -1.1482  0.2398 -0.6011
 5647TIP3   OH238499   0.641   6.174   2.745  0.2446 -0.0548  0.5168
 5647TIP3    H138500   0.619   6.208   2.659  2.1019 -1.4715 -0.6161
 5647TIP3    H238501   0.714   6.228   2.775  1.3067 -1.1365 -0.0096
 5648TIP3   OH238502   1.002   0.105   2.178  0.7696  0.0261  0.1827
 5648TIP3    H138503   1.063   0.173   2.152  2.0456 -0.2724  2.1226
 5648TIP3    H238504   1.004   0.106   2.274  0.7316 -2.6075  0.3008
 5649TIP3   OH238505   6.869   3.656   7.944  0.1420  0.5002  0.0756
 5649TIP3    H138506   6.929   3.661   8.018  1.1347 -0.0682 -0.6697
 5649TIP3    H238507   6.896   3.726   7.885  0.3815 -0.0383 -0.4729
 5650TIP3   OH238508   3.444   0.662   2.044  0.3866  0.4007 -0.2360
 5650TIP3    H138509   3.465   0.755   2.033  0.7042  0.3365 -0.1660
 5650TIP3    H238510   3.357   0.662   2.083 -0.6398  0.6508 -2.3628
 5651TIP3   OH238511   6.937   4.389   1.269  0.0186  0.1254  0.3768
 5651TIP3    H138512   6.944   4.296   1.249 -1.5920  0.1413 -0.4524
 5651TIP3    H238513   7.020   4.427   1.240 -0.6126 -0.5422 -2.5647
 5652TIP3   OH238514   0.256   4.798   7.215  0.6547  0.0664  0.3440
 5652TIP3    H138515   0.307   4.836   7.287  0.5848  1.5066 -0.3186
 5652TIP3    H238516   0.168   4.835   7.227  0.6171  0.2262 -0.4013
 5653TIP3   OH238517   1.306   2.320   6.949 -0.0853 -0.4215  0.4655
 5653TIP3    H138518   1.286   2.387   6.885  0.8480  0.3766  0.9744
 5653TIP3    H238519   1.402   2.324   6.959 -0.0172 -1.7517  0.5861
 5654TIP3   OH238520   1.017   1.411   0.615 -0.3165 -0.3841  0.0481
 5654TIP3    H138521   1.016   1.443   0.525 -0.2853 -0.8150 -0.1055
 5654TIP3    H238522   1.061   1.326   0.610 -1.0697 -0.7974  0.3402
 5655TIP3   OH238523   3.211   0.314   0.220  0.2487 -0.1225 -0.3414
 5655TIP3    H138524   3.132   0.289   0.172 -0.7269  0.7001  0.7811
 5655TIP3    H238525   3.240   0.395   0.178  0.1680 -0.1237 -0.4002
 5656TIP3   OH238526   4.001   2.697   7.342 -0.0959 -0.2943  0.5934
 5656TIP3    H138527   4.022   2.789   7.330  1.4358 -0.5623  1.0108
 5656TIP3    H238528   3.906   2.692   7.329  0.0566  0.9884 -1.4866
 5657TIP3   OH238529   5.681   2.805   1.556 -0.0108 -0.2388 -0.0574
 5657TIP3    H138530   5.736   2.854   1.495 -0.5960  0.9275  0.3164
 5657TIP3    H238531   5.731   2.804   1.638  0.3215 -0.9131 -0.2627
 5658TIP3   OH238532   4.871   4.662   2.116  0.1005  0.2644 -0.3780
 5658TIP3    H138533   4.829   4.671   2.202 -0.1910  2.8646 -0.6989
 5658TIP3    H238534   4.815   4.600   2.069 -1.3475  0.9056  0.4157
 5659TIP3   OH238535   2.426   1.148   0.068 -0.2459 -0.3253  0.2252
 5659TIP3    H138536   2.392   1.116   0.151  0.5135 -0.4709  0.4828
 5659TIP3    H238537   2.503   1.200   0.091  0.9460 -1.7002 -0.4875
 5660TIP3   OH238538   2.769   1.565   1.401  0.3265 -0.1305 -0.0016
 5660TIP3    H138539   2.675   1.567   1.383  0.8240  0.0633 -3.3002
 5660TIP3    H238540   2.805   1.633   1.344  2.4632  0.0043  1.4128
 5661TIP3   OH238541   3.001   4.323   2.097  0.6198 -0.0681  0.1330
 5661TIP3    H138542   2.973   4.337   2.188  0.1128  1.7827 -0.2542
 5661TIP3    H238543   3.094   4.346   2.097  0.3164  1.2818 -0.0367
 5662TIP3   OH238544   6.029   0.508   1.496  0.2183  0.2969  0.5705
 5662TIP3    H138545   5.937   0.517   1.519 -0.2310  1.1578 -1.3578
 5662TIP3    H238546   6.029   0.480   1.405  1.8398  1.8319  0.0336
 5663TIP3   OH238547   0.708   2.200   1.002  0.0787 -0.1418 -0.0722
 5663TIP3    H138548   0.717   2.235   0.913  0.8379 -1.5512 -0.5877
 5663TIP3    H238549   0.765   2.256   1.055  0.8085 -0.1940 -0.7711
 5664TIP3   OH238550   1.403   6.407   0.759  0.3313  0.1969 -0.4166
 5664TIP3    H138551   1.449   6.438   0.681  0.0810  0.9583 -0.2749
 5664TIP3    H238552   1.395   6.484   0.814 -1.2614  0.1405 -0.5153
 5665TIP3   OH238553   4.430   3.299   6.672 -0.6653  0.3365  0.4173
 5665TIP3    H138554   4.389   3.224   6.716 -4.8381  2.9579  1.5361
 5665TIP3    H238555   4.374   3.317   6.597 -0.1744  2.6619  0.5258
 5666TIP3   OH238556   2.088   4.308   1.265  0.0781  0.0727 -0.0331
 5666TIP3    H138557   2.063   4.381   1.209 -0.1737  0.1804  0.2234
 5666TIP3    H238558   2.095   4.345   1.353 -0.6385 -0.3355  0.1981
 5667TIP3   OH238559   6.511   6.105   1.284  0.3489  0.5717 -0.3857
 5667TIP3    H138560   6.519   6.028   1.340  0.0608 -0.0514 -1.1872
 5667TIP3    H238561   6.431   6.149   1.315  0.0752  0.1182 -0.4452
 5668TIP3   OH238562   5.131   2.245   0.408  0.3615 -0.0610 -0.2082
 5668TIP3    H138563   5.171   2.178   0.352  0.2389 -0.6122  0.3547
 5668TIP3    H238564   5.110   2.316   0.348 -2.0941 -1.6178 -1.3814
 5669TIP3   OH238565   6.606   1.772   6.892  0.2811 -0.0081 -0.2331
 5669TIP3    H138566   6.521   1.756   6.851  0.5482  0.2301 -0.8902
 5669TIP3    H238567   6.616   1.867   6.891 -0.4143  0.1443  1.8430
 5670TIP3   OH238568   4.308   0.946   7.306 -0.0742 -0.0346 -0.2524
 5670TIP3    H138569   4.401   0.969   7.299  0.5892 -2.2593  0.2724
 5670TIP3    H238570   4.306   0.876   7.371 -1.8826 -1.1972 -1.4710
 5671TIP3   OH238571   5.473   2.859   1.968 -0.0613  0.0083  0.5399
 5671TIP3    H138572   5.383   2.852   1.935 -0.3952  2.2815  0.7937
 5671TIP3    H238573   5.489   2.775   2.010  0.0897 -2.8046 -4.3809
 5672TIP3   OH238574   2.133   7.116   2.067 -0.6987 -0.1306  0.2322
 5672TIP3    H138575   2.098   7.145   1.982  0.6726 -0.7671 -0.6024
 5672TIP3    H238576   2.174   7.194   2.103 -0.2498 -0.1265 -0.2657
 5673TIP3   OH238577   2.767   2.960   0.312  0.4439  0.0612  0.6961
 5673TIP3    H138578   2.795   3.011   0.236  1.6677  0.8731  1.6551
 5673TIP3    H238579   2.688   3.004   0.343 -0.1220 -0.3392 -0.1558
 5674TIP3   OH238580   3.710   5.372   0.946 -0.6361 -0.1382 -0.5051
 5674TIP3    H138581   3.632   5.399   0.992 -0.3748  0.1764 -0.2447
 5674TIP3    H238582   3.778   5.434   0.973 -0.2629 -0.4852 -0.6229
 5675TIP3   OH238583   3.203   0.498   2.218 -1.0255  0.4566 -0.0005
 5675TIP3    H138584   3.228   0.590   2.209 -0.0995  0.2305  0.1179
 5675TIP3    H238585   3.281   0.449   2.192 -1.6540 -0.3097 -0.4992
 5676TIP3   OH238586   5.540   6.840   1.826  0.8636  0.4181 -0.2702
 5676TIP3    H138587   5.630   6.822   1.853  1.0802 -0.0796 -1.2815
 5676TIP3    H238588   5.527   6.785   1.748 -0.9756 -1.0471  0.9987
 5677TIP3   OH238589   4.640   0.900   0.984 -0.1387 -0.4145 -0.6420
 5677TIP3    H138590   4.694   0.851   0.921 -0.1887  2.2082 -2.9030
 5677TIP3    H238591   4.701   0.963   1.022 -1.1706  1.6263 -2.1713
 5678TIP3   OH238592   4.622   3.349   7.975  0.0738  0.2314 -0.2341
 5678TIP3    H138593   4.623   3.322   8.067  1.0334 -1.5766 -0.7254
 5678TIP3    H238594   4.539   3.316   7.941 -0.0310  0.4140 -0.1580
 5679TIP3   OH238595   0.756   1.519   0.542 -0.1984 -0.0655 -0.6828
 5679TIP3    H138596   0.688   1.481   0.597 -0.1446 -1.0088 -1.2411
 5679TIP3    H238597   0.838   1.482   0.575  0.0637  0.9990 -0.0679
 5680TIP3   OH238598   6.626   4.024   6.553 -1.1575  0.4230 -0.5468
 5680TIP3    H138599   6.606   4.082   6.626 -0.7673  0.3895 -0.4096
 5680TIP3    H238600   6.557   3.958   6.555  0.3251 -1.1865  1.5136
 5681TIP3   OH238601   2.282   6.522   7.617  0.2197  0.0340  0.0251
 5681TIP3    H138602   2.365   6.514   7.665  0.0366  1.0681  0.5449
 5681TIP3    H238603   2.290   6.605   7.571 -0.9587  0.6974  0.9588
 5682TIP3   OH238604   4.553   6.293   1.801  0.5842 -0.3812 -1.1000
 5682TIP3    H138605   4.458   6.287   1.806  0.4376  0.8215 -1.9074
 5682TIP3    H238606   4.584   6.247   1.879 -0.7386  0.8772  0.2562
 5683TIP3   OH238607   6.439   2.393   6.993  0.2930  0.2632  0.6254
 5683TIP3    H138608   6.406   2.341   7.066  0.7601 -0.5748  0.2514
 5683TIP3    H238609   6.410   2.482   7.013  1.1324  0.2172  2.2758
 5684TIP3   OH238610   4.986   0.034   6.219  0.1905  0.1330 -0.4775
 5684TIP3    H138611   4.999  -0.048   6.266  1.1896 -0.5322 -1.8224
 5684TIP3    H238612   5.007   0.103   6.282  0.8612 -0.7028  0.2265
 5685TIP3   OH238613   5.419   6.280   7.194 -0.3483  0.5155  0.0185
 5685TIP3    H138614   5.508   6.312   7.204 -0.1149  0.0656 -0.5353
 5685TIP3    H238615   5.384   6.278   7.283  1.4809 -2.9108  0.8430
 5686TIP3   OH238616   4.128   2.313   0.476  0.3133  0.4595 -0.6833
 5686TIP3    H138617   4.050   2.367   0.491 -0.7651 -1.3201  0.4102
 5686TIP3    H238618   4.096   2.238   0.426  1.7882  0.7665 -2.1804
 5687TIP3   OH238619   2.655   4.342   0.201 -0.8067 -0.0562  0.3570
 5687TIP3    H138620   2.654   4.278   0.272 -0.2378 -1.0603 -0.4956
 5687TIP3    H238621   2.638   4.290   0.122 -0.5903  0.8923 -0.3319
 5688TIP3   OH238622   5.765   0.024   6.864 -0.0042  0.3490 -0.4346
 5688TIP3    H138623   5.816   0.005   6.785 -0.6032  2.1112 -1.2705
 5688TIP3    H238624   5.678  -0.011   6.845  0.2262 -0.5611  0.0781
 5689TIP3   OH238625   1.559   6.319   1.899 -0.1055 -0.2408  0.2300
 5689TIP3    H138626   1.491   6.344   1.962  1.1365  0.3640  1.3738
 5689TIP3    H238627   1.633   6.376   1.921  1.4301 -2.1599  0.2377
 5690TIP3   OH238628   5.502   3.701   7.165  0.0496  0.0694 -0.6811
 5690TIP3    H138629   5.509   3.606   7.178 -0.7776 -0.0877 -1.3564
 5690TIP3    H238630   5.540   3.738   7.245 -1.2899 -0.8414  0.4202
 5691TIP3   OH238631   5.817   0.678   0.702  0.4173  0.8893 -0.0235
 5691TIP3    H138632   5.732   0.658   0.663 -0.0555  1.0059  0.9076
 5691TIP3    H238633   5.849   0.594   0.734 -0.2210  1.1059  1.2735
 5692TIP3   OH238634   5.495   2.770   6.835  0.3903 -0.1364 -0.2480
 5692TIP3    H138635   5.568   2.804   6.887  0.5666  0.7231 -1.0310
 5692TIP3    H238636   5.463   2.846   6.787 -1.0823 -0.4885  0.1425
 5693TIP3   OH238637   5.138   1.095   3.001  0.3672 -0.5839  0.2971
 5693TIP3    H138638   5.225   1.123   3.029  0.1608  0.4339 -0.0405
 5693TIP3    H238639   5.154   1.032   2.932  0.8470  0.2708 -0.3974
 5694TIP3   OH238640   1.899   0.454   1.727  0.1376  0.0686 -0.6232
 5694TIP3    H138641   1.929   0.539   1.694 -0.2499  1.3324  2.0637
 5694TIP3    H238642   1.838   0.475   1.798  0.1485 -2.4514  0.2330
 5695TIP3   OH238643   5.192   6.168   7.045  0.4061  0.3673 -0.4240
 5695TIP3    H138644   5.224   6.146   6.957  0.2847 -0.7483 -0.2132
 5695TIP3    H238645   5.271   6.171   7.099  0.7864  3.5468 -0.9962
 5696TIP3   OH238646   2.731   5.111   2.443 -0.0897 -0.3143 -0.4041
 5696TIP3    H138647   2.638   5.120   2.464  0.0942 -0.5993  0.5628
 5696TIP3    H238648   2.744   5.168   2.367 -1.0221 -0.1611 -0.4570
 5697TIP3   OH238649   7.118   5.079   3.170 -0.6924  0.4978  0.2826
 5697TIP3    H138650   7.035   5.083   3.218  0.3966 -0.9621  2.4752
 5697TIP3    H238651   7.154   4.993   3.193  1.5448  1.2006 -0.3825
 5698TIP3   OH238652   6.589   4.570   6.479  0.2664  0.4039  0.1706
 5698TIP3    H138653   6.631   4.508   6.539  0.5423 -0.9857 -1.3620
 5698TIP3    H238654   6.553   4.514   6.409 -1.8283  1.7807  0.0725
 5699TIP3   OH238655   4.876   5.161   2.112  0.2418 -0.3591 -0.1485
 5699TIP3    H138656   4.940   5.207   2.167  1.4596  0.3752 -2.0816
 5699TIP3    H238657   4.843   5.228   2.052  0.8740 -1.6164 -1.9863
 5700TIP3   OH238658   0.083   4.162   1.661  0.3343  0.4178  0.0484
 5700TIP3    H138659   0.073   4.160   1.756  0.5502 -1.0008  0.0708
 5700TIP3    H238660  -0.007   4.165   1.627  0.1825 -0.5770  0.3105
 5701TIP3   OH238661   0.410   1.519   6.448 -0.3667  0.0964 -0.5156
 5701TIP3    H138662   0.395   1.521   6.354 -1.0744  1.9860 -0.3975
 5701TIP3    H238663   0.503   1.539   6.459  0.1436 -1.8158 -0.8243
 5702TIP3   OH238664   6.835   6.153   2.013  0.3566  0.1896 -0.1928
 5702TIP3    H138665   6.931   6.158   2.005  0.3062 -0.4644 -1.8037
 5702TIP3    H238666   6.817   6.168   2.105  2.1041 -0.7247  0.3384
 5703TIP3   OH238667   4.128   0.782   0.902 -0.2822 -0.0575 -0.1867
 5703TIP3    H138668   4.043   0.760   0.940 -0.4318  0.7567 -0.0272
 5703TIP3    H238669   4.179   0.817   0.975 -0.0685  0.1475 -0.4285
 5704TIP3   OH238670   4.108   6.146   2.144  0.0593  0.2893  0.3676
 5704TIP3    H138671   4.027   6.158   2.194 -0.1587 -0.9387  0.3454
 5704TIP3    H238672   4.082   6.157   2.053 -0.4049 -1.4553  0.2508
 5705TIP3   OH238673   1.253   3.220   0.255  0.4448 -0.2289 -0.3436
 5705TIP3    H138674   1.178   3.260   0.210 -0.9083 -1.9415  0.2815
 5705TIP3    H238675   1.322   3.286   0.248 -1.6800  2.3302  0.7861
 5706TIP3   OH238676   1.091   0.551   1.576 -0.0343 -0.1330 -0.1842
 5706TIP3    H138677   1.088   0.456   1.563 -0.4544 -0.1139 -0.2200
 5706TIP3    H238678   1.136   0.584   1.498 -1.9130 -0.0854 -1.3209
 5707TIP3   OH238679   2.206   5.640   7.097 -0.4317 -0.2957  0.4687
 5707TIP3    H138680   2.239   5.664   7.011 -0.9002  1.1584  0.6843
 5707TIP3    H238681   2.235   5.549   7.108 -0.7487 -0.6576 -1.3838
 5708TIP3   OH238682   3.122   4.804   7.755 -0.0029  0.3769 -0.1576
 5708TIP3    H138683   3.196   4.744   7.752  0.1657  0.5006  0.9181
 5708TIP3    H238684   3.120   4.835   7.846 -0.3132  1.6998 -0.5855
 5709TIP3   OH238685   2.909   2.727   7.948  0.5472 -0.0068  0.3752
 5709TIP3    H138686   2.815   2.741   7.953  0.7540  1.9667 -0.2632
 5709TIP3    H238687   2.942   2.751   8.035  0.4783 -0.5399  0.5484
 5710TIP3   OH238688   0.932   2.116   6.229  0.4007  0.6214 -0.6473
 5710TIP3    H138689   0.904   2.079   6.312  0.2359  0.7009 -0.6663
 5710TIP3    H238690   0.875   2.073   6.164  1.9293 -1.0431 -0.9697
 5711TIP3   OH238691   5.496   2.100   7.081  0.5675 -0.2465 -0.4077
 5711TIP3    H138692   5.563   2.169   7.089  0.9091 -0.7823  1.9999
 5711TIP3    H238693   5.441   2.129   7.008  1.7020  1.7157 -0.5588
 5712TIP3   OH238694   2.607   4.724   7.932 -0.0162 -0.0491 -0.1697
 5712TIP3    H138695   2.518   4.745   7.904 -0.0650 -0.4553 -0.3395
 5712TIP3    H238696   2.596   4.650   7.992  0.1880  0.0487 -0.0115
 5713TIP3   OH238697   2.083   2.690   0.190  0.1854  0.1380  0.2924
 5713TIP3    H138698   2.000   2.673   0.147 -0.8127  2.5968  1.0502
 5713TIP3    H238699   2.135   2.735   0.124  0.7525 -0.9334 -0.0140
 5714TIP3   OH238700   5.741   5.983   1.880  0.1282 -0.2113  0.3028
 5714TIP3    H138701   5.795   5.961   1.956 -0.5604 -0.4950  0.7254
 5714TIP3    H238702   5.668   5.921   1.884 -0.6433  0.6712  0.1954
 5715TIP3   OH238703   1.304   0.333   0.233 -0.0675 -0.2757 -0.2639
 5715TIP3    H138704   1.247   0.292   0.299  1.3821  0.7658  1.7539
 5715TIP3    H238705   1.391   0.297   0.251  0.3746  0.0153 -1.6771
 5716TIP3   OH238706   5.552   7.106   1.208 -0.1855  0.6088  0.4276
 5716TIP3    H138707   5.502   7.077   1.131  0.7760  1.0928 -0.4054
 5716TIP3    H238708   5.507   7.066   1.282 -0.2814 -1.0725 -0.4949
 5717TIP3   OH238709   5.228   5.333   6.998 -0.2128 -0.3379  0.0860
 5717TIP3    H138710   5.198   5.410   6.948 -0.4360 -0.3689  0.1712
 5717TIP3    H238711   5.269   5.277   6.932  1.6577  0.6950  0.2990
 5718TIP3   OH238712   3.532   3.148   1.663  0.5277 -0.4567  0.1981
 5718TIP3    H138713   3.506   3.238   1.680 -0.9252 -0.4451 -1.7711
 5718TIP3    H238714   3.456   3.095   1.687  1.3744 -1.1953  1.3670
 5719TIP3   OH238715   2.691   6.411   1.736 -0.1526 -0.4104  0.4544
 5719TIP3    H138716   2.684   6.380   1.646  2.5497 -0.7343  0.2739
 5719TIP3    H238717   2.713   6.504   1.728  0.4185 -0.5146  0.7474
 5720TIP3   OH238718   3.757   5.180   0.544  0.1606 -0.1249 -0.3239
 5720TIP3    H138719   3.708   5.246   0.594  0.8642  1.0112 -1.0781
 5720TIP3    H238720   3.699   5.105   0.540 -0.2977  0.0948  1.3686
 5721TIP3   OH238721   3.233   3.731   2.406  0.9932 -0.5309  0.3002
 5721TIP3    H138722   3.220   3.788   2.482  0.0397 -0.9622  0.4737
 5721TIP3    H238723   3.215   3.643   2.439  0.8530 -0.7560 -0.3639
 5722TIP3   OH238724   4.348   3.296   7.011 -1.2081 -0.3710 -0.4176
 5722TIP3    H138725   4.320   3.326   7.098 -1.1972  1.4623 -1.0151
 5722TIP3    H238726   4.351   3.200   7.019  0.7898 -0.1841  2.1967
 5723TIP3   OH238727   3.185   5.922   7.599 -0.3649  0.0457  0.1268
 5723TIP3    H138728   3.206   6.013   7.620 -0.6738  0.0998  0.2085
 5723TIP3    H238729   3.255   5.871   7.640 -0.0199  0.2673 -0.1862
 5724TIP3   OH238730   2.852   0.507   6.986 -0.0346  0.3180 -0.8725
 5724TIP3    H138731   2.798   0.438   6.949 -1.0192  0.4857  0.1948
 5724TIP3    H238732   2.857   0.573   6.917 -2.1506  0.7923 -0.6643
 5725TIP3   OH238733   4.453   7.085   6.186 -0.3368  0.3022  0.0745
 5725TIP3    H138734   4.439   7.146   6.258 -0.1664 -0.2492  0.5802
 5725TIP3    H238735   4.509   7.133   6.124 -0.5522  0.8064  0.2657
 5726TIP3   OH238736   2.621   5.844   0.462 -0.2130  0.0351 -0.2360
 5726TIP3    H138737   2.715   5.857   0.445 -0.2583  0.3086 -0.2863
 5726TIP3    H238738   2.608   5.749   0.453  0.3496 -0.2157  1.3059
 5727TIP3   OH238739   3.307   5.840   6.443 -0.1202 -0.2477 -0.8594
 5727TIP3    H138740   3.313   5.752   6.407 -0.1376  0.1296 -1.8245
 5727TIP3    H238741   3.272   5.828   6.531  0.8940 -1.2878 -0.5678
 5728TIP3   OH238742   0.079   4.036   7.534  0.1333  0.4083  0.3289
 5728TIP3    H138743   0.024   4.086   7.473  1.3287  0.4126 -0.8010
 5728TIP3    H238744   0.100   3.955   7.486  0.8217  0.2526  0.8757
 5729TIP3   OH238745   6.442   1.710   1.766  0.3019  0.4075 -0.8522
 5729TIP3    H138746   6.392   1.756   1.833  0.7883 -1.0628  0.6035
 5729TIP3    H238747   6.392   1.721   1.686 -1.5181  0.3281  0.2269
 5730TIP3   OH238748   6.065   4.277   0.506 -0.1841 -0.5482  0.0888
 5730TIP3    H138749   6.073   4.369   0.534  2.5621 -0.4661 -0.6650
 5730TIP3    H238750   6.142   4.234   0.543 -1.3306 -2.5594  0.2838
 5731TIP3   OH238751   2.474   4.231   7.622  0.1425 -0.2260 -0.0802
 5731TIP3    H138752   2.409   4.246   7.690  1.2109 -1.6810  1.3325
 5731TIP3    H238753   2.460   4.140   7.595  1.2307 -0.4043 -0.1195
 5732TIP3   OH238754   1.502   3.354   1.374  0.3852 -0.8992 -0.4034
 5732TIP3    H138755   1.565   3.426   1.376 -0.5627 -0.0264 -0.9915
 5732TIP3    H238756   1.499   3.322   1.464  4.3711 -3.4436 -0.9005
 5733TIP3   OH238757   2.769   3.789   7.444  0.1036 -0.0488 -0.2650
 5733TIP3    H138758   2.768   3.779   7.349  0.3641  1.8816 -0.5117
 5733TIP3    H238759   2.797   3.704   7.477  1.7640 -0.2360 -2.0035
 5734TIP3   OH238760   3.040   2.243   6.600  0.6111  0.3116 -0.2199
 5734TIP3    H138761   3.092   2.168   6.628  0.8882  0.2969 -0.7586
 5734TIP3    H238762   3.033   2.232   6.505 -2.1008 -0.8029  0.0214
 5735TIP3   OH238763   3.338   1.401   1.140  0.5685  0.0931 -0.7447
 5735TIP3    H138764   3.289   1.342   1.197  2.7311 -0.9001  0.2103
 5735TIP3    H238765   3.370   1.345   1.069  0.3390  0.7158 -1.3511
 5736TIP3   OH238766   4.317   4.569   0.661 -0.4609  0.2554  0.0972
 5736TIP3    H138767   4.265   4.501   0.702  0.6369 -0.6246  0.0655
 5736TIP3    H238768   4.253   4.635   0.634 -1.8748 -1.8033 -1.9760
 5737TIP3   OH238769   2.197   6.825   0.618  0.5001  0.1796  0.6030
 5737TIP3    H138770   2.103   6.812   0.610  0.5435 -2.1296  2.7602
 5737TIP3    H238771   2.233   6.796   0.534 -0.6409  0.7417 -0.1062
 5738TIP3   OH238772   2.825   5.111   0.421  0.1196  0.9031  0.1610
 5738TIP3    H138773   2.816   5.087   0.328  1.5394 -1.1458  0.5006
 5738TIP3    H238774   2.743   5.084   0.461  0.7281 -1.2662  0.0553
 5739TIP3   OH238775   5.624   4.461   3.037 -0.5759 -0.3079  0.0796
 5739TIP3    H138776   5.706   4.493   2.999 -0.2957 -1.5264 -0.3934
 5739TIP3    H238777   5.571   4.434   2.962 -1.3498  0.2966  0.3923
 5740TIP3   OH238778   0.456   6.912   7.105  0.2967  0.5809 -0.3295
 5740TIP3    H138779   0.393   6.907   7.034  0.6974  0.8103 -0.7039
 5740TIP3    H238780   0.482   7.004   7.107 -1.4468  1.1268  1.6275
 5741TIP3   OH238781   6.504   3.006   2.087  0.3893 -0.1807  0.4705
 5741TIP3    H138782   6.474   3.060   2.161 -0.7750 -0.1783  0.0228
 5741TIP3    H238783   6.587   2.970   2.116  2.0140  3.0542  0.2284
 5742TIP3   OH238784   1.596   6.071   7.844  0.4824 -0.3429  0.4724
 5742TIP3    H138785   1.612   6.082   7.750 -2.2405  0.0297 -0.0293
 5742TIP3    H238786   1.521   6.126   7.862  0.5777 -0.8750  2.7800
 5743TIP3   OH238787   3.658   5.136   7.071  0.5807 -0.7807 -0.2830
 5743TIP3    H138788   3.577   5.132   7.122  1.5200  0.4804  1.4136
 5743TIP3    H238789   3.725   5.159   7.135  2.1179 -0.7777 -1.8330
 5744TIP3   OH238790   5.112   4.019   1.709 -0.1713  0.7997  0.2316
 5744TIP3    H138791   5.105   4.109   1.678  0.7190  1.0849  0.8243
 5744TIP3    H238792   5.200   4.013   1.745 -0.0912 -0.4142 -0.1212
 5745TIP3   OH238793   4.466   0.008   1.558 -0.4479  0.8268  0.5199
 5745TIP3    H138794   4.512   0.091   1.570 -1.9377  2.1022 -1.7023
 5745TIP3    H238795   4.383   0.018   1.605 -0.2333  0.1974  1.0501
 5746TIP3   OH238796   4.425   1.387   2.210  0.6147  0.0945  0.0757
 5746TIP3    H138797   4.415   1.475   2.174 -2.1501 -0.5057 -0.9362
 5746TIP3    H238798   4.511   1.358   2.180  1.1354  2.0750 -0.4478
 5747TIP3   OH238799   4.024   7.022   7.746 -0.2774  0.5127  0.1367
 5747TIP3    H138800   3.975   7.064   7.675  2.4695  0.5122 -1.8892
 5747TIP3    H238801   4.046   6.935   7.713 -1.9318 -0.9257  2.4831
 5748TIP3   OH238802   1.596   0.606   0.490 -0.4884  0.3273 -0.0788
 5748TIP3    H138803   1.641   0.668   0.431 -1.6795  1.5896  0.2923
 5748TIP3    H238804   1.520   0.576   0.440 -1.0921  0.8246  0.5298
 5749TIP3   OH238805   5.794   4.786   0.517 -0.3126 -0.4428  0.4209
 5749TIP3    H138806   5.817   4.700   0.482 -0.3262 -0.6665  0.9457
 5749TIP3    H238807   5.709   4.805   0.479 -0.1886 -0.5346  0.0865
 5750TIP3   OH238808   4.344   2.275   0.658  0.5945  0.3010  0.5311
 5750TIP3    H138809   4.269   2.284   0.599 -0.9246  1.0513  2.4676
 5750TIP3    H238810   4.415   2.247   0.602 -0.8012  0.8500 -1.6282
 5751TIP3   OH238811   6.989   2.602   1.648  0.1575 -0.1209  1.0587
 5751TIP3    H138812   7.017   2.645   1.568 -2.2323 -0.4239 -0.0096
 5751TIP3    H238813   7.029   2.515   1.644 -1.6230 -0.9003 -0.9030
 5752TIP3   OH238814   2.743   4.764   1.809 -0.0978 -0.1369  0.2280
 5752TIP3    H138815   2.832   4.746   1.777  0.0550  0.4806  0.3007
 5752TIP3    H238816   2.753   4.838   1.868 -0.6162 -0.2862  0.5089
 5753TIP3   OH238817   2.296   6.194   0.324 -0.6050  0.1477 -0.0895
 5753TIP3    H138818   2.300   6.223   0.415  0.9056 -1.8867  0.5638
 5753TIP3    H238819   2.327   6.269   0.274  1.1239  0.4402  1.3292
 5754TIP3   OH238820   1.994   1.215   7.735  0.1203 -0.2489 -0.0283
 5754TIP3    H138821   2.087   1.193   7.734  0.2699  0.2647  1.1255
 5754TIP3    H238822   1.965   1.200   7.645  1.2040 -0.8677 -0.2931
 5755TIP3   OH238823   1.466   1.382   7.880  0.0276 -0.3835 -0.1958
 5755TIP3    H138824   1.414   1.455   7.913  0.8944  0.1951 -0.0659
 5755TIP3    H238825   1.404   1.326   7.833 -0.9014 -0.3326  0.9607
 5756TIP3   OH238826   6.713   6.846   5.957  0.6178 -0.0803  0.7246
 5756TIP3    H138827   6.781   6.781   5.975  1.0215  0.5423  1.4987
 5756TIP3    H238828   6.649   6.799   5.903  0.0923 -1.5984  2.5484
 5757TIP3   OH238829   1.427   1.237   1.834  0.4577 -0.3249 -0.1700
 5757TIP3    H138830   1.335   1.254   1.855  0.4657  1.5040 -1.3769
 5757TIP3    H238831   1.474   1.312   1.870  1.1772 -0.0963 -1.5397
 5758TIP3   OH238832   2.377   2.506   1.295 -0.7999  0.1445 -0.2489
 5758TIP3    H138833   2.331   2.490   1.212 -0.7189  1.2119 -0.5145
 5758TIP3    H238834   2.444   2.438   1.299  1.0635  1.6902 -2.4596
 5759TIP3   OH238835   0.478   0.298   7.083 -0.7076 -0.1700 -0.9128
 5759TIP3    H138836   0.509   0.362   7.019 -0.2100  0.4774 -0.0561
 5759TIP3    H238837   0.385   0.315   7.092 -0.9898 -0.9362 -2.1919
 5760TIP3   OH238838   4.460   1.871   7.400 -0.1563 -0.4061 -0.0123
 5760TIP3    H138839   4.456   1.795   7.342 -2.5022 -0.1329 -0.2900
 5760TIP3    H238840   4.413   1.844   7.479  2.8886 -0.7369  1.8820
 5761TIP3   OH238841   3.020   0.322   2.104 -0.4910 -0.1238 -0.1522
 5761TIP3    H138842   2.951   0.358   2.048 -0.7742 -0.7551 -0.2238
 5761TIP3    H238843   3.074   0.397   2.127 -0.1408  0.0932 -1.6000
 5762TIP3   OH238844   3.202   4.407   7.667  0.0142 -0.1168 -0.0676
 5762TIP3    H138845   3.289   4.392   7.630 -0.5089 -0.6783 -1.1324
 5762TIP3    H238846   3.149   4.436   7.592 -0.7587  0.0483  0.5264
 5763TIP3   OH238847   5.878   2.327   6.939  0.5322  0.6747  0.4952
 5763TIP3    H138848   5.927   2.362   6.864  1.1488  0.6793  0.8971
 5763TIP3    H238849   5.814   2.267   6.900  0.6921  0.8557 -0.0510
 5764TIP3   OH238850   1.172   3.119   7.180 -0.1546 -0.4875  0.3754
 5764TIP3    H138851   1.122   3.170   7.115  1.2808  0.7498  0.1865
 5764TIP3    H238852   1.150   3.159   7.264 -0.2819 -0.6145  0.4017
 5765TIP3   OH238853   3.185   6.832   6.733 -0.0039 -0.1018  0.0149
 5765TIP3    H138854   3.234   6.753   6.759 -1.0870 -0.4985  0.9679
 5765TIP3    H238855   3.200   6.840   6.639  1.8507 -0.2095  0.2587
 5766TIP3   OH238856   7.073   0.373   6.699  0.5052 -0.4426 -0.4393
 5766TIP3    H138857   7.108   0.444   6.646  0.8016 -0.6956 -0.5886
 5766TIP3    H238858   6.989   0.405   6.730  0.0812 -0.4903 -1.4966
 5767TIP3   OH238859   4.847   6.867   7.322 -0.0509 -0.2885  0.6275
 5767TIP3    H138860   4.774   6.807   7.340  0.2252 -0.5676  0.8089
 5767TIP3    H238861   4.806   6.954   7.322 -0.8946 -0.6131 -1.9312
 5768TIP3   OH238862   1.214   4.507   2.082  0.5935  0.0345 -0.4322
 5768TIP3    H138863   1.179   4.437   2.027  1.6661 -1.1183  0.2971
 5768TIP3    H238864   1.291   4.468   2.124  0.5121  1.2651  0.9267
 5769TIP3   OH238865   2.851   5.373   0.642 -0.0523  0.0356 -0.4829
 5769TIP3    H138866   2.901   5.410   0.569  1.4936  1.9282  1.3789
 5769TIP3    H238867   2.776   5.330   0.601 -0.6803  3.1936 -3.0527
 5770TIP3   OH238868   6.256   1.021   6.821  0.3362 -0.1275  0.1519
 5770TIP3    H138869   6.287   1.050   6.736  1.7782 -1.6282  0.1049
 5770TIP3    H238870   6.161   1.033   6.818  0.3446 -0.2604 -1.7066
 5771TIP3   OH238871   4.068   5.205   1.970 -0.4119  0.6352  0.6587
 5771TIP3    H138872   4.031   5.293   1.982  0.8035  0.9207  2.7679
 5771TIP3    H238873   3.995   5.153   1.938 -1.0444  2.4974 -1.1476
 5772TIP3   OH238874   2.472   3.938   7.481 -0.7967  0.1712  1.3244
 5772TIP3    H138875   2.487   3.863   7.423 -0.0690 -0.3294  2.1240
 5772TIP3    H238876   2.535   4.003   7.452 -1.7079  0.6391  0.3664
 5773TIP3   OH238877   0.918   6.511   1.857  0.1861 -0.1325  0.0207
 5773TIP3    H138878   0.949   6.438   1.911  0.4647  0.4389  0.6512
 5773TIP3    H238879   0.911   6.585   1.918 -0.4158  0.2881 -0.5336
 5774TIP3   OH238880   3.356   2.534   0.343  0.0753  0.3907 -0.1665
 5774TIP3    H138881   3.351   2.605   0.279  0.6682  1.6647  1.1468
 5774TIP3    H238882   3.350   2.577   0.428  1.1486 -1.0617  0.6994
 5775TIP3   OH238883   5.923   0.288   6.362 -0.3793  0.4929 -0.7153
 5775TIP3    H138884   5.977   0.364   6.339 -2.5606  2.2479 -0.3598
 5775TIP3    H238885   5.958   0.217   6.308  1.6448  1.7605 -1.1866
 5776TIP3   OH238886   6.952   3.020   7.678 -0.0517 -0.1572 -0.0914
 5776TIP3    H138887   7.016   2.949   7.688  2.0059  0.4058 -5.4170
 5776TIP3    H238888   6.874   2.977   7.644  0.4932 -0.1634 -1.4003
 5777TIP3   OH238889   2.041   0.081   7.778  0.5106  0.4044 -0.0893
 5777TIP3    H138890   2.099   0.100   7.852  0.5165 -1.2058  0.3596
 5777TIP3    H238891   2.053   0.155   7.719  2.2350  0.6382  0.4759
 5778TIP3   OH238892   5.058   4.045   0.607 -0.4345  0.1192  0.4620
 5778TIP3    H138893   5.116   4.041   0.682  0.0288  0.6901  0.1470
 5778TIP3    H238894   5.000   4.119   0.625 -0.7573 -0.1518  0.5550
 5779TIP3   OH238895   1.999   1.065   1.591  0.1463 -0.1447 -0.0117
 5779TIP3    H138896   1.945   1.094   1.518 -1.3605 -0.7179  0.8415
 5779TIP3    H238897   2.064   1.134   1.602 -0.8356  0.9009 -0.6372
 5780TIP3   OH238898   2.099   5.990   1.017 -0.0238 -0.1011 -0.4861
 5780TIP3    H138899   2.194   5.986   1.014  0.1679  1.1761  1.4287
 5780TIP3    H238900   2.074   5.927   1.085 -0.1298  2.1854  1.7772
 5781TIP3   OH238901   2.928   3.873   1.341 -0.8893 -0.1355 -0.6700
 5781TIP3    H138902   2.896   3.932   1.409  0.3605 -0.0276 -0.1515
 5781TIP3    H238903   2.881   3.899   1.262 -3.5931 -1.3084  0.4316
 5782TIP3   OH238904   2.940   1.250   0.449 -0.6592 -0.1457 -0.1947
 5782TIP3    H138905   2.882   1.296   0.509  0.0568 -0.9052  1.1255
 5782TIP3    H238906   2.883   1.189   0.402 -1.0465 -0.4389  0.6357
 5783TIP3   OH238907   0.385   3.361   7.450 -0.4028 -0.2699  0.1961
 5783TIP3    H138908   0.311   3.420   7.460  0.3303  0.7771 -0.2512
 5783TIP3    H238909   0.462   3.419   7.449  0.4106 -1.2998  0.4873
 5784TIP3   OH238910   1.888   7.100   7.501 -0.5496 -0.2214  0.5109
 5784TIP3    H138911   1.908   7.006   7.494 -1.9253 -0.4931 -0.1022
 5784TIP3    H238912   1.964   7.143   7.462  1.1888 -0.9316  2.8345
 5785TIP3   OH238913   2.174   4.682   1.482 -0.0579  0.1764  0.9072
 5785TIP3    H138914   2.216   4.732   1.552 -0.2694  2.4636 -0.5105
 5785TIP3    H238915   2.222   4.599   1.479  2.0491  1.3148  1.6508
 5786TIP3   OH238916   5.281   1.936   0.905 -0.5075 -0.0579  0.2389
 5786TIP3    H138917   5.196   1.917   0.864 -0.3944  0.8236 -0.4147
 5786TIP3    H238918   5.269   2.021   0.947  0.7490  1.2312 -1.8936
 5787TIP3   OH238919   4.693   3.636   0.068 -0.1127 -0.2511 -0.5634
 5787TIP3    H138920   4.781   3.674   0.059  0.1902 -0.3897  1.4164
 5787TIP3    H238921   4.665   3.620  -0.022  0.9930  1.8146 -1.3482
 5788TIP3   OH238922   4.394   0.097   6.791 -0.3899  0.2916  0.1759
 5788TIP3    H138923   4.368   0.013   6.753  0.4454  0.0110  0.2145
 5788TIP3    H238924   4.463   0.075   6.853  0.3439  1.0822 -0.3345
 5789TIP3   OH238925   1.292   3.179   0.883  0.2666  0.0963  0.1755
 5789TIP3    H138926   1.373   3.141   0.915  0.3045 -1.1652 -1.3357
 5789TIP3    H238927   1.308   3.197   0.790 -1.2778 -0.4794 -0.2332
 5790TIP3   OH238928   2.517   4.622   0.496 -0.0207  0.8621  0.2851
 5790TIP3    H138929   2.422   4.628   0.493  0.0512  3.9890  0.7918
 5790TIP3    H238930   2.544   4.611   0.405 -0.8304  1.4598 -0.0406
 5791TIP3   OH238931   0.279   2.756   0.559  0.2011 -0.0886 -0.3646
 5791TIP3    H138932   0.314   2.668   0.571 -0.0432 -0.0397  0.8808
 5791TIP3    H238933   0.311   2.783   0.473 -0.8376 -1.8933 -1.3679
 5792TIP3   OH238934   2.680   5.935   7.498  0.2792 -0.1446  0.3566
 5792TIP3    H138935   2.609   5.902   7.443  0.6294 -0.7054  0.2263
 5792TIP3    H238936   2.688   5.871   7.569  0.5413  0.0038  0.4654
 5793TIP3   OH238937   2.955   1.697   0.972 -0.1732 -0.0572 -1.0112
 5793TIP3    H138938   2.867   1.678   0.940 -1.4661  3.3238  0.1921
 5793TIP3    H238939   2.993   1.755   0.906  0.7412 -0.5391 -0.9300
 5794TIP3   OH238940   6.398   5.882   2.245 -0.2850 -0.9663  0.6605
 5794TIP3    H138941   6.336   5.954   2.256  1.0672  0.6895 -1.7274
 5794TIP3    H238942   6.466   5.917   2.188  1.6841 -3.4295  1.2992
 5795TIP3   OH238943   5.851   1.933   1.241 -0.1745  0.1046 -0.1756
 5795TIP3    H138944   5.915   1.868   1.216 -0.5067 -0.8409  1.2881
 5795TIP3    H238945   5.820   1.905   1.328 -0.6773  1.9344  0.2941
 5796TIP3   OH238946   4.331   6.800   1.058  0.1061 -0.1176 -0.2245
 5796TIP3    H138947   4.386   6.878   1.069 -0.0036 -0.0385 -0.2431
 5796TIP3    H238948   4.301   6.805   0.967  0.7027 -0.5689 -0.4579
 5797TIP3   OH238949   3.751   2.993   6.918  0.4031  0.0203 -0.4689
 5797TIP3    H138950   3.681   3.046   6.882  0.6711  0.2570 -0.6417
 5797TIP3    H238951   3.760   2.919   6.858 -1.2551 -1.2573  0.7660
 5798TIP3   OH238952   1.394   0.009   0.860  0.0360  0.5994 -0.1113
 5798TIP3    H138953   1.382   0.009   0.765 -0.0316  2.1861 -0.1314
 5798TIP3    H238954   1.435   0.093   0.879  0.3261  0.1847  1.2464
 5799TIP3   OH238955   1.775   6.266   1.539 -0.0491 -0.1183 -0.3348
 5799TIP3    H138956   1.825   6.227   1.610 -0.7301 -1.1926 -0.4301
 5799TIP3    H238957   1.823   6.243   1.459 -1.2498 -2.1496 -0.5339
 5800TIP3   OH238958   6.434   0.573   2.003 -1.0505 -0.3885 -0.2235
 5800TIP3    H138959   6.490   0.536   2.071  0.7633  3.8543  0.8913
 5800TIP3    H238960   6.346   0.574   2.042 -0.5984 -0.7346  0.8372
 5801TIP3   OH238961   1.191   3.899   2.009  0.7706 -0.5423  0.0317
 5801TIP3    H138962   1.178   3.812   2.047 -0.5271 -0.8660 -1.0956
 5801TIP3    H238963   1.267   3.934   2.056 -0.1475 -1.2938  2.2253
 5802TIP3   OH238964   5.708   3.387   1.976 -0.0410 -0.3272 -0.0278
 5802TIP3    H138965   5.666   3.462   2.018 -0.1116  0.1092 -0.8608
 5802TIP3    H238966   5.646   3.315   1.988 -0.5601  0.0624 -0.3317
 5803TIP3   OH238967   0.550   2.829   7.441 -0.3130  0.0650  0.0638
 5803TIP3    H138968   0.544   2.900   7.504  2.2324 -0.5216  1.0900
 5803TIP3    H238969   0.610   2.861   7.374 -0.4470 -0.5159 -0.3424
 5804TIP3   OH238970   2.447   5.206   6.877  0.6697 -0.6037 -0.4376
 5804TIP3    H138971   2.430   5.113   6.860  2.0508 -0.6921 -1.5568
 5804TIP3    H238972   2.430   5.250   6.794 -0.7304  0.2869  0.2939
 5805TIP3   OH238973   4.226   4.968   0.918 -0.3897 -0.3455 -0.4440
 5805TIP3    H138974   4.225   4.945   1.010 -0.0854  2.1151  0.2458
 5805TIP3    H238975   4.186   5.055   0.914  0.0838 -0.1564 -2.5523
 5806TIP3   OH238976   0.315   3.379   0.414 -0.2798 -0.4364  0.1405
 5806TIP3    H138977   0.376   3.442   0.451 -0.1803 -1.2470  1.4051
 5806TIP3    H238978   0.234   3.392   0.463 -1.2067  0.6918 -1.5809
 5807TIP3   OH238979   0.445   1.669   0.005 -0.6471  0.3863  0.0095
 5807TIP3    H138980   0.373   1.713  -0.040  1.0076  0.3507 -2.8731
 5807TIP3    H238981   0.492   1.622  -0.063  0.8306 -1.4509  2.1496
 5808TIP3   OH238982   4.353   4.988   0.322 -0.3055 -0.1176 -0.6348
 5808TIP3    H138983   4.413   5.033   0.381 -0.7823 -0.9351  0.5018
 5808TIP3    H238984   4.271   5.036   0.329  0.1399  0.9037 -2.0683
 5809TIP3   OH238985   5.531   5.076   2.568  0.1684 -0.1754 -0.4102
 5809TIP3    H138986   5.483   5.058   2.649  1.3919  0.0835  0.4103
 5809TIP3    H238987   5.604   5.014   2.569 -1.5312 -2.4674 -2.9774
 5810TIP3   OH238988   3.108   5.259   0.749  0.4660 -0.6493 -0.1191
 5810TIP3    H138989   3.057   5.290   0.824 -0.7370  0.6479 -1.4031
 5810TIP3    H238990   3.048   5.201   0.702  1.3077 -1.6902  0.0456
 5811TIP3   OH238991   2.373   5.568   1.601  0.0475  0.8632 -0.7315
 5811TIP3    H138992   2.294   5.614   1.574 -0.8712  0.4778  1.1158
 5811TIP3    H238993   2.435   5.581   1.530 -2.2958 -0.4694 -3.1821
 5812TIP3   OH238994   1.646   6.017   1.845  0.2166 -0.1014 -0.1034
 5812TIP3    H138995   1.590   6.011   1.923  1.8154  1.2325  1.2199
 5812TIP3    H238996   1.617   6.097   1.801  1.2161  0.7519  0.7415
 5813TIP3   OH238997   6.822   1.176   0.702  1.1138  0.2471 -0.4812
 5813TIP3    H138998   6.742   1.155   0.654  0.7628  1.1483 -0.2956
 5813TIP3    H238999   6.880   1.214   0.636  1.5746 -0.8246 -0.7154
 5814TIP3   OH239000   6.029   6.418   7.106  0.5825  0.4416  0.2482
 5814TIP3    H139001   6.023   6.390   7.014  2.8631  0.9005 -0.0991
 5814TIP3    H239002   6.072   6.344   7.150  1.3507  1.0328  0.5092
 5815TIP3   OH239003   3.500   4.796   0.386  0.0367 -0.1719 -0.1014
 5815TIP3    H139004   3.422   4.850   0.386 -0.9408 -1.4400  2.0837
 5815TIP3    H239005   3.471   4.712   0.422  1.8127 -1.6683 -1.9003
 5816TIP3   OH239006   5.069   2.143   0.679 -0.5384  0.3640 -0.1690
 5816TIP3    H139007   4.991   2.098   0.643 -0.5639 -1.9104  2.4002
 5816TIP3    H239008   5.134   2.135   0.610 -2.3145  1.7633 -2.1506
 5817TIP3   OH239009   2.681   4.911   7.420  0.0419  0.0560 -0.4710
 5817TIP3    H139010   2.666   4.874   7.333  1.0039 -0.5639 -0.3974
 5817TIP3    H239011   2.631   4.855   7.479  0.6940 -0.5396 -0.4671
 5818TIP3   OH239012   2.119   5.689   0.877  0.0169  0.5493  0.0608
 5818TIP3    H139013   2.127   5.607   0.926  0.0227  0.4975 -0.0265
 5818TIP3    H239014   2.086   5.752   0.941 -0.8071  0.2782 -0.0860
 5819TIP3   OH239015   1.962   0.388   0.419  0.3895 -0.4478  0.3857
 5819TIP3    H139016   1.929   0.303   0.449 -2.3544  0.1963 -0.5239
 5819TIP3    H239017   2.013   0.368   0.341 -0.9874 -1.2409 -0.3542
 5820TIP3   OH239018   4.160   3.388   7.618 -0.1034  0.2637 -0.2096
 5820TIP3    H139019   4.135   3.318   7.558 -1.7823  0.4373  0.2360
 5820TIP3    H239020   4.253   3.403   7.600  0.2505 -1.9271 -0.4252
 5821TIP3   OH239021   6.098   6.385   7.960  0.5372 -0.0096  0.2956
 5821TIP3    H139022   6.113   6.309   7.903 -1.2253 -1.0824  1.1996
 5821TIP3    H239023   6.096   6.349   8.048  0.1680  1.1750  0.7896
 5822TIP3   OH239024   3.171   6.937   1.752 -0.8687  0.5308 -0.0973
 5822TIP3    H139025   3.145   6.846   1.734 -0.7819  0.6087 -0.6360
 5822TIP3    H239026   3.218   6.932   1.835 -2.4061  0.3482  0.8133
 5823TIP3   OH239027   2.728   2.529   0.489 -0.4199  0.0320 -0.2480
 5823TIP3    H139028   2.658   2.591   0.510 -0.0491  0.6427 -0.7720
 5823TIP3    H239029   2.808   2.575   0.515 -0.0815  0.0943 -1.3782
 5824TIP3   OH239030   4.173   1.195   1.434  0.7760 -0.0167  0.1396
 5824TIP3    H139031   4.246   1.239   1.391  0.6748  0.9255  0.8980
 5824TIP3    H239032   4.105   1.262   1.441  0.7785 -0.1353  1.7370
 5825TIP3   OH239033   2.935   2.502   7.607 -0.0589 -0.0912 -0.3204
 5825TIP3    H139034   3.007   2.452   7.569  1.2035  0.7493  0.8717
 5825TIP3    H239035   2.860   2.484   7.550  0.3751 -3.1185 -0.0720
 5826TIP3   OH239036   5.860   5.401   7.052 -0.0952 -0.9225  0.1140
 5826TIP3    H139037   5.834   5.485   7.089 -0.5250 -0.8420 -0.3657
 5826TIP3    H239038   5.849   5.339   7.125  0.7117 -0.4910  0.6151
 5827TIP3   OH239039   3.916   6.397   1.039  0.3416 -0.3424  0.6999
 5827TIP3    H139040   3.957   6.481   1.018  0.8523 -0.4970  1.0611
 5827TIP3    H239041   3.990   6.337   1.052 -0.0127 -0.7808  0.7227
 5828TIP3   OH239042   5.195   1.220   1.976 -0.5448 -0.2896 -0.0907
 5828TIP3    H139043   5.124   1.232   1.913  2.1231  1.1559 -3.0947
 5828TIP3    H239044   5.170   1.274   2.051 -3.0459 -0.7005 -0.5390
 5829TIP3   OH239045   2.212   0.333   2.187  0.1652 -0.4625  0.7543
 5829TIP3    H139046   2.235   0.332   2.094  2.4465 -1.1561  1.2683
 5829TIP3    H239047   2.118   0.311   2.189  0.1467 -0.7762 -1.3354
 5830TIP3   OH239048   5.196   5.895   7.706  0.5611 -0.0481  0.1969
 5830TIP3    H139049   5.187   5.801   7.725  1.0165  0.0137  0.7465
 5830TIP3    H239050   5.157   5.938   7.782  0.7104  0.2055  0.1288
 5831TIP3   OH239051   2.101   3.459   7.604 -0.6679 -0.8481  0.1784
 5831TIP3    H139052   2.088   3.419   7.690  0.0296  1.9430  1.7397
 5831TIP3    H239053   2.191   3.437   7.581 -0.6691 -1.1287  0.4363
 5832TIP3   OH239054   5.778   1.779   0.874  0.0463  0.1289 -0.2012
 5832TIP3    H139055   5.836   1.716   0.833  0.8217 -0.2599  1.4038
 5832TIP3    H239056   5.836   1.841   0.918 -0.7351  0.2640  0.6783
 5833TIP3   OH239057   4.734   5.378   6.736 -0.3582 -0.3803 -0.5724
 5833TIP3    H139058   4.732   5.460   6.686  0.3521 -0.5682 -0.9298
 5833TIP3    H239059   4.799   5.394   6.805 -1.7398  0.0758  0.6847
 5834TIP3   OH239060   5.038   0.510   0.700  0.6384 -0.3014 -0.0009
 5834TIP3    H139061   5.027   0.467   0.615  2.0748  1.1681 -1.0021
 5834TIP3    H239062   5.130   0.494   0.724  0.8747  1.1284  0.1654
 5835TIP3   OH239063   3.146   2.321   0.858 -0.0291 -0.0319 -0.3096
 5835TIP3    H139064   3.133   2.300   0.766  1.0965  0.4152 -0.5798
 5835TIP3    H239065   3.234   2.289   0.878 -0.9460 -1.8652  1.1384
 5836TIP3   OH239066   4.686   6.020   0.253  0.3214  0.0977  0.6593
 5836TIP3    H139067   4.616   6.084   0.238 -0.5152 -0.8700  0.3039
 5836TIP3    H239068   4.688   6.010   0.348  0.5942  0.7776  0.7363
 5837TIP3   OH239069   3.905   3.626   0.616  0.2261 -0.2297  0.3996
 5837TIP3    H139070   3.861   3.622   0.532 -0.8295  0.3081  0.9052
 5837TIP3    H239071   3.834   3.623   0.681  1.0385 -1.1241  1.2903
 5838TIP3   OH239072   0.151   5.019   0.089 -0.1029  0.7083  0.2434
 5838TIP3    H139073   0.108   5.066   0.018 -2.1102 -0.2691  0.7185
 5838TIP3    H239074   0.140   5.075   0.166  0.1548  0.7970  0.2163
 5839TIP3   OH239075   0.758   2.921   0.581 -0.3336 -0.0589 -0.1817
 5839TIP3    H139076   0.749   3.016   0.589  0.0986 -0.0805  0.6620
 5839TIP3    H239077   0.796   2.907   0.494  2.5197  0.7541  0.8320
 5840TIP3   OH239078   3.157   1.601   7.113  0.3697 -0.1348 -0.3534
 5840TIP3    H139079   3.131   1.684   7.074  1.5274  0.3746 -0.0957
 5840TIP3    H239080   3.166   1.620   7.206  1.0242 -0.4381 -0.3468
 5841TIP3   OH239081   1.663   2.549   0.420 -0.7636  0.2299  0.0125
 5841TIP3    H139082   1.609   2.531   0.342  0.7518 -0.0831 -1.0159
 5841TIP3    H239083   1.704   2.633   0.402  1.4259 -0.9078 -0.6561
 5842TIP3   OH239084   5.177   3.894   0.806  0.3564 -0.2493  0.0263
 5842TIP3    H139085   5.258   3.889   0.754  1.6440  0.0993  1.8813
 5842TIP3    H239086   5.207   3.888   0.897 -1.5189  1.8282  0.8750
 5843TIP3   OH239087   5.010   2.797   7.401  0.1548 -0.5897  0.5569
 5843TIP3    H139088   4.943   2.862   7.419 -2.5042 -2.5264 -1.5617
 5843TIP3    H239089   5.047   2.776   7.487  0.4454  2.8428  1.4039
 5844TIP3   OH239090   2.629   4.302   1.174 -0.0400 -0.1946 -0.3967
 5844TIP3    H139091   2.537   4.280   1.190 -0.0100 -0.4308 -0.5345
 5844TIP3    H239092   2.677   4.245   1.233  0.1462 -2.2282 -2.3625
 5845TIP3   OH239093   0.084   3.498   0.175 -0.1465  0.9218 -0.3137
 5845TIP3    H139094   0.065   3.412   0.137  1.2338 -0.5899  2.1839
 5845TIP3    H239095  -0.001   3.543   0.174 -1.3252 -1.1291 -0.1200
 5846TIP3   OH239096   6.416   5.321   0.394  0.5904 -0.7078 -0.0153
 5846TIP3    H139097   6.503   5.281   0.386  1.3555  0.5198  1.5483
 5846TIP3    H239098   6.434   5.414   0.410 -0.9989 -0.4913  0.7148
 5847TIP3   OH239099   6.334   1.201   2.188  0.3322  0.5733 -0.6153
 5847TIP3    H139100   6.399   1.131   2.182 -0.0899  0.2975 -3.0012
 5847TIP3    H239101   6.285   1.182   2.268  2.6063  0.3135  0.7754
 5848TIP3   OH239102   1.318   2.731   0.201  0.1438  0.1475 -0.3360
 5848TIP3    H139103   1.239   2.767   0.241  1.0605 -0.3888  2.1535
 5848TIP3    H239104   1.381   2.803   0.201 -0.1895  0.4593 -1.9232
 5849TIP3   OH239105   6.439   0.710   1.760 -0.1904 -0.8030 -0.2477
 5849TIP3    H139106   6.344   0.700   1.772 -0.0209 -1.4243  0.6855
 5849TIP3    H239107   6.478   0.659   1.831  0.9326 -3.5849 -2.6599
 5850TIP3   OH239108   4.081   2.901   0.689 -0.0327 -0.4797 -0.3648
 5850TIP3    H139109   4.114   2.869   0.773 -1.2712 -1.3998 -0.1957
 5850TIP3    H239110   4.132   2.852   0.624 -0.9958 -1.8836 -0.1088
 5851TIP3   OH239111   6.338   2.336   1.488 -0.2189  0.2027  0.4525
 5851TIP3    H139112   6.298   2.372   1.568  1.6216  2.8686  0.2989
 5851TIP3    H239113   6.349   2.242   1.507 -2.5096  0.1954  2.1241
 5852TIP3   OH239114   6.387   6.468   0.396  0.5694 -0.6055 -0.2211
 5852TIP3    H139115   6.481   6.465   0.418  0.6324  2.8560  0.6072
 5852TIP3    H239116   6.385   6.487   0.302  0.7878  0.8944  0.0590
 5853TIP3   OH239117   1.309   4.414   0.102  1.0100 -0.2982  0.4987
 5853TIP3    H139118   1.254   4.436   0.026  0.6432  0.8334  1.0662
 5853TIP3    H239119   1.282   4.326   0.128 -1.4992  0.7045  1.5603
 5854TIP3   OH239120   6.407   3.585   6.896 -0.0246 -0.1379  0.0811
 5854TIP3    H139121   6.412   3.529   6.974 -0.3787 -1.0567 -0.5412
 5854TIP3    H239122   6.331   3.641   6.912  1.5739  1.7514  1.6917
 5855TIP3   OH239123   0.426   2.262   0.083  0.1734  0.4332 -0.3380
 5855TIP3    H139124   0.477   2.338   0.108  0.0710 -0.3133  2.4853
 5855TIP3    H239125   0.489   2.203   0.042  0.9274  0.7926  0.2716
 5856TIP3   OH239126   4.386   5.456   7.587 -0.3924 -0.2298  0.2885
 5856TIP3    H139127   4.415   5.536   7.543 -0.6202 -0.5822 -0.5327
 5856TIP3    H239128   4.452   5.440   7.655 -0.1909  0.4927  0.2711
 5857TIP3   OH239129   0.124   7.073   1.623 -0.3729 -0.2558  0.3455
 5857TIP3    H139130   0.144   7.098   1.533 -2.0929 -1.3158 -0.3775
 5857TIP3    H239131   0.031   7.093   1.633 -0.6178 -1.7389  1.3220
 5858TIP3   OH239132   5.937   5.506   1.947 -0.3080  0.2503  0.3198
 5858TIP3    H139133   5.968   5.449   2.017 -1.3820  1.3221  1.7184
 5858TIP3    H239134   5.847   5.479   1.931 -0.6272  1.1465  0.5659
 5859TIP3   OH239135   2.208   3.549   6.712  0.1609  0.4094 -0.2105
 5859TIP3    H139136   2.173   3.633   6.680 -3.0003 -0.0625  1.5253
 5859TIP3    H239137   2.139   3.486   6.691  1.2587 -1.2449  0.9643
 5860TIP3   OH239138   5.217   2.373   1.656 -0.0471  0.2354  0.0705
 5860TIP3    H139139   5.139   2.370   1.601 -0.0339  1.5494 -0.0581
 5860TIP3    H239140   5.186   2.347   1.743 -0.8102  1.4812  0.1950
 5861TIP3   OH239141   1.990   5.030   1.652 -0.2480 -0.4594  0.0652
 5861TIP3    H139142   1.963   5.034   1.744 -0.1899  0.8557  0.0341
 5861TIP3    H239143   1.943   4.953   1.618 -1.4450 -0.1055  0.8243
 5862TIP3   OH239144   1.164   7.042   1.604 -0.2290 -0.2778 -0.0885
 5862TIP3    H139145   1.070   7.049   1.623 -0.5302 -1.6340 -0.9415
 5862TIP3    H239146   1.206   7.040   1.690 -0.8425  1.6010  0.3006
 5863TIP3   OH239147   1.283   1.984   2.290  0.0786  0.6838  0.7218
 5863TIP3    H139148   1.255   2.070   2.321  0.1625  0.2001  2.2436
 5863TIP3    H239149   1.245   1.923   2.353  0.7502 -0.3299  0.1646
 5864TIP3   OH239150   4.526   6.311   7.791  0.0547  0.0256 -0.2408
 5864TIP3    H139151   4.538   6.338   7.701  2.3930 -1.0535 -0.3220
 5864TIP3    H239152   4.437   6.276   7.794  0.6973 -2.1733 -2.8034
 5865TIP3   OH239153   0.604   1.990   0.406 -0.2531 -0.2645 -1.0016
 5865TIP3    H139154   0.690   1.971   0.443 -0.5957 -1.7999 -0.9210
 5865TIP3    H239155   0.614   1.972   0.313 -0.1960  0.6657 -1.1813
 5866TIP3   OH239156   5.488   6.030   7.917 -0.8221  0.2323  0.5057
 5866TIP3    H139157   5.537   5.964   7.966  1.9775  0.5322 -1.6832
 5866TIP3    H239158   5.551   6.067   7.856 -2.8612  3.4257  0.1067
 5867TIP3   OH239159   6.891   2.869   0.552 -0.3969  0.5805  0.3966
 5867TIP3    H139160   6.972   2.830   0.583  0.6743 -0.2484 -2.9952
 5867TIP3    H239161   6.836   2.794   0.529 -0.7363  1.1030 -0.5332
 5868TIP3   OH239162   1.970   2.896   6.685 -0.5705 -0.7127  0.0880
 5868TIP3    H139163   1.960   2.900   6.780 -1.5830  0.1698 -0.0275
 5868TIP3    H239164   2.052   2.942   6.667 -1.8382  1.7954  0.3554
 5869TIP3   OH239165   6.444   3.575   7.971  0.1464  0.4372 -0.4627
 5869TIP3    H139166   6.504   3.632   7.923  1.3248 -1.1722 -0.9889
 5869TIP3    H239167   6.367   3.568   7.915  0.8203 -0.0575 -1.3637
 5870TIP3   OH239168   1.252   0.895   1.250 -0.2418 -0.1088  0.1181
 5870TIP3    H139169   1.289   0.853   1.327 -0.6508 -0.8572 -0.0921
 5870TIP3    H239170   1.329   0.920   1.198  0.0676  1.0548  1.0856
 5871TIP3   OH239171   0.504   1.067   1.950  0.5758 -0.0329 -0.0693
 5871TIP3    H139172   0.457   0.985   1.942  0.6951 -0.0688 -0.3982
 5871TIP3    H239173   0.523   1.075   2.043  0.8139 -0.5157 -0.0756
 5872TIP3   OH239174   3.706   2.020   7.298  0.0053 -0.1284 -0.3420
 5872TIP3    H139175   3.688   2.025   7.392 -0.8811 -3.0914 -0.2614
 5872TIP3    H239176   3.657   2.092   7.260 -0.0871  0.7752  1.3907
 5873TIP3   OH239177   1.091   5.790   0.902 -0.0811  0.0983 -0.2066
 5873TIP3    H139178   1.084   5.762   0.811 -1.3034 -1.0805  0.2135
 5873TIP3    H239179   1.071   5.711   0.953  0.1507  0.8409  1.0835
 5874TIP3   OH239180   0.616   0.679   2.253 -0.1423  0.5195 -0.1303
 5874TIP3    H139181   0.689   0.740   2.262 -1.6120  2.2219  1.0198
 5874TIP3    H239182   0.539   0.730   2.281 -1.6748 -1.3840 -0.6863
 5875TIP3   OH239183   1.580   6.827   7.246  0.3238 -0.3445 -0.0404
 5875TIP3    H139184   1.620   6.846   7.161  1.4594 -1.0863  0.3012
 5875TIP3    H239185   1.555   6.913   7.280 -0.2170 -0.0470 -1.1491
 5876TIP3   OH239186   4.305   4.712   0.384 -0.0530 -0.1267  0.3660
 5876TIP3    H139187   4.324   4.805   0.395  1.4840 -0.4371  0.6339
 5876TIP3    H239188   4.390   4.669   0.395 -0.8818 -1.6450  1.1649
 5877TIP3   OH239189   3.142   3.292   0.892  0.3206 -0.1529 -0.0548
 5877TIP3    H139190   3.151   3.379   0.930  1.4244 -0.5661  0.6733
 5877TIP3    H239191   3.067   3.299   0.833  0.2258  1.2078  0.2048
 5878TIP3   OH239192   3.858   2.421   6.630  0.6759  0.9147 -0.2094
 5878TIP3    H139193   3.950   2.398   6.618  0.4370  0.7255 -1.8092
 5878TIP3    H239194   3.858   2.517   6.640  0.9472  1.0732 -1.5461
 5879TIP3   OH239195   5.439   1.845   2.503 -0.4629 -0.1978  0.8452
 5879TIP3    H139196   5.526   1.827   2.539  0.2033 -1.0314 -1.0856
 5879TIP3    H239197   5.399   1.759   2.490 -0.5674  0.0627 -0.6571
 5880TIP3   OH239198   6.012   6.097   7.660  0.1683 -0.3074  0.0637
 5880TIP3    H139199   5.929   6.139   7.682  0.1181 -0.1356 -0.4357
 5880TIP3    H239200   5.992   6.004   7.657 -0.0252 -0.2604 -0.1261
 5881TIP3   OH239201   3.869   5.418   1.997 -0.9918  0.1296  0.7550
 5881TIP3    H139202   3.779   5.449   2.008 -0.8386  1.5375 -1.3458
 5881TIP3    H239203   3.923   5.494   2.018 -0.2134 -0.8602  2.5472
 5882TIP3   OH239204   2.384   4.801   1.624  0.1378 -0.7366  0.6849
 5882TIP3    H139205   2.393   4.735   1.693  0.5090 -0.3540  1.0077
 5882TIP3    H239206   2.404   4.884   1.667  1.6536 -0.6216 -0.1520
 5883TIP3   OH239207   6.428   1.595   0.385 -0.3060 -0.3445 -0.1609
 5883TIP3    H139208   6.494   1.594   0.454  1.2249  1.2236 -1.5138
 5883TIP3    H239209   6.463   1.537   0.317 -0.3926  0.3234 -0.7965
 5884TIP3   OH239210   2.152   4.157   7.185  0.4249  0.0528  0.3879
 5884TIP3    H139211   2.144   4.071   7.225  0.4812  0.2847  0.9177
 5884TIP3    H239212   2.222   4.148   7.120  1.3278  0.0157  1.3411
 5885TIP3   OH239213   0.251   2.497   1.049  0.2671 -0.2983 -0.4459
 5885TIP3    H139214   0.249   2.570   1.111 -0.4442  0.8699 -1.7853
 5885TIP3    H239215   0.175   2.444   1.072  0.9039 -0.7583  0.6722
 5886TIP3   OH239216   0.568   7.036   0.400 -0.0715 -0.8756  0.3534
 5886TIP3    H139217   0.601   7.119   0.364 -1.1598 -0.7345 -0.3588
 5886TIP3    H239218   0.500   7.008   0.338 -0.0007 -2.0965  0.8053
 5887TIP3   OH239219   2.669   0.873   7.546 -0.2345 -0.3749  0.2979
 5887TIP3    H139220   2.660   0.913   7.459 -0.4502 -1.2837 -0.1158
 5887TIP3    H239221   2.760   0.844   7.549 -0.1559 -0.1130  0.4859
 5888TIP3   OH239222   2.452   2.139   7.479  0.1649 -1.0575 -0.0925
 5888TIP3    H139223   2.518   2.142   7.410  0.4872 -0.4990  0.2310
 5888TIP3    H239224   2.378   2.189   7.444 -0.1258 -1.7520 -0.4874
 5889TIP3   OH239225   6.861   2.311   8.000 -0.1155 -0.8250  0.3232
 5889TIP3    H139226   6.900   2.330   7.915 -0.5466  0.6042  0.4037
 5889TIP3    H239227   6.805   2.235   7.985 -0.7541 -0.1530 -0.8601
 5890TIP3   OH239228   4.783   4.129   7.599 -0.0045 -0.5154  0.3062
 5890TIP3    H139229   4.857   4.182   7.570 -1.3516  0.4721 -1.5210
 5890TIP3    H239230   4.752   4.172   7.678 -0.7482  1.1937 -0.8610
 5891TIP3   OH239231   5.001   5.812   6.473 -0.2556  0.7608  0.6629
 5891TIP3    H139232   5.020   5.905   6.482 -0.4855  0.8049  0.6886
 5891TIP3    H239233   5.052   5.770   6.543 -1.0557  0.9815  1.4049
 5892TIP3   OH239234   0.671   5.732   1.084  0.3768 -0.2663 -0.3064
 5892TIP3    H139235   0.611   5.806   1.096  0.2248 -0.3624 -0.4677
 5892TIP3    H239236   0.621   5.669   1.033 -0.2901 -1.4329  1.7021
 5893TIP3   OH239237   3.817   4.016   0.542 -0.3724 -0.2819 -0.9870
 5893TIP3    H139238   3.828   3.921   0.549  1.2448 -0.0450  0.3042
 5893TIP3    H239239   3.726   4.031   0.568  0.1320 -1.2723  1.7245
 5894TIP3   OH239240   5.461   3.478   0.669 -0.2875 -0.1891 -0.0373
 5894TIP3    H139241   5.540   3.431   0.645 -0.3518 -0.7482  0.8036
 5894TIP3    H239242   5.395   3.447   0.607  0.1081  0.1812 -0.6562
 5895TIP3   OH239243   3.419   4.096   6.782  0.4447 -0.2013 -0.5158
 5895TIP3    H139244   3.487   4.084   6.715  0.4230  1.8637 -1.0002
 5895TIP3    H239245   3.340   4.119   6.732  0.5295  1.7931  0.1803
 5896TIP3   OH239246   5.563   5.954   1.211 -0.0387 -0.4481 -0.0483
 5896TIP3    H139247   5.592   6.018   1.276 -0.0320  0.3124 -0.7796
 5896TIP3    H239248   5.573   5.869   1.255 -1.5135  0.1250  1.5168
 5897TIP3   OH239249   6.529   2.692   0.701  0.4408  0.0059 -0.3498
 5897TIP3    H139250   6.497   2.747   0.629 -1.1308  1.8345  1.6082
 5897TIP3    H239251   6.527   2.750   0.777  2.3269 -1.7640  1.1373
 5898TIP3   OH239252   0.037   4.128   0.115 -0.1155  0.1365  0.2235
 5898TIP3    H139253   0.078   4.044   0.095 -3.2244 -2.0354  1.9020
 5898TIP3    H239254   0.097   4.171   0.175  1.3119 -1.1657 -0.2173
 5899TIP3   OH239255   6.373   4.038   7.954  0.1763  0.0701  0.0447
 5899TIP3    H139256   6.335   3.977   8.017  0.0895 -0.0206 -0.0943
 5899TIP3    H239257   6.456   3.997   7.928 -0.2184 -0.3476 -0.5926
 5900TIP3   OH239258   3.885   4.224   7.224  0.2757 -0.1781 -0.7202
 5900TIP3    H139259   3.848   4.142   7.192 -0.1063  0.2256 -1.3206
 5900TIP3    H239260   3.842   4.238   7.309 -0.0834 -0.3006 -0.8835
 5901TIP3   OH239261   0.033   4.716   7.734  0.1046 -0.2504 -0.1025
 5901TIP3    H139262   0.022   4.646   7.670 -0.4057 -0.1935 -0.0820
 5901TIP3    H239263   0.084   4.783   7.688 -0.1212 -0.2795 -0.4012
 5902TIP3   OH239264   3.010   6.317   1.715  0.3730 -0.3427 -0.3266
 5902TIP3    H139265   3.017   6.379   1.788 -0.0393  0.2378 -0.7673
 5902TIP3    H239266   2.957   6.245   1.749 -1.4872  0.8255 -0.6145
 5903TIP3   OH239267   4.743   2.432   7.919  0.2579  0.0137  0.6765
 5903TIP3    H139268   4.666   2.404   7.868  0.0023  0.0674  1.0314
 5903TIP3    H239269   4.812   2.371   7.893  0.5316  0.8920 -0.7880
 5904TIP3   OH239270   4.858   3.114   0.453 -0.5898 -0.1601 -0.2790
 5904TIP3    H139271   4.891   3.166   0.380 -0.2074  0.0160  0.0138
 5904TIP3    H239272   4.795   3.172   0.496 -0.0245  0.1411  0.1587
 5905TIP3   OH239273   3.896   1.305   1.195  0.1214  0.2901 -0.0021
 5905TIP3    H139274   3.882   1.212   1.212 -1.5559  0.4144 -0.5383
 5905TIP3    H239275   3.808   1.343   1.198  0.5057  1.4498 -2.0570
 5906TIP3   OH239276   5.699   3.709   0.834 -0.1738  0.2457 -0.3306
 5906TIP3    H139277   5.643   3.771   0.881 -0.3363  1.2161 -1.7332
 5906TIP3    H239278   5.746   3.763   0.771  0.2398 -0.9603 -1.0912
 5907TIP3   OH239279   5.044   2.117   7.228  0.0517  0.2859  0.5371
 5907TIP3    H139280   5.060   2.141   7.137 -0.6893  1.8116  0.7743
 5907TIP3    H239281   5.099   2.040   7.243  0.4357  0.2093 -1.0894
 5908TIP3   OH239282   4.904   6.025   0.068  0.8378 -0.3605  0.1353
 5908TIP3    H139283   4.838   6.007   0.135  1.2330  2.0281  1.2606
 5908TIP3    H239284   4.855   6.063  -0.005  0.8628  1.0106  0.8018
 5909TIP3   OH239285   0.724   4.046   7.997  0.2170  0.4487  0.0827
 5909TIP3    H139286   0.717   4.034   7.902  1.5409  1.2504 -0.1387
 5909TIP3    H239287   0.652   3.995   8.033  0.3605 -0.7722 -1.2866
 5910TIP3   OH239288   6.608   2.260   7.348  0.0958  0.5134  0.4614
 5910TIP3    H139289   6.621   2.193   7.282 -0.1431  1.1035 -0.1989
 5910TIP3    H239290   6.659   2.230   7.424 -1.0799 -1.0675  0.6732
 5911TIP3   OH239291   1.563   4.453   0.928 -0.0304 -0.0929  0.0602
 5911TIP3    H139292   1.498   4.519   0.954  0.4985 -0.0398  1.3619
 5911TIP3    H239293   1.554   4.384   0.994 -0.5330 -1.3160 -1.2541
 5912TIP3   OH239294   2.690   4.169   2.160 -0.2118 -0.2394  0.9193
 5912TIP3    H139295   2.760   4.123   2.114 -1.0359  0.8672 -1.5707
 5912TIP3    H239296   2.692   4.132   2.249  1.5991 -2.2981  0.1143
 5913TIP3   OH239297   3.368   3.630   1.826  0.3651  0.8546  0.5643
 5913TIP3    H139298   3.353   3.549   1.874 -0.4774  1.0804  0.6954
 5913TIP3    H239299   3.408   3.689   1.890  0.7642  0.6235  0.5316
 5914TIP3   OH239300   3.340   6.106   0.350 -0.0173 -0.4088  0.0478
 5914TIP3    H139301   3.386   6.157   0.416 -0.4915  0.2546 -0.1210
 5914TIP3    H239302   3.251   6.144   0.349 -0.4380 -1.3728  0.0653
 5915TIP3   OH239303   2.706   1.128   1.966  0.1425  0.3526  0.1125
 5915TIP3    H139304   2.717   1.150   2.058  1.2233 -0.5292  0.2100
 5915TIP3    H239305   2.611   1.136   1.951 -0.1608 -0.3301  1.5184
 5916TIP3   OH239306   5.768   6.054   7.415 -0.3853  0.1601 -0.1188
 5916TIP3    H139307   5.840   6.020   7.361 -2.4702 -2.0782 -1.6742
 5916TIP3    H239308   5.705   5.983   7.418 -1.5241  1.1395  3.2620
 5917TIP3   OH239309   7.032   4.729   7.959 -0.0150  0.6031  0.4602
 5917TIP3    H139310   7.069   4.728   7.870  1.0827  2.1599  0.8656
 5917TIP3    H239311   6.937   4.732   7.945  0.0889 -0.2806 -0.6309
 5918TIP3   OH239312   1.429   5.402   0.263  0.1554 -0.0401 -0.0386
 5918TIP3    H139313   1.493   5.404   0.333  0.5028  1.5881 -0.3557
 5918TIP3    H239314   1.445   5.482   0.213 -1.5287 -0.0355 -0.6563
 5919TIP3   OH239315   4.687   4.045   0.912 -0.0571 -0.1789  0.2661
 5919TIP3    H139316   4.715   4.114   0.972 -1.8668  0.2245  0.6825
 5919TIP3    H239317   4.763   3.986   0.907  0.9138  0.9387  1.2047
 5920TIP3   OH239318   1.180   4.736   1.348 -0.8999 -0.0751  0.2051
 5920TIP3    H139319   1.125   4.755   1.272 -1.6105 -0.3775  0.6308
 5920TIP3    H239320   1.250   4.801   1.345 -1.0297  0.0292 -0.6037
 5921TIP3   OH239321   4.682   1.163   0.615 -0.3315  0.3823  0.5111
 5921TIP3    H139322   4.668   1.073   0.643  0.3187  0.2027  0.2899
 5921TIP3    H239323   4.727   1.155   0.530 -0.0254  0.9107  0.6168
 5922TIP3   OH239324   3.426   5.079   0.424 -0.3063  0.2657 -0.0920
 5922TIP3    H139325   3.390   5.040   0.503  3.2538  0.6810  1.9151
 5922TIP3    H239326   3.373   5.157   0.409 -0.8736  0.3351  2.0546
 5923TIP3   OH239327   6.656   0.498   7.319  0.1553  0.9220  0.2448
 5923TIP3    H139328   6.616   0.438   7.256 -1.7741  2.0575  0.3069
 5923TIP3    H239329   6.728   0.539   7.270  1.2500 -1.0767  0.0877
 5924TIP3   OH239330   3.479   1.074   7.522 -0.3732 -1.1339  0.5039
 5924TIP3    H139331   3.390   1.049   7.498 -0.3748 -1.0765  0.4480
 5924TIP3    H239332   3.484   1.062   7.616 -0.3186 -1.5217  0.4555
 5925TIP3   OH239333   0.386   6.994   0.186  0.4248 -0.9658  0.3450
 5925TIP3    H139334   0.294   6.968   0.183  0.3207 -0.5910  0.1032
 5925TIP3    H239335   0.432   6.927   0.136  0.3471 -1.4076  0.8642
 5926TIP3   OH239336   3.407   4.608   1.844 -0.4300 -0.4328  0.1161
 5926TIP3    H139337   3.434   4.537   1.901 -2.0305 -2.0436 -1.0308
 5926TIP3    H239338   3.366   4.565   1.769  0.0566  1.6525 -1.4415
 5927TIP3   OH239339   7.082   5.582   1.374 -0.1989 -0.3577  0.2931
 5927TIP3    H139340   6.992   5.588   1.406  0.4159 -1.8302  2.4917
 5927TIP3    H239341   7.136   5.596   1.451  1.4822  0.4487 -0.9795
 5928TIP3   OH239342   1.752   5.901   0.005 -0.2209  0.0161  0.4254
 5928TIP3    H139343   1.681   5.954  -0.030 -0.5652  0.1865  1.3617
 5928TIP3    H239344   1.827   5.961   0.009  0.0671 -0.2288 -0.7949
 5929TIP3   OH239345   3.701   2.965   0.559 -0.4136  0.0918  0.2472
 5929TIP3    H139346   3.607   2.962   0.541 -0.4521 -0.3433  0.5115
 5929TIP3    H239347   3.715   3.050   0.599 -0.9027 -0.3271  1.3316
 5930TIP3   OH239348   2.164   0.917   1.178  0.7252  0.2437 -0.2642
 5930TIP3    H139349   2.169   0.846   1.242  0.2849 -0.7813 -1.3326
 5930TIP3    H239350   2.192   0.876   1.096 -2.0435  0.5793 -1.4626
 5931TIP3   OH239351   3.273   6.267   7.219 -0.0264  0.2164 -0.6007
 5931TIP3    H139352   3.277   6.246   7.126  1.0889  0.6086 -0.6496
 5931TIP3    H239353   3.323   6.348   7.228  0.1971 -0.0187  0.3999
 5932TIP3   OH239354   4.389   1.648   7.846 -0.5039 -0.5523 -0.0037
 5932TIP3    H139355   4.472   1.620   7.807  0.2686  0.8706  0.5424
 5932TIP3    H239356   4.333   1.571   7.841  0.6392 -1.3596 -0.9620
 5933TIP3   OH239357   7.109   6.244   2.077 -0.3214 -1.1574  0.0879
 5933TIP3    H139358   7.159   6.311   2.124  0.7414 -1.2995 -0.8008
 5933TIP3    H239359   7.171   6.173   2.063 -0.9792 -1.6459 -0.4219
 5934TIP3   OH239360   1.859   5.502   0.280  0.1425  0.1585  0.0494
 5934TIP3    H139361   1.866   5.545   0.365 -1.9097  2.1657 -0.7106
 5934TIP3    H239362   1.821   5.416   0.299  0.4510  0.2624  1.2140
 5935TIP3   OH239363   1.219   6.975   7.284 -0.6393  0.0634  0.5020
 5935TIP3    H139364   1.175   6.958   7.367 -0.1282 -0.7614  0.6103
 5935TIP3    H239365   1.304   7.012   7.309 -0.8607  0.7308  0.3118
 5936TIP3   OH239366   0.504   5.565   2.136 -0.9847  0.7512 -0.5498
 5936TIP3    H139367   0.554   5.525   2.207 -2.0339 -0.3560 -0.4070
 5936TIP3    H239368   0.533   5.657   2.135  0.2649  0.3881  0.1914
 5937TIP3   OH239369   4.833   4.171   0.477 -0.0504  0.1665  0.7340
 5937TIP3    H139370   4.761   4.109   0.475 -0.1869  0.2887  1.3990
 5937TIP3    H239371   4.830   4.208   0.565 -0.4407  1.6697  0.1185
 5938TIP3   OH239372   2.692   0.613   7.314 -0.4157 -0.0647  0.3286
 5938TIP3    H139373   2.641   0.658   7.382  0.9862 -0.8139  1.9362
 5938TIP3    H239374   2.748   0.682   7.277  1.4423 -0.2732  2.5146
 5939TIP3   OH239375   5.413   5.678   2.171  0.5248  0.2153 -0.0831
 5939TIP3    H139376   5.377   5.745   2.230 -1.5042 -0.4879 -0.4440
 5939TIP3    H239377   5.399   5.595   2.217  2.2303 -0.0794 -0.0205
 5940TIP3   OH239378   1.762   0.144   7.750 -0.1704  0.5560 -0.4955
 5940TIP3    H139379   1.845   0.116   7.711 -1.1787  0.2342 -2.5266
 5940TIP3    H239380   1.783   0.227   7.794  1.0678  0.9374 -1.7342
 5941TIP3   OH239381   2.057   0.918   0.549  0.1365 -0.1585 -0.1339
 5941TIP3    H139382   2.133   0.960   0.588  1.3767 -0.4655 -2.0894
 5941TIP3    H239383   2.040   0.842   0.605  0.7658  0.3457  0.7667
 5942TIP3   OH239384   0.678   0.813   1.807 -0.1527 -0.0053  0.1667
 5942TIP3    H139385   0.751   0.870   1.829  0.4548 -1.3207  1.7826
 5942TIP3    H239386   0.621   0.816   1.885 -1.5207  0.4998 -0.8060
 5943TIP3   OH239387   6.215   3.490   0.466  0.0907  0.0876 -0.5268
 5943TIP3    H139388   6.231   3.405   0.508  0.4124  1.0712  1.4640
 5943TIP3    H239389   6.143   3.528   0.515  1.0086  1.6408 -0.3010
 5944TIP3   OH239390   6.570   0.387   6.553  0.3473  0.1551  0.1686
 5944TIP3    H139391   6.513   0.352   6.621  0.1582  1.6758  0.8335
 5944TIP3    H239392   6.512   0.406   6.480  0.3284 -0.1788  0.0954
 5945TIP3   OH239393   7.081   5.601   7.005  0.0507 -0.4071  0.2191
 5945TIP3    H139394   7.048   5.572   6.920  0.5570  0.3182 -0.2428
 5945TIP3    H239395   7.143   5.533   7.032  0.2505 -0.4059 -0.2304
 5946TIP3   OH239396   1.881   6.266   7.845 -0.4291  0.1246 -0.2958
 5946TIP3    H139397   1.932   6.336   7.886  0.3024  0.9097 -2.3994
 5946TIP3    H239398   1.807   6.311   7.805 -1.9129 -0.8055  1.2765
 5947TIP3   OH239399   0.941   4.166   2.872 -0.3430 -0.4979 -0.1779
 5947TIP3    H139400   0.915   4.078   2.844  0.2986 -0.7132 -0.1013
 5947TIP3    H239401   0.859   4.214   2.876 -0.5436 -0.6520 -1.7531
 5948TIP3   OH239402   0.527   6.359   2.549  0.0042  0.7249 -0.0349
 5948TIP3    H139403   0.617   6.384   2.530  0.4150  0.3928  1.3709
 5948TIP3    H239404   0.478   6.383   2.470  1.3848  0.5166 -0.9863
 5949TIP3   OH239405   0.174   5.057   7.367 -0.6043 -0.1485  0.2628
 5949TIP3    H139406   0.097   5.053   7.310 -1.2368  0.9594  1.0190
 5949TIP3    H239407   0.174   5.146   7.402  2.2897  0.6826 -1.4453
 5950TIP3   OH239408   3.415   2.349   7.201 -0.0324  0.5117 -0.2271
 5950TIP3    H139409   3.428   2.444   7.195  0.7235  0.5023  0.9645
 5950TIP3    H239410   3.324   2.336   7.177  0.0038  1.4824 -0.9419
 5951TIP3   OH239411   4.627   0.970   7.883 -0.4839 -0.0357  0.2008
 5951TIP3    H139412   4.710   1.014   7.864 -1.3792  2.3721  1.4042
 5951TIP3    H239413   4.630   0.951   7.977 -0.5866 -1.6382 -0.0895
 5952TIP3   OH239414   5.582   2.637   2.131  0.0142 -0.5559 -0.3888
 5952TIP3    H139415   5.581   2.569   2.198  2.1348  0.5082  0.8337
 5952TIP3    H239416   5.641   2.704   2.166 -0.0605  0.7718 -2.6333
 5953TIP3   OH239417   2.067   4.949   2.019  0.6140 -0.2160 -0.2220
 5953TIP3    H139418   2.049   5.042   2.025  0.6819 -0.2294  0.2242
 5953TIP3    H239419   2.160   4.944   1.998  0.9832 -0.1886  1.2439
 5954TIP3   OH239420   2.363   3.934   6.922  0.5675  0.0696  0.3524
 5954TIP3    H139421   2.444   3.978   6.948  0.5856  0.4771 -0.3874
 5954TIP3    H239422   2.303   4.005   6.899 -0.2636 -0.1902  1.6131
 5955TIP3   OH239423   0.581   7.089   1.037  0.0360  0.2269 -0.3375
 5955TIP3    H139424   0.549   7.180   1.036 -0.3634  0.0880 -0.6281
 5955TIP3    H239425   0.551   7.053   0.954  0.8020  0.0322 -0.5340
 5956TIP3   OH239426   6.921   5.881   1.978 -0.7041 -0.0292  0.0439
 5956TIP3    H139427   6.925   5.906   2.071 -1.4060  0.4905 -0.0586
 5956TIP3    H239428   6.997   5.924   1.938 -0.9784  0.5991  0.1851
 5957TIP3   OH239429   1.676   7.086   0.556 -0.4795  0.0597 -0.4046
 5957TIP3    H139430   1.597   7.140   0.565 -0.6734 -0.2595 -0.1802
 5957TIP3    H239431   1.709   7.076   0.645 -1.3841 -1.5922 -0.2192
 5958TIP3   OH239432   0.806   6.331   6.993  0.2931  0.2213  0.6181
 5958TIP3    H139433   0.814   6.344   7.088 -0.5363  3.4943  0.3511
 5958TIP3    H239434   0.867   6.394   6.955 -0.4502 -0.0140 -1.0451
 5959TIP3   OH239435   5.924   0.450   0.791 -0.3377  0.5136  0.3902
 5959TIP3    H139436   5.890   0.361   0.781  1.5045 -0.2764  0.7848
 5959TIP3    H239437   5.956   0.454   0.881  0.3726  1.2903  0.1158
 5960TIP3   OH239438   6.093   4.505   7.289  0.2432  0.9375  0.3937
 5960TIP3    H139439   6.030   4.549   7.346  2.0962  1.6952  1.9398
 5960TIP3    H239440   6.109   4.421   7.331 -1.0727 -0.0759 -1.0019
 5961TIP3   OH239441   0.313   4.734   1.080  0.8565 -0.6239 -0.0352
 5961TIP3    H139442   0.226   4.699   1.097  0.9172 -1.4923 -1.3306
 5961TIP3    H239443   0.351   4.748   1.167 -0.8534  0.5712  0.5668
 5962TIP3   OH239444   0.426   2.774   6.296  0.1941  0.4551  0.5076
 5962TIP3    H139445   0.419   2.860   6.253  1.5397  0.8793  1.0731
 5962TIP3    H239446   0.456   2.795   6.385  0.4636 -0.6003  0.6731
 5963TIP3   OH239447   0.502   6.631   1.262 -0.4078  0.4030  0.2341
 5963TIP3    H139448   0.488   6.626   1.356  0.1050  0.3743  0.3094
 5963TIP3    H239449   0.597   6.641   1.252 -0.6011  2.2311 -0.1975
 5964TIP3   OH239450   6.921   2.455   7.767  0.3195 -0.5963  0.6764
 5964TIP3    H139451   6.912   2.433   7.674 -0.2961  0.0117  0.5869
 5964TIP3    H239452   6.847   2.512   7.785  2.2852  2.2099  0.6520
 5965TIP3   OH239453   6.228   6.151   7.811 -0.4455 -0.3259 -0.7602
 5965TIP3    H139454   6.177   6.119   7.737  0.1170 -0.4864 -1.0853
 5965TIP3    H239455   6.315   6.112   7.799 -0.9976 -2.4159  1.3563
 5966TIP3   OH239456   0.312   3.335   1.696  0.0612  0.0694 -0.3327
 5966TIP3    H139457   0.253   3.381   1.635  0.5799  0.3206 -0.6595
 5966TIP3    H239458   0.392   3.388   1.695  0.0967  0.0382  0.5318
 5967TIP3   OH239459   1.910   5.972   0.756  0.1842  0.0549  0.0077
 5967TIP3    H139460   1.971   5.942   0.823 -0.4098 -1.7277 -0.2134
 5967TIP3    H239461   1.823   5.954   0.792 -0.1559 -0.3026 -0.9638
 5968TIP3   OH239462   6.672   7.025   7.467 -0.0874 -0.3813  0.3530
 5968TIP3    H139463   6.683   6.964   7.394 -0.9927 -2.8436  2.1242
 5968TIP3    H239464   6.753   7.017   7.518  0.4309  1.1217 -0.1816
 5969TIP3   OH239465   4.733   4.189   7.927  0.0891 -0.0943 -0.4772
 5969TIP3    H139466   4.732   4.283   7.909  0.6100 -0.2725 -1.5364
 5969TIP3    H239467   4.795   4.180   8.000 -0.3108  0.4217 -0.0632
 5970TIP3   OH239468   6.422   6.694   6.085 -0.1311 -0.5976 -0.3791
 5970TIP3    H139469   6.368   6.683   6.007  1.0081 -1.4209 -1.0807
 5970TIP3    H239470   6.409   6.613   6.134  1.4230 -1.3860 -1.1930
 5971TIP3   OH239471   2.164   0.381   1.058  0.2553  0.4310 -0.0396
 5971TIP3    H139472   2.145   0.353   1.148 -2.8455 -0.1505 -0.7316
 5971TIP3    H239473   2.125   0.468   1.053  0.8455  0.6556 -0.6918
 5972TIP3   OH239474   3.729   3.675   2.678 -0.1622  0.3901  0.1681
 5972TIP3    H139475   3.742   3.769   2.679  1.3306  0.2931 -2.4574
 5972TIP3    H239476   3.651   3.662   2.623  0.5127  0.0386 -0.7172
 5973TIP3   OH239477   5.635   3.649   0.117  0.4893  0.2932 -0.0850
 5973TIP3    H139478   5.632   3.672   0.024 -1.6239  0.6014 -0.0000
 5973TIP3    H239479   5.713   3.692   0.150  1.3232  0.1199 -1.7283
 5974TIP3   OH239480   3.481   2.340   7.697  0.0717 -0.2206 -0.2195
 5974TIP3    H139481   3.568   2.356   7.662 -0.3120  0.1242 -1.0446
 5974TIP3    H239482   3.446   2.427   7.715 -0.3584 -0.3281 -0.5323
 5975TIP3   OH239483   1.456   6.361   0.246  0.3960  0.3708 -0.2366
 5975TIP3    H139484   1.513   6.374   0.171  0.5098  1.7289  0.0473
 5975TIP3    H239485   1.380   6.417   0.228  0.1599  0.2648  0.3887
 5976TIP3   OH239486   0.506   0.331   0.677 -0.0074  0.2247 -0.0684
 5976TIP3    H139487   0.466   0.244   0.685  3.0152 -1.3571 -0.5257
 5976TIP3    H239488   0.584   0.327   0.733 -0.1889  2.9626  0.4932
 5977TIP3   OH239489   1.698   0.826   6.965 -0.8372 -0.1542  0.4875
 5977TIP3    H139490   1.765   0.829   6.897  0.4432  1.1375  1.7317
 5977TIP3    H239491   1.619   0.858   6.922 -0.1560  0.2738 -0.4916
 5978TIP3   OH239492   5.375   6.172   2.057 -0.6885 -0.1459 -0.0667
 5978TIP3    H139493   5.334   6.144   1.975 -1.3820 -0.5410  0.4059
 5978TIP3    H239494   5.420   6.094   2.089 -0.3018  0.0467 -0.1470
 5979TIP3   OH239495   0.309   3.210   2.407  0.7200  0.1890  0.0855
 5979TIP3    H139496   0.220   3.174   2.413  0.8620 -0.2175 -0.1801
 5979TIP3    H239497   0.314   3.273   2.478  0.6770 -0.7888  0.9921
 5980TIP3   OH239498   0.420   4.722   1.574  0.3378 -0.4632 -0.5462
 5980TIP3    H139499   0.435   4.806   1.617  1.1520  0.2432 -2.1241
 5980TIP3    H239500   0.500   4.672   1.592  0.7896 -0.0715 -1.4139
 5981TIP3   OH239501   1.981   6.147   0.572  0.4762  0.1919  0.3357
 5981TIP3    H139502   2.033   6.213   0.619 -0.9997  0.9667  0.9506
 5981TIP3    H239503   1.979   6.072   0.631 -1.8183  1.3519  1.8709
 5982TIP3   OH239504   3.384   0.018   2.158  0.5918  0.0860 -0.4928
 5982TIP3    H139505   3.315   0.050   2.215 -0.5458 -1.3465 -1.0292
 5982TIP3    H239506   3.380   0.076   2.081  0.9231  0.8622  0.0603
 5983TIP3   OH239507   2.619   5.122   0.884 -0.4679  0.0987  1.0219
 5983TIP3    H139508   2.536   5.140   0.841 -0.6215 -0.4619  1.0762
 5983TIP3    H239509   2.594   5.086   0.969 -0.1682  0.4106  1.2442
 5984TIP3   OH239510   5.223   2.492   7.461  0.1096  0.2800 -0.1598
 5984TIP3    H139511   5.139   2.450   7.481  0.3702 -1.5656 -2.5790
 5984TIP3    H239512   5.221   2.506   7.367  2.4240  0.4746 -0.2203
 5985TIP3   OH239513   5.510   3.584   2.125  0.4090 -0.4112  0.5090
 5985TIP3    H139514   5.438   3.610   2.183  0.6870  1.2449  0.1691
 5985TIP3    H239515   5.582   3.564   2.184  0.5158  0.7105  0.7852
 5986TIP3   OH239516   3.522   2.938   0.877 -0.6406  0.7770 -0.0844
 5986TIP3    H139517   3.613   2.970   0.876 -0.4494  0.2666  0.2000
 5986TIP3    H239518   3.500   2.935   0.970 -0.3439 -0.7351 -0.0342
 5987TIP3   OH239519   3.714   2.069   1.244 -0.1957 -0.0256 -0.9121
 5987TIP3    H139520   3.649   2.127   1.206 -1.1166 -0.0590  0.5709
 5987TIP3    H239521   3.763   2.123   1.306 -1.1630 -0.8159  0.5965
 5988TIP3   OH239522   2.922   0.729   7.549 -1.0581 -0.1381 -0.2716
 5988TIP3    H139523   2.911   0.639   7.519 -4.7344  0.2126 -0.4216
 5988TIP3    H239524   2.938   0.721   7.643  0.1623 -0.9372 -0.5214
 5989TIP3   OH239525   6.919   3.278   2.684 -0.0289  0.1704  0.5185
 5989TIP3    H139526   6.877   3.357   2.650  1.3256  1.4341  1.6451
 5989TIP3    H239527   6.951   3.302   2.771 -0.0379 -1.7941  1.1284
 5990TIP3   OH239528   4.966   2.891   7.710 -0.2547  0.0991  0.2327
 5990TIP3    H139529   4.889   2.911   7.657 -0.3901 -2.0462 -0.4688
 5990TIP3    H239530   4.961   2.796   7.725  1.0509  0.2707  2.0941
 5991TIP3   OH239531   4.433   0.792   0.706 -0.1508 -0.4893 -0.0341
 5991TIP3    H139532   4.368   0.860   0.693 -0.4746 -0.4729  1.5043
 5991TIP3    H239533   4.433   0.742   0.624 -0.8743  0.5311 -0.6686
 5992TIP3   OH239534   6.494   6.756   5.755  0.1516  0.4245 -0.3299
 5992TIP3    H139535   6.401   6.751   5.780  0.5012 -0.8990  0.7979
 5992TIP3    H239536   6.492   6.761   5.659 -1.0871  0.5174 -0.3181
 5993TIP3   OH239537   2.760   1.377   6.485 -0.1123 -0.2537  0.6312
 5993TIP3    H139538   2.837   1.403   6.435 -1.1912  2.0852  0.0683
 5993TIP3    H239539   2.795   1.349   6.570  1.4033 -0.0115  0.1061
 5994TIP3   OH239540   4.859   0.835   0.404  0.5031 -0.2196  0.3983
 5994TIP3    H139541   4.780   0.780   0.411 -0.4548  1.0957  0.3365
 5994TIP3    H239542   4.902   0.826   0.489  0.3831 -1.0810  0.3782
 5995TIP3   OH239543   2.737   6.954   0.106  0.4092 -0.0138 -0.8470
 5995TIP3    H139544   2.650   6.963   0.067  0.0609 -0.8755 -0.2873
 5995TIP3    H239545   2.770   7.044   0.111  0.1029  0.2034 -2.2717
 5996TIP3   OH239546   1.198   5.669   6.660  0.4832 -0.1555 -0.1643
 5996TIP3    H139547   1.159   5.589   6.695  0.3417  0.2572  0.6263
 5996TIP3    H239548   1.292   5.656   6.670  0.4035  0.7097  2.0780
 5997TIP3   OH239549   3.358   5.720   7.420 -0.3880 -0.1236 -0.2373
 5997TIP3    H139550   3.427   5.768   7.376 -1.1718  0.9820 -0.2974
 5997TIP3    H239551   3.312   5.674   7.350 -0.8142  0.5847 -0.4381
 5998TIP3   OH239552   2.885   2.995   1.624  0.0741 -0.2682 -0.5890
 5998TIP3    H139553   2.822   2.945   1.676  0.5381 -2.8185 -2.3064
 5998TIP3    H239554   2.970   2.956   1.646  0.8040  1.4469 -0.1871
 5999TIP3   OH239555   0.164   0.265   6.803 -0.1280  0.1194 -0.6707
 5999TIP3    H139556   0.182   0.350   6.763  0.3139  1.1647  1.5884
 5999TIP3    H239557   0.068   0.261   6.809 -0.1289  0.8414 -0.0644
 6000TIP3   OH239558   2.344   4.477   1.521  0.2672  0.2802  0.1847
 6000TIP3    H139559   2.319   4.422   1.595  1.7137  0.3495  0.7676
 6000TIP3    H239560   2.436   4.501   1.539  1.3275 -1.2605 -2.5750
 6001TIP3   OH239561   1.212   0.249   7.131  0.0212  0.2581 -0.8197
 6001TIP3    H139562   1.271   0.322   7.111 -1.8097  1.5496 -1.8608
 6001TIP3    H239563   1.269   0.175   7.147  1.9068  1.4066 -1.9360
 6002TIP3   OH239564   3.697   5.916   7.249 -0.3025 -0.0140 -0.1044
 6002TIP3    H139565   3.738   5.829   7.249  0.9326  0.5472 -0.1895
 6002TIP3    H239566   3.631   5.911   7.180 -0.5705 -1.0255  0.2035
 6003TIP3   OH239567   5.642   6.135   1.394  0.0133  0.1711 -0.3806
 6003TIP3    H139568   5.726   6.177   1.375 -0.3468  0.8796 -0.4529
 6003TIP3    H239569   5.643   6.122   1.489  0.5138 -0.5165 -0.4720
 6004TIP3   OH239570   3.378   4.816   7.310  0.3651 -0.5387 -0.4333
 6004TIP3    H139571   3.383   4.910   7.293 -0.1793 -0.4885 -0.3259
 6004TIP3    H239572   3.446   4.800   7.376  0.0503 -0.1198 -0.0069
 6005TIP3   OH239573   6.324   4.612   6.583 -0.3252  0.1869 -0.3554
 6005TIP3    H139574   6.413   4.595   6.552 -0.0093  0.3023  0.4717
 6005TIP3    H239575   6.316   4.707   6.584  0.1152  0.2298  1.1183
 6006TIP3   OH239576   5.128   4.769   1.632 -0.0521 -0.3046  0.0108
 6006TIP3    H139577   5.174   4.707   1.690 -0.7497 -0.2822  0.5987
 6006TIP3    H239578   5.036   4.744   1.639 -0.2559  0.3521 -0.3046
 6007TIP3   OH239579   5.190   6.607   7.923 -0.2477  0.1174  0.2819
 6007TIP3    H139580   5.147   6.555   7.991 -0.6523  2.2710  1.8130
 6007TIP3    H239581   5.123   6.671   7.897  0.6158  0.6903 -0.5894
 6008TIP3   OH239582   0.894   4.490   7.616  0.1265 -0.0861  0.6441
 6008TIP3    H139583   0.849   4.509   7.698 -0.8369 -0.4709  0.2181
 6008TIP3    H239584   0.919   4.398   7.624 -0.1308 -0.1757  0.4395
 6009TIP3   OH239585   0.490   4.309   1.009 -0.0824  0.0833 -0.3767
 6009TIP3    H139586   0.455   4.398   1.018 -1.0922 -0.1876 -1.4055
 6009TIP3    H239587   0.486   4.291   0.915  2.9099  0.0210 -0.5745
 6010TIP3   OH239588   4.445   0.319   6.628 -0.1684 -0.0103 -0.3793
 6010TIP3    H139589   4.413   0.243   6.678  1.8781 -2.4937 -2.5770
 6010TIP3    H239590   4.540   0.311   6.629  0.0171  0.4921 -3.5640
 6011TIP3   OH239591   0.699   0.576   7.275  0.1537 -0.3506  0.4098
 6011TIP3    H139592   0.696   0.607   7.365 -0.5456 -0.0460  0.2940
 6011TIP3    H239593   0.688   0.481   7.281 -2.1976 -0.1356  0.5561
 6012TIP3   OH239594   6.182   7.009   0.473  0.3211 -0.4542 -0.3852
 6012TIP3    H139595   6.189   6.919   0.442 -1.5341  0.0803 -2.5613
 6012TIP3    H239596   6.120   7.004   0.546 -0.1229 -0.8797 -0.7864
 6013TIP3   OH239597   3.379   0.835   0.306 -0.1913  0.1976 -0.5847
 6013TIP3    H139598   3.459   0.805   0.263  0.2048  0.0513  0.2379
 6013TIP3    H239599   3.404   0.916   0.350  0.1755 -1.0496  1.6687
 6014TIP3   OH239600   7.025   5.927   7.007 -0.1562 -0.4207 -0.1712
 6014TIP3    H139601   7.060   5.916   6.918 -1.6088 -1.1129 -0.6959
 6014TIP3    H239602   7.040   5.843   7.050  0.2611 -0.1916  0.1296
 6015TIP3   OH239603   4.604   4.816   7.746  0.0849  0.1181  0.2723
 6015TIP3    H139604   4.577   4.900   7.784  1.9901  0.0133  2.0742
 6015TIP3    H239605   4.693   4.803   7.779 -0.2944 -2.8105  0.3818
 6016TIP3   OH239606   5.953   0.850   7.825  0.5181  0.8777  0.8298
 6016TIP3    H139607   5.896   0.818   7.756  2.5961  1.5299 -1.3100
 6016TIP3    H239608   5.903   0.837   7.906 -1.0565 -2.1624 -0.4852
 6017TIP3   OH239609   5.510   5.493   0.306  0.1979  0.2877  0.2768
 6017TIP3    H139610   5.464   5.451   0.233  0.7524  1.8043 -1.0051
 6017TIP3    H239611   5.501   5.431   0.379 -0.9674 -0.9643 -0.8698
 6018TIP3   OH239612   2.931   4.614   2.561  0.0377 -0.3059 -0.2947
 6018TIP3    H139613   2.931   4.709   2.558 -2.8348 -0.0670  2.2961
 6018TIP3    H239614   3.002   4.591   2.621  1.5910  0.0440 -1.9315
 6019TIP3   OH239615   4.045   0.605   6.637  0.1076  0.3125 -0.8211
 6019TIP3    H139616   4.134   0.581   6.662  0.3661 -0.6684 -2.5663
 6019TIP3    H239617   4.049   0.700   6.623  0.4332  0.5590  0.7120
 6020TIP3   OH239618   5.869   5.944   1.630  0.1719  0.6265  0.7331
 6020TIP3    H139619   5.856   6.031   1.594 -3.7526 -0.8445 -2.1051
 6020TIP3    H239620   5.820   5.945   1.712  0.2551  1.0815  0.7816
 6021TIP3   OH239621   6.340   6.195   6.571 -0.1700  0.2528  0.7649
 6021TIP3    H139622   6.350   6.208   6.477  0.7324 -1.4810  0.5728
 6021TIP3    H239623   6.248   6.170   6.582 -0.1998  0.1325  0.2911
 6022TIP3   OH239624   0.762   0.644   0.754  0.0799  0.2879 -0.3675
 6022TIP3    H139625   0.778   0.739   0.760  0.7204  0.2341 -1.0647
 6022TIP3    H239626   0.750   0.628   0.660  2.4941 -0.6910 -0.5816
 6023TIP3   OH239627   0.127   7.017   2.379  0.7992 -0.1025  0.1504
 6023TIP3    H139628   0.117   7.102   2.421 -0.7935  0.0088 -0.3608
 6023TIP3    H239629   0.128   6.955   2.452 -0.1423  0.2205  0.4649
 6024TIP3   OH239630   4.554   0.500   7.536  0.3231  0.4773 -0.9337
 6024TIP3    H139631   4.596   0.535   7.458  3.5070  1.3463  1.0024
 6024TIP3    H239632   4.607   0.424   7.560 -1.1746 -0.3651 -0.1040
 6025TIP3   OH239633   1.547   6.130   7.244 -0.2327 -0.4332 -0.3547
 6025TIP3    H139634   1.483   6.078   7.292  0.6529 -0.6740  0.6088
 6025TIP3    H239635   1.574   6.198   7.305  1.3341 -1.0770 -0.2820
 6026TIP3   OH239636   6.102   5.303   6.980 -0.5156  0.4571  0.3042
 6026TIP3    H139637   6.021   5.341   7.014 -1.0004 -0.8642  0.6888
 6026TIP3    H239638   6.084   5.209   6.973  0.8096  0.2053 -0.1146
 6027TIP3   OH239639   6.784   1.846   6.522  0.3675  0.4770 -0.2864
 6027TIP3    H139640   6.746   1.904   6.457  1.3616  0.9799 -0.4272
 6027TIP3    H239641   6.828   1.778   6.471  0.5289  0.4604 -0.1246
 6028TIP3   OH239642   1.212   4.898   7.383  0.3353 -0.1622  0.1685
 6028TIP3    H139643   1.269   4.954   7.436  3.3658 -1.7636 -1.1523
 6028TIP3    H239644   1.214   4.813   7.426 -1.4356 -0.1992  0.2675
 6029TIP3   OH239645   5.081   7.066   5.735 -0.2201  0.0406 -0.5568
 6029TIP3    H139646   5.073   7.132   5.804  1.1415  0.2622 -0.5750
 6029TIP3    H239647   5.082   6.982   5.782 -4.0238 -0.2173 -0.6556
 6030TIP3   OH239648   5.779   0.282   6.994 -0.4000  0.9013 -0.1040
 6030TIP3    H139649   5.738   0.225   6.930  0.0225  1.7720 -1.1682
 6030TIP3    H239650   5.754   0.245   7.079 -1.4111  0.0580 -0.7579
 6031TIP3   OH239651   6.306   1.612   2.509  0.7349 -0.3173  0.6915
 6031TIP3    H139652   6.249   1.686   2.529  1.9990  0.8498  0.1207
 6031TIP3    H239653   6.257   1.562   2.443 -1.0900 -1.2798  2.6190
 6032TIP3   OH239654   4.728   1.271   0.116 -0.0449  0.2483 -0.0794
 6032TIP3    H139655   4.665   1.342   0.108  0.1569  0.4116 -0.2458
 6032TIP3    H239656   4.715   1.237   0.205  1.1092  1.7040  0.7022
 6033TIP3   OH239657   3.765   4.400   7.438 -0.5425  0.1783 -0.0766
 6033TIP3    H139658   3.814   4.434   7.513  1.3551  0.7341 -1.4859
 6033TIP3    H239659   3.711   4.330   7.475 -2.2595  2.6115  2.3556
 6034TIP3   OH239660   0.341   5.585   7.283  0.4719  0.8065 -0.6084
 6034TIP3    H139661   0.380   5.505   7.248  2.0268  1.0598  0.4522
 6034TIP3    H239662   0.376   5.592   7.372  1.9540  3.6629 -1.2904
 6035TIP3   OH239663   5.790   6.095   0.082 -0.1572  0.2413 -0.7024
 6035TIP3    H139664   5.700   6.067   0.102 -0.0664  0.5393  0.1483
 6035TIP3    H239665   5.845   6.039   0.136  0.0505  1.7250  0.6962
 6036TIP3   OH239666   1.969   1.490   7.819  0.2685  0.4866  0.1707
 6036TIP3    H139667   1.978   1.399   7.791 -0.1039  0.4964  0.0102
 6036TIP3    H239668   1.886   1.493   7.867 -0.2245  0.9397 -0.6694
 6037TIP3   OH239669   2.983   4.220   1.227 -0.1861 -0.3940 -0.2923
 6037TIP3    H139670   3.042   4.269   1.169  2.9788 -2.5930  0.7611
 6037TIP3    H239671   2.960   4.142   1.177 -0.1175 -0.7434  0.2167
 6038TIP3   OH239672   3.746   5.708   0.778  0.7237  0.0714  0.1660
 6038TIP3    H139673   3.650   5.712   0.786  0.5608  0.4010 -1.4265
 6038TIP3    H239674   3.777   5.683   0.865 -0.7911  0.2434  0.7883
 6039TIP3   OH239675   5.643   4.423   2.224  0.1047  0.4566  0.5286
 6039TIP3    H139676   5.724   4.454   2.185  0.3206 -0.7433 -0.0131
 6039TIP3    H239677   5.574   4.451   2.164  0.3815 -0.8489 -0.4453
 6040TIP3   OH239678   2.280   1.353   2.122  0.7018 -0.1724  0.3060
 6040TIP3    H139679   2.315   1.295   2.055  0.2090  0.2277 -0.3080
 6040TIP3    H239680   2.314   1.440   2.099  1.5383 -0.2212  1.2868
 6041TIP3   OH239681   4.925   4.417   1.458  0.6721  0.0408  0.1463
 6041TIP3    H139682   4.950   4.509   1.465  0.5077  0.3737 -2.6201
 6041TIP3    H239683   4.834   4.415   1.489  1.3622  0.3371  2.3444
 6042TIP3   OH239684   4.143   3.774   7.583 -0.3297 -0.6011  0.1475
 6042TIP3    H139685   4.110   3.716   7.652  0.0595 -1.6132 -0.5058
 6042TIP3    H239686   4.098   3.857   7.599 -1.3042 -1.2257  0.7862
 6043TIP3   OH239687   4.391   1.521   1.578 -0.3852  0.0749 -0.5998
 6043TIP3    H139688   4.485   1.522   1.599 -0.3759  0.4125 -0.6479
 6043TIP3    H239689   4.353   1.462   1.643  0.1284 -1.6200 -1.7843
 6044TIP3   OH239690   5.597   5.499   7.952 -0.0770 -0.1144  0.1198
 6044TIP3    H139691   5.501   5.504   7.956 -0.0545 -0.0018  0.5662
 6044TIP3    H239692   5.627   5.570   8.008  0.2631 -0.7924  0.8243
 6045TIP3   OH239693   3.404   6.742   1.443 -0.2118  0.2187 -0.8068
 6045TIP3    H139694   3.408   6.775   1.354  1.1604 -0.7949 -1.1543
 6045TIP3    H239695   3.427   6.817   1.498 -3.0044  1.4178 -1.0718
 6046TIP3   OH239696   1.855   2.674   2.464  0.3897  0.4086 -0.3843
 6046TIP3    H139697   1.800   2.632   2.398  0.1629  0.9686 -0.5496
 6046TIP3    H239698   1.943   2.638   2.448 -0.0345 -1.0238  0.3256
 6047TIP3   OH239699   4.026   1.967   0.059 -0.7536 -0.5244  0.2113
 6047TIP3    H139700   4.092   1.897   0.056 -1.4581 -1.3584  2.1870
 6047TIP3    H239701   3.953   1.934   0.007  0.5873  0.7486 -2.6835
 6048TIP3   OH239702   2.795   5.083   6.635 -0.4491  0.0126 -0.2352
 6048TIP3    H139703   2.822   5.118   6.550 -0.9101  0.0933 -0.3474
 6048TIP3    H239704   2.865   5.022   6.658 -0.3402 -0.0398 -0.6890
 6049TIP3   OH239705   6.951   2.794   1.868 -0.5645 -0.3434 -0.1986
 6049TIP3    H139706   6.947   2.709   1.824  0.0849  0.1616 -1.2872
 6049TIP3    H239707   7.036   2.794   1.913  0.5421  0.6135 -2.1716
 6050TIP3   OH239708   6.717   4.460   7.405  0.2413  0.0816  0.0515
 6050TIP3    H139709   6.740   4.465   7.313  0.5206  1.5968  0.1910
 6050TIP3    H239710   6.681   4.545   7.427  0.4572 -0.1441  1.4147
 6051TIP3   OH239711   4.829   5.894   2.224 -0.0295 -0.5705  0.5306
 6051TIP3    H139712   4.894   5.955   2.188 -1.3896  0.3844 -0.4287
 6051TIP3    H239713   4.852   5.886   2.317  2.7856 -2.0516 -0.1732
 6052TIP3   OH239714   5.850   0.291   1.636  0.5071 -0.3838  0.4786
 6052TIP3    H139715   5.944   0.274   1.631  0.5647  0.0929 -0.2373
 6052TIP3    H239716   5.814   0.214   1.680  1.1676 -0.8163  0.2842
 6053TIP3   OH239717   6.467   4.317   2.011  0.0388  0.2507  0.8063
 6053TIP3    H139718   6.501   4.383   2.071  0.8171  1.6531 -1.0379
 6053TIP3    H239719   6.372   4.327   2.014  0.1314  1.2409  0.8304
 6054TIP3   OH239720   0.407   1.247   7.168  0.0699 -0.6353 -0.1249
 6054TIP3    H139721   0.496   1.279   7.182 -0.3987  0.7281 -0.1394
 6054TIP3    H239722   0.408   1.158   7.203  1.4272 -0.6291 -0.1064
 6055TIP3   OH239723   2.895   3.605   6.254  0.3571 -0.0531  0.7652
 6055TIP3    H139724   2.846   3.527   6.226  0.5769 -1.2791  3.4578
 6055TIP3    H239725   2.986   3.583   6.235  0.4655 -0.7020  1.9384
 6056TIP3   OH239726   5.634   6.220   0.719  0.3592  0.0192 -0.4274
 6056TIP3    H139727   5.543   6.234   0.746  0.5397 -0.8200  0.6920
 6056TIP3    H239728   5.657   6.298   0.669 -0.6654  0.6932  0.1290
 6057TIP3   OH239729   5.492   2.851   2.360  1.0429 -0.0200  0.5410
 6057TIP3    H139730   5.469   2.784   2.424  0.2378 -1.1826 -0.9086
 6057TIP3    H239731   5.578   2.825   2.327  1.3857  0.4919  0.9970
 6058TIP3   OH239732   2.755   6.282   6.553 -0.2270  0.6727 -0.2953
 6058TIP3    H139733   2.712   6.352   6.503  0.6963  0.5622 -1.2895
 6058TIP3    H239734   2.811   6.238   6.489 -1.2587 -1.4011  0.1444
 6059TIP3   OH239735   6.266   1.563   2.061 -0.0226  0.7207 -0.3592
 6059TIP3    H139736   6.288   1.655   2.046  0.5925  0.6761  0.2390
 6059TIP3    H239737   6.184   1.550   2.013 -0.5106  1.7762  0.1636
 6060TIP3   OH239738   6.594   2.780   1.692 -0.1408 -0.0547 -0.5339
 6060TIP3    H139739   6.628   2.704   1.739  0.4842 -0.0771 -1.0126
 6060TIP3    H239740   6.501   2.762   1.681  0.1210 -1.0371 -1.1849
 6061TIP3   OH239741   0.545   4.435   0.741 -0.1294 -0.1835 -0.0577
 6061TIP3    H139742   0.581   4.509   0.693  0.7754  1.0833  2.4473
 6061TIP3    H239743   0.498   4.474   0.814 -0.2412 -2.0815  0.9415
 6062TIP3   OH239744   4.187   2.793   7.845 -0.3033  0.2313  0.2780
 6062TIP3    H139745   4.261   2.845   7.812  0.2822 -0.5740  0.2983
 6062TIP3    H239746   4.227   2.713   7.879 -1.1290  0.0546  0.8595
 6063TIP3   OH239747   0.196   5.574   1.114 -0.5340 -0.3633 -0.2765
 6063TIP3    H139748   0.114   5.541   1.150 -0.1481 -0.6803  0.3438
 6063TIP3    H239749   0.243   5.496   1.085 -0.6888 -0.1345 -1.1711
 6064TIP3   OH239750   5.419   6.271   7.497 -0.0588 -0.4955 -0.4946
 6064TIP3    H139751   5.395   6.204   7.561  0.1468 -2.4659 -2.3488
 6064TIP3    H239752   5.508   6.298   7.522 -0.2594 -0.6845  0.4533
 6065TIP3   OH239753   2.267   0.100   2.814 -0.0388  0.7248 -0.6910
 6065TIP3    H139754   2.245   0.170   2.753  1.7577  0.7960 -1.3094
 6065TIP3    H239755   2.362   0.106   2.825  0.0140 -0.9180  0.0951
 6066TIP3   OH239756   5.277   2.002   7.439 -0.2803 -0.2135 -0.1903
 6066TIP3    H139757   5.253   1.961   7.355 -0.4800 -0.8669  0.1777
 6066TIP3    H239758   5.340   1.941   7.478 -1.2618 -0.6397  0.7807
 6067TIP3   OH239759   2.324   1.596   1.585  0.3782 -0.1542 -0.5717
 6067TIP3    H139760   2.269   1.578   1.662 -0.7153 -0.6356 -1.4251
 6067TIP3    H239761   2.411   1.612   1.621 -0.5927  2.1647  0.9771
 6068TIP3   OH239762   4.620   3.996   7.784 -0.6449 -0.1172  0.1167
 6068TIP3    H139763   4.644   4.073   7.837  1.2785 -0.0797 -0.7194
 6068TIP3    H239764   4.701   3.946   7.778 -1.3189 -1.0936 -1.1953
 6069TIP3   OH239765   3.606   4.786   1.678  0.1035  0.3346  0.4142
 6069TIP3    H139766   3.613   4.694   1.650  0.5873  0.3230  0.5712
 6069TIP3    H239767   3.614   4.782   1.773 -1.0974  0.4188  0.5270
 6070TIP3   OH239768   5.438   0.290   7.134 -0.1660  0.1632 -0.1312
 6070TIP3    H139769   5.409   0.229   7.066 -1.3819  0.0332  0.4782
 6070TIP3    H239770   5.493   0.237   7.192 -1.3052 -0.4077  0.4555
 6071TIP3   OH239771   6.051   5.497   0.419 -0.6227  0.0286  0.0640
 6071TIP3    H139772   6.032   5.506   0.326  1.9937 -2.4918 -0.8471
 6071TIP3    H239773   5.987   5.432   0.450 -1.0834  0.4004 -0.0910
 6072TIP3   OH239774   4.575   6.086   7.511 -0.3302 -0.3453 -0.0577
 6072TIP3    H139775   4.578   6.167   7.460 -1.3745 -1.6011 -2.2665
 6072TIP3    H239776   4.667   6.061   7.521 -0.0921 -0.0508 -1.3436
 6073TIP3   OH239777   0.605   6.233   1.312  0.7464 -0.0981  0.0150
 6073TIP3    H139778   0.620   6.139   1.300  0.0337 -0.4183  1.5214
 6073TIP3    H239779   0.620   6.270   1.224  2.9761 -1.3234 -0.2020
 6074TIP3   OH239780   1.329   2.845   7.726  0.0246 -0.2639  0.0746
 6074TIP3    H139781   1.344   2.791   7.803  0.1385 -1.0441 -0.4894
 6074TIP3    H239782   1.417   2.860   7.689  0.0229  0.5229  0.3677
 6075TIP3   OH239783   3.527   0.474   7.488  0.3088 -0.2406  0.1929
 6075TIP3    H139784   3.554   0.441   7.402 -0.9802  1.7158 -1.0385
 6075TIP3    H239785   3.543   0.401   7.547  1.6006 -1.5316 -1.6286
 6076TIP3   OH239786   6.475   1.169   7.754  0.2041  0.3594 -0.5225
 6076TIP3    H139787   6.447   1.148   7.665 -3.5288 -1.5030  0.8644
 6076TIP3    H239788   6.425   1.247   7.776  2.7063  2.1039 -0.6198
 6077TIP3   OH239789   2.549   2.715   7.390 -0.0463 -0.4208 -0.1276
 6077TIP3    H139790   2.525   2.726   7.298 -1.1362  0.8149  0.2849
 6077TIP3    H239791   2.588   2.798   7.415  1.6760 -1.2690  0.1426
 6078TIP3   OH239792   5.872   3.106   0.206 -0.5939  0.0426 -0.5636
 6078TIP3    H139793   5.810   3.049   0.159 -1.2000  0.3147 -0.1133
 6078TIP3    H239794   5.955   3.060   0.201 -1.5314 -2.1081  1.8371
 6079TIP3   OH239795   5.185   6.021   1.247  0.0403 -0.2988  0.0248
 6079TIP3    H139796   5.225   6.107   1.246 -2.2445  0.8580 -0.1625
 6079TIP3    H239797   5.231   5.973   1.315  1.1319  1.1781  0.3643
 6080TIP3   OH239798   2.731   1.265   2.222 -0.5006 -0.5826 -0.8553
 6080TIP3    H139799   2.650   1.292   2.265 -0.2920  1.3647 -1.5891
 6080TIP3    H239800   2.798   1.275   2.289 -0.3553  1.2776 -1.2503
 6081TIP3   OH239801   1.598   0.412   7.434 -0.5249  0.0189 -0.3810
 6081TIP3    H139802   1.653   0.388   7.360  1.9663  0.2804  1.2759
 6081TIP3    H239803   1.569   0.329   7.471  4.6401 -0.7829  2.8356
 6082TIP3   OH239804   0.281   1.469   7.041 -0.5716  0.2425  0.6196
 6082TIP3    H139805   0.283   1.482   6.946  0.6165  1.3018  0.7690
 6082TIP3    H239806   0.322   1.384   7.055  2.2421  1.4569  0.3564
 6083TIP3   OH239807   1.999   3.375   6.624  0.7656  0.3180  0.6330
 6083TIP3    H139808   2.017   3.310   6.557  0.2726 -0.4321  1.2008
 6083TIP3    H239809   1.904   3.371   6.636  0.8167  0.6118  1.1913
 6084TIP3   OH239810   4.063   4.189   6.425  0.2142  0.4052 -0.1516
 6084TIP3    H139811   3.993   4.249   6.448 -0.7073 -0.7029  0.0504
 6084TIP3    H239812   4.018   4.109   6.397  1.3884 -1.0695  1.9188
 6085TIP3   OH239813   6.345   5.719   2.983 -0.3849  0.3753 -0.1336
 6085TIP3    H139814   6.351   5.646   3.044 -1.8826  2.1214  2.2841
 6085TIP3    H239815   6.309   5.680   2.903  0.5504 -1.7949  0.4207
 6086TIP3   OH239816   3.088   5.710   0.562  0.5897 -0.0380 -0.2034
 6086TIP3    H139817   3.003   5.753   0.578  1.1159  0.3554  1.7609
 6086TIP3    H239818   3.065   5.627   0.520 -0.6374  0.8347 -1.3632
 6087TIP3   OH239819   6.515   1.784   2.166 -0.0051 -0.2185 -0.4687
 6087TIP3    H139820   6.599   1.830   2.171  0.2580 -0.7068 -0.2915
 6087TIP3    H239821   6.497   1.758   2.257 -0.7772  0.6286 -0.3619
 6088TIP3   OH239822   1.769   5.383   1.850  0.3579 -0.2582  0.3557
 6088TIP3    H139823   1.808   5.428   1.925  0.2941 -1.8226  1.3654
 6088TIP3    H239824   1.676   5.407   1.855  0.0081 -1.6977  1.8569
 6089TIP3   OH239825   3.122   4.496   7.415 -0.2411 -0.1046 -0.6515
 6089TIP3    H139826   3.037   4.453   7.407  0.9693 -2.8789 -0.0310
 6089TIP3    H239827   3.152   4.507   7.325 -0.4271 -0.9695 -0.8276
 6090TIP3   OH239828   5.488   2.512   7.175 -0.1584  0.4256 -0.1978
 6090TIP3    H139829   5.572   2.466   7.172 -0.3149  0.1822 -1.4457
 6090TIP3    H239830   5.458   2.514   7.084 -2.5130 -1.3831  0.4225
 6091TIP3   OH239831   5.272   4.557   0.920 -0.1158 -0.5050  0.1455
 6091TIP3    H139832   5.297   4.532   1.009 -1.8954  0.1447  0.8688
 6091TIP3    H239833   5.263   4.653   0.925 -1.2898 -0.5774 -0.4384
 6092TIP3   OH239834   4.935   0.557   0.148 -0.3663  0.0543 -0.5815
 6092TIP3    H139835   4.886   0.613   0.088  0.5920  0.8568 -0.6551
 6092TIP3    H239836   4.869   0.502   0.190 -1.1387  0.0791 -1.7400
 6093TIP3   OH239837   1.927   5.000   7.667  0.6842  0.4764  0.2002
 6093TIP3    H139838   1.901   4.917   7.706 -2.2473  1.1434 -0.1520
 6093TIP3    H239839   2.023   4.995   7.662  0.6418 -2.6215  0.6773
 6094TIP3   OH239840   5.066   6.030   2.173  0.5232 -0.1908  0.3272
 6094TIP3    H139841   5.161   6.022   2.173  0.5983  0.5046  1.2207
 6094TIP3    H239842   5.050   6.121   2.198 -0.3597  0.2260 -1.5449
 6095TIP3   OH239843   4.365   3.773   7.408 -0.5235 -0.3611 -0.4456
 6095TIP3    H139844   4.289   3.789   7.464 -2.4354 -0.0326 -2.9802
 6095TIP3    H239845   4.396   3.686   7.434 -0.5947  0.2049  1.8136
 6096TIP3   OH239846   6.540   0.261   7.208 -0.6434  0.2114 -0.0631
 6096TIP3    H139847   6.449   0.272   7.232 -0.2125  0.9217  1.3423
 6096TIP3    H239848   6.577   0.205   7.277  0.2227  0.8415  0.0034
 6097TIP3   OH239849   2.885   3.552   7.949  0.1918 -0.1287  0.4736
 6097TIP3    H139850   2.899   3.636   7.906  0.1701  0.2140  1.1315
 6097TIP3    H239851   2.966   3.503   7.934 -0.2305 -0.4430 -0.9065
 6098TIP3   OH239852   5.777   6.548   2.536  0.1417 -0.0045 -0.3313
 6098TIP3    H139853   5.754   6.601   2.613  0.2431  1.0931 -1.0408
 6098TIP3    H239854   5.813   6.468   2.573  2.5942  1.5204  0.8415
 6099TIP3   OH239855   0.025   0.248   6.336 -0.5801  0.3326  0.0230
 6099TIP3    H139856  -0.066   0.273   6.319 -0.9764 -0.1080  1.3950
 6099TIP3    H239857   0.047   0.189   6.263 -1.2129  0.8530 -0.6000
 6100TIP3   OH239858   4.132   2.776   1.539 -0.4735 -0.7547  0.1284
 6100TIP3    H139859   4.053   2.751   1.587  0.3234 -0.6641  1.5606
 6100TIP3    H239860   4.179   2.694   1.526 -0.6542 -0.7683 -0.4648
 6101TIP3   OH239861   1.052   3.254   0.982 -0.2981  0.1788 -0.3486
 6101TIP3    H139862   1.143   3.236   0.958 -0.1167  0.5872  0.0341
 6101TIP3    H239863   1.057   3.323   1.048 -0.8195 -0.6235  0.5620
 6102TIP3   OH239864   4.699   6.525   0.271  0.6915 -0.3041 -0.1301
 6102TIP3    H139865   4.739   6.474   0.200 -1.7109 -1.5105 -0.7083
 6102TIP3    H239866   4.639   6.585   0.226  0.3129  0.0378  0.8112
 6103TIP3   OH239867   3.986   5.451   2.461  0.0789  0.1441  0.4387
 6103TIP3    H139868   4.029   5.516   2.406 -0.4571  2.0295  2.1377
 6103TIP3    H239869   4.037   5.371   2.448  0.2849  0.6400 -2.3114
 6104TIP3   OH239870   0.131   6.374   6.887  0.0338 -0.4906  0.0289
 6104TIP3    H139871   0.224   6.365   6.906 -0.1901 -1.4453  0.7312
 6104TIP3    H239872   0.108   6.292   6.842  0.0561  0.7586 -2.4548
 6105TIP3   OH239873   3.864   5.039   0.950  0.4735  0.5631  0.1727
 6105TIP3    H139874   3.811   5.061   1.027  0.8137  0.1593  0.5316
 6105TIP3    H239875   3.952   5.068   0.973  0.3618  1.4860 -0.5347
 6106TIP3   OH239876   5.173   0.909   6.903 -0.3093  0.3350 -0.2636
 6106TIP3    H139877   5.098   0.907   6.843 -1.1514  1.2901  0.7073
 6106TIP3    H239878   5.146   0.855   6.977  0.7714 -0.9417 -0.7582
 6107TIP3   OH239879   4.877   2.394   1.943  0.8483 -0.0486 -0.5645
 6107TIP3    H139880   4.822   2.320   1.967 -0.2238  0.5504 -1.0643
 6107TIP3    H239881   4.960   2.356   1.915  1.0552 -0.9235  1.1452
 6108TIP3   OH239882   6.001   1.390   1.562  0.5540 -0.2365 -0.1672
 6108TIP3    H139883   6.033   1.300   1.570  0.5835 -0.1698  0.5124
 6108TIP3    H239884   6.062   1.442   1.615 -0.3692 -0.0337  0.7274
 6109TIP3   OH239885   3.820   3.618   0.367  0.9881 -0.0590 -0.0729
 6109TIP3    H139886   3.800   3.527   0.347  1.3024  0.1603 -1.5602
 6109TIP3    H239887   3.739   3.665   0.347  0.8980  0.0121  0.4626
 6110TIP3   OH239888   0.314   2.146   6.977  0.1544 -0.2164  0.4109
 6110TIP3    H139889   0.321   2.053   6.999 -1.4581 -0.2267  1.0406
 6110TIP3    H239890   0.244   2.149   6.912  1.0234  0.4471 -0.5312
 6111TIP3   OH239891   4.073   6.759   7.941 -0.1089  0.3851  0.3726
 6111TIP3    H139892   4.091   6.756   7.847  0.4403  0.2782  0.4816
 6111TIP3    H239893   3.979   6.739   7.948 -0.1034  0.1738 -0.1338
 6112TIP3   OH239894   5.077   5.394   7.600 -0.2337 -0.0056 -0.1871
 6112TIP3    H139895   5.035   5.342   7.531 -1.1981  1.4899 -0.7921
 6112TIP3    H239896   5.004   5.435   7.646  0.4995  1.7463 -0.5143
 6113TIP3   OH239897   0.897   1.059   7.257 -1.1423 -0.5657 -0.4179
 6113TIP3    H139898   0.930   0.969   7.259  0.2368 -0.0806 -0.2912
 6113TIP3    H239899   0.898   1.087   7.348  0.0910  0.1385 -0.6283
 6114TIP3   OH239900   5.205   0.405   5.914  0.2066  0.0385  0.3856
 6114TIP3    H139901   5.128   0.457   5.936  0.2397 -0.0386  0.6930
 6114TIP3    H239902   5.193   0.382   5.822 -0.0036  0.2543  0.3585
 6115TIP3   OH239903   3.620   1.121   7.275  0.6499 -0.1898  0.1066
 6115TIP3    H139904   3.563   1.109   7.350 -0.4434 -0.4434 -0.7297
 6115TIP3    H239905   3.693   1.174   7.307 -0.7688  1.3662  0.8952
 6116TIP3   OH239906   2.206   3.517   7.942  0.0754 -0.2131  0.1608
 6116TIP3    H139907   2.114   3.525   7.918 -0.0300 -0.8920  0.3234
 6116TIP3    H239908   2.253   3.550   7.866 -0.2870 -0.7339 -0.2965
 6117TIP3   OH239909   3.802   6.835   6.702 -0.4452  0.3438  0.1887
 6117TIP3    H139910   3.856   6.914   6.709 -0.5249  0.5547 -1.3939
 6117TIP3    H239911   3.715   6.863   6.730  0.1702  0.0323  2.6500
 6118TIP3   OH239912   4.878   6.828   6.797 -0.0939  0.2547 -0.1922
 6118TIP3    H139913   4.910   6.828   6.887  0.3915  0.0177 -0.3573
 6118TIP3    H239914   4.844   6.916   6.783  3.1140  1.5464 -0.8934
 6119TIP3   OH239915   3.670   1.913   2.064  0.3019  0.5977 -0.3893
 6119TIP3    H139916   3.721   1.993   2.077  0.4698  0.6374 -1.2038
 6119TIP3    H239917   3.736   1.847   2.043  0.1147  0.3792 -0.2894
 6120TIP3   OH239918   1.861   3.928   7.031  0.1029 -0.0671  0.5945
 6120TIP3    H139919   1.783   3.975   7.002  0.8099  0.7028 -0.1289
 6120TIP3    H239920   1.911   3.914   6.950 -0.9470 -3.7893  0.4141
 6121TIP3   OH239921   5.757   3.379   1.406 -0.6193 -0.1152 -0.3658
 6121TIP3    H139922   5.750   3.346   1.495 -1.1608 -0.7362 -0.6216
 6121TIP3    H239923   5.740   3.302   1.351 -0.4641  0.2934 -0.9966
 6122TIP3   OH239924   6.150   2.460   1.111 -0.6682 -0.3808 -0.2069
 6122TIP3    H139925   6.094   2.490   1.039  0.1557  2.2643  0.1244
 6122TIP3    H239926   6.090   2.431   1.179 -1.6993  1.9427 -0.0394
 6123TIP3   OH239927   1.009   5.733   6.449 -0.3543 -0.2897  0.0343
 6123TIP3    H139928   1.066   5.716   6.524 -2.0783 -0.4777  1.3487
 6123TIP3    H239929   0.921   5.731   6.485 -1.2046  0.1353 -1.9232
 6124TIP3   OH239930   3.919   6.550   7.772 -0.4305 -0.0240 -0.4120
 6124TIP3    H139931   3.840   6.515   7.730 -0.2232 -1.2160  0.1247
 6124TIP3    H239932   3.955   6.475   7.820 -0.6203  1.2453  1.8364
 6125TIP3   OH239933   3.329   1.807   0.277  0.2750 -0.0120  0.8341
 6125TIP3    H139934   3.305   1.862   0.352  0.5304  1.8590 -0.3851
 6125TIP3    H239935   3.260   1.823   0.213 -0.1777 -1.9341  0.7963
 6126TIP3   OH239936   3.096   2.826   2.370  0.5101  0.1807 -0.3717
 6126TIP3    H139937   3.017   2.836   2.423  1.6970 -0.0113  1.4916
 6126TIP3    H239938   3.134   2.914   2.366  0.5397  0.1540 -0.7420
 6127TIP3   OH239939   2.130   3.606   1.017 -0.2307 -0.0672 -0.3010
 6127TIP3    H139940   2.201   3.670   1.014 -0.2068  0.1595  2.7082
 6127TIP3    H239941   2.171   3.525   0.985  0.2016  0.9400 -2.4757
 6128TIP3   OH239942   6.652   3.460   0.135 -0.4516 -0.2145  0.5347
 6128TIP3    H139943   6.597   3.436   0.209  0.1742 -1.5380  0.6014
 6128TIP3    H239944   6.598   3.519   0.082 -0.9672  0.6116  1.9437
 6129TIP3   OH239945   4.069   2.897   7.037 -0.1278 -0.0926  0.2828
 6129TIP3    H139946   4.007   2.825   7.027  0.8018 -0.9520  0.5157
 6129TIP3    H239947   4.072   2.913   7.131 -0.8852  0.7676  0.1720
 6130TIP3   OH239948   6.955   5.067   2.353 -0.1590  0.3526 -0.4672
 6130TIP3    H139949   7.046   5.041   2.366 -0.0154  0.7243 -0.7056
 6130TIP3    H239950   6.927   5.098   2.440 -0.4199 -0.8376 -0.1187
 6131TIP3   OH239951   4.005   1.910   1.178  0.0742 -0.4338 -0.6120
 6131TIP3    H139952   4.023   1.842   1.112 -2.3309 -0.5020 -1.2984
 6131TIP3    H239953   4.069   1.979   1.159  1.3951 -1.7119 -1.0486
 6132TIP3   OH239954   5.172   0.982   7.868  0.3523 -0.3316  0.3808
 6132TIP3    H139955   5.082   0.960   7.842  0.2894 -0.2149  0.4961
 6132TIP3    H239956   5.196   0.914   7.930  0.0746  0.0428  0.9123
 6133TIP3   OH239957   5.169   6.990   7.117 -0.4747 -0.1627  0.4002
 6133TIP3    H139958   5.117   6.922   7.076 -1.8902  0.8285  0.4897
 6133TIP3    H239959   5.260   6.968   7.095 -0.9774 -1.4735 -0.4362
 6134TIP3   OH239960   1.336   2.324   7.285 -0.1393 -0.1014  0.0940
 6134TIP3    H139961   1.267   2.296   7.344 -1.1661 -2.4025 -2.0037
 6134TIP3    H239962   1.401   2.253   7.288 -0.4169 -0.4922 -1.7366
 6135TIP3   OH239963   6.246   6.907   1.007  0.0827  0.4971  0.2398
 6135TIP3    H139964   6.287   6.835   0.959  1.0050  0.5727  0.8695
 6135TIP3    H239965   6.233   6.975   0.942 -0.3581 -0.0657 -0.2643
 6136TIP3   OH239966   6.726   5.245   0.359 -0.1645 -0.5985  0.0216
 6136TIP3    H139967   6.745   5.155   0.386  0.4474 -0.8898 -1.2882
 6136TIP3    H239968   6.687   5.236   0.272 -0.3532  0.3978 -0.0074
 6137TIP3   OH239969   3.544   4.745   6.932 -0.2247 -0.0075  0.1282
 6137TIP3    H139970   3.538   4.715   6.841 -0.0230 -1.6462  0.6103
 6137TIP3    H239971   3.624   4.798   6.934  0.4926 -1.0182 -0.4094
 6138TIP3   OH239972   0.476   3.933   6.921  0.7712  0.0670  0.5046
 6138TIP3    H139973   0.543   3.928   6.852  1.2523 -3.7737  1.0642
 6138TIP3    H239974   0.441   3.845   6.927 -1.5766  1.0468  3.0073
 6139TIP3   OH239975   3.453   4.417   1.140 -0.0386 -0.5364  0.4166
 6139TIP3    H139976   3.401   4.378   1.211  0.5162 -0.1899  1.0232
 6139TIP3    H239977   3.388   4.452   1.080 -0.5653 -2.3837 -0.1522
 6140TIP3   OH239978   2.830   3.182   7.486 -0.2274 -0.3928 -0.1669
 6140TIP3    H139979   2.792   3.227   7.561  0.8998  2.3677 -1.1471
 6140TIP3    H239980   2.755   3.146   7.439 -1.4535  2.2833 -0.4169
 6141TIP3   OH239981   6.804   0.741   1.081  0.4761  0.1454 -0.7060
 6141TIP3    H139982   6.770   0.780   1.000  0.4390 -0.2377 -0.8778
 6141TIP3    H239983   6.738   0.762   1.146  1.1547  1.6374 -0.4585
 6142TIP3   OH239984   7.004   5.327   0.433  0.2203 -0.4014  0.3817
 6142TIP3    H139985   6.948   5.288   0.367 -0.3045  0.3855  0.3405
 6142TIP3    H239986   7.014   5.418   0.405  1.1002 -0.4018  0.6638
 6143TIP3   OH239987   4.906   1.096   2.190  0.0629  0.4153  0.2319
 6143TIP3    H139988   4.868   1.132   2.270  0.2772 -0.0049  0.5324
 6143TIP3    H239989   4.985   1.149   2.175 -0.4963  1.1230 -0.2526
 6144TIP3   OH239990   5.612   3.851   0.513 -0.3737  0.4664  0.3909
 6144TIP3    H139991   5.611   3.768   0.562  0.6600  0.6987  0.8401
 6144TIP3    H239992   5.615   3.918   0.581 -1.2642  0.8771  0.0249
 6145TIP3   OH239993   3.062   6.494   7.899  0.3357 -0.9163  0.2811
 6145TIP3    H139994   3.116   6.538   7.832 -0.2955 -0.5322  0.0122
 6145TIP3    H239995   3.113   6.417   7.924  0.7049 -0.9187 -0.4481
 6146TIP3   OH239996   1.419   2.964   1.241  0.3936 -0.2102 -0.2086
 6146TIP3    H139997   1.424   3.004   1.154 -0.1452  1.6388  0.5638
 6146TIP3    H239998   1.500   2.992   1.284  0.2986 -0.4700  0.1392
 6147TIP3   OH239999   1.937   6.170   6.802 -0.5416 -0.1269 -0.2356
 6147TIP3    H140000   1.887   6.246   6.834 -0.5180 -1.1769  2.6077
 6147TIP3    H240001   1.881   6.095   6.823 -0.0227 -0.9944 -1.8516
 6148TIP3   OH240002   3.463   1.928   7.641 -0.3511 -0.4760  0.1948
 6148TIP3    H140003   3.374   1.962   7.632 -0.6018 -1.4014 -1.1920
 6148TIP3    H240004   3.512   1.974   7.573 -0.2969 -1.5483 -0.5121
 6149TIP3   OH240005   0.019   0.300   0.881 -0.2648 -0.4126  0.2397
 6149TIP3    H140006   0.104   0.287   0.922  1.1395 -0.1452 -2.3777
 6149TIP3    H240007   0.000   0.216   0.838 -0.5854  0.0016 -0.4464
 6150TIP3   OH240008   0.469   3.159   7.253 -0.5150  0.6314  0.4467
 6150TIP3    H140009   0.490   3.102   7.327  0.1216 -0.0455 -0.2332
 6150TIP3    H240010   0.438   3.240   7.293  0.1574  0.4043  1.4632
 6151TIP3   OH240011   0.834   1.715   0.356  0.6062 -0.6474  0.2457
 6151TIP3    H140012   0.766   1.717   0.288  0.9796 -1.6210 -0.1826
 6151TIP3    H240013   0.795   1.663   0.427  1.0134 -1.5030 -0.1435
 6152TIP3   OH240014   2.913   1.389   1.793 -0.4973  0.3024  0.1091
 6152TIP3    H140015   2.900   1.462   1.732 -0.7518  1.0868  1.0784
 6152TIP3    H240016   2.840   1.395   1.854 -0.2863 -0.5122  0.4588
 6153TIP3   OH240017   6.804   0.282   6.426 -0.1524  0.5039 -0.1666
 6153TIP3    H140018   6.761   0.311   6.506 -0.0566 -1.0548  0.4851
 6153TIP3    H240019   6.733   0.275   6.362 -0.5216  0.1332  0.2710
 6154TIP3   OH240020   1.401   1.080   7.526  0.2147  0.3845 -0.0689
 6154TIP3    H140021   1.493   1.071   7.500  0.0097 -0.2372 -0.6145
 6154TIP3    H240022   1.383   1.000   7.576  0.0763  0.6924  0.3854
 6155TIP3   OH240023   2.854   4.535   7.119  0.0230 -0.1537  0.4294
 6155TIP3    H140024   2.937   4.492   7.096 -0.7573 -0.9721 -1.0090
 6155TIP3    H240025   2.796   4.462   7.141 -0.7097  0.3106  0.0440
 6156TIP3   OH240026   6.371   2.075   1.552  0.8528  0.5600 -0.7526
 6156TIP3    H140027   6.321   2.029   1.620  0.3079  0.5263 -1.1722
 6156TIP3    H240028   6.462   2.069   1.582  0.5253  1.5082  0.5500
 6157TIP3   OH240029   2.927   5.478   0.027  1.0482  0.4562  0.3453
 6157TIP3    H140030   2.850   5.512  -0.020  0.6334 -0.7729  0.1126
 6157TIP3    H240031   2.997   5.538   0.002  0.4037  0.9705 -0.2980
 6158TIP3   OH240032   1.936   1.059   0.225 -0.3267  0.3849 -0.0735
 6158TIP3    H140033   2.014   1.114   0.217  0.1960 -0.1386  1.1562
 6158TIP3    H240034   1.883   1.082   0.149  2.0268 -0.8969 -2.2513
 6159TIP3   OH240035   2.604   0.274   6.578  0.1176  0.2859  0.0774
 6159TIP3    H140036   2.530   0.231   6.535 -1.0765  2.1045  0.2161
 6159TIP3    H240037   2.682   0.233   6.540 -0.9346 -0.2047 -1.6216
 6160TIP3   OH240038   5.551   4.437   0.971  0.0253 -0.2999 -0.1960
 6160TIP3    H140039   5.475   4.426   1.029 -1.1649  2.1282 -1.1431
 6160TIP3    H240040   5.513   4.441   0.883  1.2969  0.4582 -0.7295
 6161TIP3   OH240041   1.320   4.244   6.874  0.4452  0.0682  0.1955
 6161TIP3    H140042   1.280   4.232   6.961 -0.7410  1.8782 -0.0405
 6161TIP3    H240043   1.394   4.302   6.890 -1.0166  2.1880 -0.1831
 6162TIP3   OH240044   2.329   2.785   1.753 -0.0089  0.1166 -0.0385
 6162TIP3    H140045   2.246   2.738   1.757 -0.3679  0.8252  1.2132
 6162TIP3    H240046   2.313   2.857   1.692 -0.2145  0.0683 -0.0426
 6163TIP3   OH240047   5.863   6.239   0.861 -0.0195  0.1754  0.1186
 6163TIP3    H140048   5.793   6.219   0.799 -0.6685  0.1607  0.8433
 6163TIP3    H240049   5.859   6.168   0.925  1.3957 -0.4424 -0.4242
 6164TIP3   OH240050   5.532   6.887   0.491  0.2600 -0.4659  0.3266
 6164TIP3    H140051   5.466   6.903   0.425 -0.0782 -0.9776  0.5396
 6164TIP3    H240052   5.614   6.881   0.442  0.7096  3.3797  0.3059
 6165TIP3   OH240053   5.328   0.552   1.075  0.1090 -0.0840  0.0086
 6165TIP3    H140054   5.364   0.620   1.017  1.4525 -0.1760  0.6920
 6165TIP3    H240055   5.340   0.470   1.025 -0.7613  0.0740 -0.4766
 6166TIP3   OH240056   2.024   2.121   6.777  0.4056 -0.3297  0.0202
 6166TIP3    H140057   1.999   2.029   6.767  1.2729 -0.6020  0.2762
 6166TIP3    H240058   2.051   2.148   6.690 -0.4583 -0.1185 -0.1957
 6167TIP3   OH240059   6.718   6.288   0.936 -0.1259 -0.4543 -0.2000
 6167TIP3    H140060   6.813   6.289   0.932 -0.0827  1.3753  0.1999
 6167TIP3    H240061   6.690   6.280   0.844  0.4442  0.3595 -0.4579
 6168TIP3   OH240062   0.637   6.811   1.561 -0.2609  0.1391  0.1844
 6168TIP3    H140063   0.576   6.737   1.556  0.0626 -0.0939 -0.5321
 6168TIP3    H240064   0.610   6.870   1.491 -0.4500  0.6563  0.6839
 6169TIP3   OH240065   5.158   3.304   0.781 -0.6920  0.1933 -0.1338
 6169TIP3    H140066   5.163   3.399   0.787 -1.3810  0.2082  0.2902
 6169TIP3    H240067   5.144   3.286   0.688  0.0325  0.4697 -0.3021
 6170TIP3   OH240068   5.479   6.870   0.174  0.0485  0.0077 -0.0560
 6170TIP3    H140069   5.536   6.942   0.148 -0.0840 -0.0380 -0.4916
 6170TIP3    H240070   5.390   6.904   0.158 -0.0811  0.3137  1.2234
 6171TIP3   OH240071   4.634   4.026   0.406  0.0687  0.3971 -0.2609
 6171TIP3    H140072   4.624   4.032   0.311 -2.8030 -0.3805 -0.0903
 6171TIP3    H240073   4.573   3.957   0.432  0.0541  1.2819  2.2868
 6172TIP3   OH240074   4.654   6.328   0.631  0.2602  0.1800  0.0810
 6172TIP3    H140075   4.619   6.278   0.557 -0.5964  0.3415  0.3590
 6172TIP3    H240076   4.578   6.375   0.665  0.5661 -0.1813  1.2920
 6173TIP3   OH240077   3.789   0.396   0.906  0.3676  0.7112  0.1353
 6173TIP3    H140078   3.881   0.371   0.894 -0.2106 -0.5013 -2.4413
 6173TIP3    H240079   3.752   0.325   0.959  0.8464  1.0836  0.9845
 6174TIP3   OH240080   1.972   6.200   7.566 -0.5120 -0.4132 -0.1314
 6174TIP3    H140081   2.037   6.132   7.584  0.0888 -0.1957 -1.3633
 6174TIP3    H240082   1.962   6.247   7.649  3.1081  1.4044 -0.5024
 6175TIP3   OH240083   6.613   1.411   7.372  0.0635  1.0951 -0.7913
 6175TIP3    H140084   6.523   1.419   7.402  0.0782 -1.3517  0.1655
 6175TIP3    H240085   6.618   1.324   7.334  2.4105  0.4077  0.8137
 6176TIP3   OH240086   3.427   4.318   7.555 -0.2649 -0.0658 -1.0055
 6176TIP3    H140087   3.426   4.273   7.470 -0.6411 -0.0938 -0.9874
 6176TIP3    H240088   3.478   4.261   7.612  0.8031  0.4127 -1.4615
 6177TIP3   OH240089   4.741   0.197   1.531  0.2152 -0.2475 -0.3282
 6177TIP3    H140090   4.836   0.206   1.523 -0.0069  2.0119 -1.1175
 6177TIP3    H240091   4.714   0.157   1.448  0.3337  0.7658 -0.8755
 6178TIP3   OH240092   5.513   1.507   6.057 -0.4995 -0.6664  0.2549
 6178TIP3    H140093   5.535   1.600   6.058  1.4400 -1.0370 -1.4032
 6178TIP3    H240094   5.452   1.497   5.984  0.2388 -0.8620 -0.3432
 6179TIP3   OH240095   0.385   2.592   7.466  0.2623  0.1322  0.1691
 6179TIP3    H140096   0.421   2.680   7.483 -1.5895  0.8054  0.8476
 6179TIP3    H240097   0.334   2.572   7.544  0.4044 -1.4615 -0.1077
 6180TIP3   OH240098   5.566   5.251   7.836  0.3592  0.0956  0.6109
 6180TIP3    H140099   5.580   5.341   7.865  0.2800  0.2197  0.2569
 6180TIP3    H240100   5.639   5.202   7.876  1.0456  0.5100 -0.1169
 6181TIP3   OH240101   3.453   6.236   0.576  0.6802 -0.3960  0.2621
 6181TIP3    H140102   3.426   6.326   0.564 -0.0149 -0.1864  2.7397
 6181TIP3    H240103   3.547   6.241   0.595  0.9749 -0.3912 -1.0861
 6182TIP3   OH240104   2.785   6.097   2.293 -0.6090 -0.2034 -0.7268
 6182TIP3    H140105   2.840   6.146   2.233 -2.0553  1.2927 -0.9154
 6182TIP3    H240106   2.843   6.033   2.333  0.5361 -0.8204 -3.2262
 6183TIP3   OH240107   5.792   2.753   2.349  0.1365 -0.3099  0.6999
 6183TIP3    H140108   5.803   2.763   2.443  0.5053 -0.4503  0.6724
 6183TIP3    H240109   5.873   2.713   2.319 -0.5957 -1.7389  0.5526
 6184TIP3   OH240110   4.429   4.975   7.425  0.4456 -0.2831  0.4280
 6184TIP3    H140111   4.429   5.022   7.508 -0.6983 -1.6881  1.2738
 6184TIP3    H240112   4.338   4.977   7.396  0.3283 -2.0025  0.5533
 6185TIP3   OH240113   2.951   6.688   7.061 -0.4711  0.1814  0.0308
 6185TIP3    H140114   2.865   6.693   7.103 -0.2715 -0.9096  0.6141
 6185TIP3    H240115   2.978   6.597   7.072  1.0935  0.6688  0.5356
 6186TIP3   OH240116   3.780   2.253   0.403  0.1460  0.1856  0.0292
 6186TIP3    H140117   3.753   2.344   0.413 -0.8773 -0.0820 -0.1505
 6186TIP3    H240118   3.735   2.223   0.324 -1.5457 -1.1502  1.4045
 6187TIP3   OH240119   6.821   6.079   2.523 -0.5620  0.0727  0.3043
 6187TIP3    H140120   6.769   6.098   2.601 -0.4575  1.0741  0.1450
 6187TIP3    H240121   6.883   6.152   2.517 -0.4202 -0.1100 -0.5865
 6188TIP3   OH240122   1.326   6.135   0.307  0.0770 -0.3376  0.2502
 6188TIP3    H140123   1.367   6.219   0.285  1.5006 -1.2103 -0.6267
 6188TIP3    H240124   1.387   6.095   0.369  1.2818 -2.1903 -1.9966
 6189TIP3   OH240125   5.251   1.856   1.548  0.4347  0.1767 -0.0996
 6189TIP3    H140126   5.165   1.877   1.586  0.4967  0.9327 -0.3609
 6189TIP3    H240127   5.232   1.786   1.485  0.5382 -2.1798  2.3050
 6190TIP3   OH240128   1.690   1.132   1.374 -0.1101  0.0532  0.0126
 6190TIP3    H140129   1.737   1.097   1.298 -0.2199  1.5552 -0.7749
 6190TIP3    H240130   1.661   1.219   1.347  1.4986  1.4424  2.4414
 6191TIP3   OH240131   1.994   2.102   1.464 -0.2344  0.0147 -0.0260
 6191TIP3    H140132   1.953   2.023   1.428  0.4241  0.1091 -1.0352
 6191TIP3    H240133   2.043   2.139   1.390 -2.0425  2.4279 -0.1067
 6192TIP3   OH240134   3.931   1.122   0.602 -0.7637  0.1221  0.1914
 6192TIP3    H140135   3.904   1.161   0.686 -0.2879  1.3910 -0.2275
 6192TIP3    H240136   3.863   1.057   0.584 -1.5121  0.6521  0.9891
 6193TIP3   OH240137   5.325   0.835   7.274  0.4924 -0.2073  0.5377
 6193TIP3    H140138   5.369   0.896   7.214 -1.7175 -0.0369 -1.0636
 6193TIP3    H240139   5.395   0.779   7.307  2.1502  1.1865 -0.4092
 6194TIP3   OH240140   6.316   2.223   0.333  0.3376 -0.1532 -0.3349
 6194TIP3    H140141   6.241   2.180   0.292 -2.7450  2.5706  1.9291
 6194TIP3    H240142   6.330   2.175   0.414  0.7438 -0.3306 -0.5039
 6195TIP3   OH240143   3.169   1.208   2.261 -0.2139  0.4025 -0.0811
 6195TIP3    H140144   3.124   1.158   2.329  0.0138  0.9166  0.4546
 6195TIP3    H240145   3.173   1.297   2.296 -0.2921  0.7189 -0.8691
 6196TIP3   OH240146   6.546   3.354   6.670 -0.2497 -0.1171  1.0394
 6196TIP3    H140147   6.638   3.328   6.660  0.4820  2.8875 -2.4257
 6196TIP3    H240148   6.497   3.287   6.621  0.4119 -0.3156  0.6349
 6197TIP3   OH240149   1.887   4.808   7.075 -0.0296  0.3133  0.2455
 6197TIP3    H140150   1.900   4.713   7.076 -1.8102 -0.0821  3.8722
 6197TIP3    H240151   1.957   4.843   7.130 -0.7175  0.7992  0.8299
 6198TIP3   OH240152   5.868   6.765   0.639  0.5048 -0.5497 -0.4115
 6198TIP3    H140153   5.857   6.702   0.710 -0.4857  0.3152  0.2353
 6198TIP3    H240154   5.905   6.843   0.681  1.2601 -0.5234 -1.1130
 6199TIP3   OH240155   2.593   2.416   7.750 -0.0003 -0.2056  0.6672
 6199TIP3    H140156   2.633   2.458   7.673 -0.7447 -1.1657 -0.2711
 6199TIP3    H240157   2.570   2.328   7.720 -2.2198  0.0948  1.3604
 6200TIP3   OH240158   5.191   5.380   7.265 -0.0107 -0.3517 -0.7149
 6200TIP3    H140159   5.252   5.443   7.304  0.0104 -1.2723  0.7984
 6200TIP3    H240160   5.226   5.364   7.178  2.2831 -1.2862  0.3046
 6201TIP3   OH240161   3.108   2.441   0.253  0.4368 -0.1433  0.0842
 6201TIP3    H140162   3.057   2.522   0.254 -0.0908 -0.4709  0.1507
 6201TIP3    H240163   3.183   2.459   0.310 -0.5140 -0.2303  1.4008
 6202TIP3   OH240164   0.016   4.914   2.458 -0.1166 -0.1942  0.1686
 6202TIP3    H140165   0.042   4.827   2.428  1.2385  0.8420 -1.9385
 6202TIP3    H240166   0.090   4.971   2.435 -0.9249  1.5177  1.5271
 6203TIP3   OH240167   4.847   4.782   1.589  0.5990  0.5400 -0.0151
 6203TIP3    H140168   4.772   4.782   1.529  0.4192  2.4269  0.1564
 6203TIP3    H240169   4.814   4.741   1.669 -1.1266  3.6490  1.0111
 6204TIP3   OH240170   6.557   4.413   2.630  0.2113  0.4047 -0.1944
 6204TIP3    H140171   6.652   4.422   2.626  0.4125 -1.4397 -0.7402
 6204TIP3    H240172   6.543   4.337   2.687 -1.0652  2.0078  1.7394
 6205TIP3   OH240173   6.831   4.706   7.605 -0.5002 -0.1599 -0.2588
 6205TIP3    H140174   6.895   4.655   7.555 -0.7185 -0.6110 -0.0808
 6205TIP3    H240175   6.809   4.650   7.680  0.2796  0.7495  0.6797
 6206TIP3   OH240176   3.159   1.339   7.239 -0.2032  0.5081  0.6093
 6206TIP3    H140177   3.240   1.311   7.197 -1.4282 -0.4681 -1.2189
 6206TIP3    H240178   3.135   1.420   7.195 -0.9119  0.0730  0.1758
 6207TIP3   OH240179   0.287   3.932   7.746  0.2350  0.3105  0.0271
 6207TIP3    H140180   0.373   3.915   7.708  0.3363  0.7712  0.0453
 6207TIP3    H240181   0.245   3.991   7.683  0.3047  0.8693  0.5053
 6208TIP3   OH240182   1.951   3.504   1.749 -0.3647 -0.3814  0.1524
 6208TIP3    H140183   1.935   3.443   1.677  0.4335  0.8376 -1.1004
 6208TIP3    H240184   1.903   3.466   1.823 -0.5617 -2.0777 -0.7900
 6209TIP3   OH240185   2.202   4.791   6.971  0.3429 -0.0415 -0.0113
 6209TIP3    H140186   2.247   4.799   6.887  1.0425 -1.6486  0.1689
 6209TIP3    H240187   2.140   4.720   6.959 -0.8721  0.9294  0.3095
 6210TIP3   OH240188   4.927   7.099   6.552  0.4540  0.1916 -0.1489
 6210TIP3    H140189   4.959   7.177   6.507  1.7585 -0.6062 -0.6607
 6210TIP3    H240190   4.934   7.029   6.487  0.7403 -0.6380  0.7440
 6211TIP3   OH240191   3.748   6.880   7.065  0.0097 -0.3626  0.0476
 6211TIP3    H140192   3.669   6.847   7.107 -0.9724  1.7436 -0.0013
 6211TIP3    H240193   3.794   6.801   7.035 -1.9084 -1.6648  0.3330
 6212TIP3   OH240194   0.324   1.879   0.783  0.1757 -0.1503  0.4559
 6212TIP3    H140195   0.272   1.936   0.840  0.3513  0.2989  0.1714
 6212TIP3    H240196   0.351   1.936   0.710  0.2562 -0.6260  0.1112
 6213TIP3   OH240197   1.849   0.134   0.432 -0.1017  0.3407 -0.6787
 6213TIP3    H140198   1.931   0.090   0.452 -0.7453 -0.3427  0.5059
 6213TIP3    H240199   1.781   0.070   0.452 -0.9963  1.4062 -0.1990
 6214TIP3   OH240200   1.500   6.478   7.333  0.3791 -0.0290 -0.6822
 6214TIP3    H140201   1.410   6.454   7.357  0.8254  0.3819  1.6374
 6214TIP3    H240202   1.496   6.494   7.239 -1.8528 -0.5526 -0.7360
 6215TIP3   OH240203   2.567   6.165   6.736 -0.0875  0.1630 -0.1790
 6215TIP3    H140204   2.624   6.089   6.727  0.0686  0.1248  0.9415
 6215TIP3    H240205   2.622   6.239   6.712  0.2593  0.0666  0.2916
 6216TIP3   OH240206   0.865   4.551   1.550 -0.1156 -0.1304 -0.1058
 6216TIP3    H140207   0.822   4.588   1.473  0.3178  2.9184  0.9988
 6216TIP3    H240208   0.794   4.512   1.601 -1.0573  1.4372 -0.1558
 6217TIP3   OH240209   6.019   6.877   6.631 -0.8935 -0.5136 -0.4119
 6217TIP3    H140210   5.931   6.898   6.598 -0.8860 -1.1481 -0.8438
 6217TIP3    H240211   6.062   6.831   6.559 -0.5496 -1.0774  0.1429
 6218TIP3   OH240212   3.882   0.679   0.676 -0.4492  0.3549 -0.2752
 6218TIP3    H140213   3.872   0.680   0.771  0.6928  0.3221 -0.1483
 6218TIP3    H240214   3.855   0.766   0.648 -0.7903  0.3645  0.0748
 6219TIP3   OH240215   6.673   5.607   3.195 -0.2160 -0.1357  0.2809
 6219TIP3    H140216   6.706   5.518   3.183 -1.6751 -0.7181  0.3478
 6219TIP3    H240217   6.742   5.664   3.161  0.0106 -1.3547 -1.4042
 6220TIP3   OH240218   2.521   0.030   7.813  0.1147  0.1218  0.1059
 6220TIP3    H140219   2.485   0.036   7.902 -0.4771 -0.5866 -0.0851
 6220TIP3    H240220   2.589   0.098   7.811  0.2601  0.0251  1.1563
 6221TIP3   OH240221   5.725   5.660   2.289  0.3322 -0.1190  0.2738
 6221TIP3    H140222   5.656   5.607   2.249  0.0948 -0.2285  0.8223
 6221TIP3    H240223   5.797   5.599   2.302  0.1825 -0.2343  0.5845
 6222TIP3   OH240224   5.215   5.853   1.472 -0.0918 -0.6453 -0.2969
 6222TIP3    H140225   5.242   5.762   1.453 -0.1182 -0.7589  0.2073
 6222TIP3    H240226   5.159   5.846   1.549 -0.1458 -0.2027 -0.2944
 6223TIP3   OH240227   5.948   4.103   1.095 -0.1743  0.8253  0.8521
 6223TIP3    H140228   6.030   4.129   1.138 -0.0099  0.6786  0.6321
 6223TIP3    H240229   5.976   4.068   1.011 -0.3971 -0.1443  1.1770
 6224TIP3   OH240230   4.020   0.064   2.227 -0.6697  0.2334  0.9270
 6224TIP3    H140231   4.031  -0.022   2.188 -1.9532 -0.1997  1.4500
 6224TIP3    H240232   4.104   0.108   2.214 -0.6396 -0.3440 -1.1538
 6225TIP3   OH240233   4.175   4.400   7.892  0.1971 -0.2250 -0.0014
 6225TIP3    H140234   4.237   4.416   7.962 -0.6515  1.0485  0.4846
 6225TIP3    H240235   4.181   4.477   7.835 -2.1834  0.8408  1.0369
 6226TIP3   OH240236   1.098   0.892   7.549 -0.6089 -0.3315 -0.7205
 6226TIP3    H140237   1.052   0.814   7.518  0.8476 -1.1471 -0.9333
 6226TIP3    H240238   1.189   0.863   7.560 -0.4538  0.7591  1.3395
 6227TIP3   OH240239   4.695   2.276   2.774  0.3691  0.4476  0.6427
 6227TIP3    H140240   4.702   2.339   2.846 -2.0579  1.6208 -0.0538
 6227TIP3    H240241   4.778   2.283   2.728  0.6107  2.2788  1.2826
 6228TIP3   OH240242   4.859   5.957   7.101 -0.2661  0.5057  0.5588
 6228TIP3    H140243   4.868   5.864   7.122  1.8025  0.7361  0.8560
 6228TIP3    H240244   4.862   5.960   7.006  0.0277  0.3025  0.5608
 6229TIP3   OH240245   5.754   6.938   6.586  0.6397 -0.1924  0.0918
 6229TIP3    H140246   5.771   6.921   6.494  0.8706  0.6827 -0.0348
 6229TIP3    H240247   5.659   6.952   6.591  0.7305  0.5408 -0.1504
 6230TIP3   OH240248   5.785   0.244   7.680  0.0421  0.1816  0.0280
 6230TIP3    H140249   5.840   0.183   7.632 -0.0159 -0.6525  0.9833
 6230TIP3    H240250   5.708   0.257   7.624  0.9126  0.8955 -1.0413
 6231TIP3   OH240251   1.248   1.788   0.532 -0.1233  0.2310 -0.2089
 6231TIP3    H140252   1.326   1.830   0.570  0.0433 -0.2121 -0.0632
 6231TIP3    H240253   1.218   1.851   0.466  0.4263  0.3562 -0.3451
 6232TIP3   OH240254   1.120   1.919   1.398  0.1240  0.2343 -0.0270
 6232TIP3    H140255   1.064   1.843   1.416 -0.0142  0.5097  0.7415
 6232TIP3    H240256   1.073   1.993   1.437  1.7031  0.2568  1.9522
 6233TIP3   OH240257   3.361   4.078   0.406 -0.6949  0.0744 -0.3336
 6233TIP3    H140258   3.449   4.096   0.373 -0.5453 -1.4806 -0.8683
 6233TIP3    H240259   3.313   4.046   0.330 -1.9856  1.6121 -0.2329
 6234TIP3   OH240260   2.026   4.280   0.841  0.2120  0.0506 -0.1198
 6234TIP3    H140261   1.991   4.194   0.865 -1.0068  0.0641 -1.6949
 6234TIP3    H240262   2.097   4.261   0.780 -0.7274  0.1637 -1.2732
 6235TIP3   OH240263   5.911   6.479   5.578  0.4669 -0.3175 -0.3140
 6235TIP3    H140264   5.870   6.439   5.655  0.7606  2.2671  1.3104
 6235TIP3    H240265   5.847   6.541   5.546  0.5497 -1.0154 -1.9280
 6236TIP3   OH240266   3.610   4.588   1.313  0.1512 -0.2983  0.0088
 6236TIP3    H140267   3.548   4.538   1.260 -0.8201 -0.3366  1.1142
 6236TIP3    H240268   3.569   4.591   1.400  1.4394  0.1822  0.6239
 6237TIP3   OH240269   2.512   0.199   0.261  0.4690 -0.0969  0.4447
 6237TIP3    H140270   2.444   0.237   0.316  0.1939 -0.0712  0.0910
 6237TIP3    H240271   2.575   0.162   0.322  0.2010 -0.0066  0.7753
 6238TIP3   OH240272   5.007   1.572   0.193 -0.2936  0.0201  0.3635
 6238TIP3    H140273   4.959   1.528   0.124  0.5619  0.9408 -0.8581
 6238TIP3    H240274   4.946   1.574   0.267 -1.0277 -1.4734 -0.1508
 6239TIP3   OH240275   5.816   1.052   7.078 -0.5910 -0.0892  0.1093
 6239TIP3    H140276   5.772   1.026   7.160  0.4732 -2.1382  0.0859
 6239TIP3    H240277   5.777   1.137   7.057 -2.6240 -0.5859  1.4818
 6240TIP3   OH240278   6.579   5.130   1.377 -0.1462  0.3027  0.1046
 6240TIP3    H140279   6.534   5.170   1.452  0.9409 -1.0877  1.5656
 6240TIP3    H240280   6.662   5.099   1.413 -0.3333 -1.9715 -1.2559
 6241TIP3   OH240281   4.379   1.456   7.031 -0.3370 -0.5286  0.4477
 6241TIP3    H140282   4.443   1.387   7.050  0.1337  0.1848  1.6092
 6241TIP3    H240283   4.377   1.462   6.936 -0.6004 -2.3193  0.3127
 6242TIP3   OH240284   3.311   5.047   7.907  0.0478  0.1838  0.9242
 6242TIP3    H140285   3.367   4.970   7.899  1.6250  1.3372  0.1335
 6242TIP3    H240286   3.289   5.051   7.999 -1.4337 -2.0789  0.7508
 6243TIP3   OH240287   2.095   1.717   1.505  0.8255 -0.2997 -0.5928
 6243TIP3    H140288   2.175   1.672   1.530  0.0497 -1.1971  0.4259
 6243TIP3    H240289   2.041   1.649   1.463  1.5274  0.8565 -3.5853
 6244TIP3   OH240290   7.096   1.097   7.946 -0.2925 -0.4141 -0.1769
 6244TIP3    H140291   7.004   1.116   7.926 -0.9871 -1.6998  1.5224
 6244TIP3    H240292   7.103   1.002   7.936  1.0255 -0.2635 -0.8452
 6245TIP3   OH240293   5.677   7.129   2.122  0.5500 -0.0396  0.1663
 6245TIP3    H140294   5.596   7.124   2.072 -1.0856  1.3564  2.4639
 6245TIP3    H240295   5.705   7.038   2.132 -0.3702 -0.4914 -1.2064
 6246TIP3   OH240296   0.231   2.099   7.910  0.5977  0.1289 -0.2039
 6246TIP3    H140297   0.172   2.162   7.868 -1.2370 -1.0985  0.3865
 6246TIP3    H240298   0.272   2.147   7.982 -0.4003  0.7803 -0.0551
 6247TIP3   OH240299   0.039   0.780   6.574  0.6847  0.9465 -0.0851
 6247TIP3    H140300   0.133   0.794   6.577  0.6958  0.9114 -0.2420
 6247TIP3    H240301   0.008   0.837   6.504  0.6436  0.6689 -0.2975
 6248TIP3   OH240302   0.031   5.836   6.776  0.5491  0.2355  0.1495
 6248TIP3    H140303   0.109   5.820   6.723  1.0034 -0.4643  1.0127
 6248TIP3    H240304  -0.033   5.773   6.744  0.8598 -0.2630  0.4885
 6249TIP3   OH240305   5.861   5.691   1.541  0.2086  0.0320  0.6916
 6249TIP3    H140306   5.856   5.772   1.591  0.1231  0.3452  0.1763
 6249TIP3    H240307   5.939   5.700   1.487  1.0165 -0.8298  1.6625
 6250TIP3   OH240308   0.614   4.472   2.554  0.1842  0.7673 -0.2973
 6250TIP3    H140309   0.629   4.554   2.601 -1.6690  0.4965  0.8521
 6250TIP3    H240310   0.701   4.433   2.547  0.9607  2.3303  0.0393
 6251TIP3   OH240311   4.056   3.167   6.954 -0.0653  0.4978  0.6282
 6251TIP3    H140312   4.070   3.079   6.988  0.5631  0.4241  0.1879
 6251TIP3    H240313   4.030   3.154   6.863  1.5507  0.8068  0.0905
 6252TIP3   OH240314   2.380   6.098   1.035 -0.6090  0.0511  0.5167
 6252TIP3    H140315   2.356   6.190   1.024 -0.5488  0.1210  0.9468
 6252TIP3    H240316   2.370   6.081   1.129  3.9765  0.9519  1.3916
 6253TIP3   OH240317   5.585   2.830   6.527 -0.8580 -0.0449  0.3357
 6253TIP3    H140318   5.502   2.843   6.572  0.3969  2.2025  2.1962
 6253TIP3    H240319   5.650   2.874   6.582  1.2214  0.4766 -2.3090
 6254TIP3   OH240320   1.140   3.531   6.303 -0.3668  0.5384 -0.1238
 6254TIP3    H140321   1.189   3.574   6.232  0.8474 -0.8627 -0.1898
 6254TIP3    H240322   1.127   3.599   6.368 -0.7588  1.6455 -1.3192
 6255TIP3   OH240323   3.801   0.943   2.225  0.1624 -0.1042 -0.3292
 6255TIP3    H140324   3.807   0.851   2.200  0.3358  0.5491 -3.0662
 6255TIP3    H240325   3.890   0.977   2.211  0.2847  0.3666  1.3620
 6256TIP3   OH240326   3.538   3.337   2.115  0.1837 -0.3083 -0.3329
 6256TIP3    H140327   3.551   3.428   2.088 -0.8240  0.4185  1.4319
 6256TIP3    H240328   3.566   3.285   2.040  0.3691  1.4669 -1.5537
 6257TIP3   OH240329   3.683   5.220   6.797 -0.2225  0.2711  0.4758
 6257TIP3    H140330   3.685   5.210   6.892  1.7305 -3.2746  0.2146
 6257TIP3    H240331   3.760   5.272   6.777  0.1818 -0.2045  0.7695
 6258TIP3   OH240332   3.538   0.067   7.447 -0.2406  0.1973 -0.3151
 6258TIP3    H140333   3.513   0.138   7.506  2.8063 -0.3281  1.8620
 6258TIP3    H240334   3.597   0.108   7.384  0.1768 -0.0484 -0.0936
 6259TIP3   OH240335   0.280   0.642   7.184 -0.0312 -0.3344 -0.0556
 6259TIP3    H140336   0.332   0.634   7.264  0.6956 -1.1715 -0.5904
 6259TIP3    H240337   0.271   0.552   7.152 -2.0993 -0.2577  0.1826
 6260TIP3   OH240338   2.244   0.807   0.959 -0.2073 -0.2554  0.3306
 6260TIP3    H140339   2.315   0.753   0.926  0.4882  1.5033 -1.1544
 6260TIP3    H240340   2.252   0.890   0.913 -2.4636  0.4469  1.0547
 6261TIP3   OH240341   4.034   4.473   7.220 -0.2540 -0.4764  0.2877
 6261TIP3    H140342   3.951   4.426   7.233 -0.8019  0.9623  2.6659
 6261TIP3    H240343   4.008   4.564   7.206  0.9077 -0.0371  0.8407
 6262TIP3   OH240344   0.197   0.668   7.928 -0.1007 -0.4152 -0.6659
 6262TIP3    H140345   0.200   0.572   7.922  1.1332 -0.4281 -0.1617
 6262TIP3    H240346   0.288   0.695   7.921 -0.0500  0.4992  2.0684
 6263TIP3   OH240347   4.608   5.098   1.542  0.4725 -0.1900  0.0071
 6263TIP3    H140348   4.531   5.142   1.580  1.2333  0.5779  0.6998
 6263TIP3    H240349   4.577   5.010   1.522 -1.6199  1.0321 -2.9858
 6264TIP3   OH240350   0.031   0.511   0.649  0.0071 -0.2329 -0.7973
 6264TIP3    H140351   0.052   0.450   0.579 -0.9632  1.1365 -2.3508
 6264TIP3    H240352   0.020   0.456   0.727  2.8268 -1.6377 -1.2587
 6265TIP3   OH240353   0.434   3.761   7.408 -0.7227 -0.0019  0.8564
 6265TIP3    H140354   0.421   3.747   7.502  1.1178 -1.2657  0.9574
 6265TIP3    H240355   0.462   3.853   7.401 -2.5992  0.6577  1.3069
 6266TIP3   OH240356   0.900   4.424   2.528 -0.6583  0.5370 -0.0614
 6266TIP3    H140357   0.913   4.381   2.612 -0.1775 -1.9689 -1.3257
 6266TIP3    H240358   0.981   4.409   2.480 -0.3720  3.1195 -0.5531
 6267TIP3   OH240359   1.990   0.282   7.602  0.5207  0.0004  0.0594
 6267TIP3    H140360   2.020   0.305   7.513 -1.0190 -1.0984 -0.7740
 6267TIP3    H240361   1.913   0.336   7.616  1.3029  0.8853  1.1593
 6268TIP3   OH240362   1.379   5.241   7.713 -0.4439  0.1587 -0.3167
 6268TIP3    H140363   1.297   5.287   7.733 -0.5289  0.4584 -1.3103
 6268TIP3    H240364   1.448   5.303   7.737 -0.5564  0.7843 -1.5192
 6269TIP3   OH240365   6.792   2.823   0.971  0.4539  0.1462 -0.0909
 6269TIP3    H140366   6.752   2.910   0.969  0.1556  0.0114 -0.0742
 6269TIP3    H240367   6.752   2.780   1.047  1.8166  0.5652  0.8937
 6270TIP3   OH240368   3.495   2.685   7.654  0.0942 -0.0667 -0.0177
 6270TIP3    H140369   3.451   2.750   7.708 -1.8557 -0.5193 -0.9423
 6270TIP3    H240370   3.588   2.702   7.666 -0.3390  2.2607  0.4936
 6271TIP3   OH240371   4.899   4.452   6.707  0.1884 -0.2766 -0.1543
 6271TIP3    H140372   4.829   4.399   6.746  0.3614  0.5944  1.4102
 6271TIP3    H240373   4.870   4.466   6.616 -0.9951 -1.0713  0.0761
 6272TIP3   OH240374   1.994   2.128   1.887 -0.4057  0.3148  0.0017
 6272TIP3    H140375   2.015   2.194   1.953 -0.7572 -0.3207  0.7600
 6272TIP3    H240376   1.938   2.065   1.932 -0.4145 -0.2923 -0.8237
 6273TIP3   OH240377   6.186   4.134   1.239  0.2149 -0.2281 -0.7437
 6273TIP3    H140378   6.200   4.094   1.325  1.3596  0.2504 -0.6883
 6273TIP3    H240379   6.269   4.177   1.219 -0.5895  1.0848 -1.3442
 6274TIP3   OH240380   6.490   0.470   1.194 -0.0198 -0.2881 -0.0849
 6274TIP3    H140381   6.469   0.378   1.209  0.3320 -0.4093 -0.3392
 6274TIP3    H240382   6.570   0.486   1.245  1.6858 -0.9238 -2.4034
 6275TIP3   OH240383   1.653   4.489   1.498 -0.4772  0.0007 -0.4655
 6275TIP3    H140384   1.725   4.484   1.561  0.1378 -2.1163 -1.2562
 6275TIP3    H240385   1.575   4.471   1.549  0.0368 -1.8894 -0.2717
 6276TIP3   OH240386   2.700   1.612   0.922  0.3143 -0.2598 -0.4955
 6276TIP3    H140387   2.651   1.669   0.981  0.4326  0.0282 -0.6740
 6276TIP3    H240388   2.684   1.524   0.955  2.3588  0.0321  1.4714
 6277TIP3   OH240389   2.732   2.046   6.937  0.3856 -0.3917  0.6055
 6277TIP3    H140390   2.674   1.996   6.879  1.1478 -0.1438 -0.3816
 6277TIP3    H240391   2.805   1.987   6.955  2.1831  0.8792 -1.9781
 6278TIP3   OH240392   4.082   6.671   0.203 -0.1880 -0.2785  0.7012
 6278TIP3    H140393   4.003   6.620   0.183 -0.2854  0.4216 -0.7724
 6278TIP3    H240394   4.128   6.677   0.120  0.5772  0.7610  1.1875
 6279TIP3   OH240395   0.121   0.275   1.853 -0.4038 -0.3940 -0.2163
 6279TIP3    H140396   0.054   0.343   1.844  0.1286  0.2174  0.3544
 6279TIP3    H240397   0.194   0.307   1.800  0.0090 -0.3099  0.3969
 6280TIP3   OH240398   3.167   2.332   7.457  0.6910 -0.0185 -0.9820
 6280TIP3    H140399   3.253   2.373   7.446  1.1375 -0.2649  1.1441
 6280TIP3    H240400   3.159   2.319   7.552 -1.0918 -1.3048 -1.2669
 6281TIP3   OH240401   5.586   2.051   0.826  0.6239 -0.1963  0.1314
 6281TIP3    H140402   5.615   2.037   0.916  0.6307 -1.4045 -0.0513
 6281TIP3    H240403   5.491   2.036   0.830  0.4041  1.0539  0.1808
 6282TIP3   OH240404   3.786   2.715   0.979  0.1255 -0.0178 -0.0098
 6282TIP3    H140405   3.866   2.663   0.984  0.3994  0.2522 -1.2474
 6282TIP3    H240406   3.786   2.750   0.890 -1.5548 -0.2875 -0.1360
 6283TIP3   OH240407   1.378   4.415   7.226  0.5044 -0.4423 -0.0649
 6283TIP3    H140408   1.451   4.360   7.199 -0.6009 -2.0984  0.1960
 6283TIP3    H240409   1.305   4.387   7.171 -0.3917 -0.0734  0.9091
 6284TIP3   OH240410   2.589   3.363   7.084  0.5825  0.1770  0.2967
 6284TIP3    H140411   2.580   3.268   7.083  3.7653 -0.2845  1.8251
 6284TIP3    H240412   2.604   3.387   6.992 -1.2468 -0.6009 -0.2417
 6285TIP3   OH240413   0.788   0.702   1.214 -0.3528  0.5275 -0.1024
 6285TIP3    H140414   0.787   0.797   1.228 -1.8240  0.4656  0.3352
 6285TIP3    H240415   0.708   0.684   1.166 -1.8197 -0.8609  2.6187
 6286TIP3   OH240416   6.083   3.465   0.876  0.0523 -0.5045  0.4433
 6286TIP3    H140417   6.048   3.548   0.908 -0.1308 -0.0258 -0.9133
 6286TIP3    H240418   6.006   3.409   0.863 -0.3837  0.6251 -2.7588
 6287TIP3   OH240419   2.593   5.572   0.407  0.2651  0.1646 -0.4068
 6287TIP3    H140420   2.633   5.490   0.437  3.1758  0.9429 -1.7472
 6287TIP3    H240421   2.548   5.548   0.326  1.6072 -0.0940 -1.1179
 6288TIP3   OH240422   0.220   4.358   6.921 -0.1522  0.2294 -0.2886
 6288TIP3    H140423   0.242   4.364   6.828 -0.3324  0.3192 -0.3268
 6288TIP3    H240424   0.128   4.333   6.922 -0.3536  0.9413 -0.1404
 6289TIP3   OH240425   4.772   3.726   0.458 -0.6908 -0.3089  0.4769
 6289TIP3    H140426   4.866   3.742   0.450 -0.4087 -2.4773 -1.3835
 6289TIP3    H240427   4.734   3.764   0.378 -1.1302 -1.1716  0.2663
 6290TIP3   OH240428   2.970   0.088   0.326  0.0533 -0.6346 -0.0368
 6290TIP3    H140429   3.064   0.076   0.315  0.2212  0.5125 -0.0237
 6290TIP3    H240430   2.959   0.105   0.420 -0.1721 -0.8399 -0.0257
 6291TIP3   OH240431   3.585   2.030   0.335 -0.3361 -0.3509  0.2008
 6291TIP3    H140432   3.550   2.111   0.297 -0.7243 -0.0426  1.1851
 6291TIP3    H240433   3.508   1.984   0.368 -0.0968 -1.0451 -0.1977
 6292TIP3   OH240434   2.940   6.121   1.382 -0.3544 -0.2201  0.0226
 6292TIP3    H140435   2.871   6.076   1.431  1.6166 -1.1332  2.1448
 6292TIP3    H240436   3.014   6.060   1.383  1.3796  1.7673  0.2067
 6293TIP3   OH240437   6.563   5.387   7.797 -0.0450  0.3305  0.1574
 6293TIP3    H140438   6.553   5.461   7.857 -0.4400  0.3186  0.1087
 6293TIP3    H240439   6.616   5.323   7.845  1.5846  1.2497 -0.3428
 6294TIP3   OH240440   5.507   0.640   7.327  0.3139 -0.4712 -0.2406
 6294TIP3    H140441   5.563   0.716   7.341 -1.3594  1.0365 -1.2591
 6294TIP3    H240442   5.482   0.611   7.415  0.9246  0.1874  0.1549
 6295TIP3   OH240443   4.545   3.574   0.459  0.0280 -0.0733  0.2776
 6295TIP3    H140444   4.631   3.609   0.480 -0.5811  2.2853 -0.7664
 6295TIP3    H240445   4.511   3.541   0.543  0.8066  1.6746  1.3307
 6296TIP3   OH240446   0.704   5.824   6.766  0.0837  0.6576  0.1575
 6296TIP3    H140447   0.726   5.870   6.685 -0.1474  1.4079  0.5206
 6296TIP3    H240448   0.634   5.763   6.741  0.9095 -0.0564 -0.4852
 6297TIP3   OH240449   2.112   3.441   6.295 -0.1125 -0.0556 -0.0161
 6297TIP3    H140450   2.166   3.363   6.308 -0.9866 -0.6696  0.0437
 6297TIP3    H240451   2.022   3.410   6.306 -0.5047  0.8629 -0.4917
 6298TIP3   OH240452   0.351   2.913   0.281  0.3368 -0.1114  0.1691
 6298TIP3    H140453   0.388   2.998   0.305 -0.1003  0.5876 -1.5001
 6298TIP3    H240454   0.299   2.931   0.203 -0.1334 -1.8451  0.0472
 6299TIP3   OH240455   2.869   5.723   1.753  0.6485  0.6047  0.1558
 6299TIP3    H140456   2.833   5.787   1.814  2.0017  0.3088  1.3349
 6299TIP3    H240457   2.939   5.770   1.707  0.4655  0.4758 -0.2550
 6300TIP3   OH240458   1.309   3.400   7.193  0.3593 -0.5626 -0.1947
 6300TIP3    H140459   1.368   3.395   7.268 -0.9287 -2.7463  0.7628
 6300TIP3    H240460   1.337   3.330   7.134  0.3959  0.1375 -1.0388
 6301TIP3   OH240461   5.808   6.869   6.295  0.3956 -0.1086  0.1747
 6301TIP3    H140462   5.831   6.945   6.242  1.0081 -0.6959 -0.4158
 6301TIP3    H240463   5.743   6.822   6.242  0.4933 -0.3340  0.2559
 6302TIP3   OH240464   2.666   3.273   1.343  0.3681  0.8816  0.1146
 6302TIP3    H140465   2.736   3.210   1.356  0.4608  0.5665 -1.6779
 6302TIP3    H240466   2.645   3.268   1.250 -2.2918  0.7225  0.6287
 6303TIP3   OH240467   5.144   2.630   1.086  0.8805  0.3655  0.2020
 6303TIP3    H140468   5.219   2.649   1.029  1.0283 -0.2209  0.1939
 6303TIP3    H240469   5.068   2.650   1.032  0.9779 -1.7344 -0.8198
 6304TIP3   OH240470   4.502   4.803   1.142 -0.5780  0.5165  0.2819
 6304TIP3    H140471   4.530   4.721   1.100 -1.7114  0.0478  0.4116
 6304TIP3    H240472   4.578   4.861   1.133  0.6548 -0.8797  1.1243
 6305TIP3   OH240473   2.464   4.453   7.129 -0.6749  0.2819  0.1872
 6305TIP3    H140474   2.374   4.430   7.106  0.0843 -1.1160 -1.6925
 6305TIP3    H240475   2.455   4.526   7.191 -3.0732  0.9274 -0.7870
 6306TIP3   OH240476   6.166   3.950   1.480 -0.2780  0.4868 -0.2463
 6306TIP3    H140477   6.113   3.924   1.556 -0.0692  0.9593  0.0720
 6306TIP3    H240478   6.243   3.994   1.519 -0.0287  0.4752 -0.7233
 6307TIP3   OH240479   3.898   4.293   0.564 -0.8882 -0.4656  0.1559
 6307TIP3    H140480   3.878   4.279   0.657 -1.3529 -1.2372 -0.0501
 6307TIP3    H240481   3.858   4.219   0.519  0.7025 -0.9665 -0.5051
 6308TIP3   OH240482   2.694   2.751   0.744  0.3838 -0.6272  0.4197
 6308TIP3    H140483   2.666   2.769   0.654  0.3792 -1.1684  0.3086
 6308TIP3    H240484   2.782   2.714   0.735  0.4539 -0.5168  0.6512
 6309TIP3   OH240485   3.055   3.724   0.843  0.2354 -0.8774  0.2082
 6309TIP3    H140486   3.099   3.809   0.840  1.8463 -1.6279  1.0270
 6309TIP3    H240487   2.963   3.744   0.829  0.6600  0.9198 -0.3336
 6310TIP3   OH240488   3.292   2.742   0.162  0.2521 -0.3588  0.3619
 6310TIP3    H140489   3.207   2.774   0.194  0.4098  0.7517 -0.2815
 6310TIP3    H240490   3.279   2.727   0.069  0.3254 -1.7707  0.5523
 6311TIP3   OH240491   2.146   6.926   1.224  0.2752  0.2443  0.1731
 6311TIP3    H140492   2.137   6.838   1.188 -1.4762  0.3835  0.1645
 6311TIP3    H240493   2.148   6.913   1.319 -1.9482  0.2537  0.2787
 6312TIP3   OH240494   2.585   2.158   1.177 -0.5096  0.0719  0.0721
 6312TIP3    H140495   2.607   2.217   1.249 -0.3400  0.8454 -0.6035
 6312TIP3    H240496   2.496   2.183   1.152 -1.0369 -1.0009  0.7831
 6313TIP3   OH240497   3.096   2.036   6.935 -0.3471 -0.3721  0.2340
 6313TIP3    H140498   3.162   1.985   6.888  0.6698  0.1745  1.0424
 6313TIP3    H240499   3.060   2.095   6.868  0.1080 -0.5510 -0.1741
 6314TIP3   OH240500   4.632   6.034   7.212  0.1472  0.7225 -0.0394
 6314TIP3    H140501   4.719   6.015   7.177  0.1004 -0.3472  0.3875
 6314TIP3    H240502   4.598   5.949   7.240 -0.2213  1.3967  1.7022
 6315TIP3   OH240503   4.993   7.111   0.006 -0.1070  0.0273 -0.6380
 6315TIP3    H140504   5.079   7.139   0.036 -1.2252  1.6597  1.3109
 6315TIP3    H240505   4.974   7.165  -0.070 -0.3497  1.4281  0.3733
 6316TIP3   OH240506   2.947   1.362   1.386 -0.0866  0.5040 -0.2023
 6316TIP3    H140507   3.028   1.405   1.412 -0.5215  1.3726 -0.2293
 6316TIP3    H240508   2.879   1.427   1.405 -0.8582 -0.5090  0.5802
 6317TIP3   OH240509   3.725   6.315   1.853 -0.3392  0.2694 -0.1850
 6317TIP3    H140510   3.796   6.270   1.808  2.1606  3.0806  0.6001
 6317TIP3    H240511   3.729   6.282   1.943 -1.1899 -0.7757 -0.5095
 6318TIP3   OH240512   4.375   6.842   7.647  0.0018 -0.4121  0.3430
 6318TIP3    H140513   4.378   6.916   7.586 -0.8047  0.1887  1.0160
 6318TIP3    H240514   4.365   6.765   7.591  0.4945  0.0169 -0.3469
 6319TIP3   OH240515   2.562   3.471   2.159  0.2354  0.0404 -0.2550
 6319TIP3    H140516   2.514   3.418   2.095  0.1100  1.4926 -1.4276
 6319TIP3    H240517   2.654   3.454   2.139  0.3036 -2.1742  1.5136
 6320TIP3   OH240518   3.429   6.752   0.904 -0.2979  0.4061 -0.4870
 6320TIP3    H140519   3.451   6.685   0.968  1.4972 -0.9192 -2.3832
 6320TIP3    H240520   3.336   6.771   0.920 -0.2201 -0.7122  1.6700
 6321TIP3   OH240521   3.343   3.844   1.022  0.0301  0.2024 -0.6328
 6321TIP3    H140522   3.258   3.826   1.062  0.8932 -0.3075  1.0836
 6321TIP3    H240523   3.388   3.759   1.023 -0.0237  0.0796 -3.0865
 6322TIP3   OH240524   4.911   1.936   6.927  0.1008 -0.4201  0.8688
 6322TIP3    H140525   4.856   1.935   7.006 -1.6725 -0.3139 -0.3216
 6322TIP3    H240526   4.908   1.846   6.895 -0.5207 -0.1171  0.0493
 6323TIP3   OH240527   4.649   5.394   0.994  0.6430  0.1142  1.3578
 6323TIP3    H140528   4.704   5.469   0.969 -2.5046  2.3147  0.3763
 6323TIP3    H240529   4.646   5.397   1.089  0.8491  1.0347  1.3474
 6324TIP3   OH240530   3.271   1.090   6.975  0.3048 -0.5693  0.1274
 6324TIP3    H140531   3.305   1.172   7.010 -2.5213  0.0729  1.6738
 6324TIP3    H240532   3.286   1.026   7.045  0.8039 -0.9416 -0.3125
 6325TIP3   OH240533   2.230   6.645   7.926  0.0778 -0.1024 -0.2799
 6325TIP3    H140534   2.285   6.592   7.868  1.6769  1.4445 -0.2705
 6325TIP3    H240535   2.292   6.693   7.981 -1.2463  1.9614 -0.4666
 6326TIP3   OH240536   4.630   3.393   2.134 -0.1198 -0.1148  0.2433
 6326TIP3    H140537   4.567   3.448   2.180  1.4283  0.3164  1.9586
 6326TIP3    H240538   4.629   3.426   2.044 -3.3420 -1.0751 -0.2036
 6327TIP3   OH240539   3.788   4.197   7.870 -0.1032  0.5088  0.1829
 6327TIP3    H140540   3.741   4.137   7.927  0.6307 -0.1890  0.0658
 6327TIP3    H240541   3.880   4.184   7.891  0.3118 -0.8769 -2.1807
 6328TIP3   OH240542   3.459   3.561   7.022  0.2669  0.0009 -0.0389
 6328TIP3    H140543   3.378   3.612   7.035  0.6162  1.2507 -2.2583
 6328TIP3    H240544   3.434   3.471   7.041 -1.4362  0.4818  0.1829
 6329TIP3   OH240545   4.881   4.723   6.685  0.3349 -0.3402  0.5795
 6329TIP3    H140546   4.789   4.749   6.694  0.3337 -0.2608  0.3536
 6329TIP3    H240547   4.882   4.630   6.705 -0.2521 -0.9714 -1.9812
 6330TIP3   OH240548   1.921   0.719   1.343  0.3806  0.1370  0.0335
 6330TIP3    H140549   1.983   0.675   1.284 -2.5661 -0.4232 -2.9553
 6330TIP3    H240550   1.874   0.648   1.385 -1.2166  0.4072 -1.2112
 6331TIP3   OH240551   5.802   5.869   0.849 -0.2054  0.1905  0.0760
 6331TIP3    H140552   5.879   5.916   0.818  0.0672  0.3886  1.0375
 6331TIP3    H240553   5.825   5.841   0.937 -0.7029 -0.9765 -0.1452
 6332TIP3   OH240554   4.475   1.361   0.644  0.3337 -0.0468  0.6150
 6332TIP3    H140555   4.555   1.312   0.626 -0.8207 -1.6557 -0.4183
 6332TIP3    H240556   4.434   1.315   0.718  0.0112  0.3221  0.6727
 6333TIP3   OH240557   5.137   3.096   7.390  0.1339 -0.0751 -0.4402
 6333TIP3    H140558   5.180   3.012   7.402  0.1490  0.0403  0.3565
 6333TIP3    H240559   5.048   3.082   7.422  0.8759  0.9260  2.3400
 6334TIP3   OH240560   6.605   6.408   1.952  0.0332  0.0097  0.3802
 6334TIP3    H140561   6.548   6.473   1.991  2.1107  1.5398  1.0343
 6334TIP3    H240562   6.594   6.419   1.858  1.1034  2.1166  0.4386
 6335TIP3   OH240563   3.187   3.760   7.012 -0.1896 -0.4957  0.3889
 6335TIP3    H140564   3.104   3.785   6.972  0.3537 -0.7853 -0.9725
 6335TIP3    H240565   3.183   3.796   7.100 -2.0794 -1.1750  0.6242
 6336TIP3   OH240566   5.559   5.993   7.068  0.1571  0.1150  0.4623
 6336TIP3    H140567   5.603   6.064   7.114 -0.7212 -0.3122  2.0425
 6336TIP3    H240568   5.506   5.950   7.135  0.6222 -2.0166 -0.4445
 6337TIP3   OH240569   5.593   1.520   7.533  0.1216  0.2185 -0.9219
 6337TIP3    H140570   5.605   1.574   7.611 -1.8527  0.2818 -0.6053
 6337TIP3    H240571   5.584   1.583   7.461 -0.8219  0.2718 -0.7626
 6338TIP3   OH240572   0.945   3.681   7.203 -0.3401  0.1424  0.1617
 6338TIP3    H140573   0.889   3.659   7.129  1.2342  1.6071 -1.5749
 6338TIP3    H240574   0.941   3.776   7.208 -2.7527  0.0286  3.9874
 6339TIP3   OH240575   4.366   1.363   1.092  0.2680 -0.4474 -0.8326
 6339TIP3    H140576   4.395   1.331   1.178 -0.8423 -0.6419 -0.5144
 6339TIP3    H240577   4.393   1.454   1.090 -1.3143  0.1087  0.5232
 6340TIP3   OH240578   6.165   1.424   0.289  0.0932 -0.1532  0.0289
 6340TIP3    H140579   6.239   1.485   0.280  0.3841 -0.5814 -0.5183
 6340TIP3    H240580   6.130   1.415   0.200  1.2717 -2.2913 -0.2768
 6341TIP3   OH240581   0.457   5.102   2.212 -0.2034 -0.1598 -0.1221
 6341TIP3    H140582   0.534   5.064   2.257  0.3413  1.8243  0.7210
 6341TIP3    H240583   0.387   5.038   2.228  1.1278 -1.8038 -0.5196
 6342TIP3   OH240584   6.317   4.717   0.360  0.5709 -0.1340 -0.5956
 6342TIP3    H140585   6.318   4.625   0.335  0.7127 -0.8785  1.8905
 6342TIP3    H240586   6.244   4.724   0.422  1.3744  1.1098  0.2575
 6343TIP3   OH240587   3.731   3.220   6.563  0.6605  0.3727  0.4630
 6343TIP3    H140588   3.769   3.271   6.634  2.5160 -0.3303  0.0271
 6343TIP3    H240589   3.777   3.136   6.567 -0.8191 -0.5077 -0.1549
 6344TIP3   OH240590   4.258   2.859   1.848 -0.1386 -0.3618  0.3281
 6344TIP3    H140591   4.258   2.767   1.875 -1.3388 -1.8130 -3.7971
 6344TIP3    H240592   4.326   2.864   1.780 -0.4934  1.6356  0.0579
 6345TIP3   OH240593   5.449   6.998   5.689  0.5958  0.3397 -0.5402
 6345TIP3    H140594   5.538   7.021   5.665  0.5644 -0.3411 -1.3556
 6345TIP3    H240595   5.406   7.082   5.707  0.8510  0.8412 -2.1100
 6346TIP3   OH240596   6.885   3.454   0.351 -0.1095  0.2384  0.1223
 6346TIP3    H140597   6.956   3.479   0.291  0.7671 -0.3856  0.8628
 6346TIP3    H240598   6.805   3.483   0.308  0.3832 -1.2740 -1.9175
 6347TIP3   OH240599   4.701   5.698   6.503  0.6997  0.4840  0.3328
 6347TIP3    H140600   4.742   5.782   6.481 -1.9809  1.8479  0.0142
 6347TIP3    H240601   4.681   5.659   6.418  2.1032 -0.6071  0.4822
 6348TIP3   OH240602   5.465   5.005   1.532 -0.0424  0.8620 -0.3464
 6348TIP3    H140603   5.534   4.956   1.488  0.0092  0.3601  0.2788
 6348TIP3    H240604   5.512   5.062   1.593 -0.2025 -0.3569  0.9692
 6349TIP3   OH240605   1.590   3.706   2.121  0.0093  0.7099 -0.3533
 6349TIP3    H140606   1.504   3.741   2.147 -0.4511 -0.0527 -0.8090
 6349TIP3    H240607   1.610   3.640   2.188 -1.1253 -1.1772 -1.7622
 6350TIP3   OH240608   4.624   4.293   2.160  0.5871  0.2899 -0.3037
 6350TIP3    H140609   4.545   4.273   2.109 -0.0709 -0.6184  1.0058
 6350TIP3    H240610   4.645   4.211   2.205  0.0417  1.4892  2.3197
 6351TIP3   OH240611   5.263   6.339   0.262 -0.0307  0.0165  0.2304
 6351TIP3    H140612   5.302   6.420   0.294  0.7622 -0.3220  0.1245
 6351TIP3    H240613   5.303   6.325   0.176  0.5116 -0.9583  0.6274
 6352TIP3   OH240614   6.698   7.114   1.704  0.0480  0.3840  0.1090
 6352TIP3    H140615   6.683   7.138   1.796 -0.0589 -0.1625  0.2417
 6352TIP3    H240616   6.678   7.020   1.701  1.7375 -0.0091 -0.0772
 6353TIP3   OH240617   5.822   1.284   1.026 -0.1038 -0.3568 -0.2438
 6353TIP3    H140618   5.825   1.321   1.114  0.2853  1.8963 -1.1425
 6353TIP3    H240619   5.743   1.229   1.027  0.3074 -1.0199  1.6937
 6354TIP3   OH240620   6.267   6.535   0.628  0.4630 -0.3689  0.0885
 6354TIP3    H140621   6.327   6.510   0.698  1.4857  2.7569  0.4883
 6354TIP3    H240622   6.308   6.501   0.548  1.7415  0.0134  0.5640
 6355TIP3   OH240623   3.758   1.236   2.100  0.6356  0.1000  0.5212
 6355TIP3    H140624   3.702   1.161   2.118 -0.0043  0.1003 -1.3306
 6355TIP3    H240625   3.724   1.305   2.158  0.2800 -0.5950  1.1546
 6356TIP3   OH240626   0.545   3.778   0.325 -0.0292  0.1648  0.0643
 6356TIP3    H140627   0.460   3.735   0.329  0.9273 -1.8185  0.4470
 6356TIP3    H240628   0.600   3.719   0.273  1.1342  1.3929 -0.1889
 6357TIP3   OH240629   1.227   2.889   1.406 -0.2979 -0.5505  0.3283
 6357TIP3    H140630   1.184   2.826   1.348 -0.0958 -0.4340  0.0524
 6357TIP3    H240631   1.306   2.915   1.359  0.4803 -1.3336  1.1479
 6358TIP3   OH240632   4.495   5.068   0.945  0.3496  0.1640 -0.4808
 6358TIP3    H140633   4.487   5.145   0.889  0.4854 -0.1213 -0.9038
 6358TIP3    H240634   4.412   5.022   0.933  0.0901  0.4649  0.1137
 6359TIP3   OH240635   1.708   4.547   0.344 -0.1569  0.0988 -0.1599
 6359TIP3    H140636   1.748   4.624   0.303  0.5209  0.9453  1.9337
 6359TIP3    H240637   1.622   4.541   0.303  0.3817  1.0054 -1.5134
 6360TIP3   OH240638   0.825   2.757   0.944 -0.0770 -0.0183 -0.4126
 6360TIP3    H140639   0.863   2.670   0.934  1.9860  0.7214  0.4366
 6360TIP3    H240640   0.900   2.815   0.952 -1.4122  1.7586 -0.1687
 6361TIP3   OH240641   6.513   3.031   7.580 -0.5793  0.8140 -0.4617
 6361TIP3    H140642   6.574   2.961   7.605 -1.5548  0.5847  1.5904
 6361TIP3    H240643   6.568   3.102   7.550  0.7602  0.6207  1.3265
 6362TIP3   OH240644   4.432   3.674   7.134  1.3434 -0.4343  0.1537
 6362TIP3    H140645   4.383   3.707   7.209 -0.0381 -1.1653 -0.3858
 6362TIP3    H240646   4.523   3.671   7.163  0.9840  0.3319  1.4170
 6363TIP3   OH240647   4.085   7.026   1.489 -0.0711  0.2972  0.0098
 6363TIP3    H140648   4.107   7.084   1.416 -2.1527  1.6124  0.3587
 6363TIP3    H240649   4.144   7.053   1.560 -0.3982  1.3937 -0.1192
 6364TIP3   OH240650   3.371   5.742   7.696 -0.0879  0.2947 -0.3981
 6364TIP3    H140651   3.371   5.753   7.601  1.0251 -0.4849 -0.4943
 6364TIP3    H240652   3.302   5.678   7.713  0.9095 -0.9179 -0.8528
 6365TIP3   OH240653   4.507   1.607   0.777  0.1484  0.1073  0.5241
 6365TIP3    H140654   4.495   1.529   0.723 -0.8827  0.0075  0.8721
 6365TIP3    H240655   4.422   1.650   0.775  0.3315  0.5275  1.4177
 6366TIP3   OH240656   1.572   1.821   1.987  0.0751 -0.0576 -0.1736
 6366TIP3    H140657   1.662   1.854   1.993  0.6467 -1.7870  2.0558
 6366TIP3    H240658   1.526   1.862   2.061 -0.3288 -0.9183  0.0708
 6367TIP3   OH240659   4.476   3.154   1.634 -0.0558 -0.0169  0.2086
 6367TIP3    H140660   4.397   3.204   1.652 -0.5732  0.7244 -3.3890
 6367TIP3    H240661   4.451   3.062   1.646 -0.8527  0.2926  0.9727
 6368TIP3   OH240662   0.760   0.601   7.540 -0.2180  0.6393  0.1203
 6368TIP3    H140663   0.780   0.691   7.566  1.7471  0.3266 -0.1304
 6368TIP3    H240664   0.846   0.560   7.529 -1.0692 -1.3989  0.6412
 6369TIP3   OH240665   2.037   4.239   7.428 -0.6154 -0.4568 -0.2419
 6369TIP3    H140666   2.006   4.240   7.337 -1.4313  0.4247  0.0309
 6369TIP3    H240667   2.059   4.148   7.445  2.8227 -0.1880 -2.3807
 6370TIP3   OH240668   4.683   3.693   7.279  0.3453 -0.8720  0.3159
 6370TIP3    H140669   4.778   3.700   7.286  0.3052  0.6679 -0.3150
 6370TIP3    H240670   4.650   3.761   7.337 -0.2982  0.1125 -1.1406
 6371TIP3   OH240671   0.858   1.806   0.781 -0.1226  0.6299  0.2263
 6371TIP3    H140672   0.876   1.899   0.795  3.2434  0.2392 -0.6016
 6371TIP3    H240673   0.829   1.800   0.690 -2.8723  1.0532  0.9941
 6372TIP3   OH240674   0.824   2.394   7.940  0.3016 -0.1620  0.0100
 6372TIP3    H140675   0.917   2.373   7.926  0.0994 -0.3975 -0.9819
 6372TIP3    H240676   0.803   2.354   8.025  0.9107 -0.7328 -0.1023
 6373TIP3   OH240677   0.687   5.582   1.903 -0.1125 -0.6396  0.1951
 6373TIP3    H140678   0.658   5.559   1.991 -1.4502 -2.7005 -0.6933
 6373TIP3    H240679   0.752   5.651   1.916 -1.6310  0.4746  2.6608
 6374TIP3   OH240680   6.088   2.552   0.036  0.0066  0.1767  0.0967
 6374TIP3    H140681   6.002   2.572  -0.001 -0.3167 -0.1280  0.6624
 6374TIP3    H240682   6.074   2.554   0.131  0.8119  0.9305  0.2168
 6375TIP3   OH240683   2.157   0.480   7.748 -0.2112  0.1057  0.2142
 6375TIP3    H140684   2.087   0.420   7.720  0.3100  0.5585 -2.2080
 6375TIP3    H240685   2.195   0.513   7.667  1.1701  1.8314  1.4901
 6376TIP3   OH240686   5.595   6.878   0.776 -0.0303  0.0826 -0.2294
 6376TIP3    H140687   5.685   6.857   0.803 -0.7317 -2.7967  0.2291
 6376TIP3    H240688   5.599   6.877   0.680  0.3315 -0.6033 -0.2169
 6377TIP3   OH240689   6.116   3.907   0.791 -0.8985 -0.8921 -0.2728
 6377TIP3    H140690   6.158   3.835   0.744 -0.6281 -0.2591 -1.0350
 6377TIP3    H240691   6.164   3.985   0.763 -1.0063 -0.4394  0.7504
 6378TIP3   OH240692   5.907   5.067   2.123  0.2259  0.3724  0.3052
 6378TIP3    H140693   5.884   5.071   2.216 -0.0173  1.8376  0.1990
 6378TIP3    H240694   5.969   4.994   2.117 -0.6638 -0.5141  1.4078
 6379TIP3   OH240695   3.320   3.883   7.857  0.0800 -0.1002  0.0788
 6379TIP3    H140696   3.308   3.977   7.859  0.6535 -0.0386  0.9264
 6379TIP3    H240697   3.284   3.856   7.772 -1.1639  0.7143  0.3204
 6380TIP3   OH240698   2.819   3.999   1.113  0.0059 -0.1218  0.3422
 6380TIP3    H140699   2.756   4.049   1.060 -0.7800 -1.2779  0.1381
 6380TIP3    H240700   2.777   3.914   1.124  2.2100 -1.4629 -1.0685
 6381TIP3   OH240701   4.934   4.719   1.173  0.4071  0.4628  0.0672
 6381TIP3    H140702   4.870   4.651   1.193  0.9994 -0.3037 -0.5573
 6381TIP3    H240703   4.928   4.732   1.078 -0.3736  1.9951  0.3022
 6382TIP3   OH240704   4.921   1.066   0.736 -0.0755 -0.2896  0.5425
 6382TIP3    H140705   4.946   0.974   0.740  0.6264 -0.1888 -0.7197
 6382TIP3    H240706   4.826   1.065   0.723  0.0255 -0.8674 -0.2096
 6383TIP3   OH240707   4.629   4.375   7.725  0.5777  0.3726 -0.3433
 6383TIP3    H140708   4.567   4.342   7.659  0.8343 -0.1335 -0.3330
 6383TIP3    H240709   4.578   4.438   7.776  0.3140  0.6064 -0.8869
 6384TIP3   OH240710   1.825   7.135   1.369  0.5521  0.2527 -0.2923
 6384TIP3    H140711   1.876   7.129   1.450 -0.3579 -0.9172  0.2269
 6384TIP3    H240712   1.825   7.045   1.335 -1.5880  0.0798  0.0125
 6385TIP3   OH240713   3.918   2.904   0.366 -0.5290  0.1336  0.2521
 6385TIP3    H140714   3.973   2.972   0.405  0.7141 -0.2119 -0.8296
 6385TIP3    H240715   3.862   2.874   0.438  2.0990 -0.9325  1.9906
 6386TIP3   OH240716   3.557   3.536   1.357 -0.2122 -1.1188 -0.0554
 6386TIP3    H140717   3.630   3.524   1.418  0.0353 -1.0071 -0.3289
 6386TIP3    H240718   3.513   3.615   1.388  0.3355 -0.6557 -0.4407
 6387TIP3   OH240719   3.110   4.962   7.009 -0.0966 -0.5972 -0.2595
 6387TIP3    H140720   3.179   4.899   7.028  1.7753  0.8092 -1.8596
 6387TIP3    H240721   3.066   4.926   6.932 -0.3119 -0.8843 -0.0027
 6388TIP3   OH240722   4.880   4.479   7.719 -0.7102 -0.4580  0.4927
 6388TIP3    H140723   4.793   4.442   7.727 -1.7211  1.3080 -1.2420
 6388TIP3    H240724   4.899   4.476   7.625  0.1530  1.1175  0.5701
 6389TIP3   OH240725   4.956   0.143   0.341 -0.3081  0.0578 -0.5327
 6389TIP3    H140726   4.912   0.214   0.387 -0.2209 -0.5133  0.4639
 6389TIP3    H240727   4.890   0.110   0.279 -0.8042  0.1169 -0.0401
 6390TIP3   OH240728   0.658   5.296   2.147 -0.2689  0.5369  0.0196
 6390TIP3    H140729   0.712   5.328   2.219  2.6746 -1.3781 -1.1700
 6390TIP3    H240730   0.591   5.242   2.189 -0.4861  1.8535  1.4517
 6391TIP3   OH240731   4.675   2.288   2.343 -0.0743 -0.1476 -0.5315
 6391TIP3    H140732   4.720   2.245   2.415 -0.7375 -2.6975 -1.5300
 6391TIP3    H240733   4.650   2.217   2.284 -1.7002  1.5827 -2.0852
 6392TIP3   OH240734   2.971   4.178   0.613  0.3073 -0.4306  0.3474
 6392TIP3    H140735   3.033   4.248   0.632 -1.0217  1.0240 -0.3807
 6392TIP3    H240736   3.010   4.131   0.539  1.3306 -0.6203  0.9940
 6393TIP3   OH240737   5.460   2.814   1.278 -0.0832 -0.2762  0.5057
 6393TIP3    H140738   5.447   2.726   1.241 -1.9896  0.7017 -1.4023
 6393TIP3    H240739   5.507   2.799   1.359  1.2656 -2.9075 -0.6330
 6394TIP3   OH240740   1.974   4.189   7.741  0.3374 -0.4296 -0.3833
 6394TIP3    H140741   1.923   4.148   7.672 -0.9104 -0.6990  0.6511
 6394TIP3    H240742   1.979   4.122   7.810  1.6236 -0.2011 -0.2294
 6395TIP3   OH240743   6.467   0.904   0.973 -0.0917 -0.2786  0.1045
 6395TIP3    H140744   6.485   0.887   1.065 -1.3184  3.3911  1.2057
 6395TIP3    H240745   6.375   0.880   0.961 -0.1020 -0.1865 -0.0052
 6396TIP3   OH240746   3.749   2.841   7.568 -0.2490  0.5935 -0.1502
 6396TIP3    H140747   3.843   2.849   7.584 -0.2405  0.3108 -0.0440
 6396TIP3    H240748   3.739   2.756   7.525 -0.3910  0.8967 -0.7226
 6397TIP3   OH240749   0.936   3.881   0.841 -0.2127 -0.3061 -0.3412
 6397TIP3    H140750   1.017   3.895   0.890 -0.4727 -2.6654  0.9209
 6397TIP3    H240751   0.957   3.907   0.752  0.9562  2.0301  0.5217
 6398TIP3   OH240752   4.356   6.498   1.105 -0.5256  0.1298 -0.2667
 6398TIP3    H140753   4.288   6.551   1.147 -0.5754 -1.0116  1.1752
 6398TIP3    H240754   4.412   6.562   1.060 -1.8211  1.1907 -0.4335
 6399TIP3   OH240755   6.648   4.875   1.678  0.6004 -0.2829 -0.4257
 6399TIP3    H140756   6.616   4.952   1.725  1.2563 -0.4823  0.3638
 6399TIP3    H240757   6.711   4.909   1.615  0.9008 -0.1679 -0.0672
 6400TIP3   OH240758   6.655   0.869   6.431  0.0371  0.2220 -0.4208
 6400TIP3    H140759   6.695   0.942   6.478 -1.8843  0.3155  1.1893
 6400TIP3    H240760   6.629   0.807   6.499  1.6016 -2.0353 -1.7297
 6401TIP3   OH240761   5.396   2.598   0.966 -0.3670 -0.3594 -0.1039
 6401TIP3    H140762   5.366   2.607   0.875  2.2313 -0.7418 -1.1021
 6401TIP3    H240763   5.387   2.685   1.003  0.4549  0.3290 -1.4330
 6402TIP3   OH240764   5.127   4.594   7.323 -0.1374 -0.1942 -0.2621
 6402TIP3    H140765   5.138   4.686   7.344 -2.1763  0.1107 -0.3850
 6402TIP3    H240766   5.215   4.564   7.299  0.8048  1.3492  1.1171
 6403TIP3   OH240767   1.637   6.883   8.004  0.5212  0.1687 -0.4069
 6403TIP3    H140768   1.610   6.869   7.913  0.9634 -2.3058 -0.2373
 6403TIP3    H240769   1.704   6.951   7.999 -0.9312  1.5707 -1.6426
 6404TIP3   OH240770   2.831   0.480   7.712 -0.1401 -0.0110 -0.0236
 6404TIP3    H140771   2.891   0.440   7.775 -1.3763 -1.2561  0.4093
 6404TIP3    H240772   2.870   0.461   7.627  0.8702  0.5525  0.2989
 6405TIP3   OH240773   6.334   4.322   1.539  0.4989 -0.4317 -0.0969
 6405TIP3    H140774   6.290   4.382   1.600  1.2011 -0.2321  0.2248
 6405TIP3    H240775   6.421   4.359   1.528  0.4082 -0.5250 -1.1633
 6406TIP3   OH240776   4.684   4.616   0.680 -0.0839 -0.3953  0.4434
 6406TIP3    H140777   4.599   4.657   0.665  0.2753  0.6247  1.0522
 6406TIP3    H240778   4.666   4.522   0.679 -1.1307 -0.2066  0.1025
 6407TIP3   OH240779   0.272   0.079   1.977  0.7347 -0.3096 -0.3516
 6407TIP3    H140780   0.205   0.136   1.939  0.5957 -1.6344 -2.2478
 6407TIP3    H240781   0.311   0.035   1.902  4.6623  1.2741  0.4997
 6408TIP3   OH240782   0.754   5.291   7.955 -0.3491 -0.4494  0.4691
 6408TIP3    H140783   0.840   5.333   7.956 -0.4400 -0.2468 -0.1151
 6408TIP3    H240784   0.764   5.218   7.893 -0.5008 -0.6324  0.6599
 6409TIP3   OH240785   1.102   2.510   0.588 -0.2141 -0.2110  0.3852
 6409TIP3    H140786   1.113   2.598   0.553 -1.9372 -0.5925 -1.2900
 6409TIP3    H240787   1.191   2.480   0.607  0.5792  1.0889 -1.0676
 6410TIP3   OH240788   0.661   5.553   1.633  0.0633  0.5102  0.1359
 6410TIP3    H140789   0.650   5.568   1.727 -1.3412  0.5650 -0.0160
 6410TIP3    H240790   0.660   5.640   1.595 -1.7050  0.4039 -0.1325
 6411TIP3   OH240791   2.085   2.627   1.802  0.0751  0.4475 -0.2189
 6411TIP3    H140792   1.991   2.645   1.800 -0.2092 -0.6926  0.9814
 6411TIP3    H240793   2.105   2.615   1.895  1.6680  1.8517 -0.3146
 6412TIP3   OH240794   4.281   1.806   0.786 -0.6057 -0.1537  0.0145
 6412TIP3    H140795   4.203   1.800   0.842 -1.0341 -1.7440 -0.7056
 6412TIP3    H240796   4.249   1.847   0.706 -0.3398  0.6281  0.2957
 6413TIP3   OH240797   4.003   1.816   7.006 -0.4197  0.5521  0.3457
 6413TIP3    H140798   4.006   1.725   7.036  0.9747  0.8474  1.1749
 6413TIP3    H240799   4.086   1.854   7.036  0.3461  1.3301 -2.4677
 6414TIP3   OH240800   6.791   5.533   7.024 -0.3703 -0.1658  0.0445
 6414TIP3    H140801   6.727   5.604   7.017  0.7017  0.8154 -0.0784
 6414TIP3    H240802   6.832   5.530   6.938 -0.0982 -0.6484  0.1879
 6415TIP3   OH240803   2.180   0.258   0.634 -0.1956  0.1660 -0.3962
 6415TIP3    H140804   2.168   0.181   0.579 -0.9799  0.8323 -1.1824
 6415TIP3    H240805   2.204   0.222   0.720 -1.5724 -1.0028 -0.4686
 6416TIP3   OH240806   3.111   2.999   7.209  0.2782  0.1857 -0.4192
 6416TIP3    H140807   3.104   3.078   7.262  0.3509 -0.2523  0.2505
 6416TIP3    H240808   3.178   3.020   7.144  0.5699  0.5410 -0.0120
 6417TIP3   OH240809   2.356   6.054   7.306 -0.3513 -0.0908  0.0158
 6417TIP3    H140810   2.357   6.001   7.386 -2.2886  1.7122  1.3806
 6417TIP3    H240811   2.263   6.063   7.285 -0.0010  1.4016 -1.0609
 6418TIP3   OH240812   0.220   4.541   1.887  0.2490 -0.7958 -0.0265
 6418TIP3    H140813   0.231   4.516   1.795  1.8900 -3.5732  0.8340
 6418TIP3    H240814   0.153   4.481   1.921  0.2356 -0.3289  0.8063
 6419TIP3   OH240815   2.062   2.478   7.058  0.1056 -0.1708  0.2666
 6419TIP3    H140816   2.111   2.559   7.043  0.8215 -0.7729 -0.8330
 6419TIP3    H240817   2.108   2.413   7.005 -1.4633 -0.9299 -0.2209
 6420TIP3   OH240818   6.848   6.773   6.705 -0.0098  0.1615  0.2096
 6420TIP3    H140819   6.769   6.812   6.668  0.0693 -0.2600 -0.4213
 6420TIP3    H240820   6.916   6.838   6.690 -0.1886  0.4451  0.5857
 6421TIP3   OH240821   2.577   5.631   1.426  0.1743  0.4369  0.6698
 6421TIP3    H140822   2.651   5.595   1.475  0.2723  0.9785  0.9328
 6421TIP3    H240823   2.610   5.714   1.392 -0.2333  0.5634  0.5833
 6422TIP3   OH240824   6.328   2.047   0.077  0.2822 -0.5150 -0.0997
 6422TIP3    H140825   6.397   1.994   0.117  0.1402  0.2432  1.2016
 6422TIP3    H240826   6.248   2.021   0.124  0.0098 -0.0010 -0.2741
 6423TIP3   OH240827   0.063   3.695   2.353  0.2554  0.1325  0.2618
 6423TIP3    H140828   0.064   3.647   2.270  1.1000 -2.3123  1.5580
 6423TIP3    H240829  -0.004   3.651   2.405  0.0451  1.3368  1.0549
 6424TIP3   OH240830   5.905   1.610   7.848 -0.3174  0.4739  0.1911
 6424TIP3    H140831   5.980   1.669   7.840 -0.2224  0.2035 -1.2645
 6424TIP3    H240832   5.914   1.551   7.773 -1.3363 -0.3186  0.6791
 6425TIP3   OH240833   4.631   1.100   1.468  0.1214 -0.1177 -0.3748
 6425TIP3    H140834   4.550   1.059   1.499 -1.1810  0.4330 -2.7962
 6425TIP3    H240835   4.659   1.044   1.395  0.1650  1.3830 -1.5558
 6426TIP3   OH240836   0.590   0.321   7.344  0.4263 -0.3541 -0.3626
 6426TIP3    H140837   0.543   0.308   7.262 -0.9986 -0.3997  0.4257
 6426TIP3    H240838   0.645   0.243   7.353 -0.6427 -1.1518 -0.4886
 6427TIP3   OH240839   0.726   0.779   2.522 -0.5460  0.0398 -0.0642
 6427TIP3    H140840   0.693   0.868   2.511  0.4528  0.6127  1.1584
 6427TIP3    H240841   0.686   0.748   2.604 -0.5186 -0.4574 -0.2327
 6428TIP3   OH240842   1.649   5.230   7.328  0.3272  0.1546  0.1928
 6428TIP3    H140843   1.631   5.275   7.411 -0.2502 -0.1631  0.2470
 6428TIP3    H240844   1.737   5.196   7.338  0.1831 -0.0577  0.7622
 6429TIP3   OH240845   5.298   1.508   3.115 -0.0551 -0.3622 -0.2374
 6429TIP3    H140846   5.301   1.441   3.047 -2.7138 -1.5182  0.6633
 6429TIP3    H240847   5.258   1.584   3.072  1.6847  0.2218 -0.8890
 6430TIP3   OH240848   5.339   1.558   1.983 -0.4846  0.0449  0.2888
 6430TIP3    H140849   5.276   1.581   1.914  0.1937  2.0502  0.2683
 6430TIP3    H240850   5.424   1.559   1.939 -0.1571  0.2738  0.9179
 6431TIP3   OH240851   3.413   3.737   6.489 -0.2096 -0.5394 -0.0042
 6431TIP3    H140852   3.345   3.804   6.490  0.2671  0.1222 -2.9633
 6431TIP3    H240853   3.492   3.782   6.519 -0.2459 -0.2142 -0.3860
 6432TIP3   OH240854   1.973   4.033   0.514 -0.1066  0.1280 -0.4000
 6432TIP3    H140855   2.023   3.971   0.567  1.3420  1.1394 -0.5058
 6432TIP3    H240856   1.885   3.996   0.510 -0.4215  0.1288  3.0017
 6433TIP3   OH240857   3.125   6.575   0.453 -0.1965 -0.2626  0.3303
 6433TIP3    H140858   3.195   6.606   0.510 -2.4155 -1.6118  4.2045
 6433TIP3    H240859   3.058   6.642   0.459  0.1373  0.4110 -2.2994
 6434TIP3   OH240860   0.177   2.789   2.533 -0.4498 -0.1365 -0.2250
 6434TIP3    H140861   0.156   2.825   2.619 -1.7772  0.9705 -0.9791
 6434TIP3    H240862   0.269   2.813   2.519 -0.9720  2.0532 -0.2393
 6435TIP3   OH240863   6.457   6.247   1.054 -0.1095  0.5717  0.3763
 6435TIP3    H140864   6.497   6.195   1.124  0.4725 -0.4302 -0.6572
 6435TIP3    H240865   6.531   6.277   1.001 -0.5757  0.5810 -0.2860
 6436TIP3   OH240866   4.287   3.848   0.174 -0.0116  0.3011  0.5751
 6436TIP3    H140867   4.274   3.943   0.174 -1.7263  0.0990 -0.3046
 6436TIP3    H240868   4.361   3.834   0.233  1.9179  2.3718 -1.1969
 6437TIP3   OH240869   6.676   3.845   7.440  0.0127  0.3829 -0.1858
 6437TIP3    H140870   6.696   3.758   7.474  0.7971  0.0406 -1.4491
 6437TIP3    H240871   6.758   3.894   7.449 -0.3552  0.9229  0.2968
 6438TIP3   OH240872   0.819   0.431   0.413 -0.4202  0.2877 -0.6046
 6438TIP3    H140873   0.765   0.507   0.392  2.1067  2.5403  0.5085
 6438TIP3    H240874   0.907   0.455   0.382  0.9684 -1.1306  1.9186
 6439TIP3   OH240875   0.415   5.852   1.654  0.1416  0.4126  0.2592
 6439TIP3    H140876   0.387   5.766   1.688  0.8501  0.0183 -0.1420
 6439TIP3    H240877   0.401   5.846   1.560 -0.4616  0.9938  0.3042
 6440TIP3   OH240878   1.862   3.690   1.535 -0.2184 -0.4833  0.2455
 6440TIP3    H140879   1.802   3.639   1.481 -0.8819 -0.0981  0.5992
 6440TIP3    H240880   1.916   3.624   1.579 -1.8639 -0.9927  1.6276
 6441TIP3   OH240881   3.059   1.859   0.276 -0.6048  0.3934 -0.4909
 6441TIP3    H140882   2.979   1.885   0.322  0.8062  1.3159  1.6281
 6441TIP3    H240883   3.086   1.778   0.320  0.7372  1.2535  0.3444
 6442TIP3   OH240884   2.275   5.178   2.288 -0.4837 -0.3563  0.0939
 6442TIP3    H140885   2.237   5.265   2.282  0.2382 -0.0892 -0.7676
 6442TIP3    H240886   2.358   5.184   2.241  0.2180 -1.1535  1.1507
 6443TIP3   OH240887   3.628   5.653   1.767  0.5581  0.1624 -0.2409
 6443TIP3    H140888   3.679   5.591   1.713 -2.6418 -0.9038 -2.3340
 6443TIP3    H240889   3.642   5.623   1.856  3.4758 -0.0665 -0.6647
 6444TIP3   OH240890   4.626   1.684   1.765 -0.2281 -0.1171  0.2014
 6444TIP3    H140891   4.620   1.779   1.752  0.2476  0.0639  1.2167
 6444TIP3    H240892   4.718   1.663   1.750  0.0234 -0.1377  1.6130
 6445TIP3   OH240893   4.214   1.011   7.620 -0.4321  0.0274 -0.2261
 6445TIP3    H140894   4.283   1.076   7.636  1.5272 -1.4530 -1.9985
 6445TIP3    H240895   4.133   1.062   7.620  0.5764  1.8394  2.0668
 6446TIP3   OH240896   4.440   4.521   6.755 -0.5749 -0.1590 -0.1863
 6446TIP3    H140897   4.348   4.549   6.755 -0.1523  1.4065 -1.2238
 6446TIP3    H240898   4.485   4.586   6.810 -0.1225 -1.1406  0.6443
 6447TIP3   OH240899   0.879   6.031   1.305 -0.7378  0.6521 -0.3167
 6447TIP3    H140900   0.857   5.939   1.291  1.5979 -0.0607  0.2867
 6447TIP3    H240901   0.864   6.072   1.219 -1.7610 -0.2735 -0.6010
 6448TIP3   OH240902   5.847   1.627   1.312  0.0036 -0.1751  0.7198
 6448TIP3    H140903   5.939   1.638   1.290  0.2369 -1.1704  1.1754
 6448TIP3    H240904   5.829   1.534   1.299 -0.7843 -0.1042  1.1955
 6449TIP3   OH240905   2.878   6.303   2.108 -0.2348  0.3353 -0.0919
 6449TIP3    H140906   2.831   6.378   2.071 -2.8343 -0.7718  0.7597
 6449TIP3    H240907   2.889   6.243   2.034  1.4027  1.2608 -0.6596
 6450TIP3   OH240908   1.874   5.673   0.769  0.2487 -0.4112 -0.3996
 6450TIP3    H140909   1.911   5.755   0.737  0.7599 -0.9384 -1.2113
 6450TIP3    H240910   1.951   5.617   0.783 -0.0729 -0.6516  0.4442
 6451TIP3   OH240911   0.177   1.880   7.570  0.1765 -0.0915 -0.5650
 6451TIP3    H140912   0.202   1.947   7.633 -1.9940  0.7763 -0.5061
 6451TIP3    H240913   0.259   1.844   7.538  1.4579  2.6986 -0.6971
 6452TIP3   OH240914   5.106   2.923   1.259 -0.1994 -0.1458 -0.0444
 6452TIP3    H140915   5.139   2.852   1.204 -0.2189 -0.4692  0.3564
 6452TIP3    H240916   5.011   2.911   1.259 -0.3140  0.6851 -1.0636
 6453TIP3   OH240917   5.840   6.857   0.909 -0.2040 -0.4605  0.2364
 6453TIP3    H140918   5.797   6.787   0.957 -0.5914 -0.7747 -0.5477
 6453TIP3    H240919   5.898   6.898   0.973 -0.1648 -1.3318  0.7749
 6454TIP3   OH240920   4.798   6.420   1.038 -0.2459 -0.1995  0.1915
 6454TIP3    H140921   4.823   6.332   1.010  0.0202  0.0488 -0.3664
 6454TIP3    H240922   4.864   6.477   1.000  0.5742  0.0966  1.9450
 6455TIP3   OH240923   5.235   0.023   6.466  0.4613  0.5734 -0.7435
 6455TIP3    H140924   5.167   0.090   6.459  0.2573  0.6657  1.4066
 6455TIP3    H240925   5.187  -0.057   6.490  0.9178  0.1714 -1.1526
 6456TIP3   OH240926   7.040   0.142   1.436 -0.0475 -0.5388 -0.1181
 6456TIP3    H140927   6.972   0.191   1.389  0.5805 -0.6474 -1.1660
 6456TIP3    H240928   7.121   0.188   1.415  0.3858 -1.2745 -0.0737
 6457TIP3   OH240929   3.626   5.588   2.054  0.0705  0.3019 -0.4668
 6457TIP3    H140930   3.599   5.671   2.093  2.0058  1.0934 -0.6975
 6457TIP3    H240931   3.656   5.536   2.129 -0.9688 -0.1425 -0.3441
 6458TIP3   OH240932   4.404   3.900   7.929  0.0423 -0.2451 -0.0228
 6458TIP3    H140933   4.434   3.954   8.002 -1.1482 -0.4745  0.6551
 6458TIP3    H240934   4.461   3.924   7.856 -0.4414  1.9231  0.2617
 6459TIP3   OH240935   5.705   6.168   1.658  0.0713  0.1131 -0.5625
 6459TIP3    H140936   5.755   6.229   1.712 -1.1715  0.5920  0.1019
 6459TIP3    H240937   5.676   6.100   1.719 -2.6062  1.4409 -0.1982
 6460TIP3   OH240938   1.343   3.151   1.848 -0.1347  0.1777  0.6159
 6460TIP3    H140939   1.296   3.196   1.918 -3.0301 -0.4090 -0.8022
 6460TIP3    H240940   1.367   3.067   1.886  0.8723  0.9271  1.7225
 6461TIP3   OH240941   3.167   2.278   1.851  0.9374 -0.1694 -0.5101
 6461TIP3    H140942   3.175   2.198   1.901  0.0012 -0.2668 -0.4983
 6461TIP3    H240943   3.186   2.348   1.913  1.4237 -0.3617 -0.4392
 6462TIP3   OH240944   2.354   1.410   7.648 -0.4019 -0.2316  0.0712
 6462TIP3    H140945   2.309   1.413   7.564 -0.7313 -2.0411  0.1411
 6462TIP3    H240946   2.446   1.399   7.626 -0.2784  0.9046 -0.0434
 6463TIP3   OH240947   1.173   2.878   0.386  0.3711  0.4765  0.2206
 6463TIP3    H140948   1.149   2.841   0.471  0.9259  0.2119  0.2643
 6463TIP3    H240949   1.224   2.956   0.406 -0.7865  1.2878  0.1275
 6464TIP3   OH240950   3.827   5.263   1.788  0.7560 -0.4548  0.2374
 6464TIP3    H140951   3.858   5.338   1.839  1.1498 -0.3607 -0.1330
 6464TIP3    H240952   3.754   5.228   1.839  0.8020 -0.0405  0.5960
 6465TIP3   OH240953   4.227   5.245   0.309 -0.1794 -0.5522  0.4417
 6465TIP3    H140954   4.160   5.299   0.351  1.5790  1.7003  0.5198
 6465TIP3    H240955   4.219   5.265   0.216 -0.1974 -0.9629  0.3540
 6466TIP3   OH240956   5.605   3.456   0.944  0.3313 -0.4223 -0.1740
 6466TIP3    H140957   5.597   3.526   0.879  2.4128 -0.8409 -0.9750
 6466TIP3    H240958   5.539   3.391   0.919  0.2850 -0.0156 -1.1264
 6467TIP3   OH240959   2.241   0.186   0.052 -0.7569 -0.4033 -0.4432
 6467TIP3    H140960   2.242   0.277   0.084  0.5003 -0.5240 -0.0656
 6467TIP3    H240961   2.286   0.189  -0.032 -1.1570 -0.6061 -0.6681
 6468TIP3   OH240962   2.884   6.551   1.134 -0.0357  0.6926  0.3783
 6468TIP3    H140963   2.974   6.535   1.163 -0.7427 -1.1854  1.7561
 6468TIP3    H240964   2.877   6.508   1.049  0.2303  0.3466  0.5299
 6469TIP3   OH240965   6.205   0.794   7.938  0.4099  0.5345  0.4929
 6469TIP3    H140966   6.123   0.816   7.893  1.2837  0.9872 -0.9679
 6469TIP3    H240967   6.204   0.699   7.944  0.0439  0.4953 -0.0765
 6470TIP3   OH240968   6.552   6.171   7.895 -0.2173  0.3715  0.0902
 6470TIP3    H140969   6.640   6.204   7.873 -0.4635  0.7538 -0.3556
 6470TIP3    H240970   6.496   6.248   7.885 -0.4534  0.3779  1.3838
 6471TIP3   OH240971   4.443   2.229   0.939  0.2196 -0.1800 -0.1403
 6471TIP3    H140972   4.425   2.299   1.002 -0.7311 -0.1941 -0.3773
 6471TIP3    H240973   4.413   2.264   0.855  1.2389 -0.2605 -0.5544
 6472TIP3   OH240974   1.847   1.661   0.856  0.7361 -0.2665  0.5363
 6472TIP3    H140975   1.829   1.623   0.771  0.6525  0.2718  0.3077
 6472TIP3    H240976   1.873   1.751   0.838  0.3534 -0.0333  1.0976
 6473TIP3   OH240977   3.138   5.004   2.310 -0.5955 -0.5716  0.0928
 6473TIP3    H140978   3.138   5.084   2.258 -2.4690 -1.2104 -0.9899
 6473TIP3    H240979   3.164   5.033   2.398 -1.8950  1.3682 -0.0995
 6474TIP3   OH240980   6.004   1.783   6.989 -0.0262 -0.3099  0.1495
 6474TIP3    H140981   5.983   1.770   6.896  1.4736  1.2082 -0.4501
 6474TIP3    H240982   6.094   1.815   6.989  1.0379 -2.9076  2.3476
 6475TIP3   OH240983   2.897   1.813   6.831  0.0974 -0.1824 -0.0150
 6475TIP3    H140984   2.962   1.791   6.764 -0.1421 -0.1944 -0.2471
 6475TIP3    H240985   2.813   1.808   6.785 -0.0253  0.3794  0.1443
 6476TIP3   OH240986   7.056   4.065   7.755 -0.5872  0.5720 -0.3646
 6476TIP3    H140987   7.113   4.040   7.683 -0.1460 -0.2046  0.2468
 6476TIP3    H240988   7.085   4.154   7.778  2.2739 -0.7736  1.7166
 6477TIP3   OH240989   0.732   3.205   0.603  0.3658  0.0088 -0.1040
 6477TIP3    H140990   0.741   3.196   0.698 -3.6018 -2.5370  0.2186
 6477TIP3    H240991   0.679   3.284   0.592  0.9103  0.3616 -0.2901
 6478TIP3   OH240992   5.546   0.963   0.166 -0.2696 -0.2657 -0.0457
 6478TIP3    H140993   5.496   0.952   0.247  0.8131  2.3306  1.0568
 6478TIP3    H240994   5.485   1.007   0.106 -0.8780 -1.6578 -0.4859
 6479TIP3   OH240995   6.675   2.642   6.734 -0.3929 -0.1998 -0.4396
 6479TIP3    H140996   6.639   2.660   6.647 -0.0076 -2.9821 -1.2783
 6479TIP3    H240997   6.598   2.628   6.789 -0.6675  2.4913 -0.0092
 6480TIP3   OH240998   2.203   5.511   1.071 -0.2399 -0.2284 -0.0767
 6480TIP3    H140999   2.191   5.473   1.158 -1.8541  0.2698 -0.0552
 6480TIP3    H241000   2.270   5.456   1.030 -1.1920 -1.9727  0.6061
 6481TIP3   OH241001   0.258   6.296   2.568 -0.1688  0.2221 -0.5449
 6481TIP3    H141002   0.208   6.372   2.540 -1.4349 -1.0140 -1.8085
 6481TIP3    H241003   0.350   6.324   2.560 -0.5655  1.1633 -2.3893
 6482TIP3   OH241004   0.694   6.088   1.080 -0.5726 -0.3084  0.1915
 6482TIP3    H141005   0.734   6.017   1.030 -2.1035 -1.3264  0.3624
 6482TIP3    H241006   0.600   6.071   1.076 -0.9144  1.1915  1.0291
 6483TIP3   OH241007   5.574   6.771   7.625  0.7072 -0.2848 -0.1245
 6483TIP3    H141008   5.523   6.841   7.584  1.9167  0.5073 -0.3123
 6483TIP3    H241009   5.517   6.694   7.619 -0.5719  0.6163 -0.0894
 6484TIP3   OH241010   3.988   4.916   2.714  0.2963 -0.2574  0.0515
 6484TIP3    H141011   4.070   4.931   2.762 -1.6086  1.9852  2.9970
 6484TIP3    H241012   3.967   4.824   2.732  1.0517 -0.2294  1.2349
 6485TIP3   OH241013   4.928   5.973   1.177  0.2662  0.9604  0.2832
 6485TIP3    H141014   4.861   5.942   1.237 -0.5569  0.0460 -1.0604
 6485TIP3    H241015   5.008   5.973   1.229 -0.7166  1.9992  1.9115
 6486TIP3   OH241016   5.351   6.130   7.707 -0.1437  0.3697 -0.1762
 6486TIP3    H141017   5.272   6.171   7.743 -0.1393  1.2150 -1.1098
 6486TIP3    H241018   5.380   6.070   7.776  0.1116  2.2555  1.4509
 6487TIP3   OH241019   6.693   5.698   6.712  0.0229  0.1641 -0.0581
 6487TIP3    H141020   6.612   5.667   6.673  0.0432  0.4513 -0.3336
 6487TIP3    H241021   6.695   5.792   6.693  0.8559 -0.0005 -0.8434
 6488TIP3   OH241022   5.843   3.824   1.918 -0.1334 -0.0346  0.2433
 6488TIP3    H141023   5.801   3.843   2.002  1.4408 -0.2663  1.1328
 6488TIP3    H241024   5.782   3.766   1.873 -0.3896 -1.1152  1.8654
 6489TIP3   OH241025   0.268   5.445   7.657  0.1559 -0.3264  0.3519
 6489TIP3    H141026   0.181   5.458   7.694 -0.1595 -1.1955 -0.0541
 6489TIP3    H241027   0.253   5.393   7.578  1.0693 -0.7670  0.4566
 6490TIP3   OH241028   6.433   5.351   2.789 -0.1014 -0.2767  0.1892
 6490TIP3    H141029   6.449   5.442   2.765 -0.1104 -0.0878  0.8931
 6490TIP3    H241030   6.347   5.331   2.751  0.6713 -0.5474 -1.4931
 6491TIP3   OH241031   6.253   6.292   7.272 -0.1805 -0.4855 -0.0905
 6491TIP3    H141032   6.207   6.290   7.356 -1.1318 -1.4074 -0.6233
 6491TIP3    H241033   6.325   6.230   7.283  1.0477  1.0088  0.7664
 6492TIP3   OH241034   3.292   2.979   1.709  0.2775 -0.1406  0.0172
 6492TIP3    H141035   3.223   2.934   1.661 -0.0044  0.6665 -0.3554
 6492TIP3    H241036   3.250   3.010   1.789 -0.3757  2.0400 -1.0647
 6493TIP3   OH241037   4.910   1.293   1.837 -0.5112  0.4864  0.3392
 6493TIP3    H141038   4.946   1.303   1.749 -0.5503 -0.6569  0.1779
 6493TIP3    H241039   4.947   1.367   1.887  0.4327  0.4858 -0.3312
 6494TIP3   OH241040   0.428   2.006   7.719 -0.9109  0.0017 -0.1353
 6494TIP3    H141041   0.365   2.027   7.789  0.1972  0.3801  0.7747
 6494TIP3    H241042   0.472   2.088   7.701 -0.1881 -0.4091 -0.2675
 6495TIP3   OH241043   4.696   5.932   2.829  0.0023 -0.5547 -0.1353
 6495TIP3    H141044   4.644   5.858   2.862 -0.7559  0.5411  1.2480
 6495TIP3    H241045   4.638   5.977   2.768 -0.7497  0.6822  1.4260
 6496TIP3   OH241046   5.851   2.814   0.290 -0.0313 -0.2053  0.0977
 6496TIP3    H141047   5.875   2.730   0.331  0.0466 -0.8651 -1.2440
 6496TIP3    H241048   5.934   2.850   0.259 -0.0780  0.3307  0.5839
 6497TIP3   OH241049   6.734   6.898   7.806  0.3824 -0.0045  0.3276
 6497TIP3    H141050   6.730   6.904   7.901  0.1334  0.5568  0.2899
 6497TIP3    H241051   6.681   6.822   7.784  1.7446 -1.1048  0.7272
 6498TIP3   OH241052   4.549   4.409   6.519  0.1962  0.2693  0.2183
 6498TIP3    H141053   4.532   4.446   6.605  1.6457  3.1435 -0.5906
 6498TIP3    H241054   4.465   4.416   6.473 -0.2002  0.1685  0.9150
 6499TIP3   OH241055   0.717   0.732   0.438  0.4370 -0.0539  0.4675
 6499TIP3    H141056   0.642   0.772   0.394  2.2773  0.4570 -2.4287
 6499TIP3    H241057   0.747   0.798   0.500 -0.6825  0.2238  0.7399
 6500TIP3   OH241058   4.884   2.182   7.787 -0.0826 -0.5687 -0.4136
 6500TIP3    H141059   4.817   2.143   7.731  1.0132  1.3527 -3.2842
 6500TIP3    H241060   4.966   2.171   7.739  0.9364  1.2474  0.7572
 6501TIP3   OH241061   6.513   6.166   1.987  0.4635  0.3231  0.1107
 6501TIP3    H141062   6.456   6.206   2.053  1.4403  1.1988  0.4622
 6501TIP3    H241063   6.561   6.240   1.949  2.3762 -0.4656  0.8244
 6502TIP3   OH241064   1.879   1.381   1.239  0.1083 -0.2535  0.3228
 6502TIP3    H141065   1.962   1.354   1.199 -0.8320 -0.1468 -1.8578
 6502TIP3    H241066   1.813   1.335   1.187 -1.2972  1.8093  0.1978
 6503TIP3   OH241067   3.923   7.060   7.182 -0.2804 -0.0175 -0.2274
 6503TIP3    H141068   3.877   6.983   7.148  0.3905 -0.5658  0.1030
 6503TIP3    H241069   4.005   7.026   7.217 -0.1836  0.7820  0.3498
 6504TIP3   OH241070   7.059   5.204   6.629 -0.5935 -0.6725  0.5969
 6504TIP3    H141071   7.021   5.136   6.573  1.3040 -0.4352 -1.0889
 6504TIP3    H241072   7.016   5.285   6.602 -0.3637 -0.7045  0.1190
 6505TIP3   OH241073   5.024   1.292   6.796  0.4540 -0.1857 -0.2813
 6505TIP3    H141074   5.018   1.206   6.837 -2.2279  0.5586  1.0594
 6505TIP3    H241075   5.087   1.340   6.850 -1.6392  0.1721  2.0031
 6506TIP3   OH241076   3.355   4.855   1.616  0.0280  0.0373 -0.1697
 6506TIP3    H141077   3.367   4.945   1.645  1.5937  0.1019 -0.8971
 6506TIP3    H241078   3.441   4.814   1.629 -0.0813 -0.7750 -1.7372
 6507TIP3   OH241079   3.757   3.843   1.957  0.4627  0.4446  0.5547
 6507TIP3    H141080   3.708   3.916   1.994  1.2858  0.0795  2.5120
 6507TIP3    H241081   3.830   3.884   1.910 -1.3833  0.9733 -2.0658
 6508TIP3   OH241082   2.598   0.078   1.790 -0.2657  1.1470  0.0749
 6508TIP3    H141083   2.667   0.078   1.723 -0.5764 -0.3119 -0.2721
 6508TIP3    H241084   2.521   0.044   1.746 -0.1736 -1.0027  1.4279
 6509TIP3   OH241085   3.297   6.136   7.734 -0.0355 -0.7343  0.2739
 6509TIP3    H141086   3.291   6.150   7.639 -0.3167 -0.5170  0.3223
 6509TIP3    H241087   3.373   6.188   7.761 -1.8245  1.8889  0.6523
 6510TIP3   OH241088   2.359   1.799   0.104  0.2584  0.2152  0.2145
 6510TIP3    H141089   2.303   1.722   0.091  0.0933  0.6938 -2.4534
 6510TIP3    H241090   2.440   1.778   0.056  1.3068  0.6613  1.7134
 6511TIP3   OH241091   4.729   4.951   1.974 -0.1081 -0.0330 -0.2762
 6511TIP3    H141092   4.796   4.975   2.039  0.8077 -1.5608 -0.6007
 6511TIP3    H241093   4.751   5.002   1.897 -1.2568  1.8698  0.5832
 6512TIP3   OH241094   5.884   5.217   6.094 -0.0050  0.2010  0.3387
 6512TIP3    H141095   5.810   5.274   6.112  0.3764  0.9724 -0.4337
 6512TIP3    H241096   5.960   5.265   6.127  0.2275 -0.2836  0.5266
 6513TIP3   OH241097   0.180   4.272   1.244  0.4830  0.3969 -0.4146
 6513TIP3    H141098   0.248   4.281   1.311 -0.2506 -1.2941  0.6354
 6513TIP3    H241099   0.115   4.215   1.284 -1.9400  2.4841 -1.1029
 6514TIP3   OH241100   5.700   0.616   2.086  0.5002 -0.3440 -0.3866
 6514TIP3    H141101   5.782   0.659   2.063  1.7354 -2.3288  0.1237
 6514TIP3    H241102   5.662   0.673   2.154  2.0979 -0.0597  0.3105
 6515TIP3   OH241103   3.375   5.003   7.577 -0.0717 -0.0975 -0.2243
 6515TIP3    H141104   3.447   5.060   7.549  0.2021 -1.3521 -2.2048
 6515TIP3    H241105   3.415   4.917   7.589 -0.7200 -0.1999  1.5399
 6516TIP3   OH241106   4.116   4.871   7.158 -0.2020 -0.8800  0.2062
 6516TIP3    H141107   4.170   4.855   7.081  0.5734 -2.8005  1.0997
 6516TIP3    H241108   4.040   4.813   7.147 -0.7548 -0.1871  0.2734
 6517TIP3   OH241109   6.927   0.793   6.689  0.6868  0.0798 -0.2574
 6517TIP3    H141110   7.004   0.771   6.636 -0.0244  0.2591 -1.4178
 6517TIP3    H241111   6.874   0.847   6.630 -0.0493  0.4445  0.7305
 6518TIP3   OH241112   5.715   0.559   0.337 -0.2063 -0.0148  1.0265
 6518TIP3    H141113   5.781   0.627   0.354 -0.3746  0.6498 -0.7624
 6518TIP3    H241114   5.722   0.542   0.243 -0.4267 -2.2458  1.3547
 6519TIP3   OH241115   7.031   6.973   6.693  0.2093 -0.1392  0.2966
 6519TIP3    H141116   7.111   6.959   6.745 -0.5536 -0.9102  1.3207
 6519TIP3    H241117   7.053   7.044   6.633  1.7698 -0.5514  0.3304
 6520TIP3   OH241118   0.522   3.529   0.533  0.2098  0.5545 -0.4468
 6520TIP3    H141119   0.617   3.536   0.529  0.1467  1.0461 -3.0182
 6520TIP3    H241120   0.490   3.619   0.521 -0.6109  0.4736  0.8959
 6521TIP3   OH241121   0.154   5.353   1.431  0.1622  0.8926  0.3789
 6521TIP3    H141122   0.239   5.382   1.465  0.7702 -0.9049  0.5176
 6521TIP3    H241123   0.091   5.415   1.468  1.3763  2.1249  0.4681
 6522TIP3   OH241124   5.887   0.019   6.606 -0.2625 -0.5121  0.1862
 6522TIP3    H141125   5.974  -0.002   6.572 -0.6000  0.3076 -1.2443
 6522TIP3    H241126   5.834  -0.058   6.584 -0.5825  0.1749 -1.6258
 6523TIP3   OH241127   2.254   1.307   1.326  0.2816  0.1782 -0.0348
 6523TIP3    H141128   2.232   1.394   1.292 -1.1574  0.1646  0.7759
 6523TIP3    H241129   2.229   1.311   1.418  1.2694 -0.7417  0.2859
 6524TIP3   OH241130   5.789   1.204   6.702 -0.8725 -0.2915  0.2792
 6524TIP3    H141131   5.785   1.299   6.692 -0.0070 -0.4614 -2.6587
 6524TIP3    H241132   5.701   1.174   6.683 -0.6974 -0.1612 -0.8087
 6525TIP3   OH241133   5.038   3.462   7.423 -0.0314 -0.4369 -0.0338
 6525TIP3    H141134   5.004   3.505   7.501  1.5412 -1.1375  1.1009
 6525TIP3    H241135   4.960   3.432   7.375 -1.0790  1.7174  0.2314
 6526TIP3   OH241136   1.035   6.688   2.137 -0.1533 -0.1393 -0.4180
 6526TIP3    H141137   0.947   6.717   2.163 -0.1763 -0.5006 -0.0709
 6526TIP3    H241138   1.084   6.768   2.122 -0.1312  0.0955  0.7887
 6527TIP3   OH241139   0.857   4.559   7.000 -0.2839 -0.0729 -0.3360
 6527TIP3    H141140   0.910   4.618   7.053 -0.9813 -0.5786  0.9530
 6527TIP3    H241141   0.832   4.612   6.924  0.9967  0.5591 -0.3430
 6528TIP3   OH241142   5.479   1.033   2.586  0.1909 -0.4169  0.4383
 6528TIP3    H141143   5.415   0.973   2.548 -0.3852 -0.7754  1.9027
 6528TIP3    H241144   5.475   1.111   2.530 -0.7689 -0.8454 -0.1072
 6529TIP3   OH241145   2.564   6.854   7.735  0.1063  0.1633  0.3393
 6529TIP3    H141146   2.526   6.872   7.821  0.7101 -1.8365  1.0839
 6529TIP3    H241147   2.659   6.860   7.748  0.2431 -1.1337  0.0941
 6530TIP3   OH241148   0.707   5.723   6.478  0.1974 -0.1789  0.0535
 6530TIP3    H141149   0.635   5.773   6.439 -0.1306 -0.2259  0.5961
 6530TIP3    H241150   0.667   5.640   6.504  0.3581 -0.0555  0.7022
 6531TIP3   OH241151   4.313   0.551   6.696 -0.8878  0.1424 -0.3750
 6531TIP3    H141152   4.352   0.476   6.651 -0.2178 -0.1939  0.7283
 6531TIP3    H241153   4.367   0.625   6.671 -0.1294 -0.1531  0.3731
 6532TIP3   OH241154   5.490   6.602   0.316 -0.0358  0.0142  0.5319
 6532TIP3    H141155   5.575   6.558   0.307 -0.5996 -0.7232 -1.8359
 6532TIP3    H241156   5.502   6.686   0.272 -0.6774 -0.3200 -0.2916
 6533TIP3   OH241157   4.059   1.414   0.233 -0.0128 -0.2437  0.8612
 6533TIP3    H141158   4.107   1.391   0.313  0.1672  1.7529  1.3830
 6533TIP3    H241159   3.978   1.455   0.265  0.0333  0.5288  0.0295
 6534TIP3   OH241160   6.888   3.171   1.119 -0.1633  0.4245  0.2001
 6534TIP3    H141161   6.957   3.104   1.112 -1.4471 -0.8728 -0.8351
 6534TIP3    H241162   6.814   3.134   1.070 -1.4615  1.9496  0.9124
 6535TIP3   OH241163   4.753   1.076   0.352 -0.3172 -0.8052  0.2493
 6535TIP3    H141164   4.761   1.004   0.414 -0.0171  0.0690  1.2578
 6535TIP3    H241165   4.838   1.079   0.308  0.3632  0.0983  1.5541
 6536TIP3   OH241166   1.123   2.076   6.792 -0.5362  0.4586  0.3137
 6536TIP3    H141167   1.069   2.028   6.729 -0.2767 -0.6127  0.8750
 6536TIP3    H241168   1.178   2.133   6.739 -1.6199  0.9464 -0.3117
 6537TIP3   OH241169   6.199   0.874   1.757 -0.2028  0.2744  0.4587
 6537TIP3    H141170   6.151   0.855   1.677 -0.8623  0.9908  0.6683
 6537TIP3    H241171   6.131   0.900   1.820  0.3052 -0.2686  1.2435
 6538TIP3   OH241172   2.413   3.970   0.596  0.0944  0.4375  0.7418
 6538TIP3    H141173   2.354   3.997   0.526  0.3053 -0.5305  0.1819
 6538TIP3    H241174   2.496   3.954   0.552  0.3666  0.3228  1.2959
 6539TIP3   OH241175   4.627   6.837   0.984  0.0982 -0.0086 -0.0248
 6539TIP3    H141176   4.591   6.802   0.903 -0.1664  1.2678 -0.4850
 6539TIP3    H241177   4.585   6.786   1.053 -0.6016 -0.2951 -0.6442
 6540TIP3   OH241178   4.120   2.140   0.276  0.3854 -0.1970  0.6843
 6540TIP3    H141179   4.059   2.068   0.259  1.3063 -0.6516 -0.9146
 6540TIP3    H241180   4.195   2.122   0.219  1.6162  0.8545  1.8819
 6541TIP3   OH241181   6.921   1.830   1.245  0.0300  0.1466  0.4714
 6541TIP3    H141182   6.912   1.764   1.176 -0.9713 -0.0642  0.7787
 6541TIP3    H241183   6.842   1.819   1.298  1.3596 -0.5819  2.4268
 6542TIP3   OH241184   4.828   0.470   1.659 -0.3197  0.6934  0.5339
 6542TIP3    H141185   4.867   0.492   1.744  0.8134 -2.0830  0.8330
 6542TIP3    H241186   4.893   0.497   1.595  0.2973 -0.1978  0.7748
 6543TIP3   OH241187   5.150   1.599   1.062 -0.2902  0.4873  0.2724
 6543TIP3    H141188   5.237   1.602   1.102 -0.1226 -2.1773  0.3262
 6543TIP3    H241189   5.092   1.578   1.135 -0.4965 -0.8543 -0.2561
 6544TIP3   OH241190   3.567   3.901   1.743  0.6321 -0.0185  0.1410
 6544TIP3    H141191   3.568   3.934   1.833 -0.5705 -1.3593  0.6844
 6544TIP3    H241192   3.617   3.820   1.746 -1.0300 -1.1006  0.0812
 6545TIP3   OH241193   6.410   2.497   0.370  0.3284 -0.3408  0.0255
 6545TIP3    H141194   6.388   2.405   0.379  1.3275 -0.6871 -0.8055
 6545TIP3    H241195   6.491   2.497   0.318  1.8096  0.8704  2.1921
 6546TIP3   OH241196   5.248   0.230   6.111 -0.0609  0.6665 -0.6159
 6546TIP3    H141197   5.225   0.296   6.045 -0.4616 -0.7633 -1.9805
 6546TIP3    H241198   5.193   0.252   6.186 -1.1600  1.1218 -1.5158
 6547TIP3   OH241199   3.259   2.721   7.311  0.4981  1.1018 -0.0601
 6547TIP3    H141200   3.325   2.776   7.268  0.6016  2.1173  1.3483
 6547TIP3    H241201   3.308   2.646   7.344  0.3457  0.0448 -2.0523
 6548TIP3   OH241202   4.885   6.900   0.747 -0.2800  0.1579  0.2333
 6548TIP3    H141203   4.797   6.887   0.782 -0.6246 -0.3196 -0.7813
 6548TIP3    H241204   4.915   6.812   0.725  0.7002  0.2477  1.1177
 6549TIP3   OH241205   6.899   6.455   2.033 -0.3638 -0.6568  0.5584
 6549TIP3    H141206   6.828   6.402   1.997  1.5537 -2.7470 -0.4172
 6549TIP3    H241207   6.978   6.406   2.012  1.5239  2.2248  0.3662
 6550TIP3   OH241208   2.960   0.761   2.149  0.4712  0.4866 -0.1667
 6550TIP3    H141209   2.946   0.849   2.113  4.1999  0.9264 -0.9553
 6550TIP3    H241210   2.998   0.777   2.236  1.2868 -0.3251 -0.3643
 6551TIP3   OH241211   1.492   5.483   2.237 -0.8016 -0.8886 -0.1389
 6551TIP3    H141212   1.514   5.464   2.146  0.8278 -1.0372  0.2524
 6551TIP3    H241213   1.546   5.422   2.288 -0.3971  0.3194  0.9481
 6552TIP3   OH241214   0.463   0.928   1.233 -0.1488 -0.0620 -0.0964
 6552TIP3    H141215   0.448   0.943   1.139  1.2314 -1.4973 -0.5731
 6552TIP3    H241216   0.400   0.987   1.276 -1.0435  0.3891 -1.9051
 6553TIP3   OH241217   0.547   5.929   6.389 -0.3727  0.1406  0.4317
 6553TIP3    H141218   0.483   5.999   6.377 -0.0415  0.0929 -2.1205
 6553TIP3    H241219   0.496   5.852   6.414 -0.8614  0.9523  2.0549
 6554TIP3   OH241220   0.740   7.089   2.230 -0.2897  0.4269 -0.6531
 6554TIP3    H141221   0.812   7.117   2.175 -0.3993 -0.3824 -1.2290
 6554TIP3    H241222   0.667   7.077   2.170  0.1819 -2.6564 -0.7641
 6555TIP3   OH241223   6.724   0.481   1.354  0.1316  0.3455 -0.2301
 6555TIP3    H141224   6.668   0.544   1.399  0.5220  1.2872 -1.0261
 6555TIP3    H241225   6.810   0.492   1.396  0.1878  0.3130 -0.3366
 6556TIP3   OH241226   3.708   3.564   1.648 -0.4102 -0.2864  0.0778
 6556TIP3    H141227   3.626   3.516   1.635 -1.2584  0.7136  1.4614
 6556TIP3    H241228   3.759   3.508   1.706 -0.9470 -0.0416  0.8057
 6557TIP3   OH241229   4.134   6.858   6.882 -0.5981  0.4476  0.3989
 6557TIP3    H141230   4.083   6.912   6.821  0.3235  1.0047  0.1009
 6557TIP3    H241231   4.069   6.801   6.923 -1.2340 -0.0401 -1.1927
 6558TIP3   OH241232   4.414   2.516   7.686 -0.5453 -0.0585  0.2566
 6558TIP3    H141233   4.347   2.509   7.754  0.7362 -0.0236  1.5670
 6558TIP3    H241234   4.369   2.557   7.612 -1.9457  0.0138  1.1171
 6559TIP3   OH241235   1.159   5.807   0.331 -0.0659 -0.5899  0.1735
 6559TIP3    H141236   1.099   5.834   0.262  1.6978  2.0043 -0.5101
 6559TIP3    H241237   1.125   5.849   0.410  1.4114  2.0623 -0.4645
 6560TIP3   OH241238   3.117   6.273   0.248  0.1006 -0.2762  0.1373
 6560TIP3    H141239   3.033   6.317   0.260 -1.3081 -1.5313 -3.5212
 6560TIP3    H241240   3.177   6.344   0.222 -0.7342  0.2381 -0.4602
 6561TIP3   OH241241   4.738   2.707   1.199 -0.1162 -0.5410  0.0986
 6561TIP3    H141242   4.792   2.702   1.120  1.1903  0.3828  0.8888
 6561TIP3    H241243   4.731   2.801   1.217  1.1924 -0.7541  2.0781
 6562TIP3   OH241244   1.080   5.364   7.179 -0.5118  0.1097  0.1602
 6562TIP3    H141245   1.124   5.313   7.111 -0.6461  1.0808 -0.6751
 6562TIP3    H241246   0.993   5.325   7.185  0.3804 -1.7786  1.7765
 6563TIP3   OH241247   5.089   5.353   0.277 -0.3483  0.0606 -0.0569
 6563TIP3    H141248   5.120   5.443   0.271 -0.1467  0.0055  0.1620
 6563TIP3    H241249   5.169   5.300   0.281 -0.2932 -0.4041 -3.5546
 6564TIP3   OH241250   6.106   1.754   7.496 -0.3695  0.8316  0.2450
 6564TIP3    H141251   6.086   1.765   7.589  0.5031  0.7545  0.4531
 6564TIP3    H241252   6.024   1.723   7.457 -1.1338  2.1224  0.7497
 6565TIP3   OH241253   1.024   1.516   0.364 -0.5759 -0.2237  0.0341
 6565TIP3    H141254   0.961   1.587   0.351 -1.2867 -0.8604 -0.0637
 6565TIP3    H241255   1.031   1.473   0.279 -0.8259 -0.8094  0.2996
 6566TIP3   OH241256   4.306   4.153   0.247 -0.2756  0.8946  0.0914
 6566TIP3    H141257   4.295   4.245   0.227 -0.9072  0.7790 -0.0989
 6566TIP3    H241258   4.340   4.152   0.337 -1.1956  1.2842  0.4555
 6567TIP3   OH241259   7.044   0.958   0.207 -0.6173 -0.6341 -0.8704
 6567TIP3    H141260   6.957   0.996   0.197 -0.5610 -0.6623 -1.4926
 6567TIP3    H241261   7.085   0.969   0.122  0.2025 -0.0977 -0.4211
 6568TIP3   OH241262   6.527   5.572   6.522  0.2806  0.0663 -0.0499
 6568TIP3    H141263   6.550   5.481   6.500 -1.1376 -0.3062 -0.0946
 6568TIP3    H241264   6.540   5.620   6.441  0.0706 -0.2944 -0.3022
 6569TIP3   OH241265   0.783   3.273   6.589  0.5168 -0.1012 -0.0972
 6569TIP3    H141266   0.718   3.256   6.521  1.2749 -0.6614 -0.6886
 6569TIP3    H241267   0.829   3.351   6.559  0.5812 -0.1083 -0.0172
 6570TIP3   OH241268   0.623   1.558   6.812 -0.8125  0.4224  0.1185
 6570TIP3    H141269   0.626   1.622   6.741 -0.8828 -1.5249 -1.7543
 6570TIP3    H241270   0.696   1.498   6.793 -1.1767 -0.4604  1.3770
 6571TIP3   OH241271   3.535   6.296   0.232 -0.2511 -0.0329  0.1497
 6571TIP3    H141272   3.611   6.352   0.214 -0.6447  0.2088 -0.8091
 6571TIP3    H241273   3.572   6.209   0.244  0.2306  0.1737  0.1805
 6572TIP3   OH241274   0.445   3.663   7.695 -0.3152  0.1323  0.1450
 6572TIP3    H141275   0.459   3.568   7.699 -0.8743  0.0415 -0.0134
 6572TIP3    H241276   0.428   3.689   7.785 -2.2321 -0.2519 -0.0592
 6573TIP3   OH241277   6.345   3.175   0.837 -0.1295 -0.0160  0.1262
 6573TIP3    H141278   6.360   3.242   0.904  0.5691  0.1610 -0.2023
 6573TIP3    H241279   6.291   3.109   0.881  0.1821  0.1773  0.8110
 6574TIP3   OH241280   4.289   0.427   0.343 -0.3281  0.2407 -0.1255
 6574TIP3    H141281   4.320   0.406   0.431 -1.2725 -0.9046 -0.0505
 6574TIP3    H241282   4.320   0.355   0.289 -0.6623  0.4010 -0.5318
 6575TIP3   OH241283   1.373   6.256   7.785 -0.3735 -0.2365  0.5034
 6575TIP3    H141284   1.289   6.228   7.749 -0.3240 -0.2417  0.3890
 6575TIP3    H241285   1.382   6.347   7.756 -0.4953 -0.1303  0.8013
 6576TIP3   OH241286   5.456   6.957   7.047  0.1310 -0.4305  0.5005
 6576TIP3    H141287   5.455   6.894   6.975  0.6635  0.9685 -0.7933
 6576TIP3    H241288   5.527   6.927   7.104  1.5148 -0.1140 -0.9832
 6577TIP3   OH241289   6.448   1.061   2.671  0.0879  0.0705 -0.2924
 6577TIP3    H141290   6.395   1.136   2.646  0.1017  0.0513 -0.3800
 6577TIP3    H241291   6.534   1.078   2.632  0.0246 -0.1024 -0.5133
 6578TIP3   OH241292   0.081   3.435   2.565  0.5147  0.4280 -0.4504
 6578TIP3    H141293  -0.011   3.436   2.540  0.4048  0.2758 -0.0634
 6578TIP3    H241294   0.103   3.342   2.571  0.6547  0.4637 -0.4062
 6579TIP3   OH241295   6.615   5.276   0.108  0.2012  0.0908  0.3138
 6579TIP3    H141296   6.661   5.277   0.025  1.6340  1.8543  1.0796
 6579TIP3    H241297   6.535   5.326   0.092 -1.4587 -2.7288 -0.9360
 6580TIP3   OH241298   0.147   6.576   7.376 -0.2028  0.0483 -0.6767
 6580TIP3    H141299   0.191   6.659   7.395 -0.0648 -0.1849  0.0603
 6580TIP3    H241300   0.128   6.580   7.282  1.8976 -0.0642 -1.1727
 6581TIP3   OH241301   5.388   5.239   7.525 -0.2190  0.0504 -0.4133
 6581TIP3    H141302   5.343   5.279   7.600 -2.0129 -0.1609 -1.3391
 6581TIP3    H241303   5.418   5.314   7.472  2.4378  0.2690  1.1791
 6582TIP3   OH241304   6.082   6.255   0.194 -1.0611 -0.3359  0.2772
 6582TIP3    H141305   6.069   6.161   0.181 -2.9024 -0.1774  0.7910
 6582TIP3    H241306   6.108   6.264   0.285 -1.5178 -0.3048  0.4074
 6583TIP3   OH241307   1.877   5.123   7.417 -0.4703 -0.5424 -0.3756
 6583TIP3    H141308   1.945   5.189   7.427 -1.2215 -0.0378  1.8249
 6583TIP3    H241309   1.866   5.085   7.504 -2.2365 -1.3658 -0.9010
 6584TIP3   OH241310   3.183   6.579   7.286 -0.3830 -0.3220 -0.2932
 6584TIP3    H141311   3.118   6.509   7.296  1.5398 -2.2105 -0.2000
 6584TIP3    H241312   3.192   6.590   7.191  1.0767 -2.0714 -0.4209
 6585TIP3   OH241313   4.968   4.421   7.452  0.1250  0.0644  0.7114
 6585TIP3    H141314   4.880   4.431   7.416  0.0091 -1.9572  0.3172
 6585TIP3    H241315   5.020   4.488   7.406 -0.1477 -1.9268 -2.8900
 6586TIP3   OH241316   4.624   0.672   0.373 -0.1094  0.3142 -0.3898
 6586TIP3    H141317   4.543   0.657   0.422 -0.6631  0.4226 -1.2549
 6586TIP3    H241318   4.662   0.585   0.362  0.2285  0.3257  0.5539
 6587TIP3   OH241319   6.499   3.709   0.216 -0.2592  0.0381  0.7428
 6587TIP3    H141320   6.464   3.665   0.139  1.7531 -1.1342  0.4158
 6587TIP3    H241321   6.432   3.698   0.283 -1.2495 -0.5433 -0.3141
 6588TIP3   OH241322   4.858   3.464   2.251 -0.4854  0.1895 -0.1188
 6588TIP3    H141323   4.790   3.424   2.197 -0.1307  0.6480 -0.9249
 6588TIP3    H241324   4.873   3.550   2.211  1.1920 -0.2570 -0.5091
 6589TIP3   OH241325   4.338   3.060   7.191  0.1532  0.0830  0.4375
 6589TIP3    H141326   4.297   3.047   7.277 -0.2143  1.6146  0.5184
 6589TIP3    H241327   4.360   2.972   7.162  0.3200 -0.4701  2.1163
 6590TIP3   OH241328   3.215   3.858   2.092 -0.2446 -0.0081  0.0355
 6590TIP3    H141329   3.241   3.770   2.119  0.7447 -0.1513 -1.2905
 6590TIP3    H241330   3.278   3.916   2.134 -0.1928 -0.0318 -0.0092
 6591TIP3   OH241331   6.823   0.013   2.829 -0.1796  0.3056  0.2764
 6591TIP3    H141332   6.912  -0.019   2.836 -0.1100  0.4734  0.1659
 6591TIP3    H241333   6.828   0.085   2.767 -0.8030 -1.2274 -1.6524
 6592TIP3   OH241334   0.469   4.979   7.578  0.1794 -0.0880 -0.5065
 6592TIP3    H141335   0.445   5.059   7.530  0.5174  0.0113 -0.5165
 6592TIP3    H241336   0.530   5.010   7.646 -0.5914 -0.1717  0.2369
 6593TIP3   OH241337   3.373   6.548   1.970  0.2891 -0.4738  0.3620
 6593TIP3    H141338   3.312   6.490   2.015 -0.6655  1.1756  1.2890
 6593TIP3    H241339   3.424   6.490   1.913  1.5005 -2.7194  3.4345
 6594TIP3   OH241340   3.483   2.109   7.088  0.1305 -0.7686  0.0058
 6594TIP3    H141341   3.468   2.190   7.137  2.0910 -0.6901  0.5589
 6594TIP3    H241342   3.479   2.136   6.996 -0.3536 -0.2823  0.1644
 6595TIP3   OH241343   1.208   5.769   7.521 -0.0728 -0.5074 -0.1808
 6595TIP3    H141344   1.261   5.828   7.468 -1.6369  0.1133 -1.1348
 6595TIP3    H241345   1.194   5.692   7.466  0.2554 -0.8967  0.2675
 6596TIP3   OH241346   3.583   6.856   7.750  0.5091 -0.5922  0.1499
 6596TIP3    H141347   3.642   6.868   7.676 -0.5315  0.2903 -0.5751
 6596TIP3    H241348   3.538   6.774   7.732 -0.3487  0.0318 -0.6643
 6597TIP3   OH241349   0.903   4.153   0.654  0.4938  0.1214  0.5259
 6597TIP3    H141350   0.982   4.104   0.675 -0.5267 -1.7636  0.1265
 6597TIP3    H241351   0.920   4.190   0.567  0.9733 -0.2070  0.4767
 6598TIP3   OH241352   6.826   6.073   6.693 -0.3624 -0.1353 -0.2650
 6598TIP3    H141353   6.887   6.103   6.626 -1.1852  0.6060 -0.6934
 6598TIP3    H241354   6.809   6.150   6.747 -0.5004 -0.4742  0.1819
 6599TIP3   OH241355   5.356   1.949   2.215  0.1645  0.0069  0.6636
 6599TIP3    H141356   5.381   1.928   2.305  1.0404  0.4771  0.5434
 6599TIP3    H241357   5.321   1.868   2.179 -0.5662 -0.0852  1.5497
 6600TIP3   OH241358   0.141   5.386   7.105 -0.2954  0.2060  0.6155
 6600TIP3    H141359   0.112   5.325   7.038 -0.6277  0.4698  0.5131
 6600TIP3    H241360   0.236   5.387   7.098 -0.1814 -1.3258  1.5257
 6601TIP3   OH241361   4.689   6.226   2.363 -0.1071 -0.0331  0.2590
 6601TIP3    H141362   4.731   6.167   2.426 -0.9573  0.0443  0.9241
 6601TIP3    H241363   4.761   6.280   2.329  0.2598  0.6506  1.9808
 6602TIP3   OH241364   3.263   3.276   1.442  0.2129  0.0652 -0.1315
 6602TIP3    H141365   3.198   3.267   1.373 -0.1145 -0.1648  0.2010
 6602TIP3    H241366   3.212   3.298   1.520  0.6611  1.1649 -0.1370
 6603TIP3   OH241367   3.831   1.405   6.468  0.0923 -1.0270  0.0859
 6603TIP3    H141368   3.831   1.484   6.414 -0.4086 -1.6471 -0.8531
 6603TIP3    H241369   3.897   1.422   6.536  0.4992 -0.0929 -0.5211
 6604TIP3   OH241370   7.136   4.627   7.472 -0.1426  0.0782 -0.2408
 6604TIP3    H141371   7.170   4.573   7.400 -1.6880  0.0127 -0.9601
 6604TIP3    H241372   7.092   4.700   7.429 -0.0348  0.7102  0.6876
 6605TIP3   OH241373   5.513   2.151   0.483  0.2886  0.3959 -0.1129
 6605TIP3    H141374   5.516   2.247   0.479  0.0586  0.3827 -0.6929
 6605TIP3    H241375   5.533   2.131   0.574  1.6493  0.9363 -0.2616
 6606TIP3   OH241376   4.967   5.369   1.339 -0.4648 -0.4342 -0.3094
 6606TIP3    H141377   4.956   5.279   1.370 -0.2937  0.1624  1.6534
 6606TIP3    H241378   5.061   5.380   1.326 -0.2081  0.0677  1.6397
 6607TIP3   OH241379   4.751   4.092   2.317 -0.0230  0.2224 -0.3353
 6607TIP3    H141380   4.685   4.077   2.385  2.7716 -3.2457  2.0233
 6607TIP3    H241381   4.817   4.147   2.359  0.7727 -0.2319 -0.9655
 6608TIP3   OH241382   7.074   1.151   1.382  0.0951 -0.1064 -0.3278
 6608TIP3    H141383   7.140   1.082   1.391  0.1162 -0.0211  0.2057
 6608TIP3    H241384   7.118   1.219   1.330 -0.1423 -0.7549 -1.4011
 6609TIP3   OH241385   5.814   3.728   1.463 -0.0628  0.1171  0.3729
 6609TIP3    H141386   5.820   3.755   1.371  0.9593 -0.8827  0.1182
 6609TIP3    H241387   5.904   3.709   1.488 -0.5595 -1.9359  0.8302
 6610TIP3   OH241388   2.654   4.263   7.252 -0.3279  0.1461  0.0949
 6610TIP3    H141389   2.641   4.192   7.313  0.4097 -1.5234 -1.5902
 6610TIP3    H241390   2.567   4.301   7.239 -0.9848 -1.3334  0.0015
 6611TIP3   OH241391   4.985   5.968   2.819  0.3335  0.7548 -0.0471
 6611TIP3    H141392   4.996   6.061   2.799 -0.5649  0.8790 -0.0009
 6611TIP3    H241393   4.891   5.952   2.810  0.3566  0.0501  0.8096
 6612TIP3   OH241394   0.666   0.478   2.067  0.3244  0.3464  0.5493
 6612TIP3    H141395   0.588   0.422   2.069 -0.7834  1.7451 -0.7806
 6612TIP3    H241396   0.652   0.542   2.136  0.5215  0.3180  0.6166
 6613TIP3   OH241397   4.980   4.062   6.784 -0.6205  0.7807  0.0601
 6613TIP3    H141398   5.066   4.041   6.821  0.1839  1.4471 -1.3634
 6613TIP3    H241399   4.949   4.136   6.835 -0.8283 -0.0779  1.2359
 6614TIP3   OH241400   1.076   0.056   7.880 -0.3889 -0.9903 -0.0210
 6614TIP3    H141401   1.116   0.134   7.917 -0.8695 -0.0167 -1.4665
 6614TIP3    H241402   1.150  -0.005   7.869  0.5950  0.3855 -1.6471
 6615TIP3   OH241403   3.037   6.431   6.989 -0.0275 -0.6403 -0.2424
 6615TIP3    H141404   3.029   6.342   6.957 -0.4553 -0.1837 -1.4615
 6615TIP3    H241405   3.126   6.436   7.025  0.2241 -1.3672 -0.7461
 6616TIP3   OH241406   1.927   1.254   6.900  0.2726 -0.6331 -0.0801
 6616TIP3    H141407   1.865   1.194   6.860  0.3617 -1.3700  0.8606
 6616TIP3    H241408   1.970   1.203   6.969 -0.2441  0.7396  1.3183
 6617TIP3   OH241409   2.308   1.765   7.737 -0.0080  0.5823  0.4236
 6617TIP3    H141410   2.264   1.790   7.656 -2.1803  0.9947  1.6576
 6617TIP3    H241411   2.385   1.716   7.708 -1.2297 -0.1363 -1.8754
 6618TIP3   OH241412   3.971   5.038   0.368 -0.7064  0.6557 -0.6747
 6618TIP3    H141413   3.893   5.065   0.320 -1.0758  0.0903 -0.4041
 6618TIP3    H241414   3.958   5.074   0.456 -0.6085  0.6486 -0.6575
 6619TIP3   OH241415   5.672   5.583   2.806  0.4386 -0.0953  0.0591
 6619TIP3    H141416   5.663   5.635   2.726 -0.7588  0.1947  0.3508
 6619TIP3    H241417   5.752   5.616   2.847 -0.2709  1.5432  0.2215
 6620TIP3   OH241418   2.129   3.306   1.292  0.2976 -0.6212  1.0203
 6620TIP3    H141419   2.136   3.265   1.205  1.8866  0.0110  0.8182
 6620TIP3    H241420   2.123   3.232   1.353 -0.4017 -1.0766  0.4238
 6621TIP3   OH241421   2.353   3.418   0.445  0.6797 -0.2877  0.0116
 6621TIP3    H141422   2.443   3.449   0.437  0.0929  1.2177 -1.2762
 6621TIP3    H241423   2.320   3.415   0.355 -1.0036  0.6123  0.5522
 6622TIP3   OH241424   5.359   0.969   7.648  0.8267  0.2873  0.3074
 6622TIP3    H141425   5.316   0.984   7.732  0.0458  2.3921 -0.4115
 6622TIP3    H241426   5.288   0.945   7.589  1.0315  1.0737 -0.2622
 6623TIP3   OH241427   5.786   3.993   1.541  0.0324 -0.5677 -0.3865
 6623TIP3    H141428   5.791   3.904   1.508  1.3647 -0.4939 -0.4631
 6623TIP3    H241429   5.831   4.046   1.475 -1.5536  0.3096 -0.7964
 6624TIP3   OH241430   3.912   4.816   1.748  0.0785 -0.0921 -0.2286
 6624TIP3    H141431   3.859   4.860   1.815 -0.5829 -3.1864  1.4899
 6624TIP3    H241432   4.002   4.839   1.770 -0.1509 -0.7062  1.5526
 6625TIP3   OH241433   5.833   6.349   6.551  0.2075 -0.4472 -0.1168
 6625TIP3    H141434   5.775   6.369   6.625  2.7315  1.5616  1.5109
 6625TIP3    H241435   5.843   6.253   6.553 -0.4887 -0.5145  1.5948
 6626TIP3   OH241436   1.659   2.166   1.986 -0.2809 -0.6158  0.4064
 6626TIP3    H141437   1.620   2.118   2.059 -0.4172 -1.8992 -0.4733
 6626TIP3    H241438   1.752   2.148   1.993 -0.1913 -0.0295  0.7563
 6627TIP3   OH241439   6.573   2.227   0.771  0.0241 -0.0320  0.3154
 6627TIP3    H141440   6.578   2.161   0.701  1.0035  1.8982 -1.5344
 6627TIP3    H241441   6.514   2.294   0.736  1.6521  1.6620  0.6900
 6628TIP3   OH241442   1.893   2.847   7.994  0.3232 -0.3253  0.1222
 6628TIP3    H141443   1.834   2.919   7.973  1.9953  0.8622 -0.6872
 6628TIP3    H241444   1.846   2.798   8.062 -1.5669  0.5565 -0.4507
 6629TIP3   OH241445   4.919   2.922   7.971 -0.3069 -0.1289  0.3764
 6629TIP3    H141446   4.826   2.942   7.962 -0.2119  0.9663  1.5887
 6629TIP3    H241447   4.948   2.903   7.882 -1.2958  1.3193 -0.2852
 6630TIP3   OH241448   4.952   5.801   6.191 -0.6133 -0.1336  0.1401
 6630TIP3    H141449   4.958   5.777   6.283 -3.4279 -0.8942  0.2421
 6630TIP3    H241450   5.038   5.836   6.169  0.3254 -0.4729  2.8770
 6631TIP3   OH241451   6.403   5.571   2.164  0.5184  0.0290 -0.5007
 6631TIP3    H141452   6.424   5.512   2.091 -0.2704  0.7705 -1.3455
 6631TIP3    H241453   6.452   5.651   2.145  0.4026  0.1861 -0.1524
 6632TIP3   OH241454   1.065   4.676   7.141  0.1745 -0.4907 -0.5739
 6632TIP3    H141455   1.101   4.692   7.229  1.4973 -0.5890 -1.0747
 6632TIP3    H241456   1.141   4.681   7.083 -0.9198  1.2094 -1.9436
 6633TIP3   OH241457   0.905   2.385   6.901  0.8360  0.1969 -0.0471
 6633TIP3    H141458   0.928   2.422   6.815  2.1875 -0.9249 -0.1905
 6633TIP3    H241459   0.952   2.441   6.963  2.2564 -0.7425 -0.2250
 6634TIP3   OH241460   0.264   3.067   8.002  0.2712 -0.0156  0.5602
 6634TIP3    H141461   0.284   3.143   8.056 -0.1882 -1.4514  2.8950
 6634TIP3    H241462   0.344   3.015   8.003 -0.5889 -1.4684  2.4759
 6635TIP3   OH241463   4.797   5.423   2.338  0.1508 -0.5390  0.1823
 6635TIP3    H141464   4.790   5.392   2.428 -1.0296 -1.1844 -0.1136
 6635TIP3    H241465   4.880   5.387   2.306  0.5117 -0.4080  0.9597
 6636TIP3   OH241466   5.031   2.404   6.996  0.4018  0.0667 -0.1723
 6636TIP3    H141467   5.067   2.473   6.940 -2.6952  1.1125 -1.0515
 6636TIP3    H241468   5.074   2.324   6.966  2.8368  1.3153 -0.2647
 6637TIP3   OH241469   2.870   1.972   0.471  0.0306 -0.2403 -0.1399
 6637TIP3    H141470   2.850   2.025   0.394  0.1261 -1.3382 -0.9414
 6637TIP3    H241471   2.865   2.034   0.545 -4.1954  0.1129 -0.4499
 6638TIP3   OH241472   2.656   5.558   6.894  0.2100 -0.0163 -0.3971
 6638TIP3    H141473   2.591   5.603   6.840  1.1314 -0.2268 -1.7238
 6638TIP3    H241474   2.736   5.609   6.883  0.1110  0.8060  1.9877
 6639TIP3   OH241475   2.837   3.893   0.809 -0.1622 -0.4040  0.3313
 6639TIP3    H141476   2.788   3.940   0.876  0.7110 -0.7030  1.1884
 6639TIP3    H241477   2.790   3.913   0.727 -0.8768  0.4500  0.9323
 6640TIP3   OH241478   2.806   4.420   1.811  0.2657 -0.0597 -0.2641
 6640TIP3    H141479   2.856   4.396   1.889  0.7432 -0.2095 -0.6137
 6640TIP3    H241480   2.849   4.500   1.778  1.5205 -1.2395 -1.6580
 6641TIP3   OH241481   3.873   1.570   0.987 -0.5724  0.3126  0.0201
 6641TIP3    H141482   3.827   1.635   1.040 -1.5554  1.8568 -2.5433
 6641TIP3    H241483   3.812   1.496   0.982 -0.9882  0.6484  0.0877
 6642TIP3   OH241484   4.050   0.844   6.971  0.0471  0.2328 -0.0136
 6642TIP3    H141485   3.995   0.874   7.044  0.0738 -1.8071  0.9162
 6642TIP3    H241486   3.991   0.845   6.896 -0.3208  1.2158  0.2655
 6643TIP3   OH241487   3.913   1.901   1.545 -0.5761 -0.2124 -0.1574
 6643TIP3    H141488   3.916   1.993   1.573 -0.5472 -0.1367 -0.4119
 6643TIP3    H241489   3.871   1.856   1.619  0.2174 -0.1434  0.3478
 6644TIP3   OH241490   1.590   3.714   0.231 -0.0502 -0.3019  0.0239
 6644TIP3    H141491   1.597   3.771   0.154 -0.8238  0.2320  0.3377
 6644TIP3    H241492   1.670   3.661   0.229 -0.1972 -0.5151 -1.3194
 6645TIP3   OH241493   5.679   0.896   2.358  0.3947  0.0391 -0.1163
 6645TIP3    H141494   5.633   0.818   2.326 -1.1326  0.8396  0.0126
 6645TIP3    H241495   5.655   0.902   2.450  1.2603  0.1413  0.1023
 6646TIP3   OH241496   5.230   0.483   1.684 -0.0753 -1.1011 -0.1292
 6646TIP3    H141497   5.313   0.460   1.641  1.6933  2.5467  0.9027
 6646TIP3    H241498   5.246   0.466   1.777 -0.2412  0.1001  0.1358
 6647TIP3   OH241499   3.355   2.697   1.271  0.0497  0.0052  0.7692
 6647TIP3    H141500   3.362   2.761   1.341 -1.8883  1.5699 -0.3399
 6647TIP3    H241501   3.413   2.730   1.202 -1.1198  0.7846  0.1080
 6648TIP3   OH241502   2.719   5.086   1.519  0.2586 -0.4890  0.1278
 6648TIP3    H141503   2.661   5.128   1.583  1.5791 -0.7662  1.5972
 6648TIP3    H241504   2.703   4.992   1.530 -1.0584 -0.5104 -1.5446
 6649TIP3   OH241505   2.828   3.123   7.174  0.1222 -0.2597 -0.0106
 6649TIP3    H141506   2.907   3.078   7.205  0.7224  0.8504  0.1462
 6649TIP3    H241507   2.852   3.159   7.089 -1.4515 -3.0890 -1.7966
 6650TIP3   OH241508   3.991   3.766   0.216 -0.6264  0.3735 -0.1476
 6650TIP3    H141509   4.058   3.701   0.195  0.1797  1.3280 -0.6275
 6650TIP3    H241510   3.945   3.730   0.292  0.7685 -0.0807  0.5182
 6651TIP3   OH241511   0.917   0.240   1.881  0.3067 -0.0399  0.0702
 6651TIP3    H141512   0.900   0.154   1.844  0.5905 -0.1763  0.2472
 6651TIP3    H241513   0.971   0.223   1.959  0.9369  0.3431 -0.2700
 6652TIP3   OH241514   0.998   4.961   7.239  0.2189 -0.1061  0.3382
 6652TIP3    H141515   1.060   4.933   7.306  0.2254 -0.5092  0.1640
 6652TIP3    H241516   1.053   4.984   7.164  0.1892  0.0063  0.3509
 6653TIP3   OH241517   5.334   6.686   7.169  0.0762  0.0556 -0.1869
 6653TIP3    H141518   5.306   6.626   7.238 -0.2588  0.3875 -0.0268
 6653TIP3    H241519   5.280   6.662   7.093  1.0914 -0.9132 -0.6140
 6654TIP3   OH241520   3.470   6.691   0.151  0.2832 -0.1253  0.0547
 6654TIP3    H141521   3.388   6.740   0.136 -0.5531 -1.8879 -1.4931
 6654TIP3    H241522   3.452   6.640   0.230  0.1123 -0.0798  0.0468
 6655TIP3   OH241523   3.615   0.596   7.822 -0.0767 -0.1588 -0.1269
 6655TIP3    H141524   3.578   0.555   7.901  0.2411 -0.8919 -0.3467
 6655TIP3    H241525   3.668   0.527   7.782 -0.8512 -0.0436 -1.4072
 6656TIP3   OH241526   4.470   5.743   2.854 -0.2635 -0.0456  0.2149
 6656TIP3    H141527   4.497   5.674   2.794  0.2888 -0.6205  1.1066
 6656TIP3    H241528   4.378   5.761   2.831  0.5956  1.4545 -2.3983
 6657TIP3   OH241529   3.768   6.956   1.935  0.6073 -0.0621 -0.0283
 6657TIP3    H141530   3.773   7.050   1.915  0.9093  0.2340  1.3162
 6657TIP3    H241531   3.681   6.929   1.906  0.3565  0.7368 -0.0319
 6658TIP3   OH241532   2.428   1.453   0.259 -0.6804  0.3668 -0.0781
 6658TIP3    H141533   2.500   1.411   0.213 -1.3818 -1.7680  0.6517
 6658TIP3    H241534   2.469   1.524   0.308  1.2584 -1.7343  1.5571
 6659TIP3   OH241535   4.947   4.128   2.527 -0.0493  0.3349  0.1345
 6659TIP3    H141536   4.967   4.045   2.483  1.3217  0.8213 -0.2228
 6659TIP3    H241537   4.883   4.105   2.594  0.0676 -0.9596 -0.1729
 6660TIP3   OH241538   0.137   1.474   0.764 -0.4438  0.1513  0.5494
 6660TIP3    H141539   0.125   1.395   0.710 -2.0966  0.0862  0.9724
 6660TIP3    H241540   0.225   1.505   0.741  0.5194 -2.1579  0.8410
 6661TIP3   OH241541   2.348   6.835   7.537 -0.0860 -0.2562  0.0798
 6661TIP3    H141542   2.277   6.876   7.586 -0.8072 -2.0373  0.6021
 6661TIP3    H241543   2.423   6.837   7.598 -0.7875 -1.8474  1.0413
 6662TIP3   OH241544   3.918   1.663   1.313 -0.2936 -0.1538 -0.5881
 6662TIP3    H141545   3.999   1.710   1.333 -0.8937  1.1331 -1.0117
 6662TIP3    H241546   3.946   1.574   1.293  0.9027  0.0137  0.2344
 6663TIP3   OH241547   5.014   3.700   7.979 -0.2737  0.2323 -0.5893
 6663TIP3    H141548   5.001   3.613   7.944 -1.1880 -0.1026  0.4976
 6663TIP3    H241549   5.108   3.715   7.974 -0.1402 -0.7118 -1.0195
 6664TIP3   OH241550   6.946   0.304   0.308 -0.2228 -0.2174 -0.3172
 6664TIP3    H141551   6.974   0.266   0.225  2.8504  1.3180 -0.1490
 6664TIP3    H241552   6.872   0.359   0.286  0.1499 -0.3157 -1.9305
 6665TIP3   OH241553   6.996   3.209   6.881  0.0762 -0.5717  0.1115
 6665TIP3    H141554   6.957   3.121   6.876 -1.7340  0.0691  1.5204
 6665TIP3    H241555   7.088   3.196   6.859 -0.2731 -2.7135 -0.3422
 6666TIP3   OH241556   6.793   2.828   0.074  0.0119 -0.2132  0.3444
 6666TIP3    H141557   6.802   2.733   0.069  0.2668 -0.2427  1.3203
 6666TIP3    H241558   6.838   2.853   0.155 -0.3864  0.6951  0.2981
 6667TIP3   OH241559   0.497   6.747   0.083 -0.7376 -0.5729 -1.1394
 6667TIP3    H141560   0.563   6.688   0.118  0.9935  1.8330 -0.0733
 6667TIP3    H241561   0.497   6.730  -0.012  1.6768 -0.4334 -1.2092
 6668TIP3   OH241562   3.226   1.928   1.536 -0.7361 -0.5497 -0.2503
 6668TIP3    H141563   3.301   1.978   1.503 -0.8360  0.2669  0.6858
 6668TIP3    H241564   3.236   1.931   1.632 -0.5266 -2.6972 -0.1653
 6669TIP3   OH241565   0.184   0.186   1.418  0.5214  0.1565  0.1514
 6669TIP3    H141566   0.181   0.098   1.380 -0.0714  0.5015 -0.6340
 6669TIP3    H241567   0.252   0.231   1.368 -1.1805  1.0321 -1.5076
 6670TIP3   OH241568   4.681   6.597   1.232  0.4636  0.3119 -0.5924
 6670TIP3    H141569   4.760   6.579   1.283  0.6653 -0.7290 -1.2399
 6670TIP3    H241570   4.689   6.541   1.155 -0.6439  0.6142 -0.9464
 6671TIP3   OH241571   1.005   0.087   6.169  0.4545 -0.0531  0.0480
 6671TIP3    H141572   0.930   0.054   6.120  0.2019 -1.5110  1.3426
 6671TIP3    H241573   0.973   0.097   6.259  1.6622 -0.1815  0.5121
 6672TIP3   OH241574   3.926   3.865   0.833  0.5604 -0.5450 -0.0503
 6672TIP3    H141575   4.000   3.829   0.784  0.3713 -0.9866 -0.0125
 6672TIP3    H241576   3.926   3.958   0.810  0.4957 -0.7372 -0.8684
 6673TIP3   OH241577   1.988   6.755   7.016  0.3665 -0.7199 -0.2747
 6673TIP3    H141578   1.974   6.805   7.096  0.4796 -0.7190 -0.2548
 6673TIP3    H241579   1.900   6.734   6.985  0.2335  1.1850 -1.3629
 6674TIP3   OH241580   2.265   5.447   6.779 -0.0624 -0.1706  0.0172
 6674TIP3    H141581   2.264   5.533   6.823 -1.4378  0.4555 -1.1369
 6674TIP3    H241582   2.275   5.384   6.850  0.9749  0.9344  0.8986
 6675TIP3   OH241583   2.786   1.759   0.638  0.2407 -0.1023  0.2111
 6675TIP3    H141584   2.749   1.805   0.714 -2.5484 -1.6790 -0.0355
 6675TIP3    H241585   2.817   1.828   0.580 -2.9751  1.5287  0.2302
 6676TIP3   OH241586   2.061   2.365   7.609 -0.6174  0.5654  0.4589
 6676TIP3    H141587   2.112   2.395   7.534 -0.8952  0.2959  0.1559
 6676TIP3    H241588   2.079   2.271   7.615 -1.2927  0.4084  0.1674
 6677TIP3   OH241589   4.209   1.891   7.191  0.1147 -0.1867 -0.0790
 6677TIP3    H141590   4.159   1.963   7.229  0.8847 -0.6125  1.8617
 6677TIP3    H241591   4.300   1.923   7.190  0.5480 -1.2653  1.2905
 6678TIP3   OH241592   2.468   3.446   6.818 -0.0485  0.6311  0.0019
 6678TIP3    H141593   2.375   3.454   6.838 -0.0545  1.2824 -0.2969
 6678TIP3    H241594   2.488   3.520   6.761  1.1197  1.7685  1.7683
 6679TIP3   OH241595   2.454   2.576   0.678  0.2224  0.2241  0.1746
 6679TIP3    H141596   2.459   2.642   0.747  0.2494  0.0721  0.3181
 6679TIP3    H241597   2.384   2.517   0.706  2.0334 -1.4598  1.4960
 6680TIP3   OH241598   2.809   7.127   0.996 -0.3045  0.0054 -0.2905
 6680TIP3    H141599   2.848   7.171   0.921  0.6195 -0.5841 -0.1671
 6680TIP3    H241600   2.868   7.054   1.015 -1.2801 -0.7045  0.1226
 6681TIP3   OH241601   2.737   3.412   7.705  0.2900 -0.0779  0.1889
 6681TIP3    H141602   2.773   3.474   7.641 -0.0356  1.0644  1.0804
 6681TIP3    H241603   2.771   3.441   7.789 -2.2497  0.7763  1.0230
 6682TIP3   OH241604   3.711   0.147   0.417 -0.1032 -0.1016  0.2245
 6682TIP3    H141605   3.718   0.225   0.362 -0.5690 -0.6189 -0.5935
 6682TIP3    H241606   3.783   0.091   0.388 -0.5432 -0.5124 -0.1038
 6683TIP3   OH241607   5.304   3.738   1.050  0.0247 -0.7650  0.4652
 6683TIP3    H141608   5.365   3.695   1.110  1.5444  0.0825 -0.3957
 6683TIP3    H241609   5.267   3.810   1.100 -0.3573 -1.3447  1.0306
 6684TIP3   OH241610   0.336   1.611   7.519 -0.5153  0.1013 -0.5126
 6684TIP3    H141611   0.423   1.572   7.509 -0.1322  1.1318 -1.4519
 6684TIP3    H241612   0.293   1.557   7.586  0.2447 -1.4565 -1.2129
 6685TIP3   OH241613   1.337   0.035   2.192 -0.3529  0.4751  0.4602
 6685TIP3    H141614   1.375   0.106   2.244 -2.5558  2.4398 -0.4185
 6685TIP3    H241615   1.406   0.012   2.130  0.7974  1.0883  1.4606
 6686TIP3   OH241616   3.320   4.630   7.830 -0.0668 -0.6919  0.7313
 6686TIP3    H141617   3.294   4.541   7.806  1.3664 -0.8874 -0.2435
 6686TIP3    H241618   3.415   4.626   7.840 -0.2172  0.1836  3.2440
 6687TIP3   OH241619   1.777   5.121   1.353 -0.1874  0.3295  0.6219
 6687TIP3    H141620   1.765   5.105   1.447 -2.8784 -0.0031  0.2831
 6687TIP3    H241621   1.762   5.037   1.312  1.9010  0.2543 -0.1221
 6688TIP3   OH241622   2.650   3.758   7.728  0.5279 -0.5598 -0.0363
 6688TIP3    H141623   2.640   3.811   7.807  2.1612 -0.3797  0.0866
 6688TIP3    H241624   2.585   3.793   7.667  1.5931  1.6921  0.0020
 6689TIP3   OH241625   6.288   5.115   2.306  0.0401 -0.2978  0.2797
 6689TIP3    H141626   6.199   5.148   2.314  0.0768  0.0648 -0.6921
 6689TIP3    H241627   6.342   5.182   2.346 -0.1135 -0.4776  0.7916
 6690TIP3   OH241628   5.003   1.040   7.288  0.2936  0.2408 -0.0104
 6690TIP3    H141629   5.061   0.978   7.333 -0.4156 -0.9849 -0.7483
 6690TIP3    H241630   5.051   1.065   7.210  1.0150  1.4538  0.7783
 6691TIP3   OH241631   2.806   2.433   1.575 -0.3371  0.2640 -0.1568
 6691TIP3    H141632   2.734   2.482   1.614 -0.9948 -0.0820 -0.9079
 6691TIP3    H241633   2.815   2.356   1.631 -0.6245  0.2587 -0.1128
 6692TIP3   OH241634   6.167   3.018   1.667  0.0583  0.0261 -0.4408
 6692TIP3    H141635   6.156   2.996   1.760  0.1292 -0.0602 -0.4529
 6692TIP3    H241636   6.096   3.080   1.649 -1.8515 -2.2136 -1.0770
 6693TIP3   OH241637   1.750   0.872   1.200 -0.6036 -0.6678  0.0923
 6693TIP3    H141638   1.796   0.802   1.246  0.5699 -0.3099 -0.5195
 6693TIP3    H241639   1.775   0.862   1.108  0.4007  1.1285  0.1114
 6694TIP3   OH241640   4.542   4.675   7.218 -0.6179  0.2420 -0.8384
 6694TIP3    H141641   4.451   4.650   7.235 -0.3254 -2.2585 -2.3243
 6694TIP3    H241642   4.593   4.622   7.279 -0.1168  1.2554 -0.3575
 6695TIP3   OH241643   3.476   0.357   1.723 -0.4567 -1.0115  0.5547
 6695TIP3    H141644   3.396   0.365   1.671  0.0800 -2.3528 -0.5511
 6695TIP3    H241645   3.543   0.402   1.671 -0.5134  0.4010  1.6319
 6696TIP3   OH241646   6.058   6.872   1.370 -0.4791 -0.1948  0.0365
 6696TIP3    H141647   5.988   6.936   1.367 -1.8210 -1.3891  2.7826
 6696TIP3    H241648   6.129   6.915   1.417 -0.7864 -0.1922  0.4990
 6697TIP3   OH241649   6.798   0.505   1.988  0.2971 -0.2489  0.1762
 6697TIP3    H141650   6.740   0.496   2.063 -2.3992  2.1247 -1.4018
 6697TIP3    H241651   6.840   0.590   2.000  0.2902 -0.1141 -0.6692
 6698TIP3   OH241652   2.884   4.685   7.785 -0.3529  0.2985 -0.7714
 6698TIP3    H141653   2.974   4.713   7.769 -0.5783  0.9978 -0.8833
 6698TIP3    H241654   2.836   4.767   7.796 -0.9141 -0.0782 -0.3719
 6699TIP3   OH241655   6.137   6.421   1.280  0.6426  0.2856 -0.0614
 6699TIP3    H141656   6.184   6.387   1.204  1.9699  0.5020  0.6298
 6699TIP3    H241657   6.168   6.511   1.289 -0.2657  0.5850  0.1477
 6700TIP3   OH241658   2.247   3.612   1.564 -0.0975  0.6244 -0.6371
 6700TIP3    H141659   2.184   3.549   1.599  0.8564 -0.6139 -1.0654
 6700TIP3    H241660   2.213   3.636   1.479  0.3002 -0.5421 -1.1487
 6701TIP3   OH241661   0.049   3.529   0.907  0.3559 -0.0884  0.7145
 6701TIP3    H141662  -0.023   3.480   0.946  0.0444 -0.5180 -0.3846
 6701TIP3    H241663   0.118   3.527   0.974 -1.5161  2.6271  2.9611
 6702TIP3   OH241664   0.925   2.024   7.911  0.1331  0.0011 -0.3743
 6702TIP3    H141665   0.949   1.988   7.996  0.5648  0.6748 -0.2071
 6702TIP3    H241666   0.985   2.097   7.898 -1.0933  1.0228 -0.4664
 6703TIP3   OH241667   6.967   5.759   7.632 -0.8274 -0.4397 -0.3942
 6703TIP3    H141668   6.881   5.722   7.645 -0.9012 -0.0637  0.2606
 6703TIP3    H241669   6.966   5.794   7.543 -1.0106 -1.2998 -0.7346
 6704TIP3   OH241670   2.927   3.777   7.794 -0.1725  0.5509  0.0447
 6704TIP3    H141671   2.973   3.822   7.723  0.0269  0.2619 -0.0132
 6704TIP3    H241672   2.835   3.776   7.766 -0.1774  0.9131  0.0449
 6705TIP3   OH241673   1.469   3.948   1.788  0.2660 -0.2738 -0.3220
 6705TIP3    H141674   1.518   3.963   1.707 -1.1247 -2.3787 -1.6486
 6705TIP3    H241675   1.513   3.874   1.829  0.1214 -0.1022  0.1430
 6706TIP3   OH241676   0.140   6.989   6.459 -0.3386  0.0773  0.0033
 6706TIP3    H141677   0.109   6.956   6.375  1.1910 -1.4344 -0.0382
 6706TIP3    H241678   0.156   7.082   6.444  0.3714 -0.2582 -1.5675
 6707TIP3   OH241679   4.723   7.078   7.574  0.0590  0.2699 -0.4936
 6707TIP3    H141680   4.711   7.107   7.665  1.9277  0.2031 -0.1809
 6707TIP3    H241681   4.765   6.992   7.581  1.3839  0.8020 -1.3822
 6708TIP3   OH241682   5.707   0.080   1.458  0.0306 -0.3185  0.1912
 6708TIP3    H141683   5.664   0.151   1.506  2.2080  0.4284  1.1599
 6708TIP3    H241684   5.681   0.000   1.504 -1.6687 -0.0868 -0.3185
 6709TIP3   OH241685   2.066   4.905   1.096 -0.0142 -0.2726  0.5431
 6709TIP3    H141686   2.019   4.957   1.161  0.6772  0.6860  0.2888
 6709TIP3    H241687   2.121   4.968   1.050 -1.8616 -0.5364 -2.2795
 6710TIP3   OH241688   4.799   6.367   0.052  0.0857  0.4927 -0.7888
 6710TIP3    H141689   4.727   6.312   0.023  1.2087 -1.8164  0.5232
 6710TIP3    H241690   4.844   6.393  -0.028 -1.8600  1.6059 -1.5984
 6711TIP3   OH241691   3.453   2.564   7.950 -0.0536  0.1527 -0.0509
 6711TIP3    H141692   3.387   2.495   7.941 -0.8643  0.4702  2.5737
 6711TIP3    H241693   3.408   2.643   7.921  0.0397 -0.0229 -0.6857
 6712TIP3   OH241694   2.093   3.190   0.024  0.1809  0.6866  0.4530
 6712TIP3    H141695   2.165   3.174   0.085  2.0663  1.4039 -1.4433
 6712TIP3    H241696   2.104   3.122  -0.043 -3.3110 -1.6640  1.9771
 6713TIP3   OH241697   6.541   5.900   1.475  0.1062 -0.1122  0.0602
 6713TIP3    H141698   6.597   5.831   1.511 -0.0721  0.3470  1.2571
 6713TIP3    H241699   6.512   5.950   1.551  0.9858  1.8748 -0.8194
 6714TIP3   OH241700   4.705   2.031   6.728  0.6296  0.5139  0.2028
 6714TIP3    H141701   4.763   1.976   6.780 -0.5303  0.2778  1.2897
 6714TIP3    H241702   4.628   2.044   6.783 -1.2994 -0.9200 -1.9704
 6715TIP3   OH241703   4.783   5.705   2.660  0.3475 -0.3634 -0.4043
 6715TIP3    H141704   4.697   5.666   2.646  0.6943 -0.9926 -0.8089
 6715TIP3    H241705   4.766   5.780   2.717 -0.5189 -0.2334 -0.8244
 6716TIP3   OH241706   0.681   3.728   2.208 -0.1942  0.3749  0.4085
 6716TIP3    H141707   0.752   3.694   2.153  0.1761 -0.5811  1.4214
 6716TIP3    H241708   0.624   3.775   2.148  0.3219 -0.4244 -0.7485
 6717TIP3   OH241709   1.929   6.871   1.591 -0.5453 -0.1775 -0.2062
 6717TIP3    H141710   1.914   6.869   1.685 -1.0767  0.6689 -0.2586
 6717TIP3    H241711   1.874   6.801   1.556 -2.7258  1.3703 -0.1486
 6718TIP3   OH241712   4.498   0.546   1.686  0.4451  0.2925 -0.1314
 6718TIP3    H141713   4.461   0.612   1.627 -0.1927 -0.4757 -0.6113
 6718TIP3    H241714   4.526   0.596   1.763 -0.6242  1.0545 -0.2034
 6719TIP3   OH241715   4.125   5.536   7.545 -1.0138 -0.0143  0.2364
 6719TIP3    H141716   4.214   5.499   7.548 -0.7678  0.6216  1.6953
 6719TIP3    H241717   4.129   5.603   7.477 -0.8730 -1.1582 -0.9233
 6720TIP3   OH241718   4.978   4.911   6.883  0.1571  0.5119  0.0898
 6720TIP3    H141719   4.999   4.846   6.950  2.5585  1.0466 -0.0464
 6720TIP3    H241720   4.926   4.863   6.818 -2.1582 -0.0362  2.2032
 6721TIP3   OH241721   6.373   4.275   6.970  0.5907 -0.2032  0.4175
 6721TIP3    H141722   6.368   4.370   6.960  3.1048  0.0027  0.3189
 6721TIP3    H241723   6.288   4.250   7.006 -0.3494  1.9903 -0.0983
 6722TIP3   OH241724   3.929   1.625   6.672 -0.1750 -0.1491 -0.3606
 6722TIP3    H141725   3.943   1.582   6.757 -2.1267  1.0979  0.6822
 6722TIP3    H241726   3.952   1.717   6.689 -0.6305  0.1171 -1.1714
 6723TIP3   OH241727   0.204   3.676   6.766  0.2132 -0.1328 -0.0951
 6723TIP3    H141728   0.214   3.768   6.742  1.6980 -0.4041 -0.6042
 6723TIP3    H241729   0.162   3.678   6.852  0.4074  1.0219 -0.0149
 6724TIP3   OH241730   6.335   1.143   0.669  0.8350  0.1770 -0.5200
 6724TIP3    H141731   6.273   1.213   0.652  2.7057  1.2829 -3.5887
 6724TIP3    H241732   6.300   1.067   0.622 -0.1795 -0.4216  1.1434
 6725TIP3   OH241733   4.092   1.279   6.644  0.2104  0.6028  0.3288
 6725TIP3    H141734   4.185   1.298   6.634  0.0063  1.1446 -0.6723
 6725TIP3    H241735   4.068   1.320   6.727  1.3013 -1.3812  1.7105
 6726TIP3   OH241736   6.440   5.611   6.826 -0.0414 -0.3174 -0.1565
 6726TIP3    H141737   6.488   5.574   6.752  1.4180  1.3235 -0.1104
 6726TIP3    H241738   6.508   5.639   6.887 -1.1949 -1.6456  1.8766
 6727TIP3   OH241739   3.855   0.785   7.937 -0.2706  0.1382 -0.2202
 6727TIP3    H141740   3.846   0.873   7.973 -0.6378  0.1093 -0.2327
 6727TIP3    H241741   3.798   0.731   7.992  0.3555 -0.1865  0.1102
 6728TIP3   OH241742   3.150   7.018   0.842 -0.6107 -0.0434  0.1226
 6728TIP3    H141743   3.100   6.943   0.872 -2.4955  0.9573 -0.3799
 6728TIP3    H241744   3.112   7.092   0.889  0.3158  0.7664 -0.3759
 6729TIP3   OH241745   4.642   4.738   1.423  0.2997  0.6298  0.2770
 6729TIP3    H141746   4.652   4.654   1.378 -1.3600  0.3578  0.3506
 6729TIP3    H241747   4.575   4.785   1.373 -0.3088  1.0379  1.4205
 6730TIP3   OH241748   3.217   3.134   0.203  0.7928  0.1323 -0.4702
 6730TIP3    H141749   3.268   3.056   0.226 -1.3401 -0.6971  1.9182
 6730TIP3    H241750   3.277   3.207   0.216  1.6916 -0.8616  1.2654
 6731TIP3   OH241751   5.708   6.530   1.957 -0.0565  0.2279 -0.4400
 6731TIP3    H141752   5.657   6.548   2.036  0.8487 -0.8230  0.4168
 6731TIP3    H241753   5.769   6.604   1.951  1.3336 -0.6961  1.1239
 6732TIP3   OH241754   6.280   5.712   7.601  0.0447 -0.0278  1.0370
 6732TIP3    H141755   6.356   5.699   7.545 -0.4103  1.0541  0.1346
 6732TIP3    H241756   6.309   5.777   7.666 -0.0342  0.2353  0.8137
 6733TIP3   OH241757   3.212   3.557   0.174 -0.3562 -0.1504  0.3766
 6733TIP3    H141758   3.254   3.634   0.136 -0.8605 -0.8945 -1.8416
 6733TIP3    H241759   3.134   3.591   0.218 -0.4020  0.6609 -0.3078
 6734TIP3   OH241760   4.574   0.366   1.985 -0.2522  0.7079  0.2939
 6734TIP3    H141761   4.505   0.429   2.005 -0.5050  0.7854 -0.7339
 6734TIP3    H241762   4.611   0.341   2.070 -1.1724  1.0864  0.8127
 6735TIP3   OH241763   3.640   2.277   0.122  0.5787  0.2832  0.0536
 6735TIP3    H141764   3.653   2.302   0.031  1.0689  0.5389  0.1945
 6735TIP3    H241765   3.656   2.357   0.172  0.8193  0.0184  0.4027
 6736TIP3   OH241766   6.624   6.939   0.073 -0.3778  0.5182 -0.2127
 6736TIP3    H141767   6.607   6.941   0.167  1.1979  0.2276  0.1142
 6736TIP3    H241768   6.538   6.947   0.032 -1.2103 -0.5191  1.2623
 6737TIP3   OH241769   7.139   0.775   0.387 -0.0366 -0.1091  0.1704
 6737TIP3    H141770   7.098   0.846   0.337  0.4549  1.6467  2.1036
 6737TIP3    H241771   7.066   0.719   0.413 -1.1332  1.9513  1.9838
 6738TIP3   OH241772   1.232   4.108   7.581  0.2688  0.3889  0.3960
 6738TIP3    H141773   1.323   4.082   7.565  0.5063  1.3529  0.0732
 6738TIP3    H241774   1.182   4.062   7.514  0.5882  0.2411  0.2556
 6739TIP3   OH241775   0.077   3.729   7.004 -0.0059 -0.1680 -0.8562
 6739TIP3    H141776  -0.006   3.767   6.975 -1.6487 -2.1850  0.9184
 6739TIP3    H241777   0.131   3.805   7.025 -1.3520  1.2054 -2.0539
 6740TIP3   OH241778   1.252   4.076   7.181  0.4303  0.0889  0.4698
 6740TIP3    H141779   1.253   3.984   7.207  1.7199 -0.2307 -0.5904
 6740TIP3    H241780   1.176   4.084   7.124  0.2480 -0.2951  0.6561
 6741TIP3   OH241781   6.323   1.159   1.058  0.1314  0.1701 -0.3914
 6741TIP3    H141782   6.387   1.092   1.035 -0.3383  0.0103 -1.2750
 6741TIP3    H241783   6.376   1.235   1.083  0.6856  0.1512 -1.4396
 6742TIP3   OH241784   5.341   5.867   7.214 -0.3977  0.5213 -0.4957
 6742TIP3    H141785   5.262   5.893   7.166 -1.1690  1.7181  1.3278
 6742TIP3    H241786   5.310   5.802   7.277  0.3463  0.0128 -0.6405
 6743TIP3   OH241787   1.868   1.893   1.327  0.3041  0.1060 -0.1214
 6743TIP3    H141788   1.816   1.900   1.247  2.8481 -1.4742 -2.0787
 6743TIP3    H241789   1.866   1.800   1.349  1.1006  0.2408  0.5793
 6744TIP3   OH241790   2.055   1.763   7.878 -0.4470  0.1204  0.1308
 6744TIP3    H141791   2.038   1.669   7.876 -0.4501  0.0138  2.6125
 6744TIP3    H241792   2.120   1.778   7.809 -0.0257 -1.7862  0.0754
 6745TIP3   OH241793   5.068   1.806   1.282  0.5775 -0.3514 -0.5173
 6745TIP3    H141794   5.056   1.723   1.326  0.3590  0.2768  0.6393
 6745TIP3    H241795   4.983   1.850   1.289  0.6534 -0.0702 -1.2277
 6746TIP3   OH241796   7.039   4.828   1.897  0.1717 -0.1035 -0.1499
 6746TIP3    H141797   6.951   4.846   1.864  0.7822  1.3876 -1.0639
 6746TIP3    H241798   7.083   4.783   1.824  0.4289 -0.0520 -0.0277
 6747TIP3   OH241799   3.962   1.309   7.135  0.5808 -0.0049 -0.1137
 6747TIP3    H141800   3.924   1.252   7.202 -2.7704  0.4539 -1.4454
 6747TIP3    H241801   4.052   1.277   7.124 -0.2549 -3.1473  1.1999
 6748TIP3   OH241802   2.861   2.352   2.236 -0.2890  0.5621 -0.4027
 6748TIP3    H141803   2.832   2.372   2.147 -0.3283  0.2165 -0.4705
 6748TIP3    H241804   2.794   2.292   2.269  1.5935 -2.3308 -1.4546
 6749TIP3   OH241805   0.590   3.614   2.793  0.3793 -0.0448  0.2610
 6749TIP3    H141806   0.507   3.628   2.838  0.4834 -2.5570  1.3727
 6749TIP3    H241807   0.657   3.641   2.856  0.4498 -0.3974  0.3402
 6750TIP3   OH241808   2.393   6.860   1.964 -0.3263 -0.1223  0.0569
 6750TIP3    H141809   2.322   6.897   1.910 -1.6932 -0.0616  1.8023
 6750TIP3    H241810   2.416   6.931   2.024 -0.8380 -1.0834  1.4239
 6751TIP3   OH241811   5.682   2.548   0.954 -0.0365 -0.1565 -1.0624
 6751TIP3    H141812   5.687   2.465   0.906 -0.5296  0.7149 -2.6914
 6751TIP3    H241813   5.597   2.585   0.929  0.8916  1.6266 -1.7623
 6752TIP3   OH241814   4.356   2.637   2.536 -0.3469  0.2843  0.2271
 6752TIP3    H141815   4.423   2.595   2.482 -0.7761  2.3901 -2.1807
 6752TIP3    H241816   4.274   2.598   2.508 -0.4365  0.1872  0.6157
 6753TIP3   OH241817   5.334   5.551   1.061 -0.3012  0.5277 -0.1523
 6753TIP3    H141818   5.424   5.530   1.084  0.0261 -0.9804 -2.4513
 6753TIP3    H241819   5.335   5.644   1.041  1.2973  0.1500 -2.1599
 6754TIP3   OH241820   5.045   3.414   1.681 -0.1025  0.1362  0.1228
 6754TIP3    H141821   5.122   3.470   1.675 -1.1487  1.7182  0.6489
 6754TIP3    H241822   5.054   3.353   1.609  1.9661 -0.1752  0.5828
 6755TIP3   OH241823   1.405   3.058   0.067  0.2737 -0.5056  0.7481
 6755TIP3    H141824   1.346   3.073   0.141 -2.6486 -1.1206 -1.2438
 6755TIP3    H241825   1.388   3.131   0.008  2.4602 -0.0855  0.5505
 6756TIP3   OH241826   1.823   2.652   0.979 -0.7689  0.0068 -0.4801
 6756TIP3    H141827   1.891   2.630   0.915 -0.2775 -1.9724  0.6276
 6756TIP3    H241828   1.759   2.582   0.971 -0.4650 -0.5536  1.4490
 6757TIP3   OH241829   3.828   6.637   6.162 -0.1728  0.2384  0.2577
 6757TIP3    H141830   3.909   6.650   6.211  0.4009 -1.0545 -0.3003
 6757TIP3    H241831   3.813   6.542   6.165 -0.8646  0.2967 -0.9063
 6758TIP3   OH241832   5.213   1.279   0.459 -0.1052 -0.3914  0.2334
 6758TIP3    H141833   5.270   1.354   0.444  0.0477 -0.4265  0.6280
 6758TIP3    H241834   5.267   1.217   0.509 -0.9113  0.1371  1.8287
 6759TIP3   OH241835   0.721   5.684   7.397 -0.2314  0.4400 -0.1008
 6759TIP3    H141836   0.636   5.671   7.440 -0.6850 -0.7394 -1.2899
 6759TIP3    H241837   0.712   5.769   7.352 -1.5005 -0.4888 -1.7318
 6760TIP3   OH241838   5.536   4.411   2.797  0.1485 -0.3577 -0.0694
 6760TIP3    H141839   5.493   4.376   2.719  0.6838 -0.1051 -0.4859
 6760TIP3    H241840   5.607   4.466   2.762  0.1972  0.0043  0.5910
 6761TIP3   OH241841   3.791   1.018   0.194 -0.2360 -0.7434 -0.6296
 6761TIP3    H141842   3.884   0.998   0.202 -0.1217 -0.7645 -1.8160
 6761TIP3    H241843   3.781   1.105   0.233  0.4506 -0.3617 -1.2796
 6762TIP3   OH241844   3.545   0.962   0.817  0.0564 -0.8333  0.3068
 6762TIP3    H141845   3.509   0.962   0.906 -0.4117 -0.4066  0.1295
 6762TIP3    H241846   3.474   0.926   0.763  0.3343 -1.0805  0.1069
 6763TIP3   OH241847   1.282   5.227   6.984  1.1324 -0.3357  0.2409
 6763TIP3    H141848   1.359   5.264   6.941  0.1219  0.5120 -0.8963
 6763TIP3    H241849   1.307   5.222   7.076  2.4071  0.2772 -0.0407
 6764TIP3   OH241850   0.050   2.218   7.725 -0.1156  0.8435 -0.3733
 6764TIP3    H141851  -0.012   2.163   7.678  2.1144 -2.1882 -0.0991
 6764TIP3    H241852   0.113   2.245   7.658  0.5807  0.2774  0.0298
 6765TIP3   OH241853   2.180   6.658   1.938 -0.1277 -0.0327 -0.2607
 6765TIP3    H141854   2.176   6.632   2.030  0.8850  2.1806  0.4649
 6765TIP3    H241855   2.247   6.726   1.935 -0.5590  0.3655 -2.5434
 6766TIP3   OH241856   2.019   2.403   0.907  0.2776 -0.1352  0.2336
 6766TIP3    H141857   1.978   2.365   0.985 -0.5028 -1.6177 -0.8515
 6766TIP3    H241858   1.952   2.396   0.839  1.0163  0.9433 -0.6348
 6767TIP3   OH241859   2.022   5.924   1.851  0.5174  0.6555 -0.3104
 6767TIP3    H141860   2.045   5.864   1.780  1.9893 -1.4448  1.7666
 6767TIP3    H241861   2.094   5.988   1.853  2.8287 -1.7623  1.7505
 6768TIP3   OH241862   3.108   0.296   1.790 -1.3187 -0.1633  0.8730
 6768TIP3    H141863   3.048   0.222   1.782 -1.3860  0.0896 -3.2943
 6768TIP3    H241864   3.178   0.276   1.728 -1.3828  3.2082 -0.4758
 6769TIP3   OH241865   1.762   2.601   0.100 -0.1830 -0.4355 -0.8108
 6769TIP3    H141866   1.773   2.508   0.081  0.5128 -0.8896  1.5385
 6769TIP3    H241867   1.679   2.607   0.147  0.8496 -0.2403  1.0566
 6770TIP3   OH241868   1.937   4.831   1.464  0.1806 -0.0926 -0.4437
 6770TIP3    H141869   1.921   4.797   1.376  1.4873 -0.3530 -0.5960
 6770TIP3    H241870   2.027   4.805   1.484  0.2247  0.7781  0.5920
 6771TIP3   OH241871   0.208   2.110   0.868  0.1745  0.3940  0.0377
 6771TIP3    H141872   0.232   2.193   0.826 -0.6104  1.1219  0.9671
 6771TIP3    H241873   0.116   2.097   0.843  0.2431 -0.1105  0.0386
 6772TIP3   OH241874   3.952   4.705   7.867  0.4702 -0.1151 -0.8583
 6772TIP3    H141875   3.962   4.795   7.899 -0.7117  0.3732 -1.7743
 6772TIP3    H241876   3.897   4.662   7.934 -1.5110  0.7411 -1.8380
 6773TIP3   OH241877   3.847   5.225   7.857  0.4051 -0.2882 -0.1814
 6773TIP3    H141878   3.822   5.317   7.852 -0.1791 -0.4972 -1.8778
 6773TIP3    H241879   3.764   5.177   7.851  0.8315 -0.9337 -1.4182
 6774TIP3   OH241880   0.151   3.504   7.810  0.1762 -0.6878 -0.4392
 6774TIP3    H141881   0.089   3.498   7.882 -0.1937 -1.5142 -0.8100
 6774TIP3    H241882   0.103   3.548   7.740  1.1628  2.0075  0.4350
 6775TIP3   OH241883   6.158   3.691   6.350 -0.0675 -0.1775 -0.3131
 6775TIP3    H141884   6.064   3.688   6.367  0.1002  0.4865  0.8437
 6775TIP3    H241885   6.186   3.775   6.385  0.9830 -0.4169 -0.5424
 6776TIP3   OH241886   4.711   3.310   6.823  0.1881  0.3206 -0.4451
 6776TIP3    H141887   4.653   3.288   6.896 -1.3017 -1.1691 -1.9743
 6776TIP3    H241888   4.793   3.265   6.844 -0.0434  0.3407  0.5510
 6777TIP3   OH241889   3.924   1.142   7.645  0.3287  0.5151  0.1686
 6777TIP3    H141890   3.880   1.182   7.719  0.3574 -0.4351  0.7241
 6777TIP3    H241891   3.882   1.056   7.635  0.8506  0.3106 -0.4130
 6778TIP3   OH241892   6.774   3.511   7.045  0.3777  0.4296 -0.8886
 6778TIP3    H141893   6.863   3.520   7.079  0.5095 -1.0083 -0.8303
 6778TIP3    H241894   6.774   3.566   6.966  1.1877  0.7746 -0.6631
 6779TIP3   OH241895   1.443   5.777   0.363 -0.4255  0.4905 -0.0171
 6779TIP3    H141896   1.354   5.809   0.349 -0.0439  1.6894  0.1466
 6779TIP3    H241897   1.469   5.741   0.278 -1.6038 -1.3306  0.3538
 6780TIP3   OH241898   5.994   0.568   6.936  0.1055  0.1969 -0.0775
 6780TIP3    H141899   6.056   0.494   6.936  0.5216  0.5269 -0.9621
 6780TIP3    H241900   6.049   0.645   6.950 -0.0589  0.5213 -1.1419
 6781TIP3   OH241901   4.620   3.589   6.593  0.7308  0.2630 -0.2461
 6781TIP3    H141902   4.556   3.646   6.635  0.7685  0.1964 -0.0976
 6781TIP3    H241903   4.632   3.626   6.506  1.4517  1.0238  0.1662
 6782TIP3   OH241904   4.982   3.322   0.324 -0.0153  0.3585  0.2550
 6782TIP3    H141905   5.068   3.307   0.284  0.7127  1.5478  1.2913
 6782TIP3    H241906   4.992   3.403   0.374 -1.1881 -0.4451  1.9038
 6783TIP3   OH241907   5.381   0.151   7.431  0.5840 -0.0800 -0.5676
 6783TIP3    H141908   5.287   0.164   7.417  0.1066 -1.5987  0.8457
 6783TIP3    H241909   5.386   0.105   7.515  2.4364 -2.1797 -1.7386
 6784TIP3   OH241910   3.736   3.441   7.583 -0.2404  0.4071 -0.0501
 6784TIP3    H141911   3.748   3.429   7.677 -0.8079 -0.7576 -0.1097
 6784TIP3    H241912   3.661   3.500   7.575 -0.6018 -0.0047  0.2353
 6785TIP3   OH241913   6.497   4.186   6.740  0.3058  0.8635  0.2874
 6785TIP3    H141914   6.443   4.111   6.713  1.4521 -0.7576  2.1753
 6785TIP3    H241915   6.460   4.213   6.824  1.8796  0.1823  1.2569
 6786TIP3   OH241916   6.386   6.153   0.340  0.3892  0.3453  0.3473
 6786TIP3    H141917   6.330   6.222   0.375  0.5693  0.3574  0.6101
 6786TIP3    H241918   6.352   6.073   0.380 -2.2351 -0.2787 -2.7218
 6787TIP3   OH241919   2.945   3.104   0.139  0.3910 -0.1907 -0.1400
 6787TIP3    H141920   2.941   3.199   0.138  0.2874 -0.1995 -0.8659
 6787TIP3    H241921   2.990   3.083   0.221 -1.2853  0.4076  1.0052
 6788TIP3   OH241922   3.129   4.392   1.071 -0.4613 -0.0546 -0.1527
 6788TIP3    H141923   3.085   4.475   1.089 -2.2018 -0.6233 -1.5551
 6788TIP3    H241924   3.194   4.413   1.004  2.2460  0.9607  2.5093
 6789TIP3   OH241925   5.877   3.837   0.668 -0.5413 -0.4049  0.4829
 6789TIP3    H141926   5.935   3.882   0.729 -1.9169  3.1086 -0.5720
 6789TIP3    H241927   5.934   3.806   0.598  0.2445  2.0154 -0.0061
 6790TIP3   OH241928   3.202   1.453   1.468 -0.0519 -0.7923  0.2827
 6790TIP3    H141929   3.148   1.531   1.466  0.4552 -0.4492 -0.6667
 6790TIP3    H241930   3.292   1.486   1.474  0.1854 -1.2886 -0.3871
 6791TIP3   OH241931   5.115   0.967   1.720  0.6205 -0.5184  0.1848
 6791TIP3    H141932   5.059   0.890   1.707  0.2031 -0.3734  1.0330
 6791TIP3    H241933   5.069   1.039   1.677  0.8256 -0.6601 -0.2809
 6792TIP3   OH241934   3.896   1.104   6.554 -0.0559 -0.5248  0.0346
 6792TIP3    H141935   3.968   1.158   6.586 -0.4717 -0.7359  1.4080
 6792TIP3    H241936   3.845   1.162   6.497  0.6691 -0.1002 -0.1867
 6793TIP3   OH241937   2.701   2.203   2.389  0.0051  0.3435  0.1006
 6793TIP3    H141938   2.653   2.222   2.470 -0.3349 -0.4953  0.1022
 6793TIP3    H241939   2.652   2.132   2.347  1.3162 -0.6529  0.1804
 6794TIP3   OH241940   2.535   3.475   0.221  0.0298 -0.2531  0.6788
 6794TIP3    H141941   2.617   3.429   0.240 -0.0768 -0.1860  1.3066
 6794TIP3    H241942   2.563   3.556   0.177  0.3550  0.1508  1.6119
 6795TIP3   OH241943   1.058   1.369   7.598  0.0807  0.7765  0.4605
 6795TIP3    H141944   0.993   1.402   7.660 -0.5749  0.4755 -0.0418
 6795TIP3    H241945   1.062   1.436   7.529 -0.8936  0.0826 -0.3130
 6796TIP3   OH241946   0.367   4.353   0.561 -0.8634 -0.1312 -0.1544
 6796TIP3    H141947   0.437   4.295   0.530 -1.4566 -1.4409  0.8396
 6796TIP3    H241948   0.404   4.395   0.638 -0.6533  0.3265 -0.5043
 6797TIP3   OH241949   0.855   3.864   6.184 -0.1453 -0.3244  0.6107
 6797TIP3    H141950   0.907   3.922   6.240 -0.3026 -1.0109  1.4833
 6797TIP3    H241951   0.911   3.849   6.107 -0.8804  2.5972 -0.6607
 6798TIP3   OH241952   2.942   1.753   1.263 -0.1814 -0.0743  0.0620
 6798TIP3    H141953   2.893   1.834   1.280 -1.7739 -0.8150 -0.7877
 6798TIP3    H241954   2.933   1.739   1.169  0.9573 -0.7202  0.0352
 6799TIP3   OH241955   7.045   2.521   0.454 -0.2492  0.4092 -0.2797
 6799TIP3    H141956   7.071   2.496   0.365 -0.6372  0.1655 -0.3272
 6799TIP3    H241957   6.956   2.486   0.463 -0.4975  1.0933 -0.0611
 6800TIP3   OH241958   7.029   0.485   1.421 -0.0943 -0.6163 -0.3172
 6800TIP3    H141959   7.054   0.522   1.336 -2.7246  1.8541 -0.1926
 6800TIP3    H241960   7.036   0.559   1.482 -0.0008 -1.8672  1.2482
 6801TIP3   OH241961   2.296   7.047   0.746 -0.2587  0.2947  0.4769
 6801TIP3    H141962   2.285   6.955   0.722  0.6264  0.4426 -0.5779
 6801TIP3    H241963   2.371   7.049   0.805  0.3359  0.4362 -0.2671
 6802TIP3   OH241964   6.138   2.187   1.365  0.2761 -0.3423 -0.0614
 6802TIP3    H141965   6.079   2.201   1.291  0.0454  0.0179  0.1867
 6802TIP3    H241966   6.141   2.271   1.411  1.5233 -0.1605 -0.4461
 6803TIP3   OH241967   6.433   6.562   0.131 -0.2512  0.0326  0.0890
 6803TIP3    H141968   6.506   6.508   0.102 -1.3973 -0.8366 -1.3035
 6803TIP3    H241969   6.397   6.599   0.050 -2.1010 -0.5528  0.5930
 6804TIP3   OH241970   4.089   4.380   7.497 -0.0735 -0.3948 -0.3019
 6804TIP3    H141971   4.092   4.285   7.488 -0.7838 -0.4596  0.0627
 6804TIP3    H241972   4.016   4.406   7.441  0.5488  0.0119 -0.9437
 6805TIP3   OH241973   2.164   0.353   1.326 -0.1490 -0.0866  0.0586
 6805TIP3    H141974   2.250   0.338   1.367  0.8167 -0.6188 -2.0442
 6805TIP3    H241975   2.102   0.350   1.399  1.7590  2.1098  1.9317
 6806TIP3   OH241976   0.810   1.260   1.882  0.0083 -0.1463  0.1626
 6806TIP3    H141977   0.876   1.313   1.926 -0.0431  0.0424  0.0126
 6806TIP3    H241978   0.801   1.299   1.795 -0.6077  0.0861  0.3307
 6807TIP3   OH241979   0.846   6.654   7.142 -0.3043  0.4681  0.0357
 6807TIP3    H141980   0.842   6.722   7.210  1.3527 -0.5216  1.2005
 6807TIP3    H241981   0.857   6.572   7.191 -0.9336 -0.5175 -1.3895
 6808TIP3   OH241982   4.162   5.689   6.890 -0.4065 -0.0890 -0.4991
 6808TIP3    H141983   4.185   5.706   6.799  0.5995 -0.0793 -0.2483
 6808TIP3    H241984   4.232   5.729   6.941 -1.6535  1.1102  0.3505
 6809TIP3   OH241985   3.967   5.363   0.150  0.7560 -0.2072  0.5877
 6809TIP3    H141986   3.957   5.424   0.076 -1.1791 -0.2456  0.7501
 6809TIP3    H241987   4.017   5.290   0.114  1.4681  0.6134 -0.1451
 6810TIP3   OH241988   1.086   4.956   2.202  0.4132 -0.5345 -0.4084
 6810TIP3    H141989   1.118   4.868   2.221  1.5752 -0.5017 -1.9791
 6810TIP3    H241990   1.158   4.997   2.153 -0.6167  0.8440 -0.8274
 6811TIP3   OH241991   2.485   3.168   2.077  0.0113 -0.1565 -0.1338
 6811TIP3    H141992   2.453   3.155   1.988  0.2409 -2.3367  0.0541
 6811TIP3    H241993   2.571   3.128   2.078 -0.1311 -0.4804  1.1535
 6812TIP3   OH241994   4.968   0.815   7.863 -0.2678 -0.0578  0.3547
 6812TIP3    H141995   4.918   0.763   7.927  0.5649 -0.6209  0.5750
 6812TIP3    H241996   4.961   0.765   7.782  0.9368 -0.8012  0.6831
 6813TIP3   OH241997   0.181   0.669   1.424  0.1777  0.1752 -0.5845
 6813TIP3    H141998   0.179   0.584   1.469  1.6762  1.0292  1.2444
 6813TIP3    H241999   0.255   0.662   1.364  0.5850  0.3118 -0.1090
 6814TIP3   OH242000   2.550   2.841   1.126  0.1899 -0.0976  0.0099
 6814TIP3    H142001   2.532   2.935   1.126 -0.1565 -0.1495 -1.3436
 6814TIP3    H242002   2.633   2.833   1.079 -1.8375 -0.7490 -3.8973
 6815TIP3   OH242003   5.218   2.737   7.625  0.0114  0.1373 -0.0317
 6815TIP3    H142004   5.276   2.746   7.701 -1.3640 -0.1281  1.1037
 6815TIP3    H242005   5.229   2.646   7.597 -1.3182 -0.5186  1.4589
 6816TIP3   OH242006   4.647   0.060   6.945 -0.1690 -0.5080  0.1624
 6816TIP3    H142007   4.662  -0.002   6.873 -2.0834 -1.9637  0.9382
 6816TIP3    H242008   4.720   0.122   6.938  1.3995 -2.3595 -1.1662
 6817TIP3   OH242009   6.369   1.379   1.861 -0.6428 -0.1417 -0.1060
 6817TIP3    H142010   6.388   1.428   1.941 -0.1346 -1.1594  0.4177
 6817TIP3    H242011   6.279   1.403   1.839 -0.4639  0.9063  0.2047
 6818TIP3   OH242012   4.590   5.085   7.831 -0.1823  0.2446  0.1685
 6818TIP3    H142013   4.595   5.130   7.915 -1.6312  1.2433 -0.2463
 6818TIP3    H242014   4.543   5.145   7.774  3.2114  0.8713 -2.2795
 6819TIP3   OH242015   6.529   5.608   2.756  0.6449 -0.0542 -0.1547
 6819TIP3    H142016   6.578   5.612   2.674 -1.0497  0.9125 -1.1762
 6819TIP3    H242017   6.541   5.694   2.795 -2.5969  1.3919 -1.9462
 6820TIP3   OH242018   5.275   1.693   7.733  0.5294 -0.2477 -0.3418
 6820TIP3    H142019   5.187   1.715   7.766  1.0102 -0.7824  1.3720
 6820TIP3    H242020   5.334   1.724   7.801  1.5329 -2.0028 -0.3642
 6821TIP3   OH242021   6.947   6.184   7.110  0.7210 -0.1447  0.2812
 6821TIP3    H142022   6.935   6.113   7.047  0.4919  0.5782 -0.5013
 6821TIP3    H242023   6.923   6.145   7.194 -1.5756 -0.3958 -0.4240
 6822TIP3   OH242024   3.997   1.692   0.079 -0.2267 -0.1415  0.6956
 6822TIP3    H142025   4.001   1.746   0.158  2.8060 -0.2863  0.7589
 6822TIP3    H242026   4.088   1.684   0.052 -0.9315 -2.4453 -1.2413
 6823TIP3   OH242027   6.400   2.709   2.253 -0.0384 -0.3671  0.4292
 6823TIP3    H142028   6.471   2.720   2.189 -0.3511 -1.6583 -0.1789
 6823TIP3    H242029   6.411   2.620   2.286 -0.5620 -0.1019  1.3601
 6824TIP3   OH242030   0.374   0.926   0.494  0.1716 -0.1507 -0.0941
 6824TIP3    H142031   0.317   1.003   0.495 -0.1574 -0.3815 -0.6473
 6824TIP3    H242032   0.328   0.861   0.546  0.8146  0.2643  1.0446
 6825TIP3   OH242033   2.200   4.873   7.689 -0.6488 -0.0474 -0.7458
 6825TIP3    H142034   2.148   4.802   7.727  0.0627 -0.2541 -0.1342
 6825TIP3    H242035   2.260   4.899   7.758 -0.8547  1.1274 -0.9847
 6826TIP3   OH242036   2.321   7.146   0.457  0.0498 -0.1355 -0.3037
 6826TIP3    H142037   2.271   7.082   0.507  1.8623 -0.4849  1.1791
 6826TIP3    H242038   2.408   7.147   0.498  0.0912  3.3895 -0.0988
 6827TIP3   OH242039   4.884   0.733   0.981  0.6010  0.6028 -0.0284
 6827TIP3    H142040   4.929   0.659   0.940  0.5934  1.1865 -1.1119
 6827TIP3    H242041   4.827   0.693   1.047  0.7778 -0.3402 -0.4369
 6828TIP3   OH242042   3.752   4.466   2.067  0.1315 -0.8437 -0.4353
 6828TIP3    H142043   3.829   4.506   2.026  1.1688 -1.9825  0.3116
 6828TIP3    H242044   3.784   4.433   2.151 -2.0977  2.2296  1.8855
 6829TIP3   OH242045   6.368   4.956   2.037 -0.3554  0.0280  0.7468
 6829TIP3    H142046   6.333   5.038   2.003 -1.7609 -0.3895  1.1163
 6829TIP3    H242047   6.388   4.974   2.129 -2.8772 -0.5917  1.5191
 6830TIP3   OH242048   3.519   6.849   1.858 -0.1225 -0.1158 -0.0544
 6830TIP3    H142049   3.451   6.860   1.925 -0.9682 -1.4850 -0.6412
 6830TIP3    H242050   3.481   6.889   1.779  0.1425 -0.0588 -0.1517
 6831TIP3   OH242051   2.104   6.347   1.654  0.3644  0.0639 -0.4764
 6831TIP3    H142052   2.171   6.316   1.714  1.1160  1.2473 -0.6561
 6831TIP3    H242053   2.029   6.289   1.667  1.4324 -1.2983 -0.2926
 6832TIP3   OH242054   3.078   3.239   7.363  0.3197 -0.1041 -0.0428
 6832TIP3    H142055   3.097   3.325   7.401  0.5649 -1.1109  2.2640
 6832TIP3    H242056   2.983   3.231   7.372  0.5349 -1.0689  2.2467
 6833TIP3   OH242057   0.572   4.095   0.835  0.1134 -0.3605 -0.5984
 6833TIP3    H142058   0.556   4.060   0.922  0.4503 -0.1922 -0.4681
 6833TIP3    H242059   0.558   4.020   0.776  0.7322 -0.6936 -0.3299
 6834TIP3   OH242060   3.122   4.233   1.696 -0.0780  0.0329 -0.1154
 6834TIP3    H142061   3.108   4.188   1.612  0.9924  1.3158 -1.0294
 6834TIP3    H242062   3.077   4.179   1.760 -2.7567  0.0833 -1.7808
 6835TIP3   OH242063   2.096   3.605   1.332 -0.3531 -0.1959  0.0369
 6835TIP3    H142064   2.044   3.681   1.359 -0.2201 -0.3034  0.6135
 6835TIP3    H242065   2.093   3.606   1.237  0.1758  0.9111  0.0136
 6836TIP3   OH242066   1.984   6.934   7.248 -0.4684 -0.2255  0.3940
 6836TIP3    H142067   2.024   6.863   7.298 -1.1048 -0.7691  0.1393
 6836TIP3    H242068   2.031   7.013   7.277 -1.2734 -0.4203  2.3899
 6837TIP3   OH242069   0.045   5.941   1.387  0.1798 -0.7983  0.0660
 6837TIP3    H142070   0.043   5.869   1.450 -0.0424 -0.1618  0.8059
 6837TIP3    H242071  -0.046   5.954   1.362  0.2669 -1.0456 -0.3927
 6838TIP3   OH242072   6.587   6.665   7.738 -0.1435  0.3432  0.1931
 6838TIP3    H142073   6.649   6.630   7.675 -0.2376  2.0662 -0.9440
 6838TIP3    H242074   6.545   6.588   7.777  0.1344 -0.7924 -1.6398
 6839TIP3   OH242075   3.894   2.141   1.704 -0.1192 -0.4233  0.4809
 6839TIP3    H142076   3.929   2.226   1.677 -0.7387  0.2041  1.6168
 6839TIP3    H242077   3.895   2.143   1.799  1.6192 -2.4409  0.5639
 6840TIP3   OH242078   1.020   0.128   7.290 -0.0195  0.0812  0.7203
 6840TIP3    H142079   1.079   0.105   7.362  0.2652 -2.1417 -0.1568
 6840TIP3    H242080   1.076   0.167   7.224 -0.0859  0.9954  1.1917
 6841TIP3   OH242081   5.289   0.487   1.336 -0.1627 -0.0397 -0.1924
 6841TIP3    H142082   5.285   0.393   1.318 -0.9448  0.1080 -0.8283
 6841TIP3    H242083   5.298   0.527   1.249  0.2809  0.4697  0.0837
 6842TIP3   OH242084   3.586   3.708   7.564 -0.5519 -0.5458  0.3846
 6842TIP3    H142085   3.494   3.721   7.587 -0.5587  0.4473 -0.1219
 6842TIP3    H242086   3.598   3.761   7.485  0.3840 -0.8991  0.2786
 6843TIP3   OH242087   6.439   6.068   1.730  0.3296 -0.1020 -0.4164
 6843TIP3    H142088   6.366   6.007   1.736  0.2932  0.0096  0.5055
 6843TIP3    H242089   6.466   6.082   1.821  1.2902  0.1080 -0.7159
 6844TIP3   OH242090   5.221   2.143   1.074  0.2171  0.0459 -0.3719
 6844TIP3    H142091   5.210   2.151   1.168  0.0257 -1.5515 -0.2213
 6844TIP3    H242092   5.269   2.221   1.048 -0.0936  0.7107  0.9808
 6845TIP3   OH242093   0.891   6.504   1.082  0.2797  0.6855  0.0071
 6845TIP3    H142094   0.801   6.482   1.059 -0.4679  2.0557  1.4407
 6845TIP3    H242095   0.932   6.420   1.101 -0.8059  0.0743 -0.2866
 6846TIP3   OH242096   2.757   1.674   2.652  0.0242 -0.5168 -0.3682
 6846TIP3    H142097   2.806   1.747   2.616  1.5449 -0.4808  1.6144
 6846TIP3    H242098   2.810   1.597   2.632 -0.9709 -0.9679 -1.3866
 6847TIP3   OH242099   0.265   3.630   1.390 -0.4194  0.5966  0.5331
 6847TIP3    H142100   0.231   3.565   1.451  0.6354 -0.2478  0.2583
 6847TIP3    H242101   0.268   3.711   1.440 -0.0094  0.0187  1.4721
 6848TIP3   OH242102   0.761   4.789   7.260 -0.0744  0.0451  0.0020
 6848TIP3    H142103   0.769   4.694   7.270  1.2911  0.1486  0.0853
 6848TIP3    H242104   0.848   4.818   7.233 -0.3368  1.3366  0.4582
 6849TIP3   OH242105   4.053   5.097   7.747  0.0028  0.0419 -0.4292
 6849TIP3    H142106   3.989   5.165   7.770 -0.0806  0.0153 -0.5751
 6849TIP3    H242107   4.039   5.028   7.812  0.6217  0.4917  0.1958
 6850TIP3   OH242108   2.116   3.685   0.132 -0.2337 -0.0965  0.1188
 6850TIP3    H142109   2.184   3.659   0.070 -0.8551 -2.5132  0.3588
 6850TIP3    H242110   2.157   3.755   0.183  1.3373 -0.0809 -1.0665
 6851TIP3   OH242111   3.067   5.502   7.374  0.1415  0.3073  0.4452
 6851TIP3    H142112   3.062   5.598   7.371  0.3080  0.3539  1.3616
 6851TIP3    H242113   3.145   5.484   7.426 -0.2242 -0.3207  0.7861
 6852TIP3   OH242114   0.458   6.163   0.856 -0.1581  0.0617 -0.4421
 6852TIP3    H142115   0.380   6.151   0.910  0.0795 -0.6412 -0.2558
 6852TIP3    H242116   0.469   6.258   0.852  0.9674  0.1626  2.4426
 6853TIP3   OH242117   4.662   3.395   0.250  0.3784 -0.3307  0.2641
 6853TIP3    H142118   4.719   3.326   0.282  1.6920 -0.1138 -1.4424
 6853TIP3    H242119   4.662   3.461   0.319  0.4172 -1.2989  1.2129
 6854TIP3   OH242120   0.846   4.307   7.127 -0.0821  0.3154 -0.1691
 6854TIP3    H142121   0.820   4.386   7.079  0.0278 -0.3119 -1.2653
 6854TIP3    H242122   0.867   4.243   7.060  0.5886 -0.4169  0.7109
 6855TIP3   OH242123   7.007   3.935   2.083  0.5376  0.2680 -0.4481
 6855TIP3    H142124   7.089   3.928   2.132 -0.8027 -0.4151  1.8281
 6855TIP3    H242125   6.939   3.927   2.149 -1.3936 -0.6701 -2.4347
 6856TIP3   OH242126   5.390   5.938   1.696  0.2094  0.4614 -0.5728
 6856TIP3    H142127   5.419   5.857   1.738 -2.9333 -0.2569  0.5053
 6856TIP3    H242128   5.378   5.915   1.604 -0.8425 -0.4129 -0.2423
 6857TIP3   OH242129   2.407   0.273   7.498 -0.0228 -0.4195  0.3209
 6857TIP3    H142130   2.407   0.179   7.483  2.8901 -0.4464 -0.0873
 6857TIP3    H242131   2.487   0.289   7.549  0.0492  1.9130 -0.4213
 6858TIP3   OH242132   3.029   0.360   0.440 -0.4463  0.8460  0.4291
 6858TIP3    H142133   3.070   0.352   0.354 -0.6153 -0.1686  0.4264
 6858TIP3    H242134   3.026   0.270   0.473 -2.3078  0.9179  0.5877
 6859TIP3   OH242135   4.409   3.776   6.849 -0.0689  0.0241 -0.0475
 6859TIP3    H142136   4.375   3.799   6.935  0.4815 -1.1240  0.4892
 6859TIP3    H242137   4.425   3.682   6.853 -0.2353 -0.1008 -1.4767
 6860TIP3   OH242138   2.420   7.061   7.255 -0.1520 -0.1307 -0.6047
 6860TIP3    H142139   2.441   7.060   7.348 -0.7131  0.7492 -0.4540
 6860TIP3    H242140   2.477   7.129   7.218  1.2994 -1.6269 -1.2374
 6861TIP3   OH242141   3.767   7.027   7.546 -0.4421 -0.2269  0.4503
 6861TIP3    H142142   3.801   6.956   7.491  0.7550 -0.1973  1.1247
 6861TIP3    H242143   3.749   7.098   7.485  0.3311 -0.3917  0.0250
 6862TIP3   OH242144   4.962   3.725   1.203  0.1845  0.4249 -0.0553
 6862TIP3    H142145   4.916   3.641   1.204  0.8725  0.0402  0.7320
 6862TIP3    H242146   5.044   3.708   1.249  0.5488  1.4152 -0.3097
 6863TIP3   OH242147   2.406   3.000   7.269 -0.7408  0.2775 -0.0412
 6863TIP3    H142148   2.452   3.009   7.185  0.9255 -0.6753  0.7334
 6863TIP3    H242149   2.473   2.970   7.330 -2.6685 -2.5234  0.8590
 6864TIP3   OH242150   4.159   2.317   0.875  0.0024 -0.0670 -0.5016
 6864TIP3    H142151   4.220   2.316   0.802  0.6482 -1.1685  0.0300
 6864TIP3    H242152   4.074   2.340   0.836  0.6338  0.9699 -1.3243
 6865TIP3   OH242153   3.964   3.465   7.267 -0.3531 -0.2547 -0.0073
 6865TIP3    H142154   3.910   3.420   7.202 -2.4961  0.5183  1.1417
 6865TIP3    H242155   3.973   3.403   7.339  3.8086 -1.9648 -1.6590
 6866TIP3   OH242156   6.735   2.251   1.007 -0.8059 -0.0701 -0.6661
 6866TIP3    H142157   6.694   2.246   0.921  0.9496  0.2608 -1.5699
 6866TIP3    H242158   6.779   2.166   1.018 -0.9371 -0.0747 -0.1338
 6867TIP3   OH242159   0.062   2.322   1.293  0.3887  0.0002 -0.4752
 6867TIP3    H142160   0.099   2.234   1.306 -0.8293 -0.4924 -0.1678
 6867TIP3    H242161   0.012   2.316   1.212  0.3895  0.4312 -0.5084
 6868TIP3   OH242162   5.260   2.419   0.572  0.6124 -0.3269  0.4473
 6868TIP3    H142163   5.181   2.374   0.543 -0.2586  0.5482  1.3319
 6868TIP3    H242164   5.320   2.414   0.498 -0.5001 -0.4932 -0.4738
 6869TIP3   OH242165   6.885   4.750   6.901  0.1239 -0.0355  0.9467
 6869TIP3    H142166   6.834   4.741   6.821  1.2434  1.7836 -0.0313
 6869TIP3    H242167   6.962   4.694   6.888 -1.4746 -2.7576  2.4100
 6870TIP3   OH242168   3.359   3.703   1.416  0.0830 -0.0505  0.1725
 6870TIP3    H142169   3.295   3.635   1.431  1.1854 -1.1490  0.0771
 6870TIP3    H242170   3.351   3.725   1.323 -0.7494  0.4643  0.3606
 6871TIP3   OH242171   4.487   1.905   7.051 -0.0603 -0.0359  0.5518
 6871TIP3    H142172   4.490   1.991   7.008 -0.7734  0.3069  1.1729
 6871TIP3    H242173   4.439   1.849   6.990  1.3702 -0.3197 -0.3790
 6872TIP3   OH242174   0.785   5.141   7.507 -0.4207  0.5337 -0.1918
 6872TIP3    H142175   0.755   5.176   7.423 -0.1440  2.4241  0.4520
 6872TIP3    H242176   0.731   5.185   7.572 -0.1312 -0.3492  0.6654
 6873TIP3   OH242177   3.430   3.448   6.019  0.3098  0.0226 -0.2412
 6873TIP3    H142178   3.383   3.367   6.038  2.1942 -0.8281  1.2285
 6873TIP3    H242179   3.417   3.502   6.097  1.5547 -0.1647  0.1199
 6874TIP3   OH242180   3.128   4.549   1.409 -0.1856  0.1051 -0.5637
 6874TIP3    H142181   3.177   4.493   1.470 -0.8411 -0.0080 -0.1216
 6874TIP3    H242182   3.195   4.594   1.358  0.4704  1.7663  1.6273
 6875TIP3   OH242183   5.513   0.681   1.252  0.0285  0.0662 -0.4603
 6875TIP3    H142184   5.487   0.591   1.234  1.9268 -0.6026 -0.1468
 6875TIP3    H242185   5.438   0.720   1.297 -1.4605 -0.8371 -2.0373
 6876TIP3   OH242186   5.234   5.035   1.725  0.1246 -0.4201  0.0572
 6876TIP3    H142187   5.177   4.960   1.704 -0.7117  0.4536 -0.9229
 6876TIP3    H242188   5.295   5.039   1.651 -1.0763  1.0073 -0.9178
 6877TIP3   OH242189   6.020   1.459   2.044  0.1622  0.6077 -0.3500
 6877TIP3    H142190   5.946   1.518   2.032  2.1795  2.7866 -3.5825
 6877TIP3    H242191   5.992   1.377   2.005 -1.9470 -0.1275  2.3631
 6878TIP3   OH242192   5.415   6.408   7.817 -0.4466  0.3173  0.4174
 6878TIP3    H142193   5.366   6.484   7.849 -2.0012 -1.3442  2.2373
 6878TIP3    H242194   5.383   6.395   7.727  0.0081  1.8722 -0.0115
 6879TIP3   OH242195   2.930   1.597   0.331  0.1147 -0.3661 -0.5005
 6879TIP3    H142196   2.982   1.535   0.280  1.3717  0.3623 -0.1525
 6879TIP3    H242197   2.885   1.650   0.265  0.5845 -0.3634 -0.8239
 6880TIP3   OH242198   5.370   5.536   0.762  0.6464 -0.1582 -0.4961
 6880TIP3    H142199   5.358   5.626   0.792 -0.1561 -0.6074  0.6100
 6880TIP3    H242200   5.388   5.486   0.842 -0.7357 -1.2692 -0.8212
 6881TIP3   OH242201   6.373   0.164   1.959 -0.0147 -0.1242  0.1001
 6881TIP3    H142202   6.278   0.156   1.951 -0.1034  0.6699  0.2560
 6881TIP3    H242203   6.392   0.254   1.931  0.5385  0.1396  1.2575
 6882TIP3   OH242204   3.295   4.747   7.058  0.4469 -0.1024  0.3335
 6882TIP3    H142205   3.309   4.779   7.147  0.7440 -1.3472  0.7598
 6882TIP3    H242206   3.383   4.723   7.027  0.6792  2.3527 -1.1496
 6883TIP3   OH242207   0.993   4.827   1.130 -0.0233 -0.0632  0.4569
 6883TIP3    H142208   0.993   4.796   1.039  2.8640  1.8370 -0.3233
 6883TIP3    H242209   0.912   4.878   1.138 -1.0714 -1.4939 -0.5220
 6884TIP3   OH242210   0.479   4.803   7.398  0.3796  0.1150  0.0214
 6884TIP3    H142211   0.495   4.876   7.458  0.6194 -1.6549  2.2230
 6884TIP3    H242212   0.564   4.785   7.359  0.4749  0.4891  0.0488
 6885TIP3   OH242213   3.030   4.176   7.633 -0.0025 -0.4571  0.2347
 6885TIP3    H142214   3.074   4.127   7.563 -1.2336  0.1136 -0.9769
 6885TIP3    H242215   2.978   4.242   7.588  0.2075  0.8219  1.7675
 6886TIP3   OH242216   0.584   1.697   0.250  0.3620  0.4713 -0.3578
 6886TIP3    H142217   0.543   1.709   0.165  0.6099 -1.0954 -0.7338
 6886TIP3    H242218   0.515   1.721   0.313 -0.2352  0.4705 -0.9958
 6887TIP3   OH242219   0.003   1.202   2.453 -0.0565  0.1956  0.7412
 6887TIP3    H142220  -0.081   1.173   2.491  1.1491 -1.1314  2.5736
 6887TIP3    H242221   0.069   1.166   2.512  1.8363  1.0427 -0.7723
 6888TIP3   OH242222   2.811   2.518   0.235  0.2097 -0.7801  0.0256
 6888TIP3    H142223   2.746   2.508   0.305  0.8475 -0.8857  0.6218
 6888TIP3    H242224   2.760   2.527   0.155 -0.5301 -1.5141  0.3981
 6889TIP3   OH242225   6.323   0.164   0.678 -0.0292 -0.0011  0.3538
 6889TIP3    H142226   6.287   0.126   0.598  0.8442 -1.5968  0.6804
 6889TIP3    H242227   6.343   0.255   0.654 -1.5437  0.1019 -0.6593
 6890TIP3   OH242228   6.738   7.010   0.727 -0.2266 -0.4577 -0.1590
 6890TIP3    H142229   6.711   7.031   0.816  0.4952  0.9493 -0.2476
 6890TIP3    H242230   6.661   6.967   0.688 -0.0281 -2.5709  1.5880
 6891TIP3   OH242231   2.741   4.197   0.733  0.2666 -0.1567 -0.5474
 6891TIP3    H142232   2.823   4.194   0.685  1.4770 -0.2142  1.4142
 6891TIP3    H242233   2.754   4.265   0.799 -0.6923 -1.1787  0.7592
 6892TIP3   OH242234   0.701   4.340   2.825  0.2073 -0.3714  0.1822
 6892TIP3    H142235   0.627   4.279   2.828  0.0335 -0.1567  0.3559
 6892TIP3    H242236   0.661   4.425   2.806  0.4979 -0.3908 -0.5594
 6893TIP3   OH242237   5.953   4.687   7.485 -0.0598 -0.0492 -0.3504
 6893TIP3    H142238   5.905   4.633   7.548  0.7733 -0.6068 -0.1771
 6893TIP3    H242239   5.953   4.774   7.523 -0.1446 -0.2419  0.0995
 6894TIP3   OH242240   6.901   5.419   6.482 -0.0299 -0.4497 -0.5195
 6894TIP3    H142241   6.828   5.415   6.544  1.5281 -0.6393  1.4226
 6894TIP3    H242242   6.862   5.450   6.400 -2.2167 -0.2976  0.5108
 6895TIP3   OH242243   0.745   3.631   0.255  0.3993 -0.2286  0.6423
 6895TIP3    H142244   0.791   3.568   0.311  1.2165 -1.4745 -1.2957
 6895TIP3    H242245   0.814   3.670   0.201 -0.4975 -0.2169 -0.5405
 6896TIP3   OH242246   0.611   6.783   6.092 -0.1093 -0.0609  0.6548
 6896TIP3    H142247   0.646   6.865   6.127  1.3045 -0.5606  0.4461
 6896TIP3    H242248   0.517   6.800   6.083 -0.3592  0.5496  3.3942
 6897TIP3   OH242249   2.945   3.263   6.967  0.2694 -0.1054 -0.4202
 6897TIP3    H142250   2.998   3.302   7.035  0.8176 -1.1062 -0.2541
 6897TIP3    H242251   2.898   3.336   6.927  0.2387  0.5325  0.7651
 6898TIP3   OH242252   1.815   1.537   0.607  0.3802  0.2902  0.3024
 6898TIP3    H142253   1.739   1.534   0.549  0.6755 -1.0936 -0.0494
 6898TIP3    H242254   1.888   1.560   0.550  0.7191 -1.3457  0.0443
 6899TIP3   OH242255   4.125   2.397   1.374 -0.0675 -0.1039 -0.4759
 6899TIP3    H142256   4.197   2.453   1.403 -0.3584  0.6864 -1.2429
 6899TIP3    H242257   4.066   2.456   1.328 -1.3103 -0.7100  0.2991
 6900TIP3   OH242258   5.712   3.657   1.750 -0.3126 -0.5777 -0.5415
 6900TIP3    H142259   5.674   3.570   1.762  0.7219 -0.6545  3.6377
 6900TIP3    H242260   5.791   3.641   1.698 -0.0756 -2.2013  0.2495
 6901TIP3   OH242261   2.872   6.932   7.496 -0.2316 -0.0450 -0.0587
 6901TIP3    H142262   2.885   6.971   7.410  0.0394 -3.7907 -1.8742
 6901TIP3    H242263   2.958   6.900   7.522 -0.5217  0.0841  1.1563
 6902TIP3   OH242264   4.380   2.885   1.573 -0.2944 -0.1908 -0.3264
 6902TIP3    H142265   4.434   2.809   1.591 -0.8097 -0.8220 -1.3524
 6902TIP3    H242266   4.297   2.849   1.542 -0.4238  0.7901 -1.1766
 6903TIP3   OH242267   4.973   6.124   1.917  0.0090 -0.2612  0.0064
 6903TIP3    H142268   5.003   6.084   1.999  0.7191 -2.9104 -1.4187
 6903TIP3    H242269   4.880   6.103   1.914 -0.2174  0.6214  0.5179
 6904TIP3   OH242270   3.120   6.243   2.389 -0.3784 -0.4395  0.6011
 6904TIP3    H142271   3.183   6.252   2.461 -0.7271  0.0935  0.8501
 6904TIP3    H242272   3.039   6.282   2.423 -0.2888  0.6898 -0.4028
 6905TIP3   OH242273   3.560   1.054   7.996 -0.1827 -0.5141 -0.1884
 6905TIP3    H142274   3.493   0.991   8.021 -0.4205  0.2607  1.2321
 6905TIP3    H242275   3.636   1.031   8.050  0.1234 -0.3165 -0.5277
 6906TIP3   OH242276   6.890   5.444   3.065 -0.0984 -0.4590  0.2802
 6906TIP3    H142277   6.977   5.424   3.031 -0.5162  0.2258 -1.2766
 6906TIP3    H242278   6.886   5.539   3.069  0.4541 -0.4494  3.8239
 6907TIP3   OH242279   2.114   5.402   6.531  0.5790  0.2382  0.0642
 6907TIP3    H142280   2.105   5.477   6.472  2.3620 -0.7204 -1.5588
 6907TIP3    H242281   2.187   5.425   6.588  0.3964  0.1996  0.3144
 6908TIP3   OH242282   6.791   0.898   0.863  0.0544  0.8700 -0.0131
 6908TIP3    H142283   6.851   0.900   0.788  0.7600 -0.1936  0.5066
 6908TIP3    H242284   6.708   0.933   0.828  0.3468  0.3396 -1.3033
 6909TIP3   OH242285   4.660   0.587   7.771 -0.3508  0.5413  0.0068
 6909TIP3    H142286   4.597   0.590   7.843 -1.0227  0.0252 -0.5310
 6909TIP3    H242287   4.613   0.541   7.701  0.2210  1.1835 -0.8208
 6910TIP3   OH242288   1.792   2.100   2.345 -0.0700  0.3814  0.4501
 6910TIP3    H142289   1.817   2.053   2.425  2.6352 -0.1751 -0.5906
 6910TIP3    H242290   1.821   2.190   2.360  2.1883 -0.1156 -0.5002
 6911TIP3   OH242291   2.502   4.128   1.813 -0.1859 -0.0751 -0.5340
 6911TIP3    H142292   2.463   4.090   1.734  1.3086 -2.4236 -0.2340
 6911TIP3    H242293   2.499   4.058   1.878  1.3403  0.8143  0.5762
 6912TIP3   OH242294   3.162   0.169   2.289  0.1106 -0.1649  0.9286
 6912TIP3    H142295   3.083   0.149   2.339 -1.7329  1.8406 -0.9893
 6912TIP3    H242296   3.143   0.252   2.246  2.9903 -0.0044 -0.2339
 6913TIP3   OH242297   2.218   3.439   7.136 -0.5594  0.8055  0.0029
 6913TIP3    H142298   2.285   3.387   7.180 -0.3991  1.0654  0.0729
 6913TIP3    H242299   2.268   3.503   7.085 -0.7545  1.2735  0.3896
 6914TIP3   OH242300   6.740   1.747   1.427  0.4364  0.4328  0.0812
 6914TIP3    H142301   6.726   1.833   1.466  1.7075  0.5640  0.3068
 6914TIP3    H242302   6.670   1.692   1.462  0.1962  1.1387  0.7121
 6915TIP3   OH242303   1.069   6.353   2.537 -0.1463  0.4135  0.4402
 6915TIP3    H142304   1.101   6.418   2.474 -0.9450  0.8137  0.4326
 6915TIP3    H242305   1.143   6.294   2.551 -0.2966 -0.3891 -1.7870
 6916TIP3   OH242306   2.679   2.494   7.493  0.3035  0.3464  0.3551
 6916TIP3    H142307   2.634   2.566   7.449 -1.4933 -0.7367  0.3464
 6916TIP3    H242308   2.659   2.417   7.440 -0.3017 -0.6551  1.9807
 6917TIP3   OH242309   5.821   6.268   1.902 -0.4897 -0.2887  0.3290
 6917TIP3    H142310   5.780   6.185   1.927 -0.0630 -0.0809  1.7837
 6917TIP3    H242311   5.771   6.335   1.948  0.7469  0.0522  1.2492
 6918TIP3   OH242312   5.697   1.372   2.881 -0.0074  0.2134  0.2000
 6918TIP3    H142313   5.777   1.380   2.933  0.0563 -1.3927  0.4292
 6918TIP3    H242314   5.725   1.326   2.801 -0.6504 -0.1866  0.1933
 6919TIP3   OH242315   6.629   3.946   2.739 -0.0058  0.5534 -0.2074
 6919TIP3    H142316   6.706   3.895   2.762 -0.8373 -0.6081  0.1227
 6919TIP3    H242317   6.577   3.887   2.683  0.8747  2.4589 -3.3208
 6920TIP3   OH242318   5.077   5.505   1.658  0.1758  0.0183 -0.1235
 6920TIP3    H142319   5.160   5.503   1.611  0.2872  0.6976  0.0404
 6920TIP3    H242320   5.051   5.413   1.664  0.8690 -0.1926 -0.2516
 6921TIP3   OH242321   5.664   6.412   7.941  0.0319  0.2923  0.3176
 6921TIP3    H142322   5.604   6.417   7.866 -0.4392  0.9377  0.7274
 6921TIP3    H242323   5.734   6.473   7.919  0.0793  0.2106  0.2412
 6922TIP3   OH242324   6.814   5.197   2.574  0.0200 -0.1217 -0.1983
 6922TIP3    H142325   6.907   5.216   2.584 -0.0098 -0.3912  0.6699
 6922TIP3    H242326   6.771   5.247   2.644 -0.3092 -1.2844  0.4691
 6923TIP3   OH242327   4.993   0.584   1.879 -0.3453 -0.4993 -0.0261
 6923TIP3    H142328   4.947   0.592   1.962  1.3484  1.0405  0.8215
 6923TIP3    H242329   5.074   0.537   1.900 -1.4558 -3.3242 -1.5192
 6924TIP3   OH242330   2.603   4.292   6.909 -0.2830  0.4705 -0.2024
 6924TIP3    H142331   2.508   4.282   6.903 -0.3752  0.8509  0.4607
 6924TIP3    H242332   2.616   4.349   6.985  0.5248 -0.5027  0.4187
 6925TIP3   OH242333   0.248   2.781   1.765  0.3942 -0.3085 -0.0295
 6925TIP3    H142334   0.255   2.689   1.792 -0.8743 -0.7346 -1.0318
 6925TIP3    H242335   0.179   2.817   1.821 -0.4317 -0.4912 -0.9159
 6926TIP3   OH242336   1.558   0.076   6.486  0.2780 -0.1212  0.4284
 6926TIP3    H142337   1.594  -0.008   6.456 -1.6629 -1.4381  1.6139
 6926TIP3    H242338   1.561   0.131   6.408 -0.8528 -2.1350 -1.1551
 6927TIP3   OH242339   7.046   4.324   6.893 -0.3835 -0.0304 -0.1650
 6927TIP3    H142340   7.063   4.253   6.955  0.2608 -1.1417 -1.5605
 6927TIP3    H242341   6.992   4.284   6.825  0.6056  0.6114 -1.3524
 6928TIP3   OH242342   2.599   5.966   1.811  0.2915  0.4968  0.0537
 6928TIP3    H142343   2.515   5.920   1.817 -0.1106  1.0506 -0.9562
 6928TIP3    H242344   2.617   5.994   1.900 -0.0874 -0.4959  0.4672
 6929TIP3   OH242345   0.368   6.419   2.319  0.0040 -0.1834 -0.2480
 6929TIP3    H142346   0.342   6.371   2.240  0.1555  0.6464 -0.8115
 6929TIP3    H242347   0.354   6.511   2.297 -2.8551 -0.0283  1.7501
 6930TIP3   OH242348   0.908   4.365   2.108 -0.5170  0.1299 -0.2111
 6930TIP3    H142349   0.981   4.350   2.048 -1.3389  0.0485 -1.2136
 6930TIP3    H242350   0.949   4.372   2.194  0.4572 -3.0604 -0.2613
 6931TIP3   OH242351   2.308   3.224   6.882 -0.7152 -0.6530 -0.7007
 6931TIP3    H142352   2.360   3.177   6.948 -2.4085 -1.0411  0.4423
 6931TIP3    H242353   2.372   3.273   6.831  0.7062 -0.6126  1.0212
 6932TIP3   OH242354   0.784   3.202   0.896 -0.5026  0.3886  0.5457
 6932TIP3    H142355   0.863   3.165   0.935 -0.0640  0.5757 -0.1450
 6932TIP3    H242356   0.722   3.209   0.969 -0.4884 -1.3645  0.7678
 6933TIP3   OH242357   4.454   4.607   1.656  0.2443  0.2791  0.2082
 6933TIP3    H142358   4.413   4.653   1.583 -0.2701  0.7085  0.7531
 6933TIP3    H242359   4.485   4.677   1.714 -0.3547 -0.0519  0.9404
 6934TIP3   OH242360   0.918   0.769   0.234 -0.0012 -0.4905  0.2177
 6934TIP3    H142361   0.962   0.698   0.188 -0.5389 -0.4652 -0.3357
 6934TIP3    H242362   0.842   0.728   0.275  0.9696 -0.7106  1.8923
 6935TIP3   OH242363   4.350   0.787   7.552  0.1214  0.4055  0.0556
 6935TIP3    H142364   4.306   0.857   7.600 -1.4731 -1.2769  1.2023
 6935TIP3    H242365   4.443   0.801   7.568 -0.2826  1.0161  2.1078
 6936TIP3   OH242366   5.292   2.002   0.370  0.2294 -0.6918 -0.1895
 6936TIP3    H142367   5.283   1.923   0.423 -0.3105  0.2888  1.2483
 6936TIP3    H242368   5.386   2.021   0.370  0.2831 -0.9502  0.0437
 6937TIP3   OH242369   4.114   4.597   1.498  0.2094  0.6410 -0.5921
 6937TIP3    H142370   4.044   4.630   1.553 -1.6169 -1.6281 -1.4041
 6937TIP3    H242371   4.098   4.636   1.412  0.3643  0.6635 -0.6113
 6938TIP3   OH242372   5.821   2.363   7.957 -0.6930  0.3698 -0.6096
 6938TIP3    H142373   5.803   2.445   7.911 -0.6876  0.5326 -0.3240
 6938TIP3    H242374   5.749   2.305   7.932 -1.2689  0.8072  0.0175
 6939TIP3   OH242375   2.101   2.852   7.600 -0.1369  0.3703  0.2206
 6939TIP3    H142376   2.048   2.825   7.526  1.3344 -1.7483 -0.1627
 6939TIP3    H242377   2.074   2.795   7.672  0.2865  0.5951  0.5664
 6940TIP3   OH242378   0.978   3.425   7.883 -0.3114  0.4911  0.3313
 6940TIP3    H142379   1.046   3.418   7.817 -0.4717  0.3168  0.1840
 6940TIP3    H242380   1.018   3.476   7.954  0.6531 -1.2509  1.1071
 6941TIP3   OH242381   6.590   6.910   0.480  0.2031 -0.1364  0.2507
 6941TIP3    H142382   6.634   6.993   0.462 -0.1482 -0.2174 -1.0922
 6941TIP3    H242383   6.516   6.908   0.419 -1.1029 -0.4627  1.7675
 6942TIP3   OH242384   1.892   4.459   0.675 -0.4551 -0.7327 -0.1587
 6942TIP3    H142385   1.941   4.452   0.593  0.0572 -0.8476  0.1496
 6942TIP3    H242386   1.916   4.381   0.724  1.1767  0.4972  1.1070
 6943TIP3   OH242387   0.091   6.745   0.676  0.1956  0.1655 -0.3682
 6943TIP3    H142388   0.182   6.750   0.707  0.1483 -2.1857  0.3693
 6943TIP3    H242389   0.075   6.651   0.666 -1.6627  0.6014 -2.0766
 6944TIP3   OH242390   4.013   4.739   0.290 -0.3843 -0.3773  0.3792
 6944TIP3    H142391   3.948   4.734   0.221 -1.2811  1.1019  1.0555
 6944TIP3    H242392   4.010   4.831   0.319  0.3007 -0.8402  2.0461
 6945TIP3   OH242393   6.663   7.089   5.882  0.3437 -0.2816 -0.2006
 6945TIP3    H142394   6.615   7.076   5.800  1.1534  1.6724 -1.0804
 6945TIP3    H242395   6.685   7.001   5.912 -0.7536 -1.0796 -1.6049
 6946TIP3   OH242396   5.479   2.409   0.387  0.2510  0.2399 -0.1876
 6946TIP3    H142397   5.468   2.402   0.293  1.6251  0.9362 -0.4277
 6946TIP3    H242398   5.450   2.498   0.408 -1.1870 -0.3035  0.2534
 6947TIP3   OH242399   6.774   7.068   1.290 -0.3284 -0.4501 -0.0270
 6947TIP3    H142400   6.728   7.117   1.358 -2.1163 -1.6321 -0.3281
 6947TIP3    H242401   6.853   7.119   1.273  0.0945 -0.0442  2.7937
 6948TIP3   OH242402   4.141   2.517   2.399  0.2954  0.2732  0.0041
 6948TIP3    H142403   4.132   2.592   2.340 -0.6429 -0.3773 -0.7039
 6948TIP3    H242404   4.065   2.522   2.457  0.1765 -0.1682 -0.1056
 6949TIP3   OH242405   4.789   4.900   0.669  0.3505  0.5288 -0.4204
 6949TIP3    H142406   4.777   4.912   0.575  0.0501 -0.4513 -0.5146
 6949TIP3    H242407   4.874   4.940   0.687  1.2041 -0.7602 -1.4164
 6950TIP3   OH242408   3.087   2.238   0.616 -0.1052 -0.0549  0.0723
 6950TIP3    H142409   3.089   2.214   0.523  1.3757  1.1199 -0.2446
 6950TIP3    H242410   3.002   2.208   0.647 -0.6853 -0.3498 -1.7019
 6951TIP3   OH242411   4.818   3.489   5.880  0.2404  0.2571 -0.2858
 6951TIP3    H142412   4.728   3.485   5.911  0.1827 -0.8418 -0.5499
 6951TIP3    H242413   4.871   3.470   5.958  0.2742  1.3007 -0.0417
 6952TIP3   OH242414   4.417   0.203   7.081  0.1395  0.7349 -0.3892
 6952TIP3    H142415   4.492   0.151   7.107  0.6353  1.2864 -0.6982
 6952TIP3    H242416   4.454   0.278   7.035 -0.5880  1.1103 -0.3823
 6953TIP3   OH242417   4.463   2.659   1.835  0.3803 -0.0727  0.2634
 6953TIP3    H142418   4.474   2.653   1.930  0.3081 -1.0837  0.2194
 6953TIP3    H242419   4.539   2.709   1.805 -0.0787  1.0757  0.9424
 6954TIP3   OH242420   3.514   4.550   0.139 -0.5388 -0.2840 -0.6738
 6954TIP3    H142421   3.480   4.532   0.051 -0.8931 -2.0927 -0.2090
 6954TIP3    H242422   3.453   4.615   0.175 -0.9578 -0.2531 -1.4260
 6955TIP3   OH242423   2.922   6.380   1.470 -0.6611 -0.3125  0.4486
 6955TIP3    H142424   2.928   6.292   1.433  2.4862 -0.5655  1.3273
 6955TIP3    H242425   2.960   6.372   1.557  2.8160  2.4586 -0.6164
 6956TIP3   OH242426   4.247   5.945   1.017  0.1232 -0.2552  0.0749
 6956TIP3    H142427   4.171   5.892   1.044  0.4815 -0.6339  0.3630
 6956TIP3    H242428   4.211   6.032   1.002 -0.5600 -0.6682 -0.8195
 6957TIP3   OH242429   3.411   2.499   7.461  0.2784  0.0839  0.2841
 6957TIP3    H142430   3.426   2.573   7.520 -0.8118 -1.1400  2.1775
 6957TIP3    H242431   3.499   2.466   7.442  0.7662  1.6791 -0.4233
 6958TIP3   OH242432   4.189   3.237   1.662  0.1611  0.0998 -0.7554
 6958TIP3    H142433   4.186   3.177   1.737  1.8965  1.6842  0.6735
 6958TIP3    H242434   4.098   3.266   1.651 -0.2634 -0.8230  0.1455
 6959TIP3   OH242435   6.809   6.795   1.799 -0.2439  0.7032 -0.1877
 6959TIP3    H142436   6.852   6.856   1.859  0.4746 -0.7567  0.8328
 6959TIP3    H242437   6.798   6.845   1.718  0.4348  2.1355  0.5687
 6960TIP3   OH242438   1.932   4.048   0.960 -0.1021  0.2050  0.1480
 6960TIP3    H142439   1.839   4.028   0.960  0.4191 -2.7956  2.2873
 6960TIP3    H242440   1.951   4.079   1.049  1.0897 -0.0999  0.0225
 6961TIP3   OH242441   5.615   7.130   0.111 -0.4061  0.8976 -0.1282
 6961TIP3    H142442   5.620   7.207   0.168  2.0665  0.7903 -0.0755
 6961TIP3    H242443   5.678   7.148   0.041 -0.7387 -0.5256 -0.8340
 6962TIP3   OH242444   3.734   1.614   0.028 -0.5565  0.7080 -0.2198
 6962TIP3    H142445   3.813   1.659   0.059 -0.8944  1.3757 -0.3293
 6962TIP3    H242446   3.764   1.524   0.011 -0.0399  0.6975  0.6566
 6963TIP3   OH242447   7.147   3.642   7.625 -0.4175  0.4723 -0.2501
 6963TIP3    H142448   7.185   3.712   7.573 -0.5180  0.1940 -0.7048
 6963TIP3    H242449   7.052   3.652   7.613 -0.4463  0.5136  0.0159
 6964TIP3   OH242450   5.442   5.457   2.302  0.0739 -0.0911  0.3293
 6964TIP3    H142451   5.380   5.385   2.309 -0.8911  0.7434  0.6048
 6964TIP3    H242452   5.506   5.440   2.371  0.4126 -1.1766 -0.2236
 6965TIP3   OH242453   2.698   0.884   0.128  0.1893 -0.2121  0.4499
 6965TIP3    H142454   2.637   0.822   0.088  0.9590  0.5655 -2.1630
 6965TIP3    H242455   2.778   0.833   0.140 -0.1174 -0.5129  1.2471
 6966TIP3   OH242456   6.899   2.400   1.427  0.1001  0.1405  0.6597
 6966TIP3    H142457   6.935   2.398   1.339 -1.6535 -2.6796 -0.0959
 6966TIP3    H242458   6.864   2.489   1.437 -0.4782  0.2458 -1.8144
 6967TIP3   OH242459   6.424   1.236   7.162  0.1027 -0.3383  0.3260
 6967TIP3    H142460   6.397   1.327   7.168  0.2310 -0.3058  0.4226
 6967TIP3    H242461   6.358   1.188   7.211 -0.8177 -0.4744 -1.0022
 6968TIP3   OH242462   0.897   4.655   2.353  0.3240 -0.2058  0.4611
 6968TIP3    H142463   0.895   4.599   2.430 -0.1283  2.7916  2.7937
 6968TIP3    H242464   0.990   4.656   2.327  0.6100 -0.6740  1.4193
 6969TIP3   OH242465   2.369   6.483   0.956  0.4080  0.4024  0.1570
 6969TIP3    H142466   2.278   6.510   0.967  0.3207  1.2001 -2.0646
 6969TIP3    H242467   2.390   6.437   1.037 -1.5088  1.4445  1.3156
 6970TIP3   OH242468   6.615   3.981   1.019 -0.1652 -0.4386  0.0448
 6970TIP3    H142469   6.589   3.921   0.948 -1.0706 -0.1394  0.1164
 6970TIP3    H242470   6.667   4.048   0.975 -0.8979 -0.1385 -0.3882
 6971TIP3   OH242471   0.235   1.175   1.583  0.0222 -0.6935 -0.5958
 6971TIP3    H142472   0.289   1.129   1.647  0.0606 -0.3320 -0.3599
 6971TIP3    H242473   0.197   1.248   1.633 -1.2069 -1.3231 -0.5995
 6972TIP3   OH242474   2.419   0.250   2.000 -0.4913 -0.2191  0.7211
 6972TIP3    H142475   2.454   0.193   1.931 -0.7459  1.2413 -0.6586
 6972TIP3    H242476   2.404   0.334   1.957 -3.9137 -0.1941  1.6612
 6973TIP3   OH242477   2.345   3.316   2.494 -0.0263 -0.3796  0.0008
 6973TIP3    H142478   2.279   3.259   2.533 -0.5273 -0.0920 -0.4144
 6973TIP3    H242479   2.368   3.377   2.564  0.4410 -1.0120  0.4173
 6974TIP3   OH242480   2.244   0.614   0.460 -0.6265 -0.1489 -0.5397
 6974TIP3    H142481   2.303   0.676   0.504 -1.1589 -0.5554  0.7931
 6974TIP3    H242482   2.157   0.639   0.490 -0.9717 -0.6610 -1.1095
 6975TIP3   OH242483   5.585   5.831   7.396 -0.2198 -0.0366  0.1103
 6975TIP3    H142484   5.509   5.877   7.363  0.7085  1.7308  0.3129
 6975TIP3    H242485   5.559   5.802   7.484  0.2137  3.1973  1.4649
 6976TIP3   OH242486   6.519   6.786   7.081  0.2991  0.0555  0.2644
 6976TIP3    H142487   6.480   6.836   7.010  1.7962 -0.8796 -1.2960
 6976TIP3    H242488   6.505   6.694   7.057  2.2448 -0.2948  0.2896
 6977TIP3   OH242489   6.634   0.957   7.838 -0.1410  0.3668  0.2371
 6977TIP3    H142490   6.557   0.990   7.792 -0.5620  0.6408  1.1022
 6977TIP3    H242491   6.640   0.865   7.811 -0.1582  0.6170 -0.6298
 6978TIP3   OH242492   4.612   5.906   1.233  0.3554  0.4456  0.1520
 6978TIP3    H142493   4.592   5.843   1.303  0.1385 -1.7653 -1.7913
 6978TIP3    H242494   4.538   5.968   1.235  0.0197  0.0357  1.4072
 6979TIP3   OH242495   4.460   1.498   1.890 -0.1545  0.4989 -0.4227
 6979TIP3    H142496   4.513   1.559   1.838 -0.0988 -0.1660 -1.1649
 6979TIP3    H242497   4.473   1.526   1.980 -0.4516  1.8412 -0.7752
 6980TIP3   OH242498   6.664   2.197   2.196 -0.2782  0.0588 -0.7368
 6980TIP3    H142499   6.635   2.167   2.110 -0.7116  0.0979 -0.6049
 6980TIP3    H242500   6.738   2.255   2.177 -0.4922  0.2192 -1.0961
 6981TIP3   OH242501   3.442   5.403   1.088 -0.4614  0.7051  0.2792
 6981TIP3    H142502   3.364   5.444   1.050 -0.7754 -0.5884 -0.5542
 6981TIP3    H242503   3.434   5.418   1.182 -1.7655  0.5453  0.2162
 6982TIP3   OH242504   4.134   5.662   1.835  0.5477 -0.4496  0.1094
 6982TIP3    H142505   4.163   5.604   1.906  0.4055 -0.1320  0.4279
 6982TIP3    H242506   4.039   5.651   1.833  0.5150 -0.1799  0.2090
 6983TIP3   OH242507   1.552   2.534   7.224  0.2537  0.8223  0.1626
 6983TIP3    H142508   1.488   2.529   7.153 -0.0721  0.5052  0.4738
 6983TIP3    H242509   1.508   2.584   7.293  0.5008  0.9701  0.2157
 6984TIP3   OH242510   2.848   3.970   2.048 -0.4185  0.3410  0.2923
 6984TIP3    H142511   2.912   3.899   2.052 -0.7079  0.0138 -0.6174
 6984TIP3    H242512   2.780   3.937   1.988 -0.3558  1.5361 -0.4692
 6985TIP3   OH242513   0.090   3.182   0.284 -0.2249 -0.3167  0.1156
 6985TIP3    H142514   0.116   3.246   0.350 -0.5040 -2.2236  2.2066
 6985TIP3    H242515  -0.006   3.184   0.286 -0.3110 -2.0298  1.6531
 6986TIP3   OH242516   1.213   3.561   1.130  0.7264  0.2448  0.2230
 6986TIP3    H142517   1.120   3.536   1.131 -0.3573  3.5175 -1.6187
 6986TIP3    H242518   1.229   3.593   1.219  0.0309 -0.1961  0.5208
 6987TIP3   OH242519   6.076   5.157   1.275  0.5728  0.3009  0.0928
 6987TIP3    H142520   6.166   5.187   1.273  0.7566 -0.2267  0.1978
 6987TIP3    H242521   6.024   5.234   1.251  1.0104  0.7461  0.5552
 6988TIP3   OH242522   3.727   3.860   7.352 -0.1753  0.5784 -0.1685
 6988TIP3    H142523   3.812   3.819   7.365  0.1248  1.6730  1.7259
 6988TIP3    H242524   3.688   3.812   7.279  0.4280 -2.6349  1.4240
 6989TIP3   OH242525   2.664   6.673   7.524 -0.3585 -0.0466  0.0690
 6989TIP3    H142526   2.758   6.685   7.534 -0.2528  0.1065 -0.9534
 6989TIP3    H242527   2.625   6.740   7.580  0.0751 -1.5505  2.2851
 6990TIP3   OH242528   4.396   2.127   1.595 -0.8454  0.1597  0.0296
 6990TIP3    H142529   4.391   2.222   1.607  2.0346  0.5717 -1.1310
 6990TIP3    H242530   4.349   2.111   1.513  1.0410  1.0793 -1.3017
 6991TIP3   OH242531   4.179   3.628   0.492 -0.3578 -0.3048  0.2760
 6991TIP3    H142532   4.091   3.619   0.529 -0.8357 -0.7749 -0.9394
 6991TIP3    H242533   4.209   3.713   0.522 -0.4273 -0.9331  2.3330
 6992TIP3   OH242534   6.510   5.351   2.061 -0.2731  0.0888  0.4419
 6992TIP3    H142535   6.574   5.337   1.991 -0.8421 -1.8201  0.2375
 6992TIP3    H242536   6.560   5.340   2.141 -0.1399 -0.4860  0.2896
 6993TIP3   OH242537   5.578   3.586   1.483  0.3396  0.5605 -0.4583
 6993TIP3    H142538   5.639   3.659   1.495  0.5993  0.2180  0.3556
 6993TIP3    H242539   5.632   3.512   1.458  0.4083  0.0283  1.1148
 6994TIP3   OH242540   4.731   2.078   2.563  0.5543 -0.7043  0.2588
 6994TIP3    H142541   4.812   2.128   2.572 -0.1535  0.3989  0.6499
 6994TIP3    H242542   4.680   2.099   2.641  0.4548 -2.4959  0.7324
 6995TIP3   OH242543   7.035   1.347   2.030 -0.5009  0.0917 -0.1810
 6995TIP3    H142544   7.071   1.290   1.962  1.1079  0.0563  0.6644
 6995TIP3    H242545   6.997   1.287   2.094  0.6520 -0.0171  0.4107
 6996TIP3   OH242546   0.455   5.209   7.420  0.1073 -0.5897  0.5614
 6996TIP3    H142547   0.391   5.219   7.350 -0.2932  0.2911  1.0412
 6996TIP3    H242548   0.517   5.281   7.406  1.8718 -2.2461 -0.7680
 6997TIP3   OH242549   1.400   0.056   7.078  0.0447  0.6936  0.5550
 6997TIP3    H142550   1.468   0.103   7.030  0.2780  2.1122  2.1836
 6997TIP3    H242551   1.446   0.015   7.151 -0.8868  2.2981  2.1216
 6998TIP3   OH242552   6.160   4.087   0.227 -0.2077 -0.4261 -0.0373
 6998TIP3    H142553   6.109   4.145   0.169  0.3987 -0.3407 -0.4944
 6998TIP3    H242554   6.161   4.133   0.311 -0.5242 -0.2210 -0.1431
 6999TIP3   OH242555   1.948   1.496   7.534 -0.0247  0.3553  0.5086
 6999TIP3    H142556   2.030   1.467   7.494 -0.4979 -0.3821  0.0407
 6999TIP3    H242557   1.971   1.518   7.624  0.8811  1.1352  0.1071
 7000TIP3   OH242558   0.070   4.819   3.230 -0.2569 -0.6009 -0.1027
 7000TIP3    H142559   0.160   4.817   3.263 -0.2313 -0.3359 -0.1495
 7000TIP3    H242560   0.065   4.747   3.168  0.1792 -0.0871 -0.7449
 7001TIP3   OH242561   3.552   6.509   1.483 -0.3403  0.1408 -0.0679
 7001TIP3    H142562   3.489   6.580   1.474 -1.7526 -1.2439 -2.0855
 7001TIP3    H242563   3.507   6.432   1.448  1.5027 -1.5422  1.0073
 7002TIP3   OH242564   5.932   3.966   0.059  0.6404  0.1368  0.2970
 7002TIP3    H142565   6.004   4.024   0.037  1.0555 -0.7393 -0.7155
 7002TIP3    H242566   5.880   4.015   0.123 -0.5180  2.7559 -2.3908
 7003TIP3   OH242567   3.632   3.400   6.389 -0.1613  0.8470  0.3271
 7003TIP3    H142568   3.557   3.353   6.353  0.7079  0.3116 -0.8253
 7003TIP3    H242569   3.679   3.334   6.441  0.8487  0.4964 -0.9788
 7004TIP3   OH242570   4.737   7.141   7.845 -0.3923 -0.2527 -0.0690
 7004TIP3    H142571   4.687   7.159   7.925 -1.8420  0.4278 -1.0899
 7004TIP3    H242572   4.755   7.047   7.850 -2.0015 -0.5842  0.2347
 7005TIP3   OH242573   0.132   5.311   7.470  0.0621 -1.0496 -0.0431
 7005TIP3    H142574   0.065   5.273   7.527 -0.5009 -2.6373 -1.6799
 7005TIP3    H242575   0.087   5.378   7.420  0.5672  0.3767  1.3273
 7006TIP3   OH242576   6.392   0.346   7.871 -0.3754  0.4211 -0.0322
 7006TIP3    H142577   6.440   0.318   7.793  0.1956  1.6836 -0.1682
 7006TIP3    H242578   6.399   0.272   7.931  3.3449  1.1027  0.6585
 7007TIP3   OH242579   2.615   3.711   0.695  0.0298  0.2134 -0.1718
 7007TIP3    H142580   2.578   3.758   0.770  1.4978  1.9429 -0.4750
 7007TIP3    H242581   2.596   3.619   0.713 -0.8201  0.6951  1.6449
 7008TIP3   OH242582   6.246   2.958   1.937  0.1749 -0.1375 -0.3986
 7008TIP3    H142583   6.328   2.972   1.984 -0.8654 -2.0122  2.1689
 7008TIP3    H242584   6.188   3.028   1.968  0.2646  0.1970 -0.9604
 7009TIP3   OH242585   1.425   2.167   7.822  0.0598 -0.0885 -0.2958
 7009TIP3    H142586   1.385   2.253   7.814  1.8031  0.6938 -1.0850
 7009TIP3    H242587   1.397   2.120   7.743 -1.4488 -0.5237  0.4662
 7010TIP3   OH242588   2.617   6.068   2.083  0.1668  0.2915  0.0431
 7010TIP3    H142589   2.531   6.081   2.123  0.6561  0.8098  0.9632
 7010TIP3    H242590   2.678   6.067   2.157  0.9782  0.1429 -0.6129
 7011TIP3   OH242591   3.075   4.734   6.823 -0.1018 -0.3385  0.2994
 7011TIP3    H142592   3.090   4.793   6.749  0.0002  0.0772  0.6469
 7011TIP3    H242593   3.144   4.755   6.885  1.4067 -2.4503 -0.5447
 7012TIP3   OH242594   4.559   2.320   7.774 -0.3566  0.2576 -1.1268
 7012TIP3    H142595   4.499   2.249   7.750 -1.3644  0.7460 -0.2085
 7012TIP3    H242596   4.512   2.399   7.749 -0.2853  0.6648 -0.0237
 7013TIP3   OH242597   4.364   3.779   1.125 -0.3723 -0.0390 -0.1372
 7013TIP3    H142598   4.283   3.739   1.156  0.2826 -1.0603  0.3505
 7013TIP3    H242599   4.359   3.870   1.153 -1.6330  0.0801 -0.6965
 7014TIP3   OH242600   2.045   2.370   1.713 -0.3616 -0.3352 -0.0796
 7014TIP3    H142601   1.978   2.428   1.749 -0.1349  0.1085 -0.3640
 7014TIP3    H242602   2.028   2.285   1.754 -0.9551 -0.1715  0.0221
 7015TIP3   OH242603   1.941   0.283   1.504 -0.0355  0.3643  0.2619
 7015TIP3    H142604   1.949   0.196   1.542  0.7006  0.3062  0.0032
 7015TIP3    H242605   1.932   0.342   1.579  0.4674  0.1587  0.4865
 7016TIP3   OH242606   1.308   5.255   0.801 -0.2433 -0.2241  0.3149
 7016TIP3    H142607   1.232   5.294   0.759  0.8247  2.2788  0.5139
 7016TIP3    H242608   1.339   5.190   0.738 -2.5119 -1.3359  0.2578
 7017TIP3   OH242609   7.011   5.783   0.535 -0.7265  0.1028  0.4981
 7017TIP3    H142610   6.990   5.750   0.622 -0.5515  1.4219  1.0750
 7017TIP3    H242611   6.936   5.837   0.511 -1.4499 -1.4224 -0.8383
 7018TIP3   OH242612   2.262   1.029   2.597  0.4986  0.3812 -0.1882
 7018TIP3    H142613   2.218   1.103   2.555  0.3451  0.8240  0.7409
 7018TIP3    H242614   2.196   0.959   2.598 -0.0089  0.8587  0.6773
 7019TIP3   OH242615   0.542   3.128   7.539 -0.0540  0.1767  0.0877
 7019TIP3    H142616   0.478   3.196   7.561 -0.7758 -0.4322 -0.0826
 7019TIP3    H242617   0.612   3.175   7.494  0.6917  1.2037  2.1683
 7020TIP3   OH242618   5.860   6.718   1.551 -0.0653 -0.1690  0.4624
 7020TIP3    H142619   5.955   6.726   1.562 -0.0493  0.6872 -0.1665
 7020TIP3    H242620   5.849   6.649   1.486  0.0815 -0.9055  1.2060
 7021TIP3   OH242621   1.775   3.956   0.238  0.0480  0.4308  0.4634
 7021TIP3    H142622   1.779   3.895   0.164 -0.9860  2.0022 -0.9623
 7021TIP3    H242623   1.858   4.002   0.236 -1.2768  3.0305 -2.1370
 7022TIP3   OH242624   0.212   1.840   1.738  0.0348 -0.1417  0.2666
 7022TIP3    H142625   0.253   1.774   1.794 -2.3393 -1.1684  0.9660
 7022TIP3    H242626   0.184   1.908   1.800 -1.1157 -0.4861  0.1660
 7023TIP3   OH242627   3.913   0.375   7.623  0.2955 -0.2338  0.2387
 7023TIP3    H142628   4.005   0.395   7.608 -0.1547  0.1260 -2.4374
 7023TIP3    H242629   3.867   0.411   7.547 -2.2316  0.6148  2.0106
 7024TIP3   OH242630   1.365   2.821   0.634 -0.8462  0.1771 -0.2851
 7024TIP3    H142631   1.326   2.907   0.621  0.2546  0.6754 -0.4624
 7024TIP3    H242632   1.440   2.837   0.692 -0.2766 -0.5618 -0.7940
 7025TIP3   OH242633   6.459   6.401   7.772 -0.3121  0.5473 -0.5777
 7025TIP3    H142634   6.406   6.455   7.831 -0.2574  0.7422 -0.7044
 7025TIP3    H242635   6.417   6.411   7.687 -1.1173 -0.7156 -0.3422
 7026TIP3   OH242636   4.163   3.566   0.193  0.3952  0.4814  0.0805
 7026TIP3    H142637   4.257   3.562   0.177  0.3658  1.2671 -0.3871
 7026TIP3    H242638   4.154   3.593   0.284  0.6547  1.6256 -0.2104
 7027TIP3   OH242639   2.849   1.267   2.466 -0.0341  0.0856 -0.3618
 7027TIP3    H142640   2.892   1.337   2.515  0.2393  1.1666 -2.0625
 7027TIP3    H242641   2.918   1.203   2.449  0.1743  0.3413 -0.4714
 7028TIP3   OH242642   6.946   0.111   0.973  0.3962 -0.0707 -0.2725
 7028TIP3    H142643   6.901   0.184   1.015 -1.2529 -0.6564 -0.9239
 7028TIP3    H242644   6.906   0.105   0.886  1.3469 -0.9900 -0.6675
 7029TIP3   OH242645   7.129   0.301   7.194 -0.0012  0.2498 -0.4013
 7029TIP3    H142646   7.063   0.364   7.163 -1.2977 -1.7623 -1.9738
 7029TIP3    H242647   7.079   0.224   7.219  1.6802 -0.8984 -0.4302
 7030TIP3   OH242648   3.743   3.973   0.049  0.1319 -0.1089  0.1185
 7030TIP3    H142649   3.687   3.911   0.003  1.2593 -1.3894  0.3848
 7030TIP3    H242650   3.808   3.918   0.094  1.6045  1.2953 -0.1798
 7031TIP3   OH242651   3.273   6.810   1.968  0.1300 -0.0048  0.1680
 7031TIP3    H142652   3.203   6.798   2.032  1.6775  0.6626  2.1019
 7031TIP3    H242653   3.325   6.729   1.974  1.2789  0.7684  1.1215
 7032TIP3   OH242654   2.023   6.466   7.951  0.1200  0.0238 -0.1405
 7032TIP3    H142655   2.108   6.511   7.952 -0.3558  1.0609 -1.6214
 7032TIP3    H242656   1.969   6.521   7.894 -1.1658 -1.3017 -0.2351
 7033TIP3   OH242657   2.245   6.444   6.896  0.6729  0.3908  0.6419
 7033TIP3    H142658   2.220   6.478   6.982  0.0094 -0.8983  0.9729
 7033TIP3    H242659   2.176   6.474   6.837 -0.5700 -1.3186  1.1534
 7034TIP3   OH242660   2.338   1.855   1.044  0.0765  0.7764  0.3746
 7034TIP3    H142661   2.323   1.921   1.112  1.6515  0.8007  0.7497
 7034TIP3    H242662   2.428   1.825   1.060 -0.9986 -2.4787  1.1164
 7035TIP3   OH242663   0.289   4.335   7.225  0.2642  0.2816 -0.3329
 7035TIP3    H142664   0.338   4.292   7.155  1.7256 -0.1955  0.9406
 7035TIP3    H242665   0.344   4.327   7.303 -0.9716  1.4504  0.7324
 7036TIP3   OH242666   5.884   3.543   6.345 -0.0947 -0.3099 -0.4564
 7036TIP3    H142667   5.903   3.451   6.365 -1.3497 -0.0841  2.3544
 7036TIP3    H242668   5.823   3.540   6.272  0.4924 -1.6598 -0.9239
 7037TIP3   OH242669   6.380   6.936   6.346 -0.1039  0.1964  0.7225
 7037TIP3    H142670   6.286   6.930   6.328 -0.3299  0.1683  1.8395
 7037TIP3    H242671   6.391   7.025   6.380  0.1991  0.0413  1.0231
 7038TIP3   OH242672   5.982   3.090   1.866  0.0473 -0.0679  0.2002
 7038TIP3    H142673   5.955   3.019   1.807 -2.3487 -0.7631  1.9520
 7038TIP3    H242674   6.020   3.156   1.808 -1.0289 -1.2243 -1.9643
 7039TIP3   OH242675   1.711   1.524   1.573  0.5756  0.4442 -0.1483
 7039TIP3    H142676   1.684   1.610   1.607  0.6269  0.9678 -1.3755
 7039TIP3    H242677   1.628   1.479   1.554  0.5441  0.7280 -0.7066
 7040TIP3   OH242678   0.889   3.521   7.399 -0.5416  0.4738 -0.0871
 7040TIP3    H142679   0.886   3.579   7.322  0.4088  2.1686  1.0917
 7040TIP3    H242680   0.830   3.562   7.462  0.9869  0.8069  1.1697
 7041TIP3   OH242681   1.211   6.559   1.979  0.5401  0.0398 -0.5723
 7041TIP3    H142682   1.228   6.629   1.917  1.3355  1.7108  1.4353
 7041TIP3    H242683   1.148   6.596   2.041 -0.6680 -1.7686 -0.6194
 7042TIP3   OH242684   2.142   2.510   6.586  0.7306 -0.5189  0.3448
 7042TIP3    H142685   2.155   2.442   6.520  0.8447  0.3498 -0.5469
 7042TIP3    H242686   2.186   2.587   6.550  0.6803  0.0094  1.3800
 7043TIP3   OH242687   0.661   5.907   2.375  0.0362  0.1876  0.3042
 7043TIP3    H142688   0.651   5.991   2.332 -3.2544 -0.2903 -0.0733
 7043TIP3    H242689   0.708   5.853   2.311 -1.9470  0.4236 -1.4319
 7044TIP3   OH242690   2.175   5.940   2.435 -0.0279 -0.1376  0.6129
 7044TIP3    H142691   2.092   5.974   2.402  1.0246  1.3179 -0.6897
 7044TIP3    H242692   2.196   5.996   2.509  0.9757  1.1590 -0.6084
 7045TIP3   OH242693   5.759   1.286   7.289  0.8086 -0.2377 -0.8949
 7045TIP3    H142694   5.854   1.275   7.300  1.0416  1.6452 -0.7321
 7045TIP3    H242695   5.748   1.310   7.197  0.2322 -2.4254 -1.4672
 7046TIP3   OH242696   3.856   4.724   2.172 -0.3757 -0.2721 -0.2143
 7046TIP3    H142697   3.945   4.699   2.147 -0.9817 -2.9533 -0.0548
 7046TIP3    H242698   3.862   4.748   2.264  0.0841 -1.2579  0.0259
 7047TIP3   OH242699   1.325   3.760   0.633  0.1496  0.3985  0.0615
 7047TIP3    H142700   1.415   3.763   0.598  0.0565  2.8150 -0.1619
 7047TIP3    H242701   1.335   3.769   0.727  0.2389 -3.0301  0.5047
 7048TIP3   OH242702   2.252   6.027   0.071 -0.7504  1.0286  0.3802
 7048TIP3    H142703   2.185   5.960   0.084  1.9957 -1.8287  0.8139
 7048TIP3    H242704   2.267   6.063   0.159  0.8468 -1.0578  1.0340
 7049TIP3   OH242705   6.414   5.654   7.280  0.0712 -0.4106 -0.4495
 7049TIP3    H142706   6.423   5.571   7.234 -2.4364 -1.0184 -0.0041
 7049TIP3    H242707   6.329   5.688   7.252  0.7596  1.6979 -0.1153
 7050TIP3   OH242708   6.652   6.699   0.689 -0.3068 -0.4921 -0.4214
 7050TIP3    H142709   6.635   6.770   0.628  3.5772  1.3909  0.3991
 7050TIP3    H242710   6.659   6.621   0.634 -0.3356  0.5318 -1.9324
 7051TIP3   OH242711   1.027   7.114   0.655 -0.3679  0.0386 -0.3447
 7051TIP3    H142712   1.078   7.095   0.576 -1.4071  0.9187 -1.2538
 7051TIP3    H242713   0.961   7.176   0.626  1.2697  3.0731  1.9386
 7052TIP3   OH242714   4.437   6.862   7.916  1.0234  0.7476  0.8005
 7052TIP3    H142715   4.404   6.857   7.827  0.2041  0.4573  1.1085
 7052TIP3    H242716   4.373   6.917   7.962  0.8648  0.0289  1.4530
 7053TIP3   OH242717   0.736   5.357   6.659 -0.0384  0.6061  0.0025
 7053TIP3    H142718   0.679   5.294   6.703  1.5753 -0.4295  0.6963
 7053TIP3    H242719   0.799   5.383   6.726  1.5669  0.1344 -1.2632
 7054TIP3   OH242720   0.432   1.034   1.686  0.3430  0.0712 -0.5581
 7054TIP3    H142721   0.467   1.083   1.760 -0.0433 -0.7024  0.1502
 7054TIP3    H242722   0.482   0.952   1.685  0.3843  0.0923 -1.1981
 7055TIP3   OH242723   1.383   1.550   1.686  0.0258 -0.1372 -0.3427
 7055TIP3    H142724   1.446   1.619   1.668  1.3404 -1.6804 -2.0441
 7055TIP3    H242725   1.430   1.486   1.739 -0.1969 -1.1249 -1.2962
 7056TIP3   OH242726   2.177   6.725   1.553  0.2534  0.6227  0.1896
 7056TIP3    H142727   2.130   6.665   1.610  0.3754 -0.7185 -1.0476
 7056TIP3    H242728   2.141   6.812   1.573  0.1447  0.1757  2.0990
 7057LIG     O142729   6.200   6.700   4.172  0.0445 -0.2225 -0.4895
 7057LIG     O242730   5.994   6.694   4.283  0.1218 -0.5691  0.0082
 7057LIG     O342731   5.909   6.613   4.079  0.6477 -0.3001  0.0197
 7057LIG     O442732   6.265   6.881   4.419 -0.3891  0.1696 -0.3378
 7057LIG     O542733   6.235   7.061   4.198  0.3339 -0.1055 -1.1230
 7057LIG     O642734   5.912   6.429   4.404 -0.4777 -0.2835  0.5078
 7057LIG     O742735   5.722   6.655   4.385 -1.4527  0.0668  0.0665
 7057LIG     O842736   5.561   6.687   4.174  0.3652 -0.3327  0.0785
 7057LIG     O942737   6.113   6.582   4.523 -0.0160  0.6478  0.1904
 7057LIG    O1042738   6.077   6.801   3.934  0.8739 -0.0560 -0.0749
 7057LIG    O1142739   5.616   6.783   3.918 -0.7426 -0.3823 -0.6494
 7057LIG     C142740   6.134   6.710   4.298 -0.2486  0.1657 -0.2643
 7057LIG     C242741   6.153   6.861   4.334 -0.2482 -0.0293  0.0845
 7057LIG     C342742   6.168   6.935   4.201  0.4804 -0.7401  0.2561
 7057LIG     C442743   6.243   6.831   4.118  0.5425 -1.3775  0.4756
 7057LIG     C542744   5.957   6.574   4.205  0.4507 -0.9787  0.7216
 7057LIG     C642745   5.861   6.482   4.281 -0.0636 -0.1874 -0.1918
 7057LIG     C742746   5.720   6.547   4.292 -1.1383  0.2928  0.2869
 7057LIG     C842747   5.671   6.600   4.151  0.2678  0.1625 -0.6145
 7057LIG     C942748   5.782   6.683   4.080  0.0916  0.7126 -0.0784
 7057LIG    C1042749   6.189   6.604   4.404 -0.6159 -0.1415  0.4339
 7057LIG    C1142750   6.214   6.824   3.968 -0.3218  0.1799 -0.2024
 7057LIG    C1242751   5.740   6.706   3.934  0.5878 -0.1751 -0.3461
 7057LIG     H142752   6.060   6.895   4.382 -1.2789  3.7040 -3.8869
 7057LIG     H242753   6.069   6.954   4.156  0.8627  1.4759  0.2461
 7057LIG     H342754   6.351   6.845   4.133  0.5478 -0.7567 -0.1014
 7057LIG     H442755   6.038   6.500   4.186 -0.2438 -1.5116 -0.2959
 7057LIG     H542756   5.853   6.389   4.220  2.5232  0.7363 -2.1614
 7057LIG     H642757   5.659   6.468   4.340 -0.2695 -2.0211 -2.1988
 7057LIG     H742758   5.639   6.521   4.080  0.1807 -1.0851  0.7710
 7057LIG     H842759   5.788   6.775   4.141  2.9716  0.0293  0.8512
 7057LIG     H942760   6.169   6.507   4.354  0.0111  0.8417 -1.8492
 7057LIG    H1042761   6.299   6.614   4.420 -0.1390 -1.4730 -1.6187
 7057LIG    H1142762   6.246   6.924   3.930  1.6933 -0.5974 -0.6964
 7057LIG    H1242763   6.285   6.762   3.910 -1.5029 -0.1113 -1.3947
 7057LIG    H1342764   5.820   6.753   3.873  0.5536  0.0306 -0.2353
 7057LIG    H1442765   5.730   6.608   3.884 -0.3277 -0.7791  0.9455
 7057LIG    H1542766   6.230   6.862   4.506 -2.7046 -0.1904 -1.2676
 7057LIG    H1642767   6.288   7.063   4.279 -0.3100  0.9165 -0.7075
 7057LIG    H1742768   5.983   6.488   4.432 -0.2304  0.8522 -2.2080
 7057LIG    H1842769   5.644   6.705   4.360 -1.2946 -0.8648 -2.6654
 7057LIG    H1942770   5.550   6.730   4.089 -0.3548 -1.4217 -0.4142
 7057LIG    H2042771   6.172   6.569   4.598  2.8031  4.2780 -1.1114
 7057LIG    H2142772   6.047   6.719   3.974  0.3281  0.3618  0.3801
 7057LIG    H2242773   5.629   6.830   3.835 -0.2394  0.3114 -0.1817
   7.14749   7.14749   8.01104
