Title
42773
    1SAPS     N    1   4.962   4.289   6.726 -0.9049  0.1335  0.0810
    1SAPS   HN1    2   4.951   4.321   6.628  0.5610  0.2469 -0.0678
    1SAPS   HN2    3   5.015   4.200   6.718  0.6471  0.8035  2.0994
    1SAPS   HN3    4   4.865   4.274   6.762 -1.2719 -1.2681 -1.3604
    1SAPS   C12    5   5.020   4.406   6.810  0.5537 -0.0062 -0.0586
    1SAPS  H12A    6   4.978   4.499   6.775  1.2573  0.3973  0.1465
    1SAPS   C13    7   4.986   4.400   6.953 -0.4067 -0.6306  0.5953
    1SAPS  O13A    8   4.900   4.315   7.001  0.1643 -0.6397  0.0043
    1SAPS  O13B    9   5.037   4.487   7.027  0.2529 -0.2339  0.3205
    1SAPS   C11   10   5.171   4.407   6.803 -0.4235 -0.0486  0.4546
    1SAPS  H11A   11   5.216   4.319   6.854  0.1611  0.6822  1.2201
    1SAPS  H11B   12   5.209   4.497   6.856  0.1407 -0.7552  1.2779
    1SAPS     P   13   5.357   4.439   6.634 -0.2694 -0.1771 -0.4408
    1SAPS   O13   14   5.440   4.364   6.731  0.2494  0.4930 -0.1977
    1SAPS   O14   15   5.389   4.415   6.492 -0.0741 -0.0840  0.2138
    1SAPS   O12   16   5.208   4.413   6.664 -0.0322  0.2089 -0.4589
    1SAPS   O11   17   5.374   4.594   6.659 -0.3895  0.0317  0.0617
    1SAPS    C1   18   5.294   4.693   6.596  0.6140  0.0386 -0.4793
    1SAPS    HA   19   5.201   4.661   6.544  0.3894 -0.1725  0.0497
    1SAPS    HB   20   5.266   4.763   6.677 -0.5025 -0.4631 -0.4087
    1SAPS    C2   21   5.377   4.784   6.494 -0.4209  0.5578 -0.2656
    1SAPS    HS   22   5.293   4.844   6.453 -1.4547 -0.4887  0.2657
    1SAPS   O21   23   5.435   4.708   6.395 -0.1534 -0.1529  0.3843
    1SAPS   C21   24   5.362   4.651   6.297  0.0949 -0.5987 -0.3610
    1SAPS   O22   25   5.240   4.653   6.286  0.3072 -0.3153 -0.5748
    1SAPS   C22   26   5.449   4.567   6.204  0.9885  0.1423 -0.1108
    1SAPS   H2R   27   5.555   4.595   6.220  0.8045  2.0811 -1.8449
    1SAPS   H2S   28   5.419   4.462   6.224 -1.2503  0.5950 -0.7852
    1SAPS    C3   29   5.477   4.878   6.562 -0.6565  0.3530  0.1164
    1SAPS    HX   30   5.544   4.808   6.616 -2.8024 -0.3174  2.1050
    1SAPS    HY   31   5.430   4.918   6.654 -0.5968 -1.8979  1.1981
    1SAPS   O31   32   5.530   4.967   6.459 -0.2467 -0.1401 -0.0118
    1SAPS   C31   33   5.626   5.033   6.505  0.0565  0.1626 -0.2196
    1SAPS   O32   34   5.663   5.019   6.620  0.5076 -0.3691 -0.3778
    1SAPS   C32   35   5.690   5.132   6.414  0.1850  0.3038  0.2091
    1SAPS   H2X   36   5.763   5.199   6.465  0.2708 -0.0068  0.4964
    1SAPS   H2Y   37   5.619   5.210   6.379  1.3909  0.7493 -1.3394
    1SAPS   C23   38   5.432   4.597   6.049  0.2717 -0.7819 -0.2241
    1SAPS   H3R   39   5.459   4.705   6.045 -1.6385 -0.2750 -0.3084
    1SAPS   H3S   40   5.329   4.587   6.008 -0.4313  1.2088  0.9326
    1SAPS   C24   41   5.535   4.519   5.962  0.9055 -0.5035 -0.2171
    1SAPS   H4R   42   5.642   4.535   5.989  0.8161  0.6103 -0.4743
    1SAPS   H4S   43   5.513   4.547   5.856 -1.6627 -0.9853  0.1332
    1SAPS   C25   44   5.489   4.379   5.983 -0.5819  0.4531  0.7943
    1SAPS   H5R   45   5.380   4.368   5.968 -0.7283  2.5369  0.0295
    1SAPS   C26   46   5.563   4.270   6.007  0.6177  0.1661 -0.0913
    1SAPS   H6R   47   5.504   4.181   6.032 -1.6572  0.5977 -3.3736
    1SAPS   C27   48   5.715   4.263   6.013  0.6524 -0.6654  0.0560
    1SAPS   H7R   49   5.744   4.297   6.114 -5.5001  0.0195  1.9698
    1SAPS   H7S   50   5.766   4.320   5.932 -1.0909  0.1716 -0.5002
    1SAPS   C28   51   5.772   4.125   5.998 -0.0801  0.1728  0.0181
    1SAPS   H8R   52   5.807   4.074   6.089  0.2209 -2.6940 -1.5900
    1SAPS   C29   53   5.774   4.061   5.880  0.2489 -0.2567  0.3226
    1SAPS   H9R   54   5.819   3.961   5.879  0.4800 -0.1534 -0.1644
    1SAPS  C210   55   5.725   4.111   5.745  0.2014  0.3186  0.2622
    1SAPS  H10R   56   5.694   4.218   5.753  0.5148  0.4022  0.3985
    1SAPS  H10S   57   5.632   4.060   5.712 -1.7597  1.0689  4.0771
    1SAPS  C211   58   5.837   4.105   5.643  0.4065  0.2753  0.1831
    1SAPS  H11R   59   5.920   4.172   5.668  0.8212 -0.9701  2.4332
    1SAPS  C212   60   5.848   4.023   5.536 -0.1924  0.1397  0.3301
    1SAPS  H12R   61   5.939   4.024   5.475 -0.3910 -0.9302 -0.0152
    1SAPS  C213   62   5.743   3.924   5.495 -0.0332 -0.5836 -0.0973
    1SAPS  H13R   63   5.677   3.891   5.577 -0.9853 -1.4881 -1.1956
    1SAPS  H13S   64   5.798   3.835   5.457  0.6701 -1.0136  1.8056
    1SAPS  C214   65   5.664   3.984   5.377  0.2634 -0.2632 -0.4983
    1SAPS  H14R   66   5.610   4.078   5.394  1.0366  0.0757  0.1879
    1SAPS  C215   67   5.651   3.933   5.256  0.1118 -0.2531 -0.2356
    1SAPS  H15R   68   5.589   3.990   5.184 -0.6048 -1.5971 -0.7213
    1SAPS  C216   69   5.729   3.819   5.197 -0.2141 -0.4178 -0.5457
    1SAPS  H16R   70   5.666   3.756   5.131  0.7102 -0.0728 -1.7993
    1SAPS  H16S   71   5.764   3.755   5.281 -1.0036 -2.7425 -1.9014
    1SAPS  C217   72   5.854   3.859   5.117 -0.0512 -0.0752 -0.1631
    1SAPS  H17R   73   5.906   3.765   5.088  1.6092  1.0994 -1.2002
    1SAPS  H17S   74   5.926   3.921   5.175  1.4523 -2.8987  1.2056
    1SAPS  C218   75   5.820   3.926   4.981 -0.0609 -0.1900  0.2285
    1SAPS  H18R   76   5.806   4.036   4.981 -0.2000 -0.1965 -0.7568
    1SAPS  H18S   77   5.727   3.878   4.945  0.4656  0.8316 -2.7527
    1SAPS  C219   78   5.933   3.905   4.877  0.1156 -0.3711 -0.3474
    1SAPS  H19R   79   5.957   3.798   4.860 -1.1606 -0.9633  1.3201
    1SAPS  H19S   80   6.015   3.971   4.914  0.2036 -0.0270 -1.1377
    1SAPS  C220   81   5.887   3.967   4.739 -0.0355  0.0344  0.1757
    1SAPS  H20R   82   5.954   3.937   4.655 -0.6219  0.9667 -0.6534
    1SAPS  H20S   83   5.879   4.078   4.737  1.0644  0.1320 -1.9049
    1SAPS  H20T   84   5.785   3.928   4.722 -1.2746  2.9037  0.3947
    1SAPS   C33   85   5.772   5.076   6.295  0.2001  0.5569 -0.2560
    1SAPS   H3X   86   5.849   4.999   6.320 -0.4648 -0.0485 -0.0317
    1SAPS   H3Y   87   5.824   5.156   6.239  2.3339 -0.7881 -0.3305
    1SAPS   C34   88   5.690   4.988   6.198  0.0575  0.2950 -0.4154
    1SAPS   H4X   89   5.600   5.051   6.179 -0.1303  0.3814  0.7078
    1SAPS   H4Y   90   5.654   4.896   6.248 -1.2363  0.8675 -0.2455
    1SAPS   C35   91   5.767   4.950   6.073  0.0591  0.1416  1.3588
    1SAPS   H5X   92   5.861   4.898   6.101 -0.4377 -0.8097  1.2867
    1SAPS   H5Y   93   5.788   5.040   6.011 -2.5241 -0.3432 -0.3677
    1SAPS   C36   94   5.696   4.847   5.976 -0.0040 -0.4253  0.8375
    1SAPS   H6X   95   5.590   4.879   5.962  0.3165  0.1695 -0.4892
    1SAPS   H6Y   96   5.699   4.744   6.016  2.5450 -2.0805 -2.9788
    1SAPS   C37   97   5.755   4.850   5.835  0.5872  0.3121  0.2194
    1SAPS   H7X   98   5.863   4.834   5.854  0.7044  0.1275 -0.5438
    1SAPS   H7Y   99   5.748   4.949   5.783  0.6568  0.4952  0.5575
    1SAPS   C38  100   5.707   4.743   5.739  0.0591 -0.0167  1.1898
    1SAPS   H8X  101   5.598   4.728   5.753 -0.4562  1.8545 -0.3314
    1SAPS   H8Y  102   5.753   4.649   5.776  1.1320  0.1746  0.4161
    1SAPS   C39  103   5.734   4.759   5.585 -0.5499 -0.2686  1.0104
    1SAPS   H9X  104   5.842   4.784   5.582 -0.5485 -0.2843 -1.2264
    1SAPS   H9Y  105   5.674   4.844   5.545  0.1479 -0.2455 -0.0340
    1SAPS  C310  106   5.713   4.628   5.499  0.0861  0.3635  0.3878
    1SAPS  H10X  107   5.806   4.572   5.520  0.6527  0.3468 -1.8739
    1SAPS  H10Y  108   5.716   4.654   5.391  0.7831  0.4897  0.4336
    1SAPS  C311  109   5.579   4.562   5.527  0.3679 -0.3334  0.6991
    1SAPS  H11X  110   5.503   4.638   5.498  1.0939 -0.1221 -0.7610
    1SAPS  H11Y  111   5.567   4.535   5.634  2.0317  0.8030  1.1992
    1SAPS  C312  112   5.564   4.433   5.439  0.1483 -0.2305 -0.5026
    1SAPS  H12X  113   5.464   4.396   5.470 -0.2309  1.3169  0.2081
    1SAPS  H12Y  114   5.642   4.363   5.476 -0.9225 -0.5966  1.1833
    1SAPS  C313  115   5.571   4.446   5.284  0.5892  0.0328 -0.3730
    1SAPS  H13X  116   5.674   4.485   5.266  1.3996 -1.7784  0.0969
    1SAPS  H13Y  117   5.498   4.519   5.243 -1.4993 -1.3824  0.6383
    1SAPS  C314  118   5.548   4.311   5.213  0.4811  0.1674 -0.7060
    1SAPS  H14X  119   5.474   4.250   5.269  1.5881 -0.2891  0.3061
    1SAPS  H14Y  120   5.643   4.256   5.231  0.8366  0.4292 -1.6837
    1SAPS  C315  121   5.519   4.322   5.064 -0.1286  0.2372  0.1487
    1SAPS  H15X  122   5.596   4.385   5.016 -1.0877  0.3649 -1.2905
    1SAPS  H15Y  123   5.418   4.367   5.050 -0.4854  0.4492  2.8447
    1SAPS  C316  124   5.516   4.186   4.989 -0.2787  0.7955  0.1031
    1SAPS  H16X  125   5.430   4.126   5.027  2.0362 -1.4261  2.2979
    1SAPS  H16Y  126   5.608   4.131   5.020  0.1729  2.2500  1.4368
    1SAPS  C317  127   5.506   4.202   4.841  0.2694  0.3136  0.1119
    1SAPS  H17X  128   5.602   4.251   4.813  1.0508 -1.3536 -0.2663
    1SAPS  H17Y  129   5.417   4.262   4.815 -0.3286 -0.9023 -0.7352
    1SAPS  C318  130   5.498   4.064   4.778 -0.2796 -0.3075 -0.1806
    1SAPS  H18X  131   5.393   4.027   4.779 -0.1274 -0.7324  0.5760
    1SAPS  H18Y  132   5.563   3.992   4.832  2.4568  0.5982 -2.0335
    1SAPS  H18Z  133   5.531   4.060   4.672 -2.1752 -1.9171 -0.7669
    2SAPS     N  134   5.115   6.871   7.229  0.5392 -0.2762 -0.3510
    2SAPS   HN1  135   5.043   6.924   7.176  0.2961 -1.3615 -1.1417
    2SAPS   HN2  136   5.105   6.772   7.200 -1.8901 -0.0784 -0.3760
    2SAPS   HN3  137   5.098   6.870   7.332 -2.5713  0.5191 -0.7679
    2SAPS   C12  138   5.265   6.897   7.223 -0.3164 -0.2559  0.4427
    2SAPS  H12A  139   5.296   6.997   7.251 -2.3013  0.1920  1.2123
    2SAPS   C13  140   5.333   6.802   7.325  0.1406  0.3103  0.5884
    2SAPS  O13A  141   5.265   6.731   7.404  0.0156  0.9280  0.1386
    2SAPS  O13B  142   5.458   6.781   7.312  0.0296 -0.1360  0.1807
    2SAPS   C11  143   5.315   6.868   7.072  0.0135 -0.3228  0.6266
    2SAPS  H11A  144   5.294   6.761   7.053  0.7855 -0.8592  2.5747
    2SAPS  H11B  145   5.426   6.876   7.071  0.1319 -1.4420 -2.0591
    2SAPS     P  146   5.288   7.105   6.984  0.9400  0.1313  0.3270
    2SAPS   O13  147   5.222   7.171   7.100 -0.5022 -0.3028 -0.3206
    2SAPS   O14  148   5.436   7.114   6.992 -0.9538 -0.3810 -0.1853
    2SAPS   O12  149   5.244   6.953   6.978 -0.0975  0.0037  0.1073
    2SAPS   O11  150   5.225   7.172   6.849  0.0782 -0.1028  0.0644
    2SAPS    C1  151   5.213   7.090   6.730 -0.2658 -0.1342 -0.3046
    2SAPS    HA  152   5.304   7.027   6.730  1.3579  2.0763 -0.6675
    2SAPS    HB  153   5.118   7.033   6.738 -1.7954  2.2916  0.1508
    2SAPS    C2  154   5.211   7.181   6.603  0.4761 -0.4594  0.5171
    2SAPS    HS  155   5.150   7.268   6.635  0.2006  0.1753 -1.5801
    2SAPS   O21  156   5.161   7.105   6.495  0.4232 -0.4021 -0.2270
    2SAPS   C21  157   5.034   7.135   6.475  0.4161 -0.1568 -0.1413
    2SAPS   O22  158   4.959   7.184   6.560  0.0564 -0.2499 -0.2227
    2SAPS   C22  159   4.984   7.096   6.333 -0.1253  0.3012  0.0267
    2SAPS   H2R  160   4.927   7.001   6.345  0.6027 -0.0136  1.2436
    2SAPS   H2S  161   4.899   7.161   6.303  1.9365  3.5121  0.6180
    2SAPS    C3  162   5.350   7.222   6.564  0.7457  0.4187 -0.7491
    2SAPS    HX  163   5.399   7.125   6.538  0.9255  0.4540 -0.5455
    2SAPS    HY  164   5.406   7.252   6.655 -0.5955 -0.3653  0.3639
    2SAPS   O31  165   5.358   7.319   6.452  0.5285 -0.4597 -0.0104
    2SAPS   C31  166   5.478   7.344   6.409 -0.4034  0.4577  0.7725
    2SAPS   O32  167   5.584   7.306   6.455 -0.5321  0.2312 -0.5039
    2SAPS   C32  168   5.466   7.417   6.273  0.4596  0.1416  0.8361
    2SAPS   H2X  169   5.481   7.524   6.298  2.4768  0.3927 -1.1603
    2SAPS   H2Y  170   5.364   7.401   6.230  1.7386 -1.8553 -1.7058
    2SAPS   C23  171   5.092   7.116   6.221 -0.4605 -0.1302 -0.9674
    2SAPS   H3R  172   5.187   7.059   6.234 -2.1461 -2.3905  2.8385
    2SAPS   H3S  173   5.127   7.221   6.234  0.1861 -0.4295 -0.2235
    2SAPS   C24  174   5.039   7.103   6.080 -0.3711  0.3533  0.0991
    2SAPS   H4R  175   5.110   7.155   6.013  0.6841 -0.6432  0.4033
    2SAPS   H4S  176   4.941   7.155   6.086 -0.9583 -0.1273 -3.2067
    2SAPS   C25  177   4.993   6.967   6.043 -0.2613 -0.0376  0.9760
    2SAPS   H5R  178   4.944   6.912   6.124 -0.1824  1.6896  2.2663
    2SAPS   C26  179   5.010   6.909   5.923  0.5849  0.2613  0.0708
    2SAPS   H6R  180   4.977   6.805   5.914  1.2864 -0.0187  0.5893
    2SAPS   C27  181   5.079   6.969   5.804  0.1598 -0.6761 -0.0859
    2SAPS   H7R  182   5.187   6.981   5.827  0.0772  1.7027 -0.6295
    2SAPS   H7S  183   5.055   7.077   5.791  1.3386 -0.5353 -1.2876
    2SAPS   C28  184   5.060   6.904   5.666  0.5654 -0.7265 -0.3274
    2SAPS   H8R  185   5.021   6.801   5.668 -0.2545 -0.4742 -1.9143
    2SAPS   C29  186   5.094   6.955   5.550 -0.7990  0.9915 -0.1400
    2SAPS   H9R  187   5.087   6.894   5.459 -1.3646 -1.7280  1.6096
    2SAPS  C210  188   5.159   7.093   5.534 -0.4163  0.2575 -0.0418
    2SAPS  H10R  189   5.267   7.066   5.535 -0.5998 -0.8575 -2.4328
    2SAPS  H10S  190   5.142   7.156   5.623 -0.0010  0.3227 -0.0055
    2SAPS  C211  191   5.111   7.161   5.407  0.3754  0.0511 -0.3513
    2SAPS  H11R  192   5.046   7.241   5.444 -1.3450 -0.6129 -1.8080
    2SAPS  C212  193   5.130   7.137   5.276  0.2455  0.7953 -0.3512
    2SAPS  H12R  194   5.083   7.203   5.202 -0.5344  1.3333  0.6004
    2SAPS  C213  195   5.213   7.027   5.220  0.0700  0.2573  0.3522
    2SAPS  H13R  196   5.267   6.977   5.303  0.0491  2.2085  1.6101
    2SAPS  H13S  197   5.287   7.069   5.148 -0.8691 -0.5893 -1.1421
    2SAPS  C214  198   5.134   6.928   5.146 -0.2374  0.0124 -0.7270
    2SAPS  H14R  199   5.096   6.847   5.212 -0.1223 -0.5499 -1.3430
    2SAPS  C215  200   5.128   6.926   5.010 -0.0713  0.2116 -0.3464
    2SAPS  H15R  201   5.069   6.854   4.951 -0.4792 -0.0725  0.3907
    2SAPS  C216  202   5.196   7.008   4.912 -0.5790  0.2063 -0.3427
    2SAPS  H16R  203   5.256   7.093   4.951  2.1573 -0.8166 -2.0427
    2SAPS  H16S  204   5.119   7.061   4.852  1.4267  0.8357 -2.4945
    2SAPS  C217  205   5.293   6.935   4.819 -0.0051  0.4109 -0.6247
    2SAPS  H17R  206   5.251   6.837   4.787  0.1540  0.3016 -0.5037
    2SAPS  H17S  207   5.379   6.896   4.878 -0.1953  1.3310  0.2971
    2SAPS  C218  208   5.324   7.011   4.682  0.0003 -0.5640 -0.3286
    2SAPS  H18R  209   5.368   7.111   4.702  0.9437 -1.0580  0.1024
    2SAPS  H18S  210   5.224   7.009   4.632 -0.0065  0.0400 -0.3515
    2SAPS  C219  211   5.424   6.941   4.591  0.3870 -0.2775 -0.1437
    2SAPS  H19R  212   5.410   6.831   4.604  1.3904 -0.4058 -0.0616
    2SAPS  H19S  213   5.523   6.956   4.638  0.0165  1.8526  0.0560
    2SAPS  C220  214   5.433   6.985   4.444 -0.0515 -0.2235 -0.5139
    2SAPS  H20R  215   5.504   6.923   4.384  2.4637  0.1294  1.8924
    2SAPS  H20S  216   5.460   7.092   4.440 -0.0039 -0.2283 -0.3094
    2SAPS  H20T  217   5.329   6.970   4.408  0.5199 -2.2647 -1.4357
    2SAPS   C33  218   5.577   7.391   6.172 -0.1805  0.3945 -0.8131
    2SAPS   H3X  219   5.672   7.444   6.197 -0.5504  0.6545  0.0896
    2SAPS   H3Y  220   5.539   7.436   6.078  0.3809  0.8425 -0.8356
    2SAPS   C34  221   5.598   7.250   6.141 -0.1848 -0.2389  0.1205
    2SAPS   H4X  222   5.640   7.208   6.235 -0.2037 -1.3144 -0.3383
    2SAPS   H4Y  223   5.680   7.240   6.067 -0.2110  0.4533 -0.0103
    2SAPS   C35  224   5.478   7.170   6.093  0.0891  0.9354  0.4142
    2SAPS   H5X  225   5.410   7.152   6.179 -0.2025 -0.4086 -0.0725
    2SAPS   H5Y  226   5.518   7.069   6.071 -0.5015  0.8936 -0.5115
    2SAPS   C36  227   5.409   7.217   5.965 -0.1445 -1.1612  0.4191
    2SAPS   H6X  228   5.352   7.309   5.988  0.8742 -0.4010 -0.0186
    2SAPS   H6Y  229   5.339   7.135   5.938 -0.1688 -0.5718 -1.5135
    2SAPS   C37  230   5.501   7.244   5.842  0.1904  0.9101 -1.0960
    2SAPS   H7X  231   5.562   7.157   5.809 -0.4975  0.8021 -2.1591
    2SAPS   H7Y  232   5.579   7.320   5.860 -0.2254  0.7674  1.8339
    2SAPS   C38  233   5.418   7.288   5.726 -0.2536  0.1250  0.3514
    2SAPS   H8X  234   5.314   7.252   5.740 -0.2251  0.8782  3.1366
    2SAPS   H8Y  235   5.459   7.232   5.639  1.9663 -0.7020  1.8318
    2SAPS   C39  236   5.401   7.445   5.689 -0.9997  0.0039 -0.0628
    2SAPS   H9X  237   5.499   7.493   5.670 -1.0530  0.2576  0.3010
    2SAPS   H9Y  238   5.373   7.498   5.782  3.3453  1.6100  0.5188
    2SAPS  C310  239   5.321   7.471   5.563  0.2409 -0.3432 -0.1698
    2SAPS  H10X  240   5.299   7.579   5.547 -1.8973 -0.6434  0.5485
    2SAPS  H10Y  241   5.218   7.435   5.580 -0.5594  0.1797 -3.3310
    2SAPS  C311  242   5.373   7.419   5.429 -0.1271  0.2595  0.7137
    2SAPS  H11X  243   5.373   7.309   5.411  2.1767  0.7155 -2.9153
    2SAPS  H11Y  244   5.474   7.463   5.419 -1.0687  2.2048 -1.0425
    2SAPS  C312  245   5.295   7.482   5.312  0.1415 -0.9523  0.9882
    2SAPS  H12X  246   5.286   7.592   5.327 -2.8913 -0.6672 -1.8787
    2SAPS  H12Y  247   5.194   7.436   5.307  0.2647 -1.1929  0.7393
    2SAPS  C313  248   5.366   7.466   5.174  0.4440 -0.1734  0.2725
    2SAPS  H13X  249   5.380   7.356   5.169  0.0913 -0.1883 -0.8476
    2SAPS  H13Y  250   5.462   7.521   5.176  0.8842 -0.8645 -0.7496
    2SAPS  C314  251   5.277   7.504   5.053  0.1457 -0.6613  0.0139
    2SAPS  H14X  252   5.273   7.614   5.037 -0.5637 -0.5013  1.1199
    2SAPS  H14Y  253   5.172   7.469   5.060 -0.1162 -0.0508 -0.8466
    2SAPS  C315  254   5.338   7.466   4.921 -0.1656 -0.6692  0.5306
    2SAPS  H15X  255   5.383   7.365   4.931  1.6237  0.0564  0.2861
    2SAPS  H15Y  256   5.417   7.538   4.889 -1.4384  0.3106 -0.4731
    2SAPS  C316  257   5.234   7.463   4.803  0.1042  0.6349  0.2630
    2SAPS  H16X  258   5.199   7.569   4.808  1.1797  1.0167  0.0471
    2SAPS  H16Y  259   5.157   7.393   4.842  2.0386 -1.1441  1.0881
    2SAPS  C317  260   5.295   7.411   4.680  0.3222 -0.1574  0.7128
    2SAPS  H17X  261   5.219   7.411   4.600  1.8694 -0.2315 -0.8270
    2SAPS  H17Y  262   5.343   7.312   4.698  2.2075  0.5878  0.0866
    2SAPS  C318  263   5.415   7.501   4.629 -0.0891 -0.1172  0.4346
    2SAPS  H18X  264   5.505   7.476   4.689 -0.0076  0.3150  0.4960
    2SAPS  H18Y  265   5.390   7.609   4.633  1.8867  0.4793 -1.2763
    2SAPS  H18Z  266   5.434   7.488   4.520 -4.1683 -0.2247 -0.4378
    3SAPS     N  267   4.483   5.296   6.562  0.3292  0.1212  0.8286
    3SAPS   HN1  268   4.417   5.220   6.535 -0.0351  0.7195 -0.0338
    3SAPS   HN2  269   4.435   5.388   6.548  0.1585 -0.0027  0.5807
    3SAPS   HN3  270   4.560   5.278   6.495  1.7671 -2.7489  3.0402
    3SAPS   C12  271   4.543   5.286   6.692  0.8815  0.2095  0.3423
    3SAPS  H12A  272   4.467   5.283   6.769  1.5005 -1.0265  0.9231
    3SAPS   C13  273   4.628   5.154   6.695  0.5692 -0.8703 -0.1258
    3SAPS  O13A  274   4.618   5.069   6.600  0.2437 -0.2309 -0.5174
    3SAPS  O13B  275   4.659   5.120   6.809 -0.1379 -0.1810 -0.4526
    3SAPS   C11  276   4.635   5.408   6.726  0.0262 -0.2881 -0.0181
    3SAPS  H11A  277   4.714   5.411   6.648 -0.0736 -1.3966 -0.1810
    3SAPS  H11B  278   4.677   5.374   6.823  0.3050 -1.0460 -0.3978
    3SAPS     P  279   4.614   5.657   6.808 -0.2202  0.0969  0.3007
    3SAPS   O13  280   4.510   5.763   6.805  0.0320 -0.3632 -0.1840
    3SAPS   O14  281   4.660   5.601   6.938 -0.2965 -0.0071  0.1367
    3SAPS   O12  282   4.550   5.531   6.723  0.0014  0.3469  0.8244
    3SAPS   O11  283   4.734   5.703   6.726  0.2477  0.3887 -0.1116
    3SAPS    C1  284   4.710   5.727   6.583  0.2469 -0.1235 -0.2174
    3SAPS    HA  285   4.648   5.642   6.546 -0.7397  0.0199  1.0194
    3SAPS    HB  286   4.645   5.817   6.573  0.6404  0.5669  2.5718
    3SAPS    C2  287   4.844   5.764   6.505  0.2020 -0.0148  0.4268
    3SAPS    HS  288   4.925   5.705   6.553  1.0993  2.6918  2.4899
    3SAPS   O21  289   4.874   5.903   6.526 -0.7390 -0.4150 -0.2413
    3SAPS   C21  290   5.007   5.928   6.537  1.0542  0.6050 -0.7456
    3SAPS   O22  291   5.096   5.848   6.519  0.4346 -0.2506  0.3854
    3SAPS   C22  292   5.031   6.070   6.585  0.6184 -0.2811  0.0188
    3SAPS   H2R  293   4.961   6.104   6.664  1.8566  2.2903  0.0966
    3SAPS   H2S  294   5.133   6.088   6.625 -0.5712  1.3644  2.5779
    3SAPS    C3  295   4.820   5.728   6.356 -0.5226 -0.5352 -0.0225
    3SAPS    HX  296   4.730   5.786   6.326  0.0491  1.1036  1.2580
    3SAPS    HY  297   4.789   5.623   6.339 -0.8601 -0.9945  2.8265
    3SAPS   O31  298   4.924   5.772   6.271 -0.3988  0.0309 -0.1616
    3SAPS   C31  299   5.027   5.679   6.251  0.3073 -0.5174 -0.6644
    3SAPS   O32  300   5.042   5.579   6.322  0.3222  0.0395  0.1489
    3SAPS   C32  301   5.113   5.708   6.135  0.6892 -1.0225 -1.0173
    3SAPS   H2X  302   5.209   5.658   6.157  1.0826  0.3098  0.4056
    3SAPS   H2Y  303   5.118   5.819   6.127 -3.7751 -0.3285  2.0147
    3SAPS   C23  304   4.997   6.174   6.469 -0.7814 -0.1415  0.2261
    3SAPS   H3R  305   5.018   6.275   6.510  0.4202 -0.3372  0.1177
    3SAPS   H3S  306   4.886   6.177   6.460 -0.6695  1.7471 -1.1337
    3SAPS   C24  307   5.056   6.151   6.336  0.1455 -0.1188  0.0724
    3SAPS   H4R  308   5.006   6.197   6.248 -0.0431 -0.9720 -0.2835
    3SAPS   H4S  309   5.062   6.043   6.310 -1.5389 -0.2597  0.1121
    3SAPS   C25  310   5.197   6.205   6.350 -1.2562 -0.8055  0.2764
    3SAPS   H5R  311   5.231   6.239   6.449  0.5337 -0.5173 -0.4060
    3SAPS   C26  312   5.300   6.203   6.257 -0.4256  0.1886  0.4498
    3SAPS   H6R  313   5.393   6.260   6.267 -0.0240 -0.2079 -0.9094
    3SAPS   C27  314   5.279   6.147   6.119  0.4032 -0.1382 -0.9277
    3SAPS   H7R  315   5.330   6.218   6.051  1.5536 -0.5642 -0.5402
    3SAPS   H7S  316   5.174   6.155   6.084  0.4001 -1.6397 -1.3460
    3SAPS   C28  317   5.325   6.000   6.111 -0.4329  0.6425  0.0558
    3SAPS   H8R  318   5.314   5.939   6.202  2.3285 -0.8404 -0.4958
    3SAPS   C29  319   5.400   5.940   6.010  0.0789 -0.2642 -0.0558
    3SAPS   H9R  320   5.427   5.834   6.012 -0.6434 -0.5072  3.4552
    3SAPS  C210  321   5.443   6.011   5.887  0.1173  0.2534  0.3611
    3SAPS  H10R  322   5.550   5.997   5.860 -0.3193  0.6740 -1.7968
    3SAPS  H10S  323   5.430   6.121   5.892 -0.5763  0.2064 -0.1320
    3SAPS  C211  324   5.351   5.971   5.772 -0.2040  0.1227 -0.2125
    3SAPS  H11R  325   5.248   5.984   5.807 -0.3244 -3.0393  0.9873
    3SAPS  C212  326   5.371   5.883   5.670  0.2267 -0.2710 -0.0271
    3SAPS  H12R  327   5.286   5.883   5.599  0.6324 -4.0141 -0.7289
    3SAPS  C213  328   5.493   5.814   5.617  0.1560  0.4063  0.4368
    3SAPS  H13R  329   5.573   5.849   5.686  0.8308  0.6876 -0.4651
    3SAPS  H13S  330   5.522   5.855   5.517  1.3447  0.0046  0.6001
    3SAPS  C214  331   5.486   5.659   5.615 -0.5565 -0.1837  0.0277
    3SAPS  H14R  332   5.411   5.626   5.689 -0.1450 -0.8262  0.1699
    3SAPS  C215  333   5.541   5.578   5.525  0.1840  0.2386  0.8204
    3SAPS  H15R  334   5.527   5.469   5.526  1.1889  0.0955  0.3545
    3SAPS  C216  335   5.611   5.619   5.398 -0.2171 -0.4499  0.3252
    3SAPS  H16R  336   5.718   5.617   5.428  0.2482 -2.3809 -1.2459
    3SAPS  H16S  337   5.578   5.721   5.370 -1.4254 -0.7559  0.5577
    3SAPS  C217  338   5.589   5.533   5.274  0.2257  0.2369  0.2180
    3SAPS  H17R  339   5.481   5.525   5.247  0.5714 -1.3976 -0.8529
    3SAPS  H17S  340   5.626   5.429   5.290  2.8672  0.7996 -1.5065
    3SAPS  C218  341   5.660   5.596   5.154  0.0723  0.2155 -0.0368
    3SAPS  H18R  342   5.767   5.602   5.183  0.5639  0.9534 -1.8580
    3SAPS  H18S  343   5.626   5.700   5.134 -1.7596 -0.4418 -0.5637
    3SAPS  C219  344   5.643   5.518   5.026 -0.0852  0.4433  0.0696
    3SAPS  H19R  345   5.688   5.417   5.021  0.6262  0.8118 -2.2220
    3SAPS  H19S  346   5.534   5.499   5.011  0.1872 -2.6574  1.4008
    3SAPS  C220  347   5.695   5.592   4.898  0.3270  0.2420 -0.3367
    3SAPS  H20R  348   5.663   5.537   4.808 -2.4282  1.3427 -0.1425
    3SAPS  H20S  349   5.806   5.596   4.902  0.2633  2.3954  0.7721
    3SAPS  H20T  350   5.664   5.698   4.884 -0.1531 -0.1172 -2.1845
    3SAPS   C33  351   5.053   5.640   6.012 -0.1051  0.7841  0.2358
    3SAPS   H3X  352   4.966   5.696   5.971  0.4409 -0.6399 -3.3133
    3SAPS   H3Y  353   5.035   5.532   6.032  1.0520  0.0017 -2.4964
    3SAPS   C34  354   5.142   5.638   5.887 -0.0100 -0.0584 -0.2351
    3SAPS   H4X  355   5.249   5.612   5.904  0.5321  1.0345 -1.7415
    3SAPS   H4Y  356   5.136   5.746   5.862  0.5359 -0.2340 -1.1660
    3SAPS   C35  357   5.082   5.550   5.781  0.6783 -0.3716 -0.4099
    3SAPS   H5X  358   5.089   5.446   5.819  0.0914 -0.0903  0.4921
    3SAPS   H5Y  359   4.975   5.571   5.760  0.8411 -1.7721 -3.0385
    3SAPS   C36  360   5.163   5.546   5.650 -0.3768  0.0334  0.1187
    3SAPS   H6X  361   5.262   5.497   5.664 -0.3909  0.3616  1.4822
    3SAPS   H6Y  362   5.184   5.647   5.609 -2.4735  1.8661  3.1698
    3SAPS   C37  363   5.094   5.467   5.538 -0.3984  0.0367  0.2608
    3SAPS   H7X  364   5.000   5.518   5.506 -1.3516 -2.0636 -0.4408
    3SAPS   H7Y  365   5.065   5.368   5.577  1.7557 -0.9922 -0.5793
    3SAPS   C38  366   5.174   5.448   5.407 -0.6365  0.5075 -0.2698
    3SAPS   H8X  367   5.261   5.380   5.425  1.0987  2.9710  1.3526
    3SAPS   H8Y  368   5.235   5.536   5.377 -1.4046  1.0480 -0.2700
    3SAPS   C39  369   5.075   5.413   5.293 -0.6201  0.1658 -0.3881
    3SAPS   H9X  370   5.008   5.499   5.275  0.1949  0.4399 -2.4282
    3SAPS   H9Y  371   5.017   5.321   5.316 -0.3874  0.1227  0.0405
    3SAPS  C310  372   5.147   5.389   5.157 -0.0705  0.5531 -0.0705
    3SAPS  H10X  373   5.206   5.479   5.127  3.1060 -1.4885 -0.4980
    3SAPS  H10Y  374   5.076   5.367   5.075  2.2071 -2.9862 -1.3622
    3SAPS  C311  375   5.250   5.276   5.163  0.2700 -0.1343  0.0916
    3SAPS  H11X  376   5.206   5.179   5.194  0.7654 -1.0867 -2.0242
    3SAPS  H11Y  377   5.316   5.311   5.245 -3.7823 -1.1374  4.2414
    3SAPS  C312  378   5.320   5.256   5.030 -0.4905  0.2953 -0.2068
    3SAPS  H12X  379   5.401   5.181   5.038 -2.1606 -1.4989  0.5553
    3SAPS  H12Y  380   5.359   5.353   4.990  1.8333 -1.1856 -1.8128
    3SAPS  C313  381   5.228   5.209   4.910 -0.3352  0.4721  0.3948
    3SAPS  H13X  382   5.153   5.292   4.906 -1.9958 -0.9700  0.6514
    3SAPS  H13Y  383   5.174   5.116   4.937  2.3280 -1.0341  0.8086
    3SAPS  C314  384   5.304   5.177   4.779 -0.3463 -0.3639 -0.5583
    3SAPS  H14X  385   5.386   5.104   4.799 -0.5039 -0.7356 -1.2451
    3SAPS  H14Y  386   5.347   5.274   4.747 -0.8051  0.7555  1.9902
    3SAPS  C315  387   5.210   5.132   4.668  0.2704 -0.6415 -0.1884
    3SAPS  H15X  388   5.132   5.211   4.662  0.2758 -0.3936  2.1034
    3SAPS  H15Y  389   5.152   5.040   4.691 -0.7808  0.0283 -0.0430
    3SAPS  C316  390   5.275   5.114   4.533  0.1709  0.1262 -0.2624
    3SAPS  H16X  391   5.319   5.012   4.521  1.1528  0.6112 -0.9743
    3SAPS  H16Y  392   5.353   5.183   4.496 -0.1956  1.5734  1.5505
    3SAPS  C317  393   5.172   5.119   4.418  0.0023 -0.1086 -0.0339
    3SAPS  H17X  394   5.110   5.211   4.425 -0.4842 -0.5090  1.2966
    3SAPS  H17Y  395   5.105   5.031   4.415 -0.3605  0.1499  0.2947
    3SAPS  C318  396   5.226   5.126   4.275  0.8129 -0.0017  1.1048
    3SAPS  H18X  397   5.144   5.150   4.204 -0.5989  0.8573  2.9302
    3SAPS  H18Y  398   5.273   5.032   4.239  0.6108  0.2643  0.1134
    3SAPS  H18Z  399   5.303   5.206   4.274  1.1217 -0.2330 -1.8346
    4SAPS     N  400   3.225   4.336   7.579 -0.4495  0.3194 -0.7715
    4SAPS   HN1  401   3.285   4.420   7.588  0.5535 -0.2950 -1.5960
    4SAPS   HN2  402   3.162   4.330   7.662  1.6156  0.6308  0.9098
    4SAPS   HN3  403   3.288   4.253   7.586 -0.6547  0.2026 -0.1710
    4SAPS   C12  404   3.150   4.334   7.450  1.2899  0.2706  0.9791
    4SAPS  H12A  405   3.147   4.230   7.421 -1.5143  0.6522 -0.4549
    4SAPS   C13  406   2.996   4.383   7.455 -0.5743  0.1965 -0.0530
    4SAPS  O13A  407   2.939   4.394   7.569  0.9374  0.6488  0.6742
    4SAPS  O13B  408   2.933   4.343   7.356 -0.2717  0.3823 -0.6260
    4SAPS   C11  409   3.219   4.406   7.330 -0.0553 -0.3712  0.6747
    4SAPS  H11A  410   3.203   4.515   7.348  0.4151 -0.3546  0.9972
    4SAPS  H11B  411   3.168   4.380   7.234 -0.4730 -0.6670  0.9719
    4SAPS     P  412   3.437   4.290   7.220 -0.2195 -0.2347  0.0152
    4SAPS   O13  413   3.573   4.241   7.273 -0.5389  0.1155  0.0299
    4SAPS   O14  414   3.345   4.190   7.161 -0.5407  0.1389 -0.5886
    4SAPS   O12  415   3.356   4.374   7.324 -0.4559 -0.1309  0.0891
    4SAPS   O11  416   3.470   4.406   7.111  0.2879 -0.0613  0.6513
    4SAPS    C1  417   3.390   4.400   6.992  0.2814  0.5518  0.1477
    4SAPS    HA  418   3.283   4.383   7.019  0.4384  1.9203  1.8285
    4SAPS    HB  419   3.384   4.504   6.952 -2.6604  1.0146  1.4824
    4SAPS    C2  420   3.448   4.302   6.882 -0.1160 -0.0124  0.1235
    4SAPS    HS  421   3.499   4.219   6.936  0.1503 -0.6919 -1.1387
    4SAPS   O21  422   3.540   4.378   6.803 -0.1340 -0.2216 -0.3078
    4SAPS   C21  423   3.649   4.309   6.759  0.0835 -1.0801 -0.3983
    4SAPS   O22  424   3.681   4.199   6.802 -0.0201  0.1044 -0.2100
    4SAPS   C22  425   3.736   4.372   6.646  0.0986  1.1218 -0.6922
    4SAPS   H2R  426   3.827   4.393   6.707 -1.3111  0.5604  1.7496
    4SAPS   H2S  427   3.744   4.293   6.568 -0.0986  1.6447 -1.2503
    4SAPS    C3  428   3.344   4.231   6.797 -0.4428 -0.1629  0.5369
    4SAPS    HX  429   3.297   4.294   6.719  1.0531  1.5283  0.9421
    4SAPS    HY  430   3.273   4.201   6.878 -2.3972  0.4732 -0.8594
    4SAPS   O31  431   3.399   4.118   6.726  0.5139 -0.1794 -0.0931
    4SAPS   C31  432   3.298   4.038   6.693  0.3496  1.2992 -0.0199
    4SAPS   O32  433   3.177   4.058   6.698 -0.3076 -0.5592  0.0038
    4SAPS   C32  434   3.359   3.911   6.639 -0.0722  0.5761  0.9541
    4SAPS   H2X  435   3.418   3.872   6.725  1.5427  2.9441  1.0326
    4SAPS   H2Y  436   3.443   3.932   6.569 -1.6637  3.0233 -0.3436
    4SAPS   C23  437   3.682   4.500   6.588  0.0191  0.0639 -0.5872
    4SAPS   H3R  438   3.783   4.536   6.559 -1.0371  0.7177 -3.9897
    4SAPS   H3S  439   3.648   4.578   6.658  0.5711  0.9067 -1.2364
    4SAPS   C24  440   3.589   4.493   6.462 -0.0576 -0.0153 -0.3304
    4SAPS   H4R  441   3.655   4.443   6.387  3.2413  2.3083  0.7754
    4SAPS   H4S  442   3.566   4.591   6.416 -1.1326 -0.3940 -0.6211
    4SAPS   C25  443   3.452   4.440   6.497  0.1436  0.0700  0.0029
    4SAPS   H5R  444   3.395   4.501   6.568 -0.0467 -0.1625  0.0506
    4SAPS   C26  445   3.377   4.347   6.440 -0.1418  0.2699  0.3959
    4SAPS   H6R  446   3.273   4.321   6.464 -0.5408  1.6250  0.1974
    4SAPS   C27  447   3.428   4.256   6.325 -0.3821 -0.4824 -0.2439
    4SAPS   H7R  448   3.527   4.210   6.346  0.1932  0.6831 -0.3293
    4SAPS   H7S  449   3.440   4.311   6.229 -0.4674 -1.9131 -1.1144
    4SAPS   C28  450   3.345   4.127   6.303 -0.6381 -0.0954  0.2721
    4SAPS   H8R  451   3.361   4.051   6.381 -1.0635 -0.3990  0.0676
    4SAPS   C29  452   3.283   4.086   6.190 -0.5064  0.4857  0.0452
    4SAPS   H9R  453   3.240   3.985   6.189 -0.2621  0.3849 -0.3554
    4SAPS  C210  454   3.267   4.174   6.063  0.0060  0.3234 -0.4872
    4SAPS  H10R  455   3.361   4.230   6.042  0.4975 -0.5163 -0.5826
    4SAPS  H10S  456   3.183   4.245   6.076  0.3807  0.7629 -0.4548
    4SAPS  C211  457   3.219   4.099   5.936 -0.2846 -0.0085 -0.2850
    4SAPS  H11R  458   3.202   3.991   5.937  0.9331 -0.2182 -0.2614
    4SAPS  C212  459   3.212   4.158   5.817  0.2298  0.1704  0.4611
    4SAPS  H12R  460   3.178   4.096   5.732 -2.3044  1.1917  0.6430
    4SAPS  C213  461   3.253   4.304   5.780 -0.7336 -0.1456 -0.0880
    4SAPS  H13R  462   3.302   4.355   5.866 -0.1530 -2.9881  1.3952
    4SAPS  H13S  463   3.159   4.357   5.756 -0.4986  0.5282  0.4332
    4SAPS  C214  464   3.348   4.329   5.663 -0.0511  0.0502 -0.1379
    4SAPS  H14R  465   3.443   4.363   5.705  0.0562  0.0922 -0.4154
    4SAPS  C215  466   3.316   4.325   5.531 -0.0697  0.0727 -0.0282
    4SAPS  H15R  467   3.387   4.351   5.450 -1.0693 -1.4301 -1.4603
    4SAPS  C216  468   3.171   4.285   5.478  0.2862 -0.3402 -0.2263
    4SAPS  H16R  469   3.101   4.283   5.563  0.0197  1.2825 -0.3755
    4SAPS  H16S  470   3.181   4.183   5.433  2.6060  0.1095 -0.8735
    4SAPS  C217  471   3.127   4.386   5.372  0.2653  0.6609  0.8591
    4SAPS  H17R  472   3.210   4.377   5.299  2.1270 -1.4058  3.0789
    4SAPS  H17S  473   3.115   4.488   5.415 -1.6979  1.0066 -0.3670
    4SAPS  C218  474   2.993   4.355   5.299 -0.4795 -0.3928 -0.3444
    4SAPS  H18R  475   2.907   4.381   5.365 -0.5620 -0.3295 -0.4762
    4SAPS  H18S  476   2.984   4.246   5.278  0.3217 -0.9078  1.7113
    4SAPS  C219  477   2.966   4.445   5.176 -0.3750  0.3139  0.0065
    4SAPS  H19R  478   2.954   4.552   5.205  0.7721  0.9930 -1.8715
    4SAPS  H19S  479   2.874   4.420   5.119  1.4851  0.6819 -3.3607
    4SAPS  C220  480   3.074   4.452   5.068  0.1550 -0.5965 -0.0754
    4SAPS  H20R  481   3.096   4.350   5.030 -3.6445 -1.0267 -1.5206
    4SAPS  H20S  482   3.164   4.510   5.099 -0.5445  1.3244 -1.4143
    4SAPS  H20T  483   3.031   4.505   4.980  0.2661 -0.9033 -0.3156
    4SAPS   C33  484   3.256   3.809   6.587 -0.5771  0.6322 -0.1018
    4SAPS   H3X  485   3.186   3.768   6.664  1.9633 -0.2122  1.8966
    4SAPS   H3Y  486   3.324   3.723   6.567  0.7266  1.1639  1.8214
    4SAPS   C34  487   3.174   3.837   6.457  0.3212  0.0229 -0.2161
    4SAPS   H4X  488   3.245   3.855   6.373  1.4395 -0.0576  0.6902
    4SAPS   H4Y  489   3.121   3.934   6.468  0.2046 -0.0041 -0.5194
    4SAPS   C35  490   3.073   3.733   6.409  1.1236  0.3763 -0.5552
    4SAPS   H5X  491   3.001   3.778   6.337 -1.5654  0.4494  1.9945
    4SAPS   H5Y  492   3.004   3.710   6.493  1.5591 -1.0588 -0.5563
    4SAPS   C36  493   3.129   3.604   6.360  0.0019 -0.3361  0.8172
    4SAPS   H6X  494   3.041   3.536   6.354  0.0223 -0.2501 -0.9148
    4SAPS   H6Y  495   3.220   3.560   6.406  1.7243  1.2098 -0.9339
    4SAPS   C37  496   3.170   3.609   6.208  0.0435 -0.5515  0.5530
    4SAPS   H7X  497   3.208   3.507   6.185 -1.4669 -0.7647 -1.2366
    4SAPS   H7Y  498   3.251   3.684   6.195 -0.2027 -0.6015 -1.7015
    4SAPS   C38  499   3.062   3.647   6.104  0.7941  0.1092 -0.5198
    4SAPS   H8X  500   3.004   3.739   6.126  1.3593  0.6005 -1.0436
    4SAPS   H8Y  501   2.992   3.561   6.099  0.7247  0.2381 -3.0308
    4SAPS   C39  502   3.129   3.660   5.970 -0.2387 -0.0903  0.4250
    4SAPS   H9X  503   3.196   3.574   5.947  1.5409  1.4962 -0.6418
    4SAPS   H9Y  504   3.202   3.743   5.983 -0.7023  0.2802  0.6694
    4SAPS  C310  505   3.039   3.689   5.856  0.4046  0.4689  0.1585
    4SAPS  H10X  506   2.989   3.782   5.891  0.7926  1.1303 -0.9774
    4SAPS  H10Y  507   2.961   3.615   5.829  1.2822 -0.1529 -0.7514
    4SAPS  C311  508   3.114   3.728   5.729 -0.3849  0.3405 -0.1991
    4SAPS  H11X  509   3.166   3.633   5.704 -0.2712  0.7017 -1.4005
    4SAPS  H11Y  510   3.177   3.818   5.745 -0.3365  0.0021  1.7781
    4SAPS  C312  511   3.013   3.771   5.627  0.8437  0.3726  0.9149
    4SAPS  H12X  512   2.971   3.866   5.666  1.4498  0.5380  1.1593
    4SAPS  H12Y  513   2.925   3.703   5.632  1.4579 -0.3260  3.0079
    4SAPS  C313  514   3.054   3.767   5.483  0.4664  0.1158  0.1175
    4SAPS  H13X  515   3.130   3.687   5.471  0.3538 -0.2899  1.8825
    4SAPS  H13Y  516   3.095   3.867   5.457  0.9950 -0.3678 -1.0078
    4SAPS  C314  517   2.934   3.738   5.393 -0.0002 -0.0612  0.1950
    4SAPS  H14X  518   2.843   3.803   5.398  1.3099  1.8385  0.4106
    4SAPS  H14Y  519   2.927   3.633   5.428  4.5646 -0.3969  0.7195
    4SAPS  C315  520   2.975   3.738   5.242  0.5011  0.1245 -1.7041
    4SAPS  H15X  521   3.048   3.655   5.234  2.5517  1.6204  0.3944
    4SAPS  H15Y  522   3.022   3.835   5.215  2.0962 -0.2521 -0.4059
    4SAPS  C316  523   2.859   3.698   5.143  0.2250 -0.1139 -0.6282
    4SAPS  H16X  524   2.819   3.792   5.099 -0.8980  1.0721  2.5832
    4SAPS  H16Y  525   2.775   3.654   5.202  1.3896  0.0683  1.2719
    4SAPS  C317  526   2.904   3.605   5.028 -0.1362 -0.2540  0.2908
    4SAPS  H17X  527   3.007   3.637   5.002  0.0565 -0.9482  0.1867
    4SAPS  H17Y  528   2.842   3.645   4.944 -0.2366 -1.2286 -0.1070
    4SAPS  C318  529   2.882   3.461   5.058  0.2715  0.5692  1.0180
    4SAPS  H18X  530   2.772   3.447   5.048  0.3727  1.0942 -1.4829
    4SAPS  H18Y  531   2.914   3.423   5.158 -1.0600  0.1808  1.3177
    4SAPS  H18Z  532   2.942   3.406   4.982  1.2006 -0.2959  2.3251
    5SAPS     N  533   4.922   5.610   6.994 -0.1269  0.1379 -0.2174
    5SAPS   HN1  534   4.961   5.514   6.994  0.2663  0.2932 -0.8075
    5SAPS   HN2  535   4.902   5.616   7.096 -1.5096  1.9925 -0.5575
    5SAPS   HN3  536   4.829   5.615   6.948 -0.0196  1.9470 -0.3314
    5SAPS   C12  537   5.015   5.718   6.948 -0.4858  0.6310 -0.8256
    5SAPS  H12A  538   5.045   5.674   6.853 -2.1296 -0.1270 -1.0404
    5SAPS   C13  539   4.967   5.865   6.940  0.2802  0.1227  0.0591
    5SAPS  O13A  540   4.866   5.897   7.008 -0.8826  0.5652  0.6518
    5SAPS  O13B  541   5.035   5.951   6.875  0.5094  0.2878 -0.1010
    5SAPS   C11  542   5.146   5.720   7.038  0.2204 -0.5222 -0.0524
    5SAPS  H11A  543   5.111   5.731   7.143  2.8619 -1.7840  1.0429
    5SAPS  H11B  544   5.205   5.814   7.029 -1.2985  0.3225 -1.6186
    5SAPS     P  545   5.362   5.604   6.952 -0.3092 -0.0178 -0.1581
    5SAPS   O13  546   5.456   5.658   7.051 -0.0398  0.8569  0.3529
    5SAPS   O14  547   5.401   5.478   6.891 -0.7319 -0.4824  0.4716
    5SAPS   O12  548   5.223   5.601   7.024  0.0829 -0.3907  0.1013
    5SAPS   O11  549   5.346   5.722   6.841 -0.2669 -0.2028 -0.5942
    5SAPS    C1  550   5.325   5.681   6.703  0.6801  0.2461 -0.1698
    5SAPS    HA  551   5.324   5.574   6.676 -2.3542  0.7858 -2.8532
    5SAPS    HB  552   5.224   5.720   6.676  0.3406 -2.3220 -3.0320
    5SAPS    C2  553   5.435   5.737   6.605 -0.3123  0.1148 -0.3705
    5SAPS    HS  554   5.528   5.678   6.613  2.3714  4.1244  0.9370
    5SAPS   O21  555   5.457   5.875   6.618 -0.1079 -0.5065  0.2714
    5SAPS   C21  556   5.583   5.924   6.591  0.1195 -0.6644 -0.2274
    5SAPS   O22  557   5.680   5.856   6.562  0.2676 -0.1792  0.7462
    5SAPS   C22  558   5.586   6.076   6.594  0.2813 -0.1333 -0.6773
    5SAPS   H2R  559   5.530   6.114   6.507  0.8085 -2.0566 -1.9183
    5SAPS   H2S  560   5.530   6.103   6.686  1.6320 -0.3180  0.2281
    5SAPS    C3  561   5.385   5.701   6.456 -0.4070 -0.5424 -0.7277
    5SAPS    HX  562   5.308   5.773   6.423 -1.6175 -1.9933 -1.1561
    5SAPS    HY  563   5.334   5.603   6.460  1.0999 -1.5593 -3.4958
    5SAPS   O31  564   5.490   5.712   6.357 -0.6526 -0.1471  0.2849
    5SAPS   C31  565   5.552   5.592   6.342 -0.1312  0.0218  0.2474
    5SAPS   O32  566   5.526   5.481   6.387 -0.1291 -0.8226  0.2500
    5SAPS   C32  567   5.679   5.614   6.260  0.4894  0.6770 -0.5749
    5SAPS   H2X  568   5.762   5.604   6.334 -0.9184  1.5566  1.2163
    5SAPS   H2Y  569   5.678   5.717   6.220 -1.5006  0.5482 -0.9734
    5SAPS   C23  570   5.722   6.146   6.621 -0.3143 -0.2231  0.1711
    5SAPS   H3R  571   5.780   6.089   6.697 -0.6970 -0.7105  0.1000
    5SAPS   H3S  572   5.698   6.244   6.668 -1.4894 -0.0998 -0.6589
    5SAPS   C24  573   5.794   6.168   6.489 -0.0191 -0.3270  0.0202
    5SAPS   H4R  574   5.873   6.243   6.510 -0.3911  0.3709 -0.9765
    5SAPS   H4S  575   5.730   6.230   6.422 -0.8174 -0.7991  0.3348
    5SAPS   C25  576   5.857   6.052   6.421 -0.3328 -0.6505 -0.0366
    5SAPS   H5R  577   5.933   6.002   6.482  1.3169 -0.2931 -1.7089
    5SAPS   C26  578   5.825   5.989   6.304  0.1401 -0.0359  0.1823
    5SAPS   H6R  579   5.877   5.897   6.271 -0.8474 -1.1359  1.5531
    5SAPS   C27  580   5.713   6.027   6.208  0.2270 -0.2720 -1.1707
    5SAPS   H7R  581   5.648   6.106   6.253  1.0003 -0.7599  0.9257
    5SAPS   H7S  582   5.640   5.943   6.209  0.5291 -0.5749  1.2412
    5SAPS   C28  583   5.758   6.049   6.068 -0.1874 -0.6244 -0.0783
    5SAPS   H8R  584   5.789   5.950   6.032  2.9677 -0.2004  1.1704
    5SAPS   C29  585   5.735   6.166   5.994  0.3241  0.4612  0.5646
    5SAPS   H9R  586   5.755   6.167   5.886  0.5530  0.2544  0.6026
    5SAPS  C210  587   5.686   6.307   6.045 -0.4274  1.0616 -0.0094
    5SAPS  H10R  588   5.783   6.355   6.071  1.2892 -1.3373 -1.6311
    5SAPS  H10S  589   5.622   6.301   6.135 -2.1563 -0.4088 -1.2766
    5SAPS  C211  590   5.623   6.380   5.932 -0.5437 -0.4781  0.5932
    5SAPS  H11R  591   5.516   6.362   5.917 -0.2291 -1.4933 -0.5847
    5SAPS  C212  592   5.684   6.471   5.847 -0.2742 -0.1884  0.7257
    5SAPS  H12R  593   5.626   6.516   5.765  0.0001 -0.3356  0.4474
    5SAPS  C213  594   5.827   6.512   5.836 -0.6166 -0.6684 -0.1909
    5SAPS  H13R  595   5.891   6.458   5.909 -0.1082  0.6529  0.3690
    5SAPS  H13S  596   5.832   6.622   5.848 -2.3589 -0.5689 -0.1364
    5SAPS  C214  597   5.885   6.475   5.701  0.0287  0.1950 -0.0320
    5SAPS  H14R  598   5.961   6.396   5.700 -0.3755 -0.3771  3.0210
    5SAPS  C215  599   5.867   6.538   5.586  0.1645 -0.1306 -0.4095
    5SAPS  H15R  600   5.931   6.501   5.505  0.5277  0.2274 -0.2871
    5SAPS  C216  601   5.778   6.660   5.558  0.0442  0.2330 -0.1627
    5SAPS  H16R  602   5.846   6.748   5.553 -2.3117  2.3025  1.5234
    5SAPS  H16S  603   5.716   6.682   5.648  1.0706 -0.1850  0.6716
    5SAPS  C217  604   5.680   6.654   5.429 -0.2543 -0.1445  0.2421
    5SAPS  H17R  605   5.616   6.745   5.422  1.4180  0.9959 -0.8541
    5SAPS  H17S  606   5.607   6.571   5.443  0.2122 -0.8231 -1.1247
    5SAPS  C218  607   5.750   6.646   5.290  0.4310  0.3195  0.3111
    5SAPS  H18R  608   5.809   6.553   5.281  1.3857  1.0034 -0.6828
    5SAPS  H18S  609   5.824   6.729   5.295 -1.2229  1.8699  0.1577
    5SAPS  C219  610   5.650   6.677   5.179 -0.1734  0.1409 -0.7579
    5SAPS  H19R  611   5.609   6.779   5.195  1.4667  0.8268 -0.7170
    5SAPS  H19S  612   5.563   6.608   5.174  0.1761 -0.3274 -0.4976
    5SAPS  C220  613   5.720   6.682   5.046 -0.2769  0.4998 -0.0910
    5SAPS  H20R  614   5.759   6.586   5.006  0.1614  0.6282  0.0204
    5SAPS  H20S  615   5.814   6.741   5.048  1.2836 -1.8575  0.7693
    5SAPS  H20T  616   5.640   6.726   4.982 -1.5503 -0.7622  0.5723
    5SAPS   C33  617   5.679   5.510   6.141 -0.5693  0.2801 -0.1144
    5SAPS   H3X  618   5.582   5.501   6.087  0.3797  1.9826 -2.2607
    5SAPS   H3Y  619   5.710   5.417   6.194 -2.6406 -0.5396 -0.2281
    5SAPS   C34  620   5.770   5.554   6.018  0.7736  0.2807 -0.1631
    5SAPS   H4X  621   5.875   5.529   6.042  0.4635 -2.0942 -1.0090
    5SAPS   H4Y  622   5.775   5.665   6.012 -1.9872  0.5030  0.1753
    5SAPS   C35  623   5.729   5.485   5.887  0.0822 -0.9954 -0.3919
    5SAPS   H5X  624   5.790   5.530   5.806  0.6410  1.2396  1.1607
    5SAPS   H5Y  625   5.619   5.488   5.868 -0.0773 -1.0772  0.4851
    5SAPS   C36  626   5.773   5.336   5.875  0.3223  0.1260  0.3399
    5SAPS   H6X  627   5.737   5.280   5.964  2.8027  3.0631  3.4240
    5SAPS   H6Y  628   5.884   5.333   5.869  0.2823  0.5216 -3.5635
    5SAPS   C37  629   5.729   5.263   5.753 -0.0345  0.5922  0.3118
    5SAPS   H7X  630   5.623   5.291   5.739  0.1297  0.8639 -0.4609
    5SAPS   H7Y  631   5.737   5.152   5.762  0.5878  0.7126  1.5588
    5SAPS   C38  632   5.798   5.305   5.617 -0.0353 -0.2867  0.0753
    5SAPS   H8X  633   5.903   5.289   5.648 -0.1846 -2.0097 -0.2157
    5SAPS   H8Y  634   5.775   5.412   5.597 -0.7484 -0.1827  1.2894
    5SAPS   C39  635   5.769   5.220   5.502  0.1994  0.2587 -0.1001
    5SAPS   H9X  636   5.660   5.219   5.477  0.2046 -2.7905 -0.3531
    5SAPS   H9Y  637   5.786   5.113   5.525  0.5284  0.4737  0.6646
    5SAPS  C310  638   5.848   5.255   5.378 -0.3883  1.0506 -0.2438
    5SAPS  H10X  639   5.952   5.221   5.396 -0.3176  0.8616 -0.9643
    5SAPS  H10Y  640   5.849   5.365   5.360 -1.3787  1.1455  0.2256
    5SAPS  C311  641   5.801   5.180   5.252 -0.0309  0.0566 -0.1407
    5SAPS  H11X  642   5.692   5.184   5.234 -0.4687 -1.2865  1.8806
    5SAPS  H11Y  643   5.816   5.073   5.278 -0.9852  0.2503  1.2854
    5SAPS  C312  644   5.875   5.223   5.121  0.4187  0.2927 -0.3994
    5SAPS  H12X  645   5.981   5.209   5.149  0.3759 -1.2842 -0.9573
    5SAPS  H12Y  646   5.847   5.329   5.104  0.1710  0.1300 -1.0286
    5SAPS  C313  647   5.840   5.138   5.001  0.4789  0.1847  0.0730
    5SAPS  H13X  648   5.844   5.202   4.911 -0.9344  1.2424  0.7289
    5SAPS  H13Y  649   5.737   5.098   4.997 -0.4246  2.4529 -0.8445
    5SAPS  C314  650   5.944   5.035   4.980  0.1338  0.2674 -0.3806
    5SAPS  H14X  651   5.931   4.962   5.063 -1.4955 -0.4757 -1.2335
    5SAPS  H14Y  652   6.044   5.080   4.997 -0.3954  1.0408  0.7837
    5SAPS  C315  653   5.917   4.952   4.851 -0.4498  0.4652  0.0208
    5SAPS  H15X  654   5.827   4.889   4.861 -1.0257  0.9496 -1.8083
    5SAPS  H15Y  655   6.002   4.880   4.846 -1.2080 -0.3421 -2.3037
    5SAPS  C316  656   5.914   5.029   4.713 -0.0301  0.2353  0.6420
    5SAPS  H16X  657   6.009   5.086   4.714 -1.1015  2.1167  1.0221
    5SAPS  H16Y  658   5.828   5.099   4.721 -0.3752 -0.1478  0.3335
    5SAPS  C317  659   5.905   4.939   4.590  0.7754  0.0750 -0.1907
    5SAPS  H17X  660   6.004   4.895   4.567  0.8924 -0.1878  0.7817
    5SAPS  H17Y  661   5.877   5.007   4.506 -2.6896 -0.8957  0.0025
    5SAPS  C318  662   5.795   4.830   4.579  0.7370  0.2553 -0.1490
    5SAPS  H18X  663   5.794   4.789   4.476 -0.1159 -0.4498  0.1302
    5SAPS  H18Y  664   5.692   4.870   4.590  0.3311 -0.7792 -0.1085
    5SAPS  H18Z  665   5.802   4.751   4.657 -0.9730 -0.9327 -1.1290
    6SAPS     N  666   2.758   6.063   7.438  0.1150 -0.2042 -0.0487
    6SAPS   HN1  667   2.779   6.046   7.539  0.3107 -2.1744 -0.3817
    6SAPS   HN2  668   2.682   6.132   7.424  1.6470  1.7445  0.7910
    6SAPS   HN3  669   2.733   5.977   7.386  0.9014 -0.7852  0.5008
    6SAPS   C12  670   2.877   6.127   7.381 -0.3039  0.4401 -0.3600
    6SAPS  H12A  671   2.904   6.201   7.455 -0.7769 -0.1860  0.4595
    6SAPS   C13  672   2.995   6.033   7.361 -0.4124 -0.0581  0.2227
    6SAPS  O13A  673   2.981   5.907   7.364 -0.6084  0.6599 -1.0476
    6SAPS  O13B  674   3.098   6.091   7.315  0.2673  0.1362  0.0150
    6SAPS   C11  675   2.835   6.200   7.248 -0.9029  0.1292  0.2759
    6SAPS  H11A  676   2.804   6.137   7.161 -1.7782 -0.2526  0.8500
    6SAPS  H11B  677   2.922   6.251   7.200 -1.3750  0.0310 -0.7165
    6SAPS     P  678   2.734   6.441   7.238  0.2848 -0.0327  0.2902
    6SAPS   O13  679   2.603   6.494   7.271 -0.4020  0.2821  0.1230
    6SAPS   O14  680   2.848   6.498   7.311 -0.6933  0.5526  0.1740
    6SAPS   O12  681   2.728   6.284   7.270  0.9156  0.5285  0.0568
    6SAPS   O11  682   2.766   6.445   7.083 -0.2113 -0.1903 -0.3788
    6SAPS    C1  683   2.692   6.401   6.974  0.0996  0.8609  0.1336
    6SAPS    HA  684   2.751   6.367   6.886 -1.6252 -2.2331  0.0186
    6SAPS    HB  685   2.632   6.313   7.006  0.6974  0.3529 -0.1286
    6SAPS    C2  686   2.613   6.510   6.917 -0.0304 -0.0266 -0.0641
    6SAPS    HS  687   2.529   6.537   6.985 -1.1627  0.4574 -1.5976
    6SAPS   O21  688   2.561   6.464   6.787 -0.4167 -0.3571  0.1659
    6SAPS   C21  689   2.444   6.405   6.802  0.6613 -0.3962  0.0448
    6SAPS   O22  690   2.378   6.394   6.902  0.4069  1.1488 -0.1256
    6SAPS   C22  691   2.412   6.347   6.660  0.0898 -0.1915 -0.0161
    6SAPS   H2R  692   2.405   6.425   6.582 -0.4251  1.5786  1.7267
    6SAPS   H2S  693   2.503   6.285   6.641  1.3632  1.6831 -0.2466
    6SAPS    C3  694   2.692   6.642   6.901  0.2193  0.5325  0.7851
    6SAPS    HX  695   2.746   6.657   6.997 -0.8802 -0.8722  1.6558
    6SAPS    HY  696   2.607   6.710   6.879 -0.0264 -0.0190  0.0250
    6SAPS   O31  697   2.781   6.634   6.786 -0.6878  0.5841 -0.5374
    6SAPS   C31  698   2.810   6.743   6.725  0.2484 -0.8190 -0.7873
    6SAPS   O32  699   2.754   6.854   6.751 -0.0405  0.3734  0.0930
    6SAPS   C32  700   2.908   6.714   6.616  0.1900 -0.1788  0.7072
    6SAPS   H2X  701   2.893   6.609   6.582 -1.5603 -0.1374  1.2665
    6SAPS   H2Y  702   3.010   6.723   6.659  1.0338 -0.2151 -1.1844
    6SAPS   C23  703   2.293   6.256   6.655 -0.1856 -0.3482  0.2762
    6SAPS   H3R  704   2.199   6.312   6.674 -0.6432 -0.5258 -1.2859
    6SAPS   H3S  705   2.308   6.180   6.734  0.9577  0.7650  1.1583
    6SAPS   C24  706   2.277   6.197   6.509 -0.0281 -0.2503 -0.1046
    6SAPS   H4R  707   2.377   6.167   6.473  0.1758 -0.0489  0.2790
    6SAPS   H4S  708   2.238   6.271   6.436 -2.7265 -0.2629  1.2055
    6SAPS   C25  709   2.177   6.083   6.508  0.7157  0.4385  0.3045
    6SAPS   H5R  710   2.128   6.064   6.605 -0.1462  1.0708  0.0003
    6SAPS   C26  711   2.155   6.005   6.401  0.5749  0.2446 -0.3568
    6SAPS   H6R  712   2.101   5.912   6.423 -1.6077  1.9159  1.9728
    6SAPS   C27  713   2.210   6.017   6.261 -0.0774  0.5692 -0.5812
    6SAPS   H7R  714   2.228   5.914   6.223  4.4947  0.3059  1.6741
    6SAPS   H7S  715   2.310   6.063   6.265  0.0691  0.4450 -2.1221
    6SAPS   C28  716   2.144   6.105   6.161 -0.1795 -0.1483  0.2931
    6SAPS   H8R  717   2.139   6.209   6.196  0.3932 -0.3208  0.9186
    6SAPS   C29  718   2.096   6.074   6.039  0.1754 -0.2355 -0.9120
    6SAPS   H9R  719   2.040   6.150   5.983  0.0337  0.9151  0.7351
    6SAPS  C210  720   2.094   5.935   5.978  0.1291  0.0421 -0.4012
    6SAPS  H10R  721   2.097   5.847   6.046  1.8189 -1.4232 -2.2338
    6SAPS  H10S  722   2.182   5.931   5.910  1.2741 -0.9127  1.0482
    6SAPS  C211  723   1.976   5.903   5.887 -0.1967  0.6813  0.9657
    6SAPS  H11R  724   1.904   5.835   5.934  2.3529 -1.4063  2.0958
    6SAPS  C212  725   1.949   5.966   5.771 -0.6314 -0.3078  0.4232
    6SAPS  H12R  726   1.846   5.945   5.740 -0.0013 -1.7779 -0.7775
    6SAPS  C213  727   2.030   6.073   5.706 -0.7378 -0.0245  0.6164
    6SAPS  H13R  728   2.119   6.016   5.673 -2.4072 -2.4532  0.0793
    6SAPS  H13S  729   2.064   6.151   5.778 -2.5105  0.6374  0.7825
    6SAPS  C214  730   1.960   6.130   5.590 -0.4279 -0.6117  0.1865
    6SAPS  H14R  731   1.928   6.235   5.605  1.9352  0.2098 -0.1053
    6SAPS  C215  732   1.938   6.069   5.471  0.3193 -0.0500  0.1567
    6SAPS  H15R  733   1.897   6.126   5.386 -0.6957 -2.0092 -0.7343
    6SAPS  C216  734   1.992   5.931   5.425 -0.4745  0.1688 -0.2520
    6SAPS  H16R  735   2.068   5.889   5.494 -2.3435 -0.1071  1.7251
    6SAPS  H16S  736   2.034   5.944   5.323 -0.4800 -0.8086 -0.3804
    6SAPS  C217  737   1.878   5.832   5.399 -0.0489  0.4097 -1.0287
    6SAPS  H17R  738   1.828   5.875   5.309  1.3912  2.4099 -0.9615
    6SAPS  H17S  739   1.821   5.830   5.493  1.7975 -0.7639  0.1291
    6SAPS  C218  740   1.904   5.683   5.359 -0.4499  0.0942  0.0067
    6SAPS  H18R  741   1.941   5.692   5.254  1.9078 -0.7039  0.6965
    6SAPS  H18S  742   1.807   5.630   5.350  0.7896 -2.6065  1.4166
    6SAPS  C219  743   2.000   5.600   5.443  0.1975 -0.5586  0.5557
    6SAPS  H19R  744   1.981   5.621   5.550  3.0871  1.5315  0.7801
    6SAPS  H19S  745   2.107   5.630   5.438 -0.7955  4.0751  1.6416
    6SAPS  C220  746   1.980   5.444   5.407  0.1297 -0.0917 -0.2280
    6SAPS  H20R  747   1.979   5.443   5.296 -2.0350  1.4557 -0.2811
    6SAPS  H20S  748   1.878   5.422   5.445  0.0557 -0.9630 -0.9151
    6SAPS  H20T  749   2.067   5.382   5.437  0.4776  0.3860 -0.2174
    6SAPS   C33  750   2.892   6.807   6.496 -0.7584 -0.6440 -0.0532
    6SAPS   H3X  751   2.914   6.911   6.530 -2.0670 -0.7819  1.2859
    6SAPS   H3Y  752   2.796   6.799   6.441 -1.5285 -0.2305  1.1905
    6SAPS   C34  753   3.002   6.772   6.384  0.3477  0.2714  0.0694
    6SAPS   H4X  754   2.996   6.663   6.363  0.0043  0.5255 -1.2401
    6SAPS   H4Y  755   3.106   6.788   6.420 -0.3641  1.8223  1.5915
    6SAPS   C35  756   2.999   6.860   6.255  0.4946 -0.1556  0.4891
    6SAPS   H5X  757   3.019   6.967   6.278 -0.4491  0.0416  0.4354
    6SAPS   H5Y  758   2.894   6.849   6.221  0.8387 -2.1157 -0.0516
    6SAPS   C36  759   3.095   6.793   6.151  1.0767 -0.7377 -0.0041
    6SAPS   H6X  760   3.076   6.684   6.149  0.7444 -0.7721  2.1672
    6SAPS   H6Y  761   3.201   6.816   6.172  0.6847  1.6348 -0.3479
    6SAPS   C37  762   3.058   6.854   6.016 -0.4542  0.0614 -0.1125
    6SAPS   H7X  763   3.140   6.820   5.949  1.2158  1.1126  1.2895
    6SAPS   H7Y  764   3.055   6.963   6.035 -1.3839 -0.0746  0.5787
    6SAPS   C38  765   2.920   6.796   5.958 -0.3947  0.1927 -0.0240
    6SAPS   H8X  766   2.925   6.833   5.854 -1.7381 -0.1564 -0.2222
    6SAPS   H8Y  767   2.842   6.842   6.023 -0.1624  1.4792 -0.6282
    6SAPS   C39  768   2.904   6.641   5.944  0.2810  0.4861  0.0526
    6SAPS   H9X  769   2.893   6.592   6.043  1.5295  0.8672  0.3990
    6SAPS   H9Y  770   2.993   6.590   5.901 -0.4555 -1.2133  0.4621
    6SAPS  C310  771   2.772   6.608   5.871  0.3657  0.0543 -0.9887
    6SAPS  H10X  772   2.702   6.684   5.913  1.1871  1.2409 -1.6741
    6SAPS  H10Y  773   2.726   6.511   5.899 -2.5261  1.8114  0.9073
    6SAPS  C311  774   2.773   6.636   5.720 -0.3494 -0.0658 -0.5861
    6SAPS  H11X  775   2.803   6.534   5.686 -0.0373  0.7550 -2.9544
    6SAPS  H11Y  776   2.844   6.715   5.688  0.5960 -0.2500  0.9493
    6SAPS  C312  777   2.635   6.678   5.659  0.0322 -0.0205 -0.1790
    6SAPS  H12X  778   2.615   6.785   5.679 -0.5055 -0.2428  0.4774
    6SAPS  H12Y  779   2.558   6.620   5.713 -0.4075  0.4716 -0.2701
    6SAPS  C313  780   2.619   6.670   5.510  0.2322  0.0299 -0.0764
    6SAPS  H13X  781   2.522   6.699   5.464 -0.3488  0.7633  1.5574
    6SAPS  H13Y  782   2.646   6.568   5.473 -1.2286  0.9492 -4.2715
    6SAPS  C314  783   2.724   6.755   5.429 -0.4808 -0.5030 -0.0152
    6SAPS  H14X  784   2.830   6.736   5.457 -0.2939 -2.1109 -1.6563
    6SAPS  H14Y  785   2.693   6.861   5.441 -2.0304 -1.0860  1.5278
    6SAPS  C315  786   2.733   6.723   5.280  1.0387 -0.1856  0.6314
    6SAPS  H15X  787   2.784   6.624   5.281  1.7536  0.1177 -1.5715
    6SAPS  H15Y  788   2.803   6.791   5.228  0.2713 -1.0775 -1.6915
    6SAPS  C316  789   2.596   6.723   5.208 -0.0524 -0.0225 -0.5505
    6SAPS  H16X  790   2.544   6.633   5.246  3.1543 -1.2305  1.3751
    6SAPS  H16Y  791   2.630   6.687   5.108 -0.3067 -5.3213  1.0002
    6SAPS  C317  792   2.516   6.854   5.210 -0.0631  0.5903 -0.3403
    6SAPS  H17X  793   2.593   6.931   5.192 -0.0756  0.5022 -0.7836
    6SAPS  H17Y  794   2.463   6.870   5.306 -1.4930  0.0834 -1.0096
    6SAPS  C318  795   2.409   6.861   5.099  0.0884  0.0007  0.2489
    6SAPS  H18X  796   2.343   6.943   5.134  0.3504 -1.1985  4.0504
    6SAPS  H18Y  797   2.347   6.772   5.078  0.0714 -0.4551  2.0729
    6SAPS  H18Z  798   2.456   6.899   5.005  1.9221  0.1600  1.1780
    7SAPS     N  799   3.619   5.758   6.755 -0.3189  0.8264  0.1989
    7SAPS   HN1  800   3.517   5.739   6.745 -0.2493 -1.0257  2.2977
    7SAPS   HN2  801   3.641   5.849   6.800  0.3266  0.0706  1.4777
    7SAPS   HN3  802   3.657   5.751   6.658 -1.1619  0.8543 -0.1428
    7SAPS   C12  803   3.679   5.635   6.825 -0.0489 -0.0074  0.0109
    7SAPS  H12A  804   3.641   5.643   6.926 -2.5528 -0.7352 -0.8081
    7SAPS   C13  805   3.623   5.502   6.776  0.5059  0.2098 -0.4222
    7SAPS  O13A  806   3.537   5.502   6.684  0.2024  0.0770  0.2110
    7SAPS  O13B  807   3.666   5.393   6.823 -0.0739  0.2360  0.7776
    7SAPS   C11  808   3.836   5.643   6.835  0.2779 -0.2505 -0.8774
    7SAPS  H11A  809   3.887   5.659   6.738  1.5781 -0.3411 -0.2268
    7SAPS  H11B  810   3.875   5.543   6.864  2.8826  0.7868 -0.5379
    7SAPS     P  811   4.028   5.750   6.958  0.1624 -0.4807  0.1359
    7SAPS   O13  812   4.056   5.886   7.017  0.6012 -0.1821  0.1812
    7SAPS   O14  813   4.068   5.631   7.029 -0.1324 -0.1891  0.3089
    7SAPS   O12  814   3.876   5.745   6.929 -0.6871  0.7183  0.0972
    7SAPS   O11  815   4.091   5.750   6.814 -0.5422  0.2763 -0.0370
    7SAPS    C1  816   4.065   5.866   6.731  0.3611  0.5608 -0.4075
    7SAPS    HA  817   3.963   5.904   6.753  0.3443 -0.8399  2.3049
    7SAPS    HB  818   4.130   5.951   6.761  0.9388  0.9222 -2.4775
    7SAPS    C2  819   4.077   5.826   6.576 -0.3200 -0.1798  0.3235
    7SAPS    HS  820   4.030   5.728   6.557 -1.4600  0.4207 -0.0744
    7SAPS   O21  821   4.216   5.828   6.538  0.9012  0.8778 -0.3288
    7SAPS   C21  822   4.239   5.755   6.428 -0.1360 -0.0189  0.8680
    7SAPS   O22  823   4.152   5.705   6.357  0.3741 -0.1922  0.2232
    7SAPS   C22  824   4.393   5.740   6.400 -0.0698 -0.0474  0.5712
    7SAPS   H2R  825   4.454   5.809   6.463  1.0636  0.0569 -0.5975
    7SAPS   H2S  826   4.423   5.638   6.431  0.0319 -0.0004  0.6292
    7SAPS    C3  827   4.004   5.946   6.502  0.3210 -1.1600 -0.0320
    7SAPS    HX  828   4.049   6.039   6.540  0.3939 -1.1238 -0.2065
    7SAPS    HY  829   3.894   5.939   6.521 -0.0709  2.7869 -0.0283
    7SAPS   O31  830   4.035   5.958   6.355  0.1479 -0.3281 -0.0489
    7SAPS   C31  831   3.940   5.907   6.279  0.3867 -0.7374  0.4512
    7SAPS   O32  832   3.827   5.873   6.315 -0.6819 -0.1976  0.5538
    7SAPS   C32  833   3.988   5.905   6.138  0.3941 -0.0156  0.6107
    7SAPS   H2X  834   4.094   5.936   6.145 -0.4078  2.8636  1.2400
    7SAPS   H2Y  835   3.934   5.984   6.081 -1.4193 -1.7737 -0.2338
    7SAPS   C23  836   4.421   5.766   6.240  0.3490  0.1000  0.2539
    7SAPS   H3R  837   4.345   5.713   6.178  2.6929 -0.8578 -2.0231
    7SAPS   H3S  838   4.520   5.721   6.217  0.3331 -0.3495  1.0151
    7SAPS   C24  839   4.419   5.919   6.206  0.0356  0.3814  0.2096
    7SAPS   H4R  840   4.323   5.953   6.249  0.7400  1.9892  0.6172
    7SAPS   H4S  841   4.398   5.929   6.097  0.5553 -1.5439 -0.0957
    7SAPS   C25  842   4.526   6.017   6.258  0.1429  0.6169  0.0727
    7SAPS   H5R  843   4.526   6.043   6.365 -1.5615 -1.2927  0.5864
    7SAPS   C26  844   4.621   6.065   6.176  0.0174  0.2419  0.2790
    7SAPS   H6R  845   4.696   6.132   6.221 -0.3984 -0.2805  1.8289
    7SAPS   C27  846   4.655   6.034   6.035  0.6487  0.2846  0.8479
    7SAPS   H7R  847   4.648   6.132   5.984 -0.5523 -0.1190  0.2017
    7SAPS   H7S  848   4.582   5.977   5.975  1.1508  2.0298 -1.5617
    7SAPS   C28  849   4.794   5.981   6.021 -0.0443 -0.2035  0.4224
    7SAPS   H8R  850   4.857   5.990   6.111 -0.1574  1.4988  0.3604
    7SAPS   C29  851   4.854   5.935   5.909 -0.0220 -0.3126  0.3177
    7SAPS   H9R  852   4.961   5.911   5.906  0.0132 -0.1599  0.3430
    7SAPS  C210  853   4.796   5.931   5.773 -0.3248 -0.4717 -0.2541
    7SAPS  H10R  854   4.706   5.995   5.761  0.8736  1.3047 -0.0959
    7SAPS  H10S  855   4.766   5.827   5.749 -1.3292 -0.5979  1.4250
    7SAPS  C211  856   4.900   5.984   5.681 -0.3142 -0.2704 -0.2690
    7SAPS  H11R  857   4.954   6.073   5.718 -1.3698  0.2821 -0.0336
    7SAPS  C212  858   4.927   5.943   5.557 -0.9857  0.4199 -0.5696
    7SAPS  H12R  859   4.986   6.018   5.501  0.1477  0.3617  0.4954
    7SAPS  C213  860   4.857   5.841   5.475  0.1670 -0.5040  0.3351
    7SAPS  H13R  861   4.750   5.835   5.504 -0.1662 -1.1438 -0.9482
    7SAPS  H13S  862   4.895   5.738   5.488 -1.5281 -1.2394 -0.3126
    7SAPS  C214  863   4.868   5.885   5.334 -0.2272  0.0084  0.1196
    7SAPS  H14R  864   4.781   5.943   5.300 -0.0888 -0.8388 -1.8044
    7SAPS  C215  865   4.981   5.871   5.257  0.0860 -0.5994 -0.0543
    7SAPS  H15R  866   4.974   5.900   5.151 -0.8775 -0.9148 -0.0931
    7SAPS  C216  867   5.105   5.781   5.295  0.4729 -0.1954  0.0337
    7SAPS  H16R  868   5.105   5.694   5.227 -2.2473 -1.0374  0.9938
    7SAPS  H16S  869   5.095   5.760   5.404 -0.9206 -1.9365 -0.4043
    7SAPS  C217  870   5.240   5.852   5.274  0.4866  0.4404  0.9151
    7SAPS  H17R  871   5.325   5.781   5.279  2.8912  3.1180  1.0782
    7SAPS  H17S  872   5.259   5.936   5.345 -1.1523  1.9644 -0.3494
    7SAPS  C218  873   5.256   5.900   5.132 -0.0370  0.0436  0.2261
    7SAPS  H18R  874   5.167   5.953   5.093  0.7338  0.2331 -1.3595
    7SAPS  H18S  875   5.265   5.810   5.067  0.6585  1.0545 -1.1400
    7SAPS  C219  876   5.383   5.988   5.112 -0.3101 -0.4794 -0.1631
    7SAPS  H19R  877   5.467   5.932   5.160  0.1470 -0.6597 -1.1378
    7SAPS  H19S  878   5.363   6.083   5.165  2.7955  0.3607 -0.2903
    7SAPS  C220  879   5.416   6.010   4.965  0.5570 -0.0013  0.2203
    7SAPS  H20R  880   5.337   6.076   4.924 -1.3382 -1.6994  0.9744
    7SAPS  H20S  881   5.423   5.915   4.907 -0.3817 -1.3259  2.1598
    7SAPS  H20T  882   5.519   6.050   4.960  0.5115  0.1495  0.4835
    7SAPS   C33  883   3.965   5.764   6.079 -0.1397 -0.2769 -0.8797
    7SAPS   H3X  884   3.859   5.731   6.085  0.5136 -2.6583 -1.2511
    7SAPS   H3Y  885   4.013   5.694   6.152  0.3220  0.7975 -0.1326
    7SAPS   C34  886   4.025   5.758   5.936  0.2413  0.5758  0.2132
    7SAPS   H4X  887   3.982   5.846   5.885  0.2891  0.1303 -0.6216
    7SAPS   H4Y  888   3.989   5.665   5.886  0.8027  0.4088  0.1049
    7SAPS   C35  889   4.183   5.765   5.931 -0.0633  0.4644  0.4494
    7SAPS   H5X  890   4.221   5.665   5.960 -0.4869  0.7211  1.9927
    7SAPS   H5Y  891   4.221   5.830   6.013  2.1628  1.4741 -1.2920
    7SAPS   C36  892   4.246   5.800   5.791 -0.1443 -0.3630 -0.3011
    7SAPS   H6X  893   4.232   5.908   5.771 -1.1053 -0.0874  1.6264
    7SAPS   H6Y  894   4.199   5.742   5.708  1.6823 -1.9313 -0.2992
    7SAPS   C37  895   4.406   5.785   5.776  0.0369 -0.0439  0.1027
    7SAPS   H7X  896   4.442   5.680   5.769 -2.4906 -0.8592 -3.1608
    7SAPS   H7Y  897   4.457   5.822   5.867 -2.0852 -0.4286  1.5090
    7SAPS   C38  898   4.472   5.867   5.659 -0.2929  0.3807  0.2146
    7SAPS   H8X  899   4.583   5.857   5.652 -0.3883 -0.5285 -0.1720
    7SAPS   H8Y  900   4.464   5.972   5.695 -0.9340  0.1289  0.8183
    7SAPS   C39  901   4.403   5.851   5.520 -0.7300 -0.0784  0.2414
    7SAPS   H9X  902   4.459   5.919   5.453  0.7764 -1.8315 -0.3412
    7SAPS   H9Y  903   4.300   5.893   5.526 -0.3813  0.7933  0.2455
    7SAPS  C310  904   4.421   5.712   5.463  0.1460  0.0322 -0.2803
    7SAPS  H10X  905   4.374   5.630   5.521 -3.0916  1.3369 -0.8013
    7SAPS  H10Y  906   4.531   5.701   5.459  0.1983  0.3294  0.3331
    7SAPS  C311  907   4.375   5.694   5.308  0.0306  0.0978 -0.4107
    7SAPS  H11X  908   4.372   5.583   5.295  0.1188 -0.3187  2.4362
    7SAPS  H11Y  909   4.454   5.743   5.248 -0.6634  1.5382 -0.1981
    7SAPS  C312  910   4.234   5.756   5.276 -1.1168 -0.4686 -0.2547
    7SAPS  H12X  911   4.230   5.862   5.309 -2.5339 -0.1668 -1.3083
    7SAPS  H12Y  912   4.154   5.700   5.330 -0.3475 -0.6818  0.6883
    7SAPS  C313  913   4.189   5.748   5.133 -0.7170 -0.2487 -0.1069
    7SAPS  H13X  914   4.252   5.801   5.058  0.4833 -0.3238  0.8170
    7SAPS  H13Y  915   4.095   5.808   5.126 -0.6583  0.0682  1.4443
    7SAPS  C314  916   4.166   5.608   5.068  0.6883  0.5311  0.7131
    7SAPS  H14X  917   4.090   5.557   5.131  0.7104 -1.3473 -0.6885
    7SAPS  H14Y  918   4.261   5.551   5.058 -0.5921 -1.3147 -2.4158
    7SAPS  C315  919   4.109   5.630   4.925  0.4262 -0.6026  0.2267
    7SAPS  H15X  920   4.029   5.707   4.927  0.4987 -0.4189 -2.0763
    7SAPS  H15Y  921   4.050   5.536   4.909 -2.2171  0.6300  1.9586
    7SAPS  C316  922   4.220   5.650   4.813  0.0051 -0.4654  0.0370
    7SAPS  H16X  923   4.286   5.732   4.849 -1.4924  0.1071  1.6227
    7SAPS  H16Y  924   4.181   5.689   4.716  0.6324  2.8682  1.0022
    7SAPS  C317  925   4.300   5.525   4.769  0.5748 -0.2752  0.0985
    7SAPS  H17X  926   4.228   5.441   4.768  0.8949 -0.5506 -0.3642
    7SAPS  H17Y  927   4.382   5.507   4.842 -0.6491 -0.0333  1.5742
    7SAPS  C318  928   4.371   5.544   4.637 -0.3382  0.2431 -0.3102
    7SAPS  H18X  929   4.452   5.618   4.657 -0.4181 -0.1953  1.8424
    7SAPS  H18Y  930   4.312   5.594   4.557  0.9610  0.1267 -1.3813
    7SAPS  H18Z  931   4.412   5.450   4.594  1.9923  1.7184 -1.5683
    8SAPS     N  932   2.189   0.507   7.367 -0.5084 -0.0155  0.7286
    8SAPS   HN1  933   2.190   0.464   7.272 -2.3010 -0.8986  1.0595
    8SAPS   HN2  934   2.281   0.487   7.412 -0.0402 -0.7816 -0.5221
    8SAPS   HN3  935   2.114   0.465   7.426 -1.1948 -0.1678 -0.2318
    8SAPS   C12  936   2.157   0.656   7.347 -0.3018  0.1743 -0.5342
    8SAPS  H12A  937   2.164   0.709   7.441  3.6927  1.1764 -1.2150
    8SAPS   C13  938   2.262   0.739   7.268 -0.5796  0.0882 -0.0332
    8SAPS  O13A  939   2.379   0.703   7.251 -0.1210  0.3068  0.2131
    8SAPS  O13B  940   2.227   0.855   7.231  0.3760  0.0547  0.4199
    8SAPS   C11  941   2.019   0.660   7.277  0.4697 -0.1925  0.4774
    8SAPS  H11A  942   2.018   0.597   7.185 -0.8967 -0.1536  0.4504
    8SAPS  H11B  943   2.005   0.763   7.238 -0.0938  0.7837  3.0754
    8SAPS     P  944   1.771   0.677   7.366 -0.4885  0.0792  0.2246
    8SAPS   O13  945   1.682   0.595   7.453  0.1731 -0.0246  0.4039
    8SAPS   O14  946   1.784   0.821   7.391  0.0826 -0.7139 -0.1506
    8SAPS   O12  947   1.917   0.616   7.358  0.0844 -1.3645  0.4737
    8SAPS   O11  948   1.719   0.652   7.212  0.7882  0.1442  0.2503
    8SAPS    C1  949   1.631   0.747   7.142  0.2753 -0.0877 -0.7764
    8SAPS    HA  950   1.525   0.714   7.135  0.0479  0.9295 -3.1539
    8SAPS    HB  951   1.633   0.845   7.196 -1.1056 -0.7902  0.6493
    8SAPS    C2  952   1.687   0.768   6.998  0.4549 -0.1654 -0.3853
    8SAPS    HS  953   1.626   0.834   6.933 -0.4327 -0.1594  0.4423
    8SAPS   O21  954   1.685   0.644   6.928 -0.3092 -0.0226 -0.3709
    8SAPS   C21  955   1.566   0.596   6.883  0.1564  0.7100 -0.2774
    8SAPS   O22  956   1.456   0.645   6.895  0.1696 -0.4079  0.2311
    8SAPS   C22  957   1.594   0.472   6.801  0.7013 -0.7224 -0.0573
    8SAPS   H2R  958   1.680   0.411   6.836  1.0825 -0.0752  0.1278
    8SAPS   H2S  959   1.506   0.407   6.780  0.6200 -1.2422  1.7306
    8SAPS    C3  960   1.831   0.816   6.992  0.2769  0.1915 -0.1797
    8SAPS    HX  961   1.895   0.735   7.035  0.7870  1.7923  2.2958
    8SAPS    HY  962   1.832   0.903   7.062  0.2712 -0.2066  0.3232
    8SAPS   O31  963   1.868   0.857   6.862 -0.3802  0.2367 -0.6871
    8SAPS   C31  964   1.894   0.990   6.843 -0.4699  0.4677  0.0502
    8SAPS   O32  965   1.880   1.084   6.920 -0.3721  0.6191  0.0586
    8SAPS   C32  966   1.933   1.010   6.693  0.4294  1.0618 -0.5227
    8SAPS   H2X  967   2.013   0.939   6.664  1.8128  3.0227 -1.7680
    8SAPS   H2Y  968   1.975   1.112   6.679 -0.3949  1.8406  2.0312
    8SAPS   C23  969   1.647   0.510   6.657 -0.5041 -0.4753 -0.0066
    8SAPS   H3R  970   1.728   0.443   6.621 -2.1354 -1.7124 -1.5656
    8SAPS   H3S  971   1.702   0.607   6.658 -1.2748  0.0333 -2.1966
    8SAPS   C24  972   1.547   0.519   6.546 -0.6579 -1.6064  0.1702
    8SAPS   H4R  973   1.593   0.579   6.465 -1.0173  1.6841  2.2218
    8SAPS   H4S  974   1.467   0.590   6.577 -0.7738 -1.8248  0.3823
    8SAPS   C25  975   1.482   0.389   6.497 -0.3040 -0.4561  0.0721
    8SAPS   H5R  976   1.407   0.336   6.557  0.8324 -1.6521  0.4915
    8SAPS   C26  977   1.495   0.344   6.368  0.0432 -0.3143  0.3520
    8SAPS   H6R  978   1.450   0.245   6.349  1.3450 -0.5979 -1.4699
    8SAPS   C27  979   1.593   0.394   6.266  0.4244  0.2825 -0.5989
    8SAPS   H7R  980   1.652   0.310   6.224  0.8573  0.5982 -0.6206
    8SAPS   H7S  981   1.672   0.458   6.310 -0.3851  0.2694  0.9598
    8SAPS   C28  982   1.519   0.473   6.161  0.1922 -0.2242 -0.4645
    8SAPS   H8R  983   1.512   0.582   6.174  0.3271 -0.3157  0.4010
    8SAPS   C29  984   1.483   0.427   6.037  0.0916 -0.4235  0.7363
    8SAPS   H9R  985   1.459   0.501   5.959 -0.4313 -0.6560  0.6696
    8SAPS  C210  986   1.485   0.286   5.988 -0.6213  0.8459 -0.8168
    8SAPS  H10R  987   1.450   0.223   6.073  0.5970  2.6595  1.1563
    8SAPS  H10S  988   1.591   0.254   5.983 -1.0381 -0.9568  0.7642
    8SAPS  C211  989   1.413   0.261   5.858 -0.0547 -0.2784  0.3405
    8SAPS  H11R  990   1.333   0.332   5.831  1.5847  1.0009 -1.4678
    8SAPS  C212  991   1.445   0.162   5.772 -0.2606  0.8120  0.4960
    8SAPS  H12R  992   1.369   0.139   5.695  0.7763  4.2117 -1.7379
    8SAPS  C213  993   1.540   0.053   5.814 -0.0225  0.2430 -0.1385
    8SAPS  H13R  994   1.490  -0.046   5.799 -0.1903  0.2500  0.3566
    8SAPS  H13S  995   1.542   0.047   5.925 -1.4404 -2.7603 -0.1492
    8SAPS  C214  996   1.678   0.061   5.750 -0.4282  0.3753  0.0447
    8SAPS  H14R  997   1.719   0.163   5.747 -0.9962  0.6010 -0.2762
    8SAPS  C215  998   1.755  -0.046   5.723  0.3115 -0.0074  0.6593
    8SAPS  H15R  999   1.858  -0.036   5.685 -0.4206  0.4818 -1.3300
    8SAPS  C216 1000   1.713  -0.189   5.737 -0.1465 -0.0250  0.1351
    8SAPS  H16R 1001   1.653  -0.227   5.651 -1.1171  0.7653  0.4467
    8SAPS  H16S 1002   1.637  -0.206   5.816  1.6986 -2.7467  1.4806
    8SAPS  C217 1003   1.828  -0.288   5.777 -0.4709 -0.1575  0.0101
    8SAPS  H17R 1004   1.882  -0.252   5.867  1.1994  2.4019 -1.8613
    8SAPS  H17S 1005   1.915  -0.285   5.709  2.5409  0.9976  3.5797
    8SAPS  C218 1006   1.787  -0.424   5.800  0.8402  0.5655 -0.1065
    8SAPS  H18R 1007   1.726  -0.463   5.716 -0.2562  1.6642  0.1434
    8SAPS  H18S 1008   1.717  -0.429   5.886  0.4695 -1.3228 -0.4762
    8SAPS  C219 1009   1.902  -0.524   5.831 -0.6527  0.5398 -0.1166
    8SAPS  H19R 1010   1.958  -0.528   5.735 -3.3175  2.0552 -1.8659
    8SAPS  H19S 1011   1.838  -0.614   5.837 -1.5950  0.9869 -2.3315
    8SAPS  C220 1012   1.981  -0.504   5.955  0.2305 -0.0939  0.4017
    8SAPS  H20R 1013   2.062  -0.580   5.949 -0.5664 -0.8850 -4.1054
    8SAPS  H20S 1014   1.920  -0.519   6.046 -3.0176  0.6805 -1.4969
    8SAPS  H20T 1015   2.031  -0.406   5.967  0.7150 -0.0441 -1.6206
    8SAPS   C33 1016   1.822   0.962   6.595  0.9717  0.1419  0.2004
    8SAPS   H3X 1017   1.731   1.026   6.602  1.4570  0.9540 -0.7748
    8SAPS   H3Y 1018   1.786   0.860   6.621 -2.0139  0.5772 -1.7694
    8SAPS   C34 1019   1.869   0.961   6.444  0.0041  0.0357  0.3294
    8SAPS   H4X 1020   1.958   0.895   6.437 -0.3094 -0.4903  1.2428
    8SAPS   H4Y 1021   1.901   1.063   6.414 -1.3633  0.9878  1.9238
    8SAPS   C35 1022   1.766   0.922   6.340  0.7456  0.2427 -0.2065
    8SAPS   H5X 1023   1.673   0.982   6.353  1.1332  1.4909 -2.5784
    8SAPS   H5Y 1024   1.742   0.815   6.353 -0.8335  0.6354  0.3129
    8SAPS   C36 1025   1.813   0.947   6.194  0.3062  0.3493 -0.9256
    8SAPS   H6X 1026   1.769   0.872   6.125  0.3523  1.3769 -2.1192
    8SAPS   H6Y 1027   1.921   0.922   6.184  0.6453  1.9256 -1.6237
    8SAPS   C37 1028   1.808   1.085   6.130  0.1126  0.7718 -0.1672
    8SAPS   H7X 1029   1.888   1.150   6.173  0.5070 -0.1897  0.5725
    8SAPS   H7Y 1030   1.710   1.133   6.149  0.8839  2.0663  0.7787
    8SAPS   C38 1031   1.816   1.068   5.977  0.0910  0.1601 -0.5039
    8SAPS   H8X 1032   1.740   0.996   5.939 -0.0730  0.2348 -0.3156
    8SAPS   H8Y 1033   1.910   1.013   5.954 -0.2998  0.0227 -1.9308
    8SAPS   C39 1034   1.824   1.201   5.895  0.3240 -0.1190  0.7016
    8SAPS   H9X 1035   1.913   1.257   5.932  0.8913 -1.3160  1.2073
    8SAPS   H9Y 1036   1.729   1.258   5.906  0.5257  0.3076  0.2417
    8SAPS  C310 1037   1.843   1.171   5.742  0.1217  0.0681 -0.0952
    8SAPS  H10X 1038   1.754   1.107   5.724  0.8601 -2.2532  3.4897
    8SAPS  H10Y 1039   1.934   1.111   5.722 -0.6019 -1.1378  0.1474
    8SAPS  C311 1040   1.864   1.303   5.663  0.1723  0.2555  0.7208
    8SAPS  H11X 1041   1.933   1.375   5.713  0.6690 -1.2236  2.2213
    8SAPS  H11Y 1042   1.765   1.354   5.664 -0.7515 -1.4783  0.8807
    8SAPS  C312 1043   1.929   1.307   5.519  0.2559 -0.3820 -0.4908
    8SAPS  H12X 1044   2.018   1.241   5.517 -1.6530 -3.1401 -1.6151
    8SAPS  H12Y 1045   1.969   1.407   5.494  2.0824 -0.3159  2.2732
    8SAPS  C313 1046   1.832   1.241   5.417  0.4272 -0.7744  0.0415
    8SAPS  H13X 1047   1.809   1.145   5.468  1.9098 -1.4210 -0.4327
    8SAPS  H13Y 1048   1.894   1.224   5.326 -0.0287  0.3981 -0.5115
    8SAPS  C314 1049   1.712   1.326   5.377 -0.1142 -0.4266  1.0929
    8SAPS  H14X 1050   1.676   1.388   5.462 -0.9693  1.5513 -0.6151
    8SAPS  H14Y 1051   1.619   1.272   5.349 -0.0576 -0.2297  0.5161
    8SAPS  C315 1052   1.746   1.434   5.269  0.4328 -0.6071 -1.0084
    8SAPS  H15X 1053   1.836   1.489   5.304 -1.2293  1.6301  0.0221
    8SAPS  H15Y 1054   1.666   1.510   5.258  1.5351  0.9478  0.9745
    8SAPS  C316 1055   1.770   1.372   5.137 -0.2837 -0.8928  0.0675
    8SAPS  H16X 1056   1.684   1.311   5.102 -1.4794  1.7281 -1.8973
    8SAPS  H16Y 1057   1.860   1.308   5.148 -1.3520 -2.2408  1.4763
    8SAPS  C317 1058   1.779   1.479   5.032 -0.0745  0.1652  0.1454
    8SAPS  H17X 1059   1.695   1.551   5.039 -0.0415  0.1045  1.3650
    8SAPS  H17Y 1060   1.790   1.424   4.936  2.1942 -1.0422  1.0254
    8SAPS  C318 1061   1.908   1.555   5.054  0.2244  0.1249  0.5165
    8SAPS  H18X 1062   1.894   1.650   4.998 -0.8460 -1.4080 -1.9662
    8SAPS  H18Y 1063   1.999   1.502   5.019  1.1074  1.7942  0.1618
    8SAPS  H18Z 1064   1.937   1.586   5.157  1.1352 -1.4583  0.7702
    9SAPS     N 1065   2.059   0.090   7.787  0.0912 -0.1782 -0.1917
    9SAPS   HN1 1066   2.131   0.145   7.839  0.6039 -1.3700  0.4102
    9SAPS   HN2 1067   1.964   0.103   7.826  0.1121  1.0362 -0.5010
    9SAPS   HN3 1068   2.088  -0.010   7.791  0.1019 -0.1835 -0.4130
    9SAPS   C12 1069   2.059   0.143   7.651  0.5519 -0.4845 -0.4352
    9SAPS  H12A 1070   1.957   0.128   7.617 -0.0239  1.7671  0.1028
    9SAPS   C13 1071   2.071   0.295   7.630 -0.5441 -0.4363  0.7807
    9SAPS  O13A 1072   2.087   0.370   7.725  0.7460  0.1885 -0.2076
    9SAPS  O13B 1073   2.045   0.338   7.514 -0.5843 -0.3193  0.2324
    9SAPS   C11 1074   2.170   0.071   7.569  0.6924 -0.2197 -0.2219
    9SAPS  H11A 1075   2.264   0.077   7.627  1.0733  0.4196 -0.8846
    9SAPS  H11B 1076   2.190   0.122   7.473  0.8043  0.3998  0.1280
    9SAPS     P 1077   2.076  -0.132   7.421 -0.0722  0.0038 -0.3521
    9SAPS   O13 1078   2.003  -0.259   7.439 -0.9185  0.3605 -0.2456
    9SAPS   O14 1079   1.999  -0.025   7.354  0.6586 -0.0176 -0.1364
    9SAPS   O12 1080   2.143  -0.067   7.555 -0.2694 -0.3714  0.3537
    9SAPS   O11 1081   2.194  -0.170   7.325  0.3992  0.7464 -0.2144
    9SAPS    C1 1082   2.274  -0.075   7.264 -0.1135 -0.0228  0.3139
    9SAPS    HA 1083   2.322  -0.007   7.339  3.3102  0.5242 -2.1110
    9SAPS    HB 1084   2.357  -0.133   7.218 -2.4445 -1.7206 -1.9718
    9SAPS    C2 1085   2.223   0.007   7.142 -0.1168 -0.5453  0.0313
    9SAPS    HS 1086   2.125   0.054   7.168  1.2003  0.7836  3.0842
    9SAPS   O21 1087   2.219  -0.076   7.030  0.4049 -0.7040  0.1780
    9SAPS   C21 1088   2.101  -0.074   6.964 -0.5700  0.0406 -0.3640
    9SAPS   O22 1089   2.001  -0.009   6.984  0.0481 -0.1535 -0.2055
    9SAPS   C22 1090   2.118  -0.179   6.859 -0.8068 -0.5122  0.3037
    9SAPS   H2R 1091   2.107  -0.273   6.918 -0.1158 -0.0030  1.2658
    9SAPS   H2S 1092   2.043  -0.162   6.779 -0.8073  0.8116  0.5633
    9SAPS    C3 1093   2.314   0.128   7.113  0.3125 -0.3394  0.8045
    9SAPS    HX 1094   2.416   0.084   7.101  0.2312 -0.3776  0.2053
    9SAPS    HY 1095   2.317   0.201   7.196 -1.3769  1.1523 -0.3746
    9SAPS   O31 1096   2.272   0.198   6.996 -0.0138 -0.2793 -0.2231
    9SAPS   C31 1097   2.234   0.325   7.009  0.6793  0.0182  0.4642
    9SAPS   O32 1098   2.230   0.393   7.111  0.2236 -0.1818 -0.3075
    9SAPS   C32 1099   2.184   0.380   6.877 -0.7805  0.0011 -0.3455
    9SAPS   H2X 1100   2.103   0.315   6.837 -1.2842 -0.0273  0.6853
    9SAPS   H2Y 1101   2.275   0.380   6.813 -0.3917 -0.5727  0.2019
    9SAPS   C23 1102   2.260  -0.181   6.791  0.3754  0.0637  0.9533
    9SAPS   H3R 1103   2.311  -0.257   6.854  1.8407  0.5723  0.4311
    9SAPS   H3S 1104   2.307  -0.082   6.812  0.6480  0.0801  0.2832
    9SAPS   C24 1105   2.270  -0.219   6.641 -0.0430 -0.5520 -0.3017
    9SAPS   H4R 1106   2.226  -0.317   6.615 -0.6184  0.4667 -3.5472
    9SAPS   H4S 1107   2.378  -0.227   6.617  0.0924 -1.4547  0.5464
    9SAPS   C25 1108   2.198  -0.117   6.549  0.0950  0.1583  0.0065
    9SAPS   H5R 1109   2.102  -0.077   6.586  0.0726  1.5715 -1.4385
    9SAPS   C26 1110   2.244  -0.091   6.423  0.3070 -0.1694 -0.1593
    9SAPS   H6R 1111   2.179  -0.027   6.360  0.4549 -0.2905 -0.4353
    9SAPS   C27 1112   2.371  -0.139   6.357  0.2166  0.6159  1.0075
    9SAPS   H7R 1113   2.467  -0.148   6.412  0.2776  1.2967  1.0192
    9SAPS   H7S 1114   2.405  -0.069   6.278  1.4787 -0.5599  0.4612
    9SAPS   C28 1115   2.332  -0.272   6.289 -0.5101 -0.3669  0.5784
    9SAPS   H8R 1116   2.299  -0.349   6.360  2.2069  0.0426  2.4525
    9SAPS   C29 1117   2.344  -0.307   6.160  0.1007  0.1765  1.1875
    9SAPS   H9R 1118   2.317  -0.406   6.119  0.6934  0.1603  0.8271
    9SAPS  C210 1119   2.402  -0.225   6.052  0.5208  0.1290  0.2846
    9SAPS  H10R 1120   2.427  -0.280   5.959  0.9598  3.6513 -1.8463
    9SAPS  H10S 1121   2.492  -0.180   6.099  0.4648  0.7468 -0.1941
    9SAPS  C211 1122   2.319  -0.110   6.002  0.0656 -0.4651 -0.3398
    9SAPS  H11R 1123   2.338  -0.019   6.062  0.3580 -0.0063 -1.1173
    9SAPS  C212 1124   2.226  -0.109   5.905  0.4051  0.1051  0.0774
    9SAPS  H12R 1125   2.180  -0.014   5.874  2.1468  1.4802  1.5505
    9SAPS  C213 1126   2.201  -0.233   5.819 -0.0281  0.2903  0.2806
    9SAPS  H13R 1127   2.091  -0.239   5.800  0.1414  1.2240 -1.1036
    9SAPS  H13S 1128   2.233  -0.330   5.862  1.2101  0.4968 -0.1399
    9SAPS  C214 1129   2.274  -0.216   5.689  0.1667  0.1609  0.2433
    9SAPS  H14R 1130   2.338  -0.127   5.689 -1.0516  1.0745 -0.7843
    9SAPS  C215 1131   2.279  -0.300   5.579  0.2785  0.1329  0.0681
    9SAPS  H15R 1132   2.340  -0.279   5.490  1.1806 -1.2919  0.3078
    9SAPS  C216 1133   2.196  -0.430   5.566  0.0689 -0.6032  0.8148
    9SAPS  H16R 1134   2.107  -0.404   5.505 -0.1729  1.1042  1.8393
    9SAPS  H16S 1135   2.164  -0.468   5.666  0.1164 -1.3482  0.5549
    9SAPS  C217 1136   2.275  -0.553   5.509  0.0940 -0.0612  0.1547
    9SAPS  H17R 1137   2.209  -0.643   5.513 -1.3438  0.9468 -0.4773
    9SAPS  H17S 1138   2.353  -0.573   5.586 -1.3780 -1.3988  1.3660
    9SAPS  C218 1139   2.341  -0.552   5.376 -1.0059 -0.1151  0.0850
    9SAPS  H18R 1140   2.423  -0.627   5.367 -1.7556 -0.9628  0.2092
    9SAPS  H18S 1141   2.389  -0.452   5.368  0.6430 -0.9394 -0.9475
    9SAPS  C219 1142   2.249  -0.558   5.247 -0.4985 -0.0438 -0.0084
    9SAPS  H19R 1143   2.156  -0.498   5.260 -0.2257  0.7384 -1.4868
    9SAPS  H19S 1144   2.216  -0.665   5.246 -1.4221  0.1816 -3.1320
    9SAPS  C220 1145   2.330  -0.514   5.122  0.1675 -0.0738 -0.7747
    9SAPS  H20R 1146   2.431  -0.558   5.136  0.1411  0.4408  1.4069
    9SAPS  H20S 1147   2.317  -0.406   5.099  0.0097 -0.2144 -1.3553
    9SAPS  H20T 1148   2.297  -0.570   5.032  1.7930 -0.9951 -0.8356
    9SAPS   C33 1149   2.135   0.527   6.899  1.4623 -0.6270 -0.3929
    9SAPS   H3X 1150   2.221   0.595   6.918  1.2210 -0.2547 -0.6406
    9SAPS   H3Y 1151   2.069   0.533   6.989  0.8523 -1.8045 -0.7485
    9SAPS   C34 1152   2.055   0.581   6.781  0.2272 -0.1653 -0.4217
    9SAPS   H4X 1153   2.036   0.689   6.800  1.0146  0.0408 -0.7610
    9SAPS   H4Y 1154   1.958   0.528   6.770  0.8472 -1.7907  1.4307
    9SAPS   C35 1155   2.134   0.567   6.650  0.3420 -0.2026 -0.3288
    9SAPS   H5X 1156   2.148   0.459   6.626 -0.3043 -0.7753  1.6753
    9SAPS   H5Y 1157   2.237   0.607   6.661 -0.5648  2.0821  0.3112
    9SAPS   C36 1158   2.068   0.619   6.517 -1.0921  0.0812 -0.0260
    9SAPS   H6X 1159   2.062   0.729   6.506  1.4375  0.5975  2.6472
    9SAPS   H6Y 1160   1.964   0.585   6.494 -0.2390 -1.8467 -1.3303
    9SAPS   C37 1161   2.162   0.584   6.402  0.1777  0.6464  0.2457
    9SAPS   H7X 1162   2.152   0.474   6.385 -0.6091  0.6619  0.5898
    9SAPS   H7Y 1163   2.265   0.608   6.437  0.1107  1.6638 -0.2245
    9SAPS   C38 1164   2.126   0.660   6.265 -0.6068 -0.1801 -0.3334
    9SAPS   H8X 1165   2.205   0.635   6.191 -0.3109  1.6335 -0.6951
    9SAPS   H8Y 1166   2.129   0.769   6.286 -0.6503 -0.4240  1.0403
    9SAPS   C39 1167   1.984   0.622   6.199 -0.6806 -0.0003  0.1783
    9SAPS   H9X 1168   1.904   0.692   6.231 -0.9998 -1.0711  1.8735
    9SAPS   H9Y 1169   1.959   0.521   6.238  1.6439  0.6030  3.7154
    9SAPS  C310 1170   1.996   0.604   6.048  0.1087 -1.4868 -0.2311
    9SAPS  H10X 1171   2.061   0.517   6.025  1.0627 -0.8019 -0.2129
    9SAPS  H10Y 1172   2.044   0.694   6.004 -3.7307  0.7726 -0.2343
    9SAPS  C311 1173   1.857   0.593   5.980  0.8106 -0.2374  0.0415
    9SAPS  H11X 1174   1.810   0.693   5.983  0.0820 -0.4909 -1.7712
    9SAPS  H11Y 1175   1.785   0.516   6.016  0.5221 -0.2494 -0.5511
    9SAPS  C312 1176   1.870   0.549   5.830  0.0784  0.3707 -0.0318
    9SAPS  H12X 1177   1.914   0.447   5.831 -0.3735  0.1684 -0.3948
    9SAPS  H12Y 1178   1.944   0.615   5.781  0.5301 -0.0390  0.0962
    9SAPS  C313 1179   1.739   0.569   5.747  0.3000 -0.0254  0.7868
    9SAPS  H13X 1180   1.707   0.675   5.745  0.3524  0.0199 -2.2357
    9SAPS  H13Y 1181   1.660   0.505   5.792  0.3653 -0.9371 -0.3460
    9SAPS  C314 1182   1.750   0.525   5.601  0.7225  0.2404 -0.6122
    9SAPS  H14X 1183   1.851   0.535   5.554  0.6032 -1.6543 -1.3452
    9SAPS  H14Y 1184   1.685   0.592   5.541 -0.2459  0.6309  0.8153
    9SAPS  C315 1185   1.705   0.386   5.574 -0.1795  0.5055  0.1703
    9SAPS  H15X 1186   1.619   0.353   5.637 -0.1344 -0.6614 -0.3515
    9SAPS  H15Y 1187   1.791   0.316   5.580  1.1054  1.9157 -1.1033
    9SAPS  C316 1188   1.667   0.375   5.425  0.3747  0.2691  0.1268
    9SAPS  H16X 1189   1.755   0.380   5.357  1.4569 -2.2718  1.2483
    9SAPS  H16Y 1190   1.588   0.451   5.409  0.8036  0.9828  1.2684
    9SAPS  C317 1191   1.601   0.243   5.390  0.0697 -0.1000 -0.5976
    9SAPS  H17X 1192   1.498   0.253   5.431  0.6377  0.3342  0.7820
    9SAPS  H17Y 1193   1.657   0.160   5.438  1.9802  1.1846 -0.5356
    9SAPS  C318 1194   1.606   0.216   5.239 -0.7056 -0.4339 -0.2840
    9SAPS  H18X 1195   1.578   0.311   5.190 -1.0833 -0.7007 -0.5913
    9SAPS  H18Y 1196   1.542   0.127   5.221  0.8175 -1.7400  0.5238
    9SAPS  H18Z 1197   1.713   0.198   5.215 -0.2837  0.5700  0.7863
   10SAPS     N 1198   3.829   5.266   6.998 -0.0199 -0.5635 -0.2218
   10SAPS   HN1 1199   3.853   5.350   7.055  2.6892 -2.5708  1.9209
   10SAPS   HN2 1200   3.803   5.300   6.903  1.2502 -4.0874 -1.9968
   10SAPS   HN3 1201   3.750   5.212   7.038  0.1944 -3.4175 -3.2350
   10SAPS   C12 1202   3.960   5.194   6.977 -0.9784  0.7249  0.3244
   10SAPS  H12A 1203   4.031   5.270   6.946  0.7986 -2.1137 -3.3457
   10SAPS   C13 1204   4.011   5.122   7.108  0.4691  0.1612  0.2754
   10SAPS  O13A 1205   3.963   5.153   7.221 -0.1232  0.0521 -0.2680
   10SAPS  O13B 1206   4.124   5.064   7.099  0.4878 -0.4534 -0.0620
   10SAPS   C11 1207   3.946   5.081   6.866  0.8684 -0.1841 -0.4475
   10SAPS  H11A 1208   3.878   5.116   6.785 -0.1781  0.0754  0.5183
   10SAPS  H11B 1209   3.900   4.996   6.922  3.0921 -0.8692  0.4137
   10SAPS     P 1210   4.149   5.120   6.709  0.2728  0.0103  0.1816
   10SAPS   O13 1211   4.093   5.256   6.699 -0.0915  0.8959  0.2385
   10SAPS   O14 1212   4.295   5.103   6.721  0.0226 -0.3494  0.8064
   10SAPS   O12 1213   4.072   5.033   6.815  0.2114 -0.1852  0.0027
   10SAPS   O11 1214   4.110   5.057   6.574 -0.1979 -0.2400 -0.1987
   10SAPS    C1 1215   4.141   4.919   6.531 -0.1412  0.9207  0.8632
   10SAPS    HA 1216   4.181   4.857   6.613  0.0509  0.4723  0.4381
   10SAPS    HB 1217   4.051   4.872   6.487 -0.0508  3.1939 -2.1479
   10SAPS    C2 1218   4.242   4.918   6.414 -0.2793  0.8085 -0.1043
   10SAPS    HS 1219   4.337   4.950   6.461 -0.0892 -2.5990  2.2128
   10SAPS   O21 1220   4.190   5.009   6.316 -0.3104 -0.7954 -0.0897
   10SAPS   C21 1221   4.241   5.141   6.311  0.5326  0.1617 -0.1811
   10SAPS   O22 1222   4.326   5.182   6.382 -0.4004  0.2396 -0.1534
   10SAPS   C22 1223   4.170   5.224   6.199 -0.0687 -0.2302 -0.6279
   10SAPS   H2R 1224   4.060   5.223   6.210  0.0177  0.8134  0.6090
   10SAPS   H2S 1225   4.213   5.325   6.213 -0.9035 -0.0924  1.2882
   10SAPS    C3 1226   4.271   4.780   6.356 -0.4779  0.5934  0.6809
   10SAPS    HX 1227   4.242   4.693   6.420 -1.4309 -0.7964 -1.5194
   10SAPS    HY 1228   4.380   4.764   6.343 -0.7229 -2.2780  1.4106
   10SAPS   O31 1229   4.217   4.751   6.222  0.4807  0.2770 -0.6530
   10SAPS   C31 1230   4.103   4.686   6.215  0.1646 -0.1787  0.4015
   10SAPS   O32 1231   4.038   4.657   6.312  0.1527  0.7765  0.3477
   10SAPS   C32 1232   4.066   4.665   6.065 -0.3667 -0.1349  0.3026
   10SAPS   H2X 1233   3.970   4.610   6.062 -0.1091 -0.5952 -2.2343
   10SAPS   H2Y 1234   4.151   4.611   6.018  0.8860  0.8262  1.3859
   10SAPS   C23 1235   4.206   5.172   6.058 -0.1451  0.3333  0.2496
   10SAPS   H3R 1236   4.144   5.081   6.041  0.4020 -0.8924  3.9282
   10SAPS   H3S 1237   4.313   5.145   6.059 -0.2138 -0.1766 -1.6201
   10SAPS   C24 1238   4.188   5.267   5.941  1.4453 -0.6856  0.2415
   10SAPS   H4R 1239   4.203   5.214   5.844 -2.0599 -2.2694  0.4154
   10SAPS   H4S 1240   4.268   5.344   5.949  0.0566  0.6593  1.9915
   10SAPS   C25 1241   4.057   5.337   5.937  0.6280 -0.4108  0.5470
   10SAPS   H5R 1242   4.021   5.364   6.038 -1.2559  1.2824 -0.5053
   10SAPS   C26 1243   3.992   5.366   5.827  0.1513  0.1360  0.0221
   10SAPS   H6R 1244   3.895   5.415   5.839  0.2591  0.1305  1.0498
   10SAPS   C27 1245   4.016   5.334   5.685 -0.6229  1.3569  0.6487
   10SAPS   H7R 1246   3.937   5.261   5.659 -0.8074  1.1903  1.6604
   10SAPS   H7S 1247   4.103   5.270   5.661  0.0958  2.9662 -1.3927
   10SAPS   C28 1248   4.017   5.447   5.582 -0.0290 -0.7952 -0.1171
   10SAPS   H8R 1249   4.112   5.503   5.587  0.4754 -1.6598  0.5090
   10SAPS   C29 1250   3.915   5.494   5.507  0.2018  0.9911 -0.1897
   10SAPS   H9R 1251   3.930   5.589   5.454  1.5769  1.6341  1.2458
   10SAPS  C210 1252   3.769   5.446   5.503  0.1320  1.3998 -0.1230
   10SAPS  H10R 1253   3.753   5.345   5.546  0.2800  2.1276  1.7375
   10SAPS  H10S 1254   3.725   5.438   5.402  0.1983 -0.0420 -0.0602
   10SAPS  C211 1255   3.688   5.538   5.590 -0.0970  0.0346 -0.1585
   10SAPS  H11R 1256   3.730   5.561   5.688 -0.5081  4.2523 -0.8102
   10SAPS  C212 1257   3.566   5.585   5.558  0.2211  0.3231 -0.9580
   10SAPS  H12R 1258   3.516   5.651   5.629 -0.0718 -1.4509  0.5654
   10SAPS  C213 1259   3.502   5.570   5.424 -0.4985  0.7411 -0.2854
   10SAPS  H13R 1260   3.582   5.558   5.348  0.5545  1.6773  0.6428
   10SAPS  H13S 1261   3.460   5.670   5.398  0.2298  0.6448 -2.0296
   10SAPS  C214 1262   3.386   5.474   5.396 -1.1123  0.3109  0.4534
   10SAPS  H14R 1263   3.373   5.401   5.478 -1.6296  2.7506  2.6834
   10SAPS  C215 1264   3.327   5.452   5.276 -0.2460  0.0151  0.0575
   10SAPS  H15R 1265   3.238   5.388   5.265  0.1909 -0.5912  0.0409
   10SAPS  C216 1266   3.348   5.541   5.154  0.3608  0.1662 -0.2624
   10SAPS  H16R 1267   3.410   5.626   5.191  0.1948 -1.2605  3.7980
   10SAPS  H16S 1268   3.254   5.583   5.112 -1.2086  0.6286  3.3567
   10SAPS  C217 1269   3.420   5.464   5.036  0.0957 -0.2336  0.0375
   10SAPS  H17R 1270   3.417   5.531   4.947  0.6797 -0.5617 -0.2360
   10SAPS  H17S 1271   3.362   5.372   5.011  1.8118 -0.7544 -2.5102
   10SAPS  C218 1272   3.562   5.419   5.067 -0.3982  0.6004 -0.4840
   10SAPS  H18R 1273   3.548   5.335   5.138 -1.3897 -0.6033 -2.0347
   10SAPS  H18S 1274   3.627   5.503   5.099  1.3181 -1.1789  0.9231
   10SAPS  C219 1275   3.627   5.364   4.938 -0.5154 -0.6904 -0.3275
   10SAPS  H19R 1276   3.738   5.377   4.945 -0.7735  1.7992 -0.0643
   10SAPS  H19S 1277   3.595   5.427   4.852  0.1320  0.4350  0.2227
   10SAPS  C220 1278   3.573   5.230   4.910 -0.6414 -0.6981  0.3967
   10SAPS  H20R 1279   3.599   5.157   4.991  1.4717 -1.0377 -0.5191
   10SAPS  H20S 1280   3.607   5.193   4.811  1.1280 -1.5205  1.2473
   10SAPS  H20T 1281   3.462   5.229   4.906 -0.6042 -1.1065 -1.6102
   10SAPS   C33 1282   4.062   4.797   5.984 -0.4585 -0.3735 -0.4254
   10SAPS   H3X 1283   4.155   4.855   5.998 -0.2555 -0.5125 -1.1884
   10SAPS   H3Y 1284   3.983   4.868   6.016  1.3786  1.0091  1.2833
   10SAPS   C34 1285   4.062   4.770   5.836 -0.5078  0.0046  0.6189
   10SAPS   H4X 1286   3.977   4.702   5.810 -0.6996  0.4968 -0.0816
   10SAPS   H4Y 1287   4.146   4.709   5.797 -2.4241 -2.3196 -0.1357
   10SAPS   C35 1288   4.057   4.903   5.751 -0.6210  0.1495 -0.4717
   10SAPS   H5X 1289   4.146   4.962   5.781 -2.7679  2.2131  2.4431
   10SAPS   H5Y 1290   3.961   4.947   5.787  0.0051  0.7455  0.4900
   10SAPS   C36 1291   4.065   4.857   5.600 -0.5344 -0.4491 -0.2832
   10SAPS   H6X 1292   3.975   4.799   5.570 -0.7191  0.5866 -1.7863
   10SAPS   H6Y 1293   4.158   4.796   5.600  0.6574  1.2275  1.4993
   10SAPS   C37 1294   4.082   4.983   5.511  0.3740 -0.4641  0.0878
   10SAPS   H7X 1295   4.143   5.063   5.558 -0.3429  1.3686 -1.9808
   10SAPS   H7Y 1296   3.988   5.036   5.484  0.9002  0.2805 -0.2969
   10SAPS   C38 1297   4.144   4.952   5.373  0.2173 -0.5511  0.5182
   10SAPS   H8X 1298   4.224   4.877   5.388  0.5584 -0.3923 -0.4036
   10SAPS   H8Y 1299   4.190   5.041   5.324  1.2336 -1.7561 -0.8154
   10SAPS   C39 1300   4.044   4.913   5.262  0.0317  0.3667  0.9174
   10SAPS   H9X 1301   4.003   5.007   5.218  4.4972  0.3806 -4.3927
   10SAPS   H9Y 1302   3.961   4.850   5.299  1.1429 -0.8665  1.3878
   10SAPS  C310 1303   4.112   4.834   5.145  0.1671 -0.1052  0.4189
   10SAPS  H10X 1304   4.154   4.738   5.183  3.4600  0.4857 -1.4131
   10SAPS  H10Y 1305   4.195   4.898   5.109 -1.4939  0.4468 -2.7283
   10SAPS  C311 1306   4.030   4.822   5.023 -0.4127 -0.9313 -0.1053
   10SAPS  H11X 1307   4.087   4.774   4.941  0.6601 -0.6845  0.4731
   10SAPS  H11Y 1308   4.027   4.928   4.991  0.4882 -0.3269  1.6871
   10SAPS  C312 1309   3.889   4.777   5.036  0.2140  0.1288  0.5357
   10SAPS  H12X 1310   3.830   4.837   5.109 -0.4594 -1.3576  1.2730
   10SAPS  H12Y 1311   3.898   4.679   5.089 -1.4149 -0.5043 -0.2645
   10SAPS  C313 1312   3.811   4.762   4.901  0.0611  0.5109  0.0413
   10SAPS  H13X 1313   3.882   4.715   4.830 -0.5506 -1.6106  0.7780
   10SAPS  H13Y 1314   3.790   4.867   4.871  0.1375  1.2747  2.4387
   10SAPS  C314 1315   3.674   4.694   4.909  0.7875  0.7160  0.2161
   10SAPS  H14X 1316   3.630   4.696   5.011 -1.0841 -2.7895 -0.3828
   10SAPS  H14Y 1317   3.689   4.589   4.877  1.4999  0.7984  0.2547
   10SAPS  C315 1318   3.578   4.759   4.808 -0.2952 -0.2003 -0.2310
   10SAPS  H15X 1319   3.634   4.795   4.719  0.1550 -1.0438 -0.2969
   10SAPS  H15Y 1320   3.506   4.840   4.833 -1.2732 -0.7816 -1.0967
   10SAPS  C316 1321   3.492   4.648   4.742  0.7563 -0.0382  0.7837
   10SAPS  H16X 1322   3.410   4.603   4.802 -0.0397 -0.0443 -0.2889
   10SAPS  H16Y 1323   3.562   4.572   4.701  0.5560  1.4074 -2.5630
   10SAPS  C317 1324   3.418   4.697   4.612  0.5706 -0.3889 -0.4072
   10SAPS  H17X 1325   3.479   4.759   4.543 -0.3746 -0.9664 -1.8248
   10SAPS  H17Y 1326   3.338   4.768   4.642 -0.6741 -1.7618 -0.3834
   10SAPS  C318 1327   3.352   4.585   4.531  0.1044 -0.0197  0.1708
   10SAPS  H18X 1328   3.416   4.496   4.544  0.2603  0.5043  4.0104
   10SAPS  H18Y 1329   3.337   4.623   4.427  2.6354  1.7639  0.3779
   10SAPS  H18Z 1330   3.251   4.552   4.563  0.8472 -0.2855  2.4099
   11SAPS     N 1331   1.951   5.615   2.495 -0.5622  0.3450  0.0279
   11SAPS   HN1 1332   1.974   5.603   2.395 -2.7198  0.3732 -0.5246
   11SAPS   HN2 1333   1.853   5.649   2.503 -0.0409  1.9457  0.0196
   11SAPS   HN3 1334   2.028   5.675   2.531  1.1362 -1.3611 -0.6229
   11SAPS   C12 1335   1.962   5.481   2.567 -0.1461  0.1569 -0.3435
   11SAPS  H12A 1336   1.921   5.405   2.501  2.2995  1.0989 -3.1326
   11SAPS   C13 1337   2.104   5.421   2.605  1.4445  0.2278 -0.6663
   11SAPS  O13A 1338   2.202   5.498   2.595 -0.0915  0.2610 -0.8405
   11SAPS  O13B 1339   2.115   5.304   2.655  0.2440  0.1966  0.6267
   11SAPS   C11 1340   1.885   5.491   2.701  0.2118 -0.0478 -0.5503
   11SAPS  H11A 1341   1.946   5.539   2.781  1.6167 -2.7454  0.1172
   11SAPS  H11B 1342   1.869   5.387   2.736 -0.3047 -0.0740 -0.8567
   11SAPS     P 1343   1.619   5.464   2.687  0.3351  0.0116  0.1586
   11SAPS   O13 1344   1.501   5.549   2.652  0.5111 -0.4421 -0.1742
   11SAPS   O14 1345   1.642   5.354   2.587 -0.4163 -0.5986  0.8446
   11SAPS   O12 1346   1.754   5.558   2.694  0.0545  0.3466  0.4764
   11SAPS   O11 1347   1.604   5.415   2.832  0.0357  0.0383 -0.7781
   11SAPS    C1 1348   1.582   5.519   2.937 -0.2844  0.5996  0.2893
   11SAPS    HA 1349   1.531   5.611   2.901 -0.1650  0.1468 -1.0790
   11SAPS    HB 1350   1.506   5.481   3.009  0.3314  1.5034  1.4545
   11SAPS    C2 1351   1.710   5.556   3.009 -0.0238  0.2566 -0.6045
   11SAPS    HS 1352   1.776   5.608   2.937 -0.6237  1.0087 -0.6155
   11SAPS   O21 1353   1.773   5.435   3.070 -0.1839 -0.2346 -0.0675
   11SAPS   C21 1354   1.909   5.442   3.080 -0.2007  0.2557 -0.1843
   11SAPS   O22 1355   1.978   5.534   3.039  0.1570 -0.2137 -0.0493
   11SAPS   C22 1356   1.958   5.320   3.168  0.1484 -0.8191  0.3293
   11SAPS   H2R 1357   1.888   5.335   3.253 -0.8191 -1.4576 -0.3339
   11SAPS   H2S 1358   1.918   5.231   3.115  0.0802 -0.2656 -0.5754
   11SAPS    C3 1359   1.692   5.650   3.130 -0.1329 -0.9218  0.0366
   11SAPS    HX 1360   1.611   5.725   3.122 -0.6342 -1.5134 -0.5133
   11SAPS    HY 1361   1.783   5.708   3.157 -0.1424 -1.6661  1.7565
   11SAPS   O31 1362   1.657   5.571   3.245 -0.1947  0.3738 -0.5166
   11SAPS   C31 1363   1.641   5.642   3.357  0.4620 -0.1637 -0.5712
   11SAPS   O32 1364   1.677   5.755   3.368  0.2462 -0.2443  0.0149
   11SAPS   C32 1365   1.554   5.561   3.447 -0.0768 -0.7075  0.0018
   11SAPS   H2X 1366   1.532   5.461   3.402  0.8979 -1.1382  0.4351
   11SAPS   H2Y 1367   1.466   5.627   3.452  0.1617  0.2280 -4.0686
   11SAPS   C23 1368   2.102   5.327   3.218  0.6138 -0.5247  0.6296
   11SAPS   H3R 1369   2.096   5.426   3.268 -0.8698 -0.9905  1.4435
   11SAPS   H3S 1370   2.179   5.322   3.138 -0.2866 -0.5527 -0.2473
   11SAPS   C24 1371   2.141   5.219   3.319 -0.0012  0.5160  0.7236
   11SAPS   H4R 1372   2.252   5.230   3.321  0.3203  0.5882 -4.1438
   11SAPS   H4S 1373   2.126   5.128   3.256  3.6841  1.7614 -2.3142
   11SAPS   C25 1374   2.080   5.207   3.450 -0.1346 -0.0510 -0.0717
   11SAPS   H5R 1375   2.002   5.129   3.457  0.5079 -0.6440  0.6865
   11SAPS   C26 1376   2.124   5.262   3.563 -0.0728  0.0337 -0.3416
   11SAPS   H6R 1377   2.064   5.240   3.653  2.3806 -0.7420  1.2246
   11SAPS   C27 1378   2.239   5.357   3.577  0.9854  0.2370  0.2033
   11SAPS   H7R 1379   2.269   5.393   3.477 -0.9796  0.3523 -0.3897
   11SAPS   H7S 1380   2.321   5.298   3.624  0.5837  0.6685  1.4947
   11SAPS   C28 1381   2.203   5.473   3.659 -0.9179  0.1197  0.1072
   11SAPS   H8R 1382   2.213   5.568   3.604  0.6178  0.0648  0.2363
   11SAPS   C29 1383   2.173   5.482   3.791  0.0758  0.3004 -0.2599
   11SAPS   H9R 1384   2.143   5.583   3.823 -0.8404  0.3154 -1.0929
   11SAPS  C210 1385   2.155   5.369   3.890  0.0022 -0.0752  0.1590
   11SAPS  H10R 1386   2.248   5.354   3.950 -1.4898 -0.8538  2.3710
   11SAPS  H10S 1387   2.150   5.273   3.835 -3.0034  0.8120 -1.3126
   11SAPS  C211 1388   2.043   5.395   3.987  0.2759  0.0489  0.0631
   11SAPS  H11R 1389   1.946   5.352   3.958  0.7479 -1.9714  1.2453
   11SAPS  C212 1390   2.060   5.471   4.098 -0.3455  0.2699  0.1408
   11SAPS  H12R 1391   1.976   5.496   4.163  0.3571 -0.8477  1.5323
   11SAPS  C213 1392   2.192   5.531   4.150 -0.2902  0.3529  0.0503
   11SAPS  H13R 1393   2.254   5.570   4.066 -0.5403  2.3561  0.7530
   11SAPS  H13S 1394   2.257   5.453   4.196 -0.0105  0.6821  0.2155
   11SAPS  C214 1395   2.157   5.644   4.239  0.1076 -0.6069 -0.1084
   11SAPS  H14R 1396   2.087   5.720   4.200 -0.9960 -1.9748 -0.9231
   11SAPS  C215 1397   2.207   5.667   4.360  0.3693  0.5621 -0.4490
   11SAPS  H15R 1398   2.197   5.761   4.417 -1.5075 -0.2233  0.6029
   11SAPS  C216 1399   2.306   5.584   4.428 -0.3191  0.1156 -0.1501
   11SAPS  H16R 1400   2.338   5.500   4.362 -0.3223 -1.5746  1.8789
   11SAPS  H16S 1401   2.277   5.540   4.526  2.4782 -3.6583 -0.7850
   11SAPS  C217 1402   2.431   5.677   4.452  0.1501  0.5370  0.0325
   11SAPS  H17R 1403   2.472   5.701   4.352  1.3316 -1.7535 -0.0952
   11SAPS  H17S 1404   2.502   5.601   4.490  0.0796  0.6882  0.4657
   11SAPS  C218 1405   2.423   5.794   4.547 -0.0660  0.2063  0.0920
   11SAPS  H18R 1406   2.399   5.754   4.648  1.7042 -1.6601 -0.1662
   11SAPS  H18S 1407   2.344   5.870   4.531  0.0209  0.2211 -0.2721
   11SAPS  C219 1408   2.557   5.877   4.549 -0.0544  0.3119  0.1778
   11SAPS  H19R 1409   2.544   5.961   4.620 -1.2888 -0.9130  1.4912
   11SAPS  H19S 1410   2.579   5.907   4.445  1.1654  1.2739  0.6875
   11SAPS  C220 1411   2.673   5.797   4.605 -0.1753  0.8169 -0.5953
   11SAPS  H20R 1412   2.678   5.697   4.557 -1.0324 -0.3184  1.5713
   11SAPS  H20S 1413   2.651   5.776   4.712 -0.6778 -0.6601 -0.9590
   11SAPS  H20T 1414   2.772   5.844   4.591  0.7632 -0.0418  2.5252
   11SAPS   C33 1415   1.610   5.545   3.588 -0.8646 -0.4758 -0.4687
   11SAPS   H3X 1416   1.531   5.526   3.664 -0.7763  0.6944 -0.0653
   11SAPS   H3Y 1417   1.661   5.638   3.621 -0.7134 -0.5780 -0.4135
   11SAPS   C34 1418   1.723   5.439   3.583  0.7172  0.0977 -0.1865
   11SAPS   H4X 1419   1.808   5.470   3.519  0.7206 -1.1092 -0.7684
   11SAPS   H4Y 1420   1.672   5.346   3.552 -1.1654  0.4572  1.5651
   11SAPS   C35 1421   1.793   5.407   3.718  0.6198  0.4699 -0.5119
   11SAPS   H5X 1422   1.832   5.499   3.766  0.9719 -0.8656  1.9220
   11SAPS   H5Y 1423   1.879   5.345   3.684  0.9222  0.4700  0.2297
   11SAPS   C36 1424   1.704   5.323   3.820 -0.0208  0.0600 -0.1169
   11SAPS   H6X 1425   1.778   5.264   3.878 -1.5004 -0.1455  1.6313
   11SAPS   H6Y 1426   1.641   5.255   3.759 -1.1853  1.5513 -0.6380
   11SAPS   C37 1427   1.620   5.409   3.908  0.0569  0.5364 -0.8828
   11SAPS   H7X 1428   1.520   5.424   3.863  0.8087  1.2312 -2.3787
   11SAPS   H7Y 1429   1.666   5.510   3.918 -0.5003  0.6803  0.3956
   11SAPS   C38 1430   1.591   5.339   4.046  0.1459 -0.0019 -0.0179
   11SAPS   H8X 1431   1.555   5.235   4.030 -0.9165  0.4611 -0.7735
   11SAPS   H8Y 1432   1.505   5.396   4.087 -0.8757 -0.2941 -1.6617
   11SAPS   C39 1433   1.714   5.341   4.135  0.0200 -0.2201  0.1392
   11SAPS   H9X 1434   1.751   5.446   4.132 -1.8260  0.4471 -1.3633
   11SAPS   H9Y 1435   1.792   5.271   4.099  0.9650 -0.7607  2.9672
   11SAPS  C310 1436   1.696   5.303   4.280  0.1785  0.2371 -0.3318
   11SAPS  H10X 1437   1.663   5.198   4.287  0.3744  0.1480 -0.7201
   11SAPS  H10Y 1438   1.628   5.376   4.328  1.1493 -0.3765  2.1297
   11SAPS  C311 1439   1.828   5.312   4.358 -0.7126 -0.6849  0.6652
   11SAPS  H11X 1440   1.853   5.420   4.356  2.0259 -1.2566  0.9802
   11SAPS  H11Y 1441   1.902   5.255   4.298 -2.4771 -1.0706 -1.2669
   11SAPS  C312 1442   1.821   5.265   4.506 -0.4128  0.1963  0.2632
   11SAPS  H12X 1443   1.826   5.155   4.520 -1.2205  0.1946  0.6142
   11SAPS  H12Y 1444   1.724   5.304   4.544 -0.1781  0.3380  0.7265
   11SAPS  C313 1445   1.933   5.317   4.601  0.0782 -0.5162  1.0749
   11SAPS  H13X 1446   1.936   5.428   4.607 -1.9740 -0.5053  3.5015
   11SAPS  H13Y 1447   2.034   5.288   4.565 -0.3652  1.2774 -1.9684
   11SAPS  C314 1448   1.917   5.266   4.743  0.3318  0.2855 -0.5073
   11SAPS  H14X 1449   1.930   5.155   4.749 -0.9398  0.0878 -1.1543
   11SAPS  H14Y 1450   1.813   5.282   4.776  0.2495 -0.1051 -0.5672
   11SAPS  C315 1451   2.019   5.344   4.835 -0.8356 -0.4249 -0.0292
   11SAPS  H15X 1452   1.992   5.450   4.813  2.9529  1.3683  2.7074
   11SAPS  H15Y 1453   2.118   5.340   4.786 -1.8038  1.4108 -2.3495
   11SAPS  C316 1454   2.015   5.306   4.990 -0.6155 -0.4901 -0.2187
   11SAPS  H16X 1455   1.919   5.346   5.030 -0.0490  0.3460  0.3306
   11SAPS  H16Y 1456   2.090   5.369   5.043 -0.4757  0.3975 -1.4400
   11SAPS  C317 1457   2.040   5.158   5.012 -0.8612  0.3602 -0.4228
   11SAPS  H17X 1458   1.962   5.104   4.953  0.4934  0.3262 -2.2752
   11SAPS  H17Y 1459   2.016   5.145   5.119 -2.5806  0.8627 -0.7179
   11SAPS  C318 1460   2.179   5.100   4.968 -0.0652 -0.1036  0.0721
   11SAPS  H18X 1461   2.266   5.155   5.010 -0.2232  1.8294 -1.9774
   11SAPS  H18Y 1462   2.190   5.128   4.861  0.8483  3.0154  0.8805
   11SAPS  H18Z 1463   2.197   4.992   4.988  0.7307  0.0259  0.0765
   12SAPS     N 1464   3.200   3.661   2.809  0.5939  0.2516  0.2524
   12SAPS   HN1 1465   3.281   3.697   2.863 -0.1931  0.6665  1.1950
   12SAPS   HN2 1466   3.118   3.722   2.829  1.1875  1.0318  0.3267
   12SAPS   HN3 1467   3.188   3.568   2.854 -1.2962  0.2353 -0.1911
   12SAPS   C12 1468   3.241   3.650   2.661 -0.2823  0.7047  0.3913
   12SAPS  H12A 1469   3.317   3.574   2.665 -1.5208 -0.5888  0.3717
   12SAPS   C13 1470   3.124   3.609   2.569  0.3374  0.1347 -0.1015
   12SAPS  O13A 1471   3.012   3.575   2.619 -0.0677  0.9519  0.0229
   12SAPS  O13B 1472   3.153   3.584   2.449  0.3229  0.4240  0.4602
   12SAPS   C11 1473   3.280   3.783   2.604  0.1142 -0.5852 -0.6887
   12SAPS  H11A 1474   3.192   3.851   2.611  0.8403  0.2196  1.3249
   12SAPS  H11B 1475   3.312   3.782   2.497  0.4428 -0.2965 -0.5969
   12SAPS     P 1476   3.387   3.981   2.731 -0.3294 -0.1032  0.2219
   12SAPS   O13 1477   3.528   4.015   2.765  0.5792 -0.4130  0.3880
   12SAPS   O14 1478   3.313   4.072   2.645  0.2424 -0.2022  0.1926
   12SAPS   O12 1479   3.385   3.831   2.687  0.0614 -0.1193  0.2255
   12SAPS   O11 1480   3.311   3.979   2.867  0.4583  0.3836  0.0396
   12SAPS    C1 1481   3.371   3.906   2.981 -0.2725  0.6415  0.1797
   12SAPS    HA 1482   3.292   3.853   3.037 -0.3419 -1.2647 -1.6144
   12SAPS    HB 1483   3.460   3.841   2.968  0.1753  1.4959 -1.2557
   12SAPS    C2 1484   3.449   4.009   3.084  0.4840  1.2171  0.2424
   12SAPS    HS 1485   3.547   4.044   3.042  1.0366 -1.6665 -1.1001
   12SAPS   O21 1486   3.467   3.950   3.211 -0.1658  0.0705 -1.0599
   12SAPS   C21 1487   3.580   3.895   3.243 -0.0396 -0.3944 -0.0559
   12SAPS   O22 1488   3.682   3.895   3.172 -0.1617 -0.4382  0.0427
   12SAPS   C22 1489   3.567   3.829   3.381 -0.0777  0.2436  1.0771
   12SAPS   H2R 1490   3.462   3.793   3.393 -0.3460  0.5175 -0.2764
   12SAPS   H2S 1491   3.631   3.739   3.374 -2.5971 -1.7318  1.7109
   12SAPS    C3 1492   3.358   4.132   3.089  0.3995  0.4423  0.0956
   12SAPS    HX 1493   3.268   4.094   3.142  2.8427 -2.9933  2.2189
   12SAPS    HY 1494   3.342   4.171   2.986 -0.0280  1.1360  0.4142
   12SAPS   O31 1495   3.423   4.234   3.166 -0.2758 -0.3191 -0.2000
   12SAPS   C31 1496   3.348   4.301   3.251  0.4539  1.1387  1.1688
   12SAPS   O32 1497   3.228   4.273   3.272 -0.0741  0.1149 -0.0292
   12SAPS   C32 1498   3.431   4.420   3.300 -0.3113  0.4857 -0.1161
   12SAPS   H2X 1499   3.466   4.460   3.202 -1.9305  1.0726 -0.4895
   12SAPS   H2Y 1500   3.515   4.384   3.363  0.2755  0.0287 -1.1352
   12SAPS   C23 1501   3.615   3.916   3.498 -0.0830  0.0030 -0.4085
   12SAPS   H3R 1502   3.719   3.951   3.478 -0.1854 -0.5997 -2.1015
   12SAPS   H3S 1503   3.632   3.865   3.596 -1.3975  1.1637  0.4524
   12SAPS   C24 1504   3.518   4.029   3.548  0.1344  0.0281 -0.1229
   12SAPS   H4R 1505   3.446   3.993   3.625 -1.1183 -0.0632 -1.3023
   12SAPS   H4S 1506   3.454   4.059   3.462 -0.1007  0.4130  0.1815
   12SAPS   C25 1507   3.591   4.142   3.628 -0.2966  0.4124 -0.4256
   12SAPS   H5R 1508   3.607   4.228   3.562 -1.0025 -0.2057 -1.4339
   12SAPS   C26 1509   3.611   4.153   3.764 -0.1910 -0.3004  0.3406
   12SAPS   H6R 1510   3.660   4.240   3.809  2.4382 -1.1290 -0.7037
   12SAPS   C27 1511   3.579   4.041   3.860  0.0715 -0.1633  0.1252
   12SAPS   H7R 1512   3.657   3.962   3.848 -0.7191 -1.3751  2.2714
   12SAPS   H7S 1513   3.480   4.000   3.830 -0.6735  1.5400  0.1150
   12SAPS   C28 1514   3.584   4.098   4.001 -0.1829  0.3897  0.0262
   12SAPS   H8R 1515   3.583   4.208   4.010 -2.4657  0.7243 -2.9599
   12SAPS   C29 1516   3.592   4.024   4.112 -0.2021  0.2113 -0.0719
   12SAPS   H9R 1517   3.617   4.080   4.204 -1.1000  1.3303 -0.4805
   12SAPS  C210 1518   3.598   3.874   4.105  0.4566  0.7154 -0.0140
   12SAPS  H10R 1519   3.698   3.849   4.063  1.7339  4.6448  0.3188
   12SAPS  H10S 1520   3.514   3.833   4.045  1.0194 -2.0927  0.9476
   12SAPS  C211 1521   3.599   3.806   4.242 -0.0802 -0.6769  0.5898
   12SAPS  H11R 1522   3.497   3.778   4.272 -0.0583 -0.5061  0.8319
   12SAPS  C212 1523   3.702   3.777   4.322 -0.4777  0.4072 -0.1002
   12SAPS  H12R 1524   3.688   3.721   4.416 -1.4121  2.1998  0.8791
   12SAPS  C213 1525   3.849   3.818   4.292 -0.1553 -0.1228 -0.9597
   12SAPS  H13R 1526   3.852   3.928   4.299 -2.7876 -0.0497  0.2660
   12SAPS  H13S 1527   3.881   3.799   4.187  0.1776  2.2537 -1.3378
   12SAPS  C214 1528   3.941   3.756   4.398 -0.2812 -0.0767 -0.3030
   12SAPS  H14R 1529   3.899   3.671   4.453 -0.2037  0.7420  1.0598
   12SAPS  C215 1530   4.061   3.809   4.443  0.4663 -0.0572  0.2152
   12SAPS  H15R 1531   4.117   3.756   4.521 -1.0314 -2.7766 -0.4326
   12SAPS  C216 1532   4.134   3.921   4.381 -0.0772  0.9558 -0.5741
   12SAPS  H16R 1533   4.065   3.999   4.344 -2.0221  0.1049  1.0722
   12SAPS  H16S 1534   4.187   3.889   4.289 -1.6776 -0.0059 -1.1909
   12SAPS  C217 1535   4.241   3.983   4.478  0.6741 -0.3315  0.5951
   12SAPS  H17R 1536   4.330   3.919   4.498  1.5780  0.7605  0.1835
   12SAPS  H17S 1537   4.186   3.994   4.574 -0.5476  0.3248 -0.1661
   12SAPS  C218 1538   4.302   4.107   4.415 -0.0142 -0.1209 -0.2594
   12SAPS  H18R 1539   4.231   4.191   4.398 -1.2300 -1.4547 -2.2489
   12SAPS  H18S 1540   4.345   4.077   4.317  0.4916 -1.6582  0.3929
   12SAPS  C219 1541   4.421   4.147   4.505 -0.4425 -0.4634 -0.2987
   12SAPS  H19R 1542   4.489   4.221   4.457 -1.4780  0.2994 -0.6271
   12SAPS  H19S 1543   4.484   4.056   4.515 -0.3920 -0.3743  0.2086
   12SAPS  C220 1544   4.383   4.178   4.648  0.1140  0.0119  0.6315
   12SAPS  H20R 1545   4.473   4.219   4.698 -0.0032 -0.6648  1.4339
   12SAPS  H20S 1546   4.352   4.082   4.695  0.2611 -1.1604 -1.5552
   12SAPS  H20T 1547   4.298   4.250   4.655  0.3625  0.2226  1.6743
   12SAPS   C33 1548   3.345   4.513   3.381  0.5739  0.4960 -0.2085
   12SAPS   H3X 1549   3.243   4.530   3.340  1.5133  1.1498 -2.4425
   12SAPS   H3Y 1550   3.396   4.612   3.372  1.3002  0.3567  1.8875
   12SAPS   C34 1551   3.337   4.454   3.523 -0.3214  0.5086  0.1660
   12SAPS   H4X 1552   3.442   4.444   3.556  0.0934 -0.4656 -1.3557
   12SAPS   H4Y 1553   3.282   4.359   3.508 -1.2748  1.5043 -3.8773
   12SAPS   C35 1554   3.263   4.556   3.617  0.4350  0.2611 -0.3300
   12SAPS   H5X 1555   3.159   4.574   3.583 -0.1289  0.6857  1.5011
   12SAPS   H5Y 1556   3.312   4.656   3.613  1.9693 -0.4785 -0.7429
   12SAPS   C36 1557   3.269   4.522   3.767 -0.0313 -0.6440 -0.0853
   12SAPS   H6X 1558   3.210   4.434   3.802  0.4163 -0.3255  1.5939
   12SAPS   H6Y 1559   3.216   4.609   3.812  1.8862  0.0798  0.8787
   12SAPS   C37 1560   3.409   4.521   3.841  0.2339 -0.0372 -0.7408
   12SAPS   H7X 1561   3.448   4.624   3.824 -0.6797  0.4172 -0.1517
   12SAPS   H7Y 1562   3.479   4.445   3.802  2.0852  0.1765  1.9203
   12SAPS   C38 1563   3.401   4.494   3.992  0.1884 -0.0736 -0.2803
   12SAPS   H8X 1564   3.363   4.390   3.998 -0.3724 -0.0447 -2.4463
   12SAPS   H8Y 1565   3.328   4.561   4.042  1.4122  0.2923  1.0907
   12SAPS   C39 1566   3.530   4.509   4.072 -0.2544 -0.2515  0.8228
   12SAPS   H9X 1567   3.547   4.617   4.087  2.3509 -0.2150 -1.4767
   12SAPS   H9Y 1568   3.616   4.468   4.015  0.0500  0.7799  0.5141
   12SAPS  C310 1569   3.532   4.442   4.213 -0.2763  0.1386  0.6966
   12SAPS  H10X 1570   3.494   4.338   4.201 -0.0744  0.3683 -2.7112
   12SAPS  H10Y 1571   3.466   4.500   4.280 -1.4209 -1.6733  1.2190
   12SAPS  C311 1572   3.677   4.430   4.269 -0.0722  0.3000 -0.6734
   12SAPS  H11X 1573   3.738   4.520   4.245  0.9974 -0.4613 -0.8852
   12SAPS  H11Y 1574   3.724   4.338   4.227  0.4352  0.9987 -1.6786
   12SAPS  C312 1575   3.680   4.405   4.423 -0.4788 -0.1480  0.2137
   12SAPS  H12X 1576   3.587   4.353   4.454 -0.6662  1.1369  1.9421
   12SAPS  H12Y 1577   3.680   4.503   4.475  4.3247  1.6916 -2.5911
   12SAPS  C313 1578   3.798   4.327   4.472  0.6635 -0.1503  0.2750
   12SAPS  H13X 1579   3.880   4.349   4.400 -0.6088 -2.3000 -1.9669
   12SAPS  H13Y 1580   3.770   4.220   4.469  0.0065  0.0308 -1.3942
   12SAPS  C314 1581   3.840   4.365   4.618  0.0487 -0.0399  0.4217
   12SAPS  H14X 1582   3.760   4.359   4.695  0.2809  3.6731  1.1520
   12SAPS  H14Y 1583   3.874   4.471   4.616  0.3354 -0.1222  0.8516
   12SAPS  C315 1584   3.959   4.272   4.651  0.7607 -0.3961  0.7509
   12SAPS  H15X 1585   4.045   4.335   4.684  0.1735  1.5263 -1.1717
   12SAPS  H15Y 1586   3.994   4.221   4.558  1.4210  1.7602 -0.2378
   12SAPS  C316 1587   3.924   4.168   4.759 -0.0691 -0.6465 -0.0315
   12SAPS  H16X 1588   3.859   4.206   4.841  2.0309 -1.7064  2.2481
   12SAPS  H16Y 1589   4.014   4.142   4.817 -1.4568 -4.3778  0.7137
   12SAPS  C317 1590   3.874   4.030   4.709  0.8222 -0.2600  0.2112
   12SAPS  H17X 1591   3.900   4.024   4.602  1.5122 -2.1223  0.4465
   12SAPS  H17Y 1592   3.764   4.048   4.711  1.1536  2.1473 -0.2432
   12SAPS  C318 1593   3.923   3.909   4.790 -0.0152 -0.4976  0.1297
   12SAPS  H18X 1594   4.016   3.861   4.753 -0.0956  0.1594 -0.9650
   12SAPS  H18Y 1595   3.836   3.842   4.773 -2.0991  2.3266 -1.0596
   12SAPS  H18Z 1596   3.950   3.932   4.896  0.4800  0.1383 -0.1317
   13SAPS     N 1597   3.885   2.296   2.727 -0.1543 -0.5225  0.0521
   13SAPS   HN1 1598   3.930   2.356   2.656 -0.5270  1.4212  1.3639
   13SAPS   HN2 1599   3.819   2.353   2.784  2.5020  2.0078  0.8647
   13SAPS   HN3 1600   3.963   2.268   2.790 -1.0652  0.4154  1.6910
   13SAPS   C12 1601   3.817   2.180   2.665 -0.5943  0.2802  0.0951
   13SAPS  H12A 1602   3.761   2.132   2.744  0.1524 -0.5989  0.1049
   13SAPS   C13 1603   3.721   2.216   2.546 -0.0380  0.1836  0.2786
   13SAPS  O13A 1604   3.715   2.338   2.512 -0.0464  0.1523 -0.3014
   13SAPS  O13B 1605   3.645   2.133   2.498  0.2119 -0.4772 -0.2433
   13SAPS   C11 1606   3.929   2.075   2.612  0.2118  0.0308  0.6321
   13SAPS  H11A 1607   3.967   2.120   2.518 -1.4084  0.3277  0.0833
   13SAPS  H11B 1608   3.869   1.986   2.580 -0.9651  0.5301  1.3935
   13SAPS     P 1609   4.148   1.928   2.658  0.2219 -0.3731 -0.3890
   13SAPS   O13 1610   4.062   1.820   2.593 -0.0019 -0.2748 -0.1783
   13SAPS   O14 1611   4.262   1.975   2.581 -0.5172 -0.3823  0.5113
   13SAPS   O12 1612   4.042   2.041   2.698  0.2271  0.8974 -0.2188
   13SAPS   O11 1613   4.184   1.893   2.802 -0.4112 -0.1438  0.7024
   13SAPS    C1 1614   4.133   1.784   2.876 -0.5653 -0.1801 -0.1785
   13SAPS    HA 1615   4.132   1.698   2.805 -0.5655  1.7304 -2.6034
   13SAPS    HB 1616   4.205   1.762   2.957 -1.0861  1.5208  0.7949
   13SAPS    C2 1617   3.997   1.816   2.943  0.8107  1.0202 -0.3118
   13SAPS    HS 1618   3.918   1.846   2.871  0.3887  0.2504 -0.1746
   13SAPS   O21 1619   4.011   1.923   3.039 -0.3999 -0.0738 -0.0330
   13SAPS   C21 1620   3.925   2.025   3.042 -0.7907 -0.9414 -0.4544
   13SAPS   O22 1621   3.830   2.034   2.969  0.0628  0.3685 -0.7391
   13SAPS   C22 1622   3.968   2.116   3.154 -0.9226  0.0885  1.1884
   13SAPS   H2R 1623   3.998   2.049   3.237  1.4692 -0.7457 -0.2278
   13SAPS   H2S 1624   4.065   2.156   3.117 -0.1660 -3.1336 -0.7149
   13SAPS    C3 1625   3.946   1.689   3.012  0.0086  0.1905  0.6311
   13SAPS    HX 1626   3.949   1.615   2.930 -0.5209 -0.6175  1.3184
   13SAPS    HY 1627   3.843   1.709   3.048 -0.0827  2.2944 -0.6828
   13SAPS   O31 1628   4.041   1.645   3.119  0.2442  0.6115 -0.2270
   13SAPS   C31 1629   3.982   1.569   3.203 -0.2617 -1.0932 -0.5870
   13SAPS   O32 1630   3.867   1.525   3.196 -0.3499 -0.2365 -0.1682
   13SAPS   C32 1631   4.062   1.575   3.333 -0.9547  0.1493  0.6270
   13SAPS   H2X 1632   4.146   1.646   3.323  0.1020 -0.7587  2.5305
   13SAPS   H2Y 1633   4.102   1.472   3.342 -3.8005 -1.1840 -0.6906
   13SAPS   C23 1634   3.859   2.227   3.173  0.0802  0.3218 -0.7488
   13SAPS   H3R 1635   3.762   2.175   3.190 -0.2049  0.7103 -1.1861
   13SAPS   H3S 1636   3.843   2.281   3.078  0.6568  1.0276 -0.4530
   13SAPS   C24 1637   3.896   2.322   3.291  0.4817  0.3364 -0.5119
   13SAPS   H4R 1638   3.996   2.372   3.286 -0.0118  1.2286 -2.5092
   13SAPS   H4S 1639   3.893   2.262   3.384  0.7669 -2.0498 -1.9729
   13SAPS   C25 1640   3.801   2.441   3.298 -0.5262  0.1721  0.0180
   13SAPS   H5R 1641   3.792   2.494   3.201 -0.5414  0.3274  0.1044
   13SAPS   C26 1642   3.719   2.472   3.404 -0.3812  0.3300  0.0828
   13SAPS   H6R 1643   3.648   2.555   3.394 -0.3909  0.2522 -0.5092
   13SAPS   C27 1644   3.711   2.400   3.537 -0.6896  0.2881  0.3673
   13SAPS   H7R 1645   3.690   2.479   3.613 -1.3939  0.2844  0.1844
   13SAPS   H7S 1646   3.814   2.363   3.560 -1.2685 -0.2281  2.3551
   13SAPS   C28 1647   3.611   2.283   3.549 -0.1884 -0.1932 -0.5341
   13SAPS   H8R 1648   3.616   2.215   3.463 -0.2767  0.9659 -1.4901
   13SAPS   C29 1649   3.537   2.248   3.657  0.2003 -0.5137  0.1614
   13SAPS   H9R 1650   3.485   2.151   3.651 -2.2737  0.4603  3.1740
   13SAPS  C210 1651   3.525   2.327   3.791  0.2750  0.9814  0.8277
   13SAPS  H10R 1652   3.486   2.431   3.789 -0.1699  0.8249 -1.7554
   13SAPS  H10S 1653   3.629   2.341   3.830  1.2364 -1.5460 -0.6201
   13SAPS  C211 1654   3.439   2.251   3.883  0.0702  0.2572 -0.4828
   13SAPS  H11R 1655   3.394   2.158   3.845  0.1551 -0.2188  0.5349
   13SAPS  C212 1656   3.433   2.263   4.019  0.0250 -0.1226 -0.3754
   13SAPS  H12R 1657   3.374   2.184   4.066 -3.3557  1.0312 -2.3657
   13SAPS  C213 1658   3.516   2.348   4.112 -0.0603 -0.3285  0.2253
   13SAPS  H13R 1659   3.463   2.352   4.209 -1.7247  2.6221 -0.6757
   13SAPS  H13S 1660   3.515   2.451   4.070  1.1044  0.6300  2.3816
   13SAPS  C214 1661   3.664   2.302   4.112  0.2607 -0.4714 -0.0816
   13SAPS  H14R 1662   3.703   2.271   4.014  0.4345 -0.4162 -0.0302
   13SAPS  C215 1663   3.747   2.311   4.215  0.3378 -0.1546 -0.7055
   13SAPS  H15R 1664   3.849   2.273   4.200 -0.1137 -1.3546 -0.7794
   13SAPS  C216 1665   3.713   2.354   4.357 -0.2441  0.3060  0.3251
   13SAPS  H16R 1666   3.681   2.268   4.420 -2.3380  1.4358  0.8798
   13SAPS  H16S 1667   3.627   2.424   4.360 -0.3496  0.1646  3.2057
   13SAPS  C217 1668   3.822   2.430   4.428 -0.0645 -0.1185  0.3605
   13SAPS  H17R 1669   3.777   2.476   4.518 -0.9361 -1.0713  0.4343
   13SAPS  H17S 1670   3.860   2.511   4.362  0.3793 -0.0056  0.7473
   13SAPS  C218 1671   3.945   2.348   4.451  0.4447 -0.0447  0.6869
   13SAPS  H18R 1672   3.985   2.316   4.353 -1.3246  0.2567 -0.1683
   13SAPS  H18S 1673   3.915   2.259   4.509 -1.7499  0.9339  1.1588
   13SAPS  C219 1674   4.062   2.414   4.527 -0.1550  0.1472  0.7042
   13SAPS  H19R 1675   4.147   2.343   4.515  1.1313  1.6495  0.6405
   13SAPS  H19S 1676   4.034   2.405   4.634  0.9884 -0.1110  0.9959
   13SAPS  C220 1677   4.095   2.557   4.484 -0.6685 -0.3552  0.5442
   13SAPS  H20R 1678   4.004   2.619   4.474  0.1885  0.9115  0.3177
   13SAPS  H20S 1679   4.150   2.542   4.388  0.7520  0.8674  1.1288
   13SAPS  H20T 1680   4.159   2.619   4.551 -1.7210 -0.8471  2.0561
   13SAPS   C33 1681   3.987   1.606   3.455  0.0609 -0.0014 -0.3366
   13SAPS   H3X 1682   3.903   1.537   3.475 -1.0776  0.7884 -2.0812
   13SAPS   H3Y 1683   3.942   1.707   3.442  1.2649  0.3593 -2.1179
   13SAPS   C34 1684   4.081   1.638   3.571  0.1940 -0.7011  0.4252
   13SAPS   H4X 1685   4.139   1.730   3.547 -1.9340 -0.1269 -3.3261
   13SAPS   H4Y 1686   4.156   1.557   3.579  1.6466  0.7149  1.9740
   13SAPS   C35 1687   4.018   1.664   3.711 -0.5060 -0.0307 -0.2914
   13SAPS   H5X 1688   3.953   1.753   3.716 -0.6175 -0.0153 -1.6718
   13SAPS   H5Y 1689   4.107   1.685   3.773  0.0214  0.7301 -1.2724
   13SAPS   C36 1690   3.965   1.540   3.778  0.1038 -0.4460 -0.2072
   13SAPS   H6X 1691   4.041   1.460   3.770 -0.8677 -1.4952  0.8400
   13SAPS   H6Y 1692   3.877   1.506   3.720 -0.0568 -2.8805  1.3370
   13SAPS   C37 1693   3.910   1.572   3.924 -0.6043  0.5631  0.3814
   13SAPS   H7X 1694   3.832   1.647   3.897 -0.8182  0.4375  0.6489
   13SAPS   H7Y 1695   3.999   1.609   3.978  1.4483 -0.8823 -1.7983
   13SAPS   C38 1696   3.870   1.438   3.995  0.5170 -0.2499  0.5869
   13SAPS   H8X 1697   3.957   1.370   4.002  0.1805 -0.7058  0.4192
   13SAPS   H8Y 1698   3.794   1.395   3.925  1.6869 -1.0049 -0.2577
   13SAPS   C39 1699   3.831   1.467   4.137 -0.2291  0.4406 -0.1561
   13SAPS   H9X 1700   3.769   1.378   4.163  0.3230  0.5610  1.6916
   13SAPS   H9Y 1701   3.766   1.558   4.138 -0.2971  0.5120 -2.6709
   13SAPS  C310 1702   3.949   1.471   4.239  0.4412 -1.2306 -0.0339
   13SAPS  H10X 1703   4.011   1.557   4.208  1.6856 -1.9025  0.5136
   13SAPS  H10Y 1704   4.012   1.380   4.224 -0.5456 -1.5813 -2.5193
   13SAPS  C311 1705   3.884   1.484   4.379  0.1909 -0.3113 -0.4877
   13SAPS  H11X 1706   3.813   1.400   4.385 -2.2433  1.6470 -0.1115
   13SAPS  H11Y 1707   3.840   1.586   4.383  0.4962 -0.2143  0.6621
   13SAPS  C312 1708   3.995   1.468   4.485  0.1182  0.5724  0.2856
   13SAPS  H12X 1709   4.081   1.528   4.447 -0.6509  0.4978 -1.6697
   13SAPS  H12Y 1710   4.023   1.361   4.494 -0.6302  0.4585  1.4542
   13SAPS  C313 1711   3.961   1.530   4.618  0.8267 -0.6353  0.3280
   13SAPS  H13X 1712   3.861   1.491   4.649  0.1862  0.8530  0.2034
   13SAPS  H13Y 1713   3.947   1.640   4.615 -0.1876 -0.7640 -0.4069
   13SAPS  C314 1714   4.066   1.496   4.725 -0.1371 -0.7566 -0.2352
   13SAPS  H14X 1715   4.171   1.515   4.695 -0.5495  1.6088 -0.3662
   13SAPS  H14Y 1716   4.049   1.389   4.750  0.5003 -1.0577 -1.0814
   13SAPS  C315 1717   4.034   1.570   4.850 -0.1112 -0.3534  0.0182
   13SAPS  H15X 1718   4.078   1.510   4.934 -0.4147  0.0829  0.4916
   13SAPS  H15Y 1719   3.927   1.553   4.872  0.1831 -0.6219  1.3440
   13SAPS  C316 1720   4.071   1.715   4.867 -0.0339 -0.6382 -0.4054
   13SAPS  H16X 1721   3.977   1.775   4.865 -0.3018 -1.0557 -0.2769
   13SAPS  H16Y 1722   4.135   1.747   4.781 -0.5006  2.1440  0.1808
   13SAPS  C317 1723   4.147   1.740   5.001 -0.2452 -0.1503  0.2701
   13SAPS  H17X 1724   4.181   1.846   4.999  2.2538 -0.7976  2.4255
   13SAPS  H17Y 1725   4.240   1.679   5.008 -1.1482 -1.3952  2.0611
   13SAPS  C318 1726   4.059   1.718   5.125 -0.8351  0.1574  0.2139
   13SAPS  H18X 1727   3.959   1.766   5.135 -0.8280 -0.0962  1.6111
   13SAPS  H18Y 1728   4.119   1.742   5.216  2.7929 -1.4386 -1.5317
   13SAPS  H18Z 1729   4.047   1.608   5.133 -0.5398 -0.0614 -1.8653
   14SAPS     N 1730   1.702   3.400   2.385  0.2398 -0.3695 -0.1017
   14SAPS   HN1 1731   1.729   3.412   2.484  2.4904  2.0175 -0.9145
   14SAPS   HN2 1732   1.723   3.489   2.337  0.9410  0.1936  1.2144
   14SAPS   HN3 1733   1.599   3.385   2.388 -0.2332  1.9763 -1.9551
   14SAPS   C12 1734   1.755   3.277   2.322 -0.2116  0.0156 -0.3575
   14SAPS  H12A 1735   1.714   3.281   2.222 -1.8911  1.3234  0.3195
   14SAPS   C13 1736   1.911   3.282   2.316 -0.6498  0.3106  0.6544
   14SAPS  O13A 1737   1.981   3.367   2.377 -0.0159  0.0063  0.3715
   14SAPS  O13B 1738   1.978   3.195   2.254  0.1720  0.1663 -0.2899
   14SAPS   C11 1739   1.704   3.148   2.394  0.8496 -0.2871  0.0605
   14SAPS  H11A 1740   1.749   3.137   2.495 -2.5805 -1.3196  1.6176
   14SAPS  H11B 1741   1.741   3.067   2.327 -3.4436 -1.3843 -1.2922
   14SAPS     P 1742   1.487   3.016   2.447  0.0108 -0.3641 -0.0419
   14SAPS   O13 1743   1.352   3.051   2.489  0.3140  0.2194 -0.7509
   14SAPS   O14 1744   1.497   2.918   2.338 -0.5622 -0.1691 -0.2897
   14SAPS   O12 1745   1.560   3.150   2.413  0.3189  0.3573 -0.4988
   14SAPS   O11 1746   1.579   2.981   2.571  0.5342  0.4328 -0.3022
   14SAPS    C1 1747   1.563   2.858   2.641 -0.4282  0.1333  0.4587
   14SAPS    HA 1748   1.534   2.773   2.576 -0.3609 -1.3769  2.3254
   14SAPS    HB 1749   1.661   2.828   2.683 -0.4396 -0.1156  0.3084
   14SAPS    C2 1750   1.459   2.862   2.753 -0.2432  0.0742 -0.3221
   14SAPS    HS 1751   1.369   2.898   2.699  0.3339 -0.5858 -1.8013
   14SAPS   O21 1752   1.516   2.947   2.859  0.0311 -0.7890  0.1956
   14SAPS   C21 1753   1.420   3.029   2.914 -0.5727  0.6723 -0.9639
   14SAPS   O22 1754   1.303   3.025   2.883 -0.4622  0.4696 -0.3354
   14SAPS   C22 1755   1.477   3.134   3.003  0.1169 -0.0510 -0.1932
   14SAPS   H2R 1756   1.588   3.130   3.001  0.2092  1.7512 -1.1478
   14SAPS   H2S 1757   1.448   3.238   2.975  0.5817 -0.0340 -0.6251
   14SAPS    C3 1758   1.441   2.715   2.808 -0.0224  0.3455  0.8354
   14SAPS    HX 1759   1.544   2.681   2.830 -0.2996 -0.9155  0.2448
   14SAPS    HY 1760   1.394   2.654   2.728 -1.0354  0.8763  1.0148
   14SAPS   O31 1761   1.357   2.714   2.925 -0.0707  0.3471 -0.0585
   14SAPS   C31 1762   1.225   2.697   2.906 -0.3319 -0.1910 -1.0575
   14SAPS   O32 1763   1.173   2.674   2.800 -0.2189  0.6853 -0.1708
   14SAPS   C32 1764   1.157   2.714   3.041  0.2030 -0.1302  0.1993
   14SAPS   H2X 1765   1.237   2.731   3.117 -0.2768  0.5524  0.5652
   14SAPS   H2Y 1766   1.110   2.619   3.076  1.3538 -0.1399  1.8570
   14SAPS   C23 1767   1.425   3.122   3.151 -0.1356  0.1627 -0.1289
   14SAPS   H3R 1768   1.498   3.157   3.227  0.4386 -1.2393 -0.0119
   14SAPS   H3S 1769   1.404   3.017   3.178 -0.2717  0.2380  0.0677
   14SAPS   C24 1770   1.296   3.211   3.168 -0.2446 -0.3776  0.1235
   14SAPS   H4R 1771   1.239   3.165   3.252 -0.2977 -0.5114  0.0159
   14SAPS   H4S 1772   1.221   3.202   3.086  0.2278  0.4274 -0.4007
   14SAPS   C25 1773   1.340   3.348   3.214 -0.1806  0.2822 -0.4790
   14SAPS   H5R 1774   1.348   3.431   3.143  2.8663  1.5870  1.2022
   14SAPS   C26 1775   1.363   3.379   3.345 -0.2570 -0.5898  0.0470
   14SAPS   H6R 1776   1.388   3.483   3.372  0.2929 -0.8099  0.3927
   14SAPS   C27 1777   1.353   3.279   3.459 -0.3093  0.1885  0.2640
   14SAPS   H7R 1778   1.461   3.253   3.472 -0.4829 -0.5650  0.2649
   14SAPS   H7S 1779   1.300   3.186   3.430  0.0143  0.3468 -0.8895
   14SAPS   C28 1780   1.290   3.332   3.585  0.0494 -0.0376 -0.0235
   14SAPS   H8R 1781   1.182   3.321   3.597  0.2853 -1.2757  1.1528
   14SAPS   C29 1782   1.357   3.396   3.683 -0.8470 -0.2411  1.0930
   14SAPS   H9R 1783   1.307   3.438   3.772 -1.4170  1.1610  0.1584
   14SAPS  C210 1784   1.506   3.412   3.696 -0.8113 -0.5525 -0.2337
   14SAPS  H10R 1785   1.563   3.330   3.647 -1.8539 -1.7509  0.4836
   14SAPS  H10S 1786   1.534   3.397   3.802 -1.6621 -1.1084 -0.0752
   14SAPS  C211 1787   1.554   3.545   3.641  0.4157 -0.2406  0.3298
   14SAPS  H11R 1788   1.525   3.566   3.537  1.4094 -1.8667 -0.3027
   14SAPS  C212 1789   1.641   3.633   3.694 -0.2190  0.8174 -0.5564
   14SAPS  H12R 1790   1.679   3.722   3.641  1.3026  0.2283 -0.5239
   14SAPS  C213 1791   1.713   3.606   3.828  0.5202  0.0131  0.4358
   14SAPS  H13R 1792   1.814   3.651   3.817  0.8299 -0.5911  0.7376
   14SAPS  H13S 1793   1.723   3.496   3.836 -1.3857 -0.2460 -0.3902
   14SAPS  C214 1794   1.643   3.649   3.954 -0.2968  0.2791 -0.6075
   14SAPS  H14R 1795   1.539   3.681   3.939 -1.2027 -0.3898  3.1674
   14SAPS  C215 1796   1.691   3.647   4.075 -0.4487 -0.3579 -0.2999
   14SAPS  H15R 1797   1.626   3.668   4.161  0.1907  0.9614 -0.1125
   14SAPS  C216 1798   1.830   3.611   4.108 -0.0396 -0.0355  0.4814
   14SAPS  H16R 1799   1.880   3.687   4.171 -2.3438  2.5496 -0.6076
   14SAPS  H16S 1800   1.897   3.615   4.019 -1.9300  0.4296 -0.9987
   14SAPS  C217 1801   1.842   3.472   4.177 -0.0548  0.8857  0.7180
   14SAPS  H17R 1802   1.937   3.418   4.157 -1.3047 -1.1413 -0.0967
   14SAPS  H17S 1803   1.756   3.412   4.140 -0.4924  1.4485  0.8094
   14SAPS  C218 1804   1.835   3.475   4.332  0.0783  0.3287 -0.1935
   14SAPS  H18R 1805   1.732   3.514   4.349  0.4802  0.9382  0.9371
   14SAPS  H18S 1806   1.913   3.546   4.365  2.6875 -2.5293  0.2006
   14SAPS  C219 1807   1.850   3.340   4.384  0.4058 -0.0933  0.1160
   14SAPS  H19R 1808   1.945   3.301   4.342  0.8204  1.3141 -0.3085
   14SAPS  H19S 1809   1.782   3.265   4.339 -0.5704  1.0186 -0.3187
   14SAPS  C220 1810   1.849   3.328   4.533 -0.4993  0.7051 -0.3177
   14SAPS  H20R 1811   1.746   3.343   4.572 -0.2471 -1.0030  1.1381
   14SAPS  H20S 1812   1.909   3.412   4.577 -1.4987  0.9935  0.5357
   14SAPS  H20T 1813   1.890   3.237   4.581 -0.7962  0.5041 -0.4447
   14SAPS   C33 1814   1.051   2.831   3.047  0.4432 -1.0492  0.5298
   14SAPS   H3X 1815   0.991   2.832   2.954  0.0494 -2.5673  0.7392
   14SAPS   H3Y 1816   1.107   2.926   3.061 -2.0830  0.3613  1.8515
   14SAPS   C34 1817   0.961   2.835   3.172  0.4508  0.3848  0.3830
   14SAPS   H4X 1818   0.904   2.741   3.189 -1.0278  0.6565 -2.3553
   14SAPS   H4Y 1819   0.886   2.914   3.150  0.9160  0.4344 -1.1018
   14SAPS   C35 1820   1.039   2.876   3.300  0.4877 -0.6856  0.1298
   14SAPS   H5X 1821   1.073   2.979   3.280 -0.3067 -0.8170 -2.0887
   14SAPS   H5Y 1822   1.130   2.812   3.312  1.8115  0.6802 -2.0302
   14SAPS   C36 1823   0.966   2.877   3.438 -0.4441 -0.6102 -0.9536
   14SAPS   H6X 1824   0.933   2.773   3.457  0.9488 -0.6332  1.7899
   14SAPS   H6Y 1825   0.871   2.935   3.435 -0.0463  0.1601  0.3463
   14SAPS   C37 1826   1.053   2.912   3.558 -0.2813 -0.0598  0.2317
   14SAPS   H7X 1827   1.087   3.017   3.557 -0.5261  0.0201 -0.3420
   14SAPS   H7Y 1828   1.138   2.841   3.549 -0.8300 -0.7147  0.1137
   14SAPS   C38 1829   0.982   2.898   3.695 -0.3082 -0.5317  0.3482
   14SAPS   H8X 1830   0.960   2.792   3.720 -0.5243 -0.8839 -1.2675
   14SAPS   H8Y 1831   0.882   2.945   3.699  1.0422  2.5340  1.4180
   14SAPS   C39 1832   1.060   2.966   3.811  0.5622  0.9134 -0.2445
   14SAPS   H9X 1833   1.066   3.073   3.784 -1.3046  0.6051 -2.1051
   14SAPS   H9Y 1834   1.159   2.915   3.807 -0.2038 -0.6694  0.0447
   14SAPS  C310 1835   0.995   2.933   3.942  0.1139 -0.3696  0.2855
   14SAPS  H10X 1836   0.960   2.828   3.948  0.0846 -0.3178  1.2847
   14SAPS  H10Y 1837   0.902   2.989   3.967 -0.1472 -0.9379  0.6273
   14SAPS  C311 1838   1.085   2.944   4.065 -0.3936 -0.3566 -0.0344
   14SAPS  H11X 1839   1.133   3.044   4.062  0.7290 -0.8240  1.2213
   14SAPS  H11Y 1840   1.161   2.866   4.044 -0.4426 -0.2305 -0.7094
   14SAPS  C312 1841   1.013   2.905   4.192  0.5049 -0.2107  0.2285
   14SAPS  H12X 1842   1.015   2.795   4.179 -1.5243 -0.4562  1.4726
   14SAPS  H12Y 1843   0.904   2.927   4.189  0.6643  0.5320 -0.9611
   14SAPS  C313 1844   1.072   2.943   4.327  0.4790 -0.2543  0.4455
   14SAPS  H13X 1845   1.183   2.940   4.330  0.6236  2.1514  0.0608
   14SAPS  H13Y 1846   1.048   2.862   4.399  0.3952 -1.4208 -0.8538
   14SAPS  C314 1847   1.014   3.073   4.392 -0.2642  0.0950  0.6362
   14SAPS  H14X 1848   0.910   3.072   4.353 -0.6939 -2.4778  1.6371
   14SAPS  H14Y 1849   1.067   3.166   4.364  0.3277 -0.6232 -0.7508
   14SAPS  C315 1850   0.992   3.055   4.541  0.7007 -0.4659  0.5305
   14SAPS  H15X 1851   1.093   3.027   4.578  2.0758  1.4734 -1.4810
   14SAPS  H15Y 1852   0.932   2.964   4.563 -1.6563 -0.2635 -3.9317
   14SAPS  C316 1853   0.923   3.178   4.606 -0.9732  0.4147  0.1536
   14SAPS  H16X 1854   0.829   3.213   4.558 -0.4282 -1.1271 -2.1768
   14SAPS  H16Y 1855   0.999   3.259   4.601  0.1753 -0.6944 -0.6661
   14SAPS  C317 1856   0.913   3.157   4.763  0.5636 -0.4296 -0.0074
   14SAPS  H17X 1857   1.007   3.108   4.797  0.3627 -1.0463 -0.3377
   14SAPS  H17Y 1858   0.839   3.082   4.798  0.3769 -0.3658 -0.2668
   14SAPS  C318 1859   0.877   3.288   4.834 -0.5863 -0.6632 -0.1766
   14SAPS  H18X 1860   0.768   3.301   4.813 -0.2037 -0.0718 -1.8969
   14SAPS  H18Y 1861   0.937   3.375   4.802 -2.2182  0.2952 -0.7821
   14SAPS  H18Z 1862   0.887   3.271   4.944  0.9384  0.1527 -0.1651
   15SAPS     N 1863   3.303   3.138   2.409  0.4364 -0.0761 -0.5555
   15SAPS   HN1 1864   3.268   3.159   2.313 -0.5201 -0.5540 -0.3280
   15SAPS   HN2 1865   3.339   3.225   2.451 -0.3022  0.4543 -0.9929
   15SAPS   HN3 1866   3.369   3.058   2.421  0.2172 -0.4147 -1.4884
   15SAPS   C12 1867   3.175   3.108   2.497 -0.0700 -0.1463  1.0216
   15SAPS  H12A 1868   3.108   3.191   2.478 -1.7831 -1.6255  0.3113
   15SAPS   C13 1869   3.104   2.977   2.468 -1.1383  1.0772 -0.8656
   15SAPS  O13A 1870   3.152   2.900   2.380  0.5237  0.5762 -0.7207
   15SAPS  O13B 1871   3.009   2.932   2.545 -0.1817 -0.8425 -0.3010
   15SAPS   C11 1872   3.226   3.102   2.639 -0.3481 -1.1480 -0.0604
   15SAPS  H11A 1873   3.316   3.038   2.648  1.8976  1.9984  2.7717
   15SAPS  H11B 1874   3.160   3.056   2.716  2.2222 -1.1971  2.2438
   15SAPS     P 1875   3.360   3.266   2.800 -0.0460  0.1535 -0.2614
   15SAPS   O13 1876   3.497   3.216   2.774  1.1589 -0.2703  0.1461
   15SAPS   O14 1877   3.346   3.409   2.834 -0.1455  0.7765  0.0592
   15SAPS   O12 1878   3.263   3.238   2.676 -0.4704  0.3059  0.0635
   15SAPS   O11 1879   3.288   3.183   2.914 -0.0966  0.3512  0.1710
   15SAPS    C1 1880   3.344   3.058   2.951 -0.6964  0.1407 -1.4025
   15SAPS    HA 1881   3.360   2.986   2.867 -1.2830 -1.1177 -0.4773
   15SAPS    HB 1882   3.446   3.068   2.993 -0.6749 -2.2683 -0.6933
   15SAPS    C2 1883   3.272   2.981   3.062  0.7283  0.2313  0.5968
   15SAPS    HS 1884   3.176   2.944   3.018  1.4264 -2.5699  1.1842
   15SAPS   O21 1885   3.244   3.075   3.170 -0.4959 -0.0505  0.5107
   15SAPS   C21 1886   3.161   3.024   3.257  0.1218 -0.8937  0.6784
   15SAPS   O22 1887   3.093   2.924   3.241 -0.1149 -0.1526 -0.3194
   15SAPS   C22 1888   3.168   3.117   3.378  0.0333 -0.5099  0.1949
   15SAPS   H2R 1889   3.277   3.120   3.400  0.4960  2.3583 -1.9258
   15SAPS   H2S 1890   3.132   3.219   3.350 -1.5387 -0.3363  2.5289
   15SAPS    C3 1891   3.356   2.861   3.098  0.3618  0.4374  0.9771
   15SAPS    HX 1892   3.369   2.800   3.006  2.8055  3.0937 -0.6251
   15SAPS    HY 1893   3.290   2.801   3.164  1.7169 -0.1123  1.8741
   15SAPS   O31 1894   3.477   2.901   3.164 -0.3447 -0.0902  0.6295
   15SAPS   C31 1895   3.563   2.801   3.176 -0.1301 -0.0176  0.7470
   15SAPS   O32 1896   3.542   2.683   3.147 -0.5537 -0.3378  0.1054
   15SAPS   C32 1897   3.689   2.850   3.249  0.9080  0.1048 -1.1363
   15SAPS   H2X 1898   3.703   2.782   3.335 -1.0307 -0.8655 -1.5527
   15SAPS   H2Y 1899   3.666   2.954   3.280 -1.1083 -0.0439 -2.0104
   15SAPS   C23 1900   3.090   3.074   3.500  0.7490  0.3772 -0.0570
   15SAPS   H3R 1901   3.104   2.966   3.521 -0.4784  0.6164  2.2443
   15SAPS   H3S 1902   2.982   3.082   3.477  1.2618  1.2554 -2.4635
   15SAPS   C24 1903   3.111   3.159   3.622  0.1675 -0.0851  0.1237
   15SAPS   H4R 1904   3.023   3.144   3.688  0.0959  1.3110  0.3885
   15SAPS   H4S 1905   3.106   3.266   3.590  2.5018  1.1603  3.3945
   15SAPS   C25 1906   3.244   3.148   3.688 -0.1944 -0.1271  0.1531
   15SAPS   H5R 1907   3.312   3.189   3.613 -0.9734 -1.6108 -1.4298
   15SAPS   C26 1908   3.283   3.087   3.805  0.1503  0.2259 -0.2134
   15SAPS   H6R 1909   3.385   3.116   3.835 -0.2496  1.4269  0.0501
   15SAPS   C27 1910   3.186   3.033   3.911  0.8223 -0.1087  0.4261
   15SAPS   H7R 1911   3.188   2.923   3.927  2.3825 -0.1185  0.3378
   15SAPS   H7S 1912   3.082   3.057   3.880  1.3207  2.1102  0.3568
   15SAPS   C28 1913   3.218   3.113   4.030  0.5000  0.2933 -0.3180
   15SAPS   H8R 1914   3.189   3.218   4.015 -0.7885 -0.1033 -0.8285
   15SAPS   C29 1915   3.269   3.064   4.144 -0.0857  0.1575 -0.0679
   15SAPS   H9R 1916   3.292   3.136   4.223 -1.2624 -0.3548  0.7655
   15SAPS  C210 1917   3.304   2.922   4.171 -0.1775  0.6169  0.1956
   15SAPS  H10R 1918   3.228   2.849   4.137  2.0648 -1.8132  0.0562
   15SAPS  H10S 1919   3.309   2.909   4.282  0.5068 -3.1827 -0.1530
   15SAPS  C211 1920   3.430   2.867   4.105  0.0397  0.6093 -0.0228
   15SAPS  H11R 1921   3.426   2.869   3.995 -0.8593 -2.3398 -0.1396
   15SAPS  C212 1922   3.542   2.823   4.165 -0.6438 -0.3393  0.5227
   15SAPS  H12R 1923   3.626   2.788   4.103 -1.3781 -0.2224 -0.5541
   15SAPS  C213 1924   3.570   2.801   4.316  0.2539 -0.6144  0.8366
   15SAPS  H13R 1925   3.630   2.708   4.328 -1.0027 -1.5791 -0.1222
   15SAPS  H13S 1926   3.478   2.783   4.376  0.3958  0.9848  1.6016
   15SAPS  C214 1927   3.648   2.914   4.375  0.0150 -0.1437 -0.1210
   15SAPS  H14R 1928   3.723   2.955   4.305 -1.2588  1.2789 -0.7028
   15SAPS  C215 1929   3.619   2.967   4.492  0.8505  0.6146  0.3355
   15SAPS  H15R 1930   3.680   3.051   4.527  1.7992  1.4401 -2.9540
   15SAPS  C216 1931   3.524   2.913   4.595  0.2348 -0.8757 -0.2233
   15SAPS  H16R 1932   3.464   2.823   4.569 -0.5866 -0.3717 -0.0973
   15SAPS  H16S 1933   3.449   2.991   4.620  1.1306 -0.3807  1.0370
   15SAPS  C217 1934   3.581   2.878   4.735 -0.1177 -0.2028  0.1296
   15SAPS  H17R 1935   3.631   2.965   4.782  0.4769  0.1638 -1.1373
   15SAPS  H17S 1936   3.664   2.804   4.728  1.7242  1.6531  1.1456
   15SAPS  C218 1937   3.475   2.826   4.833  0.6716 -0.1472  0.6454
   15SAPS  H18R 1938   3.428   2.728   4.806 -2.0055  1.1144  0.4324
   15SAPS  H18S 1939   3.392   2.897   4.849  0.9712 -0.2281  2.8392
   15SAPS  C219 1940   3.540   2.803   4.968 -0.4458 -0.5048 -0.0643
   15SAPS  H19R 1941   3.577   2.901   5.004  0.5881 -1.2860  1.0687
   15SAPS  H19S 1942   3.625   2.732   4.962  0.8341  0.9109  0.9071
   15SAPS  C220 1943   3.451   2.745   5.072 -0.6041 -0.3148 -0.6926
   15SAPS  H20R 1944   3.503   2.712   5.165 -0.6818  0.9972 -0.1644
   15SAPS  H20S 1945   3.386   2.664   5.033  0.3672 -1.0343 -0.8637
   15SAPS  H20T 1946   3.386   2.824   5.116 -0.1557  0.5576 -1.5750
   15SAPS   C33 1947   3.816   2.856   3.170 -0.4303 -0.0407  0.3169
   15SAPS   H3X 1948   3.796   2.936   3.095 -0.2719  0.3953  0.7327
   15SAPS   H3Y 1949   3.844   2.762   3.118 -0.6999 -0.4101  0.8309
   15SAPS   C34 1950   3.932   2.902   3.267  0.8476 -0.8068  0.7711
   15SAPS   H4X 1951   3.916   2.996   3.325  3.4267  0.2399 -0.0791
   15SAPS   H4Y 1952   4.024   2.905   3.205 -0.1767 -2.6971 -0.9540
   15SAPS   C35 1953   3.952   2.799   3.391 -0.2579 -0.3878 -0.7192
   15SAPS   H5X 1954   3.951   2.701   3.339  2.7248 -0.6209 -0.4893
   15SAPS   H5Y 1955   3.875   2.815   3.469  0.5588  0.3588 -0.0521
   15SAPS   C36 1956   4.092   2.817   3.453 -0.7422 -0.0825 -0.3375
   15SAPS   H6X 1957   4.103   2.916   3.503  0.7670 -0.7424  0.7300
   15SAPS   H6Y 1958   4.165   2.804   3.370 -1.7819  0.9618 -1.4500
   15SAPS   C37 1959   4.129   2.708   3.558  0.5508  0.3005 -0.0222
   15SAPS   H7X 1960   4.233   2.719   3.595  0.6025 -3.8666  1.5865
   15SAPS   H7Y 1961   4.127   2.611   3.506 -0.5199  0.7552 -0.8553
   15SAPS   C38 1962   4.040   2.705   3.686  0.6008 -0.3866 -0.2970
   15SAPS   H8X 1963   3.944   2.671   3.641  0.8493  0.7661 -1.7869
   15SAPS   H8Y 1964   4.027   2.808   3.725 -0.7358 -0.5222 -0.3338
   15SAPS   C39 1965   4.086   2.614   3.797 -0.2126 -0.1025 -0.8155
   15SAPS   H9X 1966   4.148   2.671   3.871  0.4318  0.5836 -1.8598
   15SAPS   H9Y 1967   4.149   2.539   3.746  1.6705  0.5789  0.3891
   15SAPS  C310 1968   3.982   2.544   3.884  0.0023  0.2085  0.9933
   15SAPS  H10X 1969   3.938   2.459   3.829  0.3505  0.4605  0.3091
   15SAPS  H10Y 1970   3.908   2.626   3.893 -1.7007 -0.8462 -2.0143
   15SAPS  C311 1971   4.033   2.491   4.016  0.4623 -0.3514 -0.4904
   15SAPS  H11X 1972   3.959   2.416   4.050 -2.2288  2.0093 -0.7189
   15SAPS  H11Y 1973   4.039   2.571   4.093  1.8049 -0.8418 -0.0548
   15SAPS  C312 1974   4.165   2.409   4.004  0.0845  0.5402  0.0257
   15SAPS  H12X 1975   4.237   2.487   3.973  1.8673 -1.0896 -0.0951
   15SAPS  H12Y 1976   4.161   2.328   3.928  0.7219 -1.3939  1.9582
   15SAPS  C313 1977   4.203   2.334   4.134  0.1178  0.4649 -0.4539
   15SAPS  H13X 1978   4.152   2.238   4.157 -0.7169  1.2060  0.8987
   15SAPS  H13Y 1979   4.169   2.400   4.216  0.7770  1.3020 -0.8400
   15SAPS  C314 1980   4.352   2.321   4.153 -0.0313 -0.2261 -0.0946
   15SAPS  H14X 1981   4.374   2.284   4.255 -2.1932 -1.6602 -0.0715
   15SAPS  H14Y 1982   4.394   2.422   4.135  0.3263 -0.6401 -1.7877
   15SAPS  C315 1983   4.431   2.228   4.051  0.0095 -0.2227  0.1261
   15SAPS  H15X 1984   4.391   2.245   3.948  0.1502  3.4985  0.5501
   15SAPS  H15Y 1985   4.410   2.122   4.079  1.8926 -0.7501 -0.3326
   15SAPS  C316 1986   4.584   2.245   4.053  0.0150  0.3908 -0.3451
   15SAPS  H16X 1987   4.605   2.312   3.966 -0.8687  1.5613  0.3101
   15SAPS  H16Y 1988   4.633   2.149   4.025 -0.2694  0.5665 -1.5004
   15SAPS  C317 1989   4.655   2.276   4.185  0.6424 -0.3824  0.6126
   15SAPS  H17X 1990   4.635   2.378   4.224 -0.0294 -0.5006  0.5876
   15SAPS  H17Y 1991   4.764   2.271   4.163  0.3299 -1.1125 -0.9046
   15SAPS  C318 1992   4.633   2.172   4.295  0.0168 -0.0656  0.0067
   15SAPS  H18X 1993   4.716   2.099   4.282 -0.5265 -0.3801 -2.1624
   15SAPS  H18Y 1994   4.540   2.111   4.296 -1.5341  2.1561  0.9292
   15SAPS  H18Z 1995   4.633   2.219   4.396 -0.6722  2.3639 -1.0541
   16SAPS     N 1996   3.793   3.292   2.340  0.1928  0.9485  0.4043
   16SAPS   HN1 1997   3.712   3.281   2.276  0.6359  1.1535 -0.1966
   16SAPS   HN2 1998   3.753   3.293   2.436 -2.6245 -1.8758 -0.5493
   16SAPS   HN3 1999   3.839   3.382   2.318  0.6975  0.5115 -0.3906
   16SAPS   C12 2000   3.893   3.190   2.331 -0.3154  0.0707  0.0285
   16SAPS  H12A 2001   3.839   3.100   2.359 -1.3784  0.7218  0.1358
   16SAPS   C13 2002   3.944   3.164   2.190  0.2304 -0.6191  0.2654
   16SAPS  O13A 2003   3.919   3.241   2.088  0.0459  0.4561 -0.3305
   16SAPS  O13B 2004   4.020   3.067   2.175  0.0623  0.0445 -0.6717
   16SAPS   C11 2005   4.002   3.221   2.439 -0.3071 -0.1618  0.4659
   16SAPS  H11A 2006   4.064   3.128   2.435  1.9409  1.3153 -1.9918
   16SAPS  H11B 2007   3.957   3.243   2.538  0.6956 -2.7605  1.6003
   16SAPS     P 2008   4.076   3.473   2.446  0.1386  0.2785 -0.2463
   16SAPS   O13 2009   4.197   3.561   2.429 -0.3599 -0.0328 -0.0624
   16SAPS   O14 2010   3.958   3.522   2.371  0.1456  0.1176 -0.2251
   16SAPS   O12 2011   4.099   3.323   2.399 -0.4382  0.2564  0.4463
   16SAPS   O11 2012   4.033   3.456   2.593 -0.2893  0.6243  0.2196
   16SAPS    C1 2013   4.138   3.460   2.698 -0.1021 -0.5694  0.7544
   16SAPS    HA 2014   4.208   3.374   2.694  0.5496 -0.3407  4.2644
   16SAPS    HB 2015   4.187   3.560   2.694 -1.4186  0.0923  0.3068
   16SAPS    C2 2016   4.075   3.442   2.834  0.2860 -0.8130  0.1693
   16SAPS    HS 2017   4.050   3.334   2.839  0.7257 -1.1378 -2.7991
   16SAPS   O21 2018   3.952   3.520   2.852  0.3066 -0.7335 -0.0994
   16SAPS   C21 2019   3.840   3.461   2.826  0.2440  0.4846 -0.4032
   16SAPS   O22 2020   3.817   3.341   2.799 -0.1357  0.1429 -0.2076
   16SAPS   C22 2021   3.729   3.563   2.818  0.4420  0.6764  0.4159
   16SAPS   H2R 2022   3.771   3.663   2.844  2.2312 -0.7309  3.4852
   16SAPS   H2S 2023   3.691   3.565   2.714  1.3358 -0.5671  0.0438
   16SAPS    C3 2024   4.177   3.465   2.952 -0.9351 -0.7968 -0.2364
   16SAPS    HX 2025   4.200   3.572   2.969  1.6005 -1.0705 -1.4219
   16SAPS    HY 2026   4.275   3.421   2.923 -0.8056 -1.7030  1.4493
   16SAPS   O31 2027   4.125   3.405   3.068 -0.3795 -0.1950 -0.5126
   16SAPS   C31 2028   4.171   3.274   3.085 -0.5832  0.4462  0.3034
   16SAPS   O32 2029   4.237   3.210   3.005  0.0498 -0.8427  0.0874
   16SAPS   C32 2030   4.153   3.227   3.238  0.2021  0.1274  1.0010
   16SAPS   H2X 2031   4.197   3.125   3.247  0.7550  0.4939  2.7369
   16SAPS   H2Y 2032   4.044   3.239   3.254  0.5660  1.9341  2.4934
   16SAPS   C23 2033   3.611   3.529   2.914 -0.1396 -0.7171 -0.9147
   16SAPS   H3R 2034   3.597   3.420   2.930  1.2872 -0.8795 -0.6627
   16SAPS   H3S 2035   3.512   3.568   2.882 -2.4317 -1.6013  4.0532
   16SAPS   C24 2036   3.627   3.586   3.061 -0.4169 -0.5141 -0.4206
   16SAPS   H4R 2037   3.524   3.594   3.103 -0.2292 -2.1326  0.3897
   16SAPS   H4S 2038   3.652   3.694   3.047 -0.4214 -0.3921  0.4877
   16SAPS   C25 2039   3.725   3.509   3.146  0.4239  0.2249 -0.3792
   16SAPS   H5R 2040   3.826   3.508   3.103 -0.0229  2.1844 -1.5924
   16SAPS   C26 2041   3.693   3.433   3.252  0.4806 -0.5511  0.2040
   16SAPS   H6R 2042   3.773   3.394   3.317 -0.2858 -1.6369  0.5107
   16SAPS   C27 2043   3.552   3.412   3.304  0.8251 -0.2582 -0.1754
   16SAPS   H7R 2044   3.471   3.440   3.234  0.5640 -2.2866 -0.7485
   16SAPS   H7S 2045   3.536   3.462   3.402 -0.8799  0.4750 -0.7974
   16SAPS   C28 2046   3.536   3.267   3.318 -0.0676  0.2319  0.3115
   16SAPS   H8R 2047   3.489   3.222   3.229  0.6386 -1.4266  0.7340
   16SAPS   C29 2048   3.546   3.192   3.430 -0.0564  0.0229  0.5739
   16SAPS   H9R 2049   3.551   3.082   3.427  1.2962  0.0884 -0.9233
   16SAPS  C210 2050   3.584   3.252   3.568  0.0447  0.3345  0.3301
   16SAPS  H10R 2051   3.506   3.225   3.642 -1.0552  1.1602 -0.4911
   16SAPS  H10S 2052   3.590   3.362   3.581  1.2127  0.3347 -0.0805
   16SAPS  C211 2053   3.717   3.187   3.616 -0.2271 -0.2829 -0.4119
   16SAPS  H11R 2054   3.803   3.251   3.594  0.7147 -0.6201  2.0253
   16SAPS  C212 2055   3.738   3.072   3.686  0.0503 -0.0763 -0.0360
   16SAPS  H12R 2056   3.835   3.032   3.716  0.2461  0.9408  0.7277
   16SAPS  C213 2057   3.625   2.979   3.729  0.3441 -0.5175  0.7217
   16SAPS  H13R 2058   3.536   2.998   3.666  0.5424 -0.0748  0.5743
   16SAPS  H13S 2059   3.595   2.996   3.835  0.9866 -0.5904  0.9207
   16SAPS  C214 2060   3.659   2.835   3.718 -0.3495  0.5130 -1.1034
   16SAPS  H14R 2061   3.763   2.800   3.705  0.1399  0.4340  2.2640
   16SAPS  C215 2062   3.564   2.732   3.723 -0.1928  0.3550 -0.0541
   16SAPS  H15R 2063   3.599   2.629   3.706  2.5385  1.4093 -1.3856
   16SAPS  C216 2064   3.415   2.750   3.733  0.4015  0.0592  1.4375
   16SAPS  H16R 2065   3.378   2.844   3.780 -1.6790  0.8959 -1.5586
   16SAPS  H16S 2066   3.372   2.670   3.797 -0.1484 -0.7442  0.1075
   16SAPS  C217 2067   3.331   2.735   3.600 -0.0693 -0.1206  0.0114
   16SAPS  H17R 2068   3.362   2.817   3.532 -0.8345  0.9445  0.9142
   16SAPS  H17S 2069   3.223   2.750   3.621 -0.5205 -2.2111 -0.5546
   16SAPS  C218 2070   3.355   2.604   3.526 -0.0683  0.4748 -0.1277
   16SAPS  H18R 2071   3.324   2.519   3.590  0.6237  0.2153 -0.1189
   16SAPS  H18S 2072   3.465   2.609   3.510  0.0433 -0.5908  0.2207
   16SAPS  C219 2073   3.278   2.601   3.391 -0.7725  0.4691  0.1603
   16SAPS  H19R 2074   3.307   2.697   3.345  1.2214 -0.0631  0.2108
   16SAPS  H19S 2075   3.168   2.601   3.402 -0.9192 -1.5300 -0.7808
   16SAPS  C220 2076   3.307   2.478   3.305  0.0633 -0.2286  0.5577
   16SAPS  H20R 2077   3.417   2.463   3.305  0.1715  0.5510  0.1554
   16SAPS  H20S 2078   3.284   2.497   3.198 -0.9213 -0.2503  0.7585
   16SAPS  H20T 2079   3.260   2.382   3.338 -0.1466 -0.4423 -0.3450
   16SAPS   C33 2080   4.234   3.316   3.331 -0.6966 -0.5324  0.7015
   16SAPS   H3X 2081   4.217   3.425   3.315 -0.4327 -0.6660 -0.5537
   16SAPS   H3Y 2082   4.342   3.294   3.324 -0.3508  1.5236 -3.0261
   16SAPS   C34 2083   4.196   3.294   3.480  0.0294 -0.0785 -0.3741
   16SAPS   H4X 2084   4.087   3.313   3.493 -0.4248 -1.9853 -1.1402
   16SAPS   H4Y 2085   4.250   3.373   3.536 -2.1468  0.5121  1.0563
   16SAPS   C35 2086   4.248   3.162   3.543 -0.0523 -0.5942 -0.0990
   16SAPS   H5X 2087   4.357   3.170   3.564 -0.5600 -0.7808  3.2596
   16SAPS   H5Y 2088   4.234   3.088   3.461  0.8721 -1.4396  0.4749
   16SAPS   C36 2089   4.171   3.116   3.663  0.3420  0.0220  0.6600
   16SAPS   H6X 2090   4.222   3.025   3.701  1.1690  0.2487  0.1113
   16SAPS   H6Y 2091   4.069   3.087   3.628  1.8919 -3.0596 -1.7842
   16SAPS   C37 2092   4.177   3.229   3.770  0.2035 -1.1029 -0.7819
   16SAPS   H7X 2093   4.122   3.317   3.729  0.3010 -0.6467  0.0459
   16SAPS   H7Y 2094   4.281   3.264   3.789  0.4214 -2.1266 -0.0031
   16SAPS   C38 2095   4.114   3.190   3.906  0.8495  0.2479 -0.4453
   16SAPS   H8X 2096   4.011   3.150   3.892  1.3455 -1.9118  1.3598
   16SAPS   H8Y 2097   4.099   3.280   3.969 -2.4826 -0.1023 -0.5671
   16SAPS   C39 2098   4.187   3.078   3.980 -0.0170 -0.0884 -0.4989
   16SAPS   H9X 2099   4.293   3.104   4.000  0.3386 -0.0698 -2.2717
   16SAPS   H9Y 2100   4.179   2.988   3.916 -1.8337  0.1266 -0.6205
   16SAPS  C310 2101   4.118   3.050   4.113 -0.3378  0.2301 -0.3518
   16SAPS  H10X 2102   4.009   3.029   4.104 -0.6722  1.3401  0.8496
   16SAPS  H10Y 2103   4.127   3.141   4.176 -1.3167 -0.5222  0.9375
   16SAPS  C311 2104   4.175   2.925   4.169 -0.0692  0.4350  0.0434
   16SAPS  H11X 2105   4.279   2.939   4.204  0.0674  0.4702 -0.3735
   16SAPS  H11Y 2106   4.163   2.847   4.092  0.8667 -0.6907  1.0067
   16SAPS  C312 2107   4.095   2.888   4.298 -0.0473  1.0450 -0.3733
   16SAPS  H12X 2108   4.113   2.778   4.297 -0.3022  0.9610  1.5431
   16SAPS  H12Y 2109   3.988   2.890   4.267 -0.3817  0.8365  0.7287
   16SAPS  C313 2110   4.133   2.943   4.434 -0.0953 -0.3355 -0.6949
   16SAPS  H13X 2111   4.070   2.899   4.514  0.9790  1.0314  0.9656
   16SAPS  H13Y 2112   4.102   3.049   4.436  0.9200 -0.0407 -0.3435
   16SAPS  C314 2113   4.279   2.931   4.479  1.3551 -0.3971  0.3655
   16SAPS  H14X 2114   4.348   2.969   4.401  1.3524 -0.2708  0.4240
   16SAPS  H14Y 2115   4.306   2.824   4.494 -0.4274 -0.7744  1.0444
   16SAPS  C315 2116   4.292   3.001   4.619  0.1589 -0.5272  0.0923
   16SAPS  H15X 2117   4.198   2.976   4.673 -0.2288 -0.7370 -0.6701
   16SAPS  H15Y 2118   4.300   3.112   4.611  1.5613 -0.6624 -0.5948
   16SAPS  C316 2119   4.411   2.953   4.684  0.0963 -0.6976 -0.2228
   16SAPS  H16X 2120   4.504   2.998   4.644  0.3281 -0.8873  0.0932
   16SAPS  H16Y 2121   4.429   2.844   4.670  0.0123 -0.8080  0.5058
   16SAPS  C317 2122   4.422   2.982   4.836 -0.3954  0.3238  0.4153
   16SAPS  H17X 2123   4.436   3.090   4.857  0.3373  0.4173 -0.5245
   16SAPS  H17Y 2124   4.507   2.927   4.881 -0.8300 -1.9614 -1.3333
   16SAPS  C318 2125   4.295   2.931   4.911  0.1572 -0.6981  0.7688
   16SAPS  H18X 2126   4.305   2.929   5.021  0.3993 -0.8987  0.7466
   16SAPS  H18Y 2127   4.263   2.833   4.869  2.8881 -1.5540  0.4601
   16SAPS  H18Z 2128   4.222   3.013   4.894  0.1100 -1.0706 -1.0591
   17SAPS     N 2129   6.619   4.354   2.312  0.5901  0.5021 -0.1485
   17SAPS   HN1 2130   6.634   4.333   2.211 -0.6537  0.2103 -0.2871
   17SAPS   HN2 2131   6.521   4.335   2.340  1.2318 -2.2401  0.5634
   17SAPS   HN3 2132   6.640   4.455   2.326 -2.4605  1.0602  1.1519
   17SAPS   C12 2133   6.715   4.276   2.393  0.6356 -0.0269 -0.0447
   17SAPS  H12A 2134   6.672   4.176   2.398 -0.5315  0.3738 -1.3053
   17SAPS   C13 2135   6.850   4.242   2.322  0.4325 -0.1867 -0.9774
   17SAPS  O13A 2136   6.856   4.224   2.199  0.2619 -0.0597  0.3029
   17SAPS  O13B 2137   6.946   4.205   2.398  0.0816 -0.2111 -0.1858
   17SAPS   C11 2138   6.740   4.328   2.537 -0.3175 -0.4220 -0.6412
   17SAPS  H11A 2139   6.802   4.247   2.580  1.0743 -0.2195 -2.2038
   17SAPS  H11B 2140   6.643   4.326   2.591  0.8975 -0.4923  1.6696
   17SAPS     P 2141   6.762   4.559   2.646 -0.3933 -0.3947 -0.2064
   17SAPS   O13 2142   6.871   4.650   2.671  0.5099  0.3417  0.3768
   17SAPS   O14 2143   6.630   4.619   2.607  0.3818 -0.3005  0.1148
   17SAPS   O12 2144   6.800   4.450   2.537 -0.3129  0.3787 -0.0904
   17SAPS   O11 2145   6.742   4.480   2.782  0.4420 -0.3775 -0.4512
   17SAPS    C1 2146   6.857   4.430   2.860  0.4509 -0.3296 -0.0384
   17SAPS    HA 2147   6.900   4.338   2.815 -0.4400 -1.3105  1.0499
   17SAPS    HB 2148   6.937   4.507   2.873  0.0495  0.4625 -1.8470
   17SAPS    C2 2149   6.807   4.393   3.004 -0.8916  0.0105 -0.3724
   17SAPS    HS 2150   6.890   4.338   3.052 -1.7138 -0.3441  0.6738
   17SAPS   O21 2151   6.680   4.321   3.020  0.4090  0.2685  0.0032
   17SAPS   C21 2152   6.667   4.209   2.948 -0.2949 -0.6194 -0.4129
   17SAPS   O22 2153   6.753   4.146   2.894 -0.0009 -0.1676 -0.5117
   17SAPS   C22 2154   6.529   4.152   2.954 -0.4674  0.3069 -0.0837
   17SAPS   H2R 2155   6.460   4.215   2.893 -0.9216 -2.1775 -2.3397
   17SAPS   H2S 2156   6.536   4.055   2.899  1.7364  1.7665 -2.6260
   17SAPS    C3 2157   6.780   4.530   3.082  0.0663  0.7145  0.6870
   17SAPS    HX 2158   6.693   4.578   3.034  0.5185  2.2881  1.3763
   17SAPS    HY 2159   6.865   4.602   3.084  0.0885  0.7715 -0.7653
   17SAPS   O31 2160   6.734   4.492   3.220 -0.5095 -0.0885  0.2525
   17SAPS   C31 2161   6.837   4.474   3.299 -0.1515  0.5609 -0.2627
   17SAPS   O32 2162   6.953   4.466   3.265  0.1297 -0.3954  0.6171
   17SAPS   C32 2163   6.788   4.487   3.445  0.7975  0.1502  0.3003
   17SAPS   H2X 2164   6.712   4.407   3.455  0.6704  0.3147  0.6495
   17SAPS   H2Y 2165   6.743   4.587   3.460  3.4011  1.3230  0.9887
   17SAPS   C23 2166   6.452   4.131   3.086 -0.4503 -0.0302  0.3530
   17SAPS   H3R 2167   6.349   4.126   3.047  0.4655 -0.0778 -2.2381
   17SAPS   H3S 2168   6.466   4.223   3.147  3.2151  1.4587 -2.3384
   17SAPS   C24 2169   6.484   3.999   3.160  0.1442  0.1570 -0.3549
   17SAPS   H4R 2170   6.493   3.924   3.078  0.1502  0.4682 -0.6389
   17SAPS   H4S 2171   6.395   3.971   3.221  0.4747  1.9234  1.0254
   17SAPS   C25 2172   6.610   4.013   3.233 -0.3524  0.0784 -0.1918
   17SAPS   H5R 2173   6.701   3.981   3.179  0.6537 -0.8482  1.9380
   17SAPS   C26 2174   6.625   4.050   3.361  0.4570  0.7585  0.6204
   17SAPS   H6R 2175   6.729   4.042   3.397  1.8196  1.4444 -2.7496
   17SAPS   C27 2176   6.519   4.083   3.463 -0.3011 -0.5391  0.0420
   17SAPS   H7R 2177   6.418   4.112   3.425  0.4637 -0.8812 -2.4334
   17SAPS   H7S 2178   6.550   4.181   3.507  0.5876 -0.7786 -0.0391
   17SAPS   C28 2179   6.514   3.984   3.577  0.4555 -0.6539 -0.1208
   17SAPS   H8R 2180   6.509   3.880   3.541  1.2328 -1.1934  1.2960
   17SAPS   C29 2181   6.532   4.005   3.711 -0.0098  0.9192  0.0023
   17SAPS   H9R 2182   6.526   3.921   3.782 -2.1508  0.0584 -1.1248
   17SAPS  C210 2183   6.534   4.136   3.778 -0.9618 -0.3084 -0.7541
   17SAPS  H10R 2184   6.516   4.221   3.709  2.7387  0.9648 -0.3818
   17SAPS  H10S 2185   6.639   4.161   3.805 -1.4736  3.2785 -1.5572
   17SAPS  C211 2186   6.430   4.148   3.884  0.3577 -0.8386  0.1652
   17SAPS  H11R 2187   6.354   4.215   3.842  0.3991 -1.4330 -0.8888
   17SAPS  C212 2188   6.415   4.073   3.997 -0.0129 -0.0777  0.6223
   17SAPS  H12R 2189   6.330   4.101   4.061 -0.7199 -1.7520  0.4802
   17SAPS  C213 2190   6.512   3.971   4.051  0.0147  0.0873 -0.4037
   17SAPS  H13R 2191   6.616   3.998   4.023 -0.0019  0.3385 -0.2286
   17SAPS  H13S 2192   6.475   3.871   4.022 -2.8677  1.1933 -0.8829
   17SAPS  C214 2193   6.497   3.976   4.202 -0.8915 -0.3145 -0.2839
   17SAPS  H14R 2194   6.419   3.906   4.235  1.0672 -1.3400  2.5983
   17SAPS  C215 2195   6.593   4.017   4.292  0.2977  0.0077 -0.7370
   17SAPS  H15R 2196   6.577   4.004   4.400  2.4874 -1.2044 -0.4931
   17SAPS  C216 2197   6.719   4.083   4.267 -0.5988 -0.3392 -0.2506
   17SAPS  H16R 2198   6.719   4.096   4.156 -2.2967  3.0123  0.0201
   17SAPS  H16S 2199   6.801   4.015   4.300 -0.3130  1.7812  4.0654
   17SAPS  C217 2200   6.735   4.222   4.325  0.1880 -0.0702  0.5572
   17SAPS  H17R 2201   6.747   4.224   4.436 -1.1139 -1.0894  0.7476
   17SAPS  H17S 2202   6.653   4.291   4.295 -0.3444 -0.7622  0.3872
   17SAPS  C218 2203   6.865   4.293   4.283 -0.4020 -0.0211 -0.4520
   17SAPS  H18R 2204   6.945   4.231   4.327 -0.5395 -0.3574 -0.6715
   17SAPS  H18S 2205   6.858   4.393   4.331 -0.9045 -1.5601  2.9072
   17SAPS  C219 2206   6.877   4.318   4.132 -0.5203 -0.4099 -0.0655
   17SAPS  H19R 2207   6.781   4.360   4.095  0.8676  0.9505 -2.3562
   17SAPS  H19S 2208   6.878   4.217   4.086 -0.8826 -0.8147  0.8099
   17SAPS  C220 2209   6.994   4.406   4.093 -0.3358  0.0410 -0.4992
   17SAPS  H20R 2210   7.080   4.336   4.101 -1.1078 -0.7715  0.9462
   17SAPS  H20S 2211   6.992   4.493   4.162  1.4088  0.2451 -0.6411
   17SAPS  H20T 2212   6.996   4.456   3.994 -0.6748  1.7185  0.3067
   17SAPS   C33 2213   6.891   4.458   3.552  0.2980 -0.4441 -0.7134
   17SAPS   H3X 2214   6.854   4.494   3.650 -0.0262 -0.5359 -0.8010
   17SAPS   H3Y 2215   6.980   4.515   3.519 -1.6476  3.4596  0.1821
   17SAPS   C34 2216   6.911   4.303   3.573 -0.2320 -0.1671  0.3533
   17SAPS   H4X 2217   6.947   4.258   3.478  4.2501  0.6205  1.4180
   17SAPS   H4Y 2218   6.813   4.257   3.596 -0.2403 -0.8261 -0.9262
   17SAPS   C35 2219   7.022   4.253   3.667  0.0855 -0.8931 -0.4076
   17SAPS   H5X 2220   7.007   4.270   3.776  1.2342  1.7061 -0.5798
   17SAPS   H5Y 2221   7.109   4.318   3.642 -0.9493  0.9409  0.5400
   17SAPS   C36 2222   7.056   4.111   3.651 -0.6089 -0.2171 -0.4824
   17SAPS   H6X 2223   7.150   4.077   3.699  0.6929  1.2853 -1.8538
   17SAPS   H6Y 2224   7.073   4.093   3.542  1.2691 -0.7618 -0.1368
   17SAPS   C37 2225   6.949   4.012   3.700 -0.5544  0.2432  0.4357
   17SAPS   H7X 2226   6.989   3.909   3.688  3.2849  1.6065  0.2254
   17SAPS   H7Y 2227   6.856   4.018   3.639 -1.5327  0.2137  1.8776
   17SAPS   C38 2228   6.914   4.009   3.849 -0.4895 -0.1831 -0.8210
   17SAPS   H8X 2229   6.837   3.933   3.874 -1.1278  1.0382  1.1647
   17SAPS   H8Y 2230   6.854   4.102   3.867  1.3491  0.9720 -0.4019
   17SAPS   C39 2231   7.033   4.008   3.949  0.0749  0.4352  0.9799
   17SAPS   H9X 2232   6.979   4.029   4.044 -0.3957  0.2922  0.7490
   17SAPS   H9Y 2233   7.108   4.085   3.921 -0.6867  0.8171 -0.0504
   17SAPS  C310 2234   7.112   3.880   3.968 -0.2586 -0.5033  0.0376
   17SAPS  H10X 2235   7.153   3.836   3.874  2.7379  0.4305  0.8059
   17SAPS  H10Y 2236   7.039   3.816   4.021  0.6034 -2.7230 -1.3273
   17SAPS  C311 2237   7.228   3.905   4.069  0.0552 -0.0628 -0.5579
   17SAPS  H11X 2238   7.309   3.963   4.019 -0.0964 -0.2172 -0.9908
   17SAPS  H11Y 2239   7.269   3.805   4.094  1.7583  1.2778  2.5632
   17SAPS  C312 2240   7.175   3.973   4.195  0.0068  0.3606  0.2078
   17SAPS  H12X 2241   7.085   3.923   4.235  0.9636 -2.4053 -0.8513
   17SAPS  H12Y 2242   7.152   4.079   4.170  1.9843  1.0804  1.2291
   17SAPS  C313 2243   7.283   3.976   4.301 -0.0641 -0.5534  0.0513
   17SAPS  H13X 2244   7.386   3.990   4.264  0.0652 -2.5435 -0.4772
   17SAPS  H13Y 2245   7.276   3.877   4.353 -1.9368 -1.6342 -2.0720
   17SAPS  C314 2246   7.267   4.079   4.411 -0.1550 -0.6069 -0.2461
   17SAPS  H14X 2247   7.339   4.058   4.493  0.4027 -2.1912 -1.0992
   17SAPS  H14Y 2248   7.165   4.074   4.454 -1.0262  0.7125 -1.9919
   17SAPS  C315 2249   7.297   4.224   4.357  0.2709 -0.2949 -0.6273
   17SAPS  H15X 2250   7.225   4.253   4.277 -2.0191 -1.3111  0.9895
   17SAPS  H15Y 2251   7.397   4.222   4.307  0.7320 -2.1697  0.2802
   17SAPS  C316 2252   7.300   4.327   4.471 -0.4090 -0.5455 -0.5241
   17SAPS  H16X 2253   7.358   4.419   4.446 -0.1894 -0.3502  0.6203
   17SAPS  H16Y 2254   7.359   4.280   4.552  1.0851  0.9708 -0.6756
   17SAPS  C317 2255   7.160   4.366   4.525  0.0939  0.8616  0.3163
   17SAPS  H17X 2256   7.115   4.271   4.561  2.5005 -0.5044 -0.0515
   17SAPS  H17Y 2257   7.102   4.414   4.443  0.1545 -0.8331 -0.7606
   17SAPS  C318 2258   7.170   4.455   4.649 -0.6344  0.4946  0.8351
   17SAPS  H18X 2259   7.219   4.552   4.625 -3.1251  1.5652 -0.1739
   17SAPS  H18Y 2260   7.232   4.407   4.728 -0.5084 -0.7042  0.0244
   17SAPS  H18Z 2261   7.069   4.468   4.693 -0.8604 -0.2025  0.5350
   18SAPS     N 2262   5.659   4.463   6.855 -0.0344  0.3203 -0.3479
   18SAPS   HN1 2263   5.727   4.393   6.820  0.3245  1.5095 -2.1880
   18SAPS   HN2 2264   5.562   4.439   6.826 -0.7748  2.6320  0.0052
   18SAPS   HN3 2265   5.676   4.553   6.806  0.2740 -0.9899 -2.7926
   18SAPS   C12 2266   5.665   4.459   7.004 -0.7437  0.1308 -0.3364
   18SAPS  H12A 2267   5.579   4.516   7.034  1.1696  3.1576 -0.2174
   18SAPS   C13 2268   5.656   4.314   7.076  0.6414 -0.3255 -0.1942
   18SAPS  O13A 2269   5.630   4.215   7.005  0.7931  0.7656 -0.2657
   18SAPS  O13B 2270   5.629   4.317   7.199  0.1682  0.1231  0.2350
   18SAPS   C11 2271   5.793   4.527   7.057 -0.5364  0.2076 -0.1024
   18SAPS  H11A 2272   5.796   4.519   7.168  2.4935  0.3559 -0.1083
   18SAPS  H11B 2273   5.793   4.636   7.037 -0.7704  0.7862  2.6377
   18SAPS     P 2274   6.048   4.480   7.049 -0.0329 -0.3075 -0.0233
   18SAPS   O13 2275   6.082   4.624   7.063 -0.5130 -1.1168  0.8109
   18SAPS   O14 2276   6.045   4.396   7.170 -0.2927  0.3675 -0.0201
   18SAPS   O12 2277   5.902   4.469   6.989 -0.4792 -0.1781 -0.1404
   18SAPS   O11 2278   6.144   4.406   6.944 -0.1198  0.1200  0.4359
   18SAPS    C1 2279   6.076   4.328   6.841 -0.4724  0.7066  0.2933
   18SAPS    HA 2280   6.140   4.243   6.810 -0.2374  0.2454  1.9572
   18SAPS    HB 2281   5.983   4.287   6.884 -1.2999  1.3062 -0.8647
   18SAPS    C2 2282   6.059   4.408   6.714 -0.5086 -1.1364 -0.3650
   18SAPS    HS 2283   5.984   4.486   6.741  2.0351  0.7966  1.6484
   18SAPS   O21 2284   6.024   4.332   6.601  0.1689 -0.4453 -0.1627
   18SAPS   C21 2285   5.899   4.276   6.608  0.2120 -0.6470  0.9669
   18SAPS   O22 2286   5.829   4.288   6.703 -0.6795 -0.2859  0.1434
   18SAPS   C22 2287   5.877   4.184   6.495  0.0236  0.5288 -0.1465
   18SAPS   H2R 2288   5.843   4.248   6.411  0.1785  0.0320 -0.5887
   18SAPS   H2S 2289   5.970   4.129   6.472  1.3697  2.1276  1.2217
   18SAPS    C3 2290   6.190   4.479   6.676 -0.0871 -0.1204  0.1172
   18SAPS    HX 2291   6.249   4.387   6.658  0.1909 -0.0493  0.6515
   18SAPS    HY 2292   6.241   4.531   6.760 -0.1386  1.1168 -0.5903
   18SAPS   O31 2293   6.188   4.569   6.561  0.3122  0.1967  0.1711
   18SAPS   C31 2294   6.166   4.701   6.590  0.3211 -0.0844  0.0135
   18SAPS   O32 2295   6.113   4.737   6.694 -0.3437 -0.3785 -0.1179
   18SAPS   C32 2296   6.216   4.789   6.483 -0.7182 -0.5980 -0.5004
   18SAPS   H2X 2297   6.304   4.741   6.435  0.0235 -0.1348  0.3563
   18SAPS   H2Y 2298   6.261   4.875   6.536 -1.1314  0.8755 -2.4366
   18SAPS   C23 2299   5.757   4.090   6.525 -0.2815 -0.0853  0.4553
   18SAPS   H3R 2300   5.668   4.152   6.551 -0.4680 -0.3500  0.4549
   18SAPS   H3S 2301   5.791   4.027   6.610  1.5370 -0.0879 -0.2369
   18SAPS   C24 2302   5.724   4.015   6.403  0.6571 -0.1045  0.2327
   18SAPS   H4R 2303   5.821   3.976   6.367 -0.3932 -1.3892 -1.3414
   18SAPS   H4S 2304   5.694   4.095   6.332  0.9746 -0.2922 -0.1145
   18SAPS   C25 2305   5.611   3.909   6.425  0.3798 -0.2705 -0.3374
   18SAPS   H5R 2306   5.528   3.946   6.486  1.5817  1.0402  0.5604
   18SAPS   C26 2307   5.620   3.783   6.371 -0.0599 -0.2795 -0.3500
   18SAPS   H6R 2308   5.532   3.717   6.372 -0.2534 -0.0380 -1.0947
   18SAPS   C27 2309   5.740   3.740   6.296  0.0438  0.4495 -0.9316
   18SAPS   H7R 2310   5.824   3.730   6.367 -0.8706 -1.6088 -0.0486
   18SAPS   H7S 2311   5.768   3.818   6.222  0.3932 -1.4384 -2.8962
   18SAPS   C28 2312   5.736   3.606   6.227  0.1339  0.7622  0.4422
   18SAPS   H8R 2313   5.688   3.525   6.284 -1.4927 -0.1118 -2.0329
   18SAPS   C29 2314   5.792   3.576   6.109  0.0364  0.6199  0.5140
   18SAPS   H9R 2315   5.799   3.470   6.083  0.8025  1.3491 -2.7039
   18SAPS  C210 2316   5.852   3.663   6.010 -0.5033  0.1126  0.3882
   18SAPS  H10R 2317   5.865   3.764   6.055 -0.2259 -0.0645  0.7032
   18SAPS  H10S 2318   5.777   3.670   5.928  1.6556  2.7384 -1.5432
   18SAPS  C211 2319   5.987   3.623   5.951 -0.9634 -0.3251 -0.4066
   18SAPS  H11R 2320   6.061   3.587   6.024 -1.4587 -1.0210 -0.2433
   18SAPS  C212 2321   6.031   3.654   5.822 -0.7711 -0.0442  0.4331
   18SAPS  H12R 2322   6.132   3.618   5.797 -0.5516  0.7545  0.1435
   18SAPS  C213 2323   5.954   3.699   5.702  0.1042  0.3724  0.5857
   18SAPS  H13R 2324   6.017   3.754   5.629 -0.2603  0.8471  0.6253
   18SAPS  H13S 2325   5.878   3.768   5.746  1.2925  0.2860  2.9789
   18SAPS  C214 2326   5.870   3.593   5.630  0.1575  0.7098 -0.4484
   18SAPS  H14R 2327   5.774   3.570   5.680  0.7695 -1.2555 -0.0843
   18SAPS  C215 2328   5.924   3.512   5.533 -0.1331 -0.5883  0.1874
   18SAPS  H15R 2329   5.856   3.448   5.474 -0.7843 -1.5450  1.8735
   18SAPS  C216 2330   6.054   3.544   5.472 -0.0763 -0.4817 -0.1124
   18SAPS  H16R 2331   6.105   3.449   5.446 -2.0410 -1.0331 -2.1752
   18SAPS  H16S 2332   6.125   3.582   5.550 -0.4860 -0.8635  0.4534
   18SAPS  C217 2333   6.044   3.635   5.344 -0.0812 -0.1649 -0.6993
   18SAPS  H17R 2334   6.036   3.739   5.383 -1.2762 -0.8849  1.0878
   18SAPS  H17S 2335   5.959   3.620   5.274  0.8038  2.8712 -2.6237
   18SAPS  C218 2336   6.169   3.620   5.259 -1.0232  0.0045  0.2716
   18SAPS  H18R 2337   6.209   3.517   5.241 -0.9028 -0.5857  3.3468
   18SAPS  H18S 2338   6.257   3.650   5.320 -1.3604 -0.6630  1.1120
   18SAPS  C219 2339   6.162   3.692   5.122  0.2914 -0.2452  0.1649
   18SAPS  H19R 2340   6.121   3.794   5.138 -1.4791 -0.3423 -3.0730
   18SAPS  H19S 2341   6.093   3.625   5.067  1.5780  0.4680 -2.4718
   18SAPS  C220 2342   6.293   3.702   5.037 -0.6644  0.1821 -0.5834
   18SAPS  H20R 2343   6.374   3.752   5.093  1.8371 -2.6039 -1.4455
   18SAPS  H20S 2344   6.276   3.746   4.936 -0.8289 -1.2575 -1.2247
   18SAPS  H20T 2345   6.327   3.598   5.017 -1.3180 -0.0582 -0.4633
   18SAPS   C33 2346   6.114   4.836   6.375  0.6254 -0.2997  0.8119
   18SAPS   H3X 2347   6.098   4.944   6.399  2.8809 -0.0233  1.3519
   18SAPS   H3Y 2348   6.014   4.792   6.396 -0.1860  1.2058  0.2690
   18SAPS   C34 2349   6.145   4.817   6.225 -0.0332  0.0125  0.6458
   18SAPS   H4X 2350   6.249   4.852   6.207 -0.1266 -0.1412 -0.2377
   18SAPS   H4Y 2351   6.081   4.891   6.173 -1.6806 -1.2754  0.7614
   18SAPS   C35 2352   6.127   4.674   6.170  0.4605  0.0880  0.6268
   18SAPS   H5X 2353   6.174   4.603   6.241 -0.2528 -1.4536 -0.3661
   18SAPS   H5Y 2354   6.193   4.671   6.081  1.2876 -0.7115  1.2524
   18SAPS   C36 2355   5.979   4.650   6.124 -0.2330  0.0410 -0.0792
   18SAPS   H6X 2356   5.966   4.711   6.032  1.7698 -1.7130 -1.6366
   18SAPS   H6Y 2357   5.902   4.677   6.199  0.4647  0.5277  0.4834
   18SAPS   C37 2358   5.949   4.503   6.083  0.9083 -0.5422  0.5361
   18SAPS   H7X 2359   5.845   4.504   6.046  0.1364 -2.3317  2.4841
   18SAPS   H7Y 2360   5.955   4.433   6.169  0.6304  0.1727  1.1560
   18SAPS   C38 2361   6.039   4.459   5.970 -0.6015 -0.3031  0.5692
   18SAPS   H8X 2362   6.017   4.351   5.953 -1.5990 -0.4246  2.3698
   18SAPS   H8Y 2363   6.144   4.465   6.005 -1.5845  1.7464  3.5058
   18SAPS   C39 2364   6.030   4.537   5.835  0.0853 -0.0470  0.9942
   18SAPS   H9X 2365   6.131   4.581   5.817 -0.6279  1.2872  0.0805
   18SAPS   H9Y 2366   5.953   4.617   5.844 -0.4450 -0.6072  1.5174
   18SAPS  C310 2367   6.013   4.443   5.711  0.0528  0.2832 -0.4594
   18SAPS  H10X 2368   5.905   4.419   5.698  0.8185 -2.9930 -1.7352
   18SAPS  H10Y 2369   6.065   4.351   5.742  0.6567  0.6060 -0.5046
   18SAPS  C311 2370   6.075   4.481   5.581 -0.4921 -0.2067  0.2731
   18SAPS  H11X 2371   6.178   4.512   5.606 -0.3218  1.1812 -1.9564
   18SAPS  H11Y 2372   6.025   4.567   5.531  2.0323  1.1277 -0.0805
   18SAPS  C312 2373   6.082   4.360   5.478  0.7492  0.1050 -0.8521
   18SAPS  H12X 2374   6.065   4.271   5.542 -1.0886  1.4015  0.5465
   18SAPS  H12Y 2375   6.184   4.366   5.435  1.4746  0.0255  0.8120
   18SAPS  C313 2376   5.989   4.368   5.361  0.1572 -0.3841  0.7012
   18SAPS  H13X 2377   5.894   4.395   5.411 -1.2007 -0.3050 -1.7732
   18SAPS  H13Y 2378   5.968   4.268   5.317  1.7190 -0.7298  0.6749
   18SAPS  C314 2379   6.038   4.467   5.261 -1.4743 -0.5796  0.1822
   18SAPS  H14X 2380   6.138   4.440   5.222 -1.5342  1.8644 -1.8736
   18SAPS  H14Y 2381   6.060   4.564   5.311  1.8184 -1.7644  1.3021
   18SAPS  C315 2382   5.942   4.485   5.149 -0.5916 -0.3083 -0.3207
   18SAPS  H15X 2383   5.848   4.539   5.171 -0.5991  0.0696 -1.2283
   18SAPS  H15Y 2384   5.901   4.390   5.106 -1.7488  0.0670 -0.0889
   18SAPS  C316 2385   5.996   4.556   5.023 -0.3034  0.2266 -0.2974
   18SAPS  H16X 2386   6.026   4.654   5.068  0.2016 -1.8868  4.5808
   18SAPS  H16Y 2387   5.922   4.561   4.940  0.3468  0.9112 -0.8539
   18SAPS  C317 2388   6.129   4.493   4.963 -0.3366  0.4506  0.3615
   18SAPS  H17X 2389   6.214   4.468   5.030  1.1898  2.8708 -0.5796
   18SAPS  H17Y 2390   6.177   4.573   4.904  2.1914  0.0599  1.7397
   18SAPS  C318 2391   6.093   4.368   4.888 -0.2824  0.0007  0.6693
   18SAPS  H18X 2392   6.004   4.376   4.821  0.8076  2.1787 -0.6432
   18SAPS  H18Y 2393   6.094   4.284   4.960 -2.1835 -0.5416  0.1390
   18SAPS  H18Z 2394   6.183   4.347   4.826 -0.2005  1.7868  0.1311
   19SAPS     N 2395   2.965   5.674   2.503 -0.2044  0.1722 -0.2105
   19SAPS   HN1 2396   2.914   5.635   2.585  0.2782  1.1692  0.5884
   19SAPS   HN2 2397   2.936   5.624   2.416 -0.3562 -1.8764  0.9601
   19SAPS   HN3 2398   3.062   5.644   2.524  0.1044  1.2043 -0.1388
   19SAPS   C12 2399   2.944   5.824   2.499 -0.0529 -0.3485 -0.3547
   19SAPS  H12A 2400   3.022   5.861   2.435 -0.1428 -0.8597 -0.7717
   19SAPS   C13 2401   2.816   5.859   2.421 -0.2324 -0.1833  0.0895
   19SAPS  O13A 2402   2.734   5.769   2.374 -0.1618 -0.0908 -0.1412
   19SAPS  O13B 2403   2.811   5.979   2.384  0.5549 -0.0592 -0.2415
   19SAPS   C11 2404   2.962   5.889   2.643 -0.1035  0.3829 -0.6748
   19SAPS  H11A 2405   2.888   5.844   2.712 -2.1279  1.5699 -1.9459
   19SAPS  H11B 2406   2.941   5.998   2.630 -0.9696  0.0695 -2.1488
   19SAPS     P 2407   3.209   5.969   2.665  0.3756  0.1038 -0.2593
   19SAPS   O13 2408   3.321   5.936   2.754  0.6219  0.7004 -0.5124
   19SAPS   O14 2409   3.237   5.971   2.524 -0.4281 -0.1660  0.0791
   19SAPS   O12 2410   3.094   5.864   2.686  0.7499  0.0588  0.4007
   19SAPS   O11 2411   3.146   6.109   2.711  0.0877 -0.3873  0.1092
   19SAPS    C1 2412   3.210   6.234   2.713  0.1960  0.6381 -0.0246
   19SAPS    HA 2413   3.320   6.223   2.697  0.4806  1.3553  1.2936
   19SAPS    HB 2414   3.167   6.294   2.629  0.5063  0.6973 -0.1436
   19SAPS    C2 2415   3.184   6.313   2.846  0.3057  0.2818  0.2179
   19SAPS    HS 2416   3.252   6.401   2.850  0.0202  0.4636  2.0154
   19SAPS   O21 2417   3.207   6.216   2.957 -0.5514 -0.2459 -0.3707
   19SAPS   C21 2418   3.340   6.206   2.974 -0.1892  0.1673  0.6058
   19SAPS   O22 2419   3.429   6.272   2.921 -0.5593  0.5003  0.0470
   19SAPS   C22 2420   3.368   6.100   3.077  0.2675 -0.3498 -0.8230
   19SAPS   H2R 2421   3.275   6.081   3.135 -0.8602 -0.1515 -2.4716
   19SAPS   H2S 2422   3.395   6.015   3.010  1.5850 -0.0103 -0.7559
   19SAPS    C3 2423   3.036   6.364   2.855  0.7857  0.5346  1.1463
   19SAPS    HX 2424   2.977   6.271   2.837  0.1357  1.5104 -2.6384
   19SAPS    HY 2425   3.015   6.431   2.769  1.5671  0.8325  1.1786
   19SAPS   O31 2426   3.019   6.426   2.981 -0.3617 -0.1053  0.0947
   19SAPS   C31 2427   2.949   6.365   3.067 -0.6945  0.0875 -0.3759
   19SAPS   O32 2428   2.893   6.258   3.052 -0.0238  0.3911  0.0427
   19SAPS   C32 2429   2.935   6.466   3.183 -0.0083  0.1171  0.0271
   19SAPS   H2X 2430   3.002   6.552   3.168 -2.4970  2.2852  0.6054
   19SAPS   H2Y 2431   2.968   6.415   3.276 -0.2640  2.6658  1.6113
   19SAPS   C23 2432   3.502   6.128   3.151 -0.2261  0.6903 -0.3169
   19SAPS   H3R 2433   3.590   6.145   3.086  1.4375  1.7388  2.0409
   19SAPS   H3S 2434   3.528   6.031   3.200  1.7402  1.1265 -0.3961
   19SAPS   C24 2435   3.483   6.238   3.255 -0.9115  0.0074  0.6183
   19SAPS   H4R 2436   3.480   6.341   3.214 -2.3681 -0.1547  0.2367
   19SAPS   H4S 2437   3.580   6.242   3.308 -0.8567  2.0516  0.4147
   19SAPS   C25 2438   3.379   6.211   3.364  0.2378  0.3955 -0.5541
   19SAPS   H5R 2439   3.278   6.187   3.327  1.0556 -0.4913 -2.3248
   19SAPS   C26 2440   3.394   6.223   3.498  0.2746  0.2442  0.0356
   19SAPS   H6R 2441   3.308   6.185   3.555 -0.7228 -1.3306 -2.3399
   19SAPS   C27 2442   3.506   6.275   3.584 -0.3127  0.0814 -0.4323
   19SAPS   H7R 2443   3.476   6.323   3.680  0.1723  0.4561 -0.4686
   19SAPS   H7S 2444   3.549   6.362   3.531  0.1515  1.0948  1.5201
   19SAPS   C28 2445   3.608   6.168   3.615  0.4848 -0.0474 -0.2883
   19SAPS   H8R 2446   3.623   6.076   3.557 -0.5105  0.6040 -1.6406
   19SAPS   C29 2447   3.718   6.188   3.693 -0.4884 -0.4745  0.2040
   19SAPS   H9R 2448   3.790   6.105   3.701  0.2157  0.1009 -0.1461
   19SAPS  C210 2449   3.749   6.313   3.769 -0.3283  0.1992 -0.2628
   19SAPS  H10R 2450   3.792   6.264   3.859 -2.0191 -3.2106 -1.1496
   19SAPS  H10S 2451   3.654   6.357   3.807  0.6318  1.6167  0.5759
   19SAPS  C211 2452   3.841   6.403   3.693  0.9591  0.8147  0.2966
   19SAPS  H11R 2453   3.805   6.409   3.589  1.2812 -0.1356  0.1177
   19SAPS  C212 2454   3.949   6.473   3.740  0.3366 -0.3123 -0.3641
   19SAPS  H12R 2455   4.000   6.552   3.682  0.6936  1.0297  1.6752
   19SAPS  C213 2456   4.014   6.437   3.879  0.6497 -0.4683  0.6168
   19SAPS  H13R 2457   4.124   6.448   3.874  0.5988  0.5343  1.3088
   19SAPS  H13S 2458   3.995   6.329   3.897 -0.2394 -0.2397  1.1392
   19SAPS  C214 2459   3.951   6.518   3.992  0.2337  0.2841 -0.5399
   19SAPS  H14R 2460   3.859   6.574   3.969  0.5138  1.3419  0.8120
   19SAPS  C215 2461   3.995   6.514   4.121 -0.4724 -0.6282 -0.6386
   19SAPS  H15R 2462   3.953   6.581   4.197 -0.6579 -0.4520 -0.8943
   19SAPS  C216 2463   4.120   6.441   4.167  0.0682  0.8341 -0.7903
   19SAPS  H16R 2464   4.195   6.515   4.201  0.6267  1.7030 -3.6105
   19SAPS  H16S 2465   4.165   6.391   4.078 -1.4896 -2.1303 -0.0217
   19SAPS  C217 2466   4.106   6.336   4.284 -0.2276  0.1585 -0.3445
   19SAPS  H17R 2467   4.060   6.392   4.368 -0.6213 -0.5186 -0.1067
   19SAPS  H17S 2468   4.205   6.303   4.322  0.0233  0.1809 -0.9714
   19SAPS  C218 2469   4.011   6.219   4.255  0.3640  1.0982  0.0729
   19SAPS  H18R 2470   3.916   6.266   4.222 -0.0381 -0.4258 -1.0804
   19SAPS  H18S 2471   3.996   6.160   4.347  2.6407  2.6632  1.5703
   19SAPS  C219 2472   4.062   6.124   4.145 -0.5831 -0.4507  0.8292
   19SAPS  H19R 2473   4.162   6.082   4.172 -0.3590  0.2412  1.1096
   19SAPS  H19S 2474   4.070   6.181   4.050 -1.3930  0.0481  1.0523
   19SAPS  C220 2475   3.969   6.010   4.119 -0.5413  0.3993  0.3679
   19SAPS  H20R 2476   3.878   6.048   4.069  0.6332  1.2388 -1.2325
   19SAPS  H20S 2477   3.947   5.950   4.210  1.2071 -1.1491 -0.1439
   19SAPS  H20T 2478   4.026   5.939   4.055 -1.2290 -0.4818  0.7032
   19SAPS   C33 2479   2.794   6.535   3.202 -0.2258  0.7699  0.3517
   19SAPS   H3X 2480   2.711   6.467   3.177 -0.8231  1.3769  0.6588
   19SAPS   H3Y 2481   2.784   6.617   3.128  2.7532 -0.8083 -2.0211
   19SAPS   C34 2482   2.769   6.586   3.344 -0.3038  0.0430 -0.6418
   19SAPS   H4X 2483   2.844   6.666   3.364  1.8158 -1.4945 -2.0362
   19SAPS   H4Y 2484   2.806   6.498   3.400  3.3348  1.0313 -1.1835
   19SAPS   C35 2485   2.632   6.630   3.388  0.1927  0.8632  0.1438
   19SAPS   H5X 2486   2.555   6.561   3.347 -1.5375  2.9277 -0.2759
   19SAPS   H5Y 2487   2.606   6.729   3.345 -0.7494  0.7777  0.4817
   19SAPS   C36 2488   2.624   6.623   3.544  0.4045  0.3890 -0.3388
   19SAPS   H6X 2489   2.662   6.522   3.574 -0.0796  0.0805 -0.7532
   19SAPS   H6Y 2490   2.515   6.633   3.560  0.0333 -1.1162 -1.5987
   19SAPS   C37 2491   2.704   6.735   3.609  0.2009 -0.0434 -0.4288
   19SAPS   H7X 2492   2.665   6.836   3.585  2.4024  0.6099 -1.5905
   19SAPS   H7Y 2493   2.812   6.737   3.581  0.5595 -3.7720  0.1561
   19SAPS   C38 2494   2.710   6.725   3.764  0.0197 -0.1252  0.4455
   19SAPS   H8X 2495   2.748   6.624   3.790 -1.6381 -0.8035  0.3376
   19SAPS   H8Y 2496   2.604   6.735   3.796 -0.0277 -0.3658  0.3665
   19SAPS   C39 2497   2.793   6.839   3.825  0.6131 -0.0706 -0.3572
   19SAPS   H9X 2498   2.755   6.938   3.793  1.8603  0.6946  0.4724
   19SAPS   H9Y 2499   2.898   6.839   3.791  0.1124  1.3370 -2.0185
   19SAPS  C310 2500   2.795   6.838   3.978  0.2032  0.8264 -1.9001
   19SAPS  H10X 2501   2.693   6.831   4.022  1.0292  1.2738  0.2484
   19SAPS  H10Y 2502   2.844   6.928   4.022 -1.4300  0.4075  1.0718
   19SAPS  C311 2503   2.863   6.717   4.038  0.2134  0.2948  0.1632
   19SAPS  H11X 2504   2.936   6.676   3.965  0.5553  0.8957  0.1598
   19SAPS  H11Y 2505   2.787   6.638   4.057  0.9452 -0.3525  0.4439
   19SAPS  C312 2506   2.924   6.742   4.171  0.0063  0.1200  0.2476
   19SAPS  H12X 2507   2.848   6.749   4.253 -0.0497  2.2746  0.0722
   19SAPS  H12Y 2508   2.986   6.833   4.187 -0.7851  0.3786  2.1847
   19SAPS  C313 2509   3.019   6.629   4.200  1.4177 -0.1284 -0.1757
   19SAPS  H13X 2510   3.111   6.625   4.139  1.1266 -1.2353 -0.5649
   19SAPS  H13Y 2511   2.956   6.537   4.196 -1.3397  1.5120  1.6641
   19SAPS  C314 2512   3.076   6.638   4.351  0.6972  0.0612  0.9743
   19SAPS  H14X 2513   2.987   6.654   4.415  0.0406  0.4895 -0.0062
   19SAPS  H14Y 2514   3.148   6.722   4.359  0.0354  0.6991  0.4158
   19SAPS  C315 2515   3.136   6.507   4.396  0.0544  0.5147  0.1514
   19SAPS  H15X 2516   3.213   6.467   4.326  0.4092  0.6138  0.4857
   19SAPS  H15Y 2517   3.057   6.429   4.389 -1.8751  2.4747 -1.7661
   19SAPS  C316 2518   3.192   6.517   4.541 -0.3916  0.3995  0.1610
   19SAPS  H16X 2519   3.106   6.555   4.600 -0.0810 -1.6964  2.1491
   19SAPS  H16Y 2520   3.269   6.596   4.551 -0.7990  0.5865  2.5321
   19SAPS  C317 2521   3.238   6.379   4.593 -0.1706 -0.0701 -0.8068
   19SAPS  H17X 2522   3.305   6.332   4.518 -0.6230  0.3911 -1.5044
   19SAPS  H17Y 2523   3.151   6.313   4.613  0.7128 -0.7359  1.1809
   19SAPS  C318 2524   3.302   6.393   4.733  0.0952  0.4468  0.4417
   19SAPS  H18X 2525   3.380   6.472   4.735  0.8537 -0.1459 -2.1271
   19SAPS  H18Y 2526   3.352   6.300   4.767  0.5188 -0.0981 -1.5690
   19SAPS  H18Z 2527   3.215   6.403   4.803 -0.6858 -1.2229 -0.2309
   20SAPS     N 2528   4.919   0.213   2.276 -0.2062  0.5919 -0.3007
   20SAPS   HN1 2529   4.846   0.162   2.222  1.8141 -0.5899 -2.0146
   20SAPS   HN2 2530   4.916   0.316   2.260  0.4812  0.4589 -1.3818
   20SAPS   HN3 2531   5.013   0.175   2.254 -0.1320  0.4924  0.1865
   20SAPS   C12 2532   4.902   0.192   2.421 -0.2192 -0.1932 -0.5800
   20SAPS  H12A 2533   4.823   0.257   2.457 -1.2185 -0.4313 -2.1977
   20SAPS   C13 2534   4.881   0.046   2.465  0.1977 -0.2092  0.9306
   20SAPS  O13A 2535   4.856  -0.046   2.379  0.1871 -0.0169  0.0398
   20SAPS  O13B 2536   4.868   0.023   2.593 -0.0038  0.4911  0.3598
   20SAPS   C11 2537   5.037   0.241   2.491  0.4165  0.6674  0.5993
   20SAPS  H11A 2538   5.123   0.176   2.467 -0.3183 -0.2254  0.3303
   20SAPS  H11B 2539   5.018   0.221   2.598 -0.3150 -3.3352 -0.1286
   20SAPS     P 2540   5.187   0.455   2.440  0.3549 -0.0175 -0.1426
   20SAPS   O13 2541   5.280   0.361   2.376  0.2873  0.0435 -0.3233
   20SAPS   O14 2542   5.153   0.583   2.369 -0.3555 -0.3734  0.4555
   20SAPS   O12 2543   5.051   0.381   2.468 -0.3264 -0.4069  0.2771
   20SAPS   O11 2544   5.251   0.494   2.586  0.2688 -0.1928  0.1095
   20SAPS    C1 2545   5.164   0.554   2.683  0.3263 -0.2953  0.4144
   20SAPS    HA 2546   5.114   0.636   2.628  1.2798 -0.6334 -1.0121
   20SAPS    HB 2547   5.087   0.482   2.719 -0.8376  0.4624 -0.4990
   20SAPS    C2 2548   5.231   0.634   2.791  0.4996  0.2662 -0.5190
   20SAPS    HS 2549   5.309   0.705   2.756 -1.2008  2.9318  0.7898
   20SAPS   O21 2550   5.286   0.528   2.877 -0.5682 -0.2755  0.2209
   20SAPS   C21 2551   5.409   0.553   2.923  0.0276  1.2849 -0.0541
   20SAPS   O22 2552   5.486   0.637   2.881  0.2188 -0.7322 -0.3128
   20SAPS   C22 2553   5.441   0.459   3.045 -0.7342 -0.7036 -0.4022
   20SAPS   H2R 2554   5.343   0.417   3.075 -2.1868  1.2989 -2.0336
   20SAPS   H2S 2555   5.503   0.377   3.005  0.3129 -0.1676  0.0701
   20SAPS    C3 2556   5.120   0.715   2.871 -0.1051  0.4461  0.1321
   20SAPS    HX 2557   5.048   0.642   2.913 -0.0406  0.4047  0.1715
   20SAPS    HY 2558   5.060   0.775   2.799  1.5824  3.0461  0.7264
   20SAPS   O31 2559   5.175   0.801   2.974  0.0158  0.3717 -0.1523
   20SAPS   C31 2560   5.203   0.929   2.935 -1.0872  0.7962 -0.1495
   20SAPS   O32 2561   5.206   0.964   2.816  0.6099 -0.5355  0.1953
   20SAPS   C32 2562   5.260   1.012   3.052  0.4207 -0.4379  0.0116
   20SAPS   H2X 2563   5.213   1.110   3.032  0.0933 -0.2691  1.4982
   20SAPS   H2Y 2564   5.366   1.024   3.022 -0.0388 -1.5743 -2.2977
   20SAPS   C23 2565   5.511   0.530   3.167 -0.3094  0.5082  0.3132
   20SAPS   H3R 2566   5.591   0.603   3.142 -0.2049  0.1166 -0.5271
   20SAPS   H3S 2567   5.551   0.443   3.223  1.8129 -0.4369 -2.4140
   20SAPS   C24 2568   5.407   0.609   3.246  0.0486 -0.4693 -0.8185
   20SAPS   H4R 2569   5.334   0.678   3.198 -1.4655 -0.2761  1.5752
   20SAPS   H4S 2570   5.456   0.673   3.323  0.3595 -0.6486 -0.8647
   20SAPS   C25 2571   5.329   0.510   3.324 -0.6995 -0.6800 -0.0168
   20SAPS   H5R 2572   5.297   0.421   3.269 -0.8188 -0.0166 -1.0390
   20SAPS   C26 2573   5.314   0.502   3.458 -0.4132 -0.4380 -0.3523
   20SAPS   H6R 2574   5.254   0.420   3.500  0.7955 -1.0671  0.1847
   20SAPS   C27 2575   5.345   0.608   3.563  0.3658 -0.2278 -0.2069
   20SAPS   H7R 2576   5.269   0.585   3.641  0.2234 -1.5659 -0.7129
   20SAPS   H7S 2577   5.326   0.709   3.521 -2.2459  0.0111  1.3131
   20SAPS   C28 2578   5.485   0.602   3.623  0.9001  0.6723  0.3113
   20SAPS   H8R 2579   5.575   0.589   3.561  1.1317 -0.7645  0.9101
   20SAPS   C29 2580   5.522   0.591   3.754  0.7031 -0.1782 -0.2206
   20SAPS   H9R 2581   5.629   0.577   3.779  0.3373 -1.4043  0.7685
   20SAPS  C210 2582   5.420   0.596   3.868 -0.4119 -0.4355  0.6532
   20SAPS  H10R 2583   5.454   0.521   3.942 -0.4105 -2.6518 -1.4884
   20SAPS  H10S 2584   5.320   0.554   3.843 -0.7322 -1.2108  2.9560
   20SAPS  C211 2585   5.413   0.732   3.927  0.1721  0.6302 -0.3144
   20SAPS  H11R 2586   5.496   0.797   3.898  1.3671 -0.5283  0.4111
   20SAPS  C212 2587   5.312   0.783   3.997 -0.2174 -0.0426  0.3217
   20SAPS  H12R 2588   5.311   0.891   4.016 -0.2853 -0.1324  0.8560
   20SAPS  C213 2589   5.190   0.705   4.037 -0.2770 -0.3461 -0.2650
   20SAPS  H13R 2590   5.197   0.598   4.007  2.1161 -0.7655  1.4777
   20SAPS  H13S 2591   5.102   0.739   3.979 -0.9356 -2.9290 -0.8966
   20SAPS  C214 2592   5.151   0.707   4.189 -0.0601  0.1373 -0.4077
   20SAPS  H14R 2593   5.192   0.613   4.229  0.1990 -1.0452 -3.2261
   20SAPS  C215 2594   5.079   0.795   4.258 -0.2858  0.1599  0.1413
   20SAPS  H15R 2595   5.067   0.779   4.367 -0.9387 -1.6315 -0.1580
   20SAPS  C216 2596   5.024   0.923   4.193 -0.3222 -0.3656 -0.2161
   20SAPS  H16R 2597   5.063   0.946   4.091 -0.9891 -1.6369 -0.7816
   20SAPS  H16S 2598   5.058   1.015   4.245  0.7379  0.9262 -2.9963
   20SAPS  C217 2599   4.869   0.908   4.186  0.0017 -0.8119  0.4996
   20SAPS  H17R 2600   4.831   1.006   4.148  0.8890 -0.1494  1.2547
   20SAPS  H17S 2601   4.828   0.909   4.290  1.8176  0.7125  1.2694
   20SAPS  C218 2602   4.815   0.799   4.095  0.3281  0.4532  0.1334
   20SAPS  H18R 2603   4.859   0.703   4.130  2.5785  1.2750 -0.2815
   20SAPS  H18S 2604   4.863   0.812   3.996  1.0223 -0.1939  0.3741
   20SAPS  C219 2605   4.670   0.797   4.084  0.7026 -0.1821  0.8098
   20SAPS  H19R 2606   4.631   0.885   4.028 -0.6269 -1.5705 -0.5741
   20SAPS  H19S 2607   4.632   0.798   4.188  1.2520  1.3919  1.0080
   20SAPS  C220 2608   4.615   0.665   4.017  0.0547 -0.6296 -0.1421
   20SAPS  H20R 2609   4.510   0.681   3.986 -0.4684 -1.3737  1.1437
   20SAPS  H20S 2610   4.636   0.586   4.093  3.8445  0.3226  0.0115
   20SAPS  H20T 2611   4.674   0.640   3.926  0.4104  1.2748 -0.4696
   20SAPS   C33 2612   5.236   0.970   3.199  0.0936  0.8918  0.7540
   20SAPS   H3X 2613   5.276   0.871   3.226 -2.0496  0.0419  1.0390
   20SAPS   H3Y 2614   5.127   0.955   3.217  0.2549 -0.1281  0.9392
   20SAPS   C34 2615   5.286   1.075   3.292 -0.0580 -0.8986 -0.1838
   20SAPS   H4X 2616   5.217   1.163   3.298 -1.1442 -1.6507 -1.2617
   20SAPS   H4Y 2617   5.387   1.101   3.255  0.3423  1.5149  2.2721
   20SAPS   C35 2618   5.301   1.023   3.439  0.3245 -0.3255  0.2365
   20SAPS   H5X 2619   5.365   1.095   3.496 -0.4626  0.6123 -0.0380
   20SAPS   H5Y 2620   5.332   0.917   3.453  0.0717 -0.5380 -0.7771
   20SAPS   C36 2621   5.165   1.016   3.503  0.4636  0.7750 -0.4900
   20SAPS   H6X 2622   5.098   0.938   3.461 -0.1279  0.3473  1.1785
   20SAPS   H6Y 2623   5.122   1.118   3.498 -1.0935  0.1381 -0.4331
   20SAPS   C37 2624   5.160   0.979   3.655 -0.1480 -0.6063 -0.2727
   20SAPS   H7X 2625   5.141   1.075   3.708  1.0400  0.6614 -2.0405
   20SAPS   H7Y 2626   5.262   0.944   3.683  0.2245 -0.2507 -1.1703
   20SAPS   C38 2627   5.050   0.880   3.702 -0.2474  0.4894 -0.3831
   20SAPS   H8X 2628   5.053   0.873   3.813  1.7908 -0.4877 -0.4449
   20SAPS   H8Y 2629   5.066   0.780   3.656  0.5047 -0.0098  0.9160
   20SAPS   C39 2630   4.903   0.911   3.661 -0.5716  0.9813  0.2871
   20SAPS   H9X 2631   4.902   0.906   3.550 -1.5840 -0.3724  0.3423
   20SAPS   H9Y 2632   4.867   1.009   3.701 -1.0609  0.1384  2.0220
   20SAPS  C310 2633   4.798   0.806   3.704 -0.4364  0.1373 -0.0517
   20SAPS  H10X 2634   4.790   0.786   3.813 -0.2308 -1.4619 -0.3122
   20SAPS  H10Y 2635   4.825   0.714   3.649 -1.4512  0.8096 -1.7358
   20SAPS  C311 2636   4.660   0.843   3.651 -0.4100  0.6562 -0.5720
   20SAPS  H11X 2637   4.596   0.752   3.659  0.3114  0.1418 -0.6051
   20SAPS  H11Y 2638   4.668   0.864   3.542 -3.0947 -1.2089 -1.2172
   20SAPS  C312 2639   4.586   0.964   3.702 -0.4576  0.0844 -0.0102
   20SAPS  H12X 2640   4.652   1.048   3.675 -0.5990 -0.3527 -1.8599
   20SAPS  H12Y 2641   4.586   0.958   3.813  1.4703  1.2940  0.0778
   20SAPS  C313 2642   4.444   0.967   3.644  0.2698 -0.7192 -0.0302
   20SAPS  H13X 2643   4.384   1.014   3.725 -2.4934 -0.1858 -2.2235
   20SAPS  H13Y 2644   4.398   0.867   3.625 -2.6028  0.4039  0.4235
   20SAPS  C314 2645   4.418   1.056   3.520  0.6467 -0.8532 -0.3278
   20SAPS  H14X 2646   4.493   1.033   3.441  0.1478 -0.3697 -0.9476
   20SAPS  H14Y 2647   4.424   1.163   3.548  3.0911 -1.4976  2.1553
   20SAPS  C315 2648   4.281   1.027   3.456 -0.3670  0.4058  0.3042
   20SAPS  H15X 2649   4.270   1.099   3.372 -0.6500  0.8940  0.7549
   20SAPS  H15Y 2650   4.196   1.040   3.526 -0.3050  0.4141  0.3786
   20SAPS  C316 2651   4.273   0.881   3.389 -0.4564 -0.3316  0.0910
   20SAPS  H16X 2652   4.281   0.799   3.465 -0.2366 -0.7731 -0.4019
   20SAPS  H16Y 2653   4.373   0.876   3.341  0.7840 -0.1779  2.4956
   20SAPS  C317 2654   4.161   0.882   3.287 -0.0024  1.2033 -0.1526
   20SAPS  H17X 2655   4.162   0.967   3.216  0.5774  2.9063  1.7795
   20SAPS  H17Y 2656   4.065   0.874   3.342  0.0845  0.2439 -0.1227
   20SAPS  C318 2657   4.154   0.769   3.188  0.2220 -0.0280  0.1478
   20SAPS  H18X 2658   4.152   0.668   3.235 -2.1218 -1.1639 -2.1085
   20SAPS  H18Y 2659   4.245   0.777   3.125  0.5050  0.1650  0.5787
   20SAPS  H18Z 2660   4.062   0.789   3.130 -0.4147 -0.9959  0.7883
   21CHL1    C3 2661   2.723   4.237   6.751  0.6478 -0.4798 -0.1557
   21CHL1    H3 2662   2.698   4.129   6.747 -0.1863 -0.2961 -0.0820
   21CHL1    O3 2663   2.757   4.274   6.881  0.0211  0.0555 -0.5682
   21CHL1   H3' 2664   2.738   4.368   6.888 -1.3346 -0.2889  1.3123
   21CHL1    C4 2665   2.843   4.268   6.664  0.2762 -0.0470 -0.0285
   21CHL1   H4A 2666   2.871   4.375   6.676  0.0724  0.0049 -0.0156
   21CHL1   H4B 2667   2.936   4.230   6.712 -0.0822  1.6306  2.1227
   21CHL1    C5 2668   2.820   4.231   6.517 -0.0491 -0.0948 -0.4932
   21CHL1    C6 2669   2.905   4.152   6.460  0.0522  0.1038  1.1532
   21CHL1    H6 2670   2.992   4.113   6.515  1.0233 -1.2335 -1.1567
   21CHL1    C7 2671   2.896   4.124   6.315  0.1749  0.6884  0.2276
   21CHL1   H7A 2672   2.998   4.146   6.275 -0.2356  0.6482 -0.8671
   21CHL1   H7B 2673   2.886   4.015   6.300  0.7382  0.7364 -0.5964
   21CHL1    C8 2674   2.800   4.212   6.236 -0.1133 -0.2946  0.6723
   21CHL1    H8 2675   2.852   4.310   6.231 -0.2500 -0.2139  0.8111
   21CHL1   C14 2676   2.779   4.166   6.093 -0.0210  0.1871 -0.2130
   21CHL1   H14 2677   2.735   4.064   6.102  0.5276 -0.3675 -2.8119
   21CHL1   C15 2678   2.908   4.136   6.007  0.8746  0.2016 -0.0007
   21CHL1  H15A 2679   2.975   4.224   6.006  0.3096  0.6972  1.7926
   21CHL1  H15B 2680   2.963   4.045   6.038  0.2435 -0.5908 -1.1253
   21CHL1   C16 2681   2.847   4.118   5.868  0.1776 -0.0697  0.3046
   21CHL1  H16A 2682   2.889   4.192   5.797 -2.7244  0.9720 -0.4588
   21CHL1  H16B 2683   2.836   4.013   5.833 -1.8666  1.0203 -2.7143
   21CHL1   C17 2684   2.697   4.162   5.884  0.2318  0.6410  0.2516
   21CHL1   H17 2685   2.638   4.070   5.898 -0.0619  0.6856 -0.6297
   21CHL1   C13 2686   2.690   4.244   6.010 -0.1801  0.1153  0.3019
   21CHL1   C18 2687   2.750   4.387   5.982 -0.3768 -0.6552  0.1800
   21CHL1  H18A 2688   2.678   4.446   5.921  1.3085  0.7385 -0.5458
   21CHL1  H18B 2689   2.771   4.439   6.078  1.1145 -0.5007 -0.2079
   21CHL1  H18C 2690   2.845   4.381   5.925 -0.4329 -1.0942  0.1320
   21CHL1   C12 2691   2.554   4.261   6.082  0.1542  0.6488  0.0124
   21CHL1  H12A 2692   2.483   4.325   6.025  0.3325  0.3984 -0.5003
   21CHL1  H12B 2693   2.508   4.160   6.091  0.2810  0.4114 -1.6166
   21CHL1   C11 2694   2.574   4.314   6.224 -0.6036 -0.5480 -0.2011
   21CHL1  H11A 2695   2.589   4.424   6.223 -0.9260 -0.4786  1.0256
   21CHL1  H11B 2696   2.469   4.307   6.259 -1.0077  2.3267 -0.6047
   21CHL1    C9 2697   2.671   4.235   6.309 -0.2917  0.3890 -0.0446
   21CHL1    H9 2698   2.629   4.133   6.325  0.0529  0.5028  1.8672
   21CHL1   C10 2699   2.697   4.292   6.450 -0.5690  0.3736 -0.7998
   21CHL1   C19 2700   2.717   4.443   6.437  0.0287  0.6249  0.5155
   21CHL1  H19A 2701   2.761   4.492   6.527  1.7627  0.6198 -0.2882
   21CHL1  H19B 2702   2.784   4.477   6.356  0.9800 -0.2365  0.9058
   21CHL1  H19C 2703   2.619   4.491   6.419 -0.7221 -1.2740 -0.8428
   21CHL1    C1 2704   2.574   4.272   6.546  0.7971  0.5182 -0.4225
   21CHL1   H1A 2705   2.492   4.340   6.515  0.9281  2.1702  2.4778
   21CHL1   H1B 2706   2.537   4.167   6.541 -0.0584  0.5484  2.8242
   21CHL1    C2 2707   2.601   4.307   6.698 -0.1176 -0.4767  0.8154
   21CHL1   H2A 2708   2.519   4.261   6.758  0.1802 -1.0938  0.7600
   21CHL1   H2B 2709   2.594   4.418   6.702  2.4953 -0.0748 -2.0147
   21CHL1   C20 2710   2.630   4.224   5.757 -0.7073 -1.1318 -0.4895
   21CHL1   H20 2711   2.648   4.334   5.752  1.9010 -1.5447 -1.7204
   21CHL1   C21 2712   2.482   4.188   5.762 -0.7289  0.2979  0.4962
   21CHL1  H21A 2713   2.427   4.258   5.694  0.7459  2.2184  1.1871
   21CHL1  H21B 2714   2.444   4.200   5.865  2.9273 -0.7746  2.1384
   21CHL1  H21C 2715   2.460   4.085   5.726 -1.0997  0.2112  0.9768
   21CHL1   C22 2716   2.687   4.170   5.625 -0.6282 -0.4480  0.1059
   21CHL1  H22A 2717   2.791   4.207   5.610 -1.3483  1.5598 -0.3289
   21CHL1  H22B 2718   2.683   4.063   5.652  0.0803 -0.4598  0.1720
   21CHL1   C23 2719   2.618   4.206   5.487 -0.1242  0.0914 -0.4288
   21CHL1  H23A 2720   2.509   4.184   5.495 -0.3494  1.0565 -0.7188
   21CHL1  H23B 2721   2.632   4.314   5.465  2.2340 -0.4019 -1.6783
   21CHL1   C24 2722   2.675   4.141   5.358  0.3459 -0.3458  0.1468
   21CHL1  H24A 2723   2.773   4.187   5.333  1.2215 -1.4441  1.4600
   21CHL1  H24B 2724   2.688   4.031   5.364 -0.8090 -0.5986 -1.3310
   21CHL1   C25 2725   2.592   4.168   5.230 -0.2044 -0.1614  0.1485
   21CHL1   H25 2726   2.494   4.118   5.237  0.1491 -1.1611 -1.5151
   21CHL1   C26 2727   2.566   4.322   5.216  0.2139  0.0898  0.0885
   21CHL1  H26A 2728   2.497   4.339   5.130 -0.1790 -2.3096 -0.1400
   21CHL1  H26B 2729   2.522   4.363   5.309  0.8189 -1.1634  0.9567
   21CHL1  H26C 2730   2.657   4.382   5.192  0.1504  0.0438 -0.2849
   21CHL1   C27 2731   2.667   4.128   5.104 -0.0426  0.0730 -0.7289
   21CHL1  H27A 2732   2.625   4.163   5.007  0.9917  0.2701 -1.1078
   21CHL1  H27B 2733   2.775   4.150   5.117 -0.3957  1.3637  0.1978
   21CHL1  H27C 2734   2.671   4.017   5.110  0.8163  0.0505 -1.4569
   22CHL1    C3 2735   4.666   3.267   6.290  0.4381  0.5684 -0.3200
   22CHL1    H3 2736   4.757   3.323   6.259  0.5655  0.7180  0.3072
   22CHL1    O3 2737   4.648   3.301   6.425 -0.5246  0.1391 -0.6372
   22CHL1   H3' 2738   4.607   3.227   6.470  3.1706 -2.0773 -0.4801
   22CHL1    C4 2739   4.554   3.316   6.196  0.6698  0.7465  0.1753
   22CHL1   H4A 2740   4.454   3.273   6.219  0.2222  1.1866 -0.8650
   22CHL1   H4B 2741   4.537   3.423   6.222 -0.0912 -0.0726  3.5449
   22CHL1    C5 2742   4.589   3.285   6.053  0.1829  0.1706 -1.3984
   22CHL1    C6 2743   4.604   3.393   5.970  0.2997  0.2824 -0.2992
   22CHL1    H6 2744   4.596   3.492   6.017 -0.3016 -0.9242  2.2993
   22CHL1    C7 2745   4.644   3.371   5.829 -0.1352  0.4648 -0.3138
   22CHL1   H7A 2746   4.592   3.434   5.754  0.2276  0.6512 -0.4112
   22CHL1   H7B 2747   4.752   3.392   5.812 -0.3680  1.3609 -0.7246
   22CHL1    C8 2748   4.621   3.227   5.779  0.5358  0.3071  0.3947
   22CHL1    H8 2749   4.513   3.203   5.766  0.6033 -0.8742  1.7536
   22CHL1   C14 2750   4.687   3.207   5.638  0.6918 -1.0479 -0.0264
   22CHL1   H14 2751   4.797   3.223   5.649  0.3226  2.1794 -0.1606
   22CHL1   C15 2752   4.662   3.315   5.534  1.0042 -0.2965 -0.3286
   22CHL1  H15A 2753   4.554   3.337   5.532  0.6923 -1.7600 -0.3735
   22CHL1  H15B 2754   4.721   3.404   5.566  3.0911 -1.4440 -0.7347
   22CHL1   C16 2755   4.703   3.246   5.410 -0.6563 -0.4244  0.1770
   22CHL1  H16A 2756   4.614   3.242   5.344 -0.7720 -0.0027  0.3025
   22CHL1  H16B 2757   4.772   3.318   5.361  0.0993 -0.8003  0.6606
   22CHL1   C17 2758   4.749   3.106   5.446  0.4618 -0.0995  0.3683
   22CHL1   H17 2759   4.858   3.106   5.467  0.9188 -3.2636 -1.3692
   22CHL1   C13 2760   4.676   3.073   5.578  0.1898 -0.0740  0.6303
   22CHL1   C18 2761   4.529   3.027   5.557 -0.4947  0.1115  0.4395
   22CHL1  H18A 2762   4.472   3.091   5.485 -1.1445 -0.0563  0.8006
   22CHL1  H18B 2763   4.532   2.924   5.515 -2.7739  0.8579 -1.8111
   22CHL1  H18C 2764   4.461   3.018   5.644  0.6130  1.0181  1.4233
   22CHL1   C12 2765   4.753   2.978   5.680 -0.0222  0.2744  0.3282
   22CHL1  H12A 2766   4.758   2.874   5.643  0.6729  0.7228 -0.8706
   22CHL1  H12B 2767   4.853   3.021   5.701 -0.3855  1.0490  0.5411
   22CHL1   C11 2768   4.699   2.979   5.825 -0.1805 -0.7029 -0.0185
   22CHL1  H11A 2769   4.604   2.921   5.821 -0.6434 -0.0434  0.9840
   22CHL1  H11B 2770   4.764   2.917   5.890  0.1654  0.3436  0.6541
   22CHL1    C9 2771   4.683   3.124   5.883 -1.0905 -0.1348 -0.0069
   22CHL1    H9 2772   4.789   3.157   5.893 -1.4884  1.2025  0.0641
   22CHL1   C10 2773   4.622   3.142   6.020  0.3022  0.0985  0.1712
   22CHL1   C19 2774   4.489   3.062   6.002  0.1952 -0.5303  0.0496
   22CHL1  H19A 2775   4.489   2.951   6.012  1.1418 -0.3656  2.5444
   22CHL1  H19B 2776   4.423   3.095   6.084  0.7373  2.0157 -0.4520
   22CHL1  H19C 2777   4.441   3.093   5.906  0.1914 -0.7266 -0.0122
   22CHL1    C1 2778   4.718   3.080   6.128  0.2041 -0.0369 -0.6343
   22CHL1   H1A 2779   4.717   2.972   6.104  0.1931  0.4923 -3.3381
   22CHL1   H1B 2780   4.824   3.112   6.114 -0.3147  1.2454 -1.9263
   22CHL1    C2 2781   4.679   3.112   6.270  0.0314 -0.0563 -0.4311
   22CHL1   H2A 2782   4.757   3.069   6.336 -0.7280 -1.0104 -0.1303
   22CHL1   H2B 2783   4.580   3.072   6.298 -1.3494  1.8640 -2.2516
   22CHL1   C20 2784   4.735   3.004   5.332 -0.9073  0.2895  0.2757
   22CHL1   H20 2785   4.635   2.957   5.327 -1.5271  1.6308 -0.7286
   22CHL1   C21 2786   4.846   2.899   5.361  0.2826 -0.2137  0.4905
   22CHL1  H21A 2787   4.855   2.816   5.288 -3.0472  1.7010 -2.4401
   22CHL1  H21B 2788   4.817   2.844   5.453 -0.4789 -2.2548 -0.9059
   22CHL1  H21C 2789   4.944   2.948   5.380 -0.2104 -0.0048  2.9112
   22CHL1   C22 2790   4.767   3.054   5.192 -0.3898  0.0495  0.0035
   22CHL1  H22A 2791   4.692   3.135   5.181 -0.1812  0.4315  1.3531
   22CHL1  H22B 2792   4.872   3.089   5.187 -0.5250  0.6730  1.2820
   22CHL1   C23 2793   4.756   2.954   5.077  0.0947 -0.1319 -0.0604
   22CHL1  H23A 2794   4.807   2.860   5.109  0.0955 -1.3265 -3.2094
   22CHL1  H23B 2795   4.653   2.932   5.044  0.2667 -1.3286  0.1321
   22CHL1   C24 2796   4.828   2.993   4.949 -0.6790 -0.6812  0.3037
   22CHL1  H24A 2797   4.765   3.049   4.877 -2.2927 -3.4439 -0.5773
   22CHL1  H24B 2798   4.914   3.055   4.986 -1.1726  0.3234 -0.1888
   22CHL1   C25 2799   4.876   2.868   4.866 -0.6231 -0.0317  0.4112
   22CHL1   H25 2800   4.927   2.794   4.931  1.2493  0.4022 -0.4948
   22CHL1   C26 2801   4.755   2.799   4.792 -0.3719 -0.0479  0.4598
   22CHL1  H26A 2802   4.786   2.746   4.700 -0.0888 -0.7520  0.9482
   22CHL1  H26B 2803   4.721   2.728   4.870  0.6718  0.5542  1.4944
   22CHL1  H26C 2804   4.672   2.871   4.782  0.3387  0.6802 -0.3708
   22CHL1   C27 2805   4.983   2.914   4.760  0.3549 -0.0295 -0.6031
   22CHL1  H27A 2806   5.040   2.828   4.720  0.7812  0.6221 -1.4371
   22CHL1  H27B 2807   4.941   2.964   4.671 -1.8557 -0.1226  0.3108
   22CHL1  H27C 2808   5.059   2.980   4.807  0.3039 -0.8488  0.7054
   23CHL1    C3 2809   5.152   0.178   3.073 -0.3878  0.2643 -0.4208
   23CHL1    H3 2810   5.164   0.286   3.093 -0.4116  0.1551  0.2076
   23CHL1    O3 2811   5.103   0.156   2.946  0.1143 -0.1975  0.2594
   23CHL1   H3' 2812   5.018   0.200   2.945  0.6996  0.9500 -0.2037
   23CHL1    C4 2813   5.289   0.106   3.086  0.0306  0.1170  0.6144
   23CHL1   H4A 2814   5.284   0.000   3.054  3.7368  0.4085 -1.4583
   23CHL1   H4B 2815   5.353   0.156   3.011 -1.1166  0.3809 -0.2174
   23CHL1    C5 2816   5.344   0.114   3.222  0.8995 -0.3371 -0.7526
   23CHL1    C6 2817   5.468   0.163   3.251  0.4346  0.4339  0.0528
   23CHL1    H6 2818   5.531   0.208   3.173  0.8624 -1.6326 -0.8675
   23CHL1    C7 2819   5.531   0.175   3.380  0.3935 -0.0444  0.5427
   23CHL1   H7A 2820   5.641   0.170   3.371  0.2624 -1.9315 -0.5312
   23CHL1   H7B 2821   5.515   0.277   3.420  0.5929 -0.0853  0.7241
   23CHL1    C8 2822   5.450   0.085   3.476 -0.1816 -0.2145 -0.2404
   23CHL1    H8 2823   5.478  -0.021   3.459  1.5942  0.1466  0.3003
   23CHL1   C14 2824   5.491   0.125   3.623 -0.5749 -0.0454 -0.1392
   23CHL1   H14 2825   5.460   0.230   3.644  4.1493  1.4738  0.4546
   23CHL1   C15 2826   5.645   0.124   3.653  0.3463  0.5940 -0.3176
   23CHL1  H15A 2827   5.693   0.035   3.606  1.4895  1.8587 -1.6582
   23CHL1  H15B 2828   5.700   0.213   3.616  0.0457  1.5749  1.4660
   23CHL1   C16 2829   5.652   0.106   3.800  0.0784 -0.5078  0.0171
   23CHL1  H16A 2830   5.704   0.011   3.826  0.7210 -0.1303  0.1207
   23CHL1  H16B 2831   5.697   0.192   3.854  0.8942 -1.6834  1.2922
   23CHL1   C17 2832   5.505   0.092   3.852  0.3302 -0.0329 -0.3057
   23CHL1   H17 2833   5.461   0.194   3.857 -0.0087 -0.2185  0.6628
   23CHL1   C13 2834   5.423   0.037   3.734  0.1446  0.4290  0.1628
   23CHL1   C18 2835   5.457  -0.114   3.715 -0.0893  0.0350  0.5972
   23CHL1  H18A 2836   5.421  -0.180   3.796 -0.7024 -0.0233  0.2831
   23CHL1  H18B 2837   5.404  -0.154   3.625 -0.4646  1.0381  0.3566
   23CHL1  H18C 2838   5.566  -0.133   3.706 -0.1941 -0.3230  0.0132
   23CHL1   C12 2839   5.281   0.077   3.725 -0.3578  0.7397 -0.3052
   23CHL1  H12A 2840   5.237   0.003   3.795 -1.1330  1.1858 -0.3171
   23CHL1  H12B 2841   5.260   0.181   3.757  0.6322  1.0096 -0.4984
   23CHL1   C11 2842   5.219   0.056   3.581  0.3076 -0.2880 -0.3432
   23CHL1  H11A 2843   5.218  -0.055   3.570 -1.5970 -0.3603  0.2532
   23CHL1  H11B 2844   5.113   0.088   3.576  0.9713  3.5822  3.9514
   23CHL1    C9 2845   5.296   0.109   3.466  0.0639 -0.5296  0.9220
   23CHL1    H9 2846   5.293   0.220   3.467  1.3517 -0.4756  0.8983
   23CHL1   C10 2847   5.251   0.057   3.328 -0.1037 -0.1568 -1.1089
   23CHL1   C19 2848   5.254  -0.104   3.323 -0.1291  0.1476 -0.9582
   23CHL1  H19A 2849   5.359  -0.137   3.311  0.9179  2.4245  1.0246
   23CHL1  H19B 2850   5.210  -0.157   3.410  0.2227 -1.1318 -1.5349
   23CHL1  H19C 2851   5.203  -0.142   3.232 -2.5977 -0.6857  0.6891
   23CHL1    C1 2852   5.108   0.108   3.320  0.2173  0.3505  0.7663
   23CHL1   H1A 2853   5.039   0.052   3.386 -0.0133 -0.2578  0.0226
   23CHL1   H1B 2854   5.090   0.211   3.357 -2.6212  0.8002 -1.5131
   23CHL1    C2 2855   5.052   0.115   3.178  0.5300  0.2347  0.5672
   23CHL1   H2A 2856   4.959   0.176   3.177  0.1128 -0.3873  0.9465
   23CHL1   H2B 2857   5.037   0.010   3.144 -1.1497  1.2935 -2.3165
   23CHL1   C20 2858   5.497   0.031   3.989 -0.2204 -0.2722  0.1748
   23CHL1   H20 2859   5.534  -0.074   3.982  1.8858  0.4402 -0.2063
   23CHL1   C21 2860   5.362   0.020   4.046 -0.3328 -0.3131  0.6978
   23CHL1  H21A 2861   5.304  -0.055   3.988 -0.3053  1.7280 -2.2108
   23CHL1  H21B 2862   5.300   0.110   4.023 -0.6456 -0.7138 -0.0881
   23CHL1  H21C 2863   5.357  -0.013   4.152  0.3071 -0.3046  0.7337
   23CHL1   C22 2864   5.584   0.089   4.103 -0.1503  0.0782 -0.0481
   23CHL1  H22A 2865   5.588   0.021   4.190  2.4080  0.7832  0.4996
   23CHL1  H22B 2866   5.691   0.103   4.074  0.0764  0.8060  1.0688
   23CHL1   C23 2867   5.545   0.227   4.146 -0.1492  0.1305 -0.3644
   23CHL1  H23A 2868   5.541   0.301   4.064  1.4656  0.7118  0.0438
   23CHL1  H23B 2869   5.448   0.231   4.200  1.0373  1.9650  1.8196
   23CHL1   C24 2870   5.647   0.292   4.239  0.1398 -0.1254 -0.0277
   23CHL1  H24A 2871   5.677   0.218   4.316  1.0873 -0.3345 -0.5898
   23CHL1  H24B 2872   5.742   0.308   4.184  0.8790  2.1714  1.7436
   23CHL1   C25 2873   5.601   0.429   4.313  0.3483  0.0327 -0.8325
   23CHL1   H25 2874   5.518   0.397   4.380  2.1328 -2.5705  0.3339
   23CHL1   C26 2875   5.709   0.476   4.410 -0.3880 -0.3041 -0.0946
   23CHL1  H26A 2876   5.801   0.502   4.354 -1.6752 -0.8467 -2.5797
   23CHL1  H26B 2877   5.673   0.563   4.470  3.6822  0.8747  0.9631
   23CHL1  H26C 2878   5.735   0.392   4.478  1.5953  1.6697  1.7336
   23CHL1   C27 2879   5.554   0.526   4.208 -0.8417  0.7656  0.0509
   23CHL1  H27A 2880   5.455   0.488   4.175  0.1148 -0.6723 -1.2990
   23CHL1  H27B 2881   5.545   0.631   4.243 -0.3744  1.0543 -0.6759
   23CHL1  H27C 2882   5.625   0.520   4.123 -1.6739 -0.7249 -0.5688
   24CHL1    C3 2883   4.417   4.195   6.484 -0.5570  0.5605 -0.5663
   24CHL1    H3 2884   4.395   4.086   6.491 -0.6135  0.5756 -0.5075
   24CHL1    O3 2885   4.444   4.247   6.611 -0.3016 -0.1905 -0.2081
   24CHL1   H3' 2886   4.377   4.302   6.653  1.9809  1.2839  1.8333
   24CHL1    C4 2887   4.538   4.202   6.399  0.6906 -0.5460  0.4711
   24CHL1   H4A 2888   4.579   4.305   6.392  1.4131 -0.8928 -0.7682
   24CHL1   H4B 2889   4.620   4.147   6.450 -0.2589 -1.4294  1.0809
   24CHL1    C5 2890   4.512   4.143   6.261 -0.8264  0.9460  0.4381
   24CHL1    C6 2891   4.586   4.040   6.213  0.1607  0.3997 -0.1025
   24CHL1    H6 2892   4.672   4.004   6.271  0.8045 -1.9672 -2.3065
   24CHL1    C7 2893   4.572   3.985   6.077 -0.5762  0.2976 -0.5842
   24CHL1   H7A 2894   4.671   3.979   6.027 -0.6696 -1.9952 -0.6022
   24CHL1   H7B 2895   4.534   3.881   6.080  0.6374 -0.1729 -0.8256
   24CHL1    C8 2896   4.481   4.066   5.985  0.2132  0.5377  0.4437
   24CHL1    H8 2897   4.538   4.159   5.965  0.4450 -0.0849 -2.1311
   24CHL1   C14 2898   4.450   3.999   5.852  0.1175 -0.9565  0.4136
   24CHL1   H14 2899   4.395   3.908   5.884 -1.5785 -0.0301  0.2413
   24CHL1   C15 2900   4.576   3.949   5.778 -0.0265 -0.1689 -0.2026
   24CHL1  H15A 2901   4.663   4.016   5.796  1.2913 -1.6834 -0.6756
   24CHL1  H15B 2902   4.617   3.852   5.813  0.8620 -0.9157 -3.0894
   24CHL1   C16 2903   4.520   3.929   5.638 -0.2149  0.1633  0.0253
   24CHL1  H16A 2904   4.572   3.999   5.569 -0.6400  1.0598  0.5997
   24CHL1  H16B 2905   4.537   3.825   5.601  0.3254  0.2573 -0.0007
   24CHL1   C17 2906   4.369   3.972   5.636  0.5728 -1.2824  0.3108
   24CHL1   H17 2907   4.315   3.879   5.662 -1.2806 -0.5416 -0.6393
   24CHL1   C13 2908   4.365   4.074   5.751 -0.2113 -0.0916  0.5816
   24CHL1   C18 2909   4.440   4.207   5.702 -0.5066  0.6411 -1.2123
   24CHL1  H18A 2910   4.468   4.269   5.790 -1.6082  0.3828 -0.6579
   24CHL1  H18B 2911   4.535   4.189   5.648 -0.5216  3.9396 -2.5545
   24CHL1  H18C 2912   4.366   4.270   5.649 -1.3461  0.3830 -0.3709
   24CHL1   C12 2913   4.232   4.120   5.821 -0.0509  0.0648 -0.0690
   24CHL1  H12A 2914   4.172   4.180   5.750  1.2829 -0.4713 -1.7201
   24CHL1  H12B 2915   4.185   4.023   5.846  1.1122 -0.2498  1.0318
   24CHL1   C11 2916   4.257   4.188   5.955 -1.1501  0.8657  0.2039
   24CHL1  H11A 2917   4.292   4.290   5.927  0.6932 -0.3819 -2.3690
   24CHL1  H11B 2918   4.164   4.183   6.016 -2.2622 -1.5429 -1.5268
   24CHL1    C9 2919   4.356   4.114   6.061 -0.2014  0.3521 -0.3741
   24CHL1    H9 2920   4.291   4.032   6.095 -1.7778  2.5240  2.2177
   24CHL1   C10 2921   4.394   4.194   6.185  0.3665  1.0722  0.4289
   24CHL1   C19 2922   4.430   4.341   6.140  0.4911 -0.1051 -0.3334
   24CHL1  H19A 2923   4.488   4.346   6.045 -0.7702 -0.8984 -1.1702
   24CHL1  H19B 2924   4.336   4.397   6.121 -1.0821 -1.9841  1.4408
   24CHL1  H19C 2925   4.498   4.389   6.214  1.3720 -1.5294 -0.1787
   24CHL1    C1 2926   4.277   4.198   6.277 -0.3318  0.2443 -0.6014
   24CHL1   H1A 2927   4.188   4.253   6.240  0.8758  0.8334 -2.8092
   24CHL1   H1B 2928   4.230   4.100   6.302 -1.7231  1.5890  2.7297
   24CHL1    C2 2929   4.300   4.263   6.417  0.2721  0.1584  0.2325
   24CHL1   H2A 2930   4.213   4.247   6.485  0.7941  0.8400  1.0873
   24CHL1   H2B 2931   4.323   4.371   6.408 -0.6770  0.2688 -1.1672
   24CHL1   C20 2932   4.296   4.012   5.501  0.1794 -0.8032 -0.3187
   24CHL1   H20 2933   4.324   4.115   5.467 -0.5212 -1.2102 -2.2882
   24CHL1   C21 2934   4.140   4.003   5.524 -0.7472 -0.2098 -0.2760
   24CHL1  H21A 2935   4.108   3.901   5.552  0.5075 -1.0444 -1.7080
   24CHL1  H21B 2936   4.087   4.028   5.429 -3.1312 -2.5979  0.2976
   24CHL1  H21C 2937   4.110   4.078   5.599  0.7097  2.0208 -1.7807
   24CHL1   C22 2938   4.337   3.929   5.382 -0.5817 -0.1535 -0.0499
   24CHL1  H22A 2939   4.442   3.894   5.400 -0.2117  0.0610 -1.6774
   24CHL1  H22B 2940   4.264   3.847   5.367 -1.3384  0.6389 -0.7789
   24CHL1   C23 2941   4.332   3.995   5.241  0.2892 -0.0557 -1.0246
   24CHL1  H23A 2942   4.227   4.011   5.209  0.3042  1.2818 -0.4628
   24CHL1  H23B 2943   4.380   4.095   5.246  1.4085 -0.5844  3.1305
   24CHL1   C24 2944   4.405   3.897   5.141 -0.0314 -0.6462  0.0402
   24CHL1  H24A 2945   4.514   3.881   5.148  0.0447  0.2626  1.1627
   24CHL1  H24B 2946   4.343   3.804   5.139 -1.1026  0.0500 -1.3358
   24CHL1   C25 2947   4.395   3.946   4.988  0.0881  0.3357 -0.0145
   24CHL1   H25 2948   4.444   4.046   4.983  0.8478  0.1157  2.0641
   24CHL1   C26 2949   4.471   3.841   4.908  0.1785 -0.0661 -0.5069
   24CHL1  H26A 2950   4.443   3.738   4.940  0.8909 -0.7383 -1.9805
   24CHL1  H26B 2951   4.458   3.861   4.800  0.0884  0.8214 -0.3395
   24CHL1  H26C 2952   4.579   3.847   4.933 -0.3758  2.3748  1.8895
   24CHL1   C27 2953   4.246   3.963   4.942  0.2921 -1.0729  0.0173
   24CHL1  H27A 2954   4.191   3.867   4.950 -1.0173 -0.5000 -1.5164
   24CHL1  H27B 2955   4.204   4.039   5.011 -0.5320 -2.8402  1.5500
   24CHL1  H27C 2956   4.251   3.997   4.836 -1.9074  2.1427  0.7991
   25CHL1    C3 2957   6.146   0.316   6.408 -0.0757  0.5345 -0.2859
   25CHL1    H3 2958   6.136   0.419   6.447 -0.4794  0.8141 -1.1070
   25CHL1    O3 2959   6.123   0.229   6.520 -0.6277 -0.5310 -0.2029
   25CHL1   H3' 2960   6.038   0.187   6.508  0.0127 -1.7115 -0.7520
   25CHL1    C4 2961   6.031   0.279   6.306 -0.3013 -0.4122  0.2046
   25CHL1   H4A 2962   6.041   0.168   6.300  0.3792 -0.2947 -1.2084
   25CHL1   H4B 2963   5.931   0.298   6.352 -0.1193  3.2664 -0.6108
   25CHL1    C5 2964   6.050   0.348   6.172 -0.4034  1.3002 -0.0794
   25CHL1    C6 2965   5.953   0.418   6.118  0.0267 -0.0839 -0.3273
   25CHL1    H6 2966   5.872   0.442   6.188  0.8127  2.5465 -0.2144
   25CHL1    C7 2967   5.958   0.485   5.983  0.6586  0.6756 -0.6159
   25CHL1   H7A 2968   5.874   0.458   5.916 -0.1060 -2.0222  1.2525
   25CHL1   H7B 2969   5.975   0.593   6.005  1.4455  0.0568  2.3405
   25CHL1    C8 2970   6.087   0.433   5.905  0.5239 -0.5444  0.3420
   25CHL1    H8 2971   6.051   0.333   5.874 -0.6261  0.5139 -2.0535
   25CHL1   C14 2972   6.113   0.516   5.784 -0.2223 -0.5087  0.7987
   25CHL1   H14 2973   6.130   0.616   5.828  1.4704  0.3636 -1.5962
   25CHL1   C15 2974   5.996   0.532   5.686  0.5629 -0.1849  0.0824
   25CHL1  H15A 2975   5.951   0.432   5.668 -1.6708  0.6604  0.5452
   25CHL1  H15B 2976   5.925   0.604   5.732  0.9314  1.0061 -1.1323
   25CHL1   C16 2977   6.058   0.585   5.563  0.0917  0.0409 -0.0859
   25CHL1  H16A 2978   6.030   0.525   5.474 -2.8271  2.7804 -1.2399
   25CHL1  H16B 2979   6.018   0.685   5.536  0.2970  0.0005 -0.5441
   25CHL1   C17 2980   6.215   0.589   5.584  0.2536 -0.2470  0.5298
   25CHL1   H17 2981   6.226   0.690   5.628  2.6196  0.4649 -1.4594
   25CHL1   C13 2982   6.234   0.487   5.695 -0.6129  0.0795 -0.1160
   25CHL1   C18 2983   6.237   0.352   5.625 -0.3426  0.5790 -0.2665
   25CHL1  H18A 2984   6.323   0.336   5.556 -1.0715 -0.9488 -0.8676
   25CHL1  H18B 2985   6.236   0.263   5.691  1.1901  1.4379  0.9671
   25CHL1  H18C 2986   6.145   0.337   5.563  1.0460  0.0289 -2.3140
   25CHL1   C12 2987   6.362   0.499   5.787  0.3708  0.2475  0.3649
   25CHL1  H12A 2988   6.453   0.471   5.729  0.8577  0.5777  0.9608
   25CHL1  H12B 2989   6.375   0.601   5.828  1.3151  0.7364 -1.0751
   25CHL1   C11 2990   6.346   0.395   5.897  0.8584  0.1888 -0.3575
   25CHL1  H11A 2991   6.341   0.292   5.854  1.4606  0.2244 -0.5246
   25CHL1  H11B 2992   6.441   0.404   5.954  0.0639  0.9979  0.8832
   25CHL1    C9 2993   6.214   0.416   5.989  0.4103 -0.3080  0.1698
   25CHL1    H9 2994   6.223   0.521   6.025 -2.2153  1.4982 -3.6956
   25CHL1   C10 2995   6.187   0.319   6.107 -0.4276  0.2287  0.0677
   25CHL1   C19 2996   6.195   0.175   6.062 -0.4739 -1.2409 -0.7523
   25CHL1  H19A 2997   6.186   0.109   6.150  1.0239 -0.6343 -0.1019
   25CHL1  H19B 2998   6.126   0.149   5.979 -0.3041  1.3497 -1.7933
   25CHL1  H19C 2999   6.301   0.149   6.038  0.1315 -0.8506  1.3136
   25CHL1    C1 3000   6.300   0.353   6.208 -0.3264  0.1261 -0.0649
   25CHL1   H1A 3001   6.391   0.323   6.152 -0.1300  2.0392 -0.8434
   25CHL1   H1B 3002   6.304   0.463   6.224  1.1134 -0.1021  1.3459
   25CHL1    C2 3003   6.288   0.287   6.340  0.3642  0.9329  0.3240
   25CHL1   H2A 3004   6.365   0.325   6.410 -0.9158  2.0891  1.1698
   25CHL1   H2B 3005   6.286   0.177   6.326  0.0461  1.1526 -1.6368
   25CHL1   C20 3006   6.290   0.584   5.447  0.4581 -0.2599 -0.2968
   25CHL1   H20 3007   6.275   0.481   5.407 -0.2483 -1.3980  2.6209
   25CHL1   C21 3008   6.444   0.600   5.465 -0.1300 -0.7454  0.1569
   25CHL1  H21A 3009   6.491   0.603   5.364 -1.2124 -2.4289 -0.4303
   25CHL1  H21B 3010   6.498   0.514   5.509  0.5319  0.4861  1.8611
   25CHL1  H21C 3011   6.468   0.696   5.516 -1.1153 -0.4605  0.0904
   25CHL1   C22 3012   6.246   0.689   5.347 -0.6046 -0.0919  0.3212
   25CHL1  H22A 3013   6.292   0.654   5.252  0.2707 -1.6074  1.2675
   25CHL1  H22B 3014   6.136   0.693   5.335 -0.8658 -0.8072  2.1268
   25CHL1   C23 3015   6.296   0.838   5.370  0.3337  0.1806  0.1562
   25CHL1  H23A 3016   6.278   0.864   5.477 -2.3285  2.0295 -0.6247
   25CHL1  H23B 3017   6.404   0.826   5.349  0.1547  1.2989 -1.6401
   25CHL1   C24 3018   6.244   0.942   5.274 -0.2001  0.2693  0.0314
   25CHL1  H24A 3019   6.257   0.909   5.168  1.3214  0.1020  0.2411
   25CHL1  H24B 3020   6.137   0.953   5.301 -0.0097 -2.2637  2.1270
   25CHL1   C25 3021   6.308   1.082   5.286  0.6579  0.3624 -0.1997
   25CHL1   H25 3022   6.242   1.157   5.237  0.6282 -0.1764 -0.9882
   25CHL1   C26 3023   6.304   1.130   5.431  1.0910 -0.0151  0.3770
   25CHL1  H26A 3024   6.213   1.092   5.481  0.6774  0.6763  0.1640
   25CHL1  H26B 3025   6.396   1.084   5.475  1.0292 -0.8542 -0.3467
   25CHL1  H26C 3026   6.297   1.240   5.443 -1.0745  0.0431 -0.9586
   25CHL1   C27 3027   6.449   1.087   5.221  0.4657 -0.0094  0.2942
   25CHL1  H27A 3028   6.416   1.084   5.115  0.0257  0.0587  0.4277
   25CHL1  H27B 3029   6.486   1.187   5.252  2.2615 -0.6342  0.2460
   25CHL1  H27C 3030   6.515   0.998   5.230 -1.6646 -1.9862 -2.1349
   26CHL1    C3 3031   6.733   3.692   6.301 -0.2156  0.4024 -0.3685
   26CHL1    H3 3032   6.664   3.612   6.268 -0.5341  0.1657  0.8317
   26CHL1    O3 3033   6.750   3.677   6.440 -0.3742 -0.2095  0.0071
   26CHL1   H3' 3034   6.818   3.737   6.472 -0.0694 -1.4696  1.8792
   26CHL1    C4 3035   6.869   3.681   6.236  0.3342  0.4667  0.4264
   26CHL1   H4A 3036   6.939   3.765   6.257  3.1221 -1.0450 -2.1045
   26CHL1   H4B 3037   6.921   3.591   6.274 -0.0981 -0.3610 -0.8885
   26CHL1    C5 3038   6.850   3.668   6.086 -0.5416  0.0430 -0.5119
   26CHL1    C6 3039   6.888   3.558   6.020 -0.2857  0.4114  0.7577
   26CHL1    H6 3040   6.930   3.480   6.085  1.1009  0.7151  0.2585
   26CHL1    C7 3041   6.876   3.548   5.869  0.5027 -0.1604  0.3592
   26CHL1   H7A 3042   6.969   3.505   5.826  1.2639 -0.5262  2.2950
   26CHL1   H7B 3043   6.784   3.492   5.841  0.5601  0.5130 -1.3155
   26CHL1    C8 3044   6.861   3.686   5.806  0.7117  0.7570 -0.2449
   26CHL1    H8 3045   6.961   3.733   5.817  0.8818  0.5527 -0.8347
   26CHL1   C14 3046   6.828   3.674   5.657 -0.1414 -0.2362  0.6605
   26CHL1   H14 3047   6.729   3.625   5.657 -0.8791  1.1160  3.1505
   26CHL1   C15 3048   6.920   3.595   5.559 -0.1143 -0.5455 -0.1541
   26CHL1  H15A 3049   7.026   3.616   5.585 -0.7061  2.0203  0.4328
   26CHL1  H15B 3050   6.899   3.486   5.568  0.3618 -0.6167  0.1563
   26CHL1   C16 3051   6.883   3.643   5.423  0.3192 -0.4724  0.3647
   26CHL1  H16A 3052   6.971   3.698   5.384  0.0840  0.9673  1.7321
   26CHL1  H16B 3053   6.852   3.562   5.354 -3.7681  2.0408 -1.1350
   26CHL1   C17 3054   6.760   3.744   5.443  0.4612 -0.5723 -0.0934
   26CHL1   H17 3055   6.670   3.681   5.455 -0.4801  0.2373 -2.3606
   26CHL1   C13 3056   6.793   3.804   5.583 -0.3773  0.5108  0.4983
   26CHL1   C18 3057   6.911   3.910   5.581  0.3046  0.2239  0.4365
   26CHL1  H18A 3058   6.994   3.890   5.510  0.0667  2.0736 -0.4096
   26CHL1  H18B 3059   6.877   4.015   5.564  0.4941 -0.0185 -1.6655
   26CHL1  H18C 3060   6.951   3.908   5.685  2.3962 -2.7451 -0.3002
   26CHL1   C12 3061   6.662   3.855   5.650 -0.0488 -0.3735 -0.7957
   26CHL1  H12A 3062   6.624   3.941   5.592 -0.7154 -1.4803 -2.0393
   26CHL1  H12B 3063   6.579   3.782   5.646  0.4569 -1.0177 -0.0447
   26CHL1   C11 3064   6.693   3.885   5.796 -0.4032  0.2188 -0.2296
   26CHL1  H11A 3065   6.770   3.965   5.793 -0.1994  0.1027  1.2486
   26CHL1  H11B 3066   6.614   3.937   5.855  0.4994  0.8946  0.3990
   26CHL1    C9 3067   6.748   3.759   5.878  0.2115 -0.0717  0.2285
   26CHL1    H9 3068   6.665   3.686   5.872  1.3006 -1.3574  0.2927
   26CHL1   C10 3069   6.786   3.790   6.022 -0.2948  0.6555  0.0184
   26CHL1   C19 3070   6.896   3.898   6.025  0.1617 -0.1475  0.0544
   26CHL1  H19A 3071   6.865   3.995   5.980 -0.7788  0.4626  1.9027
   26CHL1  H19B 3072   6.950   3.928   6.118  0.2557 -0.9840  0.2789
   26CHL1  H19C 3073   6.978   3.860   5.960 -0.5594 -0.5200 -0.6455
   26CHL1    C1 3074   6.658   3.828   6.106  0.4162 -0.5153  0.1669
   26CHL1   H1A 3075   6.633   3.931   6.074  3.5766  0.4457  0.4446
   26CHL1   H1B 3076   6.575   3.759   6.081 -0.0880 -0.1949  0.8904
   26CHL1    C2 3077   6.666   3.822   6.259 -0.4428 -0.3292 -0.0977
   26CHL1   H2A 3078   6.562   3.831   6.295 -0.5759  0.6024 -0.6694
   26CHL1   H2B 3079   6.734   3.901   6.298  0.2200 -0.0816 -1.6539
   26CHL1   C20 3080   6.719   3.843   5.330 -0.4204  0.1099  0.1882
   26CHL1   H20 3081   6.685   3.942   5.367  1.0452 -0.0779  2.1957
   26CHL1   C21 3082   6.614   3.763   5.245  0.3656 -0.6794  0.2288
   26CHL1  H21A 3083   6.606   3.812   5.146 -0.1980  0.6678  0.9179
   26CHL1  H21B 3084   6.519   3.750   5.301 -0.5530  1.8113 -0.6465
   26CHL1  H21C 3085   6.641   3.660   5.212  3.6053 -0.0935  0.7568
   26CHL1   C22 3086   6.843   3.874   5.231  0.0275  0.2983  0.3891
   26CHL1  H22A 3087   6.933   3.896   5.293  0.4354 -3.9660  1.7025
   26CHL1  H22B 3088   6.867   3.780   5.176  0.8627  0.4560  0.4735
   26CHL1   C23 3089   6.835   3.981   5.118  1.5505  0.6297 -0.5352
   26CHL1  H23A 3090   6.739   3.961   5.065  0.3644 -0.4413  1.8336
   26CHL1  H23B 3091   6.833   4.085   5.157  0.9857  0.3258  0.2878
   26CHL1   C24 3092   6.952   3.976   5.020 -0.2161 -0.2540  0.1340
   26CHL1  H24A 3093   7.045   4.005   5.075 -0.8317  0.8539  0.6223
   26CHL1  H24B 3094   6.963   3.877   4.971 -1.7077 -0.4273  0.1266
   26CHL1   C25 3095   6.941   4.087   4.914  0.2689 -0.5995  0.1291
   26CHL1   H25 3096   6.889   4.176   4.956  2.1737  1.1367 -0.9864
   26CHL1   C26 3097   7.076   4.149   4.863  0.7888 -0.0435  0.3753
   26CHL1  H26A 3098   7.132   4.180   4.954  0.0940 -1.0965  1.1970
   26CHL1  H26B 3099   7.152   4.079   4.821  2.1837  0.5577  1.7961
   26CHL1  H26C 3100   7.061   4.221   4.780  2.0858 -1.4610 -1.1706
   26CHL1   C27 3101   6.851   4.055   4.798  0.2176  0.0365  0.0254
   26CHL1  H27A 3102   6.773   4.135   4.799  1.2721  1.1694 -2.2175
   26CHL1  H27B 3103   6.907   4.067   4.703 -0.8856 -0.9531 -0.7822
   26CHL1  H27C 3104   6.794   3.960   4.806  1.1941 -0.4390  1.7102
   27CHL1    C3 3105   1.851   1.407   6.494  1.1257 -0.4231 -0.2899
   27CHL1    H3 3106   1.853   1.309   6.442  2.9195 -1.7395  2.0946
   27CHL1    O3 3107   1.879   1.389   6.634  0.2836  0.4763  0.1111
   27CHL1   H3' 3108   1.974   1.392   6.645  0.0777  1.9563  2.2902
   27CHL1    C4 3109   1.960   1.494   6.438  0.2034  0.4112  0.4036
   27CHL1   H4A 3110   1.966   1.586   6.501  0.0272 -0.1475  1.2504
   27CHL1   H4B 3111   2.057   1.441   6.446  0.5290  1.0372  0.6541
   27CHL1    C5 3112   1.934   1.530   6.294  0.2351  1.0114  0.3253
   27CHL1    C6 3113   2.034   1.507   6.203  0.3477 -0.3723  0.4968
   27CHL1    H6 3114   2.129   1.495   6.256  0.1286 -1.5505  0.6645
   27CHL1    C7 3115   2.014   1.530   6.054  0.2178 -0.3631 -0.5668
   27CHL1   H7A 3116   2.100   1.585   6.010  1.2453 -1.9985 -0.6679
   27CHL1   H7B 3117   1.986   1.435   6.003 -1.3628  0.5254 -1.4264
   27CHL1    C8 3118   1.892   1.630   6.033  0.5577  0.2633  0.5552
   27CHL1    H8 3119   1.914   1.729   6.078 -0.5806  1.4233 -1.3176
   27CHL1   C14 3120   1.860   1.638   5.890 -0.1557 -0.0238  0.0163
   27CHL1   H14 3121   1.823   1.535   5.871 -0.4699 -0.0386  0.6772
   27CHL1   C15 3122   1.983   1.676   5.798 -0.0291  0.5005  0.2830
   27CHL1  H15A 3123   2.032   1.755   5.859  2.3769 -0.9001  0.2735
   27CHL1  H15B 3124   2.058   1.595   5.791 -0.8523 -0.3395  0.8021
   27CHL1   C16 3125   1.908   1.706   5.670 -0.4042 -0.2224 -0.1861
   27CHL1  H16A 3126   1.952   1.800   5.629  0.3008 -1.1753 -1.7263
   27CHL1  H16B 3127   1.932   1.622   5.601 -1.0050  1.2124 -2.2398
   27CHL1   C17 3128   1.757   1.713   5.698  0.1166 -0.7393 -0.0875
   27CHL1   H17 3129   1.723   1.610   5.674  1.0342 -1.7854  2.6617
   27CHL1   C13 3130   1.741   1.720   5.853 -0.0283 -0.1891  0.5171
   27CHL1   C18 3131   1.756   1.872   5.887 -0.1674 -0.3763 -0.2223
   27CHL1  H18A 3132   1.669   1.934   5.857  0.4584  0.9267  0.5615
   27CHL1  H18B 3133   1.786   1.886   5.993 -0.0338  2.4933 -0.5493
   27CHL1  H18C 3134   1.840   1.919   5.831  0.2916  2.6925  2.7202
   27CHL1   C12 3135   1.619   1.653   5.915 -0.4171 -0.2746 -1.0102
   27CHL1  H12A 3136   1.527   1.710   5.891 -1.3707 -2.1066 -1.8806
   27CHL1  H12B 3137   1.606   1.552   5.871 -2.0933 -0.4563 -0.1979
   27CHL1   C11 3138   1.636   1.653   6.072  1.2259  0.1162 -0.6793
   27CHL1  H11A 3139   1.638   1.755   6.118  1.3076 -0.8891  1.6987
   27CHL1  H11B 3140   1.546   1.602   6.111  2.2456 -1.0652  0.2007
   27CHL1    C9 3141   1.767   1.578   6.112  0.0623  0.0194  0.0975
   27CHL1    H9 3142   1.747   1.477   6.069  0.2706 -0.5301  1.2562
   27CHL1   C10 3143   1.786   1.575   6.264 -0.0280  0.2376 -0.0179
   27CHL1   C19 3144   1.780   1.725   6.320  0.0203  1.1631  0.1820
   27CHL1  H19A 3145   1.798   1.739   6.429 -1.5200  3.8835  0.1814
   27CHL1  H19B 3146   1.840   1.793   6.257 -2.0497  2.5228 -0.4388
   27CHL1  H19C 3147   1.675   1.762   6.309 -0.7045 -1.0773 -1.2208
   27CHL1    C1 3148   1.677   1.486   6.337  0.4035  0.1127  0.2411
   27CHL1   H1A 3149   1.585   1.546   6.324  0.9846  1.0635  0.3973
   27CHL1   H1B 3150   1.671   1.388   6.284 -3.1764  1.1567 -1.5741
   27CHL1    C2 3151   1.708   1.460   6.482  1.3351 -0.7155 -0.0128
   27CHL1   H2A 3152   1.634   1.382   6.510  0.4284 -0.5371 -1.7693
   27CHL1   H2B 3153   1.697   1.554   6.540  2.6482 -0.6423  0.1512
   27CHL1   C20 3154   1.677   1.805   5.607  0.5139 -0.3058  0.8906
   27CHL1   H20 3155   1.722   1.906   5.611  1.7258 -0.8235  0.7748
   27CHL1   C21 3156   1.526   1.806   5.648 -0.3166  0.3840  0.3253
   27CHL1  H21A 3157   1.512   1.872   5.736  0.4022  1.1016 -0.0869
   27CHL1  H21B 3158   1.479   1.707   5.667  1.7112 -0.2841  2.3795
   27CHL1  H21C 3159   1.476   1.860   5.565  1.4716  0.3883 -0.7950
   27CHL1   C22 3160   1.693   1.760   5.458  0.2583 -0.1636 -1.1500
   27CHL1  H22A 3161   1.802   1.747   5.439  0.1533 -0.0967 -1.8355
   27CHL1  H22B 3162   1.649   1.658   5.446 -0.0415 -0.3203  0.8880
   27CHL1   C23 3163   1.622   1.862   5.363  0.6255  0.4464 -0.8803
   27CHL1  H23A 3164   1.512   1.845   5.368  0.5156 -0.5820 -4.2200
   27CHL1  H23B 3165   1.651   1.964   5.398  2.1132 -0.1251 -0.3767
   27CHL1   C24 3166   1.647   1.850   5.214  0.1974 -0.1355 -0.3988
   27CHL1  H24A 3167   1.753   1.882   5.203  0.2068  0.7939  1.8733
   27CHL1  H24B 3168   1.639   1.741   5.192  1.3650 -0.4400  0.6073
   27CHL1   C25 3169   1.548   1.930   5.131  0.6052  0.3041  0.2249
   27CHL1   H25 3170   1.449   1.887   5.156 -0.4872  2.1287 -0.7112
   27CHL1   C26 3171   1.541   2.072   5.159  0.9292  0.1961 -0.2768
   27CHL1  H26A 3172   1.635   2.128   5.139  0.7157  2.2447  3.6058
   27CHL1  H26B 3173   1.473   2.128   5.092  1.4450  0.4268 -0.6212
   27CHL1  H26C 3174   1.505   2.106   5.258  3.7794  2.2488  0.2103
   27CHL1   C27 3175   1.578   1.913   4.977 -0.0003 -0.0647  0.5128
   27CHL1  H27A 3176   1.485   1.930   4.918 -1.0376  0.1391  2.1412
   27CHL1  H27B 3177   1.626   1.815   4.956 -1.1507 -0.2612 -1.5109
   27CHL1  H27C 3178   1.654   1.990   4.954 -0.6481  0.1521 -1.0189
   28CHL1    C3 3179   6.633   3.073   6.443  0.8060 -0.2479  0.1471
   28CHL1    H3 3180   6.541   3.012   6.427  1.4920 -1.6920  1.3981
   28CHL1    O3 3181   6.648   3.096   6.585 -0.3326 -0.1966 -0.0521
   28CHL1   H3' 3182   6.732   3.140   6.601 -0.9963  0.8269  0.7870
   28CHL1    C4 3183   6.745   2.989   6.391 -0.2421 -0.0190 -0.3262
   28CHL1   H4A 3184   6.845   3.036   6.404 -0.5274  0.2201  1.1816
   28CHL1   H4B 3185   6.746   2.898   6.455  1.4958  0.3520  0.2364
   28CHL1    C5 3186   6.718   2.949   6.255  0.0379 -0.3183  0.1804
   28CHL1    C6 3187   6.700   2.816   6.220 -0.8247 -0.1944 -0.6883
   28CHL1    H6 3188   6.710   2.734   6.292 -2.1046 -0.0482 -0.3072
   28CHL1    C7 3189   6.668   2.776   6.079  0.0751  0.5443 -0.0851
   28CHL1   H7A 3190   6.721   2.680   6.063  0.6736  1.1604 -2.0517
   28CHL1   H7B 3191   6.559   2.767   6.063  0.0718 -2.0238  0.9533
   28CHL1    C8 3192   6.709   2.890   5.981  0.1844 -0.0107 -0.0565
   28CHL1    H8 3193   6.820   2.899   5.987  0.1537  1.1299 -0.8967
   28CHL1   C14 3194   6.675   2.848   5.838 -0.2601 -1.0913  0.0829
   28CHL1   H14 3195   6.564   2.838   5.832 -0.5546  1.1084  0.9361
   28CHL1   C15 3196   6.733   2.717   5.789 -0.2875 -0.1560 -0.5983
   28CHL1  H15A 3197   6.843   2.719   5.807 -0.3312 -0.6417 -0.2734
   28CHL1  H15B 3198   6.684   2.628   5.832  1.2307 -1.7439 -2.0274
   28CHL1   C16 3199   6.706   2.727   5.637  0.2385  0.1509  0.1350
   28CHL1  H16A 3200   6.793   2.687   5.581 -0.4558 -1.0253 -0.1419
   28CHL1  H16B 3201   6.614   2.670   5.611 -0.7708  0.9073  1.8687
   28CHL1   C17 3202   6.674   2.876   5.603 -0.4617  0.0953  0.5479
   28CHL1   H17 3203   6.565   2.885   5.582 -0.0528  2.6017 -0.8627
   28CHL1   C13 3204   6.713   2.956   5.731  0.3274 -0.1305 -0.6498
   28CHL1   C18 3205   6.871   2.981   5.735  0.7074 -0.2235  0.1604
   28CHL1  H18A 3206   6.901   3.003   5.840  0.1904 -0.4176  0.3481
   28CHL1  H18B 3207   6.931   2.890   5.716 -1.2970 -1.3818 -0.9471
   28CHL1  H18C 3208   6.892   3.071   5.673  1.2384 -0.5363 -0.1265
   28CHL1   C12 3209   6.628   3.080   5.760 -0.1981  0.3991 -0.6304
   28CHL1  H12A 3210   6.638   3.164   5.688  0.2342  2.0196  1.2403
   28CHL1  H12B 3211   6.524   3.040   5.762  0.4325 -1.2870  1.8319
   28CHL1   C11 3212   6.655   3.134   5.905  0.1389  0.1256  0.2625
   28CHL1  H11A 3213   6.755   3.176   5.883  0.4924 -1.0176 -0.4440
   28CHL1  H11B 3214   6.587   3.218   5.929 -0.6469 -0.8224  1.4697
   28CHL1    C9 3215   6.656   3.026   6.021 -0.4553  0.1087  0.2084
   28CHL1    H9 3216   6.549   3.000   6.034 -0.1940  0.3822  3.8302
   28CHL1   C10 3217   6.706   3.072   6.160 -0.0660  0.3892  0.0789
   28CHL1   C19 3218   6.842   3.139   6.137  0.5214 -0.5871 -0.7182
   28CHL1  H19A 3219   6.822   3.237   6.089 -0.1559 -0.8500 -0.9932
   28CHL1  H19B 3220   6.899   3.156   6.231  1.5487  0.5968 -1.5247
   28CHL1  H19C 3221   6.901   3.079   6.065  1.2155 -0.9054  0.1090
   28CHL1    C1 3222   6.605   3.176   6.224  0.2845 -0.1074  0.4387
   28CHL1   H1A 3223   6.609   3.269   6.164 -0.0536 -0.6175 -0.3929
   28CHL1   H1B 3224   6.506   3.129   6.211 -0.6394  1.8832 -0.1266
   28CHL1    C2 3225   6.630   3.203   6.373 -0.2251  0.0064 -0.4444
   28CHL1   H2A 3226   6.548   3.263   6.418 -0.2132  0.2732 -0.7767
   28CHL1   H2B 3227   6.725   3.259   6.388 -0.4935  0.4322 -0.3185
   28CHL1   C20 3228   6.744   2.923   5.476 -0.9205  0.3674 -0.4791
   28CHL1   H20 3229   6.855   2.925   5.485 -0.8759 -0.6409 -0.7103
   28CHL1   C21 3230   6.699   3.062   5.443  0.6838  0.6644 -0.1507
   28CHL1  H21A 3231   6.736   3.140   5.514 -0.4853  0.1419  1.0755
   28CHL1  H21B 3232   6.590   3.077   5.432  0.9173  2.5514 -0.2957
   28CHL1  H21C 3233   6.742   3.090   5.344  1.2589 -0.3662 -0.2093
   28CHL1   C22 3234   6.723   2.832   5.355 -0.0961  0.6979  0.7679
   28CHL1  H22A 3235   6.723   2.725   5.386  2.6288  0.3172 -0.2325
   28CHL1  H22B 3236   6.623   2.859   5.313  0.9357  3.0417 -0.3526
   28CHL1   C23 3237   6.827   2.863   5.240 -0.4036  0.1892  0.0745
   28CHL1  H23A 3238   6.825   2.963   5.190 -0.0912  0.2406  0.1599
   28CHL1  H23B 3239   6.927   2.842   5.284 -1.8579 -2.5066  2.3617
   28CHL1   C24 3240   6.802   2.771   5.113  0.8931  0.1725  0.1596
   28CHL1  H24A 3241   6.794   2.669   5.156  0.9059 -0.0961 -0.4625
   28CHL1  H24B 3242   6.709   2.807   5.064 -0.2024  0.9168  2.6391
   28CHL1   C25 3243   6.921   2.774   5.004 -0.7330  1.0009  0.1275
   28CHL1   H25 3244   7.010   2.727   5.050 -0.9664  0.5893  0.1680
   28CHL1   C26 3245   6.882   2.690   4.885  0.0651 -0.0085  1.4595
   28CHL1  H26A 3246   6.783   2.721   4.844 -0.3287 -0.0113  2.3769
   28CHL1  H26B 3247   6.954   2.696   4.800 -1.9437 -0.9677 -0.4221
   28CHL1  H26C 3248   6.869   2.581   4.900 -1.3522 -0.0982 -0.0583
   28CHL1   C27 3249   6.966   2.910   4.960  0.9033 -0.1298 -0.2540
   28CHL1  H27A 3250   7.016   2.962   5.044 -0.0183 -0.8089  0.7355
   28CHL1  H27B 3251   7.030   2.911   4.869  0.3271  1.1518 -0.6690
   28CHL1  H27C 3252   6.873   2.968   4.944  0.0496 -1.7455 -1.4350
   29CHL1    C3 3253   3.800   4.943   6.319 -0.7236  0.1774 -0.1555
   29CHL1    H3 3254   3.901   4.920   6.279 -0.8202  1.3203 -1.1322
   29CHL1    O3 3255   3.829   4.980   6.459 -0.6545 -0.2749 -0.3685
   29CHL1   H3' 3256   3.871   5.065   6.447 -0.8455 -0.1019  0.1423
   29CHL1    C4 3257   3.747   5.070   6.253  0.0993  0.7293  0.1521
   29CHL1   H4A 3258   3.655   5.095   6.311  1.0285  2.4013  0.9995
   29CHL1   H4B 3259   3.813   5.158   6.268  2.0727 -0.9225  1.6837
   29CHL1    C5 3260   3.699   5.046   6.106  0.2773  0.1059 -0.4504
   29CHL1    C6 3261   3.745   5.136   6.018 -0.4162  0.4264 -0.1768
   29CHL1    H6 3262   3.802   5.225   6.049 -2.1578  1.5044  0.0418
   29CHL1    C7 3263   3.719   5.130   5.869 -0.2854  0.3314 -0.2427
   29CHL1   H7A 3264   3.699   5.235   5.837 -0.1353 -0.0824 -1.7503
   29CHL1   H7B 3265   3.811   5.102   5.814 -0.1703  0.7458 -0.2636
   29CHL1    C8 3266   3.607   5.022   5.838 -0.1225 -0.2637  0.4997
   29CHL1    H8 3267   3.510   5.075   5.848  0.4364  1.3956 -1.8489
   29CHL1   C14 3268   3.613   4.978   5.693  0.3020  0.0526 -0.0771
   29CHL1   H14 3269   3.710   4.925   5.690 -0.1319 -0.7793  0.1468
   29CHL1   C15 3270   3.632   5.085   5.581 -0.2014  0.3094  0.6777
   29CHL1  H15A 3271   3.552   5.162   5.584  0.4390  1.1055 -1.0220
   29CHL1  H15B 3272   3.730   5.136   5.586 -0.4247  1.2013 -1.9732
   29CHL1   C16 3273   3.616   5.004   5.448  0.1388  0.6684 -1.2119
   29CHL1  H16A 3274   3.545   5.069   5.393 -3.0652 -1.2170  0.3980
   29CHL1  H16B 3275   3.717   4.983   5.405  1.6265 -0.9132  2.5578
   29CHL1   C17 3276   3.560   4.867   5.492 -0.0466 -0.1614  0.0028
   29CHL1   H17 3277   3.645   4.796   5.495 -1.6515 -2.1504  1.4471
   29CHL1   C13 3278   3.507   4.888   5.636  0.8585 -0.9485 -0.0480
   29CHL1   C18 3279   3.377   4.972   5.631  0.0777 -0.0346 -0.1664
   29CHL1  H18A 3280   3.297   4.906   5.593  2.4462 -2.3812 -1.4528
   29CHL1  H18B 3281   3.348   5.009   5.731 -0.9324  2.0798 -1.1766
   29CHL1  H18C 3282   3.387   5.046   5.548 -1.3227  0.2203 -0.1335
   29CHL1   C12 3283   3.498   4.768   5.729 -0.8317  0.4358 -0.0800
   29CHL1  H12A 3284   3.408   4.707   5.704  0.5574 -1.0465 -1.7990
   29CHL1  H12B 3285   3.583   4.705   5.693 -1.2377 -1.7381  2.5023
   29CHL1   C11 3286   3.506   4.795   5.880 -0.5807  0.1661  0.7862
   29CHL1  H11A 3287   3.406   4.835   5.904 -1.3588 -0.7056 -0.7936
   29CHL1  H11B 3288   3.512   4.696   5.930  1.0055 -0.3426 -0.3228
   29CHL1    C9 3289   3.619   4.896   5.925 -0.5116  0.1343  0.0095
   29CHL1    H9 3290   3.714   4.843   5.903 -1.4136 -0.9560 -1.5007
   29CHL1   C10 3291   3.620   4.919   6.084  0.0114  0.6176  0.2452
   29CHL1   C19 3292   3.471   4.955   6.132 -0.2647  0.3417  0.3896
   29CHL1  H19A 3293   3.431   5.034   6.064 -1.6875 -0.5262  0.1944
   29CHL1  H19B 3294   3.396   4.873   6.132  0.8417 -0.7054  1.5556
   29CHL1  H19C 3295   3.468   4.999   6.234 -1.1926 -2.0152  1.4353
   29CHL1    C1 3296   3.666   4.794   6.163 -0.0839  0.1760  0.4343
   29CHL1   H1A 3297   3.591   4.712   6.161 -1.1685  1.1477 -0.7387
   29CHL1   H1B 3298   3.761   4.762   6.114 -0.0099  0.6901  0.2319
   29CHL1    C2 3299   3.703   4.825   6.309 -0.5952 -0.7898 -0.2696
   29CHL1   H2A 3300   3.750   4.740   6.364  0.9073 -0.5375 -1.1112
   29CHL1   H2B 3301   3.610   4.852   6.363 -0.2430  2.5411 -1.1375
   29CHL1   C20 3302   3.457   4.812   5.394  0.1345  0.4926 -0.5245
   29CHL1   H20 3303   3.368   4.879   5.396 -1.9095 -1.9985  2.6278
   29CHL1   C21 3304   3.404   4.670   5.434  0.2777  0.0195  0.0629
   29CHL1  H21A 3305   3.367   4.630   5.337 -0.4993  1.8043 -0.4128
   29CHL1  H21B 3306   3.330   4.666   5.517  1.3575  0.2734  1.0495
   29CHL1  H21C 3307   3.489   4.605   5.465  0.0881 -0.8596 -1.1582
   29CHL1   C22 3308   3.501   4.814   5.247  0.5879  0.3371 -0.2218
   29CHL1  H22A 3309   3.554   4.909   5.224  0.8889  0.7045  1.8075
   29CHL1  H22B 3310   3.561   4.723   5.221  1.1063  0.8926 -1.0124
   29CHL1   C23 3311   3.388   4.802   5.145  0.9534 -0.4404  0.1396
   29CHL1  H23A 3312   3.415   4.778   5.040  1.6500  0.5571  0.0711
   29CHL1  H23B 3313   3.308   4.737   5.185  0.9640 -0.5477 -0.0127
   29CHL1   C24 3314   3.311   4.935   5.129  0.6419  0.5818 -0.8925
   29CHL1  H24A 3315   3.275   4.969   5.229 -2.4097 -3.2937 -0.4531
   29CHL1  H24B 3316   3.393   5.007   5.105 -0.3673  2.6293  1.3390
   29CHL1   C25 3317   3.192   4.935   5.033  0.6852 -0.1394  0.1533
   29CHL1   H25 3318   3.235   4.904   4.936  1.5871  0.5349  0.3261
   29CHL1   C26 3319   3.077   4.853   5.079 -0.0726  0.5495 -0.4677
   29CHL1  H26A 3320   3.101   4.745   5.092  0.3566  0.6420 -0.4882
   29CHL1  H26B 3321   3.053   4.890   5.181 -0.4807  1.4934 -0.9040
   29CHL1  H26C 3322   2.987   4.859   5.014 -1.1098  0.8519  0.9298
   29CHL1   C27 3323   3.144   5.083   5.016  0.1221 -0.5789 -0.9696
   29CHL1  H27A 3324   3.125   5.118   5.120 -0.2807 -1.3191 -0.7892
   29CHL1  H27B 3325   3.230   5.140   4.976  0.0049  0.0569 -0.3399
   29CHL1  H27C 3326   3.055   5.095   4.951 -1.0227 -0.0278  0.6275
   30CHL1    C3 3327   5.235   5.253   6.275  0.1392 -0.0102 -0.0398
   30CHL1    H3 3328   5.129   5.221   6.277  0.3330 -0.6530  1.3872
   30CHL1    O3 3329   5.256   5.315   6.406 -0.1414 -0.5666  0.2498
   30CHL1   H3' 3330   5.344   5.354   6.411 -0.2289 -0.4421  0.9033
   30CHL1    C4 3331   5.336   5.140   6.248  1.1482  0.2407 -0.4055
   30CHL1   H4A 3332   5.439   5.179   6.260  1.3558 -0.8815  2.2593
   30CHL1   H4B 3333   5.310   5.068   6.329 -1.7357  2.0497  0.4166
   30CHL1    C5 3334   5.297   5.078   6.113  0.2991  0.4754  0.5352
   30CHL1    C6 3335   5.244   4.954   6.103  0.8124  0.7559 -0.1307
   30CHL1    H6 3336   5.231   4.893   6.195  0.1200  0.3861 -0.4623
   30CHL1    C7 3337   5.218   4.888   5.967  0.5706  0.9680 -0.7761
   30CHL1   H7A 3338   5.242   4.780   5.964  0.3923  0.9272 -0.7549
   30CHL1   H7B 3339   5.108   4.884   5.951  0.2930  0.6482  0.9945
   30CHL1    C8 3340   5.280   4.966   5.845  0.7248  0.2173  0.1417
   30CHL1    H8 3341   5.389   4.948   5.839  0.7685  0.8350 -1.7203
   30CHL1   C14 3342   5.209   4.918   5.721 -0.8342 -0.6038 -0.1544
   30CHL1   H14 3343   5.106   4.955   5.738 -0.2644  0.5427  0.9656
   30CHL1   C15 3344   5.201   4.765   5.688 -0.6500 -0.1672  0.0921
   30CHL1  H15A 3345   5.305   4.727   5.688 -0.5025  0.0652 -2.6292
   30CHL1  H15B 3346   5.130   4.718   5.759 -0.1402  0.9411  1.3874
   30CHL1   C16 3347   5.145   4.758   5.542 -0.4304  0.9478  0.0014
   30CHL1  H16A 3348   5.217   4.693   5.488 -0.7422 -0.8936  1.6837
   30CHL1  H16B 3349   5.045   4.710   5.533 -0.4329  1.1528 -1.2414
   30CHL1   C17 3350   5.156   4.904   5.493  0.5585 -0.6967  0.8817
   30CHL1   H17 3351   5.057   4.949   5.517 -0.7384  0.0367 -4.6010
   30CHL1   C13 3352   5.251   4.983   5.589 -0.3296 -0.4840  0.8003
   30CHL1   C18 3353   5.395   4.958   5.549 -0.1801 -0.0277  0.7066
   30CHL1  H18A 3354   5.421   5.009   5.454  2.4811 -0.6295  1.0319
   30CHL1  H18B 3355   5.469   4.996   5.623  0.8516 -0.0568 -0.3011
   30CHL1  H18C 3356   5.426   4.852   5.537  2.9896  0.8534  0.3206
   30CHL1   C12 3357   5.233   5.135   5.603 -0.6301  0.4850 -0.2710
   30CHL1  H12A 3358   5.284   5.190   5.521  0.2549 -1.8281 -1.3511
   30CHL1  H12B 3359   5.124   5.153   5.595 -0.9194 -0.2660  1.5732
   30CHL1   C11 3360   5.288   5.189   5.736  0.2690 -0.5803  0.5826
   30CHL1  H11A 3361   5.399   5.191   5.730  0.3160  2.1021  1.0935
   30CHL1  H11B 3362   5.265   5.297   5.746  1.2309 -0.1976 -0.9938
   30CHL1    C9 3363   5.250   5.116   5.867  0.8624  0.6234  0.3628
   30CHL1    H9 3364   5.140   5.135   5.876  1.2758  4.1797 -0.4053
   30CHL1   C10 3365   5.313   5.176   5.996 -0.2788  0.4663 -0.1054
   30CHL1   C19 3366   5.465   5.195   5.975  0.5672  0.2066 -0.0859
   30CHL1  H19A 3367   5.509   5.121   5.905 -0.0843 -1.2620  1.0082
   30CHL1  H19B 3368   5.477   5.291   5.920 -2.6707  1.1077  0.5505
   30CHL1  H19C 3369   5.534   5.196   6.062 -0.2289  0.8370  0.5463
   30CHL1    C1 3370   5.240   5.305   6.024 -0.7892 -0.0218  0.2249
   30CHL1   H1A 3371   5.282   5.382   5.956  1.2501  1.2234  2.7379
   30CHL1   H1B 3372   5.130   5.301   6.009 -0.7960 -1.5292  0.5042
   30CHL1    C2 3373   5.251   5.361   6.167 -0.4202  0.3008 -0.5501
   30CHL1   H2A 3374   5.172   5.436   6.187 -0.2392 -0.0681  1.9849
   30CHL1   H2B 3375   5.354   5.399   6.188  0.6278 -2.5686  0.1144
   30CHL1   C20 3376   5.177   4.924   5.342 -0.0032 -0.1343  0.0605
   30CHL1   H20 3377   5.223   5.025   5.331 -0.4469 -0.0984 -1.9177
   30CHL1   C21 3378   5.040   4.930   5.275  0.2670 -0.7755  0.8192
   30CHL1  H21A 3379   5.047   4.956   5.168  0.1416  0.5603  1.1260
   30CHL1  H21B 3380   4.987   5.014   5.325  0.9580  0.5131 -0.5395
   30CHL1  H21C 3381   4.983   4.834   5.279 -1.1656  0.0695  1.1716
   30CHL1   C22 3382   5.270   4.827   5.269  0.3638  0.1602  0.1956
   30CHL1  H22A 3383   5.360   4.810   5.331  2.1415 -0.8818 -2.4821
   30CHL1  H22B 3384   5.211   4.732   5.267  0.6830 -0.0331 -1.1042
   30CHL1   C23 3385   5.315   4.855   5.124 -0.1929 -0.3480  0.3064
   30CHL1  H23A 3386   5.224   4.860   5.060  0.5128 -0.3188 -0.7165
   30CHL1  H23B 3387   5.359   4.957   5.117 -1.1798  0.0247 -0.6160
   30CHL1   C24 3388   5.421   4.753   5.083  0.4868  0.1157 -0.4263
   30CHL1  H24A 3389   5.503   4.764   5.158  1.4212  2.0251 -1.6693
   30CHL1  H24B 3390   5.381   4.650   5.078  1.2257 -0.1427 -1.3914
   30CHL1   C25 3391   5.486   4.779   4.951 -0.7887  0.4118 -0.2534
   30CHL1   H25 3392   5.552   4.867   4.963 -2.0205  1.4037 -0.4714
   30CHL1   C26 3393   5.579   4.658   4.920 -0.2575  0.4588 -0.0713
   30CHL1  H26A 3394   5.648   4.633   5.004  0.3045  0.4480 -0.5229
   30CHL1  H26B 3395   5.523   4.564   4.898  0.9767  0.3796 -3.4465
   30CHL1  H26C 3396   5.634   4.680   4.826  0.7400 -0.3281  0.3088
   30CHL1   C27 3397   5.389   4.791   4.836 -0.8457 -0.3676 -0.5962
   30CHL1  H27A 3398   5.306   4.865   4.840  1.8565  2.8199  0.3772
   30CHL1  H27B 3399   5.446   4.818   4.745  2.2957  2.4695  1.9535
   30CHL1  H27C 3400   5.338   4.694   4.816  0.5065 -1.6744  1.7968
   31CHL1    C3 3401   4.810   4.908   6.408  0.1947 -0.3269  0.0211
   31CHL1    H3 3402   4.813   5.010   6.363  1.4188 -0.7501 -0.9183
   31CHL1    O3 3403   4.832   4.916   6.549  0.0919 -0.6909  0.8510
   31CHL1   H3' 3404   4.764   4.976   6.581 -1.1095 -1.2956 -0.4628
   31CHL1    C4 3405   4.679   4.842   6.374  0.5877  0.0738  0.2102
   31CHL1   H4A 3406   4.677   4.739   6.416 -0.8173  0.7255  1.8927
   31CHL1   H4B 3407   4.599   4.906   6.417  0.8355 -0.4014  1.4293
   31CHL1    C5 3408   4.662   4.825   6.223  0.0078 -0.1810  0.0260
   31CHL1    C6 3409   4.551   4.875   6.168 -0.6983 -0.1475  0.2649
   31CHL1    H6 3410   4.483   4.932   6.234 -0.1446 -1.5050  2.0906
   31CHL1    C7 3411   4.509   4.856   6.023  0.5296 -0.4532 -0.1796
   31CHL1   H7A 3412   4.403   4.824   6.022 -0.3057  1.7309  3.1581
   31CHL1   H7B 3413   4.511   4.953   5.969  2.4394 -0.7595 -0.7239
   31CHL1    C8 3414   4.598   4.755   5.945 -0.0136 -0.0235 -1.5855
   31CHL1    H8 3415   4.560   4.654   5.971 -1.9164  1.2390  1.0139
   31CHL1   C14 3416   4.571   4.764   5.798 -0.3624  0.1440 -0.4462
   31CHL1   H14 3417   4.584   4.870   5.769 -1.1814  0.1950 -0.6598
   31CHL1   C15 3418   4.428   4.736   5.748 -0.3655 -0.6571 -0.0048
   31CHL1  H15A 3419   4.384   4.646   5.796  2.0861 -1.5155  0.8153
   31CHL1  H15B 3420   4.374   4.830   5.774 -0.4463 -0.8860  0.6815
   31CHL1   C16 3421   4.447   4.708   5.601  0.6980  0.7473  0.5231
   31CHL1  H16A 3422   4.405   4.608   5.577  2.3176  0.7762 -3.0888
   31CHL1  H16B 3423   4.399   4.783   5.535  1.0826 -0.3089 -1.0074
   31CHL1   C17 3424   4.600   4.710   5.578 -0.1275  0.2814  0.1652
   31CHL1   H17 3425   4.626   4.816   5.558  2.3234 -0.6492 -2.3008
   31CHL1   C13 3426   4.667   4.675   5.711  0.1287  0.9525 -0.6927
   31CHL1   C18 3427   4.640   4.524   5.743 -0.1165  0.5457  0.5563
   31CHL1  H18A 3428   4.701   4.495   5.831  1.7281 -1.6787 -1.3151
   31CHL1  H18B 3429   4.534   4.499   5.765  0.4318 -2.4067  0.3222
   31CHL1  H18C 3430   4.668   4.449   5.666  0.2502  0.0317  1.1777
   31CHL1   C12 3431   4.816   4.715   5.743  0.0071  0.3613 -0.0503
   31CHL1  H12A 3432   4.893   4.661   5.685 -0.2610 -0.7652  0.6118
   31CHL1  H12B 3433   4.814   4.825   5.722  1.5076 -0.0261 -2.5632
   31CHL1   C11 3434   4.851   4.703   5.893  0.2039  0.2558  0.2713
   31CHL1  H11A 3435   4.862   4.595   5.912  0.9752 -0.2249 -2.5774
   31CHL1  H11B 3436   4.952   4.745   5.914  0.7646 -1.4868  1.2487
   31CHL1    C9 3437   4.745   4.770   5.986 -0.0142 -0.2290  0.2995
   31CHL1    H9 3438   4.767   4.878   5.976 -0.6849 -0.1233  0.0069
   31CHL1   C10 3439   4.775   4.750   6.141  0.3049  0.4004  0.1541
   31CHL1   C19 3440   4.763   4.602   6.175  0.0412  0.6235 -0.9787
   31CHL1  H19A 3441   4.790   4.585   6.282 -1.1695 -1.1989 -0.9135
   31CHL1  H19B 3442   4.659   4.567   6.156  0.5331 -0.8719 -1.0104
   31CHL1  H19C 3443   4.826   4.540   6.108  0.3911 -0.4504  0.3014
   31CHL1    C1 3444   4.910   4.806   6.193  0.0247  0.3999  0.2620
   31CHL1   H1A 3445   4.989   4.746   6.143  0.2090  1.0796 -0.2814
   31CHL1   H1B 3446   4.919   4.909   6.152  2.5571  0.1853  0.1230
   31CHL1    C2 3447   4.920   4.812   6.348 -0.5582  0.2731 -0.0296
   31CHL1   H2A 3448   5.020   4.853   6.376  0.5390 -2.2186  0.0140
   31CHL1   H2B 3449   4.924   4.716   6.403 -0.3314 -0.9762 -2.1012
   31CHL1   C20 3450   4.636   4.627   5.447  0.5159 -0.5942  0.2887
   31CHL1   H20 3451   4.605   4.522   5.465 -2.7206  0.3946  1.0695
   31CHL1   C21 3452   4.783   4.632   5.422 -0.0453 -0.2379 -0.5919
   31CHL1  H21A 3453   4.836   4.560   5.488  0.2118  0.0363 -0.4970
   31CHL1  H21B 3454   4.813   4.734   5.455 -1.3394 -0.7815  2.7530
   31CHL1  H21C 3455   4.821   4.618   5.319  1.3146 -0.7191 -0.0554
   31CHL1   C22 3456   4.561   4.689   5.328  0.1371 -0.6089  0.2957
   31CHL1  H22A 3457   4.454   4.697   5.358  0.5438 -0.8896  1.9161
   31CHL1  H22B 3458   4.583   4.795   5.306 -1.6036 -0.1590  0.5289
   31CHL1   C23 3459   4.564   4.597   5.201 -0.7869  0.1034  0.0006
   31CHL1  H23A 3460   4.670   4.613   5.168 -0.7123 -2.0908 -1.0050
   31CHL1  H23B 3461   4.545   4.490   5.223 -0.5338 -0.4520 -2.2378
   31CHL1   C24 3462   4.468   4.644   5.088  0.0997 -0.3895  0.3079
   31CHL1  H24A 3463   4.361   4.623   5.108 -0.3119  1.4087  0.0914
   31CHL1  H24B 3464   4.491   4.751   5.069  0.4946 -0.3918  0.7329
   31CHL1   C25 3465   4.495   4.571   4.952 -0.2900  0.1246 -0.5798
   31CHL1   H25 3466   4.592   4.612   4.916 -0.3274 -0.1113 -0.9491
   31CHL1   C26 3467   4.515   4.417   4.968  0.1944 -0.4724  0.3961
   31CHL1  H26A 3468   4.543   4.377   4.868 -0.6407 -2.6187  0.9649
   31CHL1  H26B 3469   4.597   4.382   5.033  0.4150 -3.3240 -1.2575
   31CHL1  H26C 3470   4.415   4.375   4.992 -0.9355  1.7859 -0.0755
   31CHL1   C27 3471   4.391   4.606   4.840  0.5142  0.0255  0.2923
   31CHL1  H27A 3472   4.301   4.543   4.858  0.0248 -0.1329 -2.2977
   31CHL1  H27B 3473   4.365   4.714   4.844  0.4228 -0.0106  0.7019
   31CHL1  H27C 3474   4.431   4.574   4.742 -2.6372 -2.7724 -0.2935
   32CHL1    C3 3475   3.706   3.394   6.334 -0.2013  0.0491 -0.4884
   32CHL1    H3 3476   3.761   3.322   6.271 -0.2755 -1.3894  1.0220
   32CHL1    O3 3477   3.711   3.350   6.470  0.0899 -0.1000  0.1124
   32CHL1   H3' 3478   3.802   3.365   6.498 -0.1204  2.2352 -0.2529
   32CHL1    C4 3479   3.791   3.522   6.317  0.4214 -0.3647  0.0872
   32CHL1   H4A 3480   3.755   3.594   6.393  1.8583 -0.7714  1.1984
   32CHL1   H4B 3481   3.899   3.506   6.341 -0.0363 -0.7778  2.0385
   32CHL1    C5 3482   3.777   3.586   6.178  0.4911 -0.7169 -0.1277
   32CHL1    C6 3483   3.876   3.612   6.101 -0.2676  0.7344  0.4267
   32CHL1    H6 3484   3.974   3.588   6.145  0.0391 -0.4073 -0.8251
   32CHL1    C7 3485   3.882   3.680   5.971  0.0278 -0.5332  0.5274
   32CHL1   H7A 3486   3.960   3.759   5.967 -1.0760  0.5376 -1.4842
   32CHL1   H7B 3487   3.904   3.608   5.890  1.4493  1.0889 -0.5958
   32CHL1    C8 3488   3.747   3.748   5.935  0.0811  0.3240 -0.0046
   32CHL1    H8 3489   3.744   3.840   5.998  2.0798  0.1012  0.4702
   32CHL1   C14 3490   3.741   3.777   5.786  0.1189 -0.5820 -0.1624
   32CHL1   H14 3491   3.733   3.676   5.739 -1.5657  0.1051 -1.4611
   32CHL1   C15 3492   3.865   3.855   5.727 -0.1248 -0.2350  0.0324
   32CHL1  H15A 3493   3.893   3.951   5.776 -0.7278  0.3606 -0.7609
   32CHL1  H15B 3494   3.956   3.793   5.716 -0.7593 -1.3621  0.9219
   32CHL1   C16 3495   3.809   3.898   5.589  0.1996 -0.1415 -0.3959
   32CHL1  H16A 3496   3.813   4.009   5.584 -0.1850 -0.1230 -0.3136
   32CHL1  H16B 3497   3.862   3.845   5.507 -0.6184 -1.6247  0.0073
   32CHL1   C17 3498   3.654   3.870   5.593 -0.1885  1.0599 -0.4369
   32CHL1   H17 3499   3.651   3.771   5.542  0.6906  0.4265  0.7101
   32CHL1   C13 3500   3.614   3.854   5.745 -0.9527  0.4770  0.1329
   32CHL1   C18 3501   3.602   3.989   5.819 -0.8267  0.1784  0.1711
   32CHL1  H18A 3502   3.528   4.053   5.766 -0.8518 -0.5041 -0.6299
   32CHL1  H18B 3503   3.587   3.979   5.929 -1.2455  0.6137  0.1590
   32CHL1  H18C 3504   3.694   4.052   5.817 -0.5968 -0.1727 -0.5687
   32CHL1   C12 3505   3.503   3.751   5.772 -0.1398  1.1090 -0.1661
   32CHL1  H12A 3506   3.406   3.792   5.736 -1.6741  0.8241  3.2703
   32CHL1  H12B 3507   3.517   3.658   5.713 -0.7280 -0.2041  1.6665
   32CHL1   C11 3508   3.490   3.710   5.920  0.3809  0.6008  0.2518
   32CHL1  H11A 3509   3.453   3.798   5.977 -3.9631 -0.7034 -0.1935
   32CHL1  H11B 3510   3.414   3.629   5.924 -0.3930  1.3072  0.0766
   32CHL1    C9 3511   3.627   3.661   5.975 -0.5926 -0.0656 -0.5478
   32CHL1    H9 3512   3.647   3.564   5.924  1.2005 -0.3172  0.5289
   32CHL1   C10 3513   3.635   3.620   6.130 -0.2219  0.2819 -0.3154
   32CHL1   C19 3514   3.577   3.730   6.224  0.4009  0.4358  1.2435
   32CHL1  H19A 3515   3.472   3.751   6.195  1.1020  2.1361 -0.2009
   32CHL1  H19B 3516   3.593   3.713   6.333  0.6123  0.2024  1.1789
   32CHL1  H19C 3517   3.634   3.821   6.196  1.6478 -0.3522  1.1046
   32CHL1    C1 3518   3.556   3.488   6.149  0.1655 -0.6325  0.1439
   32CHL1   H1A 3519   3.454   3.527   6.125  1.3344  1.8821 -1.1380
   32CHL1   H1B 3520   3.587   3.418   6.068 -1.4011  0.2899 -1.3295
   32CHL1    C2 3521   3.558   3.412   6.284 -0.5590  0.7806 -0.0236
   32CHL1   H2A 3522   3.514   3.311   6.271 -2.1291  1.4739 -0.2779
   32CHL1   H2B 3523   3.511   3.471   6.366 -0.7526  0.7556 -0.1176
   32CHL1   C20 3524   3.568   3.959   5.506  0.4117 -0.1398  0.6681
   32CHL1   H20 3525   3.543   4.045   5.572  0.7414 -0.4746  1.2409
   32CHL1   C21 3526   3.437   3.894   5.468 -0.5845 -0.0294 -0.2755
   32CHL1  H21A 3527   3.385   3.965   5.401 -1.1062  0.7069  0.8766
   32CHL1  H21B 3528   3.369   3.870   5.552 -2.8540  1.5073 -1.5628
   32CHL1  H21C 3529   3.457   3.803   5.406  2.2785  0.4762 -0.2178
   32CHL1   C22 3530   3.631   4.011   5.372  0.4060 -0.0988  0.1911
   32CHL1  H22A 3531   3.741   4.022   5.383  0.5444  0.0154 -1.1501
   32CHL1  H22B 3532   3.604   3.939   5.292  2.1839  1.1257 -1.6254
   32CHL1   C23 3533   3.573   4.147   5.325 -0.8663  0.9630  0.0026
   32CHL1  H23A 3534   3.464   4.125   5.315 -0.6303  0.3402 -1.4136
   32CHL1  H23B 3535   3.587   4.227   5.401  1.0010  0.8518 -0.1850
   32CHL1   C24 3536   3.628   4.186   5.187 -0.0786  0.7824 -0.2074
   32CHL1  H24A 3537   3.735   4.217   5.192  0.3137 -0.3505 -1.1841
   32CHL1  H24B 3538   3.619   4.085   5.143  2.1500  0.0534  0.8272
   32CHL1   C25 3539   3.551   4.293   5.103  0.2541 -0.1103 -0.7110
   32CHL1   H25 3540   3.445   4.262   5.094  0.1608  0.4691 -1.8535
   32CHL1   C26 3541   3.542   4.425   5.171 -0.2826 -0.1069 -0.5122
   32CHL1  H26A 3542   3.472   4.480   5.105  0.5427 -0.1330 -1.4257
   32CHL1  H26B 3543   3.483   4.419   5.265  0.3818  1.1058  0.0038
   32CHL1  H26C 3544   3.636   4.483   5.187  1.0345 -2.1466 -0.4348
   32CHL1   C27 3545   3.605   4.309   4.956 -0.4672  0.2141 -0.5339
   32CHL1  H27A 3546   3.542   4.373   4.891  1.0964  2.6726  0.2305
   32CHL1  H27B 3547   3.709   4.347   4.968  0.6022 -2.0194 -2.0369
   32CHL1  H27C 3548   3.613   4.209   4.907  1.4049  0.2126 -0.2739
   33CHL1    C3 3549   3.327   1.651   6.739  0.6989  0.9039  0.1677
   33CHL1    H3 3550   3.290   1.552   6.704  0.8666  1.3574 -1.3471
   33CHL1    O3 3551   3.332   1.654   6.876 -0.1279  0.0972 -0.1819
   33CHL1   H3' 3552   3.396   1.724   6.892  0.5995 -0.9143  1.6611
   33CHL1    C4 3553   3.461   1.689   6.680 -0.4579 -0.1817 -0.1362
   33CHL1   H4A 3554   3.488   1.785   6.728 -0.0638 -0.8815  1.0902
   33CHL1   H4B 3555   3.538   1.616   6.711  0.3657  1.5111  2.0443
   33CHL1    C5 3556   3.457   1.699   6.525  0.1607  0.3299  0.5085
   33CHL1    C6 3557   3.542   1.629   6.449  0.6611  0.0291  0.1865
   33CHL1    H6 3558   3.620   1.569   6.500 -0.9216  0.7602  3.7613
   33CHL1    C7 3559   3.553   1.649   6.306 -0.4128 -0.4276  0.5909
   33CHL1   H7A 3560   3.659   1.660   6.277  0.1856 -2.4436  1.7999
   33CHL1   H7B 3561   3.509   1.559   6.258 -1.3051 -0.2513  1.0513
   33CHL1    C8 3562   3.477   1.768   6.252 -0.5036 -0.5563  0.0058
   33CHL1    H8 3563   3.541   1.856   6.273 -1.3931  0.0044  0.4636
   33CHL1   C14 3564   3.461   1.772   6.104  0.6855  0.5944  0.4608
   33CHL1   H14 3565   3.395   1.688   6.073 -0.4321  1.4617  0.4230
   33CHL1   C15 3566   3.582   1.748   6.011 -0.0390 -0.8895  0.1644
   33CHL1  H15A 3567   3.665   1.803   6.060 -0.7571  2.4880 -2.0826
   33CHL1  H15B 3568   3.611   1.641   6.005 -0.3177 -0.8803 -1.9996
   33CHL1   C16 3569   3.551   1.814   5.871  0.5286  0.1960  0.3395
   33CHL1  H16A 3570   3.627   1.887   5.836 -1.2472  1.0379 -2.0287
   33CHL1  H16B 3571   3.552   1.734   5.794 -1.3319  0.0707  0.4128
   33CHL1   C17 3572   3.409   1.868   5.890 -0.2841  0.5930 -0.0115
   33CHL1   H17 3573   3.341   1.782   5.870  1.3939 -0.1464 -3.1965
   33CHL1   C13 3574   3.390   1.897   6.045 -0.1923  0.2864  0.3147
   33CHL1   C18 3575   3.478   2.019   6.074  0.1229  0.3542  0.1482
   33CHL1  H18A 3576   3.495   2.031   6.183 -1.8961 -0.0059  0.5352
   33CHL1  H18B 3577   3.579   2.024   6.027 -0.2072  3.7650 -0.4491
   33CHL1  H18C 3578   3.422   2.110   6.046 -3.6985 -1.8559 -0.0473
   33CHL1   C12 3579   3.250   1.901   6.097  0.3385  0.6382  0.0006
   33CHL1  H12A 3580   3.190   1.986   6.059 -0.2762  0.0249 -0.4382
   33CHL1  H12B 3581   3.207   1.804   6.062 -2.2291  1.4288  0.7341
   33CHL1   C11 3582   3.254   1.902   6.248  1.6211  0.0568  0.4616
   33CHL1  H11A 3583   3.304   1.997   6.278  2.0915  0.9184 -2.7147
   33CHL1  H11B 3584   3.150   1.887   6.286  1.3596  1.0390  0.1578
   33CHL1    C9 3585   3.345   1.791   6.312 -0.5436 -0.0521 -0.2258
   33CHL1    H9 3586   3.285   1.699   6.291 -0.4717 -0.0310 -0.5321
   33CHL1   C10 3587   3.348   1.799   6.471 -0.7271 -0.0402  0.3372
   33CHL1   C19 3588   3.387   1.943   6.503 -0.6612 -0.0591  0.2300
   33CHL1  H19A 3589   3.296   2.004   6.484 -0.4883  0.4341  0.9211
   33CHL1  H19B 3590   3.414   1.958   6.610 -2.9191  2.9975  0.5253
   33CHL1  H19C 3591   3.472   1.985   6.445 -0.4813 -0.1449  0.4293
   33CHL1    C1 3592   3.215   1.759   6.539  0.4170 -0.4573  0.0884
   33CHL1   H1A 3593   3.133   1.826   6.506  1.0036 -0.5471 -1.6489
   33CHL1   H1B 3594   3.177   1.661   6.505  2.7053 -1.0453 -0.9590
   33CHL1    C2 3595   3.223   1.751   6.694  0.8502 -0.1019  0.2981
   33CHL1   H2A 3596   3.130   1.704   6.731  0.6830 -0.2622 -0.3193
   33CHL1   H2B 3597   3.245   1.855   6.728  2.1905  0.0423 -0.8763
   33CHL1   C20 3598   3.374   1.966   5.777  0.4485  0.4047  0.1306
   33CHL1   H20 3599   3.442   2.053   5.789  2.1728 -1.2211  3.2818
   33CHL1   C21 3600   3.228   2.013   5.787  0.2201  0.1627  0.3738
   33CHL1  H21A 3601   3.217   2.077   5.877 -0.7549  1.3916 -0.5968
   33CHL1  H21B 3602   3.174   1.916   5.788  1.9468 -0.8499 -0.3855
   33CHL1  H21C 3603   3.207   2.065   5.691 -0.7047 -0.5601  0.1740
   33CHL1   C22 3604   3.389   1.910   5.631 -0.3303  0.2674 -0.2537
   33CHL1  H22A 3605   3.379   2.004   5.572 -0.4572  1.0664  0.9797
   33CHL1  H22B 3606   3.491   1.874   5.605 -0.6152 -0.3664 -0.5124
   33CHL1   C23 3607   3.293   1.792   5.586 -0.4618 -0.4098 -0.8937
   33CHL1  H23A 3608   3.272   1.728   5.674  1.3878 -0.5510 -0.5232
   33CHL1  H23B 3609   3.197   1.847   5.576 -1.0185 -1.3137 -0.6142
   33CHL1   C24 3610   3.321   1.715   5.459  0.0543 -0.3995  0.5059
   33CHL1  H24A 3611   3.353   1.775   5.371 -0.2185  0.0320  0.6998
   33CHL1  H24B 3612   3.397   1.635   5.473  1.2292  0.6378  0.2265
   33CHL1   C25 3613   3.189   1.638   5.404 -0.1716  0.2973  0.3928
   33CHL1   H25 3614   3.142   1.587   5.491  0.1323 -1.6425 -0.5429
   33CHL1   C26 3615   3.094   1.735   5.339 -0.5720  0.1773  0.4239
   33CHL1  H26A 3616   3.141   1.807   5.269  2.5521 -0.5711  1.5566
   33CHL1  H26B 3617   3.016   1.679   5.284  3.2633 -1.9736 -3.4339
   33CHL1  H26C 3618   3.043   1.801   5.413  0.4847  0.4598  0.9267
   33CHL1   C27 3619   3.230   1.530   5.305  0.6891  0.2895  0.0216
   33CHL1  H27A 3620   3.301   1.448   5.327  0.5495  0.0450 -0.4130
   33CHL1  H27B 3621   3.143   1.473   5.264  0.0091  2.2607 -1.4107
   33CHL1  H27C 3622   3.265   1.582   5.213 -3.1353  0.5893 -1.4416
   34CHL1    C3 3623   4.684   5.291   6.274 -0.1491  0.1487 -0.6729
   34CHL1    H3 3624   4.658   5.184   6.286  0.9601  0.1411  2.4449
   34CHL1    O3 3625   4.714   5.344   6.403 -0.6975 -0.3121 -0.5455
   34CHL1   H3' 3626   4.808   5.352   6.416 -0.8962 -0.1773  0.9887
   34CHL1    C4 3627   4.803   5.315   6.185 -0.2652 -0.2932 -0.3793
   34CHL1   H4A 3628   4.834   5.422   6.194 -2.5785  0.5178 -1.2176
   34CHL1   H4B 3629   4.887   5.252   6.220 -1.0658  0.1148  2.5493
   34CHL1    C5 3630   4.790   5.285   6.039 -0.3021  0.5519  0.1119
   34CHL1    C6 3631   4.870   5.195   5.972  0.0508 -0.1359 -0.1780
   34CHL1    H6 3632   4.961   5.156   6.018  0.5503  4.3386  3.4613
   34CHL1    C7 3633   4.839   5.166   5.825  0.3533  0.0295  0.5228
   34CHL1   H7A 3634   4.936   5.134   5.782  1.1725  1.5775  1.1336
   34CHL1   H7B 3635   4.785   5.069   5.819 -0.6358  0.6536 -1.1950
   34CHL1    C8 3636   4.739   5.249   5.747  0.7437 -0.7458 -0.2431
   34CHL1    H8 3637   4.788   5.347   5.728 -0.1410 -0.3942 -0.7950
   34CHL1   C14 3638   4.683   5.181   5.620  0.4327 -0.3370  0.4176
   34CHL1   H14 3639   4.627   5.090   5.652  0.1008 -0.6671 -1.0485
   34CHL1   C15 3640   4.783   5.127   5.523 -0.5347  0.1901 -0.0179
   34CHL1  H15A 3641   4.874   5.186   5.501 -0.0705 -1.7858 -4.5008
   34CHL1  H15B 3642   4.822   5.032   5.566 -2.4617 -0.3692  0.5873
   34CHL1   C16 3643   4.709   5.111   5.394  0.1498 -1.0075  0.4250
   34CHL1  H16A 3644   4.762   5.154   5.307 -1.8047  0.6144 -0.0360
   34CHL1  H16B 3645   4.677   5.010   5.362 -0.8728 -0.7161  0.4880
   34CHL1   C17 3646   4.567   5.184   5.423  1.0379  0.7576  0.5570
   34CHL1   H17 3647   4.500   5.107   5.467  2.0687 -0.4766  0.0137
   34CHL1   C13 3648   4.590   5.270   5.537 -0.1899 -0.8949  0.1756
   34CHL1   C18 3649   4.671   5.393   5.496 -0.5758  0.5545 -0.8252
   34CHL1  H18A 3650   4.734   5.446   5.570  1.7462 -2.7949 -0.1953
   34CHL1  H18B 3651   4.747   5.376   5.417  0.4463  1.2667 -0.0102
   34CHL1  H18C 3652   4.598   5.446   5.430 -1.7634 -1.8806 -1.5944
   34CHL1   C12 3653   4.471   5.307   5.629 -0.2236 -0.6086 -0.1463
   34CHL1  H12A 3654   4.393   5.367   5.577  1.3510  1.7831  0.0558
   34CHL1  H12B 3655   4.420   5.213   5.659 -1.5475  0.4656  1.0885
   34CHL1   C11 3656   4.512   5.380   5.762 -0.0341  0.2879 -0.2155
   34CHL1  H11A 3657   4.548   5.480   5.732  0.7255  0.1496  0.2072
   34CHL1  H11B 3658   4.424   5.391   5.829  0.4051 -1.4804  0.7252
   34CHL1    C9 3659   4.619   5.291   5.838 -0.0725 -0.1685 -0.5793
   34CHL1    H9 3660   4.562   5.198   5.859 -2.5180  1.4469  0.3347
   34CHL1   C10 3661   4.662   5.345   5.976 -0.1843  0.2314  0.3516
   34CHL1   C19 3662   4.700   5.494   5.955  0.3682  0.0387  0.3003
   34CHL1  H19A 3663   4.753   5.537   6.043 -1.8223  0.3370  1.5411
   34CHL1  H19B 3664   4.767   5.509   5.868 -1.3820  0.1390 -1.0932
   34CHL1  H19C 3665   4.607   5.552   5.933  1.2667  1.3791 -0.1265
   34CHL1    C1 3666   4.540   5.346   6.077 -1.2270 -0.2292  0.5442
   34CHL1   H1A 3667   4.459   5.415   6.044 -1.0360  0.1187  0.8040
   34CHL1   H1B 3668   4.501   5.242   6.068 -3.0053  0.5040 -0.9819
   34CHL1    C2 3669   4.564   5.371   6.222  0.2925 -0.0659  0.2857
   34CHL1   H2A 3670   4.468   5.357   6.274  0.6442  0.3883  1.0696
   34CHL1   H2B 3671   4.586   5.480   6.222 -1.9167  0.4840 -2.2678
   34CHL1   C20 3672   4.492   5.233   5.293  0.1416  0.1754  0.2709
   34CHL1   H20 3673   4.546   5.319   5.247  1.6846  0.0733  1.8103
   34CHL1   C21 3674   4.350   5.289   5.324 -0.1459 -0.1065 -0.1168
   34CHL1  H21A 3675   4.279   5.300   5.239 -1.2605 -0.2258  0.7591
   34CHL1  H21B 3676   4.353   5.382   5.385 -0.7238 -0.1021 -0.0841
   34CHL1  H21C 3677   4.298   5.210   5.383 -0.7196 -0.4750 -1.0955
   34CHL1   C22 3678   4.480   5.115   5.193  0.2990 -0.2506  0.0330
   34CHL1  H22A 3679   4.578   5.073   5.164  0.9015 -0.8711  2.7755
   34CHL1  H22B 3680   4.417   5.030   5.227 -1.8692  0.4974 -1.7912
   34CHL1   C23 3681   4.414   5.158   5.054  0.7283 -0.0793  0.2872
   34CHL1  H23A 3682   4.304   5.170   5.066  0.2911 -0.6601 -2.4731
   34CHL1  H23B 3683   4.458   5.255   5.022  0.0723  0.2208  0.2753
   34CHL1   C24 3684   4.426   5.055   4.950 -0.0166 -0.2034  0.2151
   34CHL1  H24A 3685   4.526   5.010   4.931  0.5991  0.5856  1.4483
   34CHL1  H24B 3686   4.363   4.970   4.984  0.3877 -0.8439 -0.5894
   34CHL1   C25 3687   4.359   5.100   4.816  0.4981  0.1013 -0.1866
   34CHL1   H25 3688   4.267   5.160   4.835  0.7946  0.3171  0.6138
   34CHL1   C26 3689   4.455   5.190   4.744  0.5409 -0.3750 -0.5500
   34CHL1  H26A 3690   4.470   5.279   4.809 -0.1484 -1.0375  0.5428
   34CHL1  H26B 3691   4.557   5.148   4.732  0.5910  0.4456 -4.3546
   34CHL1  H26C 3692   4.412   5.213   4.644  0.0306  1.2778  0.0216
   34CHL1   C27 3693   4.309   4.974   4.736  0.4483 -0.7737  0.1936
   34CHL1  H27A 3694   4.384   4.893   4.746  1.2487 -0.3446 -1.9854
   34CHL1  H27B 3695   4.211   4.935   4.773 -0.4015  2.7916  2.2905
   34CHL1  H27C 3696   4.303   5.012   4.632  0.8215 -0.5260  0.2616
   35CHL1    C3 3697   4.919   2.045   6.301  0.3687 -0.1391  0.0741
   35CHL1    H3 3698   4.817   2.062   6.260  0.0569 -3.4070 -0.7526
   35CHL1    O3 3699   4.908   2.033   6.444  0.3069  0.0050  0.9064
   35CHL1   H3' 3700   4.825   1.989   6.463 -1.0258  1.6639 -0.8150
   35CHL1    C4 3701   4.966   1.917   6.243 -0.1782 -0.1512 -0.5528
   35CHL1   H4A 3702   5.073   1.903   6.272  0.2265  2.4360 -0.5135
   35CHL1   H4B 3703   4.911   1.842   6.304  0.8532  0.2618  0.9540
   35CHL1    C5 3704   4.947   1.915   6.097 -0.1227  0.6063  0.1806
   35CHL1    C6 3705   4.865   1.830   6.031 -0.1208 -0.1421 -0.1722
   35CHL1    H6 3706   4.806   1.751   6.080 -2.0047  0.3242 -1.5745
   35CHL1    C7 3707   4.854   1.814   5.885 -0.0609  0.6286  0.2253
   35CHL1   H7A 3708   4.860   1.708   5.853  1.1289  0.3371  1.3562
   35CHL1   H7B 3709   4.754   1.841   5.843  0.4750 -0.1646 -1.6652
   35CHL1    C8 3710   4.970   1.889   5.814  0.1709 -0.2637  0.4249
   35CHL1    H8 3711   5.059   1.825   5.827  0.5579 -0.3449 -2.0921
   35CHL1   C14 3712   4.929   1.906   5.666 -0.6795  1.1354  1.1123
   35CHL1   H14 3713   4.844   1.976   5.649 -0.7865  0.2262 -3.4233
   35CHL1   C15 3714   4.893   1.773   5.599  0.5303  0.5322  0.4253
   35CHL1  H15A 3715   4.955   1.689   5.636 -1.4503 -1.5229 -0.6565
   35CHL1  H15B 3716   4.789   1.733   5.609  0.5721 -0.9829 -3.4903
   35CHL1   C16 3717   4.911   1.798   5.446 -0.1259  0.4426 -0.5087
   35CHL1  H16A 3718   4.984   1.723   5.408  1.9011  1.9397  0.2415
   35CHL1  H16B 3719   4.816   1.784   5.391  0.8707 -0.7311 -2.0148
   35CHL1   C17 3720   4.970   1.941   5.445  0.0553  0.5204  0.0711
   35CHL1   H17 3721   4.886   2.013   5.439  0.2473  0.6575 -1.1548
   35CHL1   C13 3722   5.042   1.968   5.584  0.2800 -0.1380 -0.1937
   35CHL1   C18 3723   5.171   1.891   5.588  0.5628 -0.1356 -0.2235
   35CHL1  H18A 3724   5.238   1.944   5.517 -1.2355  0.0705 -1.8576
   35CHL1  H18B 3725   5.220   1.891   5.688  1.3599  2.2398 -0.5562
   35CHL1  H18C 3726   5.158   1.788   5.547 -2.7802  0.8869 -2.0625
   35CHL1   C12 3727   5.055   2.109   5.636 -0.0133  0.9234 -0.8578
   35CHL1  H12A 3728   5.132   2.161   5.575  0.5237 -0.5196 -1.4464
   35CHL1  H12B 3729   4.963   2.164   5.607 -2.0884 -1.4875  0.7652
   35CHL1   C11 3730   5.091   2.107   5.786  0.1880  0.8324 -0.1156
   35CHL1  H11A 3731   5.186   2.050   5.793 -0.8447 -1.1645 -1.3615
   35CHL1  H11B 3732   5.114   2.204   5.834 -0.8244  0.2508  1.6661
   35CHL1    C9 3733   4.996   2.027   5.872  0.8684 -0.1698  0.0800
   35CHL1    H9 3734   4.897   2.078   5.863  0.6005 -0.6125  0.5180
   35CHL1   C10 3735   5.033   2.023   6.025  0.5176 -0.1825  0.9853
   35CHL1   C19 3736   5.178   1.975   6.033 -0.1086 -0.3818 -0.1227
   35CHL1  H19A 3737   5.209   1.901   5.956  3.4773  2.5275 -1.7751
   35CHL1  H19B 3738   5.241   2.066   6.026 -1.6782  0.6589 -1.5222
   35CHL1  H19C 3739   5.202   1.939   6.135  2.0062  1.2976  0.0303
   35CHL1    C1 3740   5.012   2.158   6.096 -0.1186 -0.9923  0.1790
   35CHL1   H1A 3741   5.094   2.224   6.061 -1.6896  0.9426  0.0318
   35CHL1   H1B 3742   4.912   2.183   6.056 -0.0441  0.8933  1.0534
   35CHL1    C2 3743   4.999   2.165   6.250 -0.0797  0.3435 -0.0716
   35CHL1   H2A 3744   4.950   2.259   6.286  0.1049  0.1099  0.8052
   35CHL1   H2B 3745   5.098   2.169   6.299  1.4259 -1.9697 -2.6132
   35CHL1   C20 3746   5.045   1.963   5.315 -0.3669  0.0015  0.7271
   35CHL1   H20 3747   5.125   1.886   5.315 -0.3874 -0.0260 -0.0349
   35CHL1   C21 3748   5.114   2.103   5.303 -0.3939 -0.6407  0.3736
   35CHL1  H21A 3749   5.036   2.178   5.332 -0.2803 -1.4075  2.9760
   35CHL1  H21B 3750   5.156   2.103   5.201 -2.1138 -3.4469 -0.4256
   35CHL1  H21C 3751   5.198   2.118   5.375 -0.7261  2.3537  0.2945
   35CHL1   C22 3752   4.965   1.931   5.184  0.4505  0.0050 -0.5213
   35CHL1  H22A 3753   5.020   1.947   5.088 -0.5795 -2.2570 -1.5474
   35CHL1  H22B 3754   4.959   1.820   5.179  4.0051 -0.3719  0.6165
   35CHL1   C23 3755   4.823   1.994   5.165 -0.0338  0.6500  0.1914
   35CHL1  H23A 3756   4.757   1.946   5.240 -0.2240  0.9048  0.1884
   35CHL1  H23B 3757   4.815   2.102   5.188 -1.2474  0.6075  0.0145
   35CHL1   C24 3758   4.781   1.982   5.017  0.8387 -0.2164  0.3924
   35CHL1  H24A 3759   4.841   2.044   4.947  1.1814  0.4011  1.2209
   35CHL1  H24B 3760   4.786   1.874   4.995  0.5385 -0.4836  1.5516
   35CHL1   C25 3761   4.631   2.014   4.980 -0.1643 -0.5841  0.0384
   35CHL1   H25 3762   4.573   1.967   5.063  1.1508  0.7331  1.7851
   35CHL1   C26 3763   4.609   2.163   4.993  0.6575 -0.2049 -0.4038
   35CHL1  H26A 3764   4.682   2.226   4.937  0.1058  0.5066 -0.3329
   35CHL1  H26B 3765   4.507   2.178   4.951  0.0196 -3.5768 -0.2675
   35CHL1  H26C 3766   4.620   2.206   5.095  0.6280  1.1242 -0.9295
   35CHL1   C27 3767   4.578   1.950   4.853 -0.9665 -0.0644  0.1043
   35CHL1  H27A 3768   4.621   2.008   4.767 -2.0345  1.9504  0.8745
   35CHL1  H27B 3769   4.619   1.847   4.841  1.1853  0.6791  0.5615
   35CHL1  H27C 3770   4.467   1.949   4.851 -1.0605 -0.9124 -4.1402
   36CHL1    C3 3771   2.289   4.612   6.590  0.5392  0.2053  0.1893
   36CHL1    H3 3772   2.358   4.526   6.583 -0.7914 -0.8951  0.2146
   36CHL1    O3 3773   2.253   4.621   6.726 -0.7978 -0.5054  0.5595
   36CHL1   H3' 3774   2.190   4.694   6.729  0.2371  0.4560 -0.4356
   36CHL1    C4 3775   2.362   4.737   6.538 -0.4389 -0.0130  0.1100
   36CHL1   H4A 3776   2.299   4.824   6.563 -0.1142  0.9802 -2.2853
   36CHL1   H4B 3777   2.454   4.739   6.600 -0.1157  0.1706 -0.3607
   36CHL1    C5 3778   2.403   4.730   6.388  0.1233  0.0445  0.2473
   36CHL1    C6 3779   2.531   4.745   6.347  0.0923 -0.0286  0.5293
   36CHL1    H6 3780   2.613   4.752   6.420  0.8594 -2.5205  0.0062
   36CHL1    C7 3781   2.580   4.739   6.210  0.0532  0.4096  0.4856
   36CHL1   H7A 3782   2.645   4.828   6.196  1.0415 -0.4859 -0.8288
   36CHL1   H7B 3783   2.637   4.646   6.189 -1.8049 -1.2802  2.4824
   36CHL1    C8 3784   2.456   4.747   6.109 -0.3003 -0.0134  0.1069
   36CHL1    H8 3785   2.421   4.852   6.109 -1.6653 -0.3864  2.3675
   36CHL1   C14 3786   2.503   4.695   5.980 -0.0368  0.0516  0.4248
   36CHL1   H14 3787   2.519   4.587   6.003  1.0755  0.1367  0.1235
   36CHL1   C15 3788   2.626   4.768   5.917 -0.1722 -0.4760 -0.1887
   36CHL1  H15A 3789   2.610   4.877   5.933  0.0345 -0.5257  0.3673
   36CHL1  H15B 3790   2.724   4.733   5.956  0.8003  0.3303 -1.7826
   36CHL1   C16 3791   2.612   4.753   5.762 -0.1570 -0.1738  0.1588
   36CHL1  H16A 3792   2.583   4.844   5.704  0.5822  1.5523  2.3530
   36CHL1  H16B 3793   2.711   4.723   5.722  0.3672  1.4868  0.1315
   36CHL1   C17 3794   2.495   4.653   5.749  0.4994  0.6527  0.8552
   36CHL1   H17 3795   2.535   4.552   5.770  1.5788  0.4170 -1.9768
   36CHL1   C13 3796   2.402   4.684   5.868  0.3325 -0.6280  0.0973
   36CHL1   C18 3797   2.333   4.821   5.838  0.9326 -0.1925  0.0174
   36CHL1  H18A 3798   2.245   4.810   5.771  0.9603  1.4943 -0.3242
   36CHL1  H18B 3799   2.292   4.875   5.926  0.2149  0.4823 -0.7179
   36CHL1  H18C 3800   2.402   4.897   5.795  1.1981 -0.6101 -0.3017
   36CHL1   C12 3801   2.291   4.585   5.913  0.2668  0.0490  0.2986
   36CHL1  H12A 3802   2.223   4.583   5.825  1.9559  2.4540 -1.1834
   36CHL1  H12B 3803   2.325   4.481   5.933  0.6834  0.3650  1.3309
   36CHL1   C11 3804   2.229   4.642   6.042 -0.0347 -0.1932 -0.0880
   36CHL1  H11A 3805   2.177   4.738   6.024  0.2848 -0.1489 -0.8002
   36CHL1  H11B 3806   2.146   4.575   6.072 -0.6268  1.4238  2.1083
   36CHL1    C9 3807   2.338   4.662   6.154  0.6747  0.6379 -0.0822
   36CHL1    H9 3808   2.372   4.557   6.163 -4.9354 -1.5334  0.1598
   36CHL1   C10 3809   2.290   4.694   6.292  0.5444  0.0220 -0.2660
   36CHL1   C19 3810   2.197   4.817   6.283  0.2584  0.2916  0.3148
   36CHL1  H19A 3811   2.110   4.796   6.217  0.4968  1.9973 -0.5981
   36CHL1  H19B 3812   2.177   4.844   6.389  0.1335 -0.2210  0.4242
   36CHL1  H19C 3813   2.253   4.903   6.241  1.7456 -1.3067 -1.1363
   36CHL1    C1 3814   2.220   4.563   6.355 -0.3037  0.0491  0.0629
   36CHL1   H1A 3815   2.135   4.535   6.289  0.1404 -1.3895  0.0717
   36CHL1   H1B 3816   2.289   4.476   6.344  0.2556  0.5261 -0.2916
   36CHL1    C2 3817   2.166   4.584   6.498 -0.7922 -0.6276 -0.7202
   36CHL1   H2A 3818   2.108   4.501   6.545 -0.2554  0.3305  1.8131
   36CHL1   H2B 3819   2.102   4.675   6.503 -1.2125 -0.9627  0.3900
   36CHL1   C20 3820   2.443   4.658   5.603  0.3579 -0.8659  0.6863
   36CHL1   H20 3821   2.369   4.741   5.600  1.6299  0.2744 -0.6618
   36CHL1   C21 3822   2.377   4.517   5.576 -0.0872 -0.5350 -0.7284
   36CHL1  H21A 3823   2.454   4.437   5.563 -0.4724 -0.8178 -1.3491
   36CHL1  H21B 3824   2.310   4.512   5.487 -2.4689  1.7305  0.8081
   36CHL1  H21C 3825   2.313   4.495   5.663  1.4765  0.8463  0.8404
   36CHL1   C22 3826   2.555   4.681   5.503 -0.1593  0.0552 -0.2346
   36CHL1  H22A 3827   2.582   4.788   5.513 -0.2151  0.2053 -1.5488
   36CHL1  H22B 3828   2.641   4.611   5.500 -0.5635 -0.4226 -1.1814
   36CHL1   C23 3829   2.510   4.669   5.356 -0.1463  0.4958 -0.6406
   36CHL1  H23A 3830   2.461   4.571   5.341  0.4505  0.2027 -0.7029
   36CHL1  H23B 3831   2.433   4.748   5.350 -2.3447 -1.4377  0.6809
   36CHL1   C24 3832   2.625   4.692   5.263 -1.0091 -0.3653  0.4529
   36CHL1  H24A 3833   2.670   4.793   5.277 -2.7308  0.4287  0.6178
   36CHL1  H24B 3834   2.708   4.619   5.269 -0.4397  0.3568  2.0186
   36CHL1   C25 3835   2.581   4.687   5.113 -0.5990 -0.0918  0.4424
   36CHL1   H25 3836   2.521   4.594   5.110 -0.2863 -0.3569  1.6160
   36CHL1   C26 3837   2.498   4.806   5.069  0.4018  0.6872 -0.1444
   36CHL1  H26A 3838   2.477   4.794   4.960 -2.2065  0.0806  0.3429
   36CHL1  H26B 3839   2.398   4.807   5.119  0.5293  0.2881  0.1266
   36CHL1  H26C 3840   2.545   4.905   5.084  0.7057  0.9025 -2.2429
   36CHL1   C27 3841   2.710   4.669   5.032  0.4107 -0.6861 -0.2353
   36CHL1  H27A 3842   2.763   4.585   5.083 -0.8946 -1.3347  0.1099
   36CHL1  H27B 3843   2.692   4.648   4.924 -0.1667  3.0715 -0.9932
   36CHL1  H27C 3844   2.774   4.760   5.040 -2.0829  1.1108  0.2120
   37CHL1    C3 3845   2.330   1.137   6.633  0.0069 -0.3403  0.0903
   37CHL1    H3 3846   2.231   1.184   6.612  0.3629  1.5140  2.2088
   37CHL1    O3 3847   2.333   1.083   6.758 -0.0418  0.8461  0.3588
   37CHL1   H3' 3848   2.384   1.002   6.751 -0.0517  0.6992  1.7212
   37CHL1    C4 3849   2.346   1.027   6.526  0.0446 -0.0878 -0.2061
   37CHL1   H4A 3850   2.444   0.976   6.534  1.1890  2.1214  0.7006
   37CHL1   H4B 3851   2.262   0.956   6.545 -2.0738  1.9479 -1.4095
   37CHL1    C5 3852   2.329   1.087   6.387 -0.1059  0.4637  0.6021
   37CHL1    C6 3853   2.237   1.044   6.302 -0.0968 -0.0152 -0.8749
   37CHL1    H6 3854   2.171   0.963   6.335  0.5612 -0.2011  0.0276
   37CHL1    C7 3855   2.223   1.095   6.161 -0.3362 -0.2011 -0.6217
   37CHL1   H7A 3856   2.206   1.009   6.092 -3.1813 -0.3176  0.1092
   37CHL1   H7B 3857   2.121   1.140   6.159  0.5409  1.9591  0.1923
   37CHL1    C8 3858   2.337   1.189   6.115 -0.5350  0.1054  0.0655
   37CHL1    H8 3859   2.421   1.122   6.090  0.0702  0.8986 -0.0489
   37CHL1   C14 3860   2.302   1.268   5.990 -0.5358  0.2346  1.4215
   37CHL1   H14 3861   2.222   1.342   6.008 -1.0989  0.0960 -0.3082
   37CHL1   C15 3862   2.245   1.187   5.866 -0.7475 -0.4768 -0.5268
   37CHL1  H15A 3863   2.305   1.096   5.845 -1.0630 -1.2132  1.5543
   37CHL1  H15B 3864   2.142   1.149   5.882 -1.4405  1.0208 -1.2109
   37CHL1   C16 3865   2.251   1.292   5.752 -0.5490 -0.1645  0.2186
   37CHL1  H16A 3866   2.320   1.254   5.674  0.5600  0.6237  0.7886
   37CHL1  H16B 3867   2.154   1.326   5.711 -1.9139 -0.0502  3.2842
   37CHL1   C17 3868   2.335   1.418   5.809  0.7427 -0.2587  0.2781
   37CHL1   H17 3869   2.264   1.490   5.856 -0.6458 -0.8077 -0.9296
   37CHL1   C13 3870   2.412   1.355   5.926  0.1345 -0.3610  1.1425
   37CHL1   C18 3871   2.532   1.275   5.866 -0.2239  0.1758 -0.3775
   37CHL1  H18A 3872   2.612   1.336   5.818  2.4352 -1.6782  1.3497
   37CHL1  H18B 3873   2.578   1.211   5.946  1.9316  1.6476 -0.3455
   37CHL1  H18C 3874   2.492   1.206   5.789 -1.5382 -0.1036  0.5353
   37CHL1   C12 3875   2.455   1.449   6.041  0.0846 -0.2299  0.0786
   37CHL1  H12A 3876   2.527   1.530   6.017 -0.5641  0.8094  1.4884
   37CHL1  H12B 3877   2.365   1.508   6.067 -0.0387 -0.1668 -0.4785
   37CHL1   C11 3878   2.497   1.382   6.170  0.3038  0.8764 -0.7125
   37CHL1  H11A 3879   2.578   1.312   6.140 -0.3685 -0.7497  1.0661
   37CHL1  H11B 3880   2.533   1.452   6.249  1.4429 -2.2422  1.7499
   37CHL1    C9 3881   2.384   1.283   6.227 -0.7448  0.3932 -0.7623
   37CHL1    H9 3882   2.289   1.336   6.247 -2.1193 -1.9228 -0.7975
   37CHL1   C10 3883   2.433   1.200   6.350 -0.1814  1.0481  0.1981
   37CHL1   C19 3884   2.576   1.139   6.328 -0.0424  0.3697 -0.2688
   37CHL1  H19A 3885   2.662   1.207   6.348  0.9881 -1.0898  0.5458
   37CHL1  H19B 3886   2.588   1.063   6.408 -1.5885  0.9591  0.5569
   37CHL1  H19C 3887   2.582   1.095   6.226 -0.0432 -0.6162  0.1405
   37CHL1    C1 3888   2.437   1.303   6.467  0.1167  0.1954 -0.0279
   37CHL1   H1A 3889   2.528   1.365   6.451  0.1855 -0.1273 -0.9722
   37CHL1   H1B 3890   2.356   1.378   6.464 -0.5604 -0.5465 -1.8734
   37CHL1    C2 3891   2.430   1.249   6.612  0.4669 -0.7159  0.2905
   37CHL1   H2A 3892   2.403   1.337   6.674  2.4812  0.2648 -0.1504
   37CHL1   H2B 3893   2.532   1.223   6.646  1.2667  0.6712 -0.9138
   37CHL1   C20 3894   2.404   1.498   5.700  0.1700 -0.5954  0.0516
   37CHL1   H20 3895   2.477   1.424   5.659  0.7966 -0.6923  1.2885
   37CHL1   C21 3896   2.486   1.618   5.757  0.3721  0.1337 -0.1405
   37CHL1  H21A 3897   2.527   1.675   5.670 -0.8297  0.4929 -0.4924
   37CHL1  H21B 3898   2.573   1.588   5.819 -0.7082 -0.5426  1.0974
   37CHL1  H21C 3899   2.421   1.693   5.805  2.0138  1.3805  0.2475
   37CHL1   C22 3900   2.316   1.549   5.580 -0.3755  0.3636 -0.3995
   37CHL1  H22A 3901   2.284   1.455   5.531  0.9995 -1.0079  1.2211
   37CHL1  H22B 3902   2.222   1.595   5.616 -0.8231  0.5898 -1.7756
   37CHL1   C23 3903   2.379   1.640   5.475 -0.0260 -0.4514  0.0462
   37CHL1  H23A 3904   2.406   1.732   5.530  0.6482 -1.8958  2.2562
   37CHL1  H23B 3905   2.471   1.584   5.447 -0.7225 -1.2924 -0.6115
   37CHL1   C24 3906   2.291   1.661   5.353 -0.4866  0.1795  0.2985
   37CHL1  H24A 3907   2.261   1.560   5.317 -1.6508 -0.6476  3.3045
   37CHL1  H24B 3908   2.196   1.711   5.381 -0.7619  0.3929 -0.9866
   37CHL1   C25 3909   2.358   1.742   5.235  0.4880 -0.1392  0.6944
   37CHL1   H25 3910   2.363   1.844   5.278 -0.2819  0.9717 -1.6983
   37CHL1   C26 3911   2.502   1.694   5.201 -0.2130 -0.6839  0.0626
   37CHL1  H26A 3912   2.548   1.746   5.115  1.3661 -2.0403  0.0230
   37CHL1  H26B 3913   2.578   1.726   5.276  1.1568 -1.0919 -1.1242
   37CHL1  H26C 3914   2.504   1.586   5.176  1.5954 -1.0687  1.5631
   37CHL1   C27 3915   2.263   1.738   5.124 -0.0938 -0.0717 -0.2124
   37CHL1  H27A 3916   2.159   1.748   5.160  0.2070 -1.8596  1.2960
   37CHL1  H27B 3917   2.286   1.807   5.040  1.0218  0.7708  0.7561
   37CHL1  H27C 3918   2.273   1.637   5.079 -0.4977 -0.1767 -0.0669
   38CHL1    C3 3919   4.937   1.170   6.166  0.0348 -0.7268 -0.1491
   38CHL1    H3 3920   5.017   1.244   6.144  0.3183 -0.3494  1.9043
   38CHL1    O3 3921   4.906   1.158   6.303 -0.0946 -0.3621  0.1100
   38CHL1   H3' 3922   4.846   1.084   6.310 -0.3225 -0.0416  1.7341
   38CHL1    C4 3923   4.809   1.203   6.087 -0.3549 -0.0422 -0.3941
   38CHL1   H4A 3924   4.723   1.140   6.118 -0.5407  0.8119  0.8771
   38CHL1   H4B 3925   4.778   1.306   6.113  2.3429  0.9075 -0.6690
   38CHL1    C5 3926   4.845   1.199   5.939 -0.1410 -0.8496  0.1923
   38CHL1    C6 3927   4.820   1.305   5.860  0.4096 -0.0294  0.4773
   38CHL1    H6 3928   4.783   1.396   5.910 -1.2650 -0.4112 -0.0071
   38CHL1    C7 3929   4.842   1.308   5.709 -0.4324 -0.2093  0.4953
   38CHL1   H7A 3930   4.759   1.359   5.655 -0.0579 -0.0825  0.0349
   38CHL1   H7B 3931   4.937   1.361   5.685  0.3261 -1.4059  0.7742
   38CHL1    C8 3932   4.852   1.167   5.648 -1.1658 -0.4076 -0.2040
   38CHL1    H8 3933   4.748   1.127   5.648 -0.7508 -1.5013  0.0428
   38CHL1   C14 3934   4.890   1.176   5.503  0.1744 -0.0386  1.5924
   38CHL1   H14 3935   4.991   1.222   5.501  1.1554 -2.0946  0.3585
   38CHL1   C15 3936   4.791   1.252   5.404  0.2380 -0.0875 -0.3539
   38CHL1  H15A 3937   4.694   1.221   5.449  1.6952  0.7113  3.8751
   38CHL1  H15B 3938   4.809   1.359   5.425  1.0145 -0.5174  1.4168
   38CHL1   C16 3939   4.837   1.203   5.270  0.6829  0.7093  0.8578
   38CHL1  H16A 3940   4.749   1.160   5.217  0.3882  2.6484 -0.3540
   38CHL1  H16B 3941   4.882   1.285   5.210 -2.5879  2.2499  0.2737
   38CHL1   C17 3942   4.937   1.088   5.297  0.4363 -0.1084  0.2770
   38CHL1   H17 3943   5.038   1.135   5.294  0.1665  0.5530  1.1389
   38CHL1   C13 3944   4.911   1.037   5.437 -0.2538  0.4667 -0.1206
   38CHL1   C18 3945   4.774   0.954   5.427  0.3992 -0.7726  0.7629
   38CHL1  H18A 3946   4.802   0.864   5.368 -1.0101 -0.7064 -0.0629
   38CHL1  H18B 3947   4.720   0.916   5.516 -2.1715  1.1471  0.1519
   38CHL1  H18C 3948   4.707   1.009   5.357  0.2428  1.5063  2.5746
   38CHL1   C12 3949   5.023   0.959   5.519 -0.2186 -0.2459  0.4421
   38CHL1  H12A 3950   5.060   0.866   5.470  1.6733  0.1532  1.0124
   38CHL1  H12B 3951   5.113   1.025   5.517  0.2433 -0.7283  2.8056
   38CHL1   C11 3952   4.963   0.939   5.656 -0.2261 -0.2109 -0.3483
   38CHL1  H11A 3953   4.875   0.874   5.642 -0.1693 -0.2203 -0.6567
   38CHL1  H11B 3954   5.050   0.896   5.710  0.8803  2.2114 -0.0432
   38CHL1    C9 3955   4.937   1.072   5.734 -0.0443 -0.2877  0.2021
   38CHL1    H9 3956   5.032   1.129   5.744  0.4683 -1.4115  2.3518
   38CHL1   C10 3957   4.896   1.063   5.884  0.4206 -0.2745 -0.0043
   38CHL1   C19 3958   4.784   0.955   5.894  0.4574  0.3896 -0.2575
   38CHL1  H19A 3959   4.834   0.862   5.861  2.0051  1.0371  0.1890
   38CHL1  H19B 3960   4.752   0.952   6.001  0.7708  1.5981 -0.1159
   38CHL1  H19C 3961   4.699   0.984   5.828 -0.9985 -1.2051  0.8016
   38CHL1    C1 3962   5.015   1.024   5.974 -0.2743 -0.4290 -0.7410
   38CHL1   H1A 3963   5.057   0.923   5.954  0.2675 -0.0908 -1.3367
   38CHL1   H1B 3964   5.096   1.095   5.948 -0.5688 -0.1537 -0.9191
   38CHL1    C2 3965   4.990   1.033   6.122  0.0933  0.5744 -0.7778
   38CHL1   H2A 3966   5.086   1.000   6.167 -0.3483 -2.1125 -1.6235
   38CHL1   H2B 3967   4.921   0.952   6.154 -2.4386  2.5609 -0.8558
   38CHL1   C20 3968   4.937   0.994   5.176 -0.2821  0.8540  0.6354
   38CHL1   H20 3969   4.838   0.946   5.159  0.1036 -0.3251  1.5913
   38CHL1   C21 3970   5.038   0.876   5.204 -0.0814 -0.2912 -0.3313
   38CHL1  H21A 3971   5.141   0.905   5.235 -0.4358  1.0205 -0.3602
   38CHL1  H21B 3972   5.041   0.809   5.115 -2.6039  0.6113 -1.1788
   38CHL1  H21C 3973   5.005   0.810   5.288  2.5487 -3.0079 -1.2254
   38CHL1   C22 3974   4.975   1.078   5.046 -1.2959  0.7179 -0.8619
   38CHL1  H22A 3975   4.890   1.145   5.020 -1.0329  1.8709  1.0439
   38CHL1  H22B 3976   5.067   1.138   5.065 -1.3866  0.5645  0.1046
   38CHL1   C23 3977   5.008   1.004   4.915 -0.1199 -0.3054  0.5725
   38CHL1  H23A 3978   5.095   0.938   4.931  1.4178  1.1249 -1.3914
   38CHL1  H23B 3979   4.924   0.936   4.889 -0.8611  1.0014 -0.6395
   38CHL1   C24 3980   5.040   1.110   4.802  0.5313 -0.4284 -0.2586
   38CHL1  H24A 3981   4.951   1.176   4.802  1.3065  0.6599 -1.3795
   38CHL1  H24B 3982   5.125   1.178   4.826  2.1854 -2.0738 -1.2490
   38CHL1   C25 3983   5.036   1.058   4.657  0.0044 -0.2642 -0.0304
   38CHL1   H25 3984   4.939   1.004   4.653 -0.1841  0.0941 -0.5046
   38CHL1   C26 3985   5.028   1.182   4.558 -0.1335  0.6712 -0.3255
   38CHL1  H26A 3986   5.125   1.234   4.549  0.1824  0.0094 -0.8068
   38CHL1  H26B 3987   4.999   1.147   4.456  0.4445  1.2137 -0.6854
   38CHL1  H26C 3988   4.944   1.243   4.599 -0.3922  0.8253 -1.0532
   38CHL1   C27 3989   5.139   0.951   4.633  0.1138 -0.2120  0.3595
   38CHL1  H27A 3990   5.132   0.926   4.525  0.6190  0.1064  0.2476
   38CHL1  H27B 3991   5.246   0.978   4.650 -0.7228  2.7840  1.3949
   38CHL1  H27C 3992   5.122   0.859   4.694  0.2728  0.6924  1.8053
   39CHL1    C3 3993   4.453   0.071   6.431 -0.1842  0.6907 -0.0837
   39CHL1    H3 3994   4.352   0.032   6.454 -0.3816  1.0518 -0.3387
   39CHL1    O3 3995   4.522   0.080   6.554  0.0030  0.3486  0.4308
   39CHL1   H3' 3996   4.527   0.175   6.567  0.9894  0.1967  1.2229
   39CHL1    C4 3997   4.526  -0.037   6.348  0.8291 -0.0800 -0.4777
   39CHL1   H4A 3998   4.636  -0.031   6.365  0.6556 -0.0646  0.7247
   39CHL1   H4B 3999   4.505  -0.132   6.402  2.7322  0.0425  0.5633
   39CHL1    C5 4000   4.488  -0.046   6.200 -0.1600 -0.2148  0.2107
   39CHL1    C6 4001   4.456  -0.160   6.137 -0.5470  0.4696  0.2170
   39CHL1    H6 4002   4.455  -0.254   6.194 -1.2979 -0.9079 -1.9754
   39CHL1    C7 4003   4.424  -0.176   5.995 -0.5145 -0.8509 -0.1634
   39CHL1   H7A 4004   4.462  -0.267   5.943 -1.4011 -1.5215  0.3334
   39CHL1   H7B 4005   4.313  -0.180   5.986 -0.5257 -1.2462  0.1351
   39CHL1    C8 4006   4.466  -0.049   5.909  0.1914 -0.1892 -0.4524
   39CHL1    H8 4007   4.576  -0.050   5.897  0.3185 -1.0329  0.6131
   39CHL1   C14 4008   4.391  -0.052   5.774  0.2822  0.4878  0.2368
   39CHL1   H14 4009   4.281  -0.061   5.791  0.3869 -1.8443 -0.0113
   39CHL1   C15 4010   4.411  -0.185   5.686  0.3169 -0.5925  0.0016
   39CHL1  H15A 4011   4.513  -0.227   5.705  1.8754  3.3043  1.3119
   39CHL1  H15B 4012   4.329  -0.253   5.717 -0.0286 -0.6042 -0.9093
   39CHL1   C16 4013   4.394  -0.136   5.540 -0.9169 -0.1307  0.5065
   39CHL1  H16A 4014   4.493  -0.152   5.491 -1.9433 -0.2226 -1.6348
   39CHL1  H16B 4015   4.321  -0.193   5.480  0.4953 -1.0340 -0.3999
   39CHL1   C17 4016   4.351   0.014   5.546  0.4888 -0.2093 -0.2446
   39CHL1   H17 4017   4.244   0.025   5.576  0.2969 -0.2347 -0.9000
   39CHL1   C13 4018   4.420   0.065   5.676 -0.0150  0.0231  0.5354
   39CHL1   C18 4019   4.569   0.078   5.648 -0.4141  0.3532 -0.1318
   39CHL1  H18A 4020   4.612  -0.016   5.608  0.2431 -0.1128  1.5789
   39CHL1  H18B 4021   4.595   0.154   5.571 -1.2821  0.1760 -0.5999
   39CHL1  H18C 4022   4.627   0.095   5.742 -1.0088 -2.8277  0.9144
   39CHL1   C12 4023   4.364   0.184   5.745  0.1301  0.1374 -0.1163
   39CHL1  H12A 4024   4.386   0.282   5.697 -1.1515  1.1527  1.2451
   39CHL1  H12B 4025   4.254   0.179   5.762  0.1697 -0.7193 -0.0910
   39CHL1   C11 4026   4.428   0.202   5.886  0.0979  0.4502 -0.5656
   39CHL1  H11A 4027   4.525   0.248   5.858 -1.0830  2.2605 -1.9612
   39CHL1  H11B 4028   4.375   0.288   5.932 -0.6720 -0.1553 -0.2849
   39CHL1    C9 4029   4.425   0.080   5.979  0.5460  0.0574 -0.3458
   39CHL1    H9 4030   4.317   0.071   6.000  0.2449  2.9888 -0.2685
   39CHL1   C10 4031   4.490   0.091   6.118 -0.2948  0.0409 -0.0830
   39CHL1   C19 4032   4.636   0.138   6.100  0.0339 -0.4691  0.0695
   39CHL1  H19A 4033   4.672   0.173   6.199 -0.2015  2.5642 -0.8297
   39CHL1  H19B 4034   4.703   0.059   6.059  1.4907 -0.3777  2.1314
   39CHL1  H19C 4035   4.635   0.231   6.040 -1.0830  0.0098  0.7940
   39CHL1    C1 4036   4.413   0.188   6.205 -0.1705 -0.4957  0.4925
   39CHL1   H1A 4037   4.426   0.294   6.175  2.1259 -0.2845  1.9541
   39CHL1   H1B 4038   4.305   0.163   6.217 -0.5476  1.2570  0.9756
   39CHL1    C2 4039   4.457   0.210   6.365  0.1817  0.6492  0.4361
   39CHL1   H2A 4040   4.385   0.275   6.418  0.6724  0.3336  1.5072
   39CHL1   H2B 4041   4.556   0.259   6.361  0.0258  0.9052 -1.1144
   39CHL1   C20 4042   4.375   0.092   5.416  0.3363  0.5212 -0.1467
   39CHL1   H20 4043   4.485   0.084   5.401  0.6336 -1.9463  2.4185
   39CHL1   C21 4044   4.340   0.248   5.435 -0.1286 -0.1440 -0.4334
   39CHL1  H21A 4045   4.343   0.300   5.336  2.4667  0.0894 -0.2801
   39CHL1  H21B 4046   4.416   0.302   5.494 -1.7386  1.7348  0.0196
   39CHL1  H21C 4047   4.238   0.274   5.472 -0.0870  0.1781 -0.5450
   39CHL1   C22 4048   4.292   0.031   5.295  0.4686  0.4436 -0.0715
   39CHL1  H22A 4049   4.339  -0.068   5.281  2.0320  1.1400  0.0431
   39CHL1  H22B 4050   4.186   0.020   5.328 -0.1627  0.6014 -1.9136
   39CHL1   C23 4051   4.283   0.115   5.168  0.1406 -0.3780 -0.7226
   39CHL1  H23A 4052   4.231   0.211   5.191  0.7497 -0.3756  0.7642
   39CHL1  H23B 4053   4.389   0.142   5.152  0.0504  0.7703  0.4009
   39CHL1   C24 4054   4.231   0.041   5.050 -0.0750  0.3594  0.7424
   39CHL1  H24A 4055   4.296  -0.049   5.046 -0.1157  0.3746 -2.6884
   39CHL1  H24B 4056   4.133  -0.002   5.078  0.1207 -1.8518 -1.5947
   39CHL1   C25 4057   4.234   0.113   4.906  0.4621 -0.0206  0.8540
   39CHL1   H25 4058   4.178   0.209   4.914  0.0569 -0.2235  0.4948
   39CHL1   C26 4059   4.371   0.149   4.855 -0.4181 -0.2789 -0.1607
   39CHL1  H26A 4060   4.367   0.189   4.751 -0.4748 -2.6199 -1.1061
   39CHL1  H26B 4061   4.437   0.219   4.912 -0.8339  0.9788 -1.1575
   39CHL1  H26C 4062   4.430   0.055   4.851 -0.6796 -0.4403 -0.2534
   39CHL1   C27 4063   4.161   0.017   4.816  0.2688 -0.3711 -0.4039
   39CHL1  H27A 4064   4.115   0.067   4.727  0.5582  1.0338  0.2091
   39CHL1  H27B 4065   4.247  -0.041   4.777  0.2353  0.6747 -2.1630
   39CHL1  H27C 4066   4.086  -0.051   4.862  0.1290 -0.1091 -0.2447
   40CHL1    C3 4067   5.055   4.098   6.117  0.1654 -0.8298  0.1569
   40CHL1    H3 4068   5.051   3.991   6.086  0.8921 -0.1882 -2.4800
   40CHL1    O3 4069   5.061   4.102   6.261  0.2760 -0.3570 -0.1372
   40CHL1   H3' 4070   5.138   4.157   6.275 -2.7276  3.8873  1.6904
   40CHL1    C4 4071   5.181   4.167   6.054  0.0209 -0.3846 -0.8350
   40CHL1   H4A 4072   5.182   4.273   6.088  0.3438 -0.5998 -0.1526
   40CHL1   H4B 4073   5.279   4.136   6.097  0.3887 -0.4735 -1.7209
   40CHL1    C5 4074   5.168   4.168   5.900  0.3609  0.2640 -0.4264
   40CHL1    C6 4075   5.264   4.115   5.820  0.0351  0.0152  0.0838
   40CHL1    H6 4076   5.362   4.086   5.861 -0.7371  0.7405  2.5888
   40CHL1    C7 4077   5.246   4.115   5.672 -0.3228 -0.6880 -0.3523
   40CHL1   H7A 4078   5.344   4.135   5.624  1.5371 -3.4343  1.9873
   40CHL1   H7B 4079   5.210   4.016   5.637 -3.4773  0.2027  0.0440
   40CHL1    C8 4080   5.132   4.212   5.611 -0.3826  0.2174 -0.4912
   40CHL1    H8 4081   5.162   4.319   5.608 -0.0565  0.1925  0.9548
   40CHL1   C14 4082   5.106   4.183   5.467 -0.0854  0.9789 -0.0720
   40CHL1   H14 4083   5.064   4.080   5.470  1.0550  0.5191  1.8497
   40CHL1   C15 4084   5.216   4.175   5.366 -0.7574 -0.5334 -0.1385
   40CHL1  H15A 4085   5.285   4.261   5.381 -1.7165 -0.0032  1.4679
   40CHL1  H15B 4086   5.275   4.081   5.368  1.0613  0.4705 -2.2841
   40CHL1   C16 4087   5.158   4.197   5.224 -0.1013 -0.0280  0.1593
   40CHL1  H16A 4088   5.200   4.289   5.179 -2.2633  1.2651  0.6261
   40CHL1  H16B 4089   5.178   4.119   5.147  0.8392  1.5310 -1.2432
   40CHL1   C17 4090   5.010   4.222   5.250  0.0512 -0.1850  0.6609
   40CHL1   H17 4091   4.970   4.119   5.254  2.6985 -1.2421  1.4594
   40CHL1   C13 4092   5.006   4.272   5.398 -0.0564  0.3447 -0.2786
   40CHL1   C18 4093   5.051   4.416   5.401  0.2364  0.1656 -0.2317
   40CHL1  H18A 4094   5.049   4.459   5.503  0.5107 -0.7707  0.1828
   40CHL1  H18B 4095   5.158   4.430   5.373  1.2089 -0.3363  2.8112
   40CHL1  H18C 4096   4.985   4.481   5.340  1.4562 -0.1650 -1.9741
   40CHL1   C12 4097   4.872   4.244   5.471 -0.1632 -0.5673 -0.1361
   40CHL1  H12A 4098   4.793   4.307   5.424 -0.1419 -1.0506 -0.8303
   40CHL1  H12B 4099   4.854   4.135   5.459  0.2224 -0.3748 -3.4945
   40CHL1   C11 4100   4.879   4.264   5.626 -0.0085  0.3310 -0.3605
   40CHL1  H11A 4101   4.892   4.374   5.633 -1.1654  0.5181 -0.9277
   40CHL1  H11B 4102   4.787   4.224   5.672  1.2950 -2.7048 -0.1462
   40CHL1    C9 4103   5.006   4.185   5.689  0.4509 -0.1615  0.2666
   40CHL1    H9 4104   4.968   4.080   5.690 -0.3986  0.0913 -1.3048
   40CHL1   C10 4105   5.031   4.217   5.841 -0.1915 -0.0525 -0.3190
   40CHL1   C19 4106   5.021   4.370   5.855  1.2384  0.3228  0.1845
   40CHL1  H19A 4107   5.047   4.404   5.957  1.2453 -1.0004  0.6478
   40CHL1  H19B 4108   5.086   4.427   5.785  0.2965  0.0030 -0.9874
   40CHL1  H19C 4109   4.917   4.404   5.834  1.6348  1.2115 -0.4201
   40CHL1    C1 4110   4.913   4.153   5.928  0.4543 -0.3210  0.4245
   40CHL1   H1A 4111   4.811   4.195   5.916  0.7715  1.6803  3.5322
   40CHL1   H1B 4112   4.923   4.044   5.908  2.4065 -0.0475 -0.2669
   40CHL1    C2 4113   4.928   4.166   6.074  0.3712 -0.9193  0.0268
   40CHL1   H2A 4114   4.842   4.117   6.125 -1.4908  2.1183  0.0577
   40CHL1   H2B 4115   4.925   4.272   6.108 -0.5174 -0.7730 -0.4650
   40CHL1   C20 4116   4.927   4.295   5.142 -0.0735 -0.6696 -0.3702
   40CHL1   H20 4117   4.845   4.340   5.203  1.7168  0.3282  1.4409
   40CHL1   C21 4118   4.886   4.187   5.046 -0.3137 -0.9915 -0.2811
   40CHL1  H21A 4119   4.825   4.229   4.962 -0.5493 -0.7617 -0.0001
   40CHL1  H21B 4120   4.821   4.109   5.091 -1.7472  0.6495  0.6507
   40CHL1  H21C 4121   4.981   4.155   4.999 -0.0099 -0.4589 -0.0321
   40CHL1   C22 4122   5.002   4.409   5.058 -0.4960  0.2474  0.3946
   40CHL1  H22A 4123   5.067   4.467   5.127  2.5251 -1.2405 -0.9977
   40CHL1  H22B 4124   5.078   4.354   4.999 -0.7121 -0.2783  0.5934
   40CHL1   C23 4125   4.900   4.501   4.990  0.3335 -0.1802  0.9836
   40CHL1  H23A 4126   4.857   4.438   4.910  3.7248 -1.7158  0.2363
   40CHL1  H23B 4127   4.821   4.526   5.065 -2.6203  0.3861 -2.0543
   40CHL1   C24 4128   4.976   4.629   4.936  0.0863  0.3473 -0.0358
   40CHL1  H24A 4129   5.034   4.672   5.020 -0.9344 -1.1770  1.5063
   40CHL1  H24B 4130   5.045   4.597   4.855 -0.0980 -1.4423  0.4815
   40CHL1   C25 4131   4.878   4.734   4.875 -0.9087  0.3997 -0.4583
   40CHL1   H25 4132   4.802   4.683   4.812 -2.0327  1.3141  0.1261
   40CHL1   C26 4133   4.806   4.819   4.978  0.9574  0.3402 -0.5185
   40CHL1  H26A 4134   4.873   4.900   5.017 -0.2917  0.2582  2.0566
   40CHL1  H26B 4135   4.732   4.870   4.913 -0.9852 -0.0222  1.2813
   40CHL1  H26C 4136   4.746   4.765   5.055 -0.2221  1.1422 -0.8476
   40CHL1   C27 4137   4.965   4.816   4.775  0.6138 -0.1790 -0.6572
   40CHL1  H27A 4138   5.058   4.829   4.834  0.4867 -0.3748 -0.4110
   40CHL1  H27B 4139   4.985   4.763   4.680 -2.0221 -1.9269 -0.3526
   40CHL1  H27C 4140   4.917   4.916   4.763  0.8742  0.1216  0.6318
   41CHL1    C3 4141   1.132   2.506   6.533  0.5547 -0.3678  0.1198
   41CHL1    H3 4142   1.241   2.522   6.523  0.2882  0.4418 -2.0460
   41CHL1    O3 4143   1.100   2.504   6.667  1.0465  0.5128 -0.2163
   41CHL1   H3' 4144   1.006   2.486   6.673  1.1531  0.1341  0.4488
   41CHL1    C4 4145   1.064   2.619   6.453 -0.0065  0.6550 -0.3904
   41CHL1   H4A 4146   0.957   2.604   6.479  0.5906 -3.4088  0.4083
   41CHL1   H4B 4147   1.099   2.710   6.506 -1.3167  0.3373  1.1023
   41CHL1    C5 4148   1.083   2.613   6.304 -0.3394 -0.2609  0.1388
   41CHL1    C6 4149   1.137   2.720   6.241 -0.5609  0.2580  0.7720
   41CHL1    H6 4150   1.157   2.806   6.305  1.4401  2.6676 -2.7386
   41CHL1    C7 4151   1.169   2.718   6.094  0.0041 -0.2358  0.3258
   41CHL1   H7A 4152   1.125   2.808   6.048 -0.4854 -1.0514 -0.8560
   41CHL1   H7B 4153   1.279   2.715   6.079  0.4316 -1.1733  3.0644
   41CHL1    C8 4154   1.105   2.603   6.014 -0.1166  0.1189  1.0044
   41CHL1    H8 4155   0.999   2.634   6.010  0.0266  0.5213  0.0139
   41CHL1   C14 4156   1.172   2.592   5.879  0.4242  0.3514  0.1075
   41CHL1   H14 4157   1.280   2.567   5.887  1.0148  2.1106 -1.5736
   41CHL1   C15 4158   1.185   2.716   5.794 -0.2789 -0.1841  0.7936
   41CHL1  H15A 4159   1.084   2.762   5.794 -0.8741 -1.1541 -2.6811
   41CHL1  H15B 4160   1.261   2.795   5.814  1.3390 -1.1074 -1.2481
   41CHL1   C16 4161   1.211   2.672   5.647  0.4494 -0.1129 -0.0124
   41CHL1  H16A 4162   1.142   2.728   5.580 -1.2971 -1.0849  0.9038
   41CHL1  H16B 4163   1.316   2.686   5.614  0.7728 -0.4742  0.8352
   41CHL1   C17 4164   1.180   2.518   5.651  0.0164  0.1113 -0.5333
   41CHL1   H17 4165   1.277   2.466   5.670 -0.8725 -1.1039  0.8777
   41CHL1   C13 4166   1.102   2.494   5.783 -0.0766 -0.1849  0.1591
   41CHL1   C18 4167   0.952   2.532   5.755  0.1789  0.2352 -0.7194
   41CHL1  H18A 4168   0.898   2.449   5.705 -0.6655  0.4049 -0.1215
   41CHL1  H18B 4169   0.888   2.563   5.841 -0.3033 -0.7388 -0.7175
   41CHL1  H18C 4170   0.955   2.620   5.687 -1.7374  2.0310  1.3485
   41CHL1   C12 4171   1.118   2.357   5.851 -0.2483  0.5418  0.4948
   41CHL1  H12A 4172   1.066   2.279   5.792 -1.8971  0.7864  1.5491
   41CHL1  H12B 4173   1.225   2.328   5.865 -1.0660 -3.6515 -0.5784
   41CHL1   C11 4174   1.053   2.361   5.995  0.7281 -0.2269 -0.8824
   41CHL1  H11A 4175   0.943   2.378   5.993  0.5439 -1.2794 -0.2501
   41CHL1  H11B 4176   1.081   2.275   6.059 -0.0167 -0.0903 -0.3664
   41CHL1    C9 4177   1.113   2.476   6.086  0.4145 -0.4517  0.2892
   41CHL1    H9 4178   1.221   2.454   6.102  0.3834 -1.7554 -1.0560
   41CHL1   C10 4179   1.056   2.477   6.232  0.2735  0.5435 -0.0136
   41CHL1   C19 4180   0.906   2.451   6.226 -1.1673 -0.6872 -0.7927
   41CHL1  H19A 4181   0.859   2.513   6.148  0.5180  1.0172 -0.5263
   41CHL1  H19B 4182   0.883   2.344   6.206  0.6710 -1.0214 -1.2884
   41CHL1  H19C 4183   0.873   2.465   6.331  2.1581 -0.3343  0.3310
   41CHL1    C1 4184   1.127   2.360   6.313 -0.4908  0.3691  0.2913
   41CHL1   H1A 4185   1.093   2.263   6.270 -0.0783  0.6380 -0.6418
   41CHL1   H1B 4186   1.236   2.364   6.293 -0.1548 -2.9269  0.7874
   41CHL1    C2 4187   1.098   2.368   6.465  0.2736 -0.3614  0.1118
   41CHL1   H2A 4188   1.159   2.303   6.533 -0.5194  0.8095  2.0431
   41CHL1   H2B 4189   0.993   2.337   6.482 -0.8707  2.5558 -1.1059
   41CHL1   C20 4190   1.130   2.456   5.524  0.3977 -0.0202 -0.3521
   41CHL1   H20 4191   1.028   2.498   5.511 -1.2286 -2.4852  3.0006
   41CHL1   C21 4192   1.106   2.302   5.535 -0.3961 -0.5333  0.4454
   41CHL1  H21A 4193   1.117   2.261   5.433  0.0527  0.9474 -0.1126
   41CHL1  H21B 4194   1.003   2.280   5.572 -1.0285 -3.7974 -2.6840
   41CHL1  H21C 4195   1.189   2.258   5.593  0.9716  0.7688 -0.4649
   41CHL1   C22 4196   1.217   2.496   5.401 -0.4222 -0.3369  0.2285
   41CHL1  H22A 4197   1.167   2.447   5.315  0.6428  1.0430 -1.2463
   41CHL1  H22B 4198   1.208   2.606   5.390 -1.5937 -0.5978 -1.8809
   41CHL1   C23 4199   1.363   2.444   5.401 -0.2160 -0.0123 -0.2976
   41CHL1  H23A 4200   1.410   2.469   5.498 -0.0042  1.0686 -0.6710
   41CHL1  H23B 4201   1.348   2.334   5.389 -3.1526  0.1945  0.7159
   41CHL1   C24 4202   1.438   2.507   5.283 -0.5253 -0.1264 -0.0667
   41CHL1  H24A 4203   1.367   2.530   5.201 -0.5015  1.5389  0.3508
   41CHL1  H24B 4204   1.475   2.611   5.298  0.2513 -0.4444  0.2758
   41CHL1   C25 4205   1.557   2.424   5.224 -0.5752 -0.0307  0.3563
   41CHL1   H25 4206   1.503   2.329   5.209  0.2433 -0.4399 -0.0566
   41CHL1   C26 4207   1.606   2.492   5.095 -0.3956 -0.0289 -0.0795
   41CHL1  H26A 4208   1.689   2.430   5.053  0.7766  1.7178 -0.4413
   41CHL1  H26B 4209   1.530   2.501   5.015  0.4488  0.4325 -0.8484
   41CHL1  H26C 4210   1.642   2.592   5.127 -1.7955  0.0946  1.2444
   41CHL1   C27 4211   1.666   2.391   5.326  0.4421 -0.5674  0.2771
   41CHL1  H27A 4212   1.617   2.354   5.419 -2.6672  0.6372 -0.7402
   41CHL1  H27B 4213   1.723   2.307   5.282 -1.6609 -1.7924 -0.2290
   41CHL1  H27C 4214   1.735   2.476   5.346  0.7726 -0.9660  0.8432
   42CHL1    C3 4215   5.870   1.980   6.350 -0.3902 -0.2738  0.8770
   42CHL1    H3 4216   5.782   1.932   6.301  1.4769 -2.8869 -0.1275
   42CHL1    O3 4217   5.889   1.945   6.488 -0.0161  0.5792  0.2544
   42CHL1   H3' 4218   5.900   2.031   6.529 -1.8460  0.5692  0.8887
   42CHL1    C4 4219   5.994   1.918   6.279 -0.1960 -0.2624 -0.2687
   42CHL1   H4A 4220   6.083   1.967   6.324 -0.7528  1.8998 -1.3889
   42CHL1   H4B 4221   6.005   1.809   6.296  1.1441  0.1337  1.6942
   42CHL1    C5 4222   5.987   1.955   6.133  0.4718 -0.4703  0.2961
   42CHL1    C6 4223   5.997   1.856   6.043 -0.2504 -0.4688  0.1509
   42CHL1    H6 4224   6.006   1.752   6.078  2.1303 -0.8110 -1.2481
   42CHL1    C7 4225   6.002   1.878   5.896 -0.2988  0.6072  0.4197
   42CHL1   H7A 4226   6.079   1.817   5.844 -0.0627  0.8866  0.4407
   42CHL1   H7B 4227   5.907   1.845   5.848  0.4404  2.6575 -2.7468
   42CHL1    C8 4228   6.024   2.027   5.851 -0.0378  0.4928 -0.5044
   42CHL1    H8 4229   6.132   2.052   5.859 -0.2238  1.1532 -0.0461
   42CHL1   C14 4230   5.979   2.046   5.703 -0.1287 -0.6060 -0.1843
   42CHL1   H14 4231   5.870   2.026   5.700  0.2013 -2.4851 -0.7854
   42CHL1   C15 4232   6.039   1.952   5.599  0.1209 -0.0160  0.1052
   42CHL1  H15A 4233   6.147   1.942   5.627  0.5943 -0.7947 -1.8765
   42CHL1  H15B 4234   5.994   1.851   5.604 -0.9184  0.4509  0.4452
   42CHL1   C16 4235   6.020   2.025   5.465 -0.0089  0.5462  0.2738
   42CHL1  H16A 4236   6.114   2.043   5.409 -1.1601 -1.1910 -2.4604
   42CHL1  H16B 4237   5.953   1.973   5.392 -1.9713  1.2963  1.4506
   42CHL1   C17 4238   5.952   2.165   5.504 -0.5092  0.8626 -0.4619
   42CHL1   H17 4239   5.842   2.152   5.519 -0.3213  1.8267  2.5312
   42CHL1   C13 4240   6.001   2.189   5.649 -0.7225 -0.0868 -0.6693
   42CHL1   C18 4241   6.154   2.229   5.647  0.3074  0.3199  0.5936
   42CHL1  H18A 4242   6.212   2.173   5.571 -1.5997 -0.1567 -0.5878
   42CHL1  H18B 4243   6.145   2.334   5.609 -1.8242 -0.5186 -1.5389
   42CHL1  H18C 4244   6.197   2.211   5.747 -2.9893 -0.0440  2.0752
   42CHL1   C12 4245   5.936   2.288   5.746 -0.6598  0.0592  0.1727
   42CHL1  H12A 4246   5.956   2.394   5.717  1.4971 -1.0180 -2.6926
   42CHL1  H12B 4247   5.831   2.257   5.732 -0.2200 -1.8469  0.8338
   42CHL1   C11 4248   5.968   2.261   5.893 -0.2062 -0.1025 -0.4842
   42CHL1  H11A 4249   6.069   2.304   5.911 -0.9729  1.4309  0.4263
   42CHL1  H11B 4250   5.901   2.330   5.949  0.0037 -0.7788  0.6214
   42CHL1    C9 4251   5.942   2.120   5.938 -0.5472  0.5873  0.0334
   42CHL1    H9 4252   5.834   2.095   5.931 -0.3495 -0.6863  1.0897
   42CHL1   C10 4253   5.974   2.097   6.090 -0.1286  0.3187 -0.4403
   42CHL1   C19 4254   6.117   2.153   6.120 -0.1435  0.3035 -0.2628
   42CHL1  H19A 4255   6.194   2.117   6.048  2.7589 -0.6182  3.0233
   42CHL1  H19B 4256   6.123   2.264   6.113  3.3709  0.1482 -1.7295
   42CHL1  H19C 4257   6.158   2.129   6.221  1.9210 -3.7211 -1.8427
   42CHL1    C1 4258   5.872   2.173   6.180  0.1799 -0.6586 -0.1868
   42CHL1   H1A 4259   5.884   2.280   6.151  0.2369 -0.6685 -0.2008
   42CHL1   H1B 4260   5.776   2.140   6.135  1.5604 -3.1231 -1.5830
   42CHL1    C2 4261   5.868   2.131   6.331  0.2592 -0.1150  1.3016
   42CHL1   H2A 4262   5.780   2.160   6.391  0.5368  1.6374  0.9165
   42CHL1   H2B 4263   5.957   2.176   6.380 -0.6854 -0.2824  3.2291
   42CHL1   C20 4264   5.967   2.280   5.400 -0.6242  0.5770  0.3215
   42CHL1   H20 4265   6.072   2.311   5.383  0.0649 -2.3641 -1.5102
   42CHL1   C21 4266   5.884   2.402   5.448  0.0858 -0.3847 -0.6843
   42CHL1  H21A 4267   5.867   2.477   5.368  1.5225  0.7082 -0.0113
   42CHL1  H21B 4268   5.934   2.451   5.534  0.7057  0.6437 -1.6123
   42CHL1  H21C 4269   5.782   2.370   5.477 -1.5432  2.1776 -3.0765
   42CHL1   C22 4270   5.912   2.232   5.261  0.4274 -0.9542  0.5276
   42CHL1  H22A 4271   5.921   2.126   5.229  0.8057  0.3063 -4.4927
   42CHL1  H22B 4272   5.802   2.247   5.254  0.5478 -0.1528  0.1985
   42CHL1   C23 4273   5.968   2.306   5.140  0.0194 -0.1390  0.3216
   42CHL1  H23A 4274   5.951   2.416   5.150  0.3524  0.0425 -0.9586
   42CHL1  H23B 4275   6.077   2.288   5.140 -0.1977 -1.6483 -1.3472
   42CHL1   C24 4276   5.910   2.266   5.001  0.1777 -0.0637 -0.4822
   42CHL1  H24A 4277   5.907   2.155   4.999 -3.5924 -0.1628  1.2943
   42CHL1  H24B 4278   5.807   2.308   4.992  0.6332  1.3106  0.4675
   42CHL1   C25 4279   5.992   2.305   4.876  0.0283 -0.5763  0.1594
   42CHL1   H25 4280   6.099   2.282   4.893 -0.4170 -2.1675  1.0790
   42CHL1   C26 4281   5.972   2.224   4.748  0.8452  1.0202  0.2019
   42CHL1  H26A 4282   5.869   2.241   4.712 -0.2249 -0.5063  2.2883
   42CHL1  H26B 4283   6.061   2.240   4.683  2.8681 -1.2053  2.1803
   42CHL1  H26C 4284   5.971   2.120   4.786 -0.7232  1.5713  1.7927
   42CHL1   C27 4285   5.989   2.453   4.844  0.5064 -0.0292 -0.4601
   42CHL1  H27A 4286   6.021   2.522   4.925 -2.1160  2.2342 -1.2286
   42CHL1  H27B 4287   6.051   2.477   4.755 -0.8974 -0.3525 -1.5679
   42CHL1  H27C 4288   5.890   2.493   4.815  1.1072  1.0561 -1.0746
   43CHL1    C3 4289   0.452   1.854   6.530 -0.3996 -0.1412 -0.4540
   43CHL1    H3 4290   0.540   1.902   6.481 -1.7270  1.4597 -1.3829
   43CHL1    O3 4291   0.470   1.851   6.672 -0.5079 -0.1891 -0.2822
   43CHL1   H3' 4292   0.387   1.838   6.718  0.9945 -0.6775  2.5312
   43CHL1    C4 4293   0.331   1.931   6.486  0.8035  0.6434  0.1223
   43CHL1   H4A 4294   0.237   1.896   6.534  1.2124 -0.8826 -0.1564
   43CHL1   H4B 4295   0.349   2.038   6.511  1.8090  1.0982 -2.3120
   43CHL1    C5 4296   0.311   1.928   6.335  0.1075 -0.1273  0.4106
   43CHL1    C6 4297   0.305   2.042   6.264 -0.2117  0.5046 -0.3614
   43CHL1    H6 4298   0.303   2.136   6.321  0.7172 -0.9960  2.3361
   43CHL1    C7 4299   0.304   2.044   6.116 -0.3649  0.4017 -0.2409
   43CHL1   H7A 4300   0.257   2.142   6.090  1.4748  1.2411 -0.5559
   43CHL1   H7B 4301   0.409   2.054   6.082  0.5425 -0.9863  1.9875
   43CHL1    C8 4302   0.244   1.907   6.057  0.5846 -0.9404 -0.6309
   43CHL1    H8 4303   0.138   1.900   6.090  1.1971 -0.8362  1.4830
   43CHL1   C14 4304   0.268   1.903   5.905 -0.1879 -0.5990 -0.1378
   43CHL1   H14 4305   0.378   1.903   5.894 -0.1863  1.8027 -0.7937
   43CHL1   C15 4306   0.218   2.027   5.827  0.2139  0.5870  0.1238
   43CHL1  H15A 4307   0.112   2.051   5.852 -1.2346 -2.2690 -2.6249
   43CHL1  H15B 4308   0.287   2.107   5.861  0.6064  0.9956 -1.5363
   43CHL1   C16 4309   0.241   1.991   5.680  0.6926  0.5279  0.1232
   43CHL1  H16A 4310   0.143   1.995   5.628  0.4439 -1.0574  0.3998
   43CHL1  H16B 4311   0.332   2.031   5.631  0.1598  0.4368 -0.9695
   43CHL1   C17 4312   0.269   1.835   5.689  0.4179  0.2761  0.7319
   43CHL1   H17 4313   0.378   1.809   5.694  0.6599  0.9977 -0.4834
   43CHL1   C13 4314   0.214   1.786   5.832  0.5634 -0.0544  0.0050
   43CHL1   C18 4315   0.061   1.778   5.836 -0.4609 -0.0874  0.1589
   43CHL1  H18A 4316   0.010   1.874   5.812  0.6894  0.7444  0.9987
   43CHL1  H18B 4317   0.021   1.695   5.773 -0.0539 -2.3501  2.7044
   43CHL1  H18C 4318   0.031   1.756   5.940  0.5469  0.1906  0.5150
   43CHL1   C12 4319   0.289   1.659   5.887 -0.6003  0.7932  0.1196
   43CHL1  H12A 4320   0.240   1.566   5.850  0.6457 -0.1478  0.7491
   43CHL1  H12B 4321   0.396   1.646   5.861 -0.3127 -1.0743  1.9028
   43CHL1   C11 4322   0.274   1.660   6.044 -0.1821 -0.1738 -0.5237
   43CHL1  H11A 4323   0.167   1.647   6.068  0.0900 -1.8500 -0.0529
   43CHL1  H11B 4324   0.326   1.570   6.083 -1.0399 -0.7843 -0.7747
   43CHL1    C9 4325   0.327   1.791   6.114 -0.2771  0.5614 -0.4500
   43CHL1    H9 4326   0.435   1.813   6.100 -0.2477  1.8207  1.3626
   43CHL1   C10 4327   0.316   1.788   6.269  0.5132 -0.6825 -0.2177
   43CHL1   C19 4328   0.193   1.719   6.317  0.1771  0.8816 -0.4536
   43CHL1  H19A 4329   0.092   1.762   6.296 -0.3210 -0.9423 -2.1479
   43CHL1  H19B 4330   0.187   1.616   6.276  0.5322  0.7788 -0.2497
   43CHL1  H19C 4331   0.199   1.702   6.427  0.3759 -0.9803 -0.7277
   43CHL1    C1 4332   0.439   1.708   6.327  0.0344 -0.6326  0.0362
   43CHL1   H1A 4333   0.433   1.604   6.288 -2.8912  0.1379 -1.9088
   43CHL1   H1B 4334   0.526   1.761   6.284 -1.4431  0.9402 -1.1976
   43CHL1    C2 4335   0.451   1.713   6.476  0.3215  1.2155  0.2626
   43CHL1   H2A 4336   0.546   1.665   6.508  0.3277  0.6633 -0.5484
   43CHL1   H2B 4337   0.375   1.647   6.523 -0.7631  2.3632  0.1796
   43CHL1   C20 4338   0.224   1.759   5.564 -0.1660  0.1355 -0.7181
   43CHL1   H20 4339   0.119   1.728   5.586  0.3478  0.0887  1.9132
   43CHL1   C21 4340   0.312   1.631   5.550  0.4621  0.4388  0.6719
   43CHL1  H21A 4341   0.338   1.582   5.647  1.1665 -0.3279  0.1167
   43CHL1  H21B 4342   0.403   1.653   5.491 -0.0935  1.8274  0.3084
   43CHL1  H21C 4343   0.268   1.552   5.486  2.1862  0.3551 -0.4565
   43CHL1   C22 4344   0.225   1.838   5.437 -0.4093 -0.0111  0.7601
   43CHL1  H22A 4345   0.143   1.913   5.447 -0.9162 -0.0858 -1.9498
   43CHL1  H22B 4346   0.326   1.879   5.417 -0.1712 -1.2670 -0.8100
   43CHL1   C23 4347   0.173   1.766   5.310  0.1992 -0.0005 -0.4230
   43CHL1  H23A 4348   0.248   1.689   5.285  0.1685 -0.8044  1.7278
   43CHL1  H23B 4349   0.076   1.717   5.335 -0.5568  1.2413 -0.7984
   43CHL1   C24 4350   0.145   1.859   5.190  0.0969  0.6029  0.6440
   43CHL1  H24A 4351   0.065   1.928   5.227 -0.3486 -0.3718  1.5800
   43CHL1  H24B 4352   0.242   1.908   5.168  1.8113 -2.8956 -0.3173
   43CHL1   C25 4353   0.095   1.786   5.066  0.1326 -0.1217 -0.6493
   43CHL1   H25 4354   0.059   1.858   4.989 -0.6809 -0.1480 -0.3065
   43CHL1   C26 4355   0.215   1.710   5.003  0.1677  0.0448 -0.3647
   43CHL1  H26A 4356   0.310   1.766   5.007 -0.0526  0.6840 -2.6075
   43CHL1  H26B 4357   0.228   1.613   5.055  0.9738 -0.5059 -1.5553
   43CHL1  H26C 4358   0.187   1.689   4.897  0.4748  0.1973 -0.4749
   43CHL1   C27 4359  -0.024   1.686   5.089 -0.7344 -0.7263  0.3635
   43CHL1  H27A 4360   0.012   1.603   5.154  0.6192 -1.0564 -0.7485
   43CHL1  H27B 4361  -0.108   1.740   5.137  1.5732  2.0385  1.5288
   43CHL1  H27C 4362  -0.056   1.631   4.998  0.1361 -1.2845  0.3762
   44CHL1    C3 4363   1.585   5.385   6.477  0.1146  0.2438  0.2977
   44CHL1    H3 4364   1.682   5.332   6.471 -0.3517 -0.4550 -2.0977
   44CHL1    O3 4365   1.570   5.396   6.613 -0.0112  0.4437 -0.2899
   44CHL1   H3' 4366   1.528   5.482   6.626  0.0483  0.4649 -0.2378
   44CHL1    C4 4367   1.606   5.514   6.400  0.1474 -0.3103  0.5254
   44CHL1   H4A 4368   1.519   5.580   6.421 -0.6436 -0.9915 -0.5232
   44CHL1   H4B 4369   1.693   5.576   6.430 -0.6990  0.8549  0.6316
   44CHL1    C5 4370   1.603   5.485   6.249 -0.6843  0.5918  0.3432
   44CHL1    C6 4371   1.708   5.521   6.174 -0.3061  0.5589  0.1777
   44CHL1    H6 4372   1.796   5.565   6.222  1.9010 -1.9160 -1.2904
   44CHL1    C7 4373   1.715   5.510   6.023 -0.7933 -0.0768  0.0530
   44CHL1   H7A 4374   1.782   5.587   5.979  0.6132 -1.0178  0.4597
   44CHL1   H7B 4375   1.768   5.415   5.997  1.8303  0.7894  1.8358
   44CHL1    C8 4376   1.572   5.495   5.959  0.1112 -0.2467  0.3722
   44CHL1    H8 4377   1.534   5.599   5.967 -1.1733 -0.7922  1.8438
   44CHL1   C14 4378   1.572   5.453   5.808 -0.5681 -0.2578 -0.9259
   44CHL1   H14 4379   1.617   5.351   5.815  0.6949  0.4057  1.5703
   44CHL1   C15 4380   1.661   5.533   5.704  0.9144 -0.2999 -0.3695
   44CHL1  H15A 4381   1.646   5.641   5.721 -2.2361 -0.9696  2.3309
   44CHL1  H15B 4382   1.769   5.514   5.718  0.7177  0.2860  2.4154
   44CHL1   C16 4383   1.596   5.499   5.565  0.3779 -0.9013 -0.0333
   44CHL1  H16A 4384   1.582   5.601   5.523  2.6423  0.0252  1.2407
   44CHL1  H16B 4385   1.663   5.434   5.503  1.2053 -1.3833  1.3253
   44CHL1   C17 4386   1.470   5.411   5.605  1.1093 -0.7719 -0.2332
   44CHL1   H17 4387   1.508   5.307   5.618 -0.4023 -1.0238  3.1249
   44CHL1   C13 4388   1.440   5.437   5.752  0.0680  0.0120 -0.5956
   44CHL1   C18 4389   1.371   5.570   5.758  0.6837  0.0545  0.4742
   44CHL1  H18A 4390   1.268   5.577   5.716  0.4419  1.7752  1.2537
   44CHL1  H18B 4391   1.373   5.605   5.863  0.7378  1.8681 -0.1009
   44CHL1  H18C 4392   1.437   5.644   5.708  1.4114 -1.5638 -1.0789
   44CHL1   C12 4393   1.362   5.326   5.825  0.2830 -0.0566  0.0849
   44CHL1  H12A 4394   1.257   5.335   5.789  0.2498  0.3712  0.2821
   44CHL1  H12B 4395   1.403   5.224   5.810 -1.3936 -0.4553 -2.2442
   44CHL1   C11 4396   1.352   5.359   5.970 -0.2881  0.7598 -0.0635
   44CHL1  H11A 4397   1.274   5.439   5.969  0.1369  1.1741 -1.0408
   44CHL1  H11B 4398   1.306   5.269   6.016 -0.6566 -0.3551 -2.4552
   44CHL1    C9 4399   1.486   5.397   6.037 -0.3177 -0.6391 -0.3025
   44CHL1    H9 4400   1.534   5.297   6.026 -1.4749 -1.1488 -0.8945
   44CHL1   C10 4401   1.478   5.417   6.192  0.0445 -0.2398 -0.1926
   44CHL1   C19 4402   1.353   5.497   6.225  0.4147  0.3184  0.0422
   44CHL1  H19A 4403   1.353   5.593   6.170  1.1428  1.7658  2.4600
   44CHL1  H19B 4404   1.261   5.436   6.210  1.0303 -0.7882  0.5948
   44CHL1  H19C 4405   1.349   5.519   6.333 -0.2594  2.0984 -0.3099
   44CHL1    C1 4406   1.477   5.283   6.269  0.2765 -0.5426 -0.4441
   44CHL1   H1A 4407   1.393   5.220   6.230 -0.0945  0.3386 -1.0938
   44CHL1   H1B 4408   1.573   5.228   6.258  0.9300  0.1651  1.3338
   44CHL1    C2 4409   1.475   5.298   6.428  0.5029 -0.2520 -0.5059
   44CHL1   H2A 4410   1.479   5.200   6.481  1.0491  0.2665  0.4328
   44CHL1   H2B 4411   1.375   5.344   6.443  0.4690 -0.5631  0.2732
   44CHL1   C20 4412   1.350   5.414   5.501 -0.1156  0.6987 -0.4552
   44CHL1   H20 4413   1.247   5.403   5.542 -0.4381  0.6502 -1.2379
   44CHL1   C21 4414   1.364   5.282   5.426 -0.2825  0.2441  0.6145
   44CHL1  H21A 4415   1.279   5.274   5.356 -0.5516  1.1185  0.8249
   44CHL1  H21B 4416   1.339   5.204   5.501  1.9557 -0.6692  0.5107
   44CHL1  H21C 4417   1.462   5.259   5.379  0.0912  0.0549  1.4728
   44CHL1   C22 4418   1.339   5.536   5.401  0.1257  0.2047 -0.6218
   44CHL1  H22A 4419   1.319   5.625   5.465  1.3713 -0.9600  1.4953
   44CHL1  H22B 4420   1.426   5.541   5.333  1.6236 -1.5240  1.0459
   44CHL1   C23 4421   1.220   5.536   5.296  0.4978 -0.4160 -0.3112
   44CHL1  H23A 4422   1.242   5.450   5.230 -0.5667 -1.5878  0.8104
   44CHL1  H23B 4423   1.127   5.522   5.355 -0.1609  2.1890 -0.5666
   44CHL1   C24 4424   1.222   5.664   5.218  0.2362  0.1379 -0.3569
   44CHL1  H24A 4425   1.183   5.738   5.291 -0.6197 -0.7441  0.1099
   44CHL1  H24B 4426   1.330   5.680   5.203  0.8758 -1.8885  1.5085
   44CHL1   C25 4427   1.128   5.664   5.088 -0.2464 -0.3322 -0.3995
   44CHL1   H25 4428   1.026   5.639   5.124 -0.7362 -0.2251 -1.6818
   44CHL1   C26 4429   1.119   5.802   5.019  0.2470 -1.0922  0.1833
   44CHL1  H26A 4430   1.064   5.872   5.086 -1.3463 -1.1019 -1.0553
   44CHL1  H26B 4431   1.223   5.837   5.002  0.4588 -1.3467  0.9282
   44CHL1  H26C 4432   1.076   5.802   4.917  1.8940 -2.6034 -0.5460
   44CHL1   C27 4433   1.171   5.562   4.979 -0.3392  0.6903  0.0911
   44CHL1  H27A 4434   1.264   5.597   4.930 -0.3428  1.0485  0.3355
   44CHL1  H27B 4435   1.178   5.464   5.030  0.0591  1.0869  0.8258
   44CHL1  H27C 4436   1.089   5.556   4.904  1.2956 -1.6770 -1.6378
   45CHL1    C3 4437   2.007   5.532   6.692  0.1157 -0.3738  0.2666
   45CHL1    H3 4438   1.915   5.487   6.647 -1.4121  2.4964  0.2670
   45CHL1    O3 4439   1.985   5.571   6.821 -0.1029 -0.0647  0.7181
   45CHL1   H3' 4440   2.069   5.597   6.859 -0.1188 -0.2821  0.9040
   45CHL1    C4 4441   2.135   5.449   6.674 -0.4784 -0.2592 -0.1684
   45CHL1   H4A 4442   2.223   5.508   6.707  0.9029 -3.1406  1.6805
   45CHL1   H4B 4443   2.136   5.361   6.741  1.5368  0.8004  1.2829
   45CHL1    C5 4444   2.157   5.405   6.531  1.0194 -0.3866  0.5884
   45CHL1    C6 4445   2.175   5.275   6.486 -0.3674 -0.3609 -0.6269
   45CHL1    H6 4446   2.175   5.196   6.563  1.1079  0.4697  0.2645
   45CHL1    C7 4447   2.205   5.227   6.347  0.2241 -0.6993  0.0843
   45CHL1   H7A 4448   2.306   5.179   6.344  1.7120  2.0576  1.9437
   45CHL1   H7B 4449   2.134   5.149   6.311 -1.6954  1.8657 -1.9931
   45CHL1    C8 4450   2.223   5.348   6.259 -1.0336 -0.2852  0.4827
   45CHL1    H8 4451   2.327   5.381   6.283 -0.6782  0.7739 -2.2127
   45CHL1   C14 4452   2.224   5.299   6.116  0.4794 -0.5047 -0.4270
   45CHL1   H14 4453   2.119   5.270   6.093 -0.0741  1.1170 -0.1282
   45CHL1   C15 4454   2.317   5.186   6.073  0.0553 -0.5068 -0.2706
   45CHL1  H15A 4455   2.417   5.204   6.118 -0.2707 -1.2671  0.7966
   45CHL1  H15B 4456   2.299   5.080   6.101 -0.4340 -0.2456  0.4387
   45CHL1   C16 4457   2.335   5.202   5.926  0.2297 -0.0070  0.8553
   45CHL1  H16A 4458   2.444   5.210   5.907  0.1867 -2.3217 -0.8038
   45CHL1  H16B 4459   2.302   5.114   5.867  1.4585 -0.0464  0.1993
   45CHL1   C17 4460   2.258   5.336   5.876  0.4552  0.6388 -0.2178
   45CHL1   H17 4461   2.150   5.317   5.862 -0.6121  5.3180  0.0915
   45CHL1   C13 4462   2.250   5.410   6.018  0.4263 -0.3096 -0.0846
   45CHL1   C18 4463   2.388   5.466   6.039  0.1317 -0.3333  0.4618
   45CHL1  H18A 4464   2.406   5.548   5.966  3.1037 -1.4726 -0.2250
   45CHL1  H18B 4465   2.398   5.511   6.140  1.7208  0.8806 -0.2053
   45CHL1  H18C 4466   2.471   5.392   6.033  0.9731  0.5617  0.8039
   45CHL1   C12 4467   2.140   5.524   6.036 -0.6789 -0.1185  0.3416
   45CHL1  H12A 4468   2.152   5.613   5.972  1.9594  0.0726  0.9536
   45CHL1  H12B 4469   2.040   5.480   6.015 -1.1284  1.4565 -0.9891
   45CHL1   C11 4470   2.134   5.575   6.182  0.0354  0.2876 -0.0214
   45CHL1  H11A 4471   2.223   5.640   6.200  1.0108 -1.1935  0.6774
   45CHL1  H11B 4472   2.046   5.641   6.196  0.6293  1.0458  0.1911
   45CHL1    C9 4473   2.131   5.459   6.285  0.0559 -0.1762  0.2528
   45CHL1    H9 4474   2.032   5.410   6.285 -0.3498  0.6008 -1.0893
   45CHL1   C10 4475   2.152   5.517   6.430 -0.6270 -0.3070  0.1639
   45CHL1   C19 4476   2.287   5.587   6.446  0.7919  0.1985  0.0433
   45CHL1  H19A 4477   2.371   5.515   6.436 -1.1780 -2.5843  1.8814
   45CHL1  H19B 4478   2.300   5.670   6.374 -0.0519  1.6011  1.4569
   45CHL1  H19C 4479   2.293   5.635   6.546 -0.1306  1.5835 -0.5362
   45CHL1    C1 4480   2.025   5.606   6.460  0.3115  0.7915  0.3582
   45CHL1   H1A 4481   2.033   5.703   6.406 -0.8726 -0.5836 -2.4953
   45CHL1   H1B 4482   1.935   5.549   6.429 -0.1181 -0.6862  3.8897
   45CHL1    C2 4483   2.018   5.654   6.609  0.4699  0.0203  0.3820
   45CHL1   H2A 4484   1.926   5.715   6.625  0.4921  0.1963 -0.1491
   45CHL1   H2B 4485   2.107   5.715   6.635 -0.7417  0.0808  5.3259
   45CHL1   C20 4486   2.328   5.396   5.758 -0.4330 -1.2513 -0.1085
   45CHL1   H20 4487   2.432   5.429   5.781 -1.2448  0.9079  0.7738
   45CHL1   C21 4488   2.248   5.519   5.712  0.1662  0.1350 -0.0234
   45CHL1  H21A 4489   2.138   5.505   5.721  0.3589 -2.5391 -1.0905
   45CHL1  H21B 4490   2.267   5.547   5.606 -0.0454 -1.3804 -0.4829
   45CHL1  H21C 4491   2.277   5.602   5.780 -0.6483 -0.9615  1.7384
   45CHL1   C22 4492   2.342   5.300   5.635 -0.0290  0.4073 -0.5202
   45CHL1  H22A 4493   2.373   5.199   5.668 -0.2995 -0.5304 -2.9064
   45CHL1  H22B 4494   2.245   5.298   5.582  0.6771  0.8550 -1.8767
   45CHL1   C23 4495   2.445   5.348   5.538 -0.1677 -0.4197  0.6978
   45CHL1  H23A 4496   2.418   5.454   5.520 -1.7336 -0.1751  3.7323
   45CHL1  H23B 4497   2.545   5.350   5.585  0.4792 -1.4549 -0.5725
   45CHL1   C24 4498   2.454   5.272   5.406  0.6022  0.2278  0.2081
   45CHL1  H24A 4499   2.472   5.164   5.424  1.6687  0.4926  0.8318
   45CHL1  H24B 4500   2.356   5.286   5.355  1.5804  0.2248 -1.7349
   45CHL1   C25 4501   2.567   5.315   5.311  0.4689 -0.8234 -0.0578
   45CHL1   H25 4502   2.664   5.303   5.364 -0.1682 -3.3622  0.6364
   45CHL1   C26 4503   2.567   5.223   5.186 -0.1371 -0.8328  0.4619
   45CHL1  H26A 4504   2.564   5.119   5.225 -0.9713 -0.9420  0.1292
   45CHL1  H26B 4505   2.470   5.238   5.135 -1.2287  1.0965  2.9087
   45CHL1  H26C 4506   2.649   5.255   5.118 -1.5522  0.3861 -0.7309
   45CHL1   C27 4507   2.547   5.464   5.273  0.4761  0.6470 -0.2405
   45CHL1  H27A 4508   2.610   5.481   5.183 -1.3152  1.9581 -1.3015
   45CHL1  H27B 4509   2.441   5.479   5.243 -0.2046 -2.6347  0.0681
   45CHL1  H27C 4510   2.568   5.532   5.358 -3.0506  0.3122  1.0368
   46CHL1    C3 4511   6.797   4.905   6.364  0.2288 -0.5085 -0.3306
   46CHL1    H3 4512   6.774   5.012   6.344 -0.1513 -0.8123 -1.5534
   46CHL1    O3 4513   6.788   4.880   6.506 -0.1092 -0.0637  0.3517
   46CHL1   H3' 4514   6.845   4.947   6.544  0.6732  0.1988 -1.1863
   46CHL1    C4 4515   6.681   4.826   6.298 -0.8086 -0.6715  0.0064
   46CHL1   H4A 4516   6.696   4.717   6.316  0.6447 -0.3506  0.9065
   46CHL1   H4B 4517   6.579   4.860   6.327 -0.9867 -0.1933 -1.1685
   46CHL1    C5 4518   6.688   4.855   6.151  0.6069  0.2343  0.7016
   46CHL1    C6 4519   6.582   4.909   6.090  0.4780 -0.0723  1.1390
   46CHL1    H6 4520   6.488   4.922   6.145  0.4477 -1.6104  1.4965
   46CHL1    C7 4521   6.573   4.932   5.941 -0.3811 -0.1338  0.4561
   46CHL1   H7A 4522   6.475   4.901   5.899 -1.9201  1.6491  2.4675
   46CHL1   H7B 4523   6.576   5.041   5.918 -1.0523 -0.2817 -0.3743
   46CHL1    C8 4524   6.690   4.867   5.859  0.3510 -0.0804  0.8901
   46CHL1    H8 4525   6.676   4.757   5.855 -0.6578  0.0729 -2.0563
   46CHL1   C14 4526   6.703   4.929   5.719 -0.2084  0.3817 -0.1290
   46CHL1   H14 4527   6.718   5.039   5.728 -0.5946  0.4985 -0.8696
   46CHL1   C15 4528   6.573   4.925   5.628  0.5839  0.5449 -0.2039
   46CHL1  H15A 4529   6.533   4.821   5.632  0.1837  0.6851 -0.5103
   46CHL1  H15B 4530   6.505   5.010   5.650  1.2069  1.4607 -1.7120
   46CHL1   C16 4531   6.629   4.935   5.486  0.2138  0.3647  0.0455
   46CHL1  H16A 4532   6.611   4.846   5.422 -1.4578  0.0667  0.8754
   46CHL1  H16B 4533   6.582   5.021   5.434  0.0581 -0.7630 -1.7900
   46CHL1   C17 4534   6.779   4.965   5.496 -0.1355  0.6280  0.2039
   46CHL1   H17 4535   6.798   5.073   5.516 -0.8196  0.7928 -0.0119
   46CHL1   C13 4536   6.815   4.887   5.627 -0.4092 -0.0597  0.3907
   46CHL1   C18 4537   6.807   4.733   5.600 -0.2790  1.3652 -0.2429
   46CHL1  H18A 4538   6.731   4.703   5.524 -1.3360  2.0164  0.5182
   46CHL1  H18B 4539   6.903   4.684   5.574  0.0705  0.4380  2.4876
   46CHL1  H18C 4540   6.773   4.676   5.689  1.6598  0.3823 -0.0913
   46CHL1   C12 4541   6.940   4.926   5.705 -0.4635 -0.0990 -0.2711
   46CHL1  H12A 4542   7.036   4.890   5.662  2.4254  1.8383  3.8927
   46CHL1  H12B 4543   6.952   5.036   5.716  2.5284 -0.4844  1.2941
   46CHL1   C11 4544   6.944   4.873   5.850 -0.2548  1.0546  0.5981
   46CHL1  H11A 4545   6.961   4.764   5.834 -0.7617  1.2105 -1.1721
   46CHL1  H11B 4546   7.032   4.919   5.900  0.5701 -2.6321  2.9807
   46CHL1    C9 4547   6.819   4.900   5.936 -0.3061  0.2084 -0.7298
   46CHL1    H9 4548   6.815   5.009   5.958 -2.4574 -0.3675  2.4689
   46CHL1   C10 4549   6.821   4.834   6.082 -0.4346 -0.2381  0.6507
   46CHL1   C19 4550   6.852   4.685   6.065  0.1935 -0.1600 -0.0436
   46CHL1  H19A 4551   6.855   4.638   6.166  0.0928  0.4091  0.2274
   46CHL1  H19B 4552   6.778   4.636   5.999 -3.1646  2.5028  1.4610
   46CHL1  H19C 4553   6.954   4.669   6.022  0.2338 -1.1283  0.3858
   46CHL1    C1 4554   6.942   4.902   6.161  0.7018  0.9834  0.2928
   46CHL1   H1A 4555   7.041   4.869   6.125 -0.3187  0.4120 -2.2067
   46CHL1   H1B 4556   6.931   5.013   6.160 -1.4595  0.8245  0.8763
   46CHL1    C2 4557   6.933   4.874   6.312 -0.3860  0.2806 -0.0371
   46CHL1   H2A 4558   6.998   4.945   6.367  0.1092 -2.2456  2.9170
   46CHL1   H2B 4559   6.965   4.772   6.343 -0.8187  0.5342  1.3026
   46CHL1   C20 4560   6.861   4.920   5.373 -0.2359  0.0590 -0.1908
   46CHL1   H20 4561   6.859   4.809   5.365  1.9649 -0.0747  0.2936
   46CHL1   C21 4562   7.009   4.951   5.377 -0.0204 -0.6725  0.4084
   46CHL1  H21A 4563   7.072   4.877   5.430  1.2864 -0.2594 -0.5105
   46CHL1  H21B 4564   7.024   5.045   5.435 -0.4463  0.0014 -0.5371
   46CHL1  H21C 4565   7.046   4.960   5.272  2.8984  0.0167  1.4047
   46CHL1   C22 4566   6.795   4.966   5.242 -0.3210 -0.9585  0.4358
   46CHL1  H22A 4567   6.838   4.911   5.155  1.4068  1.0808 -0.1159
   46CHL1  H22B 4568   6.686   4.947   5.245 -1.1648  3.0812  1.0514
   46CHL1   C23 4569   6.818   5.121   5.206 -0.2193 -0.2916 -0.5134
   46CHL1  H23A 4570   6.787   5.171   5.300 -0.8721  1.2737 -1.5148
   46CHL1  H23B 4571   6.924   5.146   5.182 -0.8207  2.5144 -0.6059
   46CHL1   C24 4572   6.732   5.164   5.086 -0.8326  0.0141 -0.0462
   46CHL1  H24A 4573   6.771   5.099   5.005  2.0663 -0.3343  1.4902
   46CHL1  H24B 4574   6.625   5.149   5.113 -1.0799  1.2882 -0.2348
   46CHL1   C25 4575   6.731   5.309   5.047 -0.1099 -0.1692  0.7629
   46CHL1   H25 4576   6.840   5.312   5.027  0.2796 -1.8470  2.3145
   46CHL1   C26 4577   6.661   5.320   4.908  0.2803 -0.0387  0.0738
   46CHL1  H26A 4578   6.556   5.285   4.914  0.0320  0.9819  2.7848
   46CHL1  H26B 4579   6.647   5.425   4.876 -2.4417 -0.4469 -0.3654
   46CHL1  H26C 4580   6.711   5.268   4.824  0.7826  0.5012  0.0378
   46CHL1   C27 4581   6.673   5.404   5.146  0.1311 -0.3567 -0.7518
   46CHL1  H27A 4582   6.695   5.504   5.104 -1.6741  0.7320  0.7490
   46CHL1  H27B 4583   6.565   5.392   5.166  0.2378  0.5249  0.4823
   46CHL1  H27C 4584   6.727   5.387   5.242 -1.0257  2.0876  0.4045
   47CHL1    C3 4585   4.300   6.280   6.208  0.7458 -0.5204 -0.3094
   47CHL1    H3 4586   4.344   6.179   6.192 -0.0357 -0.4245 -3.5814
   47CHL1    O3 4587   4.315   6.324   6.345  0.1083 -0.4028  0.2922
   47CHL1   H3' 4588   4.240   6.381   6.365  0.7663  0.8146 -0.5355
   47CHL1    C4 4589   4.376   6.380   6.123  0.5211 -0.5491 -0.3618
   47CHL1   H4A 4590   4.344   6.483   6.149  2.2833 -0.0847  0.0656
   47CHL1   H4B 4591   4.485   6.377   6.141  0.4237 -1.1924  0.1641
   47CHL1    C5 4592   4.360   6.344   5.970 -0.0415  0.7117 -0.5313
   47CHL1    C6 4593   4.466   6.314   5.896 -0.7365  0.7432  0.6982
   47CHL1    H6 4594   4.556   6.332   5.957 -0.4355  0.8030  0.2413
   47CHL1    C7 4595   4.472   6.281   5.747  0.2907  0.1822 -0.1850
   47CHL1   H7A 4596   4.554   6.340   5.701 -0.1509  0.6830 -0.3477
   47CHL1   H7B 4597   4.498   6.174   5.731 -0.0007 -0.1749  1.5434
   47CHL1    C8 4598   4.330   6.309   5.682 -0.7520  0.1596 -0.0455
   47CHL1    H8 4599   4.331   6.419   5.669  0.7865  0.3666  1.5426
   47CHL1   C14 4600   4.321   6.246   5.536 -0.0421 -0.5108 -0.5640
   47CHL1   H14 4601   4.328   6.136   5.548  1.3096 -0.5969 -1.8430
   47CHL1   C15 4602   4.437   6.284   5.447  0.1689 -0.0240 -0.1920
   47CHL1  H15A 4603   4.465   6.388   5.472 -3.0024  1.2118 -1.2625
   47CHL1  H15B 4604   4.518   6.211   5.468 -0.3255 -0.8871 -1.1561
   47CHL1   C16 4605   4.374   6.269   5.304 -0.5527  0.9428 -0.2681
   47CHL1  H16A 4606   4.379   6.367   5.252  0.1236  0.1606 -1.7211
   47CHL1  H16B 4607   4.428   6.202   5.235  2.0161  3.2115 -0.6289
   47CHL1   C17 4608   4.224   6.229   5.327  0.2658  0.6821  0.4230
   47CHL1   H17 4609   4.223   6.118   5.327  3.7431  0.5117 -0.9053
   47CHL1   C13 4610   4.189   6.275   5.469  0.0834 -0.1438 -0.6321
   47CHL1   C18 4611   4.161   6.428   5.460  0.4714 -0.2767 -0.1534
   47CHL1  H18A 4612   4.061   6.449   5.416  0.1571  0.5696  0.9215
   47CHL1  H18B 4613   4.164   6.474   5.561 -0.3316  0.0177 -0.2552
   47CHL1  H18C 4614   4.233   6.479   5.392 -0.6385  1.6636  0.0425
   47CHL1   C12 4615   4.083   6.194   5.547  0.2360 -0.4077  0.1082
   47CHL1  H12A 4616   3.979   6.189   5.506 -1.4287 -1.5249  4.0150
   47CHL1  H12B 4617   4.112   6.087   5.553 -2.1698 -1.1901 -0.8338
   47CHL1   C11 4618   4.082   6.250   5.698  0.2858  0.0692  0.6283
   47CHL1  H11A 4619   4.041   6.353   5.698 -1.5825 -0.2229 -5.9723
   47CHL1  H11B 4620   4.020   6.182   5.760  2.4658 -3.2976 -0.5773
   47CHL1    C9 4621   4.222   6.264   5.770 -1.1678  0.2421  0.1142
   47CHL1    H9 4622   4.253   6.159   5.788  0.8521  0.7658 -0.0335
   47CHL1   C10 4623   4.219   6.333   5.913  0.8091  0.1104  0.7112
   47CHL1   C19 4624   4.158   6.476   5.897  0.1071  0.1667 -0.0744
   47CHL1  H19A 4625   4.174   6.523   5.997 -3.3847 -1.4504  1.4190
   47CHL1  H19B 4626   4.196   6.533   5.810 -0.8324 -0.3498 -0.8398
   47CHL1  H19C 4627   4.049   6.454   5.895  0.2692 -0.9645  1.6406
   47CHL1    C1 4628   4.142   6.238   6.012  0.3137  0.7121 -0.1250
   47CHL1   H1A 4629   4.036   6.244   5.978  0.5239  3.8874 -0.5519
   47CHL1   H1B 4630   4.172   6.131   6.004 -1.6810  0.0340  0.6302
   47CHL1    C2 4631   4.155   6.277   6.161 -0.1810  0.1684 -0.0527
   47CHL1   H2A 4632   4.102   6.210   6.232 -0.5168 -1.0453 -1.4162
   47CHL1   H2B 4633   4.109   6.378   6.173  1.5221  1.0180 -0.3564
   47CHL1   C20 4634   4.131   6.269   5.206  0.8438  0.5698 -0.4086
   47CHL1   H20 4635   4.111   6.378   5.201 -3.0424  0.1836  1.8776
   47CHL1   C21 4636   3.998   6.205   5.233 -0.0379 -0.6097 -0.0420
   47CHL1  H21A 4637   3.939   6.225   5.141 -0.9944 -0.3784  0.6036
   47CHL1  H21B 4638   3.948   6.262   5.314  1.8050 -0.6341  1.1766
   47CHL1  H21C 4639   4.005   6.095   5.245  1.0284 -0.9960 -3.1897
   47CHL1   C22 4640   4.189   6.220   5.071  0.5778 -0.4515  0.3096
   47CHL1  H22A 4641   4.280   6.278   5.046 -1.5231  2.1516 -2.0733
   47CHL1  H22B 4642   4.223   6.115   5.083 -2.4159 -1.4197  1.2145
   47CHL1   C23 4643   4.089   6.207   4.953 -0.3963 -0.9234  0.5040
   47CHL1  H23A 4644   4.003   6.141   4.977 -0.3439 -1.7115 -1.2734
   47CHL1  H23B 4645   4.041   6.306   4.936 -0.9583 -1.5087 -1.6750
   47CHL1   C24 4646   4.137   6.130   4.833  0.0961  0.6014  0.2856
   47CHL1  H24A 4647   4.201   6.185   4.760 -0.7792 -1.8573 -2.4975
   47CHL1  H24B 4648   4.194   6.041   4.867  0.9507  0.2558 -1.8865
   47CHL1   C25 4649   4.027   6.091   4.733  0.2419 -0.5674 -0.7150
   47CHL1   H25 4650   3.938   6.059   4.792 -0.3600  4.3337  1.5314
   47CHL1   C26 4651   3.975   6.211   4.661  0.5715 -0.7121  0.2515
   47CHL1  H26A 4652   3.953   6.295   4.730  0.2158 -0.7053  0.1341
   47CHL1  H26B 4653   4.047   6.247   4.585  0.6503 -1.6759 -0.1399
   47CHL1  H26C 4654   3.885   6.179   4.604 -0.5279  0.7216  1.1242
   47CHL1   C27 4655   4.070   5.989   4.636  0.3599  0.3615  0.2425
   47CHL1  H27A 4656   3.984   5.945   4.580  0.9093  0.1343 -0.4358
   47CHL1  H27B 4657   4.129   6.040   4.558  0.6266  2.3818  1.7025
   47CHL1  H27C 4658   4.123   5.906   4.688  0.8772 -0.9109 -2.1479
   48CHL1    C3 4659   6.799   5.918   6.409  0.9938 -0.2642  0.2070
   48CHL1    H3 4660   6.893   5.865   6.382  1.0260 -2.1365  3.4530
   48CHL1    O3 4661   6.802   5.943   6.549 -0.2756  0.1011 -0.2992
   48CHL1   H3' 4662   6.720   5.993   6.561 -0.3747  0.3013 -1.5763
   48CHL1    C4 4663   6.790   6.058   6.331  0.1633  0.4108  0.2719
   48CHL1   H4A 4664   6.696   6.111   6.355 -0.5211 -0.1589 -1.0368
   48CHL1   H4B 4665   6.881   6.108   6.370  0.6509  0.3109 -0.6821
   48CHL1    C5 4666   6.796   6.040   6.181  0.1770  0.1232 -0.8375
   48CHL1    C6 4667   6.896   6.084   6.108 -0.8777  0.1944 -0.6132
   48CHL1    H6 4668   6.962   6.161   6.150  0.3065 -2.1963  2.2266
   48CHL1    C7 4669   6.910   6.064   5.961  0.3509 -0.0313  0.9686
   48CHL1   H7A 4670   6.922   6.159   5.904 -2.3651 -1.0908 -1.6506
   48CHL1   H7B 4671   6.991   5.999   5.924  0.2339  1.2566 -1.8892
   48CHL1    C8 4672   6.772   6.012   5.896 -0.7259 -0.1872  0.3748
   48CHL1    H8 4673   6.705   6.100   5.890  0.6054  0.9842  1.9230
   48CHL1   C14 4674   6.788   5.954   5.751  0.8251  0.4972 -0.8017
   48CHL1   H14 4675   6.857   5.868   5.765  0.5080  0.4043  0.2274
   48CHL1   C15 4676   6.845   6.050   5.649 -0.1940 -0.0456 -0.1501
   48CHL1  H15A 4677   6.794   6.147   5.664  0.5962  0.2097  1.0925
   48CHL1  H15B 4678   6.955   6.056   5.667  0.0692  0.5307 -1.8369
   48CHL1   C16 4679   6.812   5.985   5.515 -0.5864 -0.7174 -0.0827
   48CHL1  H16A 4680   6.776   6.064   5.445 -0.0571 -0.1596  0.2682
   48CHL1  H16B 4681   6.902   5.943   5.465 -0.5193  0.5645 -1.0995
   48CHL1   C17 4682   6.714   5.865   5.541 -0.6162 -0.4203  0.2972
   48CHL1   H17 4683   6.762   5.765   5.553 -0.8593 -0.4012  1.5669
   48CHL1   C13 4684   6.665   5.898   5.687  0.0052  0.1294 -0.6938
   48CHL1   C18 4685   6.549   6.009   5.660 -0.1626  0.3094 -0.1299
   48CHL1  H18A 4686   6.525   6.057   5.758  0.0213  0.5767 -0.2136
   48CHL1  H18B 4687   6.574   6.083   5.581  0.9517 -0.5732 -0.6228
   48CHL1  H18C 4688   6.456   5.959   5.626 -0.2099  0.5285 -0.3284
   48CHL1   C12 4689   6.613   5.786   5.762 -0.1467  0.3914  0.1046
   48CHL1  H12A 4690   6.519   5.749   5.717 -0.0309 -0.9458  0.9171
   48CHL1  H12B 4691   6.696   5.713   5.756  0.2228  0.7543  0.6816
   48CHL1   C11 4692   6.593   5.827   5.910 -0.5280  0.0582 -0.0427
   48CHL1  H11A 4693   6.504   5.893   5.919 -1.2133 -0.5960 -1.5854
   48CHL1  H11B 4694   6.569   5.731   5.961  0.8699  1.1066  2.7693
   48CHL1    C9 4695   6.710   5.896   5.979  0.0160  0.8747  0.2354
   48CHL1    H9 4696   6.789   5.818   5.984 -1.5910 -0.7646  1.1980
   48CHL1   C10 4697   6.689   5.939   6.130  0.3206 -0.4166 -0.0362
   48CHL1   C19 4698   6.553   6.020   6.133  0.6293 -0.1920  0.2518
   48CHL1  H19A 4699   6.474   5.946   6.108 -0.5073  0.2090  2.3759
   48CHL1  H19B 4700   6.537   6.061   6.236 -4.7101  2.1534 -1.1662
   48CHL1  H19C 4701   6.552   6.109   6.066  0.2814  0.4689  1.1073
   48CHL1    C1 4702   6.680   5.809   6.218  0.5682 -0.1166  0.2153
   48CHL1   H1A 4703   6.593   5.751   6.181 -0.9173  1.9951  0.2069
   48CHL1   H1B 4704   6.766   5.748   6.183  0.2607 -0.8274  0.6629
   48CHL1    C2 4705   6.674   5.830   6.368  0.7720  0.9402  0.1786
   48CHL1   H2A 4706   6.675   5.729   6.414  0.2552  1.0554  0.4605
   48CHL1   H2B 4707   6.581   5.888   6.386 -0.3170 -0.3896 -0.9195
   48CHL1   C20 4708   6.621   5.854   5.408 -0.0028 -0.6457 -1.0683
   48CHL1   H20 4709   6.570   5.953   5.407 -1.4349 -1.3405 -0.5703
   48CHL1   C21 4710   6.520   5.736   5.437  0.1648 -1.3792  0.4021
   48CHL1  H21A 4711   6.457   5.731   5.346 -1.3684  1.2648  1.1991
   48CHL1  H21B 4712   6.572   5.639   5.448 -0.9928 -2.1975 -1.0095
   48CHL1  H21C 4713   6.448   5.759   5.518 -1.7784  2.1032 -2.0204
   48CHL1   C22 4714   6.697   5.831   5.279  0.1547  0.3309  0.1458
   48CHL1  H22A 4715   6.783   5.901   5.276  1.9339 -1.7576 -0.6626
   48CHL1  H22B 4716   6.731   5.725   5.275  3.4645  1.2695  0.3457
   48CHL1   C23 4717   6.612   5.859   5.155  0.4610  0.2597 -0.3308
   48CHL1  H23A 4718   6.529   5.786   5.148  0.9871 -0.4576  0.7245
   48CHL1  H23B 4719   6.562   5.957   5.173 -2.6756 -0.7220 -2.7276
   48CHL1   C24 4720   6.694   5.847   5.030  0.1641 -1.2934  0.0013
   48CHL1  H24A 4721   6.785   5.910   5.043 -1.4881  0.9627  1.5159
   48CHL1  H24B 4722   6.714   5.739   5.013  1.2408 -0.8982 -1.4975
   48CHL1   C25 4723   6.627   5.893   4.896 -0.8959 -0.5420  0.1749
   48CHL1   H25 4724   6.577   5.990   4.917  0.4599  0.6510 -1.8445
   48CHL1   C26 4725   6.739   5.918   4.798  0.1871  0.0107 -0.1250
   48CHL1  H26A 4726   6.792   6.013   4.819 -0.5951  1.1719 -2.9073
   48CHL1  H26B 4727   6.804   5.829   4.786 -1.6708 -1.2533 -1.4010
   48CHL1  H26C 4728   6.693   5.936   4.698  0.3456  0.4113 -0.1287
   48CHL1   C27 4729   6.531   5.789   4.843  0.7012  0.3267  0.4851
   48CHL1  H27A 4730   6.445   5.777   4.913 -0.8003 -0.5705 -1.4266
   48CHL1  H27B 4731   6.492   5.819   4.744  1.2841 -1.1952 -0.2340
   48CHL1  H27C 4732   6.573   5.688   4.825 -3.0279 -1.2297 -0.2584
   49CHL1    C3 4733   2.620   5.369   3.245 -0.4504  0.1622 -0.3313
   49CHL1    H3 4734   2.546   5.300   3.293 -0.7586 -0.1839 -1.2699
   49CHL1    O3 4735   2.603   5.373   3.104 -0.2337  0.2884 -0.1182
   49CHL1   H3' 4736   2.624   5.461   3.073  0.1961  0.3964  0.4638
   49CHL1    C4 4737   2.608   5.512   3.301  0.8329 -0.2590 -0.2167
   49CHL1   H4A 4738   2.680   5.579   3.248  1.1885  0.5130  1.2077
   49CHL1   H4B 4739   2.509   5.549   3.266  0.5631 -0.9035 -0.1451
   49CHL1    C5 4740   2.626   5.517   3.445  0.7369 -0.3108 -0.3115
   49CHL1    C6 4741   2.528   5.564   3.530 -0.2457  0.0060  0.1063
   49CHL1    H6 4742   2.433   5.587   3.480 -0.3321 -3.0776 -1.4141
   49CHL1    C7 4743   2.542   5.568   3.680 -0.9183 -0.5475  0.9460
   49CHL1   H7A 4744   2.503   5.664   3.719  1.9375  2.1517 -2.2162
   49CHL1   H7B 4745   2.475   5.486   3.715 -3.1194  0.4540 -0.5991
   49CHL1    C8 4746   2.682   5.533   3.724 -0.6222  0.9427  0.1864
   49CHL1    H8 4747   2.745   5.624   3.711  1.0279 -0.2310 -0.3839
   49CHL1   C14 4748   2.681   5.497   3.873  0.5845  0.5582 -0.2841
   49CHL1   H14 4749   2.633   5.396   3.877  2.2270 -0.2274  0.9834
   49CHL1   C15 4750   2.603   5.576   3.978  0.5637 -0.9042  0.2602
   49CHL1  H15A 4751   2.619   5.686   3.985 -0.7690 -0.7334  0.8983
   49CHL1  H15B 4752   2.495   5.575   3.953  0.9342  0.0121 -1.4952
   49CHL1   C16 4753   2.651   5.524   4.113 -0.4607 -0.0681  0.4957
   49CHL1  H16A 4754   2.677   5.614   4.172  0.5415  0.5673 -0.8622
   49CHL1  H16B 4755   2.568   5.473   4.168  0.6925 -1.3657  1.1000
   49CHL1   C17 4756   2.776   5.438   4.083 -0.2205 -0.0172 -0.0143
   49CHL1   H17 4757   2.723   5.341   4.088 -0.5780  0.1268 -0.8274
   49CHL1   C13 4758   2.818   5.460   3.937 -0.5436 -0.3223 -0.4884
   49CHL1   C18 4759   2.910   5.590   3.936  0.5872  0.6453  0.3401
   49CHL1  H18A 4760   2.894   5.654   3.846 -1.5771 -0.1630  0.0898
   49CHL1  H18B 4761   2.890   5.652   4.027  0.4066  0.5694  0.3519
   49CHL1  H18C 4762   3.018   5.566   3.931  1.3828  3.7928  0.0491
   49CHL1   C12 4763   2.878   5.342   3.856 -0.7141 -0.3281  0.1287
   49CHL1  H12A 4764   2.986   5.333   3.882 -0.5269 -1.3637 -0.9377
   49CHL1  H12B 4765   2.831   5.246   3.882 -1.6248  0.0994  0.0957
   49CHL1   C11 4766   2.883   5.376   3.705 -0.2500 -0.0123 -0.1059
   49CHL1  H11A 4767   2.964   5.449   3.687 -1.1800  0.5262 -2.6173
   49CHL1  H11B 4768   2.915   5.280   3.660 -1.5556 -0.4277 -0.2062
   49CHL1    C9 4769   2.750   5.419   3.648 -0.0189 -0.2235  0.4472
   49CHL1    H9 4770   2.672   5.342   3.667 -0.1770 -0.0034  0.7058
   49CHL1   C10 4771   2.756   5.451   3.496  0.1917  0.1936  0.5545
   49CHL1   C19 4772   2.876   5.551   3.460  0.0272 -0.5053  0.3926
   49CHL1  H19A 4773   2.875   5.582   3.353 -0.6290 -1.5336  0.0836
   49CHL1  H19B 4774   2.866   5.652   3.505 -0.3265 -0.5391  0.3863
   49CHL1  H19C 4775   2.976   5.506   3.478  1.0852  1.8253  0.7151
   49CHL1    C1 4776   2.787   5.314   3.422 -0.4200 -0.4841 -0.4990
   49CHL1   H1A 4777   2.889   5.279   3.446  0.8635  1.9858 -1.9364
   49CHL1   H1B 4778   2.721   5.243   3.477 -0.4962 -2.2886 -2.7653
   49CHL1    C2 4779   2.753   5.319   3.269 -0.5776  0.3658 -0.1296
   49CHL1   H2A 4780   2.761   5.212   3.240 -0.3105 -0.8450  3.7763
   49CHL1   H2B 4781   2.832   5.368   3.209 -0.3794 -0.6438 -0.7210
   49CHL1   C20 4782   2.879   5.433   4.197 -0.2351  0.0438 -0.0023
   49CHL1   H20 4783   2.931   5.531   4.187  2.0440 -0.8986  1.5988
   49CHL1   C21 4784   2.983   5.323   4.178 -0.5183  0.1264  0.3452
   49CHL1  H21A 4785   3.019   5.317   4.074 -0.6390  0.7103  0.2660
   49CHL1  H21B 4786   2.948   5.222   4.210  2.3925 -0.9851  0.3300
   49CHL1  H21C 4787   3.074   5.351   4.236  0.2970  1.4730 -1.4977
   49CHL1   C22 4788   2.802   5.415   4.333 -0.2695  0.3139  0.1261
   49CHL1  H22A 4789   2.724   5.494   4.333 -2.1349 -1.1427 -4.6616
   49CHL1  H22B 4790   2.751   5.318   4.345 -0.3547  0.5131  1.5142
   49CHL1   C23 4791   2.889   5.443   4.449 -0.6918 -0.4094  0.0216
   49CHL1  H23A 4792   2.983   5.383   4.437 -0.8902 -0.9783  1.1062
   49CHL1  H23B 4793   2.912   5.551   4.444  0.1879 -0.5223  1.2080
   49CHL1   C24 4794   2.827   5.397   4.588 -0.0026  0.2005 -0.1616
   49CHL1  H24A 4795   2.733   5.451   4.613 -0.9292 -0.5047 -1.9658
   49CHL1  H24B 4796   2.788   5.294   4.582  0.0577  0.0746  1.2483
   49CHL1   C25 4797   2.924   5.403   4.710 -0.4073 -0.0866 -0.2420
   49CHL1   H25 4798   3.003   5.329   4.689  0.8032  0.3090  2.5562
   49CHL1   C26 4799   2.997   5.535   4.714 -0.5855 -0.5210 -0.4595
   49CHL1  H26A 4800   2.915   5.607   4.692 -1.4646 -1.9972 -2.1856
   49CHL1  H26B 4801   3.050   5.557   4.809  1.9322 -0.3695 -1.8193
   49CHL1  H26C 4802   3.051   5.557   4.619  1.2032  1.3138  0.8946
   49CHL1   C27 4803   2.848   5.364   4.834 -0.7904 -0.3043  0.1734
   49CHL1  H27A 4804   2.925   5.362   4.914 -0.9053  0.8661  0.3331
   49CHL1  H27B 4805   2.776   5.442   4.868 -0.5356  0.2355 -0.5005
   49CHL1  H27C 4806   2.796   5.266   4.832  0.7404 -1.1515  0.8145
   50CHL1    C3 4807   0.733   2.362   3.431  0.4300 -0.0114  0.1320
   50CHL1    H3 4808   0.797   2.276   3.456  1.7225  0.8494 -0.1195
   50CHL1    O3 4809   0.712   2.359   3.292 -0.2345 -0.4063  0.0620
   50CHL1   H3' 4810   0.802   2.341   3.265 -0.1665 -1.9408  1.2139
   50CHL1    C4 4811   0.607   2.355   3.512 -0.4092 -0.1704  0.2764
   50CHL1   H4A 4812   0.540   2.441   3.492  2.4734  2.0986 -0.2443
   50CHL1   H4B 4813   0.550   2.263   3.487  1.1853 -1.1718  0.2194
   50CHL1    C5 4814   0.638   2.360   3.664  0.4862  0.5895  0.3276
   50CHL1    C6 4815   0.605   2.256   3.737  0.8169 -0.2865 -0.2068
   50CHL1    H6 4816   0.549   2.168   3.702 -0.2894  0.5823 -0.6642
   50CHL1    C7 4817   0.621   2.247   3.881  0.1922  0.9141 -0.8928
   50CHL1   H7A 4818   0.535   2.211   3.940  1.5772 -0.0088  0.6490
   50CHL1   H7B 4819   0.698   2.173   3.912  2.2229  3.2832  0.1350
   50CHL1    C8 4820   0.674   2.376   3.949  0.3290  0.2025  0.2735
   50CHL1    H8 4821   0.589   2.444   3.970 -0.4775 -1.2181  1.9433
   50CHL1   C14 4822   0.754   2.335   4.072 -0.1355 -0.8504 -0.4529
   50CHL1   H14 4823   0.837   2.276   4.028 -0.0857  0.7317 -2.6655
   50CHL1   C15 4824   0.695   2.250   4.187 -0.6049  0.4657 -0.4670
   50CHL1  H15A 4825   0.597   2.289   4.222 -0.4196 -0.7337  1.5269
   50CHL1  H15B 4826   0.691   2.140   4.174  1.9414  0.1710  0.7567
   50CHL1   C16 4827   0.795   2.270   4.305 -1.0525 -0.4123  0.2489
   50CHL1  H16A 4828   0.760   2.268   4.410 -0.5608 -2.8003  0.4391
   50CHL1  H16B 4829   0.856   2.177   4.301  2.0131  1.4555  0.2311
   50CHL1   C17 4830   0.892   2.380   4.261 -0.3849  0.0098  0.1068
   50CHL1   H17 4831   0.988   2.343   4.220  0.9510  0.7226  2.3799
   50CHL1   C13 4832   0.816   2.451   4.144 -0.8293 -0.2548 -0.5178
   50CHL1   C18 4833   0.700   2.538   4.198 -0.1380 -0.2395 -0.1362
   50CHL1  H18A 4834   0.617   2.562   4.129 -1.6986  2.6320  2.5020
   50CHL1  H18B 4835   0.659   2.480   4.284 -0.0716 -0.5353 -0.3013
   50CHL1  H18C 4836   0.741   2.632   4.239  1.6440 -1.4375  1.0109
   50CHL1   C12 4837   0.908   2.535   4.058 -0.4555 -0.5897 -0.0884
   50CHL1  H12A 4838   0.945   2.630   4.102 -0.3063  0.3230 -2.0430
   50CHL1  H12B 4839   0.996   2.472   4.029  1.3419  1.3257  0.9205
   50CHL1   C11 4840   0.840   2.571   3.921  0.2272  0.3953  0.6528
   50CHL1  H11A 4841   0.755   2.640   3.941 -1.3736 -1.0914 -0.6595
   50CHL1  H11B 4842   0.914   2.624   3.858  2.5293 -2.4398  0.7681
   50CHL1    C9 4843   0.780   2.443   3.853  0.1668  0.0662 -0.4323
   50CHL1    H9 4844   0.864   2.371   3.840  1.0825  1.3656 -1.9891
   50CHL1   C10 4845   0.728   2.469   3.716  0.0395 -0.2011 -0.0071
   50CHL1   C19 4846   0.653   2.603   3.702  0.2920  0.5047 -0.0992
   50CHL1  H19A 4847   0.616   2.632   3.602 -0.4537 -2.3395 -0.7444
   50CHL1  H19B 4848   0.561   2.604   3.765  0.5348 -1.9144  0.4112
   50CHL1  H19C 4849   0.716   2.689   3.733 -0.4120  0.6423  1.0192
   50CHL1    C1 4850   0.850   2.486   3.614  0.6208 -0.3781  0.0574
   50CHL1   H1A 4851   0.898   2.583   3.642 -2.3524  0.9028  1.1641
   50CHL1   H1B 4852   0.921   2.401   3.623  0.1800 -0.7022  0.5629
   50CHL1    C2 4853   0.814   2.486   3.462  0.9502  0.1152 -0.4435
   50CHL1   H2A 4854   0.909   2.482   3.404  0.5338  0.9072 -1.1960
   50CHL1   H2B 4855   0.753   2.573   3.432 -1.2129  0.2767  3.7550
   50CHL1   C20 4856   0.943   2.472   4.374  0.0824 -0.0695  0.2199
   50CHL1   H20 4857   0.971   2.566   4.320 -1.3234 -0.0847 -0.5706
   50CHL1   C21 4858   1.069   2.405   4.423  0.1070  0.1872 -0.6709
   50CHL1  H21A 4859   1.155   2.407   4.352  1.0303  0.4524  0.4145
   50CHL1  H21B 4860   1.049   2.299   4.447 -0.4274  0.2505 -0.8156
   50CHL1  H21C 4861   1.110   2.463   4.509 -1.3326  1.9300 -1.0956
   50CHL1   C22 4862   0.848   2.499   4.492  0.1332  0.5718 -0.3360
   50CHL1  H22A 4863   0.738   2.492   4.473 -0.1469 -0.9331  1.5700
   50CHL1  H22B 4864   0.871   2.403   4.543 -1.9128  0.7129  0.9467
   50CHL1   C23 4865   0.888   2.612   4.579 -0.6798 -0.4288 -0.1245
   50CHL1  H23A 4866   0.998   2.605   4.567 -0.6623 -4.7540  0.7024
   50CHL1  H23B 4867   0.846   2.708   4.542 -1.5072 -0.0157  1.7878
   50CHL1   C24 4868   0.847   2.609   4.725  0.7174  0.1594 -0.0923
   50CHL1  H24A 4869   0.737   2.601   4.735  0.6315  2.3879  1.4218
   50CHL1  H24B 4870   0.892   2.525   4.783 -2.0759 -2.1344 -0.9997
   50CHL1   C25 4871   0.899   2.738   4.793  0.3282 -0.6729 -0.0819
   50CHL1   H25 4872   0.881   2.827   4.729  0.4476 -0.6059 -0.0231
   50CHL1   C26 4873   0.837   2.752   4.931  0.2870  1.2020 -0.6158
   50CHL1  H26A 4874   0.728   2.734   4.926 -0.0766  1.1975  3.8182
   50CHL1  H26B 4875   0.885   2.684   5.004  0.2652 -0.6665 -2.2588
   50CHL1  H26C 4876   0.851   2.859   4.957 -0.5278  1.2860 -0.4904
   50CHL1   C27 4877   1.061   2.728   4.800  0.4667  0.2332 -0.6503
   50CHL1  H27A 4878   1.082   2.627   4.842 -1.0811  0.7127  1.4328
   50CHL1  H27B 4879   1.092   2.736   4.694  0.4003 -1.5498 -0.8359
   50CHL1  H27C 4880   1.088   2.809   4.871 -0.2522 -0.7224  0.7676
   51CHL1    C3 4881   3.001   4.155   3.485  0.0222  0.1194 -0.0896
   51CHL1    H3 4882   3.004   4.254   3.534  0.9931  0.9149 -1.6719
   51CHL1    O3 4883   3.004   4.156   3.347  0.2446 -0.2664  0.6558
   51CHL1   H3' 4884   3.081   4.207   3.320  0.2142 -0.6781 -0.2624
   51CHL1    C4 4885   3.123   4.076   3.545  0.9940  0.1619  0.4728
   51CHL1   H4A 4886   3.125   3.973   3.502  0.5647  0.2772  0.1733
   51CHL1   H4B 4887   3.218   4.122   3.510  1.4352 -0.4196  0.8741
   51CHL1    C5 4888   3.123   4.064   3.693  0.3465  0.1732 -0.4610
   51CHL1    C6 4889   3.213   4.114   3.774 -0.8516  0.0672 -0.7028
   51CHL1    H6 4890   3.300   4.167   3.732 -0.6900 -0.5431 -1.1587
   51CHL1    C7 4891   3.213   4.095   3.921 -0.3416 -0.7434  0.3362
   51CHL1   H7A 4892   3.316   4.073   3.958 -0.1280  1.3246  1.1455
   51CHL1   H7B 4893   3.180   4.190   3.969 -0.8541 -1.6904  1.9247
   51CHL1    C8 4894   3.123   3.985   3.974  0.0352 -0.4876 -0.1578
   51CHL1    H8 4895   3.160   3.881   3.956 -0.7587 -1.2883  2.3664
   51CHL1   C14 4896   3.117   3.997   4.125  0.8509  0.1179  0.1524
   51CHL1   H14 4897   3.057   4.089   4.138 -0.8368 -1.0251  0.7895
   51CHL1   C15 4898   3.236   4.007   4.214 -0.2752 -0.5019  0.0265
   51CHL1  H15A 4899   3.322   3.960   4.162  0.4859  2.6664 -1.8126
   51CHL1  H15B 4900   3.276   4.109   4.232 -0.4704 -0.3846 -0.1993
   51CHL1   C16 4901   3.196   3.957   4.353  0.0896 -0.5407  0.3055
   51CHL1  H16A 4902   3.247   3.861   4.375  2.2269  0.5400  0.2756
   51CHL1  H16B 4903   3.223   4.029   4.433 -2.7033 -0.1305  1.0035
   51CHL1   C17 4904   3.049   3.931   4.351 -0.9565 -0.3098  0.6357
   51CHL1   H17 4905   3.003   4.031   4.365 -0.3545 -0.0218  0.5737
   51CHL1   C13 4906   3.023   3.891   4.199 -0.1578 -0.1885 -0.2680
   51CHL1   C18 4907   3.071   3.743   4.171  0.9375 -0.4619  1.0563
   51CHL1  H18A 4908   3.074   3.722   4.061 -0.1661  0.6976  0.7877
   51CHL1  H18B 4909   3.179   3.741   4.198  0.9726  2.3426  1.3606
   51CHL1  H18C 4910   3.012   3.665   4.223  0.1593  0.0620  0.9619
   51CHL1   C12 4911   2.880   3.916   4.142  0.0366 -0.0762  0.3963
   51CHL1  H12A 4912   2.810   3.841   4.185  0.9634 -0.9477  0.4026
   51CHL1  H12B 4913   2.851   4.017   4.178  1.4595 -0.1605  1.8676
   51CHL1   C11 4914   2.876   3.913   3.989  0.5412  0.0902  0.1094
   51CHL1  H11A 4915   2.892   3.808   3.959 -0.8766  0.2876 -1.5356
   51CHL1  H11B 4916   2.777   3.948   3.951 -0.0900 -0.4230  1.2471
   51CHL1    C9 4917   2.984   4.004   3.913  0.2778 -0.1299 -0.0930
   51CHL1    H9 4918   2.957   4.110   3.932  1.9170  0.5237 -1.1831
   51CHL1   C10 4919   2.991   4.002   3.753 -0.4075 -0.3061 -0.0515
   51CHL1   C19 4920   2.981   3.856   3.712 -0.0965  0.3363  0.5758
   51CHL1  H19A 4921   3.053   3.787   3.760 -0.7985  0.0423  1.2223
   51CHL1  H19B 4922   2.881   3.811   3.729  0.1025 -0.6010 -0.5672
   51CHL1  H19C 4923   2.999   3.838   3.604 -0.0031  0.6377  0.5392
   51CHL1    C1 4924   2.868   4.071   3.689 -0.1196  0.0344 -0.1663
   51CHL1   H1A 4925   2.781   4.005   3.713  1.1408 -0.3803  4.2327
   51CHL1   H1B 4926   2.858   4.168   3.741 -0.2259  0.4257 -0.9124
   51CHL1    C2 4927   2.869   4.094   3.535  0.5979  0.4789 -0.3924
   51CHL1   H2A 4928   2.792   4.171   3.512 -1.6513 -1.7296 -0.6708
   51CHL1   H2B 4929   2.844   3.996   3.488  0.0938 -0.3641  1.5397
   51CHL1   C20 4930   3.011   3.848   4.468 -0.1424  0.2379 -0.9483
   51CHL1   H20 4931   3.065   3.751   4.477 -2.6451 -1.2651 -0.9659
   51CHL1   C21 4932   2.861   3.817   4.472  0.3730 -0.8972 -0.1604
   51CHL1  H21A 4933   2.840   3.751   4.386 -1.9191  0.1359 -0.4503
   51CHL1  H21B 4934   2.811   3.913   4.446  0.0839 -1.5891 -2.3757
   51CHL1  H21C 4935   2.826   3.769   4.567 -1.3619 -0.7593 -0.6989
   51CHL1   C22 4936   3.047   3.931   4.596 -0.8041  1.2578 -0.3060
   51CHL1  H22A 4937   3.066   4.036   4.568  0.4290  1.0166 -0.4490
   51CHL1  H22B 4938   2.966   3.917   4.671  0.1058 -1.0770  0.3235
   51CHL1   C23 4939   3.168   3.870   4.677 -0.3803  0.6572  0.3256
   51CHL1  H23A 4940   3.144   3.764   4.701 -1.3446  0.5981 -0.7905
   51CHL1  H23B 4941   3.258   3.868   4.611 -1.7687 -0.0727 -1.6224
   51CHL1   C24 4942   3.215   3.930   4.802  0.5635  0.0021 -0.7997
   51CHL1  H24A 4943   3.280   4.016   4.775  1.3564 -0.8660 -1.7304
   51CHL1  H24B 4944   3.140   3.964   4.876  2.9047  1.4325  1.0791
   51CHL1   C25 4945   3.303   3.835   4.882 -0.3652 -0.5619  0.0120
   51CHL1   H25 4946   3.245   3.740   4.882  0.0650 -0.8467 -1.2181
   51CHL1   C26 4947   3.438   3.796   4.816 -0.8895  0.0172 -0.8455
   51CHL1  H26A 4948   3.492   3.886   4.779  0.2620 -0.1510  0.3672
   51CHL1  H26B 4949   3.514   3.738   4.871  0.5060 -0.0497 -2.7243
   51CHL1  H26C 4950   3.425   3.730   4.727 -0.0040 -1.0414 -0.2034
   51CHL1   C27 4951   3.323   3.891   5.018 -0.2128  0.2310 -0.4325
   51CHL1  H27A 4952   3.401   3.969   5.004  0.3950 -0.4526 -0.9351
   51CHL1  H27B 4953   3.234   3.932   5.071  0.8248  0.6672  1.0081
   51CHL1  H27C 4954   3.350   3.810   5.088 -1.6835 -0.6758 -0.8548
   52CHL1    C3 4955   2.496   3.711   3.214  0.1518  0.1259  0.3127
   52CHL1    H3 4956   2.483   3.602   3.223  0.0458  0.1859  0.9606
   52CHL1    O3 4957   2.522   3.754   3.076 -0.3855 -0.3777  0.0383
   52CHL1   H3' 4958   2.538   3.847   3.092  1.3903 -0.3649 -1.4930
   52CHL1    C4 4959   2.372   3.775   3.269 -0.3849  0.1207 -0.6348
   52CHL1   H4A 4960   2.381   3.886   3.268 -1.5612  0.2573  0.3685
   52CHL1   H4B 4961   2.290   3.738   3.204 -0.4028 -1.8780  0.4383
   52CHL1    C5 4962   2.346   3.745   3.412 -0.1671  0.5191  0.0734
   52CHL1    C6 4963   2.237   3.677   3.457 -0.1969  0.2037  0.3174
   52CHL1    H6 4964   2.155   3.640   3.394 -0.3099 -1.8929  1.6038
   52CHL1    C7 4965   2.207   3.635   3.600  0.2711  0.2767  1.1459
   52CHL1   H7A 4966   2.103   3.671   3.616 -0.2553 -0.3653 -0.6451
   52CHL1   H7B 4967   2.208   3.524   3.607  1.1539  0.2949  1.4790
   52CHL1    C8 4968   2.299   3.707   3.699 -0.0563  0.2375 -0.2834
   52CHL1    H8 4969   2.268   3.813   3.709  0.8122  0.3201  1.9051
   52CHL1   C14 4970   2.289   3.653   3.843 -0.0860 -0.5601 -0.2830
   52CHL1   H14 4971   2.316   3.545   3.837 -0.0892 -0.5481 -0.5137
   52CHL1   C15 4972   2.157   3.650   3.908 -0.0144  0.0729 -0.1869
   52CHL1  H15A 4973   2.117   3.754   3.902  2.1887  0.9449 -0.3660
   52CHL1  H15B 4974   2.080   3.592   3.854 -1.3303  1.7614 -0.2304
   52CHL1   C16 4975   2.191   3.630   4.059 -0.1670 -0.1100  0.3481
   52CHL1  H16A 4976   2.147   3.705   4.128  2.2648  1.8064 -0.0400
   52CHL1  H16B 4977   2.157   3.531   4.096 -1.7446  0.5012  0.6141
   52CHL1   C17 4978   2.343   3.656   4.077 -0.4947  0.3183 -0.3540
   52CHL1   H17 4979   2.389   3.555   4.089 -1.4813  0.0231  1.1277
   52CHL1   C13 4980   2.392   3.708   3.940 -0.5271  0.3639  0.3946
   52CHL1   C18 4981   2.389   3.865   3.927 -0.3403  0.4281  0.1240
   52CHL1  H18A 4982   2.481   3.890   3.983  0.5371  0.1359 -1.1386
   52CHL1  H18B 4983   2.401   3.905   3.824 -2.1172 -0.1999 -0.3668
   52CHL1  H18C 4984   2.301   3.901   3.985  0.0943  1.5559  0.0978
   52CHL1   C12 4985   2.524   3.656   3.890  0.1858  0.6027 -0.0637
   52CHL1  H12A 4986   2.609   3.667   3.961  2.4573  1.1235 -2.6995
   52CHL1  H12B 4987   2.518   3.546   3.880  0.9890  0.5126  0.3463
   52CHL1   C11 4988   2.558   3.713   3.748  0.0257  0.0768  0.0861
   52CHL1  H11A 4989   2.582   3.821   3.754  0.2448  0.0210  0.2536
   52CHL1  H11B 4990   2.642   3.655   3.703 -0.5002 -1.2703  0.7930
   52CHL1    C9 4991   2.445   3.694   3.647 -0.2893 -0.1872  0.5952
   52CHL1    H9 4992   2.450   3.586   3.623  1.5134 -0.4083  1.7418
   52CHL1   C10 4993   2.467   3.761   3.509  0.3727 -0.5989  0.3736
   52CHL1   C19 4994   2.491   3.916   3.537  1.0535 -0.5961  0.1066
   52CHL1  H19A 4995   2.585   3.941   3.592 -0.5357 -0.4063  2.9534
   52CHL1  H19B 4996   2.493   3.966   3.438  0.2741 -0.5963  0.0886
   52CHL1  H19C 4997   2.401   3.963   3.582  1.4761  1.2865 -0.8916
   52CHL1    C1 4998   2.594   3.709   3.439 -0.2936 -0.5619 -0.3689
   52CHL1   H1A 4999   2.679   3.734   3.506 -2.1963 -2.3327  3.0035
   52CHL1   H1B 5000   2.591   3.598   3.434  2.0767 -0.6881 -0.2058
   52CHL1    C2 5001   2.623   3.748   3.294  0.6265  0.3220 -0.7318
   52CHL1   H2A 5002   2.708   3.693   3.248 -1.1447 -2.6422 -0.7009
   52CHL1   H2B 5003   2.644   3.857   3.288 -0.3146  0.5256 -0.4355
   52CHL1   C20 5004   2.388   3.725   4.208 -0.0376  0.4055 -0.0366
   52CHL1   H20 5005   2.353   3.829   4.196 -0.0703  0.4032  0.0380
   52CHL1   C21 5006   2.548   3.722   4.217  0.0643 -0.0807 -0.2869
   52CHL1  H21A 5007   2.575   3.780   4.126 -0.2004  0.7000  0.1196
   52CHL1  H21B 5008   2.578   3.616   4.211  1.0255  0.2590 -2.6379
   52CHL1  H21C 5009   2.579   3.763   4.315 -1.3075 -0.0657  0.1644
   52CHL1   C22 5010   2.333   3.669   4.340  0.5762  0.6369  0.3551
   52CHL1  H22A 5011   2.348   3.740   4.423  0.0979  0.7498  0.3478
   52CHL1  H22B 5012   2.225   3.650   4.320  0.6145  2.3821 -1.9267
   52CHL1   C23 5013   2.397   3.536   4.392  0.4235  0.0550  0.3058
   52CHL1  H23A 5014   2.410   3.465   4.308  1.2062  0.3588  0.1516
   52CHL1  H23B 5015   2.490   3.575   4.440 -1.3680  3.6540  1.2131
   52CHL1   C24 5016   2.306   3.468   4.495 -0.2778  0.2782 -0.2813
   52CHL1  H24A 5017   2.206   3.470   4.447 -0.3935  0.7015 -0.0244
   52CHL1  H24B 5018   2.341   3.366   4.522 -3.7301 -0.4414  2.1107
   52CHL1   C25 5019   2.273   3.550   4.623 -1.2380  0.3286  0.3732
   52CHL1   H25 5020   2.253   3.652   4.583 -1.5263 -0.3897 -1.3592
   52CHL1   C26 5021   2.145   3.505   4.689  0.2845  1.3390  0.7591
   52CHL1  H26A 5022   2.051   3.525   4.634  0.9603  2.3981 -0.0472
   52CHL1  H26B 5023   2.148   3.394   4.701  1.7464  1.2774  0.0822
   52CHL1  H26C 5024   2.128   3.545   4.791  0.3179  1.1455  0.8413
   52CHL1   C27 5025   2.385   3.552   4.726 -0.6737 -0.1036 -0.5290
   52CHL1  H27A 5026   2.415   3.455   4.771 -3.1826 -0.9787 -0.5457
   52CHL1  H27B 5027   2.472   3.600   4.677 -1.0817  0.3564 -0.8180
   52CHL1  H27C 5028   2.365   3.619   4.812  1.3962  1.0349 -0.8763
   53CHL1    C3 5029   6.725   3.514   3.247 -0.3070  0.4066 -0.2489
   53CHL1    H3 5030   6.661   3.425   3.228 -0.5817  0.5521 -0.0159
   53CHL1    O3 5031   6.757   3.566   3.120  0.2428 -0.1419  0.2098
   53CHL1   H3' 5032   6.735   3.660   3.117 -1.4962 -0.4639  1.3140
   53CHL1    C4 5033   6.639   3.611   3.329  0.6997 -0.1971  0.4526
   53CHL1   H4A 5034   6.682   3.713   3.326 -2.4560  1.2345  0.1466
   53CHL1   H4B 5035   6.539   3.619   3.280 -0.2142 -1.6222  1.9536
   53CHL1    C5 5036   6.610   3.590   3.472  0.3560  0.5655  0.2673
   53CHL1    C6 5037   6.487   3.592   3.519 -0.0044  0.0310 -0.1959
   53CHL1    H6 5038   6.403   3.621   3.454  0.0531 -0.0354 -0.2998
   53CHL1    C7 5039   6.460   3.576   3.666 -0.7854 -0.1418  0.4537
   53CHL1   H7A 5040   6.389   3.656   3.698  1.2302  1.6617  0.6404
   53CHL1   H7B 5041   6.424   3.472   3.680 -0.0374 -0.2932  1.4091
   53CHL1    C8 5042   6.584   3.569   3.755 -0.0319 -0.2044  0.2508
   53CHL1    H8 5043   6.617   3.673   3.776 -0.3140  0.3789 -2.0080
   53CHL1   C14 5044   6.548   3.497   3.884  0.0051  0.0946 -0.1938
   53CHL1   H14 5045   6.546   3.390   3.855  1.7171  0.5846 -2.4490
   53CHL1   C15 5046   6.420   3.525   3.964  0.2014  0.7774 -0.3012
   53CHL1  H15A 5047   6.397   3.631   3.940  1.6447  1.7667  2.2105
   53CHL1  H15B 5048   6.340   3.457   3.930  1.2547 -1.6384  1.7082
   53CHL1   C16 5049   6.440   3.488   4.113  0.1810 -0.3775  0.3383
   53CHL1  H16A 5050   6.448   3.579   4.177  0.8013  0.8398 -1.3843
   53CHL1  H16B 5051   6.386   3.397   4.146  1.0668 -1.0203  0.0455
   53CHL1   C17 5052   6.587   3.427   4.102  0.1312  0.1375  0.7748
   53CHL1   H17 5053   6.574   3.319   4.079  1.5243  0.0405  0.4143
   53CHL1   C13 5054   6.667   3.500   3.988 -0.4612  0.3503 -0.3640
   53CHL1   C18 5055   6.717   3.639   4.027  0.1577 -0.4489 -0.2370
   53CHL1  H18A 5056   6.789   3.629   4.112 -1.7583 -0.7926  1.4192
   53CHL1  H18B 5057   6.762   3.673   3.932  0.1808 -0.9141 -0.3972
   53CHL1  H18C 5058   6.634   3.706   4.055 -0.9057 -2.0131  0.5463
   53CHL1   C12 5059   6.783   3.416   3.933 -0.1516  0.1764  0.8801
   53CHL1  H12A 5060   6.867   3.412   4.006  1.5313  1.3456 -0.8730
   53CHL1  H12B 5061   6.746   3.313   3.914 -0.4488  0.1637  1.4963
   53CHL1   C11 5062   6.829   3.471   3.792 -0.0197  0.1080 -0.0821
   53CHL1  H11A 5063   6.869   3.571   3.820  0.3137 -0.2154  0.6371
   53CHL1  H11B 5064   6.912   3.415   3.744  2.0368  2.8742  0.0361
   53CHL1    C9 5065   6.709   3.490   3.696  0.1385 -0.8230 -0.0550
   53CHL1    H9 5066   6.672   3.389   3.671 -0.1580 -0.6103 -0.4905
   53CHL1   C10 5067   6.745   3.547   3.556  0.7034 -0.5198 -0.5424
   53CHL1   C19 5068   6.843   3.666   3.582  0.6767  0.0604 -0.2785
   53CHL1  H19A 5069   6.814   3.721   3.674 -1.5875 -0.6901 -0.4728
   53CHL1  H19B 5070   6.943   3.621   3.601  0.1073  0.0503  3.6623
   53CHL1  H19C 5071   6.853   3.738   3.499  0.4721 -0.1516 -0.4898
   53CHL1    C1 5072   6.813   3.437   3.469  0.2118 -0.4086 -0.0332
   53CHL1   H1A 5073   6.901   3.405   3.530  0.9591 -2.6952 -2.1383
   53CHL1   H1B 5074   6.753   3.344   3.468  0.9440 -0.8935 -0.8311
   53CHL1    C2 5075   6.851   3.481   3.328  0.6560  0.0767  0.2349
   53CHL1   H2A 5076   6.906   3.396   3.283  4.3891  1.3333  1.9610
   53CHL1   H2B 5077   6.925   3.564   3.321  0.6051  0.3243  2.0475
   53CHL1   C20 5078   6.660   3.413   4.236  0.0041 -0.0485  0.0436
   53CHL1   H20 5079   6.769   3.410   4.213 -0.4420 -1.8940 -2.2708
   53CHL1   C21 5080   6.635   3.272   4.289 -0.1093  0.4051  0.5235
   53CHL1  H21A 5081   6.532   3.254   4.325 -0.3673 -1.8635 -1.1645
   53CHL1  H21B 5082   6.692   3.268   4.385 -0.2813  3.4993  0.8511
   53CHL1  H21C 5083   6.676   3.203   4.212 -2.6989  0.2225 -0.7656
   53CHL1   C22 5084   6.623   3.522   4.349  0.0809 -0.0362  0.2017
   53CHL1  H22A 5085   6.627   3.618   4.293  0.9763 -1.2209 -1.8937
   53CHL1  H22B 5086   6.516   3.505   4.373  0.1918 -0.0771  0.6676
   53CHL1   C23 5087   6.713   3.525   4.470  0.4110  0.4769 -0.3795
   53CHL1  H23A 5088   6.736   3.423   4.506  0.5734  0.9477  0.9073
   53CHL1  H23B 5089   6.814   3.557   4.435  0.3820 -0.1068 -1.0088
   53CHL1   C24 5090   6.671   3.621   4.582  0.0768 -0.4649  0.2151
   53CHL1  H24A 5091   6.660   3.713   4.520 -1.3167 -1.9334 -1.8658
   53CHL1  H24B 5092   6.571   3.599   4.624  0.9725 -0.2002  2.6144
   53CHL1   C25 5093   6.757   3.637   4.706 -0.9953 -0.2540 -0.1206
   53CHL1   H25 5094   6.800   3.540   4.741  0.7558  0.0021 -1.4364
   53CHL1   C26 5095   6.887   3.716   4.678 -0.4994  0.3576 -0.6101
   53CHL1  H26A 5096   6.949   3.656   4.608 -1.1885 -1.7554  0.5126
   53CHL1  H26B 5097   6.876   3.815   4.628  1.9284  1.1172  0.2322
   53CHL1  H26C 5098   6.949   3.741   4.766 -0.2268 -0.9107 -0.4251
   53CHL1   C27 5099   6.682   3.689   4.822  0.2582 -0.2804 -1.3800
   53CHL1  H27A 5100   6.622   3.776   4.789  1.1040  1.4247  1.2120
   53CHL1  H27B 5101   6.621   3.614   4.877  2.0838 -0.3825  0.6485
   53CHL1  H27C 5102   6.743   3.726   4.908 -1.7229  0.3936 -0.1837
   54CHL1    C3 5103   0.032   6.682   3.498  0.2418  0.4029  0.0499
   54CHL1    H3 5104  -0.071   6.713   3.524 -0.5020 -1.8843  0.0314
   54CHL1    O3 5105   0.050   6.662   3.356 -0.5362 -0.3233  0.1293
   54CHL1   H3' 5106   0.130   6.610   3.350 -1.6070 -1.9442 -0.7066
   54CHL1    C4 5107   0.108   6.808   3.548  0.3528 -0.1953 -0.4954
   54CHL1   H4A 5108   0.214   6.786   3.526  0.4255  1.0762 -1.5570
   54CHL1   H4B 5109   0.076   6.893   3.483  1.1963  1.0820  0.6926
   54CHL1    C5 5110   0.086   6.840   3.693 -0.6372  0.4310 -0.5567
   54CHL1    C6 5111   0.037   6.960   3.726 -0.1482 -0.4251  0.5835
   54CHL1    H6 5112   0.023   7.041   3.652 -2.3574 -0.9904  0.2929
   54CHL1    C7 5113   0.015   6.996   3.871 -0.0673 -0.3169 -0.0929
   54CHL1   H7A 5114   0.066   7.092   3.896  1.0555 -1.1119  0.7712
   54CHL1   H7B 5115  -0.095   7.004   3.878 -0.1060  0.1862 -1.0280
   54CHL1    C8 5116   0.084   6.900   3.969 -0.0370  0.4104 -0.3607
   54CHL1    H8 5117   0.193   6.921   3.973  0.3309 -0.8802 -2.2606
   54CHL1   C14 5118   0.026   6.912   4.111 -0.6108 -0.0042 -0.4578
   54CHL1   H14 5119  -0.084   6.894   4.104 -0.6445 -0.9488  1.7210
   54CHL1   C15 5120   0.041   7.062   4.174  0.6512 -0.2201 -0.6032
   54CHL1  H15A 5121   0.141   7.100   4.145 -0.9085  2.8330 -2.4930
   54CHL1  H15B 5122  -0.041   7.124   4.132 -0.9432 -1.5013  0.4711
   54CHL1   C16 5123   0.039   7.037   4.324  0.4286  0.1008  0.3852
   54CHL1  H16A 5124   0.139   7.064   4.363  1.7090 -1.2823 -1.7233
   54CHL1  H16B 5125  -0.047   7.087   4.372  1.2280  1.9226  0.0046
   54CHL1   C17 5126   0.011   6.883   4.331 -0.2229  0.0969  0.3234
   54CHL1   H17 5127  -0.096   6.866   4.308  0.1250 -2.1760  0.1055
   54CHL1   C13 5128   0.085   6.813   4.209  0.4237 -0.1044  0.0667
   54CHL1   C18 5129   0.234   6.830   4.228 -0.4300 -0.6808  0.0469
   54CHL1  H18A 5130   0.276   6.766   4.308  0.2321  0.8705  0.9832
   54CHL1  H18B 5131   0.296   6.800   4.141 -0.1294 -1.7052  0.6056
   54CHL1  H18C 5132   0.270   6.930   4.261  2.6570 -1.2516 -1.2016
   54CHL1   C12 5133   0.044   6.669   4.171  0.5609 -0.2179 -0.4477
   54CHL1  H12A 5134   0.097   6.608   4.248  0.4841  0.7202  0.3601
   54CHL1  H12B 5135  -0.066   6.684   4.176  0.7495  1.6785 -1.2026
   54CHL1   C11 5136   0.094   6.638   4.032  0.4750  0.0671 -0.3366
   54CHL1  H11A 5137   0.204   6.625   4.024  0.5076  1.2018 -2.3906
   54CHL1  H11B 5138   0.044   6.546   3.993  0.2317  1.0000 -2.3441
   54CHL1    C9 5139   0.063   6.752   3.927  0.3134  0.3129  0.3205
   54CHL1    H9 5140  -0.047   6.742   3.915  0.6692 -0.9288 -2.9572
   54CHL1   C10 5141   0.119   6.720   3.788 -0.0045  0.0129  0.5382
   54CHL1   C19 5142   0.278   6.715   3.781  0.3655 -0.2489  0.3440
   54CHL1  H19A 5143   0.308   6.639   3.856 -0.4509 -0.8348  0.0981
   54CHL1  H19B 5144   0.324   6.678   3.686  0.0721 -1.0818  0.5175
   54CHL1  H19C 5145   0.309   6.810   3.829 -1.6288  0.4539  0.3322
   54CHL1    C1 5146   0.056   6.592   3.728  0.6056  0.0515 -0.3457
   54CHL1   H1A 5147   0.095   6.499   3.774 -1.1302 -0.8056 -0.5613
   54CHL1   H1B 5148  -0.053   6.580   3.743  0.6346 -0.8279 -0.7913
   54CHL1    C2 5149   0.075   6.563   3.576  0.4806  0.4594 -0.1459
   54CHL1   H2A 5150   0.024   6.467   3.549  1.2185 -0.3685  1.2887
   54CHL1   H2B 5151   0.180   6.548   3.544  0.4987  0.9413 -0.3223
   54CHL1   C20 5152   0.029   6.818   4.473 -0.6302 -0.5202  0.0789
   54CHL1   H20 5153   0.032   6.710   4.447  0.1216  0.4154 -4.8862
   54CHL1   C21 5154  -0.095   6.845   4.565 -0.3290 -0.2301 -0.3741
   54CHL1  H21A 5155  -0.093   6.950   4.602 -0.4360  0.1822 -1.5000
   54CHL1  H21B 5156  -0.101   6.766   4.644  1.6598 -0.6103 -0.5493
   54CHL1  H21C 5157  -0.188   6.837   4.505 -2.0500  0.7779  1.9889
   54CHL1   C22 5158   0.157   6.878   4.544  0.5983 -0.7605  0.2976
   54CHL1  H22A 5159   0.247   6.894   4.480  1.8842  2.3639  2.6243
   54CHL1  H22B 5160   0.118   6.978   4.569 -0.8450 -1.4285  0.8309
   54CHL1   C23 5161   0.201   6.791   4.658 -0.1348 -1.0718  0.2158
   54CHL1  H23A 5162   0.118   6.773   4.730 -0.4515  0.0176  0.1388
   54CHL1  H23B 5163   0.240   6.696   4.617 -0.7548 -0.7026 -1.3309
   54CHL1   C24 5164   0.307   6.864   4.741 -0.1888  0.5486 -0.3889
   54CHL1  H24A 5165   0.278   6.972   4.746 -0.4873  0.4453  0.3743
   54CHL1  H24B 5166   0.322   6.829   4.846  1.0065  1.0982 -0.3617
   54CHL1   C25 5167   0.450   6.874   4.679  0.2830  0.8002  0.8143
   54CHL1   H25 5168   0.442   6.910   4.574  1.0410 -2.5849 -0.5426
   54CHL1   C26 5169   0.546   6.963   4.760 -0.0688 -0.0211 -0.6261
   54CHL1  H26A 5170   0.568   6.916   4.858  0.6808 -0.7783 -1.1494
   54CHL1  H26B 5171   0.643   6.975   4.708  1.5236 -0.5433  2.0217
   54CHL1  H26C 5172   0.500   7.063   4.776 -1.0591  0.2980 -4.5909
   54CHL1   C27 5173   0.501   6.729   4.657 -0.4183  0.3564  0.2224
   54CHL1  H27A 5174   0.611   6.723   4.640 -0.7586 -0.3424 -1.9998
   54CHL1  H27B 5175   0.474   6.667   4.745  2.6605  0.2865  1.2414
   54CHL1  H27C 5176   0.471   6.678   4.564 -1.3674 -0.8073  1.1376
   55CHL1    C3 5177   2.615   1.360   3.211 -0.3401  0.7073 -0.1366
   55CHL1    H3 5178   2.616   1.456   3.154 -0.2466  1.7283  1.5303
   55CHL1    O3 5179   2.619   1.254   3.120 -0.0386 -0.3506  0.1447
   55CHL1   H3' 5180   2.641   1.174   3.168  0.8383  0.2000  0.6756
   55CHL1    C4 5181   2.745   1.336   3.293  0.7458  0.1526  0.6719
   55CHL1   H4A 5182   2.750   1.233   3.334  0.3732  0.6055  1.9070
   55CHL1   H4B 5183   2.830   1.336   3.221 -0.1896  0.8618 -0.4639
   55CHL1    C5 5184   2.760   1.427   3.411 -0.5062 -0.9668  0.6493
   55CHL1    C6 5185   2.872   1.497   3.421  0.1925 -0.5993  0.2227
   55CHL1    H6 5186   2.948   1.494   3.342  0.0213 -0.8836  0.0651
   55CHL1    C7 5187   2.894   1.589   3.543  0.6867 -0.0478 -0.4682
   55CHL1   H7A 5188   2.991   1.581   3.596  0.4776 -1.1502 -0.2139
   55CHL1   H7B 5189   2.902   1.694   3.508  0.0780  0.5596  1.0989
   55CHL1    C8 5190   2.785   1.579   3.659  0.4625 -0.0753 -0.2877
   55CHL1    H8 5191   2.807   1.484   3.712  1.7735  1.1279  1.4061
   55CHL1   C14 5192   2.787   1.704   3.749  0.4781  0.1981 -0.2753
   55CHL1   H14 5193   2.742   1.781   3.683 -0.3962 -1.3203 -1.5397
   55CHL1   C15 5194   2.924   1.757   3.808 -0.1171  0.0959 -0.0509
   55CHL1  H15A 5195   2.981   1.668   3.844  1.0489  0.0209 -1.9204
   55CHL1  H15B 5196   2.984   1.818   3.737  3.7543 -0.3750  2.5299
   55CHL1   C16 5197   2.887   1.842   3.927  0.2743  0.2721 -0.1558
   55CHL1  H16A 5198   2.940   1.816   4.021 -1.4591 -0.4609  0.6737
   55CHL1  H16B 5199   2.917   1.947   3.913  2.5739 -0.3103  0.0715
   55CHL1   C17 5200   2.726   1.824   3.936  0.3396  0.0261  0.0372
   55CHL1   H17 5201   2.687   1.912   3.881  4.0933  1.5656 -0.4704
   55CHL1   C13 5202   2.690   1.697   3.867 -0.3427  0.4123  0.1214
   55CHL1   C18 5203   2.725   1.580   3.971 -0.3320  0.6568 -0.1080
   55CHL1  H18A 5204   2.729   1.485   3.913 -2.8458  0.9194 -0.8410
   55CHL1  H18B 5205   2.823   1.594   4.020 -0.5335 -0.1251  0.5451
   55CHL1  H18C 5206   2.648   1.560   4.049 -1.0147 -1.5561 -1.2406
   55CHL1   C12 5207   2.548   1.675   3.811  0.5273  0.0820 -0.1327
   55CHL1  H12A 5208   2.460   1.679   3.879 -0.3650  0.0888 -1.2680
   55CHL1  H12B 5209   2.539   1.774   3.762 -2.1871  1.0268  2.0000
   55CHL1   C11 5210   2.542   1.552   3.721  0.5272 -0.2753  0.4530
   55CHL1  H11A 5211   2.567   1.465   3.785  0.6452 -1.0290 -0.5842
   55CHL1  H11B 5212   2.443   1.536   3.674 -0.4268  2.1361  1.4589
   55CHL1    C9 5213   2.640   1.553   3.605  0.2129 -0.4285  0.2670
   55CHL1    H9 5214   2.617   1.643   3.544 -1.9573 -1.0576  0.0759
   55CHL1   C10 5215   2.635   1.440   3.503  0.1435 -0.7272  0.0960
   55CHL1   C19 5216   2.618   1.304   3.566  0.2625  0.1905 -0.3792
   55CHL1  H19A 5217   2.710   1.278   3.622 -0.0152  1.6374  0.8075
   55CHL1  H19B 5218   2.528   1.296   3.630  0.7504  2.3984  0.6542
   55CHL1  H19C 5219   2.609   1.223   3.490 -0.3449 -0.0616 -0.0458
   55CHL1    C1 5220   2.511   1.467   3.407  0.3196  0.3946  0.3225
   55CHL1   H1A 5221   2.423   1.473   3.475 -0.7930  1.7896 -1.1896
   55CHL1   H1B 5222   2.536   1.563   3.357  3.1787 -0.1847  0.5006
   55CHL1    C2 5223   2.489   1.354   3.304 -0.3946  0.5746  0.0505
   55CHL1   H2A 5224   2.393   1.377   3.253 -1.1635  1.2612  1.7145
   55CHL1   H2B 5225   2.487   1.254   3.352  0.6594  1.4077  1.9673
   55CHL1   C20 5226   2.671   1.846   4.082 -0.4049 -0.1658 -0.1657
   55CHL1   H20 5227   2.708   1.756   4.136  1.7599 -0.2826 -1.6997
   55CHL1   C21 5228   2.516   1.839   4.080  0.1939  0.3771 -0.0060
   55CHL1  H21A 5229   2.470   1.897   4.163 -0.2009  0.4519 -0.2735
   55CHL1  H21B 5230   2.458   1.745   4.092 -2.2457  1.8285  0.3786
   55CHL1  H21C 5231   2.476   1.898   3.994 -2.8962  2.1775  2.4277
   55CHL1   C22 5232   2.725   1.975   4.155  0.3621 -0.2994 -0.5301
   55CHL1  H22A 5233   2.835   1.982   4.142  0.2460  2.8410 -0.4218
   55CHL1  H22B 5234   2.674   2.064   4.112  0.8555  0.1166 -0.2625
   55CHL1   C23 5235   2.703   1.963   4.304  0.1664  0.6043  0.3353
   55CHL1  H23A 5236   2.596   1.952   4.332 -0.1601  0.1992 -1.0133
   55CHL1  H23B 5237   2.761   1.875   4.338  4.2546  2.2952 -1.5842
   55CHL1   C24 5238   2.755   2.090   4.376 -0.1173  0.0299  0.0504
   55CHL1  H24A 5239   2.858   2.113   4.344 -0.5618  1.3501 -0.4737
   55CHL1  H24B 5240   2.692   2.178   4.353  1.3828  0.8495 -1.1168
   55CHL1   C25 5241   2.778   2.054   4.524 -0.0172  0.9085 -0.5323
   55CHL1   H25 5242   2.842   1.963   4.523 -0.0535  0.8638  0.3721
   55CHL1   C26 5243   2.862   2.165   4.583 -0.0799 -0.1121  0.0570
   55CHL1  H26A 5244   2.810   2.263   4.574  1.2426  0.7339  1.2470
   55CHL1  H26B 5245   2.881   2.146   4.690 -0.0124  1.0040  0.2472
   55CHL1  H26C 5246   2.962   2.176   4.536  0.2044  2.3832  1.0985
   55CHL1   C27 5247   2.649   2.046   4.605 -0.1845  0.3621  0.4192
   55CHL1  H27A 5248   2.610   2.150   4.607 -0.8569  0.1940 -1.5990
   55CHL1  H27B 5249   2.586   1.974   4.548  1.5512 -0.7571 -0.2041
   55CHL1  H27C 5250   2.666   2.009   4.708 -1.1258 -0.3255  0.3426
   56CHL1    C3 5251   6.450   0.774   3.190  0.0747 -0.3988  0.6784
   56CHL1    H3 5252   6.525   0.692   3.191  1.4319  0.8024  0.8179
   56CHL1    O3 5253   6.408   0.800   3.056 -0.3520 -0.1304 -0.1842
   56CHL1   H3' 5254   6.320   0.836   3.068  0.5925  1.4470  2.8946
   56CHL1    C4 5255   6.329   0.723   3.274 -0.2921 -0.0685 -0.0086
   56CHL1   H4A 5256   6.245   0.795   3.270 -0.4412 -0.2487 -0.1276
   56CHL1   H4B 5257   6.302   0.629   3.221  0.6749 -1.3532  1.6707
   56CHL1    C5 5258   6.375   0.699   3.414  0.3751 -0.1624  0.5579
   56CHL1    C6 5259   6.360   0.583   3.480 -0.1546 -0.1288  0.0994
   56CHL1    H6 5260   6.317   0.492   3.437 -0.0278 -1.8665  3.3186
   56CHL1    C7 5261   6.379   0.568   3.631 -0.1875 -0.0776  0.5579
   56CHL1   H7A 5262   6.300   0.513   3.685 -0.8314  1.6252  1.4173
   56CHL1   H7B 5263   6.468   0.502   3.642  0.6649  1.1123  0.9304
   56CHL1    C8 5264   6.399   0.705   3.699  0.3303  0.2362 -0.0146
   56CHL1    H8 5265   6.300   0.753   3.713  0.7106  1.4537 -1.3218
   56CHL1   C14 5266   6.458   0.668   3.839  0.1328  0.1794 -0.1573
   56CHL1   H14 5267   6.553   0.619   3.810 -0.3614 -0.3168 -0.9948
   56CHL1   C15 5268   6.375   0.588   3.929  0.4498  0.6751  0.3638
   56CHL1  H15A 5269   6.268   0.614   3.924  0.6716  1.3496 -3.7448
   56CHL1  H15B 5270   6.364   0.481   3.901 -0.7074  1.0649 -0.7175
   56CHL1   C16 5271   6.440   0.611   4.066  0.6364  0.3445 -0.1847
   56CHL1  H16A 5272   6.368   0.649   4.142  1.0288 -0.2168  0.4833
   56CHL1  H16B 5273   6.485   0.519   4.110 -0.4015  0.3418  0.9464
   56CHL1   C17 5274   6.552   0.724   4.041  0.3226  0.2618 -0.0923
   56CHL1   H17 5275   6.650   0.676   4.017  0.3940  0.2840  0.1533
   56CHL1   C13 5276   6.499   0.795   3.917 -0.8584  0.6443 -0.1821
   56CHL1   C18 5277   6.379   0.877   3.955 -0.3533 -0.9598 -0.9048
   56CHL1  H18A 5278   6.408   0.973   4.002 -0.4434 -0.4580 -1.8533
   56CHL1  H18B 5279   6.339   0.915   3.859 -1.0733 -2.0070 -1.0407
   56CHL1  H18C 5280   6.299   0.821   4.008 -1.6274 -0.3201 -2.0924
   56CHL1   C12 5281   6.598   0.877   3.834  0.0495 -0.4113 -0.2293
   56CHL1  H12A 5282   6.625   0.967   3.894 -1.8812 -0.0301  0.1272
   56CHL1  H12B 5283   6.690   0.817   3.819 -0.7690 -1.7744  0.0134
   56CHL1   C11 5284   6.542   0.921   3.702  0.4624  0.3207 -0.6056
   56CHL1  H11A 5285   6.462   0.999   3.709  1.4984  1.5962 -2.1066
   56CHL1  H11B 5286   6.624   0.977   3.652  1.3468  2.1514  2.6138
   56CHL1    C9 5287   6.494   0.801   3.624  0.1974  0.1851 -0.2581
   56CHL1    H9 5288   6.585   0.742   3.599  0.7738  0.0073  2.0296
   56CHL1   C10 5289   6.429   0.829   3.484  0.3350 -0.6287 -0.2591
   56CHL1   C19 5290   6.317   0.941   3.494  0.3896 -0.2944  0.5339
   56CHL1  H19A 5291   6.244   0.896   3.564 -0.3177 -4.4759 -2.5079
   56CHL1  H19B 5292   6.356   1.042   3.519 -1.6155  1.0609 -1.4564
   56CHL1  H19C 5293   6.265   0.955   3.397 -1.6539  0.2764  1.6740
   56CHL1    C1 5294   6.538   0.901   3.389  0.7393  0.5181 -1.7017
   56CHL1   H1A 5295   6.564   1.004   3.421  1.4245 -0.3730  0.8071
   56CHL1   H1B 5296   6.629   0.836   3.391  1.2745  1.2389  1.0907
   56CHL1    C2 5297   6.502   0.902   3.243 -0.4753 -0.3902 -0.1988
   56CHL1   H2A 5298   6.594   0.926   3.184  0.4165  0.3839  1.4542
   56CHL1   H2B 5299   6.423   0.979   3.228 -0.8555 -0.5899  0.7568
   56CHL1   C20 5300   6.569   0.814   4.163  0.8530 -0.3387  0.2787
   56CHL1   H20 5301   6.481   0.880   4.177 -0.7867 -1.6476 -2.7572
   56CHL1   C21 5302   6.693   0.900   4.152 -0.4244 -0.0179  0.6727
   56CHL1  H21A 5303   6.763   0.847   4.084 -0.9284 -0.7359  0.6958
   56CHL1  H21B 5304   6.731   0.922   4.254  1.7388 -1.5686  0.2748
   56CHL1  H21C 5305   6.669   0.994   4.098 -0.2176 -0.4824 -0.2449
   56CHL1   C22 5306   6.561   0.741   4.303 -0.8915 -1.0733  0.0487
   56CHL1  H22A 5307   6.572   0.824   4.377 -2.8054 -0.8727  0.1583
   56CHL1  H22B 5308   6.464   0.689   4.316 -1.8394 -0.2114 -2.8141
   56CHL1   C23 5309   6.677   0.635   4.328  0.0260  0.0015 -0.2699
   56CHL1  H23A 5310   6.652   0.544   4.269  0.9782 -1.0246  0.8582
   56CHL1  H23B 5311   6.775   0.676   4.297  0.1518 -1.3323 -1.7642
   56CHL1   C24 5312   6.685   0.602   4.478  0.0685  0.0113 -0.1919
   56CHL1  H24A 5313   6.702   0.686   4.549  0.5783 -0.5043  0.2995
   56CHL1  H24B 5314   6.595   0.555   4.522 -0.6894  0.5465 -1.1293
   56CHL1   C25 5315   6.793   0.504   4.524 -0.9045 -0.7508  0.1751
   56CHL1   H25 5316   6.871   0.492   4.446  1.2065 -0.9691  2.2392
   56CHL1   C26 5317   6.862   0.550   4.649  0.1418  0.0142 -0.0107
   56CHL1  H26A 5318   6.931   0.635   4.632 -0.1925 -0.1215 -2.5069
   56CHL1  H26B 5319   6.788   0.582   4.726 -0.2680  0.5464 -0.6135
   56CHL1  H26C 5320   6.922   0.466   4.690  0.8931  0.3304 -0.4463
   56CHL1   C27 5321   6.745   0.362   4.539  0.2200 -0.8492  0.1085
   56CHL1  H27A 5322   6.716   0.327   4.438  0.3052 -0.2241 -0.1396
   56CHL1  H27B 5323   6.820   0.289   4.575 -0.1606 -1.0551  0.4984
   56CHL1  H27C 5324   6.660   0.350   4.609  0.8154  0.3306  1.0615
   57CHL1    C3 5325   4.361   6.576   3.455 -0.6110 -0.1748 -0.4158
   57CHL1    H3 5326   4.260   6.599   3.497  0.1133 -1.9264  2.6296
   57CHL1    O3 5327   4.362   6.609   3.318 -0.7607 -0.7689 -0.2489
   57CHL1   H3' 5328   4.271   6.592   3.293 -1.3973  0.3486  1.1032
   57CHL1    C4 5329   4.462   6.665   3.531 -0.3079 -0.3338  0.2761
   57CHL1   H4A 5330   4.561   6.649   3.482 -0.2582 -1.6619  0.7513
   57CHL1   H4B 5331   4.444   6.774   3.527  0.9362  0.0366  2.5627
   57CHL1    C5 5332   4.475   6.635   3.679  0.4378  0.4722  0.3263
   57CHL1    C6 5333   4.455   6.730   3.771 -0.7491  0.3722 -1.2323
   57CHL1    H6 5334   4.427   6.834   3.748 -0.6371  1.5433  3.0530
   57CHL1    C7 5335   4.478   6.701   3.920 -0.9504 -1.0022  0.0163
   57CHL1   H7A 5336   4.534   6.777   3.979  0.3519 -2.8216  1.2318
   57CHL1   H7B 5337   4.378   6.691   3.966 -0.6045  0.0104  1.0397
   57CHL1    C8 5338   4.543   6.561   3.953 -0.8521 -0.1380  0.7498
   57CHL1    H8 5339   4.651   6.583   3.939 -1.3724  2.1896  0.0184
   57CHL1   C14 5340   4.533   6.529   4.095  0.4555  0.2602  0.6592
   57CHL1   H14 5341   4.423   6.522   4.111  0.2785 -0.6628 -0.7893
   57CHL1   C15 5342   4.575   6.638   4.199  0.2087  1.3638 -0.5298
   57CHL1  H15A 5343   4.679   6.673   4.182  0.2196  1.4532 -0.2795
   57CHL1  H15B 5344   4.496   6.716   4.205 -1.5868 -0.3959  0.1699
   57CHL1   C16 5345   4.570   6.557   4.331 -0.8687 -0.0009  0.6172
   57CHL1  H16A 5346   4.670   6.564   4.380 -0.6955 -0.2196  0.2907
   57CHL1  H16B 5347   4.494   6.595   4.404  0.1654  1.7245  0.8571
   57CHL1   C17 5348   4.557   6.410   4.289  0.5625 -0.0516 -1.0728
   57CHL1   H17 5349   4.446   6.401   4.287  0.5071  0.6301 -1.2347
   57CHL1   C13 5350   4.592   6.394   4.138 -0.2341 -0.0746 -0.1265
   57CHL1   C18 5351   4.747   6.403   4.125  0.4185  0.2259  0.2560
   57CHL1  H18A 5352   4.801   6.329   4.188  0.8197  0.2450 -0.0603
   57CHL1  H18B 5353   4.775   6.401   4.017 -0.8215  0.4244 -0.0794
   57CHL1  H18C 5354   4.788   6.499   4.163 -0.2157  0.7963 -0.4756
   57CHL1   C12 5355   4.517   6.284   4.059  0.3318 -0.0547  0.1126
   57CHL1  H12A 5356   4.555   6.182   4.082  2.1350  0.2086 -1.3927
   57CHL1  H12B 5357   4.411   6.293   4.089  0.4530  1.4445  0.1469
   57CHL1   C11 5358   4.517   6.303   3.898 -0.4967  0.3556  0.2411
   57CHL1  H11A 5359   4.623   6.278   3.876 -0.8783 -0.4274 -0.8001
   57CHL1  H11B 5360   4.467   6.217   3.849  1.9484 -0.2425 -1.3834
   57CHL1    C9 5361   4.482   6.454   3.863  0.6802 -0.2729  0.7487
   57CHL1    H9 5362   4.372   6.463   3.873  0.5276 -1.7507  0.6753
   57CHL1   C10 5363   4.498   6.486   3.709  0.1999 -0.2122 -0.5160
   57CHL1   C19 5364   4.641   6.449   3.666 -0.6709  0.2054 -0.1515
   57CHL1  H19A 5365   4.657   6.340   3.683 -2.3387  0.0180  0.3366
   57CHL1  H19B 5366   4.660   6.479   3.560  0.5575  0.5750  0.1586
   57CHL1  H19C 5367   4.712   6.508   3.728 -0.8966  1.7028 -1.2510
   57CHL1    C1 5368   4.399   6.396   3.629  0.1644 -0.5438  0.5189
   57CHL1   H1A 5369   4.419   6.287   3.644  0.5845 -0.3416  1.4960
   57CHL1   H1B 5370   4.298   6.420   3.668  0.9653  3.2385  0.6173
   57CHL1    C2 5371   4.399   6.426   3.479  0.5144 -0.2679 -0.3466
   57CHL1   H2A 5372   4.324   6.366   3.423  0.8939 -0.8608 -0.2310
   57CHL1   H2B 5373   4.497   6.420   3.427  1.7156  0.7536  1.6662
   57CHL1   C20 5374   4.609   6.299   4.385  0.2892 -0.2137 -0.4820
   57CHL1   H20 5375   4.621   6.216   4.313 -0.2566  1.2261 -2.3072
   57CHL1   C21 5376   4.492   6.284   4.496 -0.3309  0.3845 -0.0209
   57CHL1  H21A 5377   4.395   6.249   4.456 -0.5434  0.7260  0.1897
   57CHL1  H21B 5378   4.474   6.389   4.527  1.7773  0.9381 -0.5428
   57CHL1  H21C 5379   4.527   6.222   4.581 -0.4953 -0.0116 -0.2402
   57CHL1   C22 5380   4.748   6.326   4.456 -0.0147 -0.3576  0.1817
   57CHL1  H22A 5381   4.818   6.387   4.394  1.1608 -0.0535  1.7239
   57CHL1  H22B 5382   4.726   6.376   4.553 -0.0312  0.0522 -0.0324
   57CHL1   C23 5383   4.825   6.196   4.484  0.2445 -0.1877  0.0131
   57CHL1  H23A 5384   4.767   6.114   4.531 -0.9241  0.5087 -0.1744
   57CHL1  H23B 5385   4.857   6.169   4.381  0.1726 -0.7678  0.1442
   57CHL1   C24 5386   4.956   6.229   4.564  0.9895  0.3023 -0.1620
   57CHL1  H24A 5387   5.012   6.301   4.500 -0.4708 -0.2945 -2.2133
   57CHL1  H24B 5388   4.921   6.288   4.652  3.3433  0.3336  0.8320
   57CHL1   C25 5389   5.042   6.102   4.590 -1.0481 -0.4800  0.2361
   57CHL1   H25 5390   4.989   6.021   4.644  0.3403 -2.2775 -0.9861
   57CHL1   C26 5391   5.081   6.032   4.465  0.1645  0.2574 -0.0843
   57CHL1  H26A 5392   5.150   6.086   4.397 -0.9842 -1.5435 -2.8224
   57CHL1  H26B 5393   5.117   5.931   4.494 -1.8067 -0.2068  0.9180
   57CHL1  H26C 5394   4.988   6.004   4.411  0.3814  1.4601 -1.1166
   57CHL1   C27 5395   5.169   6.140   4.671 -0.1737 -0.2511 -0.7864
   57CHL1  H27A 5396   5.235   6.053   4.694 -1.7782 -0.8146  2.1186
   57CHL1  H27B 5397   5.225   6.225   4.626  1.2113 -0.7284 -0.0577
   57CHL1  H27C 5398   5.148   6.186   4.770 -0.0276 -0.2573 -0.7506
   58CHL1    C3 5399   3.265   1.298   3.100  0.0661 -0.1583  0.2930
   58CHL1    H3 5400   3.277   1.408   3.112  3.6951 -0.6187  2.5072
   58CHL1    O3 5401   3.261   1.263   2.960 -0.1505 -0.0796 -0.8109
   58CHL1   H3' 5402   3.311   1.331   2.914  0.0836  1.0406  0.9837
   58CHL1    C4 5403   3.392   1.238   3.167  0.5663  0.1516 -0.5562
   58CHL1   H4A 5404   3.401   1.128   3.149 -1.5911 -0.6052  2.2066
   58CHL1   H4B 5405   3.481   1.275   3.113  0.1111  1.1063 -0.6717
   58CHL1    C5 5406   3.385   1.262   3.313  0.7501 -0.5504 -0.1278
   58CHL1    C6 5407   3.477   1.339   3.379  0.6414 -0.9391  0.9658
   58CHL1    H6 5408   3.567   1.368   3.322  0.2562 -1.4215  0.0833
   58CHL1    C7 5409   3.475   1.383   3.528 -0.3479  0.0263 -0.3803
   58CHL1   H7A 5410   3.570   1.358   3.579 -2.0222 -1.3267  2.3030
   58CHL1   H7B 5411   3.461   1.493   3.537 -0.4381 -0.1163  1.5190
   58CHL1    C8 5412   3.376   1.302   3.604 -0.2819  0.4754 -0.1636
   58CHL1    H8 5413   3.426   1.204   3.618  3.7880  2.3404 -0.2809
   58CHL1   C14 5414   3.352   1.356   3.745 -0.3539  0.2541  0.2764
   58CHL1   H14 5415   3.286   1.445   3.739 -0.8092 -0.1619 -1.3677
   58CHL1   C15 5416   3.474   1.396   3.829  0.0031 -0.0097  0.1335
   58CHL1  H15A 5417   3.547   1.313   3.819 -0.6904 -0.7239  0.8721
   58CHL1  H15B 5418   3.523   1.491   3.797 -0.1821 -0.3108 -1.0846
   58CHL1   C16 5419   3.415   1.406   3.975 -0.0929  0.6210  0.8870
   58CHL1  H16A 5420   3.480   1.355   4.050  0.1141 -1.6720 -0.7707
   58CHL1  H16B 5421   3.419   1.513   4.006  1.5879  0.8082  0.1102
   58CHL1   C17 5422   3.270   1.351   3.969  1.1426  0.3878  0.1438
   58CHL1   H17 5423   3.208   1.442   3.952  2.2682  0.9851 -0.8551
   58CHL1   C13 5424   3.264   1.268   3.836  0.7431 -0.1358 -0.5993
   58CHL1   C18 5425   3.327   1.129   3.861 -0.0592 -0.0662 -0.7434
   58CHL1  H18A 5426   3.261   1.062   3.921  1.9112 -1.0220  0.4536
   58CHL1  H18B 5427   3.356   1.076   3.769  1.8438  1.7186 -1.2431
   58CHL1  H18C 5428   3.424   1.145   3.913 -0.8829 -0.7708  1.1176
   58CHL1   C12 5429   3.126   1.260   3.766 -0.4407  0.3753 -0.0897
   58CHL1  H12A 5430   3.060   1.194   3.827  0.8243 -2.1378 -1.3000
   58CHL1  H12B 5431   3.078   1.360   3.765 -1.7093 -0.1607  1.8201
   58CHL1   C11 5432   3.143   1.197   3.623 -0.2655 -0.3240  0.5783
   58CHL1  H11A 5433   3.180   1.093   3.635 -0.9043 -0.3723  2.4992
   58CHL1  H11B 5434   3.042   1.187   3.577 -1.1880 -0.7136  2.5708
   58CHL1    C9 5435   3.242   1.280   3.534  0.3048  0.6174  0.4148
   58CHL1    H9 5436   3.205   1.384   3.529 -1.2778  0.0243 -1.3965
   58CHL1   C10 5437   3.252   1.223   3.382 -0.6906  1.2387  0.0758
   58CHL1   C19 5438   3.255   1.063   3.380  0.7942 -0.3368 -0.5511
   58CHL1  H19A 5439   3.322   1.031   3.463  0.0664  0.0735  0.2115
   58CHL1  H19B 5440   3.154   1.019   3.401  0.9395 -0.1887  0.5200
   58CHL1  H19C 5441   3.278   1.022   3.279 -1.5402  1.5521 -1.9710
   58CHL1    C1 5442   3.127   1.265   3.307  0.1528 -0.7287  0.0483
   58CHL1   H1A 5443   3.037   1.215   3.348  0.4287 -0.2391  1.3135
   58CHL1   H1B 5444   3.122   1.375   3.324  0.3432 -0.7809  0.4493
   58CHL1    C2 5445   3.140   1.241   3.156 -0.7757 -0.2051 -0.4466
   58CHL1   H2A 5446   3.052   1.287   3.106 -1.3266  0.1646  0.8154
   58CHL1   H2B 5447   3.132   1.131   3.140  0.5585 -0.5546  0.9780
   58CHL1   C20 5448   3.231   1.272   4.102  0.6655 -0.4977  0.2011
   58CHL1   H20 5449   3.293   1.181   4.116  0.5317 -0.3747  1.8105
   58CHL1   C21 5450   3.086   1.225   4.103 -0.4214 -0.3221 -0.1796
   58CHL1  H21A 5451   3.059   1.159   4.017  4.8836  0.0864 -2.5172
   58CHL1  H21B 5452   3.033   1.321   4.087  3.2135  1.4524 -3.0916
   58CHL1  H21C 5453   3.053   1.177   4.197  0.1486  0.1700  0.2772
   58CHL1   C22 5454   3.254   1.360   4.228 -0.6001 -0.2296  0.4607
   58CHL1  H22A 5455   3.360   1.391   4.226 -1.0374  1.4128 -1.8937
   58CHL1  H22B 5456   3.195   1.454   4.232  0.2925  0.3446  0.4526
   58CHL1   C23 5457   3.226   1.286   4.360 -0.6801  0.4202  0.6373
   58CHL1  H23A 5458   3.116   1.271   4.370 -0.3066 -0.9440  3.3406
   58CHL1  H23B 5459   3.266   1.183   4.345  0.1221  0.6161  1.3807
   58CHL1   C24 5460   3.278   1.361   4.483 -0.7514 -0.3610 -0.2164
   58CHL1  H24A 5461   3.221   1.455   4.502  1.1076  0.2026  3.5606
   58CHL1  H24B 5462   3.252   1.296   4.569  1.3741 -0.7568  0.1925
   58CHL1   C25 5463   3.431   1.395   4.477 -0.2340 -0.2785 -0.0915
   58CHL1   H25 5464   3.460   1.455   4.388  1.7255  0.4588  0.9817
   58CHL1   C26 5465   3.468   1.488   4.593 -0.3866  0.2608 -0.3706
   58CHL1  H26A 5466   3.427   1.446   4.687 -0.2484 -0.7586 -0.7522
   58CHL1  H26B 5467   3.578   1.493   4.606 -0.6269  0.4724  2.0239
   58CHL1  H26C 5468   3.429   1.591   4.577  0.2971  0.3794 -1.3994
   58CHL1   C27 5469   3.513   1.263   4.481 -0.4841  0.5801 -0.0264
   58CHL1  H27A 5470   3.497   1.197   4.569  2.6362 -1.9444 -1.1549
   58CHL1  H27B 5471   3.504   1.206   4.386  0.6205 -0.1832  0.3103
   58CHL1  H27C 5472   3.621   1.290   4.482 -0.1850 -0.2688 -2.7135
   59CHL1    C3 5473   1.703   0.119   3.257 -0.0226  0.3518 -0.3651
   59CHL1    H3 5474   1.599   0.157   3.244  0.5666  1.9997 -0.4080
   59CHL1    O3 5475   1.747   0.074   3.135  0.3581 -0.1998  0.2643
   59CHL1   H3' 5476   1.820   0.013   3.145  0.2473 -0.8827 -2.2237
   59CHL1    C4 5477   1.796   0.228   3.314 -0.0338 -0.2623  0.4855
   59CHL1   H4A 5478   1.900   0.192   3.306  0.4471  0.8659  1.3965
   59CHL1   H4B 5479   1.791   0.301   3.231  1.5924 -0.2422  0.3819
   59CHL1    C5 5480   1.764   0.282   3.452  0.0787 -0.0498  0.9655
   59CHL1    C6 5481   1.739   0.408   3.469 -0.5253 -0.3872 -0.0662
   59CHL1    H6 5482   1.752   0.471   3.379  0.9704 -0.6154 -0.0428
   59CHL1    C7 5483   1.722   0.475   3.602  0.8439 -0.1280 -0.1428
   59CHL1   H7A 5484   1.772   0.574   3.606 -0.1300  0.3493  0.4532
   59CHL1   H7B 5485   1.615   0.505   3.606  0.2453 -1.8711 -1.7793
   59CHL1    C8 5486   1.768   0.382   3.717 -0.0615  0.3452  0.3639
   59CHL1    H8 5487   1.879   0.380   3.710 -0.1036  0.5602 -0.5951
   59CHL1   C14 5488   1.705   0.433   3.847 -0.1106  0.8514 -0.1622
   59CHL1   H14 5489   1.596   0.413   3.843  0.1992 -0.8638 -0.3960
   59CHL1   C15 5490   1.729   0.582   3.891 -0.2214 -0.0258 -0.0954
   59CHL1  H15A 5491   1.828   0.625   3.868  0.5442 -1.5154  0.2584
   59CHL1  H15B 5492   1.651   0.650   3.851 -1.9884 -0.7689  1.9029
   59CHL1   C16 5493   1.709   0.579   4.045  0.3999 -0.0552 -0.1847
   59CHL1  H16A 5494   1.806   0.623   4.076  2.0561 -3.7976  0.4843
   59CHL1  H16B 5495   1.618   0.632   4.080  0.8124 -0.8872  2.3233
   59CHL1   C17 5496   1.692   0.430   4.088  0.2090  0.3091  0.0497
   59CHL1   H17 5497   1.583   0.405   4.083  0.5486 -1.6142  1.1513
   59CHL1   C13 5498   1.754   0.348   3.960  0.7202  0.0011 -0.6799
   59CHL1   C18 5499   1.911   0.340   3.975  0.6864 -0.0187  0.4017
   59CHL1  H18A 5500   1.945   0.274   3.893  0.2807 -1.4480  1.3541
   59CHL1  H18B 5501   1.956   0.442   3.968  2.5865 -0.7961  0.5579
   59CHL1  H18C 5502   1.937   0.299   4.075  0.4090  0.2792  0.5972
   59CHL1   C12 5503   1.691   0.208   3.946 -0.4449 -0.0156  0.2126
   59CHL1  H12A 5504   1.724   0.132   4.020  0.0363 -1.6771 -1.6297
   59CHL1  H12B 5505   1.581   0.216   3.961 -0.2946  0.2041  1.2848
   59CHL1   C11 5506   1.712   0.140   3.807  0.3907  0.3567  0.4201
   59CHL1  H11A 5507   1.805   0.080   3.813  0.1427  0.0816  1.9638
   59CHL1  H11B 5508   1.625   0.071   3.794 -0.7516  1.7329  0.5720
   59CHL1    C9 5509   1.704   0.237   3.687  0.4092  0.0589 -0.1028
   59CHL1    H9 5510   1.598   0.259   3.664 -0.4186 -2.2438  1.1781
   59CHL1   C10 5511   1.755   0.173   3.555  0.3769  0.8237 -0.6760
   59CHL1   C19 5512   1.902   0.115   3.581  0.1648  0.0617  0.1750
   59CHL1  H19A 5513   1.890   0.018   3.633 -1.2141 -0.1934 -0.5681
   59CHL1  H19B 5514   1.953   0.086   3.486  0.1504  0.8940 -0.0998
   59CHL1  H19C 5515   1.959   0.190   3.640 -0.1006  0.8439 -0.5362
   59CHL1    C1 5516   1.659   0.062   3.502 -0.0136  0.0356 -0.2110
   59CHL1   H1A 5517   1.654  -0.016   3.581 -0.4043 -0.5544 -0.8014
   59CHL1   H1B 5518   1.557   0.104   3.491 -0.8969 -1.3093  2.0223
   59CHL1    C2 5519   1.697   0.004   3.366 -0.0356  0.7023  1.0175
   59CHL1   H2A 5520   1.619  -0.063   3.325  0.0302  1.1703  0.1150
   59CHL1   H2B 5521   1.787  -0.060   3.380 -0.3629  0.1291  0.5433
   59CHL1   C20 5522   1.732   0.391   4.231 -0.1586 -0.2650 -0.0334
   59CHL1   H20 5523   1.840   0.367   4.236 -0.2966 -1.0414 -0.4541
   59CHL1   C21 5524   1.637   0.283   4.275 -0.2655  0.3721  0.6238
   59CHL1  H21A 5525   1.668   0.218   4.359 -3.8664 -2.6360 -0.1228
   59CHL1  H21B 5526   1.621   0.214   4.189  0.8745  3.1024 -1.9495
   59CHL1  H21C 5527   1.538   0.326   4.301  0.2036  1.6487  0.3864
   59CHL1   C22 5528   1.711   0.511   4.325  0.0210  0.1609  0.0231
   59CHL1  H22A 5529   1.782   0.589   4.288  1.2431 -0.1046  1.6644
   59CHL1  H22B 5530   1.607   0.546   4.312 -0.0527 -0.0793 -0.0252
   59CHL1   C23 5531   1.747   0.493   4.482 -0.7971 -0.6856 -0.8166
   59CHL1  H23A 5532   1.685   0.408   4.516 -0.5711 -0.8863 -0.9028
   59CHL1  H23B 5533   1.851   0.461   4.504  0.0307  2.8644  1.2342
   59CHL1   C24 5534   1.709   0.611   4.573 -0.2025 -0.9733  0.1601
   59CHL1  H24A 5535   1.749   0.692   4.508 -0.5880 -1.1834 -0.3436
   59CHL1  H24B 5536   1.601   0.619   4.595 -0.3184  1.6899 -0.9854
   59CHL1   C25 5537   1.784   0.608   4.709  0.0040  0.0072 -0.2448
   59CHL1   H25 5538   1.880   0.559   4.682 -0.1995  0.4942 -1.9269
   59CHL1   C26 5539   1.809   0.739   4.781  0.0943  0.5436  0.3029
   59CHL1  H26A 5540   1.868   0.723   4.874 -0.7621  1.7650  1.0793
   59CHL1  H26B 5541   1.858   0.808   4.708  1.3976  1.7575  2.2418
   59CHL1  H26C 5542   1.715   0.789   4.811  0.3611  0.9510  0.4592
   59CHL1   C27 5543   1.717   0.519   4.813 -0.6521  0.5237 -0.2026
   59CHL1  H27A 5544   1.675   0.427   4.767 -0.8004  0.4346  0.1072
   59CHL1  H27B 5545   1.790   0.484   4.889  0.2600 -2.6343 -2.3550
   59CHL1  H27C 5546   1.631   0.575   4.856 -1.4566 -0.4086 -0.5593
   60CHL1    C3 5547   3.890   5.207   3.258  0.2975 -0.4049 -0.6732
   60CHL1    H3 5548   3.825   5.286   3.300 -0.9154 -1.0179 -1.3605
   60CHL1    O3 5549   3.866   5.195   3.117 -0.5257  0.5645  0.5610
   60CHL1   H3' 5550   3.899   5.259   3.053 -2.7743 -1.5743 -3.1343
   60CHL1    C4 5551   4.033   5.256   3.283 -0.7270 -0.4941 -0.5353
   60CHL1   H4A 5552   4.103   5.204   3.215 -0.9318 -0.7116 -0.5839
   60CHL1   H4B 5553   4.043   5.361   3.248 -3.8969  0.0273 -0.2597
   60CHL1    C5 5554   4.082   5.250   3.432  0.1865  0.0427 -0.0740
   60CHL1    C6 5555   4.119   5.361   3.494  0.2164 -0.1909  0.2318
   60CHL1    H6 5556   4.125   5.453   3.434  1.8094 -0.1883  0.3403
   60CHL1    C7 5557   4.162   5.359   3.642  0.4532 -0.4329  0.1703
   60CHL1   H7A 5558   4.263   5.405   3.643  0.6550 -0.8710  0.0584
   60CHL1   H7B 5559   4.089   5.418   3.702  1.4282  0.1602  0.8059
   60CHL1    C8 5560   4.189   5.216   3.692  0.0448  0.5867 -0.1744
   60CHL1    H8 5561   4.286   5.183   3.649  0.9423  0.9049  1.5495
   60CHL1   C14 5562   4.198   5.218   3.841 -0.2048 -1.0189 -0.2556
   60CHL1   H14 5563   4.098   5.251   3.877  0.5321  1.3451 -0.2217
   60CHL1   C15 5564   4.291   5.329   3.903 -0.7466 -0.7646  0.0037
   60CHL1  H15A 5565   4.389   5.339   3.852 -0.7177 -1.7232 -0.1527
   60CHL1  H15B 5566   4.231   5.422   3.905 -0.3993 -0.4714 -1.7785
   60CHL1   C16 5567   4.313   5.278   4.046  0.0750  0.5751  0.1747
   60CHL1  H16A 5568   4.423   5.264   4.056 -0.0474 -0.5020  0.0799
   60CHL1  H16B 5569   4.276   5.343   4.129 -0.9694  0.9225 -0.5485
   60CHL1   C17 5570   4.251   5.136   4.057  0.1886  0.0240  0.7207
   60CHL1   H17 5571   4.145   5.160   4.083 -0.1182  0.0831 -0.5275
   60CHL1   C13 5572   4.234   5.091   3.905  0.6035 -0.0899 -0.3848
   60CHL1   C18 5573   4.366   5.034   3.853 -0.0639 -1.0078  0.6305
   60CHL1  H18A 5574   4.354   4.995   3.750 -0.5393  1.6662 -0.3941
   60CHL1  H18B 5575   4.439   5.118   3.853 -0.0784 -0.9557 -1.2572
   60CHL1  H18C 5576   4.405   4.951   3.916 -1.2444 -1.2635  1.0485
   60CHL1   C12 5577   4.120   4.998   3.874  0.1916  0.5424  0.0087
   60CHL1  H12A 5578   4.132   4.897   3.918  3.3749  0.4596 -0.7645
   60CHL1  H12B 5579   4.031   5.048   3.917 -1.0268 -0.7463 -0.9357
   60CHL1   C11 5580   4.099   4.980   3.721  0.5793 -0.2646 -0.0302
   60CHL1  H11A 5581   4.189   4.930   3.681  0.3374 -1.7240  1.1688
   60CHL1  H11B 5582   4.009   4.918   3.702 -1.8433  3.5022 -2.2575
   60CHL1    C9 5583   4.077   5.120   3.650  0.3826  0.3517 -0.1392
   60CHL1    H9 5584   3.980   5.155   3.692  0.2426  0.7238 -0.7520
   60CHL1   C10 5585   4.057   5.110   3.498  0.3904  0.8898  0.0808
   60CHL1   C19 5586   4.155   5.006   3.442 -0.2190  0.0299 -0.7357
   60CHL1  H19A 5587   4.117   4.905   3.468  0.5048 -0.1129 -0.2034
   60CHL1  H19B 5588   4.156   5.017   3.331 -4.1773  1.6519 -0.7891
   60CHL1  H19C 5589   4.256   5.017   3.486 -1.4926  0.9588  2.1737
   60CHL1    C1 5590   3.909   5.073   3.464 -0.1835 -1.0299  0.6700
   60CHL1   H1A 5591   3.891   4.971   3.505  0.9794 -1.7208 -0.4473
   60CHL1   H1B 5592   3.841   5.144   3.516 -1.6950 -1.1630 -1.0132
   60CHL1    C2 5593   3.877   5.070   3.315  0.3475  0.2540  0.0796
   60CHL1   H2A 5594   3.776   5.036   3.286 -0.6836  1.3039  2.1764
   60CHL1   H2B 5595   3.953   5.010   3.260  0.8229  0.8220  0.1102
   60CHL1   C20 5596   4.299   5.024   4.144  0.4172 -0.2213 -1.0207
   60CHL1   H20 5597   4.282   4.921   4.105  0.8331 -1.1622  1.1624
   60CHL1   C21 5598   4.220   5.036   4.273 -0.0029 -0.1196  0.1431
   60CHL1  H21A 5599   4.252   4.963   4.351  0.7970 -1.4633 -1.3830
   60CHL1  H21B 5600   4.113   5.018   4.251  0.3918 -0.8710 -1.2718
   60CHL1  H21C 5601   4.223   5.142   4.307 -0.3387 -0.3070  0.7773
   60CHL1   C22 5602   4.450   5.040   4.196 -0.0292 -0.2027  0.2625
   60CHL1  H22A 5603   4.524   5.059   4.116  0.6534 -0.7754  0.7542
   60CHL1  H22B 5604   4.458   5.126   4.267  0.4320  0.6313 -0.7663
   60CHL1   C23 5605   4.517   4.920   4.275 -0.2305 -0.2013  0.5716
   60CHL1  H23A 5606   4.491   4.931   4.382 -2.2679  1.1129  0.0113
   60CHL1  H23B 5607   4.474   4.823   4.242 -1.2297  0.3998  0.0499
   60CHL1   C24 5608   4.672   4.940   4.260  0.4800  0.3528 -0.1241
   60CHL1  H24A 5609   4.722   4.842   4.275 -0.0788  0.1053  0.1377
   60CHL1  H24B 5610   4.689   4.972   4.155 -1.2292 -0.1909 -0.5977
   60CHL1   C25 5611   4.726   5.038   4.371  0.2903  0.5651  0.4768
   60CHL1   H25 5612   4.639   5.093   4.412 -0.9180 -0.6100 -0.4188
   60CHL1   C26 5613   4.780   4.955   4.489 -0.3295 -0.1230 -0.3047
   60CHL1  H26A 5614   4.717   4.877   4.537  0.0856  1.2926  2.8345
   60CHL1  H26B 5615   4.885   4.921   4.476 -0.2595 -1.5421  2.9251
   60CHL1  H26C 5616   4.785   5.024   4.576 -1.2349  1.3983 -1.4233
   60CHL1   C27 5617   4.822   5.139   4.316  0.2429  0.2274 -0.5167
   60CHL1  H27A 5618   4.760   5.192   4.241 -0.6601 -2.6683 -1.9896
   60CHL1  H27B 5619   4.847   5.212   4.395  2.4100 -0.1525 -0.7945
   60CHL1  H27C 5620   4.916   5.108   4.266 -0.8995 -0.9684 -2.0610
   61CHL1    C3 5621   5.781   1.048   3.066  0.1935 -0.2226  1.1092
   61CHL1    H3 5622   5.683   1.095   3.041  1.2980  0.7780 -1.8034
   61CHL1    O3 5623   5.838   1.010   2.946 -0.2764 -0.4312  0.3733
   61CHL1   H3' 5624   5.835   1.085   2.886 -0.7946 -0.8264 -0.1122
   61CHL1    C4 5625   5.862   1.151   3.134  0.2524 -0.1322  0.1354
   61CHL1   H4A 5626   5.964   1.107   3.144  1.4202  2.5306  0.9060
   61CHL1   H4B 5627   5.891   1.236   3.068  0.7480 -0.3185  0.1101
   61CHL1    C5 5628   5.811   1.194   3.270  0.3784 -0.0294  0.1226
   61CHL1    C6 5629   5.784   1.325   3.297 -0.0549 -0.1850  0.4897
   61CHL1    H6 5630   5.806   1.397   3.217 -0.7076  0.6823  1.0846
   61CHL1    C7 5631   5.734   1.383   3.429 -0.6294  0.1425 -0.2754
   61CHL1   H7A 5632   5.790   1.475   3.455 -0.3979  0.0044 -0.2845
   61CHL1   H7B 5633   5.625   1.405   3.418 -0.5853 -0.2917 -1.8624
   61CHL1    C8 5634   5.746   1.276   3.543 -0.1143 -0.4100  0.2917
   61CHL1    H8 5635   5.852   1.271   3.577  0.0155  0.2215 -0.0056
   61CHL1   C14 5636   5.667   1.318   3.665 -0.4035  0.9470 -1.2308
   61CHL1   H14 5637   5.562   1.332   3.633 -0.6684  0.4332 -0.5996
   61CHL1   C15 5638   5.693   1.454   3.726 -0.0645 -0.4138  0.1558
   61CHL1  H15A 5639   5.802   1.461   3.746 -0.3012 -1.2121  1.8940
   61CHL1  H15B 5640   5.666   1.527   3.647  0.1719 -0.4640  0.0301
   61CHL1   C16 5641   5.607   1.450   3.854 -0.0386  0.0419  1.0065
   61CHL1  H16A 5642   5.662   1.511   3.928  0.2376 -0.0192  0.8543
   61CHL1  H16B 5643   5.507   1.490   3.827  0.6408  1.0100 -0.2090
   61CHL1   C17 5644   5.581   1.301   3.889 -0.8693  0.5445 -0.2090
   61CHL1   H17 5645   5.481   1.273   3.850 -0.2922 -1.8362 -0.1188
   61CHL1   C13 5646   5.669   1.222   3.790  0.5025 -0.0076 -0.2379
   61CHL1   C18 5647   5.816   1.206   3.849  0.4078 -0.8817  0.1896
   61CHL1  H18A 5648   5.857   1.301   3.888  1.8178 -0.6800 -1.6461
   61CHL1  H18B 5649   5.812   1.135   3.935 -1.4758 -0.6320  0.3714
   61CHL1  H18C 5650   5.878   1.164   3.767 -0.3677 -0.0099 -0.8780
   61CHL1   C12 5651   5.620   1.084   3.738 -0.7562  0.1062 -0.5057
   61CHL1  H12A 5652   5.632   1.006   3.817 -2.3006  0.0812 -0.2748
   61CHL1  H12B 5653   5.512   1.097   3.716 -1.0718 -3.4030 -1.6849
   61CHL1   C11 5654   5.699   1.031   3.616  0.5164 -0.5500 -0.0834
   61CHL1  H11A 5655   5.803   1.003   3.642  0.5766 -0.3240 -0.0888
   61CHL1  H11B 5656   5.648   0.939   3.578 -0.0785 -0.8258  1.2820
   61CHL1    C9 5657   5.698   1.138   3.499 -0.7507  0.4998  0.3043
   61CHL1    H9 5658   5.591   1.136   3.471 -0.3229 -1.3476 -1.4468
   61CHL1   C10 5659   5.779   1.083   3.369 -0.4929 -0.6638 -0.1103
   61CHL1   C19 5660   5.920   1.022   3.411  0.1012 -0.5551  0.6472
   61CHL1  H19A 5661   5.975   1.087   3.483 -0.2129  0.9475 -0.4255
   61CHL1  H19B 5662   5.896   0.923   3.455 -1.4069  0.1864  1.5894
   61CHL1  H19C 5663   5.983   1.004   3.322 -2.4165 -0.0055 -1.3736
   61CHL1    C1 5664   5.697   0.969   3.293  0.0100 -0.5590 -0.4919
   61CHL1   H1A 5665   5.697   0.878   3.357  1.0139 -0.5784 -0.5014
   61CHL1   H1B 5666   5.594   1.012   3.291  0.5221  0.9076  1.7412
   61CHL1    C2 5667   5.753   0.928   3.158  0.5727 -0.9584 -0.1373
   61CHL1   H2A 5668   5.684   0.866   3.096 -0.0776  0.7815 -1.2232
   61CHL1   H2B 5669   5.847   0.873   3.177  0.8753  0.2259  2.1525
   61CHL1   C20 5670   5.586   1.273   4.040  0.2866 -0.1213 -0.0523
   61CHL1   H20 5671   5.689   1.285   4.082  0.3994  0.9151 -0.5988
   61CHL1   C21 5672   5.552   1.123   4.073  0.6112  0.0380 -0.4521
   61CHL1  H21A 5673   5.620   1.059   4.012  0.2545 -0.5079 -0.2799
   61CHL1  H21B 5674   5.446   1.103   4.050  0.6036 -3.1341  1.8363
   61CHL1  H21C 5675   5.573   1.102   4.180 -0.4959 -0.2629 -0.2824
   61CHL1   C22 5676   5.498   1.373   4.113 -0.0112 -0.7177 -0.1887
   61CHL1  H22A 5677   5.549   1.471   4.104  0.4858 -1.0336 -0.9190
   61CHL1  H22B 5678   5.399   1.385   4.066 -0.2041 -1.3735  0.0281
   61CHL1   C23 5679   5.485   1.333   4.261 -0.0088 -0.0845  0.1916
   61CHL1  H23A 5680   5.417   1.246   4.272 -2.4569  1.8389  1.1844
   61CHL1  H23B 5681   5.583   1.305   4.305 -0.1523 -1.5588 -0.3677
   61CHL1   C24 5682   5.405   1.430   4.358 -0.6767  0.0915  0.3596
   61CHL1  H24A 5683   5.447   1.530   4.336 -1.6934  0.3739 -0.3705
   61CHL1  H24B 5684   5.302   1.440   4.317 -0.0576  1.3446 -0.9431
   61CHL1   C25 5685   5.390   1.384   4.500 -0.2975 -0.5923 -0.0489
   61CHL1   H25 5686   5.325   1.294   4.491 -2.0794  0.6964 -0.5637
   61CHL1   C26 5687   5.517   1.345   4.562 -0.9880  1.2636 -0.7111
   61CHL1  H26A 5688   5.605   1.412   4.553  1.3312 -1.5098 -0.1641
   61CHL1  H26B 5689   5.512   1.331   4.672 -0.0565 -1.8567 -0.9506
   61CHL1  H26C 5690   5.554   1.252   4.512 -3.5615 -1.1195  1.4963
   61CHL1   C27 5691   5.307   1.490   4.576 -0.5232 -0.2247  0.0050
   61CHL1  H27A 5692   5.209   1.520   4.532 -0.7232  0.5268  0.9398
   61CHL1  H27B 5693   5.294   1.476   4.685 -2.6615  1.7160  0.0851
   61CHL1  H27C 5694   5.378   1.575   4.572 -0.9676  0.2116  1.1635
   62CHL1    C3 5695   6.307   1.366   3.335 -1.0141  0.5653 -0.1879
   62CHL1    H3 5696   6.325   1.260   3.363  2.2246  1.1389  0.2629
   62CHL1    O3 5697   6.280   1.371   3.197 -0.5936 -0.0219 -0.1055
   62CHL1   H3' 5698   6.257   1.464   3.188  0.4931  0.4491  1.4733
   62CHL1    C4 5699   6.201   1.427   3.416  0.2598 -0.4290 -0.0214
   62CHL1   H4A 5700   6.206   1.538   3.407 -1.3310 -0.2293  1.0630
   62CHL1   H4B 5701   6.105   1.394   3.371  0.1190  0.0131 -0.0505
   62CHL1    C5 5702   6.228   1.399   3.563 -0.0777  0.2585 -0.9708
   62CHL1    C6 5703   6.143   1.321   3.632  0.8702 -0.9924 -0.5177
   62CHL1    H6 5704   6.049   1.282   3.591 -0.1885  0.8216  0.0857
   62CHL1    C7 5705   6.161   1.282   3.778  0.3868 -0.1374  0.3349
   62CHL1   H7A 5706   6.065   1.299   3.830 -1.6861 -1.7497 -2.7041
   62CHL1   H7B 5707   6.177   1.173   3.796 -1.6261 -0.5122 -0.0014
   62CHL1    C8 5708   6.276   1.368   3.841  0.7778  0.2882  0.7477
   62CHL1    H8 5709   6.240   1.471   3.862 -0.2113 -0.0634  0.7975
   62CHL1   C14 5710   6.312   1.298   3.975 -0.0676 -0.4837  0.0174
   62CHL1   H14 5711   6.340   1.195   3.948 -0.0437 -0.5614  0.3343
   62CHL1   C15 5712   6.197   1.287   4.084 -0.1226 -0.4960  0.4857
   62CHL1  H15A 5713   6.138   1.381   4.074 -1.4945 -1.5465 -2.4083
   62CHL1  H15B 5714   6.126   1.204   4.061 -0.9235 -0.1246  1.5239
   62CHL1   C16 5715   6.277   1.271   4.219  0.2041  0.0221 -0.6289
   62CHL1  H16A 5716   6.250   1.363   4.275 -1.3773 -1.7524  1.6701
   62CHL1  H16B 5717   6.240   1.181   4.273 -0.1495 -0.4930 -1.6921
   62CHL1   C17 5718   6.423   1.275   4.184 -0.3997 -0.4630 -0.2129
   62CHL1   H17 5719   6.458   1.173   4.158  1.8493 -0.4011  2.1678
   62CHL1   C13 5720   6.421   1.363   4.052 -0.0252 -0.1785 -0.0206
   62CHL1   C18 5721   6.387   1.510   4.090  0.0653 -0.4740  1.1964
   62CHL1  H18A 5722   6.479   1.559   4.128  1.1131 -2.7686  1.7528
   62CHL1  H18B 5723   6.343   1.576   4.012  0.9280 -0.6172  0.5851
   62CHL1  H18C 5724   6.313   1.518   4.173  0.2485  1.0683  1.2428
   62CHL1   C12 5725   6.553   1.342   3.959 -0.2115 -0.3989  0.0708
   62CHL1  H12A 5726   6.648   1.382   4.001 -1.3947  0.7989  1.7880
   62CHL1  H12B 5727   6.550   1.234   3.932 -0.1480 -0.0812 -1.2564
   62CHL1   C11 5728   6.529   1.421   3.825  0.5040  0.8557 -0.8972
   62CHL1  H11A 5729   6.529   1.530   3.843  0.5176  0.9277 -1.3265
   62CHL1  H11B 5730   6.611   1.405   3.751 -0.3223 -0.8364 -1.4944
   62CHL1    C9 5731   6.398   1.372   3.757  0.4771  0.7139  0.4957
   62CHL1    H9 5732   6.423   1.266   3.736  1.1171  0.7340  1.1312
   62CHL1   C10 5733   6.364   1.438   3.617  0.3673  0.7102 -0.0830
   62CHL1   C19 5734   6.370   1.595   3.637 -0.0961 -0.7241  0.3555
   62CHL1  H19A 5735   6.339   1.640   3.540  1.6341  0.7472  0.4278
   62CHL1  H19B 5736   6.295   1.628   3.711 -2.0829 -0.8666 -1.5087
   62CHL1  H19C 5737   6.469   1.636   3.668 -1.3453  0.5203  2.9472
   62CHL1    C1 5738   6.472   1.399   3.511  0.2043  0.0490 -0.3644
   62CHL1   H1A 5739   6.569   1.449   3.536  0.2136 -0.6292  1.0891
   62CHL1   H1B 5740   6.497   1.291   3.516 -0.9777 -0.1949  2.2135
   62CHL1    C2 5741   6.438   1.429   3.367  0.5093 -0.5072  0.2977
   62CHL1   H2A 5742   6.518   1.377   3.310  1.0395 -1.7119  2.0790
   62CHL1   H2B 5743   6.432   1.537   3.343  2.4270 -1.0758 -3.3754
   62CHL1   C20 5744   6.529   1.317   4.294 -0.9086  0.0564  0.0370
   62CHL1   H20 5745   6.526   1.427   4.306 -1.5572 -0.0026  0.4645
   62CHL1   C21 5746   6.677   1.276   4.262  0.1763  0.3848  0.3482
   62CHL1  H21A 5747   6.685   1.168   4.237 -1.9110  0.3879 -0.5688
   62CHL1  H21B 5748   6.742   1.301   4.348  0.6079  1.4719 -0.2617
   62CHL1  H21C 5749   6.713   1.329   4.171  0.2553 -3.1928 -1.8929
   62CHL1   C22 5750   6.495   1.274   4.443 -0.5321  0.6738 -0.4396
   62CHL1  H22A 5751   6.560   1.326   4.516  2.2661 -0.8003 -1.7312
   62CHL1  H22B 5752   6.394   1.315   4.466  0.2094  1.6342  1.1873
   62CHL1   C23 5753   6.512   1.117   4.471  0.3769 -1.0696 -1.1067
   62CHL1  H23A 5754   6.432   1.077   4.406 -0.9336 -0.5090  0.0880
   62CHL1  H23B 5755   6.611   1.075   4.445  0.8087 -1.3358  0.8296
   62CHL1   C24 5756   6.455   1.073   4.610 -0.8775  0.2265  0.4037
   62CHL1  H24A 5757   6.352   1.113   4.618 -0.6256  1.2498 -1.1279
   62CHL1  H24B 5758   6.441   0.963   4.617 -4.6404  0.5345  0.0730
   62CHL1   C25 5759   6.539   1.134   4.725  0.3769  0.1437 -0.9181
   62CHL1   H25 5760   6.539   1.244   4.713 -0.0011 -0.0385 -2.9344
   62CHL1   C26 5761   6.471   1.087   4.853 -0.5224 -0.7596  0.7096
   62CHL1  H26A 5762   6.525   1.132   4.939  0.1268 -0.3187  0.0778
   62CHL1  H26B 5763   6.366   1.126   4.849  0.2045  1.2388 -1.7572
   62CHL1  H26C 5764   6.467   0.977   4.869 -1.5541 -0.4099  3.6547
   62CHL1   C27 5765   6.683   1.085   4.723  0.1021  0.3877 -0.9008
   62CHL1  H27A 5766   6.734   1.117   4.816 -0.7229 -0.3382 -0.1821
   62CHL1  H27B 5767   6.662   0.976   4.715 -1.3028  0.6291 -0.7158
   62CHL1  H27C 5768   6.744   1.118   4.636 -0.8715  4.8012 -0.1567
   63CHL1    C3 5769   2.397   3.313   3.265 -0.1587  0.2581  0.1711
   63CHL1    H3 5770   2.379   3.419   3.293  1.2471  0.1206  1.7761
   63CHL1    O3 5771   2.338   3.276   3.143  0.5057 -0.1075  0.1425
   63CHL1   H3' 5772   2.265   3.337   3.132  0.6989 -0.0290 -0.7710
   63CHL1    C4 5773   2.545   3.280   3.260 -0.8073 -0.3267  0.5366
   63CHL1   H4A 5774   2.563   3.174   3.232 -0.0155 -0.3732  1.1668
   63CHL1   H4B 5775   2.590   3.342   3.179 -0.3363  1.1210  1.8419
   63CHL1    C5 5776   2.620   3.301   3.388  1.2312  0.0668  0.2711
   63CHL1    C6 5777   2.719   3.385   3.407  0.0692  0.4688  0.2995
   63CHL1    H6 5778   2.752   3.447   3.322 -1.5463  1.6751  0.5088
   63CHL1    C7 5779   2.804   3.401   3.531 -0.5628 -0.3953  0.6819
   63CHL1   H7A 5780   2.911   3.400   3.504 -0.8263 -0.5763 -0.3985
   63CHL1   H7B 5781   2.769   3.502   3.562  1.3695 -0.0110  1.7522
   63CHL1    C8 5782   2.759   3.305   3.643 -0.4598  0.2031 -0.1784
   63CHL1    H8 5783   2.814   3.210   3.626  0.3237  0.5794  0.2118
   63CHL1   C14 5784   2.790   3.375   3.775  0.1951  0.4060 -0.1563
   63CHL1   H14 5785   2.729   3.468   3.781 -0.7971 -0.2318  0.0135
   63CHL1   C15 5786   2.930   3.428   3.803  0.5989  0.5361 -0.2950
   63CHL1  H15A 5787   3.000   3.352   3.763  0.5987  0.6828 -0.5731
   63CHL1  H15B 5788   2.946   3.519   3.741 -0.7957  1.1322  0.1705
   63CHL1   C16 5789   2.933   3.442   3.952 -0.6116  0.8478 -0.5842
   63CHL1  H16A 5790   3.028   3.404   3.996 -1.1464 -1.0566 -0.9971
   63CHL1  H16B 5791   2.924   3.546   3.992  0.7394  0.6633  0.2908
   63CHL1   C17 5792   2.798   3.382   4.013 -0.2592 -0.4030  0.1184
   63CHL1   H17 5793   2.721   3.462   4.011 -0.6239 -0.7454 -1.6472
   63CHL1   C13 5794   2.756   3.290   3.899 -0.0508  0.0083  0.2572
   63CHL1   C18 5795   2.846   3.167   3.891  0.4975  0.2002 -0.2882
   63CHL1  H18A 5796   2.814   3.097   3.971 -4.9309 -0.7708 -2.8418
   63CHL1  H18B 5797   2.844   3.106   3.798  2.7063  0.4246 -0.5360
   63CHL1  H18C 5798   2.953   3.196   3.902  1.2530 -2.4406  0.0913
   63CHL1   C12 5799   2.607   3.250   3.904 -0.1545  0.0230 -0.2181
   63CHL1  H12A 5800   2.584   3.171   3.980  1.1543  0.6185  0.8373
   63CHL1  H12B 5801   2.550   3.344   3.920  0.8598  0.5203  0.6531
   63CHL1   C11 5802   2.563   3.196   3.774 -0.0941  0.2630  0.1919
   63CHL1  H11A 5803   2.606   3.094   3.766 -0.7760  0.0497 -1.0577
   63CHL1  H11B 5804   2.452   3.192   3.767 -0.0342 -0.2072 -0.7015
   63CHL1    C9 5805   2.606   3.278   3.653 -0.6122 -0.7642 -0.1442
   63CHL1    H9 5806   2.550   3.373   3.667 -0.5794 -0.3336 -2.4322
   63CHL1   C10 5807   2.554   3.226   3.515  0.1272 -0.5871 -0.1758
   63CHL1   C19 5808   2.591   3.082   3.498  0.5697 -0.1917 -0.2955
   63CHL1  H19A 5809   2.551   3.036   3.405  0.9065  1.1998 -1.1619
   63CHL1  H19B 5810   2.701   3.067   3.502  0.7110  0.3971 -1.4878
   63CHL1  H19C 5811   2.529   3.025   3.570 -0.5250  1.3422  0.0044
   63CHL1    C1 5812   2.403   3.252   3.513 -0.4043 -0.2836 -0.2028
   63CHL1   H1A 5813   2.351   3.192   3.590 -1.5276  0.4778 -0.3515
   63CHL1   H1B 5814   2.389   3.360   3.535 -0.4668 -0.8968  3.2444
   63CHL1    C2 5815   2.330   3.226   3.375 -0.1872 -0.4674 -0.5597
   63CHL1   H2A 5816   2.226   3.263   3.391 -0.9327 -1.1696 -3.2952
   63CHL1   H2B 5817   2.325   3.118   3.350  2.1717 -0.6346 -0.5347
   63CHL1   C20 5818   2.822   3.321   4.157 -0.9753  0.0808  0.4565
   63CHL1   H20 5819   2.868   3.219   4.154  1.7424  1.2340 -0.4136
   63CHL1   C21 5820   2.689   3.311   4.229  1.0120  0.0114  0.0042
   63CHL1  H21A 5821   2.611   3.380   4.191 -3.4411 -3.9650  0.9384
   63CHL1  H21B 5822   2.713   3.347   4.332  1.5099 -0.7030  0.1451
   63CHL1  H21C 5823   2.649   3.208   4.241 -0.6235  0.7959  2.1809
   63CHL1   C22 5824   2.921   3.411   4.244 -0.1963  0.4132 -0.2103
   63CHL1  H22A 5825   3.018   3.442   4.199  0.4642  0.1855  1.0315
   63CHL1  H22B 5826   2.865   3.506   4.259  0.9026  1.0979 -0.3460
   63CHL1   C23 5827   2.977   3.339   4.369  0.6933  0.6395  0.6351
   63CHL1  H23A 5828   2.896   3.311   4.441 -1.0225  2.0156 -0.6620
   63CHL1  H23B 5829   3.041   3.251   4.347 -1.6290 -1.0089  0.0153
   63CHL1   C24 5830   3.074   3.431   4.437  0.4430 -0.1535 -0.8988
   63CHL1  H24A 5831   3.146   3.469   4.362 -1.2926  1.8118 -1.6735
   63CHL1  H24B 5832   3.022   3.525   4.464  1.2438  0.0330  0.0408
   63CHL1   C25 5833   3.144   3.364   4.556 -0.4576  0.1110 -0.1762
   63CHL1   H25 5834   3.073   3.297   4.610 -0.6672 -0.5358 -1.2272
   63CHL1   C26 5835   3.269   3.287   4.508 -0.6241 -0.0260 -1.0987
   63CHL1  H26A 5836   3.336   3.360   4.459  3.0095 -2.4080 -0.0984
   63CHL1  H26B 5837   3.330   3.242   4.590 -1.2959  0.0122 -0.5725
   63CHL1  H26C 5838   3.240   3.202   4.442 -2.3153 -0.3815  0.0335
   63CHL1   C27 5839   3.185   3.466   4.664 -0.9170  0.7543 -0.6831
   63CHL1  H27A 5840   3.105   3.535   4.697 -0.5983  0.1794  1.4123
   63CHL1  H27B 5841   3.221   3.407   4.751  1.4456 -0.4465 -2.3636
   63CHL1  H27C 5842   3.273   3.527   4.636 -1.3453  1.3790 -0.6893
   64CHL1    C3 5843   0.005   2.802   2.987 -0.0312  0.3337  0.2212
   64CHL1    H3 5844   0.009   2.691   2.992 -0.0380  0.3842  2.1371
   64CHL1    O3 5845   0.008   2.838   2.848 -0.1874  0.7647  0.2782
   64CHL1   H3' 5846  -0.012   2.756   2.803  1.3895  0.5711 -0.1355
   64CHL1    C4 5847  -0.126   2.856   3.054  0.2551 -1.2173 -0.4517
   64CHL1   H4A 5848  -0.142   2.962   3.025 -0.4230 -1.6381 -1.7021
   64CHL1   H4B 5849  -0.211   2.799   3.011 -0.7203  0.1345 -0.3757
   64CHL1    C5 5850  -0.137   2.855   3.202 -0.4151 -0.3661 -0.2997
   64CHL1    C6 5851  -0.236   2.784   3.266 -0.1589 -0.4995 -0.2831
   64CHL1    H6 5852  -0.308   2.724   3.209  1.9863 -1.0412 -2.6239
   64CHL1    C7 5853  -0.250   2.780   3.416 -0.1684 -0.3425  0.2485
   64CHL1   H7A 5854  -0.353   2.794   3.455 -0.6089 -1.5094 -0.4565
   64CHL1   H7B 5855  -0.212   2.679   3.441 -0.9051 -0.3216  1.5606
   64CHL1    C8 5856  -0.155   2.880   3.493 -0.2782 -0.6606 -0.0842
   64CHL1    H8 5857  -0.201   2.981   3.484  0.9556  0.2512  2.8841
   64CHL1   C14 5858  -0.149   2.838   3.642 -0.6953 -0.3067 -0.0932
   64CHL1   H14 5859  -0.095   2.741   3.641 -0.1912 -0.0363  0.1754
   64CHL1   C15 5860  -0.282   2.820   3.709 -0.1199 -0.0478  0.2945
   64CHL1  H15A 5861  -0.347   2.910   3.696  0.7397  0.6646  0.7945
   64CHL1  H15B 5862  -0.331   2.723   3.685 -3.8402  1.7799 -0.3381
   64CHL1   C16 5863  -0.245   2.832   3.858  0.4150  0.2955 -0.1620
   64CHL1  H16A 5864  -0.307   2.902   3.918  0.6309  0.7000 -0.4095
   64CHL1  H16B 5865  -0.258   2.727   3.894  1.1867 -0.7465 -2.7143
   64CHL1   C17 5866  -0.095   2.875   3.864  0.1540  0.2545  0.9402
   64CHL1   H17 5867  -0.040   2.779   3.868  1.0112  0.7533  1.5395
   64CHL1   C13 5868  -0.066   2.929   3.723  0.1018  0.0676  0.1048
   64CHL1   C18 5869  -0.117   3.070   3.718 -0.5747 -0.4179 -0.3406
   64CHL1  H18A 5870  -0.033   3.130   3.760 -0.8651 -0.8995  0.9744
   64CHL1  H18B 5871  -0.137   3.121   3.622  2.6650  0.9486 -0.4207
   64CHL1  H18C 5872  -0.210   3.082   3.778 -1.7447 -0.3172 -2.1145
   64CHL1   C12 5873   0.084   2.923   3.680 -0.3176 -0.3753  1.0754
   64CHL1  H12A 5874   0.152   2.996   3.729  0.2637  1.3651 -2.0294
   64CHL1  H12B 5875   0.126   2.823   3.703  1.1706  0.1803  0.8511
   64CHL1   C11 5876   0.093   2.956   3.523 -0.1225 -0.0624 -0.4304
   64CHL1  H11A 5877   0.070   3.064   3.518  0.9746  0.2632  1.0041
   64CHL1  H11B 5878   0.197   2.936   3.489 -0.3665 -0.3921 -0.9888
   64CHL1    C9 5879  -0.017   2.878   3.434 -1.2789 -0.1910  0.0202
   64CHL1    H9 5880   0.026   2.776   3.440  0.8684  0.6878  0.8114
   64CHL1   C10 5881  -0.017   2.913   3.281  0.1249  0.1055 -0.4499
   64CHL1   C19 5882  -0.022   3.064   3.260 -0.4970 -0.5309 -0.5312
   64CHL1  H19A 5883  -0.026   3.103   3.156 -0.1166  0.0191 -0.3481
   64CHL1  H19B 5884  -0.113   3.101   3.311 -1.9583 -3.1784 -1.0345
   64CHL1  H19C 5885   0.060   3.114   3.316  0.6343 -1.9303 -0.8720
   64CHL1    C1 5886   0.110   2.847   3.214 -0.4107  0.0577  0.1314
   64CHL1   H1A 5887   0.198   2.886   3.270 -1.1626  2.1125 -0.0425
   64CHL1   H1B 5888   0.112   2.738   3.239 -1.4466  0.3327  1.5668
   64CHL1    C2 5889   0.124   2.869   3.062 -0.1371 -0.1152  0.3464
   64CHL1   H2A 5890   0.216   2.817   3.029  1.1812  1.1233  1.8746
   64CHL1   H2B 5891   0.132   2.980   3.051 -1.9558  0.5062  3.7391
   64CHL1   C20 5892  -0.048   2.963   3.985  0.2984 -0.1311  0.1550
   64CHL1   H20 5893  -0.081   3.067   3.964 -0.7702 -0.9627 -2.8057
   64CHL1   C21 5894   0.104   2.948   4.005  0.7035  0.0698  0.4601
   64CHL1  H21A 5895   0.139   2.982   4.105  0.1721 -2.4057  1.5621
   64CHL1  H21B 5896   0.161   2.997   3.924  0.9846  2.9607  2.2175
   64CHL1  H21C 5897   0.133   2.841   4.010  1.5931  0.3146  0.5466
   64CHL1   C22 5898  -0.116   2.920   4.114 -0.2748 -0.2831 -0.4164
   64CHL1  H22A 5899  -0.081   2.985   4.197 -1.3860 -1.6055  1.1283
   64CHL1  H22B 5900  -0.226   2.939   4.112 -0.1890  0.8711  2.1864
   64CHL1   C23 5901  -0.103   2.771   4.152  0.2694  0.7277 -0.4206
   64CHL1  H23A 5902  -0.160   2.709   4.079  0.2774  0.7886 -0.4787
   64CHL1  H23B 5903   0.005   2.745   4.156  0.4116  1.4912  1.1756
   64CHL1   C24 5904  -0.168   2.747   4.286 -0.2444 -0.4876 -0.6877
   64CHL1  H24A 5905  -0.103   2.779   4.369 -2.1332  0.7897  0.3606
   64CHL1  H24B 5906  -0.266   2.798   4.291 -0.1212 -0.2462 -0.7402
   64CHL1   C25 5907  -0.188   2.600   4.328  0.0144 -0.4514 -0.5963
   64CHL1   H25 5908  -0.266   2.566   4.256 -1.8249  0.1564  1.0023
   64CHL1   C26 5909  -0.064   2.510   4.315  0.4386 -0.5566 -0.7656
   64CHL1  H26A 5910  -0.019   2.519   4.214 -1.6247  1.4309 -1.5963
   64CHL1  H26B 5911   0.014   2.551   4.382  0.9550 -0.3876 -1.4557
   64CHL1  H26C 5912  -0.077   2.402   4.339 -1.9051 -0.2940 -0.6062
   64CHL1   C27 5913  -0.243   2.587   4.472  0.3478 -0.0091  0.0831
   64CHL1  H27A 5914  -0.249   2.476   4.479  2.6804 -0.1199  0.9280
   64CHL1  H27B 5915  -0.182   2.621   4.558 -0.4780 -0.2965  0.8050
   64CHL1  H27C 5916  -0.343   2.635   4.472 -1.4731 -3.1459 -3.6225
   65CHL1    C3 5917   0.198   1.410   3.005 -0.2977 -0.1341  0.2127
   65CHL1    H3 5918   0.215   1.303   2.982 -2.4183 -0.8400  1.6365
   65CHL1    O3 5919   0.200   1.473   2.879  0.0059  0.4647  0.0683
   65CHL1   H3' 5920   0.130   1.439   2.823 -2.3306  0.6263  2.6855
   65CHL1    C4 5921   0.060   1.429   3.072  0.3471  0.2237 -0.4793
   65CHL1   H4A 5922   0.033   1.537   3.078 -1.3768 -0.2586  1.4389
   65CHL1   H4B 5923  -0.022   1.396   3.005  0.0439  1.9271 -0.9961
   65CHL1    C5 5924   0.059   1.369   3.211 -0.5593  0.5114  0.1231
   65CHL1    C6 5925  -0.045   1.284   3.245  0.0797 -0.1707 -0.2535
   65CHL1    H6 5926  -0.125   1.262   3.173 -0.0028 -1.3177  0.1650
   65CHL1    C7 5927  -0.050   1.234   3.386  0.4523  0.3328  0.3069
   65CHL1   H7A 5928  -0.156   1.234   3.420  0.7092 -1.0990  1.2049
   65CHL1   H7B 5929  -0.017   1.128   3.382  0.7345  0.4084  0.6035
   65CHL1    C8 5930   0.032   1.308   3.493 -0.0441  0.0643  1.1279
   65CHL1    H8 5931  -0.015   1.404   3.524  0.7886  1.3667 -1.3700
   65CHL1   C14 5932   0.054   1.230   3.622 -0.6744  0.5674 -0.4626
   65CHL1   H14 5933   0.119   1.142   3.602 -1.1602 -0.4591  2.0477
   65CHL1   C15 5934  -0.074   1.168   3.681  0.6106 -0.1260  0.2254
   65CHL1  H15A 5935  -0.158   1.235   3.656 -0.1340 -1.3120 -0.5669
   65CHL1  H15B 5936  -0.102   1.072   3.633  3.2059 -1.3684  1.0098
   65CHL1   C16 5937  -0.034   1.146   3.829 -0.6976  0.5949  0.2338
   65CHL1  H16A 5938  -0.100   1.205   3.895 -1.9811 -1.8895  1.3238
   65CHL1  H16B 5939  -0.049   1.041   3.863 -0.5875  0.4065 -0.2819
   65CHL1   C17 5940   0.119   1.185   3.843 -0.2249  0.5362  0.2900
   65CHL1   H17 5941   0.189   1.102   3.817 -0.8620 -0.6688  2.1927
   65CHL1   C13 5942   0.136   1.294   3.741  0.5639 -0.2349 -0.7357
   65CHL1   C18 5943   0.068   1.416   3.790 -0.1812 -0.1834  0.1095
   65CHL1  H18A 5944   0.126   1.473   3.866 -2.3724  0.6071  1.2635
   65CHL1  H18B 5945   0.033   1.488   3.713 -0.8163 -0.6492 -0.0430
   65CHL1  H18C 5946  -0.032   1.392   3.832 -0.8528  3.2805  0.8522
   65CHL1   C12 5947   0.274   1.324   3.681  0.1783 -0.0972 -0.0736
   65CHL1  H12A 5948   0.335   1.393   3.744  1.0411  0.0015 -1.0010
   65CHL1  H12B 5949   0.326   1.226   3.672 -0.9774 -0.8397  0.9658
   65CHL1   C11 5950   0.276   1.385   3.539  0.0522  0.2041 -0.3541
   65CHL1  H11A 5951   0.260   1.491   3.565 -2.2841  0.1323 -1.2747
   65CHL1  H11B 5952   0.377   1.361   3.499 -0.8847 -1.9412 -1.6315
   65CHL1    C9 5953   0.170   1.336   3.441  0.4309  1.1266  0.3692
   65CHL1    H9 5954   0.196   1.229   3.419 -1.4394  0.2776  2.0370
   65CHL1   C10 5955   0.172   1.418   3.298 -0.9523  0.0273 -0.6497
   65CHL1   C19 5956   0.148   1.569   3.330 -0.1849  0.4170  0.3416
   65CHL1  H19A 5957   0.173   1.633   3.243  1.5806  0.8992  1.1531
   65CHL1  H19B 5958   0.045   1.589   3.365 -0.0106  2.4245 -0.1591
   65CHL1  H19C 5959   0.220   1.598   3.410 -0.1130  1.0491  0.0576
   65CHL1    C1 5960   0.308   1.399   3.235 -0.5535 -0.0032  0.3045
   65CHL1   H1A 5961   0.377   1.446   3.309 -2.4121  2.0965  0.8151
   65CHL1   H1B 5962   0.324   1.290   3.229 -0.6734 -0.1336  1.9338
   65CHL1    C2 5963   0.316   1.464   3.094 -0.4869 -0.1497  0.4896
   65CHL1   H2A 5964   0.408   1.438   3.038 -0.5917  0.3538  0.0738
   65CHL1   H2B 5965   0.304   1.575   3.092  0.1281 -0.0301  1.9206
   65CHL1   C20 5966   0.145   1.215   3.995 -0.7212  0.0857  0.7854
   65CHL1   H20 5967   0.062   1.283   4.023 -0.4568 -0.1698  2.2885
   65CHL1   C21 5968   0.281   1.291   4.022  0.5257  0.8525 -0.5919
   65CHL1  H21A 5969   0.370   1.243   3.976 -0.2098 -0.5632 -0.5943
   65CHL1  H21B 5970   0.297   1.304   4.132 -0.5599  0.1501 -0.3371
   65CHL1  H21C 5971   0.264   1.391   3.978 -2.9076  0.0371 -1.4628
   65CHL1   C22 5972   0.129   1.096   4.085 -0.6386  1.0986 -0.1453
   65CHL1  H22A 5973   0.043   1.030   4.061 -0.0132 -0.4429  1.5762
   65CHL1  H22B 5974   0.215   1.032   4.056 -0.0665  1.4398  0.7243
   65CHL1   C23 5975   0.122   1.129   4.239 -0.2729  0.5507 -0.5694
   65CHL1  H23A 5976   0.211   1.187   4.271 -0.6771  1.1732 -0.5737
   65CHL1  H23B 5977   0.035   1.195   4.256 -1.8252 -1.3548 -0.6857
   65CHL1   C24 5978   0.098   1.000   4.326 -0.5120 -0.4604 -0.2095
   65CHL1  H24A 5979   0.027   0.921   4.292  1.4750 -2.3780 -0.1051
   65CHL1  H24B 5980   0.201   0.959   4.325 -0.4481 -0.2848 -1.7454
   65CHL1   C25 5981   0.065   1.043   4.471  0.8016  0.3585 -0.1534
   65CHL1   H25 5982  -0.030   1.099   4.466  0.1744 -0.6654 -0.0609
   65CHL1   C26 5983   0.038   0.923   4.566  0.2074  0.7751  0.2388
   65CHL1  H26A 5984   0.124   0.853   4.556 -0.8821 -0.2883 -3.0664
   65CHL1  H26B 5985   0.028   0.958   4.671  1.3930  2.8254 -0.2708
   65CHL1  H26C 5986  -0.054   0.872   4.532  0.3237 -0.8861  2.2081
   65CHL1   C27 5987   0.175   1.130   4.530  0.3239  0.4921  0.4591
   65CHL1  H27A 5988   0.179   1.234   4.489 -0.1868 -0.3924 -2.0251
   65CHL1  H27B 5989   0.149   1.142   4.637 -1.2389  1.1044  0.0375
   65CHL1  H27C 5990   0.272   1.079   4.515 -1.0729 -2.4023  0.5334
   66CHL1    C3 5991   4.043   2.716   2.861  0.0022  0.3476  0.1269
   66CHL1    H3 5992   4.001   2.796   2.924  2.1720  1.2279  0.5444
   66CHL1    O3 5993   3.983   2.716   2.733 -0.6150 -0.6622 -0.3070
   66CHL1   H3' 5994   4.033   2.643   2.696 -0.5542 -0.8876  0.2194
   66CHL1    C4 5995   4.194   2.760   2.854  0.3504  0.8742 -0.6980
   66CHL1   H4A 5996   4.240   2.695   2.776 -3.5758 -2.3642 -0.6390
   66CHL1   H4B 5997   4.197   2.862   2.810  0.1611  2.1255  1.9838
   66CHL1    C5 5998   4.271   2.754   2.985  0.2827  0.1271  0.3235
   66CHL1    C6 5999   4.333   2.857   3.039 -0.0231 -0.2263  1.0137
   66CHL1    H6 6000   4.329   2.957   2.994 -4.0671 -0.5091  0.4017
   66CHL1    C7 6001   4.413   2.838   3.172  0.6786 -0.1285 -0.4983
   66CHL1   H7A 6002   4.512   2.890   3.176  1.1029 -0.7368 -2.2779
   66CHL1   H7B 6003   4.350   2.876   3.254  2.4325 -2.8426  2.3215
   66CHL1    C8 6004   4.443   2.682   3.203  0.0231  0.1040  0.3767
   66CHL1    H8 6005   4.526   2.645   3.140  1.6209  0.7084  2.0472
   66CHL1   C14 6006   4.491   2.675   3.348 -0.0990  0.0148 -1.0647
   66CHL1   H14 6007   4.398   2.697   3.406 -0.8321 -1.5676 -1.5585
   66CHL1   C15 6008   4.608   2.765   3.397 -0.0201  0.3843  0.2239
   66CHL1  H15A 6009   4.692   2.751   3.327 -0.6922 -0.5535 -0.4253
   66CHL1  H15B 6010   4.586   2.874   3.401 -1.0630  0.1700  2.1118
   66CHL1   C16 6011   4.641   2.707   3.532 -0.1794 -0.1296 -0.2612
   66CHL1  H16A 6012   4.750   2.705   3.553 -0.1709 -2.1991 -0.3002
   66CHL1  H16B 6013   4.604   2.777   3.610 -0.2740  0.6361 -0.9816
   66CHL1   C17 6014   4.566   2.568   3.547 -0.5486  0.2847 -0.4483
   66CHL1   H17 6015   4.473   2.595   3.602 -0.3411 -0.0288  0.0643
   66CHL1   C13 6016   4.526   2.533   3.404  0.1698 -0.4649 -0.0101
   66CHL1   C18 6017   4.643   2.482   3.324 -0.1238  0.6947  0.2422
   66CHL1  H18A 6018   4.627   2.484   3.214 -0.7175  1.1059  0.3283
   66CHL1  H18B 6019   4.737   2.538   3.339  2.0172 -2.6115  0.2506
   66CHL1  H18C 6020   4.678   2.381   3.353 -0.6758  0.4262 -0.0057
   66CHL1   C12 6021   4.399   2.447   3.389 -0.2137 -0.8054 -0.6823
   66CHL1  H12A 6022   4.426   2.344   3.421  0.7530 -1.3150 -2.9165
   66CHL1  H12B 6023   4.320   2.494   3.450 -0.6813  1.4046 -2.8085
   66CHL1   C11 6024   4.351   2.458   3.241 -0.4246  1.0290 -0.4560
   66CHL1  H11A 6025   4.424   2.410   3.173 -0.9150 -0.1200 -0.1968
   66CHL1  H11B 6026   4.254   2.403   3.243  1.2011 -2.0788 -0.4641
   66CHL1    C9 6027   4.321   2.601   3.188  0.8993 -0.5919  0.1270
   66CHL1    H9 6028   4.240   2.638   3.254  0.2764 -1.5038 -0.1015
   66CHL1   C10 6029   4.262   2.617   3.047 -0.3402  0.3606  0.9425
   66CHL1   C19 6030   4.339   2.511   2.957 -0.1422  0.0046  0.5335
   66CHL1  H19A 6031   4.448   2.529   2.973  0.2409 -0.1857 -1.6129
   66CHL1  H19B 6032   4.313   2.407   2.988  1.2675  0.0412  2.0264
   66CHL1  H19C 6033   4.323   2.530   2.849  0.0426  2.6629  0.9123
   66CHL1    C1 6034   4.111   2.580   3.059 -0.1529  0.0053 -0.3003
   66CHL1   H1A 6035   4.102   2.478   3.100 -1.0837 -1.1667 -3.1484
   66CHL1   H1B 6036   4.054   2.655   3.118 -1.4545 -0.0071 -1.4751
   66CHL1    C2 6037   4.032   2.581   2.931  0.2784  1.4362  0.2020
   66CHL1   H2A 6038   3.933   2.535   2.951  0.3148  0.8836 -0.8324
   66CHL1   H2B 6039   4.071   2.504   2.860  1.6524  0.1772  2.2168
   66CHL1   C20 6040   4.641   2.467   3.637  0.5204 -0.3239 -0.4029
   66CHL1   H20 6041   4.728   2.433   3.576 -0.5053 -0.8934 -1.6000
   66CHL1   C21 6042   4.547   2.346   3.675 -0.1380 -0.7311  0.8278
   66CHL1  H21A 6043   4.537   2.283   3.584  2.1964  2.3795 -1.8428
   66CHL1  H21B 6044   4.446   2.378   3.709 -0.0994 -0.5757  0.7972
   66CHL1  H21C 6045   4.599   2.282   3.748 -0.2321 -1.9550 -0.1468
   66CHL1   C22 6046   4.690   2.524   3.774  0.7494  0.3573 -0.5440
   66CHL1  H22A 6047   4.741   2.444   3.831 -0.9166  0.0280  0.5648
   66CHL1  H22B 6048   4.761   2.605   3.747  0.3425  1.0382  0.3841
   66CHL1   C23 6049   4.574   2.584   3.855 -0.5588  0.5297 -0.7417
   66CHL1  H23A 6050   4.527   2.663   3.794  0.5406 -0.6636 -3.2494
   66CHL1  H23B 6051   4.491   2.513   3.877  0.1520 -0.5516 -1.4331
   66CHL1   C24 6052   4.632   2.646   3.980  1.3072 -0.9502  0.3930
   66CHL1  H24A 6053   4.675   2.565   4.043  4.2787  1.5952  1.9288
   66CHL1  H24B 6054   4.716   2.717   3.960 -0.4304  0.5958 -2.0526
   66CHL1   C25 6055   4.533   2.731   4.065  0.8043  0.2281 -0.2581
   66CHL1   H25 6056   4.434   2.681   4.055  0.5992  0.7966 -1.2258
   66CHL1   C26 6057   4.568   2.719   4.214 -0.3335  0.1491 -0.1602
   66CHL1  H26A 6058   4.495   2.766   4.283 -1.4195  1.9712 -2.4228
   66CHL1  H26B 6059   4.582   2.615   4.249 -0.8040  0.2237  0.2650
   66CHL1  H26C 6060   4.657   2.783   4.235 -1.0902  0.3333  3.1542
   66CHL1   C27 6061   4.515   2.874   4.008 -0.2107 -0.0908 -0.9025
   66CHL1  H27A 6062   4.615   2.921   3.998  0.2466 -0.8452 -0.0814
   66CHL1  H27B 6063   4.465   2.942   4.080 -0.4970  0.1795 -1.3581
   66CHL1  H27C 6064   4.467   2.873   3.908 -3.3812  1.2201  0.5026
   67CHL1    C3 6065   2.121   5.887   3.153 -0.1744 -0.4801  0.2067
   67CHL1    H3 6066   2.193   5.969   3.135  1.2883 -1.3377  1.8603
   67CHL1    O3 6067   2.101   5.822   3.028 -0.2432 -0.1871  0.2528
   67CHL1   H3' 6068   2.078   5.733   3.054 -0.0465 -0.3097  0.0106
   67CHL1    C4 6069   2.188   5.787   3.252  1.0552  0.0758 -0.3340
   67CHL1   H4A 6070   2.129   5.693   3.260  0.4874  0.5530  1.6648
   67CHL1   H4B 6071   2.290   5.760   3.216  1.0841 -1.9715  1.0992
   67CHL1    C5 6072   2.211   5.843   3.390  0.5764 -0.1267 -0.4143
   67CHL1    C6 6073   2.331   5.855   3.445 -0.9761  0.8694 -0.4489
   67CHL1    H6 6074   2.420   5.811   3.397  0.8756  2.1727  1.5461
   67CHL1    C7 6075   2.353   5.917   3.581 -0.0920  0.9333  0.3754
   67CHL1   H7A 6076   2.431   5.864   3.640 -1.9031 -0.9898  1.1910
   67CHL1   H7B 6077   2.402   6.015   3.568  0.3770  0.9181  1.8652
   67CHL1    C8 6078   2.224   5.918   3.667 -0.2654 -0.0748 -0.4584
   67CHL1    H8 6079   2.209   5.810   3.690  0.8789 -0.1886 -0.1919
   67CHL1   C14 6080   2.247   6.002   3.787  0.1723 -0.4100  0.0563
   67CHL1   H14 6081   2.278   6.104   3.756  0.8057 -0.7766 -0.5528
   67CHL1   C15 6082   2.357   5.950   3.880 -0.0433 -0.5868 -0.0495
   67CHL1  H15A 6083   2.354   5.842   3.908  3.4939 -0.1110  3.0551
   67CHL1  H15B 6084   2.460   5.966   3.843 -0.7979  0.9194 -1.6254
   67CHL1   C16 6085   2.328   6.034   4.006  0.7418  0.3181 -0.5635
   67CHL1  H16A 6086   2.347   5.971   4.096  2.1195  1.5038  0.0195
   67CHL1  H16B 6087   2.399   6.117   4.026 -1.0097  1.5527  0.9291
   67CHL1   C17 6088   2.188   6.091   3.998  0.6169 -0.1222  0.0767
   67CHL1   H17 6089   2.194   6.191   3.951 -1.6006 -0.9309 -2.1329
   67CHL1   C13 6090   2.128   6.016   3.881  0.0718  0.3886 -0.5906
   67CHL1   C18 6091   2.074   5.883   3.928 -0.2686  0.0452 -0.6760
   67CHL1  H18A 6092   1.997   5.896   4.008 -0.3234 -1.8288 -0.3732
   67CHL1  H18B 6093   2.041   5.809   3.852  1.8720 -1.9742  0.2492
   67CHL1  H18C 6094   2.157   5.830   3.979 -1.0769 -0.3752  0.2493
   67CHL1   C12 6095   2.014   6.084   3.806  0.3592  0.3087 -0.4830
   67CHL1  H12A 6096   1.927   6.073   3.875 -0.5292  0.3080 -1.5715
   67CHL1  H12B 6097   2.040   6.190   3.785  0.7729  0.5028  0.9330
   67CHL1   C11 6098   1.977   6.015   3.675  0.1232  0.5141  0.6173
   67CHL1  H11A 6099   1.926   5.918   3.695  1.3433 -0.4404 -0.6422
   67CHL1  H11B 6100   1.903   6.083   3.628  0.2424 -1.0171 -1.9172
   67CHL1    C9 6101   2.104   5.976   3.591  0.2120  0.5268 -0.0820
   67CHL1    H9 6102   2.151   6.074   3.568  1.8000  0.1170  1.2034
   67CHL1   C10 6103   2.079   5.899   3.460  0.1519  0.2595  0.7358
   67CHL1   C19 6104   1.995   5.773   3.482  0.6954  0.0943  0.1670
   67CHL1  H19A 6105   1.956   5.748   3.381  1.0083  1.5284 -0.3449
   67CHL1  H19B 6106   2.055   5.686   3.514  0.3450 -0.1779  0.0801
   67CHL1  H19C 6107   1.903   5.783   3.543 -0.9262  0.6887 -2.2328
   67CHL1    C1 6108   2.015   5.999   3.349 -0.4044  0.5831 -0.1324
   67CHL1   H1A 6109   1.916   6.038   3.380 -0.7298 -0.3911  0.0825
   67CHL1   H1B 6110   2.085   6.086   3.350  3.5853 -2.2626  3.1871
   67CHL1    C2 6111   1.992   5.942   3.209 -0.3212  0.8124 -0.2141
   67CHL1   H2A 6112   1.971   6.028   3.142  4.3770  3.1836  0.9600
   67CHL1   H2B 6113   1.909   5.868   3.212  2.2628 -2.2846  1.8069
   67CHL1   C20 6114   2.116   6.095   4.132  0.2260 -0.8224 -0.1072
   67CHL1   H20 6115   2.089   5.992   4.165  0.6150 -1.3243 -1.2859
   67CHL1   C21 6116   1.984   6.181   4.119 -0.5423 -0.4259  0.2572
   67CHL1  H21A 6117   1.996   6.257   4.039  0.6111 -1.5556 -0.6808
   67CHL1  H21B 6118   1.965   6.229   4.218  1.3216  1.5593 -0.2738
   67CHL1  H21C 6119   1.895   6.122   4.088  0.3526  0.0435 -3.6452
   67CHL1   C22 6120   2.203   6.161   4.242 -0.1315 -0.1077  0.0142
   67CHL1  H22A 6121   2.306   6.122   4.231 -1.0950 -2.7885 -0.1320
   67CHL1  H22B 6122   2.204   6.272   4.229  1.7437  0.0424  1.0555
   67CHL1   C23 6123   2.152   6.151   4.377  0.0372 -0.6978 -0.0948
   67CHL1  H23A 6124   2.058   6.206   4.397  0.5932 -0.0486  0.8143
   67CHL1  H23B 6125   2.133   6.044   4.400  0.8241 -0.7621  0.3194
   67CHL1   C24 6126   2.238   6.210   4.493 -0.6508 -0.0089  0.1776
   67CHL1  H24A 6127   2.333   6.153   4.484  0.1152  1.3192 -0.4522
   67CHL1  H24B 6128   2.252   6.320   4.486 -0.2085  0.0358  1.4125
   67CHL1   C25 6129   2.187   6.171   4.635  0.2280  0.0991 -0.1406
   67CHL1   H25 6130   2.175   6.062   4.652  2.6903 -0.4744 -1.6073
   67CHL1   C26 6131   2.300   6.216   4.738 -0.6088 -0.2185  0.8952
   67CHL1  H26A 6132   2.396   6.161   4.727 -0.6644 -0.3064  0.8447
   67CHL1  H26B 6133   2.325   6.322   4.719 -1.2691 -0.1385  0.4166
   67CHL1  H26C 6134   2.261   6.200   4.841  0.3976  1.2404  1.5206
   67CHL1   C27 6135   2.058   6.246   4.663 -0.2711  0.7483 -0.1164
   67CHL1  H27A 6136   2.007   6.218   4.758 -1.1428 -1.7719 -1.2365
   67CHL1  H27B 6137   2.093   6.352   4.657 -0.8807  0.9228 -0.8582
   67CHL1  H27C 6138   1.975   6.223   4.593 -1.4239 -2.1793  2.0394
   68CHL1    C3 6139   1.279   6.836   3.285  0.1079 -0.2286 -0.1543
   68CHL1    H3 6140   1.375   6.884   3.255  0.0214 -0.8190 -1.4262
   68CHL1    O3 6141   1.224   6.791   3.161  0.0649  0.1212  0.2905
   68CHL1   H3' 6142   1.197   6.701   3.182  1.2522 -0.0834  1.0261
   68CHL1    C4 6143   1.305   6.721   3.387 -0.2680  0.2238 -0.4507
   68CHL1   H4A 6144   1.218   6.652   3.388  1.4486 -2.0149  1.0003
   68CHL1   H4B 6145   1.392   6.659   3.355  0.7121  1.3207  0.0001
   68CHL1    C5 6146   1.315   6.758   3.537 -0.4099  0.6779  0.3853
   68CHL1    C6 6147   1.424   6.715   3.612  0.1148  0.2600  0.7650
   68CHL1    H6 6148   1.501   6.653   3.565 -1.0487  0.4310 -1.5248
   68CHL1    C7 6149   1.430   6.745   3.755 -0.7709 -0.2476 -0.5593
   68CHL1   H7A 6150   1.478   6.663   3.812 -0.5591  0.5792  0.4716
   68CHL1   H7B 6151   1.498   6.833   3.756 -1.0108 -0.0618  0.2982
   68CHL1    C8 6152   1.294   6.786   3.819  0.3223  0.7109 -0.3583
   68CHL1    H8 6153   1.224   6.702   3.836  0.7015  0.3264 -0.6899
   68CHL1   C14 6154   1.324   6.835   3.949 -1.3720  0.0229 -0.4304
   68CHL1   H14 6155   1.400   6.915   3.932  0.6709 -0.6663  4.0397
   68CHL1   C15 6156   1.396   6.738   4.049 -0.0605 -0.4805  0.4102
   68CHL1  H15A 6157   1.345   6.639   4.050  0.3546 -0.6960  1.4841
   68CHL1  H15B 6158   1.499   6.731   4.008  0.0127  1.5363  0.1589
   68CHL1   C16 6159   1.379   6.808   4.184  0.6512 -0.2972 -0.1212
   68CHL1  H16A 6160   1.361   6.737   4.267  1.2096 -0.3651 -0.0542
   68CHL1  H16B 6161   1.479   6.853   4.203  0.7963  0.5848 -2.5839
   68CHL1   C17 6162   1.274   6.925   4.172  0.7240 -0.1060 -0.1876
   68CHL1   H17 6163   1.339   7.015   4.168 -0.1649  0.5099 -1.1937
   68CHL1   C13 6164   1.213   6.892   4.033  0.0541 -0.2380  0.2159
   68CHL1   C18 6165   1.095   6.797   4.052  0.1450 -0.1712  0.4258
   68CHL1  H18A 6166   1.051   6.753   3.960  0.4083 -2.7313  1.4450
   68CHL1  H18B 6167   1.134   6.712   4.112 -1.7965 -0.7042  1.0044
   68CHL1  H18C 6168   1.019   6.856   4.106 -0.7207  0.6129 -1.5357
   68CHL1   C12 6169   1.175   7.016   3.949 -0.2607  0.3004 -0.4517
   68CHL1  H12A 6170   1.088   7.062   4.000  0.3763 -0.8138  1.8077
   68CHL1  H12B 6171   1.256   7.092   3.958 -1.4022  1.4334  0.8337
   68CHL1   C11 6172   1.131   6.990   3.804  0.5905  0.1023  0.5995
   68CHL1  H11A 6173   1.025   6.956   3.807  1.2113 -2.6454 -2.5205
   68CHL1  H11B 6174   1.129   7.084   3.745  2.1312  0.7732  1.5264
   68CHL1    C9 6175   1.232   6.900   3.737 -0.0095 -0.8991  0.6473
   68CHL1    H9 6176   1.311   6.976   3.722 -1.0387  0.0339 -0.2592
   68CHL1   C10 6177   1.206   6.850   3.593  1.3659 -0.4612  0.0688
   68CHL1   C19 6178   1.065   6.787   3.592 -0.0837  0.0664 -0.1514
   68CHL1  H19A 6179   0.987   6.866   3.604  2.4978  3.1681 -2.1263
   68CHL1  H19B 6180   1.039   6.742   3.495  1.0010 -1.7163  0.3315
   68CHL1  H19C 6181   1.068   6.707   3.669  0.4901 -0.6810 -0.9389
   68CHL1    C1 6182   1.213   6.978   3.500  0.3398  1.1678 -0.2257
   68CHL1   H1A 6183   1.132   7.045   3.537 -1.0163 -0.7755  0.5372
   68CHL1   H1B 6184   1.313   7.023   3.516  0.4590  0.2573  1.9562
   68CHL1    C2 6185   1.191   6.945   3.350 -0.9193  0.0885 -0.1674
   68CHL1   H2A 6186   1.198   7.031   3.279 -1.4059  0.4115  0.1647
   68CHL1   H2B 6187   1.088   6.904   3.337 -0.8802 -0.1069  0.1596
   68CHL1   C20 6188   1.186   6.953   4.300 -0.3366  0.3956  0.3239
   68CHL1   H20 6189   1.114   6.870   4.289  0.1468 -0.2878  2.0802
   68CHL1   C21 6190   1.114   7.083   4.275  0.6081 -0.2181 -0.6516
   68CHL1  H21A 6191   1.053   7.075   4.183 -0.7222 -1.0847  0.2645
   68CHL1  H21B 6192   1.190   7.163   4.268  0.0561  0.3615 -0.2018
   68CHL1  H21C 6193   1.046   7.108   4.360  1.4638  0.4797 -0.1502
   68CHL1   C22 6194   1.260   6.950   4.432 -0.1079  0.2457 -0.5045
   68CHL1  H22A 6195   1.326   6.863   4.449 -2.1147 -0.8792  2.3883
   68CHL1  H22B 6196   1.319   7.043   4.446 -0.7479  0.4297  1.1851
   68CHL1   C23 6197   1.167   6.948   4.560 -0.5109  0.1910  0.2762
   68CHL1  H23A 6198   1.097   7.034   4.563  1.0669  1.4849  0.6387
   68CHL1  H23B 6199   1.106   6.854   4.561 -0.4563  0.1166 -0.9399
   68CHL1   C24 6200   1.244   6.958   4.691 -0.2593 -0.0256  0.6327
   68CHL1  H24A 6201   1.295   6.860   4.701  1.2871  0.2949 -2.7958
   68CHL1  H24B 6202   1.316   7.040   4.671 -1.7595  0.7821 -1.8850
   68CHL1   C25 6203   1.156   6.977   4.811  0.4442  0.4657  0.3231
   68CHL1   H25 6204   1.082   7.057   4.794 -0.5865 -0.6711 -0.7205
   68CHL1   C26 6205   1.076   6.850   4.843 -0.2647 -0.7102 -0.1362
   68CHL1  H26A 6206   1.146   6.764   4.844 -0.4528 -0.9468 -2.2328
   68CHL1  H26B 6207   1.015   6.858   4.936  0.1759  3.5348 -0.0118
   68CHL1  H26C 6208   1.006   6.820   4.762 -0.4376 -1.6054  0.3336
   68CHL1   C27 6209   1.249   7.007   4.932 -0.5627 -0.1768  0.4753
   68CHL1  H27A 6210   1.331   6.932   4.943  0.2291  0.6196  0.1439
   68CHL1  H27B 6211   1.294   7.108   4.938  0.0103 -0.4825  2.0782
   68CHL1  H27C 6212   1.190   6.997   5.025  0.8895 -0.1446  1.4435
   69CHL1    C3 6213   1.635   4.534   6.661 -0.5955 -0.6941  0.0150
   69CHL1    H3 6214   1.568   4.616   6.628 -0.0552 -1.2186 -2.6146
   69CHL1    O3 6215   1.624   4.490   6.798 -0.0487  0.2419  0.0864
   69CHL1   H3' 6216   1.718   4.485   6.817  0.5004 -4.9820 -2.3537
   69CHL1    C4 6217   1.613   4.404   6.575  0.6248 -0.8167 -0.3344
   69CHL1   H4A 6218   1.681   4.328   6.618  1.4013 -1.0282 -1.8516
   69CHL1   H4B 6219   1.511   4.368   6.600 -0.9436  1.0460 -3.4197
   69CHL1    C5 6220   1.625   4.423   6.426  0.1980 -0.3475 -0.0032
   69CHL1    C6 6221   1.525   4.382   6.341  0.3340 -0.1674  0.3973
   69CHL1    H6 6222   1.428   4.345   6.379 -0.1138  2.5119  2.1939
   69CHL1    C7 6223   1.540   4.400   6.196  0.3943  0.7898 -0.0524
   69CHL1   H7A 6224   1.497   4.317   6.135  0.7603 -0.8955  1.8553
   69CHL1   H7B 6225   1.474   4.484   6.166  0.5083  1.1962  0.7984
   69CHL1    C8 6226   1.679   4.431   6.149  0.1367  0.4922 -0.0621
   69CHL1    H8 6227   1.737   4.337   6.158 -0.2696  0.2507  0.0481
   69CHL1   C14 6228   1.670   4.483   6.010 -0.2720 -0.4535  0.4728
   69CHL1   H14 6229   1.619   4.582   6.019  1.9543  0.7585  0.5776
   69CHL1   C15 6230   1.596   4.400   5.906  0.1599  0.1591 -0.6860
   69CHL1  H15A 6231   1.622   4.293   5.922 -2.0365 -0.2097  0.8520
   69CHL1  H15B 6232   1.487   4.408   5.927  0.6607  1.9593  1.5668
   69CHL1   C16 6233   1.637   4.456   5.765  0.7470  0.1527  0.1436
   69CHL1  H16A 6234   1.670   4.369   5.704 -0.7633  0.8800 -1.8136
   69CHL1  H16B 6235   1.550   4.513   5.726  1.3712 -0.4804 -2.3989
   69CHL1   C17 6236   1.750   4.558   5.796  0.1973  0.3569  0.8463
   69CHL1   H17 6237   1.697   4.656   5.790 -1.5192 -0.5613  0.2856
   69CHL1   C13 6238   1.802   4.532   5.940 -0.5636  0.2945 -0.0138
   69CHL1   C18 6239   1.889   4.402   5.942 -1.1811  0.2830  0.1752
   69CHL1  H18A 6240   1.910   4.352   6.040 -2.4177 -2.0470 -0.6624
   69CHL1  H18B 6241   1.845   4.328   5.872  0.2547  0.5152 -1.0120
   69CHL1  H18C 6242   1.987   4.431   5.901  0.3779 -0.4257  3.0869
   69CHL1   C12 6243   1.867   4.636   6.033  0.7229 -0.1096 -0.2274
   69CHL1  H12A 6244   1.971   4.666   6.007  0.4330  1.6393  0.5164
   69CHL1  H12B 6245   1.799   4.722   6.018  0.1805 -0.8231 -2.2146
   69CHL1   C11 6246   1.873   4.588   6.174 -0.1313 -0.2335 -0.2582
   69CHL1  H11A 6247   1.949   4.507   6.171 -0.6355 -0.7682  0.7396
   69CHL1  H11B 6248   1.907   4.683   6.221 -1.0369  1.2654 -2.4775
   69CHL1    C9 6249   1.750   4.539   6.238  0.6684  0.5957  0.6096
   69CHL1    H9 6250   1.680   4.625   6.242  1.0870  0.8994  1.5348
   69CHL1   C10 6251   1.752   4.488   6.380  0.2646 -0.0311 -0.3424
   69CHL1   C19 6252   1.863   4.387   6.405 -1.0419  1.0200  0.2883
   69CHL1  H19A 6253   1.851   4.350   6.510 -1.4952 -1.5707 -0.6020
   69CHL1  H19B 6254   1.849   4.297   6.340 -0.3605  0.2177  1.2133
   69CHL1  H19C 6255   1.960   4.438   6.393 -1.4998  1.6107 -1.0736
   69CHL1    C1 6256   1.794   4.608   6.475 -0.5655 -0.2682  0.1730
   69CHL1   H1A 6257   1.897   4.645   6.455 -1.2686  2.5032  1.2291
   69CHL1   H1B 6258   1.731   4.690   6.435 -0.5934 -0.1786  0.3944
   69CHL1    C2 6259   1.777   4.587   6.629  0.4765  0.1934  0.5683
   69CHL1   H2A 6260   1.798   4.682   6.683  1.7505  0.4664 -0.3633
   69CHL1   H2B 6261   1.852   4.515   6.669  0.1668 -0.9417 -0.8366
   69CHL1   C20 6262   1.860   4.563   5.683  0.0960 -0.4816  0.5545
   69CHL1   H20 6263   1.934   4.480   5.684  1.9227  1.0203 -1.5523
   69CHL1   C21 6264   1.933   4.695   5.706 -0.0883 -0.1005 -0.0908
   69CHL1  H21A 6265   2.014   4.698   5.630  1.0054 -1.0091  1.0017
   69CHL1  H21B 6266   1.995   4.699   5.798 -0.0289  1.3417 -0.1635
   69CHL1  H21C 6267   1.868   4.785   5.695 -2.2840 -1.5876  0.1764
   69CHL1   C22 6268   1.792   4.554   5.541  0.1204  0.7863 -0.1243
   69CHL1  H22A 6269   1.688   4.515   5.544  0.2715  0.3831  0.0128
   69CHL1  H22B 6270   1.785   4.660   5.508  1.0839  0.2376 -2.2297
   69CHL1   C23 6271   1.860   4.469   5.430 -0.7023  0.0110  0.0686
   69CHL1  H23A 6272   1.967   4.499   5.424  0.5135 -2.9359  3.2433
   69CHL1  H23B 6273   1.865   4.360   5.452 -0.7469 -0.3648 -1.6604
   69CHL1   C24 6274   1.783   4.490   5.299 -0.4785  0.1470  0.1623
   69CHL1  H24A 6275   1.767   4.599   5.289  0.7771  0.2237 -1.2796
   69CHL1  H24B 6276   1.865   4.465   5.228  1.4442  1.2007  1.8934
   69CHL1   C25 6277   1.660   4.407   5.276  0.4065 -0.3592  0.0865
   69CHL1   H25 6278   1.589   4.411   5.361  0.5959 -0.2639  0.2392
   69CHL1   C26 6279   1.589   4.463   5.150  0.6249  0.2839 -0.6781
   69CHL1  H26A 6280   1.563   4.568   5.175 -0.3757 -0.3575  1.1958
   69CHL1  H26B 6281   1.663   4.458   5.068  1.2968 -2.9184 -0.0163
   69CHL1  H26C 6282   1.495   4.410   5.121  0.1080 -0.3138  1.8019
   69CHL1   C27 6283   1.692   4.261   5.268  0.2937  0.2238  0.2568
   69CHL1  H27A 6284   1.732   4.245   5.166 -3.6690  2.4572 -1.8972
   69CHL1  H27B 6285   1.757   4.222   5.349  0.0210  1.2067  0.9660
   69CHL1  H27C 6286   1.598   4.202   5.273 -1.0544  2.2435 -0.2219
   70CHL1    C3 6287   0.450   1.877   3.124 -0.4255  0.4919 -0.6081
   70CHL1    H3 6288   0.368   1.801   3.119 -0.4618  0.0628  3.0693
   70CHL1    O3 6289   0.495   1.932   3.002  0.0397  0.0049  0.2448
   70CHL1   H3' 6290   0.568   1.987   3.028 -0.2189  0.3076  0.3347
   70CHL1    C4 6291   0.412   1.989   3.220  0.0017 -1.0652 -0.0275
   70CHL1   H4A 6292   0.494   2.064   3.218  0.9697 -2.0660  0.8903
   70CHL1   H4B 6293   0.319   2.034   3.177 -0.5227 -0.8597  1.2632
   70CHL1    C5 6294   0.398   1.939   3.362 -0.1881  0.2604 -0.6031
   70CHL1    C6 6295   0.283   1.973   3.423 -0.0197  0.0307  0.2152
   70CHL1    H6 6296   0.211   2.036   3.370 -0.5488 -2.3946 -2.2156
   70CHL1    C7 6297   0.252   1.929   3.568  0.0025 -0.3685  0.4624
   70CHL1   H7A 6298   0.208   2.014   3.625 -1.3264  0.6715 -1.9792
   70CHL1   H7B 6299   0.178   1.847   3.575 -1.4949  0.8546 -0.3902
   70CHL1    C8 6300   0.385   1.885   3.634  0.0393 -0.2078  0.2714
   70CHL1    H8 6301   0.447   1.976   3.642  2.6387 -1.7693 -0.7042
   70CHL1   C14 6302   0.362   1.828   3.779 -0.4246  0.0250 -0.5597
   70CHL1   H14 6303   0.300   1.736   3.780  1.0906 -1.0448  0.9161
   70CHL1   C15 6304   0.285   1.922   3.878  0.8954  0.3800  0.3081
   70CHL1  H15A 6305   0.312   2.027   3.853 -0.9537  0.8825  0.2978
   70CHL1  H15B 6306   0.175   1.908   3.884  1.2344 -2.5747  1.3039
   70CHL1   C16 6307   0.330   1.881   4.018  0.0274  0.1188  0.5011
   70CHL1  H16A 6308   0.381   1.968   4.063  2.9111 -2.1034  1.8594
   70CHL1  H16B 6309   0.251   1.843   4.088  1.0064  0.1548  1.6504
   70CHL1   C17 6310   0.434   1.760   3.997 -0.2354 -0.3087 -0.7833
   70CHL1   H17 6311   0.374   1.667   3.993 -0.1946 -0.3323 -0.8375
   70CHL1   C13 6312   0.489   1.783   3.856 -0.3334  0.4656  0.3708
   70CHL1   C18 6313   0.579   1.911   3.865  0.6747  0.2158  0.5536
   70CHL1  H18A 6314   0.609   1.939   3.761 -2.5719  0.2432 -0.5070
   70CHL1  H18B 6315   0.530   1.997   3.915 -0.8105 -0.0993 -0.2858
   70CHL1  H18C 6316   0.675   1.898   3.918  0.3385  0.2195  1.1733
   70CHL1   C12 6317   0.556   1.668   3.773 -0.4595 -0.0737 -0.0422
   70CHL1  H12A 6318   0.645   1.615   3.813  0.2385  0.2669 -1.1267
   70CHL1  H12B 6319   0.471   1.596   3.772 -1.8534  1.4984 -1.3551
   70CHL1   C11 6320   0.584   1.711   3.624  0.1374 -0.7648  0.0753
   70CHL1  H11A 6321   0.677   1.771   3.625 -0.7485  0.6974 -1.2448
   70CHL1  H11B 6322   0.601   1.621   3.561 -0.7180 -1.0527  0.2393
   70CHL1    C9 6323   0.464   1.781   3.551 -0.3848 -0.5480 -0.3405
   70CHL1    H9 6324   0.385   1.706   3.528 -1.2518 -0.0854  0.9715
   70CHL1   C10 6325   0.501   1.856   3.418  0.0965  0.2655 -0.4789
   70CHL1   C19 6326   0.614   1.962   3.444 -0.3248  0.4951 -0.2397
   70CHL1  H19A 6327   0.595   2.036   3.525  3.5538  0.4919  0.8878
   70CHL1  H19B 6328   0.706   1.908   3.475 -1.3307 -0.6135  0.9092
   70CHL1  H19C 6329   0.622   2.017   3.347 -3.4484 -0.4140 -1.1195
   70CHL1    C1 6330   0.545   1.748   3.319 -0.5806  0.2815 -0.3813
   70CHL1   H1A 6331   0.639   1.708   3.361 -0.7055  0.5135  0.1330
   70CHL1   H1B 6332   0.473   1.664   3.330  0.8941 -0.7588  1.9632
   70CHL1    C2 6333   0.569   1.791   3.181  0.1660  0.5242 -0.5000
   70CHL1   H2A 6334   0.595   1.704   3.116  0.0966 -1.6962  2.2606
   70CHL1   H2B 6335   0.662   1.851   3.181  1.7841 -1.8381 -1.6988
   70CHL1   C20 6336   0.524   1.748   4.119  0.0514 -0.5939  0.6525
   70CHL1   H20 6337   0.587   1.839   4.122 -1.0806  0.6711 -4.7211
   70CHL1   C21 6338   0.615   1.629   4.086  0.4012 -0.4844  0.0915
   70CHL1  H21A 6339   0.694   1.670   4.020  0.4705 -0.0601  0.4351
   70CHL1  H21B 6340   0.552   1.554   4.035 -0.3287  1.0878 -1.4094
   70CHL1  H21C 6341   0.667   1.579   4.171 -0.2320  1.7185  1.8864
   70CHL1   C22 6342   0.444   1.729   4.250 -0.0699  0.6780 -0.1865
   70CHL1  H22A 6343   0.529   1.719   4.320 -2.4077 -0.4919  2.7086
   70CHL1  H22B 6344   0.387   1.821   4.277 -1.0870 -0.5088  1.9636
   70CHL1   C23 6345   0.354   1.595   4.253  0.3353 -0.3555  0.2157
   70CHL1  H23A 6346   0.263   1.625   4.197  1.7251  2.2009 -0.8737
   70CHL1  H23B 6347   0.415   1.513   4.213  0.9576 -0.8700  2.1036
   70CHL1   C24 6348   0.313   1.555   4.397 -0.0682 -0.2485  0.6557
   70CHL1  H24A 6349   0.268   1.647   4.441 -0.3012 -0.8883  1.8242
   70CHL1  H24B 6350   0.237   1.475   4.409 -1.3762  1.0869  1.6826
   70CHL1   C25 6351   0.418   1.500   4.490  0.7264  0.9977  0.2741
   70CHL1   H25 6352   0.506   1.568   4.498  1.5543 -0.1934  2.1496
   70CHL1   C26 6353   0.352   1.480   4.635  0.5848  0.7747  0.5237
   70CHL1  H26A 6354   0.323   1.575   4.684 -3.3692  0.0733 -0.1592
   70CHL1  H26B 6355   0.255   1.431   4.613  0.9648  0.8241 -1.4270
   70CHL1  H26C 6356   0.421   1.418   4.697  0.4970 -1.1885 -1.2224
   70CHL1   C27 6357   0.488   1.366   4.440 -0.0216  0.5364  0.0585
   70CHL1  H27A 6358   0.409   1.292   4.415  1.1206  0.0194 -2.3024
   70CHL1  H27B 6359   0.543   1.385   4.345 -0.7120 -0.3766 -0.5433
   70CHL1  H27C 6360   0.559   1.330   4.518  0.6060 -1.0017 -1.1558
   71CHL1    C3 6361   0.022   0.634   3.064  0.1523 -0.8026  0.0448
   71CHL1    H3 6362   0.044   0.526   3.077 -1.4755 -0.9962  1.4573
   71CHL1    O3 6363  -0.013   0.660   2.932 -0.5121  0.3310 -0.1318
   71CHL1   H3' 6364   0.011   0.751   2.910 -1.2857  0.3814 -0.8318
   71CHL1    C4 6365  -0.100   0.665   3.160  0.1651  0.0820  0.1436
   71CHL1   H4A 6366  -0.120   0.774   3.149 -2.3142 -0.3117  0.0835
   71CHL1   H4B 6367  -0.189   0.613   3.119 -0.5456 -0.0038  1.7161
   71CHL1    C5 6368  -0.064   0.634   3.306  0.7638  0.1024  0.1563
   71CHL1    C6 6369  -0.140   0.557   3.378 -0.1470  0.0005 -0.4073
   71CHL1    H6 6370  -0.225   0.506   3.330 -1.0348  0.0958  1.0027
   71CHL1    C7 6371  -0.120   0.530   3.517 -0.4930  0.5670  0.1653
   71CHL1   H7A 6372  -0.217   0.530   3.571 -1.0988 -2.1938 -0.7799
   71CHL1   H7B 6373  -0.090   0.423   3.527 -0.4330  0.6488  0.9967
   71CHL1    C8 6374  -0.022   0.624   3.591  0.3175 -0.5280 -0.2642
   71CHL1    H8 6375  -0.080   0.716   3.613  0.6953 -1.0129  3.2676
   71CHL1   C14 6376   0.031   0.562   3.726  0.2987 -0.3173 -0.9309
   71CHL1   H14 6377   0.078   0.469   3.688 -0.5664 -0.9517 -0.4940
   71CHL1   C15 6378  -0.078   0.526   3.835 -0.2317  0.2290  0.0535
   71CHL1  H15A 6379  -0.149   0.610   3.848  0.8043  1.7533 -3.2157
   71CHL1  H15B 6380  -0.136   0.433   3.814  2.8094 -1.9330  0.4028
   71CHL1   C16 6381   0.012   0.510   3.957  0.2319 -0.3989 -0.0616
   71CHL1  H16A 6382  -0.037   0.579   4.028 -0.0399 -0.2144 -0.4256
   71CHL1  H16B 6383  -0.002   0.407   3.996 -3.6973 -0.5190 -1.3277
   71CHL1   C17 6384   0.155   0.547   3.923  0.0119 -0.0571  0.9521
   71CHL1   H17 6385   0.203   0.452   3.891 -0.6903  0.0730 -0.5465
   71CHL1   C13 6386   0.138   0.644   3.800 -0.0112  0.1553 -0.6148
   71CHL1   C18 6387   0.086   0.778   3.854  1.1215  0.3570 -1.0810
   71CHL1  H18A 6388   0.058   0.849   3.774  0.1967 -0.4238 -1.4648
   71CHL1  H18B 6389  -0.004   0.771   3.919  0.7552  0.5474 -1.5688
   71CHL1  H18C 6390   0.163   0.819   3.923 -0.1768 -0.0380  0.6792
   71CHL1   C12 6391   0.257   0.666   3.710 -0.0464  0.4226 -0.6733
   71CHL1  H12A 6392   0.338   0.731   3.750  2.1048 -1.7012 -1.2488
   71CHL1  H12B 6393   0.303   0.566   3.692  1.1992  1.0170 -0.9211
   71CHL1   C11 6394   0.211   0.723   3.575 -0.1344  0.1328  0.1746
   71CHL1  H11A 6395   0.174   0.827   3.587 -0.3960 -0.0589  1.1717
   71CHL1  H11B 6396   0.305   0.731   3.517  1.6180  0.1163  2.8304
   71CHL1    C9 6397   0.098   0.649   3.503  0.3377 -0.3770  0.0921
   71CHL1    H9 6398   0.138   0.548   3.481  1.5616  0.2939 -0.8865
   71CHL1   C10 6399   0.064   0.704   3.365  0.5926  0.2908 -0.2251
   71CHL1   C19 6400   0.026   0.850   3.374  0.3692 -0.0565 -0.2753
   71CHL1  H19A 6401  -0.046   0.862   3.458 -0.0559 -1.6280 -0.3919
   71CHL1  H19B 6402   0.111   0.916   3.403 -1.2352  1.5506  1.0503
   71CHL1  H19C 6403  -0.010   0.895   3.279  2.4817  2.1857 -0.1226
   71CHL1    C1 6404   0.179   0.671   3.263  0.0975 -0.2567  0.0036
   71CHL1   H1A 6405   0.270   0.724   3.299 -0.5622  0.1322  1.1176
   71CHL1   H1B 6406   0.198   0.561   3.266 -1.8390 -0.7834 -2.6515
   71CHL1    C2 6407   0.152   0.704   3.113  0.6300 -0.1189 -0.3535
   71CHL1   H2A 6408   0.236   0.662   3.053  1.1506 -1.6367  1.3379
   71CHL1   H2B 6409   0.148   0.813   3.092  2.1911  0.2567  1.1228
   71CHL1   C20 6410   0.234   0.594   4.045  0.0392 -0.2511  0.5290
   71CHL1   H20 6411   0.177   0.679   4.088  0.2527  0.6008 -0.8109
   71CHL1   C21 6412   0.371   0.651   3.999  0.6750  0.2030 -0.4638
   71CHL1  H21A 6413   0.351   0.752   3.955  1.6943 -0.3787 -2.3733
   71CHL1  H21B 6414   0.417   0.588   3.920 -0.0251  1.9445 -2.3610
   71CHL1  H21C 6415   0.443   0.665   4.082 -1.2424  2.2706  0.9814
   71CHL1   C22 6416   0.260   0.485   4.146 -0.6611 -0.0205 -0.4362
   71CHL1  H22A 6417   0.185   0.403   4.137 -1.0398  0.1860  0.6976
   71CHL1  H22B 6418   0.357   0.434   4.124  1.6145  3.1693  1.3509
   71CHL1   C23 6419   0.263   0.542   4.289 -0.5715  0.1671  0.1617
   71CHL1  H23A 6420   0.357   0.601   4.292 -0.0797 -0.6259  0.5262
   71CHL1  H23B 6421   0.190   0.626   4.289  1.0492  1.7365  2.6884
   71CHL1   C24 6422   0.251   0.431   4.392 -0.1646  0.6410  0.3455
   71CHL1  H24A 6423   0.151   0.382   4.390 -0.2794  0.8128  1.2812
   71CHL1  H24B 6424   0.328   0.355   4.366  0.2140  0.6268  1.4408
   71CHL1   C25 6425   0.286   0.466   4.538  0.1462 -0.2773 -0.0413
   71CHL1   H25 6426   0.211   0.543   4.569  1.0237  0.7339 -0.3633
   71CHL1   C26 6427   0.280   0.352   4.635  0.1630  0.0580 -0.1700
   71CHL1  H26A 6428   0.315   0.384   4.735  0.5553 -0.3686 -0.1648
   71CHL1  H26B 6429   0.172   0.327   4.641  0.5420 -1.3597  1.5712
   71CHL1  H26C 6430   0.331   0.258   4.602 -1.0056 -0.5257 -0.3454
   71CHL1   C27 6431   0.430   0.529   4.556 -0.0382  0.1229  0.1521
   71CHL1  H27A 6432   0.448   0.618   4.492 -0.5932 -0.0256 -0.2125
   71CHL1  H27B 6433   0.457   0.565   4.658 -0.1709 -0.8633  0.5458
   71CHL1  H27C 6434   0.501   0.449   4.527 -0.0754  0.1995 -0.1454
   72CHL1    C3 6435   5.195   4.685   2.781 -0.1112  0.1574  0.0936
   72CHL1    H3 6436   5.300   4.707   2.751 -0.0454 -1.3820 -0.9471
   72CHL1    O3 6437   5.116   4.732   2.671  0.1465 -0.4227  0.0670
   72CHL1   H3' 6438   5.026   4.717   2.700  0.4745 -1.1571  0.7601
   72CHL1    C4 6439   5.176   4.542   2.802 -0.1413  1.0336 -0.2186
   72CHL1   H4A 6440   5.070   4.526   2.830 -0.6725  0.4879 -2.3759
   72CHL1   H4B 6441   5.191   4.480   2.711 -0.7543 -1.9401  1.5526
   72CHL1    C5 6442   5.261   4.490   2.914  0.3355  0.2796  0.0548
   72CHL1    C6 6443   5.355   4.398   2.900 -0.7904  0.7519 -0.1259
   72CHL1    H6 6444   5.382   4.348   2.806  1.6508  1.2047  0.2492
   72CHL1    C7 6445   5.446   4.351   3.008  0.2047  0.3264  0.2996
   72CHL1   H7A 6446   5.468   4.242   3.009 -0.1862  0.2438  0.3093
   72CHL1   H7B 6447   5.542   4.402   2.985  0.5816 -1.2032 -1.7622
   72CHL1    C8 6448   5.387   4.381   3.149 -0.1870  0.0691 -0.1981
   72CHL1    H8 6449   5.296   4.319   3.167 -0.4650  0.6284  0.3304
   72CHL1   C14 6450   5.497   4.348   3.251 -0.1193  0.2828  0.2930
   72CHL1   H14 6451   5.583   4.413   3.224  0.2387  0.1402  1.0731
   72CHL1   C15 6452   5.544   4.197   3.257  0.5220 -0.1977 -0.5467
   72CHL1  H15A 6453   5.452   4.136   3.267 -0.6888  1.7939  0.9885
   72CHL1  H15B 6454   5.620   4.177   3.178 -0.1351  1.1549 -1.5438
   72CHL1   C16 6455   5.622   4.201   3.396  0.2198 -0.4817  0.0045
   72CHL1  H16A 6456   5.583   4.111   3.448 -0.1346 -1.4838 -1.9089
   72CHL1  H16B 6457   5.728   4.179   3.374 -0.0363 -0.9192 -0.8400
   72CHL1   C17 6458   5.595   4.342   3.468 -0.0788 -0.3843  0.7110
   72CHL1   H17 6459   5.665   4.420   3.430 -0.9870  0.5625  0.9246
   72CHL1   C13 6460   5.467   4.394   3.395  0.1698  0.5993  0.1530
   72CHL1   C18 6461   5.347   4.314   3.452 -0.3694 -0.1859  0.2309
   72CHL1  H18A 6462   5.259   4.318   3.384 -0.4172  0.6984  0.3369
   72CHL1  H18B 6463   5.360   4.204   3.458 -2.5294 -0.4560  0.9735
   72CHL1  H18C 6464   5.317   4.358   3.550 -1.5051  0.0934 -0.2189
   72CHL1   C12 6465   5.434   4.542   3.393  0.3885  0.2938  0.9604
   72CHL1  H12A 6466   5.414   4.561   3.501 -0.7063  0.1966  0.7907
   72CHL1  H12B 6467   5.527   4.590   3.354 -0.2127 -0.4099 -1.5262
   72CHL1   C11 6468   5.315   4.578   3.306  0.6590  0.5055 -0.5609
   72CHL1  H11A 6469   5.225   4.529   3.347 -1.5437  4.3861 -0.2592
   72CHL1  H11B 6470   5.297   4.688   3.307  1.4739  0.7003 -2.3329
   72CHL1    C9 6471   5.342   4.532   3.160 -0.1618  0.1951 -0.2600
   72CHL1    H9 6472   5.432   4.588   3.125  0.7341 -1.7214 -1.1924
   72CHL1   C10 6473   5.232   4.561   3.054 -0.0616  0.5480  0.2525
   72CHL1   C19 6474   5.097   4.529   3.105  0.4794 -0.8821 -0.6650
   72CHL1  H19A 6475   5.080   4.585   3.199 -0.4244 -2.4767  0.1597
   72CHL1  H19B 6476   5.021   4.566   3.034 -0.3969  0.2902  0.8325
   72CHL1  H19C 6477   5.080   4.421   3.126  0.2086 -1.0658 -1.7812
   72CHL1    C1 6478   5.227   4.718   3.027 -0.3299 -0.9532 -0.0510
   72CHL1   H1A 6479   5.181   4.770   3.113 -0.7411  0.0863 -0.8806
   72CHL1   H1B 6480   5.333   4.751   3.019  0.2999 -1.6989  3.6213
   72CHL1    C2 6481   5.153   4.759   2.903  0.4964  0.3467  0.4244
   72CHL1   H2A 6482   5.165   4.868   2.889 -2.8018  0.8101  0.4347
   72CHL1   H2B 6483   5.044   4.741   2.917  0.9518 -1.0772  2.4286
   72CHL1   C20 6484   5.595   4.369   3.615 -0.7180 -0.0282 -0.0732
   72CHL1   H20 6485   5.536   4.456   3.651  0.0916  0.1986  0.7307
   72CHL1   C21 6486   5.745   4.399   3.657  0.5787 -0.3404 -0.0783
   72CHL1  H21A 6487   5.790   4.492   3.615 -1.4741  0.6002 -0.2965
   72CHL1  H21B 6488   5.815   4.320   3.623 -0.5952 -1.9889  1.2067
   72CHL1  H21C 6489   5.750   4.420   3.766 -0.4411  1.0659 -0.2684
   72CHL1   C22 6490   5.545   4.246   3.703 -0.3013  0.4684 -0.6986
   72CHL1  H22A 6491   5.476   4.185   3.642 -0.2977 -0.0486 -0.1932
   72CHL1  H22B 6492   5.632   4.193   3.748 -1.3598 -1.1203 -0.4729
   72CHL1   C23 6493   5.460   4.296   3.826  0.1150  0.0225  0.2144
   72CHL1  H23A 6494   5.513   4.351   3.907  0.5707 -2.7260  1.8923
   72CHL1  H23B 6495   5.375   4.361   3.794  0.2277  0.1063  0.0815
   72CHL1   C24 6496   5.408   4.175   3.898 -0.3912 -0.4244  0.2477
   72CHL1  H24A 6497   5.358   4.110   3.823  1.6589  0.2922 -1.8804
   72CHL1  H24B 6498   5.498   4.127   3.941  1.0858  2.7492  0.9902
   72CHL1   C25 6499   5.313   4.206   4.008 -0.3875  0.4331  0.1643
   72CHL1   H25 6500   5.354   4.272   4.088 -2.7887  0.0743  1.7879
   72CHL1   C26 6501   5.180   4.257   3.944 -0.7727 -0.1208 -0.7283
   72CHL1  H26A 6502   5.144   4.173   3.881  1.1749 -0.8487 -0.9067
   72CHL1  H26B 6503   5.111   4.275   4.029  2.8499 -0.5856  2.5816
   72CHL1  H26C 6504   5.192   4.356   3.896 -1.7053  0.4506  0.1640
   72CHL1   C27 6505   5.294   4.071   4.072  0.3025  0.5578 -1.1590
   72CHL1  H27A 6506   5.395   4.057   4.115 -1.3637  0.1933  3.0937
   72CHL1  H27B 6507   5.221   4.066   4.155  2.3497  0.9063  0.7656
   72CHL1  H27C 6508   5.278   3.992   3.995  0.3521  2.0126 -2.7189
   73CHL1    C3 6509   1.082   2.075   3.516 -0.0115 -1.2209 -0.6749
   73CHL1    H3 6510   1.002   2.148   3.544  0.2222 -0.4590 -1.8917
   73CHL1    O3 6511   1.128   2.101   3.381 -0.4723 -0.0379  0.1796
   73CHL1   H3' 6512   1.175   2.020   3.359 -2.2555 -0.9413 -0.4834
   73CHL1    C4 6513   1.210   2.082   3.605 -0.0333  0.2591  0.0048
   73CHL1   H4A 6514   1.287   2.006   3.580  0.4813  0.6788  0.3008
   73CHL1   H4B 6515   1.253   2.182   3.583  1.0925 -0.6265 -2.0378
   73CHL1    C5 6516   1.168   2.055   3.745 -0.1533  0.1563  0.8121
   73CHL1    C6 6517   1.206   2.138   3.844 -0.1135  0.2154 -0.2865
   73CHL1    H6 6518   1.260   2.232   3.821  2.4616 -1.2453 -0.5864
   73CHL1    C7 6519   1.179   2.117   3.990  1.2601  0.3221 -0.1566
   73CHL1   H7A 6520   1.270   2.148   4.046 -0.1521  2.6424  0.9714
   73CHL1   H7B 6521   1.101   2.186   4.028  1.1605  0.8042 -1.1939
   73CHL1    C8 6522   1.138   1.971   4.017 -0.4344 -0.4121 -0.0589
   73CHL1    H8 6523   1.229   1.906   4.019 -0.7575 -0.9173 -1.1374
   73CHL1   C14 6524   1.073   1.981   4.160  0.6350  1.0657 -0.0968
   73CHL1   H14 6525   0.988   2.053   4.161  0.1587  0.5396  1.4779
   73CHL1   C15 6526   1.161   2.044   4.271  0.4337 -0.1641 -0.1402
   73CHL1  H15A 6527   1.263   2.001   4.261  0.4078 -1.1787  2.8526
   73CHL1  H15B 6528   1.159   2.155   4.266 -1.8294 -0.1263  0.2164
   73CHL1   C16 6529   1.091   1.994   4.406  0.0172  0.2180 -0.4739
   73CHL1  H16A 6530   1.175   1.950   4.465 -0.5349 -1.0794 -0.6061
   73CHL1  H16B 6531   1.034   2.072   4.460  0.8986  1.6244 -1.5208
   73CHL1   C17 6532   0.985   1.889   4.359  0.5929 -0.1435 -0.4773
   73CHL1   H17 6533   0.898   1.952   4.330  1.6187  2.6878  2.0857
   73CHL1   C13 6534   1.033   1.842   4.211  0.7211  0.1764  0.3010
   73CHL1   C18 6535   1.155   1.743   4.230 -0.1232  0.1425 -0.9179
   73CHL1  H18A 6536   1.207   1.700   4.142  2.8665  0.2281  0.6357
   73CHL1  H18B 6537   1.234   1.785   4.297 -0.3684 -1.7054  0.6045
   73CHL1  H18C 6538   1.110   1.659   4.287  2.2418  0.6340  1.9933
   73CHL1   C12 6539   0.923   1.798   4.110  0.8515 -0.3250 -0.0415
   73CHL1  H12A 6540   0.872   1.702   4.134 -0.9474  0.1845 -1.5125
   73CHL1  H12B 6541   0.851   1.883   4.100  2.0636  0.4748 -2.9193
   73CHL1   C11 6542   0.972   1.787   3.961  0.1646 -0.3646 -0.3586
   73CHL1  H11A 6543   1.051   1.709   3.964 -0.2863 -0.8658  3.8098
   73CHL1  H11B 6544   0.887   1.748   3.900 -0.0925  0.1554 -0.3415
   73CHL1    C9 6545   1.033   1.922   3.915  0.1104  0.8931 -0.4609
   73CHL1    H9 6546   0.950   1.995   3.910 -0.0720  0.6075 -3.5859
   73CHL1   C10 6547   1.088   1.923   3.770  1.0168 -0.5236  0.1755
   73CHL1   C19 6548   1.196   1.812   3.762  0.1970  0.5510 -0.3736
   73CHL1  H19A 6549   1.275   1.831   3.838  0.6670  2.8844 -1.3654
   73CHL1  H19B 6550   1.142   1.717   3.784  0.3268 -0.1629 -2.8109
   73CHL1  H19C 6551   1.246   1.816   3.662  2.1109 -0.0448  0.5025
   73CHL1    C1 6552   0.977   1.901   3.665 -0.2973 -1.2278 -0.5899
   73CHL1   H1A 6553   0.948   1.794   3.659 -2.5628 -0.6596 -0.4967
   73CHL1   H1B 6554   0.887   1.961   3.689  2.0073  1.9487  0.8853
   73CHL1    C2 6555   1.023   1.936   3.526 -0.4889  0.2990 -1.4568
   73CHL1   H2A 6556   0.940   1.922   3.454 -0.8092 -0.9340 -0.8771
   73CHL1   H2B 6557   1.100   1.867   3.486 -0.9239 -0.9554 -0.1982
   73CHL1   C20 6558   0.950   1.783   4.461  0.4538  0.4464  1.0161
   73CHL1   H20 6559   1.039   1.722   4.486 -0.6097 -0.6763  2.1804
   73CHL1   C21 6560   0.844   1.689   4.406 -0.1288  0.6283  0.1246
   73CHL1  H21A 6561   0.891   1.625   4.328  2.2266 -0.7215  2.5010
   73CHL1  H21B 6562   0.755   1.747   4.374  0.1773  0.0231 -1.9819
   73CHL1  H21C 6563   0.809   1.623   4.488  0.1321  1.6611  1.0986
   73CHL1   C22 6564   0.912   1.844   4.603 -0.1375  0.7362 -0.5474
   73CHL1  H22A 6565   0.901   1.759   4.673  1.0343  2.6172  2.0969
   73CHL1  H22B 6566   1.007   1.891   4.638  1.1116 -1.1603 -1.2909
   73CHL1   C23 6567   0.794   1.937   4.595  1.1102  0.2903 -0.0809
   73CHL1  H23A 6568   0.802   2.002   4.505  1.5534  0.8422  0.3441
   73CHL1  H23B 6569   0.701   1.877   4.590  0.6398  1.1292 -2.6184
   73CHL1   C24 6570   0.787   2.022   4.718 -0.5569  0.2075 -0.0042
   73CHL1  H24A 6571   0.817   1.963   4.807 -0.5609 -0.1797 -0.2610
   73CHL1  H24B 6572   0.866   2.099   4.703 -1.3384  0.6977 -1.9582
   73CHL1   C25 6573   0.657   2.093   4.756 -0.1365 -0.0520  0.2858
   73CHL1   H25 6574   0.575   2.019   4.748 -1.2041  1.1245  0.0761
   73CHL1   C26 6575   0.652   2.146   4.896 -0.0275  0.4819 -1.0967
   73CHL1  H26A 6576   0.731   2.219   4.920 -0.7077  0.7617  0.3647
   73CHL1  H26B 6577   0.550   2.185   4.915  0.5070  1.0048  0.8914
   73CHL1  H26C 6578   0.669   2.066   4.971 -1.7246  0.3838 -0.7766
   73CHL1   C27 6579   0.612   2.211   4.661 -0.0367  0.3361  0.4065
   73CHL1  H27A 6580   0.504   2.234   4.671 -0.2899  1.1716 -2.8878
   73CHL1  H27B 6581   0.683   2.294   4.678 -0.1861 -0.0160  3.2611
   73CHL1  H27C 6582   0.630   2.175   4.557  0.2582  0.4664  0.4119
   74CHL1    C3 6583   0.214   6.799   6.681  0.1846 -0.4351  1.1765
   74CHL1    H3 6584   0.305   6.863   6.683 -0.7767  1.0134  0.3063
   74CHL1    O3 6585   0.177   6.766   6.811  0.1919 -0.4460  0.3088
   74CHL1   H3' 6586   0.152   6.849   6.852  0.1987 -0.1866 -0.2009
   74CHL1    C4 6587   0.100   6.875   6.608  0.3472  0.7214 -0.5820
   74CHL1   H4A 6588   0.020   6.798   6.605  1.3791 -0.3657 -1.0850
   74CHL1   H4B 6589   0.070   6.960   6.673  4.0087  1.7566 -0.0263
   74CHL1    C5 6590   0.142   6.921   6.470  0.1172  0.4216 -0.0744
   74CHL1    C6 6591   0.143   7.049   6.429 -0.4905 -0.2359 -0.2669
   74CHL1    H6 6592   0.113   7.122   6.506  1.7146  0.1131  0.3398
   74CHL1    C7 6593   0.159   7.097   6.290 -0.5956 -0.5375 -0.9127
   74CHL1   H7A 6594   0.090   7.176   6.255 -0.9157  0.2595  1.4082
   74CHL1   H7B 6595   0.261   7.139   6.279  0.0829 -1.3675  1.5169
   74CHL1    C8 6596   0.155   6.981   6.185  1.0586  0.3004  0.4408
   74CHL1    H8 6597   0.048   6.953   6.179  0.9086  0.6307  1.3596
   74CHL1   C14 6598   0.209   7.024   6.048  0.0361 -0.8260  0.4004
   74CHL1   H14 6599   0.312   7.058   6.071  1.4739 -3.4417 -1.6363
   74CHL1   C15 6600   0.149   7.142   5.973  0.7124  0.5397  1.0512
   74CHL1  H15A 6601   0.040   7.123   5.967  0.3456  2.8009 -1.2174
   74CHL1  H15B 6602   0.167   7.244   6.014 -0.6599  1.2177  0.0355
   74CHL1   C16 6603   0.187   7.126   5.825 -0.3021 -0.0200  0.5344
   74CHL1  H16A 6604   0.093   7.131   5.766 -0.3711  0.2489  0.6671
   74CHL1  H16B 6605   0.254   7.210   5.799 -0.6491  0.6090  1.6292
   74CHL1   C17 6606   0.267   6.987   5.820  0.3582  0.5081 -0.1014
   74CHL1   H17 6607   0.371   7.018   5.843  0.2495 -0.5946  2.0957
   74CHL1   C13 6608   0.224   6.911   5.947  0.0956 -0.9672 -0.5140
   74CHL1   C18 6609   0.080   6.847   5.919  0.3477 -0.7640 -0.0109
   74CHL1  H18A 6610   0.085   6.757   5.854  1.8667 -0.2249 -0.6912
   74CHL1  H18B 6611   0.030   6.810   6.011 -1.3696  0.9318 -0.2155
   74CHL1  H18C 6612   0.017   6.927   5.877  0.1046 -2.2851 -2.8074
   74CHL1   C12 6613   0.320   6.808   6.011  0.5549  0.4263  1.0070
   74CHL1  H12A 6614   0.339   6.726   5.938  2.0219  1.1948  0.4968
   74CHL1  H12B 6615   0.418   6.857   6.029  0.3402  2.1181 -1.9328
   74CHL1   C11 6616   0.267   6.753   6.141 -0.4255 -0.0034  0.5287
   74CHL1  H11A 6617   0.180   6.686   6.127 -0.1103  0.0859 -2.5545
   74CHL1  H11B 6618   0.346   6.689   6.185  1.4136 -0.1087 -2.5726
   74CHL1    C9 6619   0.229   6.859   6.238 -0.3382 -0.0045 -0.2737
   74CHL1    H9 6620   0.329   6.899   6.265 -0.2301 -1.9849  2.7857
   74CHL1   C10 6621   0.179   6.806   6.376 -0.3223  0.2758  0.1093
   74CHL1   C19 6622   0.048   6.729   6.365 -0.1547 -0.5934  0.8482
   74CHL1  H19A 6623  -0.000   6.676   6.450 -4.1465  1.1873 -0.0466
   74CHL1  H19B 6624  -0.038   6.783   6.319 -1.7096 -3.4054  0.1652
   74CHL1  H19C 6625   0.061   6.644   6.294 -1.3785 -0.3113  0.2396
   74CHL1    C1 6626   0.280   6.710   6.445  0.2765  0.5315 -0.2704
   74CHL1   H1A 6627   0.299   6.613   6.395 -0.6045  1.0759 -1.7458
   74CHL1   H1B 6628   0.382   6.752   6.434  1.2031 -2.1123 -3.6140
   74CHL1    C2 6629   0.252   6.675   6.595  0.8885  0.2578  0.2363
   74CHL1   H2A 6630   0.331   6.613   6.643 -0.8196 -1.0891  1.4167
   74CHL1   H2B 6631   0.169   6.602   6.599  0.5454  0.6741  0.9151
   74CHL1   C20 6632   0.268   6.902   5.694 -0.1307  0.4798  0.3001
   74CHL1   H20 6633   0.183   6.831   5.708  0.0927  0.7053  3.4858
   74CHL1   C21 6634   0.404   6.818   5.683  0.1479 -0.6631  0.4031
   74CHL1  H21A 6635   0.488   6.881   5.646  0.0142 -0.6123  0.1845
   74CHL1  H21B 6636   0.390   6.740   5.606 -1.6992  1.4288 -1.5207
   74CHL1  H21C 6637   0.432   6.766   5.777 -0.9165  0.3398  1.3181
   74CHL1   C22 6638   0.233   6.982   5.566  0.0137  0.1197 -0.0185
   74CHL1  H22A 6639   0.145   7.049   5.578  0.0846  0.0739  0.8626
   74CHL1  H22B 6640   0.316   7.053   5.545 -1.3616  2.5811  2.2334
   74CHL1   C23 6641   0.223   6.898   5.443  0.1980 -0.3357  0.1964
   74CHL1  H23A 6642   0.324   6.852   5.431 -0.4380 -1.6834 -0.2143
   74CHL1  H23B 6643   0.143   6.822   5.450  0.0560 -0.1003  1.4482
   74CHL1   C24 6644   0.185   6.986   5.325  0.2784 -0.6843 -0.6634
   74CHL1  H24A 6645   0.086   7.032   5.348 -0.4288 -2.0789 -0.7524
   74CHL1  H24B 6646   0.258   7.069   5.333 -2.7079  1.9882  1.4722
   74CHL1   C25 6647   0.177   6.907   5.193 -0.7232  0.2850 -0.2447
   74CHL1   H25 6648   0.257   6.830   5.198 -1.2537 -0.3142 -0.7132
   74CHL1   C26 6649   0.044   6.837   5.179  0.4880  0.7750  0.3674
   74CHL1  H26A 6650   0.022   6.758   5.254  0.8811  0.2761 -0.0366
   74CHL1  H26B 6651  -0.038   6.912   5.187  0.9147  1.0732  2.4424
   74CHL1  H26C 6652   0.036   6.792   5.078 -1.6673  1.4457  0.1758
   74CHL1   C27 6653   0.192   7.008   5.078  0.1409  0.2339  0.7531
   74CHL1  H27A 6654   0.283   7.068   5.098  1.4522 -1.1661 -0.7327
   74CHL1  H27B 6655   0.199   6.963   4.977 -1.0912 -2.7177  1.8667
   74CHL1  H27C 6656   0.098   7.067   5.067 -1.5372 -2.7038 -2.3672
   75CHL1    C3 6657   5.790   4.777   2.900 -0.1473  0.2457 -0.2190
   75CHL1    H3 6658   5.790   4.885   2.873  2.0729  0.5771  0.8561
   75CHL1    O3 6659   5.782   4.699   2.779  0.7523 -0.1904 -0.0933
   75CHL1   H3' 6660   5.853   4.744   2.733  1.4618 -0.2254  0.9261
   75CHL1    C4 6661   5.923   4.734   2.968  0.1164  0.4237  1.0934
   75CHL1   H4A 6662   5.918   4.624   2.978 -3.0230  0.1170 -1.9509
   75CHL1   H4B 6663   6.006   4.759   2.899  0.0015 -0.4206  0.6322
   75CHL1    C5 6664   5.946   4.799   3.106  0.4474 -0.0606  0.3569
   75CHL1    C6 6665   6.045   4.878   3.145  0.3614  0.0862  1.1556
   75CHL1    H6 6666   6.133   4.895   3.081  2.1226 -2.0325  2.8693
   75CHL1    C7 6667   6.074   4.936   3.280  0.4185  0.0907  0.3191
   75CHL1   H7A 6668   6.181   4.920   3.306 -0.5226 -3.0985  3.0263
   75CHL1   H7B 6669   6.035   5.038   3.263 -3.1043 -1.2467 -0.3865
   75CHL1    C8 6670   5.979   4.875   3.383 -0.1957 -0.3201  0.2892
   75CHL1    H8 6671   6.007   4.769   3.403  1.6491  0.5450  2.7935
   75CHL1   C14 6672   5.986   4.950   3.517 -0.5066  1.0416  0.0179
   75CHL1   H14 6673   5.958   5.056   3.498 -0.4570  1.4228  1.9059
   75CHL1   C15 6674   6.127   4.957   3.581  0.2431  0.0706  0.0484
   75CHL1  H15A 6675   6.171   4.856   3.591  0.4870  0.2763  1.1614
   75CHL1  H15B 6676   6.201   5.016   3.521  2.0626 -1.9614  0.1789
   75CHL1   C16 6677   6.084   5.025   3.712 -0.7185 -0.1152  1.9965
   75CHL1  H16A 6678   6.136   4.965   3.790 -0.4823  0.0505  1.9679
   75CHL1  H16B 6679   6.127   5.126   3.730  3.3512 -1.2374 -0.0746
   75CHL1   C17 6680   5.932   5.018   3.730  0.7867  0.8605 -0.0441
   75CHL1   H17 6681   5.883   5.113   3.700 -1.3535  0.1680  1.0602
   75CHL1   C13 6682   5.891   4.906   3.627  0.0489 -0.0702 -0.0716
   75CHL1   C18 6683   5.930   4.762   3.681  0.0947 -0.2563 -0.1200
   75CHL1  H18A 6684   6.034   4.755   3.719  0.4367  2.2015 -0.4555
   75CHL1  H18B 6685   5.866   4.735   3.767  0.8041 -0.1129  0.4610
   75CHL1  H18C 6686   5.931   4.696   3.591 -0.6181 -0.4849  0.0402
   75CHL1   C12 6687   5.748   4.909   3.572  0.8072  0.2578 -0.3281
   75CHL1  H12A 6688   5.668   4.868   3.637  1.1715  2.0865  1.3368
   75CHL1  H12B 6689   5.722   5.015   3.553  0.7066 -0.0218 -1.8914
   75CHL1   C11 6690   5.740   4.825   3.444  0.0519  0.4650 -0.1032
   75CHL1  H11A 6691   5.761   4.719   3.470  0.9356  0.7136  0.2448
   75CHL1  H11B 6692   5.637   4.819   3.402  0.5045 -2.4695 -1.0306
   75CHL1    C9 6693   5.832   4.869   3.328  0.2663  0.4272  0.0906
   75CHL1    H9 6694   5.811   4.976   3.308  0.7921  0.3242 -1.0862
   75CHL1   C10 6695   5.825   4.779   3.198  0.0174 -0.0716  0.1862
   75CHL1   C19 6696   5.826   4.634   3.244  0.4562 -0.1527 -0.4716
   75CHL1  H19A 6697   5.726   4.615   3.287  1.7184 -1.5560  2.0865
   75CHL1  H19B 6698   5.857   4.567   3.161  0.5222  0.0175 -0.5861
   75CHL1  H19C 6699   5.899   4.611   3.325 -1.3158 -1.1580  0.9043
   75CHL1    C1 6700   5.690   4.821   3.126 -0.1154  0.8425  0.5262
   75CHL1   H1A 6701   5.605   4.787   3.189  0.1649  0.7250  0.8447
   75CHL1   H1B 6702   5.689   4.931   3.112  0.7161  0.6202 -1.6451
   75CHL1    C2 6703   5.668   4.750   2.994 -0.5770 -0.6070  0.3525
   75CHL1   H2A 6704   5.587   4.804   2.940  1.0987  1.4083 -0.3057
   75CHL1   H2B 6705   5.646   4.643   3.014 -0.0906 -0.3451  2.5205
   75CHL1   C20 6706   5.894   5.000   3.869 -0.0504  0.1172 -0.2936
   75CHL1   H20 6707   5.924   4.897   3.898  1.2970 -0.1208 -2.3619
   75CHL1   C21 6708   5.748   5.024   3.876 -0.2273  0.5927  0.9519
   75CHL1  H21A 6709   5.736   5.124   3.830  1.7520  0.0775 -0.8555
   75CHL1  H21B 6710   5.699   5.029   3.976 -0.8910  0.9207  0.6160
   75CHL1  H21C 6711   5.703   4.932   3.836 -0.2447  0.7094  0.7049
   75CHL1   C22 6712   5.970   5.091   3.972 -0.4447  0.1250  0.2079
   75CHL1  H22A 6713   6.079   5.070   3.964 -0.0840  1.9576 -0.0911
   75CHL1  H22B 6714   5.955   5.197   3.945  0.5920  0.0824 -0.5793
   75CHL1   C23 6715   5.923   5.056   4.113 -0.7624  0.1297 -0.2256
   75CHL1  H23A 6716   5.820   5.093   4.130  0.2364  1.5179  3.9216
   75CHL1  H23B 6717   5.935   4.945   4.111  1.6158  0.3429 -2.5470
   75CHL1   C24 6718   6.016   5.126   4.222  0.3049  0.1439 -0.9836
   75CHL1  H24A 6719   6.001   5.235   4.211 -3.5380  0.0707  1.5163
   75CHL1  H24B 6720   5.968   5.099   4.319  0.0250  3.9217  0.0570
   75CHL1   C25 6721   6.170   5.087   4.231  0.5354 -0.5897 -0.4386
   75CHL1   H25 6722   6.202   5.109   4.335 -1.0837  0.3152 -0.1049
   75CHL1   C26 6723   6.196   4.940   4.216 -0.1576 -0.1796  0.0201
   75CHL1  H26A 6724   6.152   4.905   4.121 -0.4207  0.8685 -0.2588
   75CHL1  H26B 6725   6.306   4.925   4.220 -0.0139  0.9719  1.1904
   75CHL1  H26C 6726   6.151   4.890   4.304  2.8018  1.1598  2.5034
   75CHL1   C27 6727   6.250   5.173   4.140 -0.4458 -0.0947  0.2155
   75CHL1  H27A 6728   6.253   5.277   4.180  1.4353 -0.7310  1.8867
   75CHL1  H27B 6729   6.356   5.141   4.139 -0.0696  0.8178  2.5704
   75CHL1  H27C 6730   6.213   5.186   4.036  0.5338  0.3384 -0.0843
   76CHL1    C3 6731   2.244   4.765   3.276  0.5261 -0.2025  0.3188
   76CHL1    H3 6732   2.228   4.874   3.264  2.1239  0.1197  0.9046
   76CHL1    O3 6733   2.228   4.707   3.149  0.0117  0.4952 -0.1627
   76CHL1   H3' 6734   2.245   4.614   3.161  2.2655  0.9358  0.4128
   76CHL1    C4 6735   2.380   4.730   3.337  0.5140 -0.2582 -0.2045
   76CHL1   H4A 6736   2.378   4.621   3.357  1.2417 -0.3889 -0.7901
   76CHL1   H4B 6737   2.463   4.740   3.264 -0.9298 -1.0394 -2.0144
   76CHL1    C5 6738   2.398   4.810   3.460  0.4281  0.0391 -1.0437
   76CHL1    C6 6739   2.498   4.904   3.476 -0.4400  1.2034 -0.5901
   76CHL1    H6 6740   2.574   4.912   3.397 -0.4507 -0.6377 -0.8215
   76CHL1    C7 6741   2.514   4.974   3.614 -0.0580  0.2630 -0.0949
   76CHL1   H7A 6742   2.621   4.970   3.641  0.2258  0.3709 -1.1702
   76CHL1   H7B 6743   2.497   5.083   3.603  1.5520  0.8805  2.5890
   76CHL1    C8 6744   2.433   4.919   3.730 -0.2623 -0.3089  0.0007
   76CHL1    H8 6745   2.479   4.824   3.764  0.3487 -0.3455 -0.9028
   76CHL1   C14 6746   2.426   5.016   3.846  0.2345 -0.4163 -0.1462
   76CHL1   H14 6747   2.381   5.103   3.792 -0.2954 -0.7346 -0.2134
   76CHL1   C15 6748   2.560   5.065   3.907 -0.5692  0.3706 -0.2311
   76CHL1  H15A 6749   2.632   4.986   3.936 -2.0455 -0.4521  1.4005
   76CHL1  H15B 6750   2.599   5.143   3.838 -0.1867  1.4238  1.1185
   76CHL1   C16 6751   2.517   5.131   4.043  0.1852 -0.5542 -0.4657
   76CHL1  H16A 6752   2.575   5.062   4.108  2.0265  0.0167 -1.4477
   76CHL1  H16B 6753   2.534   5.239   4.061  2.3920 -1.0062  0.4808
   76CHL1   C17 6754   2.364   5.092   4.065  0.5746  0.1631  0.3196
   76CHL1   H17 6755   2.311   5.188   4.045 -0.3049 -0.3577  0.0730
   76CHL1   C13 6756   2.340   4.982   3.964 -0.8404  0.0845  0.9052
   76CHL1   C18 6757   2.390   4.845   4.026  0.1370  0.3502  0.1524
   76CHL1  H18A 6758   2.386   4.765   3.949 -2.1766 -1.3381  1.9124
   76CHL1  H18B 6759   2.497   4.846   4.058  0.6734 -0.4067 -1.4961
   76CHL1  H18C 6760   2.321   4.816   4.107 -0.2217  0.2199 -0.1949
   76CHL1   C12 6761   2.194   4.963   3.911 -0.4948 -0.0746  0.7743
   76CHL1  H12A 6762   2.120   4.944   3.992 -0.3636 -1.5661  0.5578
   76CHL1  H12B 6763   2.167   5.064   3.873  4.3618  0.8549 -0.9108
   76CHL1   C11 6764   2.178   4.862   3.794 -0.0737  0.1815  0.1910
   76CHL1  H11A 6765   2.169   4.758   3.832 -0.3390 -1.0061 -2.8951
   76CHL1  H11B 6766   2.077   4.878   3.749 -0.0171 -0.1236 -0.0421
   76CHL1    C9 6767   2.286   4.886   3.688 -0.7676 -0.6682  0.1546
   76CHL1    H9 6768   2.243   4.980   3.646 -1.9757 -1.5316 -0.6211
   76CHL1   C10 6769   2.281   4.785   3.567  0.3093  0.0127  0.2152
   76CHL1   C19 6770   2.302   4.645   3.626  0.2458  0.5350 -0.0922
   76CHL1  H19A 6771   2.228   4.619   3.705 -1.9981  0.7939 -1.9922
   76CHL1  H19B 6772   2.277   4.568   3.549 -1.4114  2.3898 -1.4946
   76CHL1  H19C 6773   2.406   4.627   3.660  1.4387  4.5647 -1.1164
   76CHL1    C1 6774   2.130   4.771   3.508  0.3803 -0.1603 -0.1203
   76CHL1   H1A 6775   2.070   4.717   3.584 -0.4186  0.2574 -0.4515
   76CHL1   H1B 6776   2.098   4.877   3.502  0.0446 -0.2550 -0.0150
   76CHL1    C2 6777   2.125   4.717   3.366 -0.0852  0.2029  1.2538
   76CHL1   H2A 6778   2.027   4.743   3.321 -0.2729 -1.4185  0.6666
   76CHL1   H2B 6779   2.131   4.607   3.356  0.5208  0.4410 -2.3840
   76CHL1   C20 6780   2.328   5.069   4.215  0.1546  0.0131  0.0615
   76CHL1   H20 6781   2.383   4.980   4.252  0.1516  0.5508  1.3826
   76CHL1   C21 6782   2.169   5.040   4.230 -0.0580 -0.8295 -0.1853
   76CHL1  H21A 6783   2.109   5.112   4.171  0.5356 -0.1401  0.0365
   76CHL1  H21B 6784   2.138   5.049   4.336 -0.3349  0.8971 -0.3880
   76CHL1  H21C 6785   2.145   4.934   4.203  0.9193 -1.2456  0.5117
   76CHL1   C22 6786   2.357   5.182   4.318  0.5269 -0.6258 -0.4733
   76CHL1  H22A 6787   2.437   5.247   4.274 -0.3523  0.6831 -0.2007
   76CHL1  H22B 6788   2.262   5.238   4.333  0.8825 -0.1336  0.0128
   76CHL1   C23 6789   2.408   5.140   4.455  0.1877  0.6094 -0.3323
   76CHL1  H23A 6790   2.338   5.057   4.480  0.8373  0.0742 -0.2716
   76CHL1  H23B 6791   2.509   5.098   4.435 -0.4806 -0.5588 -1.3412
   76CHL1   C24 6792   2.416   5.251   4.562 -0.2570 -0.0077 -0.5080
   76CHL1  H24A 6793   2.496   5.325   4.537  0.8942 -1.4991 -1.3874
   76CHL1  H24B 6794   2.328   5.319   4.564 -0.8596 -0.7697 -0.9275
   76CHL1   C25 6795   2.438   5.205   4.709 -0.6844  0.3883 -0.5929
   76CHL1   H25 6796   2.353   5.144   4.744 -2.2695  2.4375 -0.6988
   76CHL1   C26 6797   2.555   5.111   4.724 -0.3433 -0.2923  0.6030
   76CHL1  H26A 6798   2.645   5.167   4.691 -0.5440  0.6755  1.6151
   76CHL1  H26B 6799   2.563   5.081   4.831  2.2216  0.8992  0.8042
   76CHL1  H26C 6800   2.534   5.018   4.668 -0.8100  0.2061 -0.0729
   76CHL1   C27 6801   2.444   5.323   4.808 -0.5913 -0.1045  0.1097
   76CHL1  H27A 6802   2.464   5.289   4.912 -0.8830  0.6131  0.4025
   76CHL1  H27B 6803   2.523   5.394   4.776 -1.4277 -0.5393 -3.3723
   76CHL1  H27C 6804   2.350   5.380   4.801 -0.9518 -0.8132 -1.2574
   77SOPE     N 6805   3.765   4.063   7.243 -0.5792 -0.2551 -0.2774
   77SOPE   HN1 6806   3.716   4.154   7.254  0.8666  0.5130 -0.0426
   77SOPE   HN2 6807   3.690   3.991   7.245  0.0428 -0.9964 -1.7325
   77SOPE   HN3 6808   3.828   4.044   7.323 -0.5921 -0.6195 -0.3497
   77SOPE   C12 6809   3.848   4.059   7.116  0.0643 -0.2238 -0.3335
   77SOPE  H12A 6810   3.938   4.124   7.121 -1.4328  2.2598 -2.8413
   77SOPE  H12B 6811   3.786   4.104   7.036  0.6425  0.7981 -0.2219
   77SOPE   C11 6812   3.891   3.917   7.072  0.1778  0.0019  0.7213
   77SOPE  H11A 6813   3.919   3.942   6.967  0.9564  0.5810  1.0481
   77SOPE  H11B 6814   3.809   3.843   7.079  1.4483 -1.3104  2.9699
   77SOPE     P 6815   4.076   3.741   7.084  0.4717 -0.2718  0.3123
   77SOPE   O13 6816   3.979   3.632   7.098 -0.0009 -0.3522  0.1507
   77SOPE   O14 6817   4.205   3.730   7.153  0.0632 -0.1711 -0.4133
   77SOPE   O12 6818   4.008   3.872   7.135 -0.7028  0.0881 -0.1655
   77SOPE   O11 6819   4.086   3.783   6.925  0.1631  0.0517 -0.0735
   77SOPE    C1 6820   4.186   3.879   6.891 -0.3795 -0.0560  0.6727
   77SOPE    HA 6821   4.286   3.852   6.931  0.2483  1.7926  0.4633
   77SOPE    HB 6822   4.151   3.967   6.949 -2.0329 -1.3818  1.7557
   77SOPE    C2 6823   4.201   3.912   6.738  0.6295  0.3241 -0.0416
   77SOPE    HS 6824   4.225   4.020   6.728  0.2985  0.3527 -0.5421
   77SOPE   O21 6825   4.078   3.878   6.665 -0.1376 -0.7511 -0.3216
   77SOPE   C21 6826   3.994   3.986   6.655  0.4868  0.3948  0.1176
   77SOPE   O22 6827   4.026   4.099   6.685 -0.3686  0.4736  0.1200
   77SOPE   C22 6828   3.857   3.941   6.601 -0.5693  0.0756  0.1988
   77SOPE   H2R 6829   3.787   4.027   6.606 -1.7094 -0.8663  1.5348
   77SOPE   H2S 6830   3.822   3.870   6.679  0.6988  2.2405  2.9091
   77SOPE    C3 6831   4.309   3.828   6.675 -0.4760  0.2338  0.0689
   77SOPE    HX 6832   4.311   3.722   6.707  2.5389  0.5402  1.1976
   77SOPE    HY 6833   4.401   3.877   6.714 -0.1840  0.5250 -0.9632
   77SOPE   O31 6834   4.319   3.854   6.530 -0.0846 -0.6328 -0.0569
   77SOPE   C31 6835   4.267   3.752   6.466  0.0924  0.1525  0.2655
   77SOPE   O32 6836   4.203   3.660   6.520 -1.0545 -0.1426 -0.5625
   77SOPE   C32 6837   4.288   3.774   6.319  0.1298  0.0607 -0.1737
   77SOPE   H2X 6838   4.389   3.817   6.305  0.6591 -1.2119 -0.4215
   77SOPE   H2Y 6839   4.206   3.844   6.291 -0.2437 -0.2866  0.0325
   77SOPE   C23 6840   3.859   3.871   6.468  0.3013 -0.0683 -0.2608
   77SOPE   H3R 6841   3.752   3.851   6.447  0.3145  0.1450 -0.5355
   77SOPE   H3S 6842   3.903   3.771   6.484 -3.9843 -1.8940  1.7098
   77SOPE   C24 6843   3.914   3.950   6.347  0.1903 -0.2201 -0.4563
   77SOPE   H4R 6844   4.006   4.008   6.369 -0.1895  0.1810  0.1045
   77SOPE   H4S 6845   3.934   3.877   6.265 -0.7046 -0.6622 -0.2897
   77SOPE   C25 6846   3.811   4.049   6.290 -0.0768  0.1546  0.1396
   77SOPE   H5R 6847   3.718   3.994   6.264 -0.9848  1.0652  1.3792
   77SOPE   H5S 6848   3.779   4.115   6.374  0.9434 -1.3275  1.7655
   77SOPE   C26 6849   3.879   4.133   6.183  0.2556 -0.1667 -0.3570
   77SOPE   H6R 6850   3.979   4.158   6.226  0.8039 -3.3032  0.4093
   77SOPE   H6S 6851   3.897   4.071   6.093 -0.0520  0.9922 -1.2404
   77SOPE   C27 6852   3.808   4.261   6.151  0.9785  0.0572 -0.2745
   77SOPE   H7R 6853   3.707   4.226   6.120  1.9827 -1.7743 -1.6766
   77SOPE   H7S 6854   3.805   4.329   6.239 -1.0405 -1.0794  0.6327
   77SOPE   C28 6855   3.879   4.332   6.033 -0.6069  0.1959 -0.6756
   77SOPE   H8R 6856   3.858   4.441   6.038 -0.1443  0.2304  1.1611
   77SOPE   H8S 6857   3.986   4.331   6.062 -1.0190 -0.8693  0.9586
   77SOPE   C29 6858   3.854   4.268   5.900  0.4191  0.1565 -0.5325
   77SOPE   H91 6859   3.914   4.177   5.882  3.3198  1.2324  2.5197
   77SOPE  C210 6860   3.792   4.324   5.794  0.4717  0.3911 -0.2773
   77SOPE  H101 6861   3.780   4.260   5.705  2.5401 -1.3945  0.6215
   77SOPE  C211 6862   3.734   4.459   5.777  0.3600  0.0204 -0.1532
   77SOPE  H11R 6863   3.720   4.513   5.873 -1.9974  1.1618 -1.0651
   77SOPE  H11S 6864   3.632   4.450   5.733 -0.1525 -0.8552  1.1311
   77SOPE  C212 6865   3.822   4.526   5.670  0.1028 -0.7767 -0.0532
   77SOPE  H12R 6866   3.931   4.514   5.685  0.3527  0.0263 -1.1298
   77SOPE  H12S 6867   3.798   4.634   5.679 -0.2473 -1.0139  2.9713
   77SOPE  C213 6868   3.789   4.480   5.527  0.1756  0.3672  0.0062
   77SOPE  H13R 6869   3.681   4.481   5.503  0.0225 -1.9391  0.4324
   77SOPE  H13S 6870   3.820   4.375   5.512 -1.3291 -0.0482 -0.3274
   77SOPE  C214 6871   3.855   4.571   5.422 -0.3690  1.4495  0.8516
   77SOPE  H14R 6872   3.840   4.672   5.466 -1.6040  0.8204  1.9272
   77SOPE  H14S 6873   3.823   4.553   5.317  0.9381 -0.9480  0.7924
   77SOPE  C215 6874   4.007   4.533   5.409 -0.3401  0.1032 -0.9755
   77SOPE  H15R 6875   4.062   4.525   5.505 -1.0984 -1.6404 -0.6310
   77SOPE  H15S 6876   4.053   4.621   5.360 -2.5035  0.9799 -1.5567
   77SOPE  C216 6877   4.020   4.395   5.331 -0.2379 -0.4268 -0.3688
   77SOPE  H16R 6878   3.923   4.346   5.308  0.3631 -0.2619 -3.8294
   77SOPE  H16S 6879   4.079   4.328   5.396  0.1429 -0.2850 -0.5664
   77SOPE  C217 6880   4.095   4.418   5.199 -0.2453  0.2895 -0.3986
   77SOPE  H17R 6881   4.202   4.424   5.227 -0.9933 -0.4950  3.0747
   77SOPE  H17S 6882   4.052   4.506   5.146  1.3794  0.7514 -0.9836
   77SOPE  C218 6883   4.085   4.309   5.089  0.1993 -0.3324  0.0763
   77SOPE  H18R 6884   4.141   4.347   5.001  0.2490 -2.7351 -1.0092
   77SOPE  H18S 6885   3.986   4.287   5.043  0.8173 -2.2165 -0.4491
   77SOPE  H18T 6886   4.131   4.214   5.124 -0.6140 -0.9423 -0.4842
   77SOPE   C33 6887   4.284   3.635   6.243  0.1508 -0.1688  0.0270
   77SOPE   H3X 6888   4.184   3.588   6.245  0.0117  0.0934 -0.5478
   77SOPE   H3Y 6889   4.343   3.560   6.300  1.1213  1.3366  1.0717
   77SOPE   C34 6890   4.323   3.653   6.099 -0.0160  0.4869  0.0778
   77SOPE   H4X 6891   4.430   3.682   6.091  0.7596 -1.6548  1.9397
   77SOPE   H4Y 6892   4.267   3.745   6.069 -1.9363 -0.4206  0.7686
   77SOPE   C35 6893   4.284   3.543   6.002 -0.0189 -0.1565 -0.3408
   77SOPE   H5X 6894   4.178   3.525   6.027 -0.0935 -0.3980 -0.8134
   77SOPE   H5Y 6895   4.347   3.451   6.008  1.2327  0.6605 -0.4952
   77SOPE   C36 6896   4.298   3.597   5.861  0.4485 -0.6164 -0.4115
   77SOPE   H6X 6897   4.402   3.631   5.844  0.7535 -1.1507  0.3254
   77SOPE   H6Y 6898   4.231   3.684   5.843  0.9175 -0.3797 -1.0189
   77SOPE   C37 6899   4.276   3.498   5.747 -0.4051  0.1932  0.0545
   77SOPE   H7X 6900   4.174   3.455   5.754 -1.1418  1.9332  0.4634
   77SOPE   H7Y 6901   4.349   3.416   5.762 -2.8414 -2.1596 -0.2463
   77SOPE   C38 6902   4.302   3.567   5.608  0.3688 -0.1974  0.6086
   77SOPE   H8X 6903   4.406   3.605   5.603 -0.0764  1.1532  1.0636
   77SOPE   H8Y 6904   4.242   3.661   5.610  0.0027 -0.4081 -0.2744
   77SOPE   C39 6905   4.260   3.476   5.492  0.3746  0.5602  0.6539
   77SOPE   H9X 6906   4.153   3.458   5.516  0.6028  0.8066  1.9435
   77SOPE   H9Y 6907   4.319   3.382   5.498  0.5315  0.5959 -0.2556
   77SOPE  C310 6908   4.274   3.540   5.351 -0.6828  0.0178 -0.5122
   77SOPE  H10X 6909   4.381   3.569   5.341 -0.9747  1.3590 -0.0120
   77SOPE  H10Y 6910   4.199   3.621   5.362 -1.2632 -0.4982 -0.6017
   77SOPE  C311 6911   4.221   3.457   5.236 -0.2944  0.5684 -0.3044
   77SOPE  H11X 6912   4.117   3.431   5.265  0.9363 -2.4905  1.9005
   77SOPE  H11Y 6913   4.282   3.364   5.236  1.1828  1.4969 -0.9585
   77SOPE  C312 6914   4.219   3.525   5.097  0.0666 -0.3140 -0.0941
   77SOPE  H12X 6915   4.319   3.568   5.074  0.6082 -0.8677  1.1573
   77SOPE  H12Y 6916   4.152   3.611   5.118 -0.8507 -1.3646  1.4603
   77SOPE  C313 6917   4.157   3.452   4.988  0.4603  0.7962 -0.2646
   77SOPE  H13X 6918   4.053   3.423   5.018 -0.3111  2.7429 -0.9082
   77SOPE  H13Y 6919   4.215   3.359   4.970  0.5066  0.7862 -0.0668
   77SOPE  C314 6920   4.151   3.523   4.861 -0.4449  0.4315 -0.0346
   77SOPE  H14X 6921   4.251   3.559   4.832  0.3405 -2.3715 -1.1901
   77SOPE  H14Y 6922   4.078   3.607   4.864  0.4197  1.3479 -2.1688
   77SOPE  C315 6923   4.106   3.430   4.743  0.4811 -0.0167 -0.4193
   77SOPE  H15X 6924   4.162   3.334   4.751 -3.6169 -2.5997  0.5958
   77SOPE  H15Y 6925   4.128   3.478   4.645  0.5389 -0.3576 -0.5740
   77SOPE  C316 6926   3.952   3.399   4.757  0.0223  0.7164 -0.4972
   77SOPE  H16X 6927   3.896   3.479   4.704 -2.8489  0.0026  1.2160
   77SOPE  H16Y 6928   3.911   3.399   4.861  0.0761 -1.0437 -0.4527
   77SOPE  C317 6929   3.912   3.263   4.700  0.3749  0.1678 -0.1567
   77SOPE  H17X 6930   3.967   3.244   4.606  1.8718 -0.9764  0.9004
   77SOPE  H17Y 6931   3.806   3.271   4.669  0.3319  1.9505  0.3383
   77SOPE  C318 6932   3.936   3.148   4.808 -0.5629  0.4964  0.3926
   77SOPE  H18X 6933   3.888   3.175   4.904  2.3419  1.2968  1.7175
   77SOPE  H18Y 6934   4.046   3.148   4.826 -0.6365  0.4092  0.8509
   77SOPE  H18Z 6935   3.909   3.053   4.757 -2.3317  0.7806  0.7291
   78SOPE     N 6936   2.760   2.752   7.250 -0.2663 -0.0473 -0.1388
   78SOPE   HN1 6937   2.748   2.650   7.235  4.0321 -0.8591  0.6251
   78SOPE   HN2 6938   2.764   2.753   7.354 -0.5101  1.1209 -0.1330
   78SOPE   HN3 6939   2.681   2.807   7.211 -1.3072 -2.1475 -1.1808
   78SOPE   C12 6940   2.881   2.784   7.166  0.5018  0.2701 -0.5634
   78SOPE  H12A 6941   2.975   2.775   7.225  0.5111  0.2643 -0.5788
   78SOPE  H12B 6942   2.867   2.892   7.145 -0.4203  0.6556  1.8109
   78SOPE   C11 6943   2.889   2.701   7.040  0.0072  0.7783  0.4440
   78SOPE  H11A 6944   2.973   2.737   6.977  0.2266 -1.3635 -0.5862
   78SOPE  H11B 6945   2.801   2.714   6.974 -1.8138 -4.7399  1.2479
   78SOPE     P 6946   2.799   2.451   7.074  0.0352  0.2856 -0.7708
   78SOPE   O13 6947   2.684   2.492   7.161  0.3019 -0.1563 -0.5512
   78SOPE   O14 6948   2.869   2.327   7.114  0.0139  0.8258 -0.2412
   78SOPE   O12 6949   2.912   2.562   7.070 -0.0867 -0.1948  0.1024
   78SOPE   O11 6950   2.752   2.450   6.925  0.6471 -0.2144  0.1629
   78SOPE    C1 6951   2.832   2.402   6.817  0.3660 -0.4582 -0.5363
   78SOPE    HA 6952   2.812   2.294   6.801 -0.6955 -0.0716 -2.0551
   78SOPE    HB 6953   2.939   2.420   6.838  0.2837  1.2852 -1.4173
   78SOPE    C2 6954   2.805   2.480   6.688 -0.1500  0.2292  0.0086
   78SOPE    HS 6955   2.831   2.582   6.723  0.6582  0.3774 -0.9612
   78SOPE   O21 6956   2.674   2.451   6.649 -0.4888  0.2643 -0.0343
   78SOPE   C21 6957   2.612   2.560   6.589 -1.0229  0.8763 -0.4407
   78SOPE   O22 6958   2.663   2.664   6.575 -0.0145 -0.6698  0.6211
   78SOPE   C22 6959   2.469   2.520   6.554 -0.3089 -0.4791 -0.2042
   78SOPE   H2R 6960   2.398   2.597   6.592 -0.0333 -0.7749  0.9552
   78SOPE   H2S 6961   2.441   2.426   6.606 -1.8585  0.1096  0.0863
   78SOPE    C3 6962   2.919   2.436   6.580 -0.5584  0.3582 -0.2614
   78SOPE    HX 6963   2.926   2.326   6.573 -2.2710  0.2223 -0.2145
   78SOPE    HY 6964   3.013   2.463   6.633 -0.2544 -2.5689  0.8833
   78SOPE   O31 6965   2.897   2.498   6.457 -0.6971 -0.4317  0.2442
   78SOPE   C31 6966   2.962   2.611   6.422  0.1978  0.6441 -0.2335
   78SOPE   O32 6967   3.052   2.660   6.481 -0.3654  0.3489  0.0537
   78SOPE   C32 6968   2.890   2.665   6.302  0.3136 -0.2919  0.1827
   78SOPE   H2X 6969   2.845   2.760   6.335 -0.1208  0.0519 -1.3258
   78SOPE   H2Y 6970   2.807   2.599   6.268  1.0903 -1.4249  0.3965
   78SOPE   C23 6971   2.453   2.510   6.399  0.2931  0.1840  0.8419
   78SOPE   H3R 6972   2.471   2.606   6.346  1.8326 -0.7361 -0.3970
   78SOPE   H3S 6973   2.346   2.484   6.387  0.3281 -0.5962  2.0702
   78SOPE   C24 6974   2.546   2.413   6.328  0.0679  0.4021  0.6881
   78SOPE   H4R 6975   2.647   2.456   6.311  0.0778 -0.8168 -3.4058
   78SOPE   H4S 6976   2.555   2.326   6.396 -0.1694 -0.3343 -0.2128
   78SOPE   C25 6977   2.497   2.354   6.197 -0.4197  0.6385  0.0926
   78SOPE   H5R 6978   2.433   2.268   6.225  1.7363 -1.2522 -0.4200
   78SOPE   H5S 6979   2.438   2.429   6.140  0.6573  1.2072 -0.2974
   78SOPE   C26 6980   2.614   2.313   6.106  0.1178 -0.5609 -0.0742
   78SOPE   H6R 6981   2.685   2.255   6.169 -2.8577 -3.0905  1.2208
   78SOPE   H6S 6982   2.564   2.245   6.034  0.0191 -1.0961  0.4922
   78SOPE   C27 6983   2.685   2.430   6.024  0.4359  0.1434 -0.4036
   78SOPE   H7R 6984   2.602   2.500   5.999 -1.1063 -0.9952  1.2821
   78SOPE   H7S 6985   2.738   2.487   6.102  0.5414  0.5552 -0.7721
   78SOPE   C28 6986   2.781   2.399   5.913  0.0552 -0.0687  0.9634
   78SOPE   H8R 6987   2.718   2.362   5.829  0.9576 -1.9382  1.0576
   78SOPE   H8S 6988   2.834   2.493   5.888  2.4047 -1.0480  1.9783
   78SOPE   C29 6989   2.878   2.295   5.955 -1.1018  0.1131 -0.4328
   78SOPE   H91 6990   2.844   2.212   6.019 -0.3954 -0.9913 -1.4517
   78SOPE  C210 6991   3.012   2.299   5.927  0.2461  0.2381  0.3924
   78SOPE  H101 6992   3.083   2.227   5.971  0.5230  1.6602  2.4066
   78SOPE  C211 6993   3.080   2.401   5.836  0.6594 -0.1095  0.0594
   78SOPE  H11R 6994   3.122   2.483   5.897  1.3752 -0.8379  0.5594
   78SOPE  H11S 6995   3.006   2.446   5.766  1.1721 -1.4663 -1.4341
   78SOPE  C212 6996   3.191   2.331   5.768 -0.5376 -0.3932 -0.0364
   78SOPE  H12R 6997   3.143   2.250   5.708  1.9928 -2.2176  0.2656
   78SOPE  H12S 6998   3.252   2.269   5.837 -1.2998 -4.4379 -2.6082
   78SOPE  C213 6999   3.271   2.414   5.674  0.1710  0.3079  0.1576
   78SOPE  H13R 7000   3.340   2.489   5.717 -2.0849  1.4707  1.9807
   78SOPE  H13S 7001   3.196   2.475   5.619 -1.5911 -2.1767 -0.3807
   78SOPE  C214 7002   3.328   2.321   5.570 -0.4759  0.1743  0.8160
   78SOPE  H14R 7003   3.249   2.260   5.522 -0.0951  0.5596 -0.3381
   78SOPE  H14S 7004   3.401   2.259   5.626 -1.3220 -0.0128  1.7316
   78SOPE  C215 7005   3.409   2.384   5.455  0.1347  0.1107  0.9167
   78SOPE  H15R 7006   3.504   2.427   5.494  0.1305  1.0478 -0.0826
   78SOPE  H15S 7007   3.353   2.470   5.415 -0.6391  0.1334  2.0035
   78SOPE  C216 7008   3.448   2.279   5.352 -0.8651 -0.0455 -0.3466
   78SOPE  H16R 7009   3.360   2.230   5.306  0.0990 -1.5737 -0.6470
   78SOPE  H16S 7010   3.504   2.202   5.410  1.0859  1.5648  0.0437
   78SOPE  C217 7011   3.556   2.328   5.255 -0.3785 -0.3849  0.0771
   78SOPE  H17R 7012   3.628   2.393   5.309 -0.1781  0.9256 -1.6705
   78SOPE  H17S 7013   3.506   2.399   5.186 -0.3915  0.8763  1.3387
   78SOPE  C218 7014   3.626   2.220   5.175 -0.2029  1.2273 -1.0802
   78SOPE  H18R 7015   3.681   2.152   5.243  1.8295  0.9558 -2.8901
   78SOPE  H18S 7016   3.707   2.263   5.111  0.3590 -0.4274 -1.5188
   78SOPE  H18T 7017   3.550   2.157   5.123 -2.4842  1.3500  1.8164
   78SOPE   C33 7018   2.987   2.706   6.185 -0.1909 -0.9133 -0.0214
   78SOPE   H3X 7019   3.043   2.619   6.145  0.1060  0.1904 -2.1421
   78SOPE   H3Y 7020   3.064   2.778   6.220  0.0958 -1.2087 -0.0426
   78SOPE   C34 7021   2.894   2.767   6.072 -0.0716  0.3120 -0.1603
   78SOPE   H4X 7022   2.817   2.833   6.119  0.6892  2.0194 -1.2012
   78SOPE   H4Y 7023   2.844   2.681   6.024  0.1076  0.7421 -1.1327
   78SOPE   C35 7024   2.955   2.868   5.970 -0.9584  0.6177  0.3219
   78SOPE   H5X 7025   3.000   2.955   6.023  1.9782 -1.2049  1.0263
   78SOPE   H5Y 7026   2.875   2.906   5.903  0.2500 -1.5093 -2.4897
   78SOPE   C36 7027   3.056   2.808   5.874 -0.2293 -0.7027 -0.2902
   78SOPE   H6X 7028   3.003   2.724   5.823 -1.5525  0.0240 -0.1705
   78SOPE   H6Y 7029   3.138   2.767   5.937 -0.0768 -0.9527 -0.6525
   78SOPE   C37 7030   3.119   2.895   5.769  0.8787  1.3699 -0.0559
   78SOPE   H7X 7031   3.152   2.995   5.804 -0.8141  1.4537  1.4679
   78SOPE   H7Y 7032   3.046   2.911   5.687  0.6507 -1.1416 -0.4107
   78SOPE   C38 7033   3.232   2.817   5.714 -0.3246 -0.0480 -0.1372
   78SOPE   H8X 7034   3.192   2.719   5.679 -1.0216  0.9800 -2.3897
   78SOPE   H8Y 7035   3.306   2.798   5.795  0.2583  0.6069 -0.5036
   78SOPE   C39 7036   3.296   2.882   5.588 -0.8353 -0.4986 -0.4527
   78SOPE   H9X 7037   3.330   2.985   5.609  0.5543 -0.7058 -1.5351
   78SOPE   H9Y 7038   3.223   2.884   5.504 -0.8900  1.4263 -0.3860
   78SOPE  C310 7039   3.414   2.790   5.535  0.0141  0.4581  0.4518
   78SOPE  H10X 7040   3.353   2.707   5.493  1.3557  0.0972 -0.8687
   78SOPE  H10Y 7041   3.477   2.740   5.612 -0.1360  1.0991  0.9971
   78SOPE  C311 7042   3.479   2.857   5.415 -0.5939  0.0090 -0.3264
   78SOPE  H11X 7043   3.395   2.894   5.353  0.2695  1.5461 -0.6247
   78SOPE  H11Y 7044   3.544   2.782   5.365  0.7959  1.0434 -0.1285
   78SOPE  C312 7045   3.565   2.975   5.445  0.0935 -0.1122  0.6011
   78SOPE  H12X 7046   3.639   2.947   5.524 -1.0065  0.5838  1.9251
   78SOPE  H12Y 7047   3.499   3.051   5.492  0.7477 -0.0066  1.3740
   78SOPE  C313 7048   3.649   3.043   5.335 -0.4265  0.2237 -0.0666
   78SOPE  H13X 7049   3.687   3.144   5.364  1.0589  0.1857 -1.7139
   78SOPE  H13Y 7050   3.591   3.048   5.241 -0.5395  1.2201  0.0393
   78SOPE  C314 7051   3.767   2.955   5.288  0.2712 -0.5439 -0.2140
   78SOPE  H14X 7052   3.721   2.857   5.262 -1.4053 -0.0871  0.9149
   78SOPE  H14Y 7053   3.844   2.929   5.364  1.0649  1.9483 -0.1013
   78SOPE  C315 7054   3.847   3.021   5.170 -0.2164  0.2306  0.5666
   78SOPE  H15X 7055   3.780   3.053   5.088 -1.2808  1.6682  1.9328
   78SOPE  H15Y 7056   3.910   2.939   5.128 -0.6012  0.4930 -0.5498
   78SOPE  C316 7057   3.928   3.140   5.207 -0.7037 -0.2238 -0.0723
   78SOPE  H16X 7058   3.872   3.232   5.235  0.3394  0.8765 -1.4832
   78SOPE  H16Y 7059   3.977   3.179   5.115 -1.2064 -0.8823 -0.6289
   78SOPE  C317 7060   4.041   3.111   5.305 -0.1763 -0.9276  1.1005
   78SOPE  H17X 7061   3.986   3.068   5.392 -2.8190 -1.5595 -0.7653
   78SOPE  H17Y 7062   4.091   3.203   5.340  0.4427  0.2729 -2.5498
   78SOPE  C318 7063   4.159   3.020   5.269 -0.2191  1.0166 -0.2330
   78SOPE  H18X 7064   4.227   3.009   5.356 -2.1743 -1.5714  1.1078
   78SOPE  H18Y 7065   4.219   3.068   5.188  2.7612 -0.8117  0.7314
   78SOPE  H18Z 7066   4.125   2.919   5.240  1.4568 -0.1834  1.6982
   79SOPE     N 7067   5.415   3.777   7.099 -0.4846 -0.1240  0.7383
   79SOPE   HN1 7068   5.364   3.852   7.048  1.1904  0.3369 -0.3047
   79SOPE   HN2 7069   5.363   3.736   7.179 -0.8180 -0.5501  0.3079
   79SOPE   HN3 7070   5.498   3.824   7.140  1.0130 -1.1102 -1.0002
   79SOPE   C12 7071   5.474   3.672   7.016  0.5659 -0.5585 -0.0843
   79SOPE  H12A 7072   5.533   3.617   7.093  0.8658 -0.0538  0.0542
   79SOPE  H12B 7073   5.529   3.723   6.935  0.2305 -0.3887 -0.2061
   79SOPE   C11 7074   5.358   3.590   6.952  0.1152  0.5849 -0.2374
   79SOPE  H11A 7075   5.401   3.504   6.896 -0.1496  0.5630 -0.4079
   79SOPE  H11B 7076   5.306   3.656   6.880 -0.8829 -0.2173 -0.2701
   79SOPE     P 7077   5.292   3.384   7.103 -0.1557  0.6780  0.2699
   79SOPE   O13 7078   5.187   3.349   7.204  0.0620  0.2778  0.0437
   79SOPE   O14 7079   5.434   3.364   7.143 -0.4184  0.0677 -0.6029
   79SOPE   O12 7080   5.269   3.536   7.058  0.4538 -0.1681 -0.1887
   79SOPE   O11 7081   5.260   3.313   6.967 -0.1874  0.3068  0.5942
   79SOPE    C1 7082   5.139   3.339   6.899  0.1080 -0.2915  0.4797
   79SOPE    HA 7083   5.110   3.445   6.890 -0.2203 -0.2639  1.6576
   79SOPE    HB 7084   5.062   3.286   6.959  0.7985 -0.7007  1.0180
   79SOPE    C2 7085   5.150   3.273   6.757 -0.2982 -0.0154 -0.2856
   79SOPE    HS 7086   5.151   3.162   6.761  2.0968 -0.0144  0.6899
   79SOPE   O21 7087   5.258   3.324   6.685 -0.4025  0.5674  0.4991
   79SOPE   C21 7088   5.380   3.262   6.696 -0.2380  0.0010  0.1535
   79SOPE   O22 7089   5.398   3.148   6.740 -0.4785 -0.0193 -0.6735
   79SOPE   C22 7090   5.488   3.348   6.626 -0.3361 -0.3508 -0.3296
   79SOPE   H2R 7091   5.544   3.399   6.707  1.2338 -1.8545 -0.4008
   79SOPE   H2S 7092   5.431   3.431   6.579 -1.1283  1.1162  2.9356
   79SOPE    C3 7093   5.031   3.315   6.664  0.6486 -0.2695  0.0470
   79SOPE    HX 7094   5.042   3.425   6.664  0.1166 -0.2106 -0.7212
   79SOPE    HY 7095   4.940   3.297   6.726  1.7366  1.4799  2.3265
   79SOPE   O31 7096   5.030   3.244   6.530  0.3350  0.0522  0.4401
   79SOPE   C31 7097   5.035   3.326   6.421 -0.7586  0.7446  0.4063
   79SOPE   O32 7098   5.012   3.444   6.425 -0.2687  0.4191  0.2523
   79SOPE   C32 7099   5.056   3.242   6.301 -0.4648  0.7909  0.4233
   79SOPE   H2X 7100   4.987   3.155   6.305 -0.8779  1.0622 -0.4738
   79SOPE   H2Y 7101   5.157   3.197   6.313 -0.1795  1.3203  0.0594
   79SOPE   C23 7102   5.577   3.281   6.525  0.0822  0.1216  0.0855
   79SOPE   H3R 7103   5.628   3.197   6.577 -0.2535 -0.7160 -0.8978
   79SOPE   H3S 7104   5.661   3.349   6.496 -0.7845  0.4263 -1.8929
   79SOPE   C24 7105   5.508   3.232   6.403 -0.2603 -0.4972  0.2653
   79SOPE   H4R 7106   5.575   3.162   6.349 -0.3365 -0.1290 -0.3232
   79SOPE   H4S 7107   5.423   3.162   6.416 -1.0174  0.1279 -1.0529
   79SOPE   C25 7108   5.453   3.349   6.306 -0.1890 -0.1090 -0.3705
   79SOPE   H5R 7109   5.357   3.385   6.349 -0.4312 -1.1622  0.0057
   79SOPE   H5S 7110   5.524   3.433   6.292  0.0086 -0.0143  1.0871
   79SOPE   C26 7111   5.429   3.312   6.159 -0.3494  0.3512  0.2703
   79SOPE   H6R 7112   5.352   3.233   6.169 -2.4003  2.1379 -0.6907
   79SOPE   H6S 7113   5.389   3.395   6.097  1.3959  0.1456 -1.2343
   79SOPE   C27 7114   5.557   3.270   6.085 -0.1634 -0.1401  0.3288
   79SOPE   H7R 7115   5.631   3.351   6.097 -0.3219  0.0377  0.1273
   79SOPE   H7S 7116   5.606   3.183   6.134  0.8055 -0.3372 -0.9555
   79SOPE   C28 7117   5.525   3.237   5.933  0.7384  0.4417  0.8085
   79SOPE   H8R 7118   5.452   3.153   5.930  2.1780 -0.8097 -1.4811
   79SOPE   H8S 7119   5.459   3.316   5.890  0.3564 -0.0446  0.4954
   79SOPE   C29 7120   5.635   3.208   5.834  0.4472  1.1213  0.1126
   79SOPE   H91 7121   5.722   3.158   5.878 -0.7132  0.1922  1.4596
   79SOPE  C210 7122   5.616   3.180   5.700 -0.1595  0.1777  0.5206
   79SOPE  H101 7123   5.695   3.140   5.635 -0.3768 -0.1286  0.4408
   79SOPE  C211 7124   5.486   3.190   5.632 -0.3421  0.0556 -0.1977
   79SOPE  H11R 7125   5.433   3.279   5.671  1.9342  0.8701  1.2070
   79SOPE  H11S 7126   5.420   3.106   5.663 -0.4393 -0.5574 -1.9124
   79SOPE  C212 7127   5.500   3.187   5.484 -0.2146  0.6068  0.2049
   79SOPE  H12R 7128   5.401   3.175   5.435  0.5915  1.9346 -1.9551
   79SOPE  H12S 7129   5.569   3.105   5.456 -0.1648  0.6313  0.2545
   79SOPE  C213 7130   5.545   3.321   5.423  0.4938 -0.1583  0.1187
   79SOPE  H13R 7131   5.652   3.338   5.445  1.0211 -1.4563 -1.2577
   79SOPE  H13S 7132   5.491   3.405   5.473  1.1123 -0.5044  1.3937
   79SOPE  C214 7133   5.534   3.337   5.268 -0.1481  0.0301 -0.2038
   79SOPE  H14R 7134   5.431   3.360   5.233  0.2369  0.6841 -0.9469
   79SOPE  H14S 7135   5.555   3.240   5.218 -3.1163 -0.9932  0.2962
   79SOPE  C215 7136   5.622   3.452   5.215  0.3508  0.4200 -0.1833
   79SOPE  H15R 7137   5.721   3.451   5.264  0.5901  3.1305 -0.4263
   79SOPE  H15S 7138   5.580   3.546   5.257  0.3282  0.4184 -0.2023
   79SOPE  C216 7139   5.631   3.468   5.062  0.1289 -0.0944  0.1591
   79SOPE  H16R 7140   5.676   3.373   5.026  0.0652  0.1078 -0.4750
   79SOPE  H16S 7141   5.704   3.546   5.033  1.3578 -1.6928 -1.2235
   79SOPE  C217 7142   5.491   3.490   4.991 -0.3096 -0.0580  0.4007
   79SOPE  H17R 7143   5.447   3.576   5.045 -0.2136 -0.3636  0.9653
   79SOPE  H17S 7144   5.430   3.398   5.005 -1.4151  0.7000  0.6517
   79SOPE  C218 7145   5.503   3.535   4.841  0.0932 -0.2177 -0.2493
   79SOPE  H18R 7146   5.566   3.626   4.830  0.9256 -0.4217  2.1922
   79SOPE  H18S 7147   5.400   3.554   4.805  0.5296  2.1005 -0.4287
   79SOPE  H18T 7148   5.545   3.460   4.771  2.9231  2.2937 -1.4779
   79SOPE   C33 7149   5.041   3.317   6.162 -0.7809  0.1586 -0.4923
   79SOPE   H3X 7150   5.118   3.397   6.159  2.1915 -2.2613  2.5406
   79SOPE   H3Y 7151   4.938   3.355   6.144 -0.5006  1.0331 -0.2862
   79SOPE   C34 7152   5.082   3.242   6.033 -0.5371  0.1867 -0.0952
   79SOPE   H4X 7153   5.002   3.169   6.009  1.1731 -2.5266  1.7869
   79SOPE   H4Y 7154   5.184   3.197   6.034  0.4896  2.3751 -0.2310
   79SOPE   C35 7155   5.102   3.339   5.912  0.3816 -0.2047  0.4927
   79SOPE   H5X 7156   5.177   3.417   5.937 -0.1094  0.5729 -0.4172
   79SOPE   H5Y 7157   5.009   3.399   5.900  1.4988  1.5384  0.2604
   79SOPE   C36 7158   5.122   3.266   5.781 -0.0514  0.3168 -0.0689
   79SOPE   H6X 7159   5.045   3.186   5.775  0.6043 -0.5625  2.2670
   79SOPE   H6Y 7160   5.217   3.210   5.790 -0.3915 -0.0279  1.8960
   79SOPE   C37 7161   5.108   3.357   5.657 -0.0377 -0.6775  0.3773
   79SOPE   H7X 7162   5.193   3.428   5.654  0.6520 -1.3710  2.0795
   79SOPE   H7Y 7163   5.013   3.415   5.653  1.1298  1.2501 -2.3008
   79SOPE   C38 7164   5.120   3.277   5.523 -0.4737 -0.5218 -0.6177
   79SOPE   H8X 7165   5.046   3.194   5.519 -2.2040  0.9942 -1.7805
   79SOPE   H8Y 7166   5.220   3.230   5.518 -1.3546 -2.5469 -0.1951
   79SOPE   C39 7167   5.107   3.368   5.399 -0.1460  0.4341 -0.9379
   79SOPE   H9X 7168   5.204   3.420   5.384  0.1885 -0.3499 -1.5227
   79SOPE   H9Y 7169   5.031   3.449   5.405 -3.3907 -2.4145 -0.5141
   79SOPE  C310 7170   5.095   3.288   5.269  0.2023 -0.6614  0.3905
   79SOPE  H10X 7171   4.994   3.242   5.283 -0.5924  0.3853 -1.4762
   79SOPE  H10Y 7172   5.177   3.213   5.270  0.3589 -0.4789  1.1831
   79SOPE  C311 7173   5.107   3.375   5.145  0.1912 -0.0349  0.7344
   79SOPE  H11X 7174   5.207   3.425   5.142  0.5044 -0.6816  0.1161
   79SOPE  H11Y 7175   5.041   3.463   5.154 -1.1073 -0.9223  0.0962
   79SOPE  C312 7176   5.089   3.297   5.017  0.4752  0.6310 -0.1696
   79SOPE  H12X 7177   4.996   3.236   5.015  0.2364  0.9976 -0.3036
   79SOPE  H12Y 7178   5.167   3.218   5.010  0.9198  0.9250  1.1621
   79SOPE  C313 7179   5.076   3.391   4.897 -0.0682  0.5450  0.4243
   79SOPE  H13X 7180   5.166   3.454   4.881 -0.6053  1.8182  2.1239
   79SOPE  H13Y 7181   4.988   3.458   4.897 -0.3786  0.1651 -0.6373
   79SOPE  C314 7182   5.065   3.303   4.771 -0.0472  0.2509  1.3806
   79SOPE  H14X 7183   4.970   3.245   4.777 -0.3556  0.5079 -0.4602
   79SOPE  H14Y 7184   5.129   3.212   4.770 -2.8895 -1.9064 -0.0776
   79SOPE  C315 7185   5.057   3.375   4.639  0.2103  0.5995 -0.0651
   79SOPE  H15X 7186   5.146   3.439   4.618  1.8345 -1.2196  0.9564
   79SOPE  H15Y 7187   4.959   3.427   4.635  0.3386  0.9802  1.3897
   79SOPE  C316 7188   5.052   3.274   4.523 -0.1768 -0.3211  0.2080
   79SOPE  H16X 7189   5.007   3.330   4.438  3.1733 -0.5064 -1.8737
   79SOPE  H16Y 7190   4.988   3.185   4.538 -2.3264  0.8795 -1.2958
   79SOPE  C317 7191   5.189   3.216   4.480  0.1576  0.2269 -0.1512
   79SOPE  H17X 7192   5.237   3.186   4.575  0.0678  0.8320  0.0905
   79SOPE  H17Y 7193   5.248   3.304   4.445 -1.6878  1.4116 -0.3987
   79SOPE  C318 7194   5.182   3.107   4.371  0.5545  0.2601 -0.0517
   79SOPE  H18X 7195   5.133   3.128   4.274 -2.0930 -0.4446  1.0325
   79SOPE  H18Y 7196   5.119   3.028   4.416 -0.6382  0.6020 -1.0758
   79SOPE  H18Z 7197   5.281   3.059   4.358  0.8030  0.7285  0.0805
   80SOPE     N 7198   2.866   3.980   7.036 -0.6055  0.0951  0.8744
   80SOPE   HN1 7199   2.783   4.042   7.049 -1.2905 -0.6873  0.3630
   80SOPE   HN2 7200   2.950   4.037   7.059 -0.4666 -0.7947  2.7573
   80SOPE   HN3 7201   2.882   3.957   6.936 -0.1392 -0.1344  1.0000
   80SOPE   C12 7202   2.874   3.854   7.115 -0.0928 -0.0596 -0.5496
   80SOPE  H12A 7203   2.862   3.878   7.222 -3.1531 -0.4925 -0.7207
   80SOPE  H12B 7204   2.979   3.815   7.111 -0.2846 -1.0724  2.1553
   80SOPE   C11 7205   2.787   3.747   7.051  0.5301  0.0461 -0.0970
   80SOPE  H11A 7206   2.798   3.658   7.116  0.7422 -0.6901 -1.1131
   80SOPE  H11B 7207   2.826   3.711   6.953  0.3703 -1.5022  0.3814
   80SOPE     P 7208   2.535   3.728   7.094  0.3525  0.3850 -0.0685
   80SOPE   O13 7209   2.416   3.774   7.023 -0.1462 -0.0616 -0.2354
   80SOPE   O14 7210   2.539   3.755   7.240  0.5216 -0.0928 -0.1283
   80SOPE   O12 7211   2.654   3.797   7.021 -0.2488 -0.0412 -0.5661
   80SOPE   O11 7212   2.573   3.577   7.063 -0.3558  0.4761 -0.6649
   80SOPE    C1 7213   2.512   3.505   6.957  0.2095 -0.0933  0.1996
   80SOPE    HA 7214   2.403   3.524   6.947  0.8540  4.0266 -0.6831
   80SOPE    HB 7215   2.522   3.399   6.988  0.0227 -0.1748 -0.0223
   80SOPE    C2 7216   2.610   3.506   6.837  0.4213  0.0131 -0.0350
   80SOPE    HS 7217   2.709   3.483   6.884 -0.0845 -0.3836  0.8582
   80SOPE   O21 7218   2.588   3.632   6.776 -0.2846  0.2228  0.2507
   80SOPE   C21 7219   2.692   3.667   6.710  0.3530 -0.2576  0.1276
   80SOPE   O22 7220   2.804   3.621   6.705 -0.2048  0.4395  0.5691
   80SOPE   C22 7221   2.660   3.796   6.630 -0.9341 -0.2271  0.6569
   80SOPE   H2R 7222   2.750   3.823   6.570 -1.5375  0.3521 -0.0099
   80SOPE   H2S 7223   2.636   3.876   6.704 -2.3586  0.3137 -0.3348
   80SOPE    C3 7224   2.570   3.390   6.739  0.3810 -0.0735  0.0070
   80SOPE    HX 7225   2.465   3.411   6.710 -0.0856  0.1596  1.7469
   80SOPE    HY 7226   2.557   3.301   6.804 -2.1318  0.5883  0.5147
   80SOPE   O31 7227   2.670   3.368   6.637 -0.6665  0.1445 -0.6045
   80SOPE   C31 7228   2.633   3.374   6.512  0.4378  0.5319 -0.1055
   80SOPE   O32 7229   2.520   3.400   6.474  0.5013  0.2116  0.3209
   80SOPE   C32 7230   2.754   3.360   6.419  0.4095  0.0224 -0.5594
   80SOPE   H2X 7231   2.840   3.319   6.478 -0.6646 -1.4086  0.0672
   80SOPE   H2Y 7232   2.774   3.468   6.403 -2.8747  0.7835 -0.2409
   80SOPE   C23 7233   2.530   3.783   6.544 -0.1674 -0.8351  0.2671
   80SOPE   H3R 7234   2.479   3.882   6.551  0.8671 -0.1824 -1.1158
   80SOPE   H3S 7235   2.469   3.711   6.603 -1.0663  1.4093  2.2674
   80SOPE   C24 7236   2.544   3.739   6.389 -0.3865  0.6478  0.0299
   80SOPE   H4R 7237   2.562   3.629   6.389 -0.2049  0.6770 -0.1634
   80SOPE   H4S 7238   2.444   3.751   6.341 -0.4755  0.5316  0.1866
   80SOPE   C25 7239   2.645   3.823   6.307  0.7201  0.9384 -0.2541
   80SOPE   H5R 7240   2.586   3.911   6.276 -0.6281  0.2318  0.2445
   80SOPE   H5S 7241   2.722   3.857   6.380  2.2184 -1.9099 -0.3387
   80SOPE   C26 7242   2.691   3.746   6.184  0.1374  0.6058  0.7711
   80SOPE   H6R 7243   2.781   3.802   6.153  0.2702  0.8155  1.5133
   80SOPE   H6S 7244   2.737   3.651   6.219 -0.1319  0.1960  0.0393
   80SOPE   C27 7245   2.591   3.716   6.067  0.0189 -0.1021  0.2628
   80SOPE   H7R 7246   2.524   3.646   6.120 -1.0971  1.7846  1.4863
   80SOPE   H7S 7247   2.528   3.800   6.031 -1.6421 -0.7083  1.6590
   80SOPE   C28 7248   2.670   3.656   5.950 -1.2198 -0.6386  0.8515
   80SOPE   H8R 7249   2.698   3.745   5.889 -1.7040  1.2769  3.2517
   80SOPE   H8S 7250   2.763   3.612   5.991 -1.6521  0.5803  3.3501
   80SOPE   C29 7251   2.601   3.560   5.858  0.0165 -0.0706 -0.4109
   80SOPE   H91 7252   2.618   3.456   5.888  1.4806  0.6957  1.6589
   80SOPE  C210 7253   2.528   3.598   5.752 -0.1437  0.2416  0.2580
   80SOPE  H101 7254   2.477   3.527   5.686 -0.6882 -0.3751  1.3185
   80SOPE  C211 7255   2.511   3.746   5.712 -0.3201 -0.9105 -0.2383
   80SOPE  H11R 7256   2.604   3.801   5.688 -0.3370 -0.5811  0.4341
   80SOPE  H11S 7257   2.455   3.798   5.793 -1.7910 -0.1251 -1.6970
   80SOPE  C212 7258   2.430   3.762   5.582 -0.1530 -0.0066  0.0086
   80SOPE  H12R 7259   2.364   3.851   5.571 -2.4153 -1.2178  2.7662
   80SOPE  H12S 7260   2.363   3.675   5.564  1.1374 -1.0330  0.0496
   80SOPE  C213 7261   2.522   3.774   5.466 -0.3094 -0.0511 -0.3111
   80SOPE  H13R 7262   2.597   3.691   5.468 -0.6455 -0.3501  0.0306
   80SOPE  H13S 7263   2.575   3.869   5.488  1.3816 -1.1379  0.5712
   80SOPE  C214 7264   2.461   3.775   5.323 -0.3969 -0.5521  0.3103
   80SOPE  H14R 7265   2.536   3.815   5.253 -2.9596  1.2982 -1.5866
   80SOPE  H14S 7266   2.379   3.851   5.318 -0.3347 -0.5467 -0.9116
   80SOPE  C215 7267   2.419   3.627   5.285  0.7035 -0.7042 -0.3740
   80SOPE  H15R 7268   2.332   3.600   5.348  0.7406  2.7697  1.4158
   80SOPE  H15S 7269   2.505   3.558   5.296  1.5283  0.3658  0.0200
   80SOPE  C216 7270   2.386   3.613   5.133 -0.1072 -0.0518 -0.1215
   80SOPE  H16R 7271   2.470   3.645   5.069  0.6587  0.4592  1.0989
   80SOPE  H16S 7272   2.306   3.685   5.103 -0.1269 -0.7507 -1.8389
   80SOPE  C217 7273   2.346   3.472   5.087  0.2143 -0.2021 -0.2535
   80SOPE  H17R 7274   2.286   3.472   4.994 -2.1588  0.4191  1.1901
   80SOPE  H17S 7275   2.281   3.449   5.174  3.5015 -1.9889  1.9627
   80SOPE  C218 7276   2.462   3.369   5.081 -0.3413  0.9429  0.6568
   80SOPE  H18R 7277   2.420   3.271   5.052  0.1955  0.8650  0.1492
   80SOPE  H18S 7278   2.504   3.338   5.179 -1.6710  2.8588  1.9308
   80SOPE  H18T 7279   2.538   3.400   5.007 -2.9253  1.9584 -1.7721
   80SOPE   C33 7280   2.721   3.296   6.281 -0.0704 -0.2419  0.0375
   80SOPE   H3X 7281   2.620   3.330   6.250 -0.8450 -1.3001  1.2782
   80SOPE   H3Y 7282   2.703   3.186   6.279 -0.6126 -0.1899  1.2290
   80SOPE   C34 7283   2.814   3.334   6.169  0.2123  0.5900 -0.2691
   80SOPE   H4X 7284   2.915   3.300   6.200 -1.0110 -2.5247  0.6950
   80SOPE   H4Y 7285   2.810   3.445   6.171 -0.0422  0.5708  0.6846
   80SOPE   C35 7286   2.757   3.277   6.039 -0.1058 -0.3750 -0.3568
   80SOPE   H5X 7287   2.654   3.316   6.026 -0.4408 -1.6632 -1.8490
   80SOPE   H5Y 7288   2.748   3.169   6.059 -1.8453  0.1428  2.0419
   80SOPE   C36 7289   2.854   3.305   5.926 -0.4178 -1.1582  0.0521
   80SOPE   H6X 7290   2.955   3.266   5.954  0.0211  0.0179  0.1504
   80SOPE   H6Y 7291   2.870   3.414   5.909 -0.0697 -1.3624 -1.0471
   80SOPE   C37 7292   2.812   3.233   5.797  0.3235 -0.0450  0.3311
   80SOPE   H7X 7293   2.705   3.240   5.770  0.4373  0.5380  0.0120
   80SOPE   H7Y 7294   2.825   3.123   5.799 -0.5855 -0.1577  0.5917
   80SOPE   C38 7295   2.887   3.279   5.672  1.1109 -0.1560 -0.1091
   80SOPE   H8X 7296   2.996   3.267   5.686  0.8812 -1.2134  0.8770
   80SOPE   H8Y 7297   2.867   3.387   5.652 -0.2760 -0.6972 -2.0025
   80SOPE   C39 7298   2.827   3.214   5.540 -0.3156  0.8381 -0.2046
   80SOPE   H9X 7299   2.720   3.242   5.544 -1.2187 -2.4114  0.7588
   80SOPE   H9Y 7300   2.833   3.104   5.554 -0.3613  1.0500  1.7192
   80SOPE  C310 7301   2.898   3.265   5.416 -0.5185  0.1746 -0.6880
   80SOPE  H10X 7302   2.896   3.376   5.409 -2.3754  0.1384 -1.1391
   80SOPE  H10Y 7303   2.849   3.219   5.327  0.2149 -0.7724 -0.6184
   80SOPE  C311 7304   3.048   3.216   5.417 -0.5033  0.6313 -0.2580
   80SOPE  H11X 7305   3.044   3.110   5.451 -1.9169  0.3343 -1.2745
   80SOPE  H11Y 7306   3.117   3.272   5.484 -1.5683  1.0457  0.5229
   80SOPE  C312 7307   3.096   3.196   5.270  0.3793 -0.0378  0.7448
   80SOPE  H12X 7308   3.098   3.291   5.213  1.7023 -0.4594  0.0511
   80SOPE  H12Y 7309   3.027   3.124   5.221 -0.9681  0.5207  1.7343
   80SOPE  C313 7310   3.233   3.130   5.267 -0.2013  0.0224  0.3872
   80SOPE  H13X 7311   3.214   3.035   5.322  1.3352  0.3359  1.5053
   80SOPE  H13Y 7312   3.311   3.185   5.324 -0.7614  1.5586 -0.2772
   80SOPE  C314 7313   3.288   3.096   5.128  0.3985 -0.6511 -0.2116
   80SOPE  H14X 7314   3.219   3.027   5.073  0.6044 -1.1127  0.1015
   80SOPE  H14Y 7315   3.381   3.036   5.126  1.9401  1.6520 -0.2350
   80SOPE  C315 7316   3.329   3.222   5.056  0.2294 -0.0869  0.2611
   80SOPE  H15X 7317   3.377   3.288   5.132 -1.6577 -1.0552  2.4273
   80SOPE  H15Y 7318   3.249   3.282   5.008  0.0513 -0.0378  0.6156
   80SOPE  C316 7319   3.432   3.195   4.940 -0.4856 -0.0051  0.0884
   80SOPE  H16X 7320   3.393   3.125   4.864  0.3323  1.2214 -1.5342
   80SOPE  H16Y 7321   3.530   3.161   4.980  0.1575  1.1030 -0.4850
   80SOPE  C317 7322   3.471   3.329   4.868  0.2705 -0.8180  0.4731
   80SOPE  H17X 7323   3.386   3.398   4.849  2.5465  1.7579 -1.2219
   80SOPE  H17Y 7324   3.519   3.301   4.772  1.8538 -1.0109  1.2820
   80SOPE  C318 7325   3.567   3.410   4.948 -0.2284  0.4203  0.0710
   80SOPE  H18X 7326   3.605   3.493   4.883 -0.2637 -0.5905 -1.2949
   80SOPE  H18Y 7327   3.651   3.344   4.979 -1.2039  0.1403  2.2486
   80SOPE  H18Z 7328   3.528   3.455   5.041 -0.6628  2.6678 -1.1179
   81SOPE     N 7329   5.986   1.102   6.804  0.0859  0.4635 -0.0028
   81SOPE   HN1 7330   6.004   1.078   6.903 -3.8885 -0.8558  0.6087
   81SOPE   HN2 7331   6.055   1.040   6.757  3.3203  1.9919  2.3752
   81SOPE   HN3 7332   6.015   1.199   6.779  1.7432  0.3842  1.4323
   81SOPE   C12 7333   5.840   1.064   6.763 -0.3047  0.3604  0.2770
   81SOPE  H12A 7334   5.835   1.104   6.660  1.7848 -1.8224 -0.7459
   81SOPE  H12B 7335   5.778   1.127   6.831 -0.1454  2.2282 -1.2193
   81SOPE   C11 7336   5.803   0.915   6.774  0.2029 -0.4245 -0.5783
   81SOPE  H11A 7337   5.864   0.860   6.699  1.6062 -0.9607  0.8941
   81SOPE  H11B 7338   5.702   0.912   6.730  0.0776  0.6473 -0.3836
   81SOPE     P 7339   5.904   0.764   6.951 -0.1140 -0.1093  0.0445
   81SOPE   O13 7340   5.883   0.637   6.875 -0.7648 -0.4719  0.2494
   81SOPE   O14 7341   5.898   0.752   7.095 -0.6596 -0.1817 -0.2056
   81SOPE   O12 7342   5.800   0.865   6.909 -0.4004 -0.3268 -0.3354
   81SOPE   O11 7343   6.041   0.827   6.901 -0.5396  0.2194 -0.7019
   81SOPE    C1 7344   6.156   0.739   6.931 -0.1478 -0.2194 -0.1656
   81SOPE    HA 7345   6.134   0.631   6.943 -1.7060 -0.0672 -1.3949
   81SOPE    HB 7346   6.186   0.773   7.033 -0.1419 -1.3826  0.2313
   81SOPE    C2 7347   6.277   0.753   6.834 -0.0896 -0.2056 -0.0144
   81SOPE    HS 7348   6.325   0.852   6.847 -2.0699  0.6338  1.4829
   81SOPE   O21 7349   6.240   0.732   6.697 -0.2318  0.5048  0.0701
   81SOPE   C21 7350   6.182   0.834   6.636  0.2174 -0.2849  0.0183
   81SOPE   O22 7351   6.172   0.947   6.674  0.1511  0.2990 -0.0083
   81SOPE   C22 7352   6.127   0.776   6.509  1.0189  0.2446  0.7242
   81SOPE   H2R 7353   6.073   0.682   6.531  1.2939 -0.9069 -2.7683
   81SOPE   H2S 7354   6.217   0.742   6.453 -0.4179 -0.7066 -1.1284
   81SOPE    C3 7355   6.380   0.640   6.871 -0.1620 -0.1892  0.4445
   81SOPE    HX 7356   6.338   0.539   6.851 -0.7564 -0.0891  1.1416
   81SOPE    HY 7357   6.403   0.639   6.980  0.0069  0.5462  0.4167
   81SOPE   O31 7358   6.510   0.663   6.799 -0.2005 -0.5706 -0.2149
   81SOPE   C31 7359   6.523   0.589   6.684  0.0168  0.0360  0.4994
   81SOPE   O32 7360   6.439   0.509   6.644  0.0125  0.3567  0.1872
   81SOPE   C32 7361   6.659   0.620   6.620  0.1492 -0.7476  0.3714
   81SOPE   H2X 7362   6.730   0.572   6.691 -0.4085 -1.6490  0.3282
   81SOPE   H2Y 7363   6.666   0.731   6.617  0.4452 -0.7213  1.5132
   81SOPE   C23 7364   6.055   0.885   6.427  0.6811 -0.3713  0.8835
   81SOPE   H3R 7365   6.109   0.982   6.420 -1.0328  0.5154 -1.2081
   81SOPE   H3S 7366   5.956   0.913   6.470  0.5593  3.9728 -1.6625
   81SOPE   C24 7367   6.032   0.839   6.280 -0.1773  0.1112 -0.4432
   81SOPE   H4R 7368   6.123   0.816   6.222  0.0694 -1.7401  0.6015
   81SOPE   H4S 7369   5.979   0.742   6.270  2.2282 -1.5897  1.9577
   81SOPE   C25 7370   5.950   0.949   6.209 -0.6313  0.1201  0.4237
   81SOPE   H5R 7371   5.852   0.977   6.253  0.3386  0.2252  2.6679
   81SOPE   H5S 7372   5.999   1.049   6.204 -2.2947  0.9388 -3.4348
   81SOPE   C26 7373   5.927   0.897   6.068 -0.1177  0.0843 -0.3019
   81SOPE   H6R 7374   6.027   0.862   6.032  1.0297 -0.2250  2.8612
   81SOPE   H6S 7375   5.849   0.818   6.072 -0.7192  0.5987 -1.4823
   81SOPE   C27 7376   5.871   1.001   5.972  0.2530 -0.5387 -0.4928
   81SOPE   H7R 7377   5.777   1.035   6.023 -0.6297 -0.8257 -1.8787
   81SOPE   H7S 7378   5.943   1.085   5.977  0.9882 -1.2251  2.2053
   81SOPE   C28 7379   5.830   0.968   5.823 -0.5488  0.0247  0.7629
   81SOPE   H8R 7380   5.766   0.878   5.832  0.1900 -0.5898  0.0947
   81SOPE   H8S 7381   5.758   1.043   5.784 -1.8724 -2.8092 -2.7830
   81SOPE   C29 7382   5.951   0.949   5.725  0.6153  0.2589  0.0097
   81SOPE   H91 7383   6.043   0.907   5.769  0.3706  0.7298  1.0080
   81SOPE  C210 7384   5.937   0.961   5.588  0.5371 -0.0578 -0.2806
   81SOPE  H101 7385   6.028   0.943   5.529 -0.4338 -1.8835 -1.3131
   81SOPE  C211 7386   5.821   1.006   5.501 -0.0781  0.3246 -0.4215
   81SOPE  H11R 7387   5.853   1.064   5.412  0.7636  0.7543  0.1480
   81SOPE  H11S 7388   5.747   1.061   5.564 -2.2066 -0.1099 -2.4185
   81SOPE  C212 7389   5.745   0.876   5.468  0.0708 -0.2518 -0.6417
   81SOPE  H12R 7390   5.641   0.903   5.442 -0.0470 -0.8944 -0.8711
   81SOPE  H12S 7391   5.747   0.802   5.552  2.1636 -0.2342 -0.6061
   81SOPE  C213 7392   5.820   0.809   5.350  0.4271 -0.1683  0.5723
   81SOPE  H13R 7393   5.930   0.824   5.350  0.2484  1.2991 -0.0318
   81SOPE  H13S 7394   5.782   0.874   5.268  1.6533  1.2280  1.0632
   81SOPE  C214 7395   5.801   0.657   5.325  0.2340 -0.0617 -0.1418
   81SOPE  H14R 7396   5.691   0.642   5.322  0.2305  0.0379 -2.0313
   81SOPE  H14S 7397   5.842   0.611   5.417 -3.4979  0.2010  1.8218
   81SOPE  C215 7398   5.863   0.603   5.196  0.6472 -0.4297  0.4202
   81SOPE  H15R 7399   5.897   0.498   5.203 -1.3383 -1.2365 -1.0527
   81SOPE  H15S 7400   5.948   0.668   5.166 -1.2226  1.7638 -0.4303
   81SOPE  C216 7401   5.765   0.598   5.084  0.2181  0.9961 -0.1658
   81SOPE  H16R 7402   5.718   0.696   5.060  1.8565  1.4979 -1.5225
   81SOPE  H16S 7403   5.683   0.526   5.103 -0.2162  1.7150  0.7584
   81SOPE  C217 7404   5.834   0.545   4.959  0.4327 -0.4083 -0.3447
   81SOPE  H17R 7405   5.887   0.449   4.975 -0.0870 -1.0994 -2.4555
   81SOPE  H17S 7406   5.917   0.615   4.937  0.9869 -0.7219  0.6758
   81SOPE  C218 7407   5.749   0.527   4.832 -0.0980  0.6679  0.1003
   81SOPE  H18R 7408   5.688   0.617   4.810  2.3399  2.7839  1.4199
   81SOPE  H18S 7409   5.703   0.426   4.832  3.3014 -1.0453 -0.3945
   81SOPE  H18T 7410   5.822   0.516   4.749 -0.9894 -1.0287 -0.5091
   81SOPE   C33 7411   6.670   0.551   6.486 -0.3506 -0.7417  0.2931
   81SOPE   H3X 7412   6.639   0.445   6.492  0.6414 -0.9850  1.7568
   81SOPE   H3Y 7413   6.778   0.557   6.459  0.2736  2.5187  2.8350
   81SOPE   C34 7414   6.590   0.629   6.381 -0.2271 -0.4615  0.0938
   81SOPE   H4X 7415   6.625   0.733   6.365 -0.6445 -0.3843 -0.3463
   81SOPE   H4Y 7416   6.483   0.630   6.410 -0.2394  0.2260  0.0295
   81SOPE   C35 7417   6.594   0.558   6.243  0.2757 -0.0305  0.2173
   81SOPE   H5X 7418   6.513   0.600   6.179  0.1339  0.9308  1.0148
   81SOPE   H5Y 7419   6.567   0.451   6.255 -2.0630  0.4408 -0.3548
   81SOPE   C36 7420   6.727   0.558   6.170 -0.8171 -0.1276  0.6535
   81SOPE   H6X 7421   6.794   0.477   6.205  1.3310  2.4270  2.8760
   81SOPE   H6Y 7422   6.790   0.645   6.199  1.2625 -0.7747 -1.6463
   81SOPE   C37 7423   6.709   0.542   6.016 -0.0467  0.1586 -0.6415
   81SOPE   H7X 7424   6.635   0.618   5.985  1.5900  1.4446 -1.5328
   81SOPE   H7Y 7425   6.680   0.446   5.968  0.1367 -0.5445  0.6008
   81SOPE   C38 7426   6.841   0.580   5.947 -0.6725  0.2830 -0.6927
   81SOPE   H8X 7427   6.937   0.542   5.989 -0.1595  0.2319 -1.8678
   81SOPE   H8Y 7428   6.837   0.691   5.944 -1.7354  0.3246  1.0628
   81SOPE   C39 7429   6.847   0.513   5.803 -0.4859 -0.1371  0.1958
   81SOPE   H9X 7430   6.770   0.576   5.753 -1.2774 -1.1256  0.1561
   81SOPE   H9Y 7431   6.810   0.409   5.812 -0.5274 -0.3170 -1.7029
   81SOPE  C310 7432   6.981   0.527   5.735  0.1195 -0.2922  0.4595
   81SOPE  H10X 7433   7.051   0.472   5.802  0.8534 -0.7843 -0.6806
   81SOPE  H10Y 7434   7.010   0.632   5.759  1.0034 -1.0372  3.0525
   81SOPE  C311 7435   6.984   0.483   5.589 -0.2816  0.1038 -0.2513
   81SOPE  H11X 7436   6.917   0.555   5.537  0.1913  1.0296  0.3862
   81SOPE  H11Y 7437   6.939   0.382   5.580  0.6604 -0.2908 -0.6903
   81SOPE  C312 7438   7.128   0.474   5.522 -0.7996 -1.0056 -0.9245
   81SOPE  H12X 7439   7.190   0.400   5.577 -0.4940  0.8970  1.4531
   81SOPE  H12Y 7440   7.169   0.577   5.530 -2.3057 -0.3513 -1.3351
   81SOPE  C313 7441   7.121   0.420   5.386  0.2655  0.2000 -0.6717
   81SOPE  H13X 7442   7.071   0.321   5.394  1.3886 -0.4032 -0.8847
   81SOPE  H13Y 7443   7.222   0.393   5.349  0.4011 -0.3872  0.0921
   81SOPE  C314 7444   7.059   0.514   5.288  0.2281  0.0280  0.7372
   81SOPE  H14X 7445   7.117   0.609   5.292  1.5426 -0.6271 -1.3403
   81SOPE  H14Y 7446   6.953   0.529   5.318 -0.7665  1.2402 -2.8671
   81SOPE  C315 7447   7.065   0.463   5.137 -0.4103  0.4330 -0.3081
   81SOPE  H15X 7448   7.011   0.366   5.135 -0.2177  0.3304 -1.1000
   81SOPE  H15Y 7449   7.173   0.438   5.126  0.1365  2.0042  1.0540
   81SOPE  C316 7450   7.036   0.568   5.033 -0.3529 -0.7871 -0.7750
   81SOPE  H16X 7451   6.928   0.562   5.005 -0.7309  0.8008  0.1790
   81SOPE  H16Y 7452   7.098   0.541   4.946  1.2671 -2.8800  0.9096
   81SOPE  C317 7453   7.082   0.716   5.065 -0.8401  0.4599 -0.3026
   81SOPE  H17X 7454   7.190   0.700   5.085 -0.5498 -0.8420 -2.5400
   81SOPE  H17Y 7455   7.044   0.759   5.161 -2.1679  2.2480 -1.5583
   81SOPE  C318 7456   7.046   0.814   4.957 -0.5757 -0.0945 -0.1465
   81SOPE  H18X 7457   7.064   0.917   4.994  0.7669  0.2921 -1.7488
   81SOPE  H18Y 7458   6.937   0.799   4.945 -0.5951  0.2193 -0.3428
   81SOPE  H18Z 7459   7.095   0.794   4.859  0.1751 -0.7603  0.3531
   82SOPE     N 7460   3.968   0.019   7.084 -0.8411 -0.1599 -0.2637
   82SOPE   HN1 7461   4.046  -0.037   7.045  1.5456  1.8600  1.2719
   82SOPE   HN2 7462   3.897  -0.054   7.103  0.1809 -1.8342 -2.4594
   82SOPE   HN3 7463   3.931   0.083   7.010  0.8165  0.3020 -0.7589
   82SOPE   C12 7464   4.029   0.086   7.197 -0.2613 -0.2194  0.1007
   82SOPE  H12A 7465   4.085   0.007   7.252 -0.3676 -0.6616 -0.4112
   82SOPE  H12B 7466   3.948   0.110   7.269  0.7989 -1.3980  1.7744
   82SOPE   C11 7467   4.110   0.207   7.167 -0.8451 -0.5251 -0.3992
   82SOPE  H11A 7468   4.162   0.244   7.258  0.6133 -0.2643 -1.3050
   82SOPE  H11B 7469   4.038   0.285   7.134  0.1838  1.3436  1.4702
   82SOPE     P 7470   4.205   0.250   6.923  0.3018  0.0388 -0.0036
   82SOPE   O13 7471   4.316   0.211   6.830 -0.3899 -0.1893  0.1364
   82SOPE   O14 7472   4.177   0.400   6.927 -0.3785  1.2483  0.1266
   82SOPE   O12 7473   4.216   0.180   7.071 -0.4867 -0.5918  0.2317
   82SOPE   O11 7474   4.077   0.174   6.875 -0.2654  0.3635 -0.4686
   82SOPE    C1 7475   4.072   0.135   6.742 -0.2812  0.2967  0.7913
   82SOPE    HA 7476   4.018   0.038   6.731  0.3642  0.1980 -3.1822
   82SOPE    HB 7477   4.173   0.118   6.700 -0.3743  1.3200  0.1061
   82SOPE    C2 7478   4.004   0.250   6.651 -0.1563  0.2075 -0.4631
   82SOPE    HS 7479   4.082   0.329   6.641 -0.5247  0.8685  1.4043
   82SOPE   O21 7480   3.880   0.301   6.701  1.1186  0.7763 -0.4006
   82SOPE   C21 7481   3.843   0.420   6.660  0.3117 -0.2844 -0.0218
   82SOPE   O22 7482   3.917   0.494   6.596 -0.1409  0.4215  0.5373
   82SOPE   C22 7483   3.702   0.455   6.704  0.2070 -0.0930  0.2199
   82SOPE   H2R 7484   3.682   0.562   6.684  1.9589  0.7166  2.3507
   82SOPE   H2S 7485   3.700   0.434   6.813  0.0298 -1.3249  0.0024
   82SOPE    C3 7486   3.978   0.183   6.513  0.2115 -0.5073 -0.2857
   82SOPE    HX 7487   3.923   0.090   6.537  1.9411 -1.3424  0.5906
   82SOPE    HY 7488   4.079   0.159   6.474  0.3217 -1.1976  0.3990
   82SOPE   O31 7489   3.906   0.275   6.422  0.3445  0.3397 -0.3789
   82SOPE   C31 7490   3.988   0.365   6.357  0.1831 -0.3123 -0.0658
   82SOPE   O32 7491   4.108   0.370   6.370 -0.2714 -0.9059 -0.7637
   82SOPE   C32 7492   3.905   0.461   6.276 -0.0739  0.7964  0.1526
   82SOPE   H2X 7493   3.980   0.539   6.251  0.0059  1.2268  1.6313
   82SOPE   H2Y 7494   3.828   0.503   6.345 -1.0810  0.5977 -0.8255
   82SOPE   C23 7495   3.590   0.353   6.644 -0.3535 -0.2618  0.5260
   82SOPE   H3R 7496   3.497   0.361   6.704 -1.3898  0.2140 -1.0867
   82SOPE   H3S 7497   3.641   0.255   6.662  0.3487 -0.1998 -0.9716
   82SOPE   C24 7498   3.560   0.376   6.493 -0.7428 -0.7799 -0.0291
   82SOPE   H4R 7499   3.512   0.475   6.485  0.7493 -0.1152 -1.2501
   82SOPE   H4S 7500   3.653   0.368   6.433 -0.1286  0.6069  0.6982
   82SOPE   C25 7501   3.456   0.281   6.446 -0.2839 -0.5925 -0.6488
   82SOPE   H5R 7502   3.487   0.180   6.479 -0.1232 -0.1240  0.6776
   82SOPE   H5S 7503   3.354   0.302   6.485 -0.5251 -0.3259 -1.3968
   82SOPE   C26 7504   3.439   0.279   6.293 -0.9460 -0.6949 -0.2677
   82SOPE   H6R 7505   3.396   0.377   6.263 -0.2892 -0.4054 -0.2660
   82SOPE   H6S 7506   3.534   0.269   6.237 -0.4162 -1.1695  0.6744
   82SOPE   C27 7507   3.338   0.171   6.245  0.2478  0.2399 -0.0625
   82SOPE   H7R 7508   3.368   0.077   6.296 -1.1913 -0.2787 -0.1380
   82SOPE   H7S 7509   3.236   0.193   6.284 -0.2849 -0.2369 -1.1403
   82SOPE   C28 7510   3.345   0.146   6.094  0.2792  0.6358 -0.6332
   82SOPE   H8R 7511   3.452   0.118   6.086  0.4651  0.9250  0.6692
   82SOPE   H8S 7512   3.288   0.060   6.051  2.1059 -0.1004 -1.6959
   82SOPE   C29 7513   3.308   0.276   6.025 -0.2511 -0.1333 -0.3811
   82SOPE   H91 7514   3.228   0.337   6.071  2.7354  3.4840  0.5125
   82SOPE  C210 7515   3.388   0.326   5.928 -0.5722  1.0170  0.4557
   82SOPE  H101 7516   3.368   0.420   5.873  1.3632  0.9671 -0.3843
   82SOPE  C211 7517   3.507   0.265   5.855 -0.5801  0.4425 -0.2739
   82SOPE  H11R 7518   3.562   0.191   5.918  0.9131  2.9119  1.4715
   82SOPE  H11S 7519   3.578   0.344   5.826  1.8525 -1.2215  0.7967
   82SOPE  C212 7520   3.471   0.196   5.721  0.0590  0.1403  0.0219
   82SOPE  H12R 7521   3.564   0.160   5.672 -0.9159 -1.6862 -0.5798
   82SOPE  H12S 7522   3.416   0.259   5.647  1.1670 -1.4568 -2.3008
   82SOPE  C213 7523   3.364   0.085   5.733  0.3368 -0.3711  1.0163
   82SOPE  H13R 7524   3.263   0.112   5.771 -0.0212  0.9911 -0.7756
   82SOPE  H13S 7525   3.400   0.001   5.796  0.2480 -1.4029 -0.2703
   82SOPE  C214 7526   3.354   0.001   5.591  0.3248 -0.5409 -0.0291
   82SOPE  H14R 7527   3.302  -0.093   5.618 -0.5179  0.7240  3.2808
   82SOPE  H14S 7528   3.451  -0.037   5.552  0.2409 -0.2242 -0.5623
   82SOPE  C215 7529   3.286   0.082   5.481  0.3093 -0.0988 -0.1838
   82SOPE  H15R 7530   3.259   0.004   5.406  0.9269 -1.2496  0.7449
   82SOPE  H15S 7531   3.356   0.153   5.433  1.6061 -1.2010  0.0029
   82SOPE  C216 7532   3.160   0.157   5.530 -0.3005  0.1888 -0.2629
   82SOPE  H16R 7533   3.136   0.220   5.441  0.1406  0.9795  0.1755
   82SOPE  H16S 7534   3.178   0.232   5.609  0.8645  0.4663 -0.7679
   82SOPE  C217 7535   3.046   0.071   5.570  0.4484  0.4226 -0.1927
   82SOPE  H17R 7536   3.070   0.014   5.662  0.3731 -2.6820 -1.9672
   82SOPE  H17S 7537   3.027  -0.011   5.498  2.1997 -0.7598  0.6332
   82SOPE  C218 7538   2.924   0.153   5.594 -0.6238 -0.0822  0.5430
   82SOPE  H18R 7539   2.898   0.217   5.506  1.0286 -0.3645 -0.1892
   82SOPE  H18S 7540   2.940   0.225   5.677 -2.6889  1.5007 -0.3168
   82SOPE  H18T 7541   2.833   0.097   5.626 -0.8996  0.4410  0.6942
   82SOPE   C33 7542   3.831   0.402   6.155 -0.8475  0.0874  0.1462
   82SOPE   H3X 7543   3.752   0.471   6.117  3.4361  4.3570 -2.1808
   82SOPE   H3Y 7544   3.780   0.304   6.168 -0.9675  0.3103  1.4777
   82SOPE   C34 7545   3.918   0.397   6.031 -0.1340  0.4272 -0.5080
   82SOPE   H4X 7546   3.993   0.317   6.048 -0.8662 -0.7276 -2.4201
   82SOPE   H4Y 7547   3.986   0.485   6.032  0.1922  0.2696  2.6354
   82SOPE   C35 7548   3.855   0.366   5.895  0.2595  0.1392  0.1233
   82SOPE   H5X 7549   3.780   0.446   5.874  2.1690  1.1294 -3.7338
   82SOPE   H5Y 7550   3.800   0.270   5.906  0.3590  0.1702  1.0073
   82SOPE   C36 7551   3.947   0.372   5.774  0.0799 -0.1380 -0.5453
   82SOPE   H6X 7552   4.015   0.284   5.786  0.4608  0.2910  0.6928
   82SOPE   H6Y 7553   3.998   0.469   5.793 -1.5921  0.8905 -1.0411
   82SOPE   C37 7554   3.882   0.367   5.633 -0.2206 -0.2975 -0.4314
   82SOPE   H7X 7555   3.846   0.472   5.624 -1.8935 -0.6641  1.2805
   82SOPE   H7Y 7556   3.792   0.302   5.622 -0.2170 -0.3738 -0.0274
   82SOPE   C38 7557   3.970   0.331   5.507 -0.1628 -0.2628  0.2856
   82SOPE   H8X 7558   4.006   0.228   5.526 -0.9116 -0.5622  0.1247
   82SOPE   H8Y 7559   4.064   0.390   5.503  0.9545 -1.8963  1.2336
   82SOPE   C39 7560   3.898   0.347   5.375  0.0248 -0.2365 -0.8092
   82SOPE   H9X 7561   3.862   0.452   5.363  2.5807  0.6329 -1.5655
   82SOPE   H9Y 7562   3.814   0.275   5.385 -1.5207  1.6309  0.5737
   82SOPE  C310 7563   3.971   0.307   5.245  0.3316 -0.3603 -0.0546
   82SOPE  H10X 7564   3.992   0.198   5.258  1.0169 -0.9274 -4.3022
   82SOPE  H10Y 7565   4.061   0.372   5.241 -0.6288  0.9679 -2.6002
   82SOPE  C311 7566   3.886   0.306   5.114 -0.6974 -0.3979  0.0129
   82SOPE  H11X 7567   3.947   0.258   5.035  1.0608  1.3278  0.2414
   82SOPE  H11Y 7568   3.859   0.414   5.104  1.4507  0.2280  0.3500
   82SOPE  C312 7569   3.757   0.217   5.125  0.0123 -0.2239 -0.2075
   82SOPE  H12X 7570   3.699   0.254   5.213 -1.2626 -1.3173 -0.5583
   82SOPE  H12Y 7571   3.781   0.113   5.157  0.7366 -0.5007 -1.6021
   82SOPE  C313 7572   3.676   0.201   5.001  1.1645  0.4536 -0.1691
   82SOPE  H13X 7573   3.669   0.297   4.945 -0.4440  1.2648  1.3507
   82SOPE  H13Y 7574   3.567   0.184   5.011  1.2663  0.8674  2.0341
   82SOPE  C314 7575   3.723   0.101   4.899 -0.5987 -0.0298 -0.1760
   82SOPE  H14X 7576   3.705   0.007   4.955 -0.7156 -1.0639 -1.8681
   82SOPE  H14Y 7577   3.833   0.113   4.894 -0.5433  1.0065  2.4529
   82SOPE  C315 7578   3.650   0.118   4.766  0.5855 -0.8536 -0.2458
   82SOPE  H15X 7579   3.685   0.214   4.722  1.9355 -0.4533  1.5407
   82SOPE  H15Y 7580   3.540   0.127   4.779  0.8902 -0.6024  2.8522
   82SOPE  C316 7581   3.674  -0.008   4.685  0.0578 -0.1486  0.0911
   82SOPE  H16X 7582   3.613  -0.092   4.724 -2.3286  0.3322 -2.3342
   82SOPE  H16Y 7583   3.784  -0.019   4.696  0.0726 -1.4606 -1.1159
   82SOPE  C317 7584   3.656   0.011   4.536 -0.5159 -0.5683 -0.4468
   82SOPE  H17X 7585   3.712   0.099   4.499 -1.5369 -0.6371 -2.2998
   82SOPE  H17Y 7586   3.555   0.036   4.495  0.0356  2.4780 -0.1708
   82SOPE  C318 7587   3.697  -0.119   4.471 -0.1650  0.2759  0.6559
   82SOPE  H18X 7588   3.611  -0.187   4.484 -0.5814  0.0659 -2.4646
   82SOPE  H18Y 7589   3.800  -0.151   4.499  0.5104  2.9585  1.5731
   82SOPE  H18Z 7590   3.708  -0.095   4.363  2.2789  0.3268  0.8582
   83SOPE     N 7591   0.233   5.062   2.949 -0.1531  0.7466 -0.1818
   83SOPE   HN1 7592   0.324   5.033   2.988 -0.5691 -1.0156 -0.4419
   83SOPE   HN2 7593   0.191   5.140   3.003  2.8405  0.5362  2.7652
   83SOPE   HN3 7594   0.164   4.984   2.951  0.0056  0.6072  2.0649
   83SOPE   C12 7595   0.249   5.100   2.801  0.9688 -0.4652  0.3016
   83SOPE  H12A 7596   0.331   5.038   2.758  2.9813  2.4246 -0.2643
   83SOPE  H12B 7597   0.283   5.205   2.793 -1.6718  0.7218  2.7184
   83SOPE   C11 7598   0.114   5.090   2.727  0.7718  0.3325 -0.6303
   83SOPE  H11A 7599   0.096   4.983   2.704  1.1397  0.1358 -0.0161
   83SOPE  H11B 7600   0.132   5.147   2.634 -0.1004  0.2877 -0.8339
   83SOPE     P 7601  -0.135   5.159   2.771 -0.1679  0.2725 -0.1651
   83SOPE   O13 7602  -0.201   5.027   2.761  0.1858  0.0258 -0.1711
   83SOPE   O14 7603  -0.138   5.244   2.652 -0.2404 -0.3485 -0.0962
   83SOPE   O12 7604   0.015   5.148   2.821 -0.3551 -0.4430 -0.3191
   83SOPE   O11 7605  -0.208   5.238   2.886 -0.9969 -0.4481  0.2705
   83SOPE    C1 7606  -0.150   5.242   3.021  0.0851  0.0732 -0.3520
   83SOPE    HA 7607  -0.127   5.346   3.051  0.9958 -0.6606  1.6802
   83SOPE    HB 7608  -0.061   5.178   3.038 -0.5803 -0.1959  2.6487
   83SOPE    C2 7609  -0.254   5.188   3.115  0.4661  0.2343 -0.2812
   83SOPE    HS 7610  -0.284   5.088   3.078 -0.7573 -0.5634  2.6120
   83SOPE   O21 7611  -0.360   5.278   3.119 -0.9628  0.3254  0.6362
   83SOPE   C21 7612  -0.478   5.219   3.148  0.3460  0.1095  0.4763
   83SOPE   O22 7613  -0.493   5.103   3.182  0.4863  0.2993 -0.0447
   83SOPE   C22 7614  -0.587   5.329   3.137 -0.5779  0.3948  0.1451
   83SOPE   H2R 7615  -0.637   5.311   3.039  0.6104  2.1212 -0.8346
   83SOPE   H2S 7616  -0.543   5.431   3.135  0.8880 -0.2224 -1.0879
   83SOPE    C3 7617  -0.187   5.177   3.260 -0.4446  0.1774  0.6741
   83SOPE    HX 7618  -0.146   5.277   3.285 -1.1770  1.0398 -1.3730
   83SOPE    HY 7619  -0.098   5.113   3.241 -1.4192 -0.9110 -0.4563
   83SOPE   O31 7620  -0.271   5.130   3.359  0.2489  0.6707  0.1205
   83SOPE   C31 7621  -0.243   5.023   3.430 -0.5710 -0.2105  0.4152
   83SOPE   O32 7622  -0.135   4.965   3.419  0.6664 -0.0073 -0.2722
   83SOPE   C32 7623  -0.358   4.988   3.517  0.5220 -0.0689  0.0042
   83SOPE   H2X 7624  -0.448   4.969   3.455  0.5373  0.7008 -0.2684
   83SOPE   H2Y 7625  -0.383   5.071   3.586  0.1333 -0.2172  0.0460
   83SOPE   C23 7626  -0.711   5.329   3.237 -0.1967  0.5586 -0.4788
   83SOPE   H3R 7627  -0.738   5.223   3.260  0.0429  0.3933 -0.9490
   83SOPE   H3S 7628  -0.799   5.373   3.186 -0.0292  0.4479 -0.8676
   83SOPE   C24 7629  -0.675   5.408   3.370 -0.1362  0.1447 -0.2013
   83SOPE   H4R 7630  -0.580   5.361   3.403 -0.3091  0.8085  1.3431
   83SOPE   H4S 7631  -0.648   5.509   3.332 -0.4226  0.2186 -0.2122
   83SOPE   C25 7632  -0.785   5.406   3.469 -0.0175 -0.2873 -0.7204
   83SOPE   H5R 7633  -0.873   5.467   3.439 -0.8767  0.5626  3.0304
   83SOPE   H5S 7634  -0.817   5.299   3.479 -1.1153  0.1878  1.8038
   83SOPE   C26 7635  -0.739   5.477   3.600  0.3542  0.9483 -0.1383
   83SOPE   H6R 7636  -0.656   5.412   3.635 -1.6565 -0.4547  2.3762
   83SOPE   H6S 7637  -0.700   5.579   3.580  0.4928  0.7665 -0.8190
   83SOPE   C27 7638  -0.852   5.485   3.708 -0.2197  0.0855 -0.2118
   83SOPE   H7R 7639  -0.931   5.552   3.667  0.3549  0.2860 -1.0194
   83SOPE   H7S 7640  -0.892   5.383   3.719 -0.6307  0.0387 -1.8023
   83SOPE   C28 7641  -0.809   5.549   3.844 -0.4221 -0.2571 -0.7221
   83SOPE   H8R 7642  -0.861   5.493   3.924  0.4560 -1.5481 -1.0261
   83SOPE   H8S 7643  -0.705   5.516   3.864 -0.0024  1.9500  1.1575
   83SOPE   C29 7644  -0.809   5.703   3.865  0.1015 -0.3323 -0.0711
   83SOPE   H91 7645  -0.785   5.746   3.766 -0.3705 -3.3183 -1.6059
   83SOPE  C210 7646  -0.824   5.770   3.982 -0.2333  0.1889 -0.1932
   83SOPE  H101 7647  -0.815   5.879   3.975  0.4973  0.1720  0.3154
   83SOPE  C211 7648  -0.857   5.714   4.119  1.4895 -0.6804 -0.2778
   83SOPE  H11R 7649  -0.854   5.603   4.128 -1.5511 -0.9502 -1.3944
   83SOPE  H11S 7650  -0.960   5.753   4.133  0.9603 -0.9966 -2.7734
   83SOPE  C212 7651  -0.772   5.758   4.242 -0.7479 -0.4954  1.0294
   83SOPE  H12R 7652  -0.810   5.718   4.338 -1.8844 -2.4459 -0.1672
   83SOPE  H12S 7653  -0.760   5.868   4.244  0.5443 -0.5016 -1.5072
   83SOPE  C213 7654  -0.629   5.708   4.216 -0.0071  0.1678 -0.9584
   83SOPE  H13R 7655  -0.595   5.737   4.114  1.7317 -2.5139 -1.2568
   83SOPE  H13S 7656  -0.625   5.597   4.213 -1.2090  0.1070 -0.5556
   83SOPE  C214 7657  -0.542   5.750   4.330 -0.0364 -0.3503 -0.1345
   83SOPE  H14R 7658  -0.581   5.711   4.426  2.2029 -0.2841  0.8694
   83SOPE  H14S 7659  -0.555   5.860   4.341 -1.4237 -0.5836  0.7896
   83SOPE  C215 7660  -0.393   5.720   4.307  0.3547 -0.8744  1.0760
   83SOPE  H15R 7661  -0.330   5.758   4.390  1.2073 -1.6340  0.8050
   83SOPE  H15S 7662  -0.346   5.784   4.230 -0.1262  0.7730  2.0938
   83SOPE  C216 7663  -0.353   5.577   4.290  0.3459  0.3913  0.7920
   83SOPE  H16R 7664  -0.416   5.527   4.213  0.5911  0.7975  0.3263
   83SOPE  H16S 7665  -0.365   5.514   4.381  1.5672 -1.8857 -0.5190
   83SOPE  C217 7666  -0.216   5.569   4.222 -0.2592 -0.1262 -0.4623
   83SOPE  H17R 7667  -0.152   5.483   4.251 -1.6977 -1.5663 -1.3613
   83SOPE  H17S 7668  -0.152   5.657   4.243  0.3559 -1.2347  2.8402
   83SOPE  C218 7669  -0.232   5.572   4.068 -0.7768 -0.3372  0.3756
   83SOPE  H18R 7670  -0.272   5.665   4.023 -1.0155 -0.5698  0.0993
   83SOPE  H18S 7671  -0.296   5.487   4.035 -0.3735 -0.5697  0.1786
   83SOPE  H18T 7672  -0.132   5.560   4.022 -0.1408  0.7589  1.4306
   83SOPE   C33 7673  -0.327   4.860   3.600 -0.2605 -0.0756  0.6832
   83SOPE   H3X 7674  -0.237   4.879   3.662  1.8241 -1.9391 -1.5455
   83SOPE   H3Y 7675  -0.306   4.770   3.539 -0.0283  1.7663 -2.1382
   83SOPE   C34 7676  -0.436   4.826   3.701  0.0798 -0.0220  0.2404
   83SOPE   H4X 7677  -0.532   4.795   3.655  1.3523 -3.7387 -0.2092
   83SOPE   H4Y 7678  -0.451   4.919   3.761 -0.8153 -0.3278  0.5143
   83SOPE   C35 7679  -0.390   4.710   3.791 -0.4142 -0.1121  0.0887
   83SOPE   H5X 7680  -0.285   4.720   3.826  0.6566 -2.8466 -2.0123
   83SOPE   H5Y 7681  -0.396   4.614   3.737  1.0637  1.5258 -3.3054
   83SOPE   C36 7682  -0.480   4.698   3.920 -0.1615 -0.8882  0.0694
   83SOPE   H6X 7683  -0.589   4.701   3.895 -0.1144  0.6481 -0.0373
   83SOPE   H6Y 7684  -0.452   4.786   3.981  2.2630 -0.0867 -2.0448
   83SOPE   C37 7685  -0.453   4.577   4.006 -0.5006 -0.1661  0.3571
   83SOPE   H7X 7686  -0.343   4.573   4.021 -0.6140 -1.2092  1.0610
   83SOPE   H7Y 7687  -0.494   4.491   3.948  1.0816 -0.8197  0.1607
   83SOPE   C38 7688  -0.529   4.580   4.138 -0.2843 -0.2034 -0.2644
   83SOPE   H8X 7689  -0.639   4.577   4.127 -0.2464  0.2321 -0.8524
   83SOPE   H8Y 7690  -0.499   4.660   4.209 -3.5314 -0.8906  2.0955
   83SOPE   C39 7691  -0.494   4.458   4.226 -0.3177 -0.9122  0.9448
   83SOPE   H9X 7692  -0.384   4.445   4.222 -0.0541  1.1756  0.3553
   83SOPE   H9Y 7693  -0.531   4.366   4.175  0.8892 -1.4829  1.0526
   83SOPE  C310 7694  -0.554   4.467   4.361 -0.1007  0.2410  0.5731
   83SOPE  H10X 7695  -0.557   4.572   4.398  1.3563 -0.4384  2.8732
   83SOPE  H10Y 7696  -0.489   4.404   4.426  1.7632  0.8786 -0.6041
   83SOPE  C311 7697  -0.696   4.399   4.366  0.2573 -0.6973 -1.1328
   83SOPE  H11X 7698  -0.689   4.289   4.353  0.3904 -0.8013 -0.1939
   83SOPE  H11Y 7699  -0.757   4.445   4.285 -0.6413 -2.9305 -1.8024
   83SOPE  C312 7700  -0.771   4.435   4.502 -0.5662 -0.2253  0.1671
   83SOPE  H12X 7701  -0.795   4.544   4.502 -0.9829 -0.2532 -2.3577
   83SOPE  H12Y 7702  -0.696   4.409   4.579 -1.4624 -0.0098  1.1301
   83SOPE  C313 7703  -0.907   4.359   4.524 -0.6210 -0.0823  0.9239
   83SOPE  H13X 7704  -0.930   4.397   4.626 -0.2630  2.6532  0.0844
   83SOPE  H13Y 7705  -0.898   4.249   4.528  0.1875 -0.0118  1.1904
   83SOPE  C314 7706  -1.016   4.392   4.425  0.0800 -0.0844  0.8614
   83SOPE  H14X 7707  -1.003   4.348   4.325 -1.1597 -0.1197  0.6978
   83SOPE  H14Y 7708  -1.004   4.502   4.409 -0.2730 -0.2971 -0.9868
   83SOPE  C315 7709  -1.161   4.374   4.481 -0.5164  0.7886 -0.0770
   83SOPE  H15X 7710  -1.227   4.416   4.402  0.6432  0.9010 -1.0005
   83SOPE  H15Y 7711  -1.171   4.428   4.577 -0.1879 -2.2612  1.8370
   83SOPE  C316 7712  -1.205   4.227   4.502  0.5864 -0.6629  0.6214
   83SOPE  H16X 7713  -1.315   4.230   4.517  0.4816  0.1356 -0.1672
   83SOPE  H16Y 7714  -1.159   4.190   4.596  0.5710  1.3189  1.4452
   83SOPE  C317 7715  -1.168   4.134   4.387  0.4238  0.5214  0.3859
   83SOPE  H17X 7716  -1.208   4.033   4.413 -0.3066  0.7756  0.2780
   83SOPE  H17Y 7717  -1.057   4.134   4.384  0.4111  1.3582 -2.2364
   83SOPE  C318 7718  -1.232   4.178   4.252 -1.3086 -0.2615  1.0598
   83SOPE  H18X 7719  -1.335   4.218   4.263 -1.2811 -0.2693  1.3424
   83SOPE  H18Y 7720  -1.232   4.096   4.176  0.0919  2.0443 -1.6333
   83SOPE  H18Z 7721  -1.163   4.253   4.208 -1.1159 -0.8995  0.2356
   84SOPE     N 7722   0.179   3.870   2.682  0.0617 -0.0804  0.4423
   84SOPE   HN1 7723   0.080   3.885   2.710  0.3147  2.9090  0.0590
   84SOPE   HN2 7724   0.226   3.961   2.670  1.7403 -0.9433  0.1862
   84SOPE   HN3 7725   0.178   3.825   2.588 -3.0177 -0.5296  0.5971
   84SOPE   C12 7726   0.237   3.792   2.795 -0.4873  0.2693 -0.0805
   84SOPE  H12A 7727   0.243   3.855   2.887  0.2085  0.5511 -0.3092
   84SOPE  H12B 7728   0.342   3.762   2.777 -0.2058  1.3608 -0.3384
   84SOPE   C11 7729   0.162   3.662   2.817  0.5341 -0.5384 -0.1605
   84SOPE  H11A 7730   0.056   3.684   2.842 -0.0417 -2.9538 -0.2740
   84SOPE  H11B 7731   0.213   3.625   2.908 -1.2477  1.0944  1.6133
   84SOPE     P 7732   0.058   3.532   2.616  0.2204 -0.1776  0.2695
   84SOPE   O13 7733   0.112   3.464   2.496 -0.7981  0.0476  0.2400
   84SOPE   O14 7734  -0.022   3.654   2.589 -0.2522  1.2165  0.5643
   84SOPE   O12 7735   0.178   3.575   2.710  0.4016 -0.5072 -0.2741
   84SOPE   O11 7736  -0.025   3.433   2.701 -0.5418 -0.3990 -0.1019
   84SOPE    C1 7737  -0.014   3.291   2.714  0.4062  0.1170  0.2996
   84SOPE    HA 7738   0.076   3.251   2.662 -0.3741  0.3524 -1.3086
   84SOPE    HB 7739  -0.099   3.239   2.665  1.7649 -0.9914 -0.9648
   84SOPE    C2 7740   0.002   3.244   2.866  0.4001  0.0190 -0.4547
   84SOPE    HS 7741   0.032   3.137   2.866 -0.4511 -0.2291 -0.8030
   84SOPE   O21 7742  -0.117   3.264   2.948 -0.3251  0.1942 -0.1968
   84SOPE   C21 7743  -0.218   3.186   2.916 -0.5453  0.1543  0.1626
   84SOPE   O22 7744  -0.218   3.112   2.820  0.7824  0.3060 -1.3441
   84SOPE   C22 7745  -0.311   3.192   3.031  0.4985 -0.4321 -0.1252
   84SOPE   H2R 7746  -0.333   3.298   3.058  1.3580 -0.1177 -0.6220
   84SOPE   H2S 7747  -0.257   3.152   3.119  0.7488  0.3298  0.0786
   84SOPE    C3 7748   0.114   3.324   2.931 -0.7229 -0.2080  0.9185
   84SOPE    HX 7749   0.081   3.426   2.961  0.2590  0.1749  0.7504
   84SOPE    HY 7750   0.194   3.342   2.856 -2.3671  0.1101 -0.8468
   84SOPE   O31 7751   0.159   3.253   3.047 -0.1871  0.1572 -0.5187
   84SOPE   C31 7752   0.269   3.305   3.106  0.2579 -0.2627 -0.4469
   84SOPE   O32 7753   0.315   3.414   3.081  0.0976  0.5539 -0.5030
   84SOPE   C32 7754   0.340   3.200   3.197  0.2238 -0.7126 -0.2417
   84SOPE   H2X 7755   0.421   3.154   3.137  1.1736  3.5092 -2.5821
   84SOPE   H2Y 7756   0.271   3.117   3.221 -0.2404 -0.6868 -1.4074
   84SOPE   C23 7757  -0.441   3.108   3.020  0.4888  0.1326  0.2445
   84SOPE   H3R 7758  -0.413   3.013   2.969  1.9616  0.1600  0.9479
   84SOPE   H3S 7759  -0.511   3.163   2.954 -0.8654 -1.2993  0.4288
   84SOPE   C24 7760  -0.513   3.072   3.155  0.1446 -0.4548  0.0291
   84SOPE   H4R 7761  -0.603   3.012   3.130  1.1080 -1.2725 -1.6838
   84SOPE   H4S 7762  -0.450   3.003   3.215  0.1458 -0.3120  0.1914
   84SOPE   C25 7763  -0.538   3.198   3.248  0.1995  0.1329  0.6007
   84SOPE   H5R 7764  -0.523   3.290   3.188 -1.5360 -0.6290 -1.0993
   84SOPE   H5S 7765  -0.640   3.201   3.290 -0.1892  1.3511 -0.3725
   84SOPE   C26 7766  -0.439   3.200   3.375 -0.4926  0.0940  0.5162
   84SOPE   H6R 7767  -0.339   3.182   3.330 -0.4879  0.5268  0.3497
   84SOPE   H6S 7768  -0.446   3.302   3.419  0.2727 -0.9777  3.3857
   84SOPE   C27 7769  -0.463   3.099   3.484 -0.9071  0.2096  0.0375
   84SOPE   H7R 7770  -0.419   3.001   3.454 -1.2184 -0.8525  2.8026
   84SOPE   H7S 7771  -0.404   3.139   3.569 -0.9626  0.8627 -0.2228
   84SOPE   C28 7772  -0.607   3.078   3.523  0.2624 -0.0622 -0.3310
   84SOPE   H8R 7773  -0.665   3.047   3.434  1.9328  0.9711 -1.8591
   84SOPE   H8S 7774  -0.607   2.991   3.591 -0.8356  1.5526  1.8498
   84SOPE   C29 7775  -0.663   3.205   3.586  0.4212 -0.3275 -0.4153
   84SOPE   H91 7776  -0.726   3.271   3.525 -0.1943 -0.3946  0.1359
   84SOPE  C210 7777  -0.630   3.246   3.711 -0.5268  0.6668 -0.6343
   84SOPE  H101 7778  -0.677   3.337   3.751  0.6987  0.0820  2.4583
   84SOPE  C211 7779  -0.553   3.169   3.818  0.1257 -0.0259 -1.1774
   84SOPE  H11R 7780  -0.499   3.228   3.895 -1.8531  0.2700  0.0505
   84SOPE  H11S 7781  -0.477   3.101   3.775 -0.2314 -0.9891 -0.3132
   84SOPE  C212 7782  -0.679   3.102   3.889  0.9574 -0.1605  0.2444
   84SOPE  H12R 7783  -0.748   3.062   3.812  0.1112 -0.2765  1.0487
   84SOPE  H12S 7784  -0.737   3.174   3.952 -1.8544 -2.9748  1.1219
   84SOPE  C213 7785  -0.632   2.987   3.981 -0.4191 -1.1243 -0.5121
   84SOPE  H13R 7786  -0.551   2.921   3.945  1.0532  0.1118  0.4084
   84SOPE  H13S 7787  -0.723   2.924   3.991 -1.3229  0.3243  1.0759
   84SOPE  C214 7788  -0.602   3.029   4.127  0.1830  0.0978 -0.4521
   84SOPE  H14R 7789  -0.657   3.126   4.136 -0.8704 -0.3024 -2.1850
   84SOPE  H14S 7790  -0.499   3.055   4.160 -0.4913  3.2434 -0.4844
   84SOPE  C215 7791  -0.654   2.927   4.227  0.8546  0.1984  0.2920
   84SOPE  H15R 7792  -0.592   2.836   4.211  0.1578 -0.0444 -1.1347
   84SOPE  H15S 7793  -0.764   2.913   4.230  1.1539 -2.6829  1.8130
   84SOPE  C216 7794  -0.633   2.981   4.369 -0.5980 -0.5956  0.6134
   84SOPE  H16R 7795  -0.527   3.012   4.381 -0.3999 -0.2743 -1.6290
   84SOPE  H16S 7796  -0.641   2.899   4.444 -0.7300 -0.8039  0.3744
   84SOPE  C217 7797  -0.720   3.103   4.415  0.3692  0.3147 -0.1289
   84SOPE  H17R 7798  -0.821   3.061   4.431 -0.6677  2.9534  0.9407
   84SOPE  H17S 7799  -0.730   3.172   4.329 -0.9170  1.2758  0.7468
   84SOPE  C218 7800  -0.665   3.167   4.545 -0.1874  0.0347 -0.0857
   84SOPE  H18R 7801  -0.555   3.172   4.528 -0.3034  0.6654 -0.6764
   84SOPE  H18S 7802  -0.680   3.118   4.644 -0.0618  1.0808  0.4648
   84SOPE  H18T 7803  -0.703   3.267   4.573  1.8812  0.7312  0.3862
   84SOPE   C33 7804   0.405   3.273   3.321 -0.4168  0.2728 -0.4180
   84SOPE   H3X 7805   0.429   3.375   3.286  1.1624  0.2305  0.4517
   84SOPE   H3Y 7806   0.497   3.222   3.359  0.5903  1.6861 -0.8737
   84SOPE   C34 7807   0.312   3.291   3.434  0.2397  1.1213 -0.0354
   84SOPE   H4X 7808   0.274   3.190   3.460  0.4229  1.4465  1.6173
   84SOPE   H4Y 7809   0.220   3.340   3.395 -0.8106 -0.9830 -0.3768
   84SOPE   C35 7810   0.375   3.370   3.556  0.3223 -0.4849  0.6717
   84SOPE   H5X 7811   0.403   3.473   3.526 -0.0651 -0.3443  0.7845
   84SOPE   H5Y 7812   0.465   3.312   3.587 -0.0173 -1.8622 -0.7840
   84SOPE   C36 7813   0.280   3.379   3.666  0.0183  0.3985  0.1798
   84SOPE   H6X 7814   0.254   3.275   3.697  1.0710  0.3673  1.0227
   84SOPE   H6Y 7815   0.182   3.424   3.638 -1.5400 -1.0819  2.9084
   84SOPE   C37 7816   0.352   3.458   3.783 -0.5615 -0.7656  0.2479
   84SOPE   H7X 7817   0.383   3.562   3.762  1.2785 -1.3665 -0.1782
   84SOPE   H7Y 7818   0.453   3.415   3.800  0.3898  1.2858 -0.0186
   84SOPE   C38 7819   0.268   3.445   3.911  0.5262 -0.1363 -0.1315
   84SOPE   H8X 7820   0.248   3.336   3.922  0.1266 -0.2346 -1.6554
   84SOPE   H8Y 7821   0.176   3.508   3.908  0.3089 -0.4971 -1.8470
   84SOPE   C39 7822   0.343   3.493   4.039  0.5816  0.1185  0.2892
   84SOPE   H9X 7823   0.366   3.600   4.018 -1.1692  0.3437 -0.6738
   84SOPE   H9Y 7824   0.442   3.442   4.044  1.1407  0.1733 -4.8614
   84SOPE  C310 7825   0.266   3.479   4.170  0.1129  0.5158 -0.1137
   84SOPE  H10X 7826   0.254   3.373   4.199  0.5315 -0.1098 -2.0523
   84SOPE  H10Y 7827   0.163   3.520   4.170 -0.3231 -0.5430  0.9954
   84SOPE  C311 7828   0.328   3.562   4.291  0.4215 -0.1484  0.1340
   84SOPE  H11X 7829   0.304   3.665   4.257  0.5291 -0.2164 -0.1516
   84SOPE  H11Y 7830   0.434   3.529   4.297  0.0255 -1.3773  0.6143
   84SOPE  C312 7831   0.256   3.530   4.426 -0.4914  0.0283 -0.1606
   84SOPE  H12X 7832   0.288   3.427   4.450 -2.2281 -0.5776 -0.3336
   84SOPE  H12Y 7833   0.145   3.535   4.414 -0.8453  1.0953  2.7429
   84SOPE  C313 7834   0.303   3.609   4.552  0.2061 -0.1072 -0.0643
   84SOPE  H13X 7835   0.275   3.551   4.643  1.1458 -1.1737 -0.4260
   84SOPE  H13Y 7836   0.251   3.706   4.569 -0.6443 -0.7827  1.3896
   84SOPE  C314 7837   0.453   3.632   4.569  0.0198 -0.0330 -0.1033
   84SOPE  H14X 7838   0.486   3.681   4.475 -1.1672 -0.2607 -0.6533
   84SOPE  H14Y 7839   0.504   3.534   4.551 -1.2894 -0.8906  0.7064
   84SOPE  C315 7840   0.488   3.700   4.699  0.4347 -0.1333 -0.0008
   84SOPE  H15X 7841   0.520   3.622   4.771  0.2540 -0.8714 -0.7138
   84SOPE  H15Y 7842   0.406   3.758   4.746  0.0699 -0.5605 -0.1027
   84SOPE  C316 7843   0.615   3.797   4.684 -0.0464 -0.3260 -0.0068
   84SOPE  H16X 7844   0.578   3.895   4.645 -1.0385 -1.5899 -2.5049
   84SOPE  H16Y 7845   0.688   3.761   4.609  0.3124 -1.7527  0.9948
   84SOPE  C317 7846   0.695   3.818   4.816 -0.1008  0.0098  0.7121
   84SOPE  H17X 7847   0.767   3.902   4.807  0.8068 -0.6406  1.6361
   84SOPE  H17Y 7848   0.744   3.725   4.851  1.4570 -0.3487 -2.1330
   84SOPE  C318 7849   0.599   3.847   4.936  0.3727  0.3197 -0.2019
   84SOPE  H18X 7850   0.659   3.883   5.023  1.8448  1.0159 -1.4449
   84SOPE  H18Y 7851   0.546   3.757   4.971 -0.7907  1.4431  1.0325
   84SOPE  H18Z 7852   0.538   3.937   4.916 -0.8411 -0.0346  1.6555
   85SOPE     N 7853   2.946   4.843   2.394  0.6650  0.7907 -0.2905
   85SOPE   HN1 7854   2.955   4.807   2.492  1.1032 -0.5783 -0.8034
   85SOPE   HN2 7855   3.034   4.897   2.384  0.8775  0.3706 -0.7121
   85SOPE   HN3 7856   2.862   4.904   2.393 -0.1163 -0.0969  2.1279
   85SOPE   C12 7857   2.914   4.727   2.303 -0.7202  1.0366  0.6177
   85SOPE  H12A 7858   2.896   4.761   2.199 -4.1156  0.2625  0.8397
   85SOPE  H12B 7859   2.819   4.682   2.338  0.4770 -1.2643  1.1163
   85SOPE   C11 7860   3.019   4.618   2.318 -0.2941  0.1686 -0.0715
   85SOPE  H11A 7861   3.120   4.659   2.296  0.3850 -1.2917  0.2199
   85SOPE  H11B 7862   2.991   4.537   2.247  0.1972  0.2472 -0.3597
   85SOPE     P 7863   3.116   4.441   2.492  0.0051 -0.1385 -0.0854
   85SOPE   O13 7864   3.098   4.329   2.401 -0.4099  0.8042 -0.2073
   85SOPE   O14 7865   3.083   4.408   2.630 -0.4675 -0.0798 -0.2305
   85SOPE   O12 7866   3.028   4.576   2.449 -0.2914 -0.4296 -0.5989
   85SOPE   O11 7867   3.262   4.489   2.480  0.3542 -0.2771  0.4582
   85SOPE    C1 7868   3.318   4.626   2.487  0.2808  0.8039  0.4129
   85SOPE    HA 7869   3.237   4.702   2.482 -0.1651  0.3110  0.0016
   85SOPE    HB 7870   3.398   4.635   2.411  0.4384 -0.5809  0.3791
   85SOPE    C2 7871   3.378   4.655   2.621 -0.3705  0.9515  1.1010
   85SOPE    HS 7872   3.457   4.732   2.608 -1.1041  1.4568 -0.5809
   85SOPE   O21 7873   3.441   4.534   2.681  0.5703 -0.6837 -0.3854
   85SOPE   C21 7874   3.564   4.504   2.653 -0.0665 -0.2507  0.1330
   85SOPE   O22 7875   3.638   4.564   2.573 -0.0861  0.5622  0.1195
   85SOPE   C22 7876   3.601   4.387   2.738  0.2880  0.7903 -0.1888
   85SOPE   H2R 7877   3.598   4.290   2.685 -1.3267  0.7004  0.0307
   85SOPE   H2S 7878   3.522   4.364   2.813 -0.4960  1.3013 -0.8347
   85SOPE    C3 7879   3.279   4.711   2.733 -0.5641 -0.1753  0.1843
   85SOPE    HX 7880   3.198   4.638   2.754 -1.3881  0.6835  0.0643
   85SOPE    HY 7881   3.237   4.807   2.694 -1.1990 -0.7528 -0.5757
   85SOPE   O31 7882   3.347   4.736   2.858 -0.2063  0.4410 -0.2560
   85SOPE   C31 7883   3.411   4.851   2.872  0.2832  0.7356  0.1565
   85SOPE   O32 7884   3.396   4.948   2.795 -0.3848  0.3716  0.2024
   85SOPE   C32 7885   3.499   4.853   3.003 -0.6516  0.4383 -0.3296
   85SOPE   H2X 7886   3.598   4.897   2.978  0.8307 -1.5839  1.5273
   85SOPE   H2Y 7887   3.516   4.748   3.035 -1.0395  1.3137  3.1926
   85SOPE   C23 7888   3.725   4.412   2.820 -0.9705 -0.6313 -0.3208
   85SOPE   H3R 7889   3.794   4.479   2.766 -0.3291  0.8854  2.2108
   85SOPE   H3S 7890   3.780   4.317   2.839  0.4468 -0.1549 -1.7806
   85SOPE   C24 7891   3.694   4.481   2.957 -0.4754 -0.1364  0.6362
   85SOPE   H4R 7892   3.646   4.578   2.931 -1.5895 -1.6007 -3.6943
   85SOPE   H4S 7893   3.618   4.425   3.016 -1.6598 -1.0099 -1.5995
   85SOPE   C25 7894   3.813   4.510   3.048  0.0020 -0.6716 -0.3459
   85SOPE   H5R 7895   3.848   4.415   3.093 -0.9848 -0.5558  0.7194
   85SOPE   H5S 7896   3.892   4.562   2.990  0.2215  0.4906  0.9486
   85SOPE   C26 7897   3.766   4.612   3.155 -0.2579 -1.1712 -0.6485
   85SOPE   H6R 7898   3.734   4.712   3.116 -0.2886 -0.1585  1.8027
   85SOPE   H6S 7899   3.679   4.581   3.216  0.9473  2.5301  3.4494
   85SOPE   C27 7900   3.873   4.650   3.262 -0.6760 -0.0935  0.6380
   85SOPE   H7R 7901   3.918   4.554   3.296  0.8940 -0.2020 -1.5778
   85SOPE   H7S 7902   3.948   4.719   3.219 -0.2861 -0.1318  1.2382
   85SOPE   C28 7903   3.816   4.729   3.381  0.0821  0.2464 -0.2666
   85SOPE   H8R 7904   3.892   4.758   3.457  1.6723 -0.7398 -1.3994
   85SOPE   H8S 7905   3.769   4.825   3.352 -1.1169 -1.1242 -3.3889
   85SOPE   C29 7906   3.716   4.643   3.455  0.1351 -0.2229 -0.0100
   85SOPE   H91 7907   3.612   4.654   3.421 -0.0040 -1.0126  0.1340
   85SOPE  C210 7908   3.734   4.575   3.570  0.0961 -0.2680  0.2760
   85SOPE  H101 7909   3.644   4.534   3.618  0.8993 -1.4909  0.7824
   85SOPE  C211 7910   3.849   4.580   3.660 -0.1667  0.0062 -0.1968
   85SOPE  H11R 7911   3.904   4.676   3.648  0.2481 -0.2213 -0.1359
   85SOPE  H11S 7912   3.914   4.491   3.650  0.2677 -0.3931  4.3717
   85SOPE  C212 7913   3.823   4.574   3.813  0.1710 -0.4734 -0.4194
   85SOPE  H12R 7914   3.767   4.483   3.840 -0.6882 -0.2741 -1.4811
   85SOPE  H12S 7915   3.756   4.656   3.847  1.0168  0.3314 -0.6303
   85SOPE  C213 7916   3.946   4.576   3.907  0.0670  0.5927 -0.2613
   85SOPE  H13R 7917   3.984   4.680   3.894  0.8247  0.2823 -0.5977
   85SOPE  H13S 7918   4.028   4.504   3.888 -1.0836 -0.5253 -1.1177
   85SOPE  C214 7919   3.907   4.557   4.050 -0.0974 -0.3884 -0.2037
   85SOPE  H14R 7920   3.861   4.457   4.066  0.4899 -0.9724 -1.9058
   85SOPE  H14S 7921   3.831   4.634   4.073 -3.2081 -3.0041 -1.0694
   85SOPE  C215 7922   4.035   4.585   4.134  1.3961  0.1785  0.1648
   85SOPE  H15R 7923   4.097   4.669   4.095  0.4661 -0.5012 -3.1213
   85SOPE  H15S 7924   4.093   4.490   4.131 -0.6263 -1.1176  0.7120
   85SOPE  C216 7925   3.994   4.607   4.281  0.3014 -0.3961 -0.0370
   85SOPE  H16R 7926   3.954   4.514   4.325  0.7818 -1.1424 -1.1415
   85SOPE  H16S 7927   3.915   4.684   4.290  0.9105  0.1334  1.1082
   85SOPE  C217 7928   4.100   4.676   4.362 -0.3800 -0.9893  0.0422
   85SOPE  H17R 7929   4.143   4.770   4.322  0.6295 -1.7783 -0.7807
   85SOPE  H17S 7930   4.183   4.603   4.364  0.5909  0.0300 -1.3710
   85SOPE  C218 7931   4.067   4.690   4.512  0.5128  0.1358  0.4045
   85SOPE  H18R 7932   3.966   4.734   4.522  0.8591  1.6541 -1.8922
   85SOPE  H18S 7933   4.146   4.736   4.574  0.3537 -0.3917  1.0021
   85SOPE  H18T 7934   4.052   4.587   4.549  0.2607 -0.0062 -0.0869
   85SOPE   C33 7935   3.428   4.916   3.124 -0.0456  0.2733 -0.2690
   85SOPE   H3X 7936   3.330   4.870   3.149  0.2763  0.4654  1.4862
   85SOPE   H3Y 7937   3.403   5.023   3.106 -0.3731  0.4026  0.8709
   85SOPE   C34 7938   3.506   4.885   3.260 -0.8812 -0.5374  0.9884
   85SOPE   H4X 7939   3.599   4.945   3.257 -2.4238  1.9684  0.0341
   85SOPE   H4Y 7940   3.531   4.776   3.256  0.1088 -0.2967  0.3589
   85SOPE   C35 7941   3.429   4.924   3.382 -0.4358  0.0259 -0.8224
   85SOPE   H5X 7942   3.371   4.834   3.414 -0.3208 -0.3120 -1.5452
   85SOPE   H5Y 7943   3.346   4.994   3.360  0.2510  0.3501 -2.5071
   85SOPE   C36 7944   3.524   4.970   3.495 -0.4898  0.3501  0.9287
   85SOPE   H6X 7945   3.575   5.059   3.454 -1.4538 -0.6555 -2.8252
   85SOPE   H6Y 7946   3.599   4.888   3.508  0.1111  0.7673  0.1809
   85SOPE   C37 7947   3.452   4.991   3.629 -0.1843  0.3947 -0.1821
   85SOPE   H7X 7948   3.394   4.899   3.652 -1.1054  1.5212  2.4469
   85SOPE   H7Y 7949   3.370   5.065   3.614  0.0093  0.4863 -0.8100
   85SOPE   C38 7950   3.529   5.024   3.753  0.2165 -0.4695 -0.0368
   85SOPE   H8X 7951   3.453   5.026   3.835 -1.1619  0.8858 -1.2808
   85SOPE   H8Y 7952   3.563   5.130   3.755  0.4364 -0.4557 -2.2152
   85SOPE   C39 7953   3.642   4.932   3.786 -0.0514  0.4731  0.6562
   85SOPE   H9X 7954   3.697   4.903   3.695  0.6143  2.8677  0.2497
   85SOPE   H9Y 7955   3.617   4.838   3.841  2.3216  0.6104  2.1321
   85SOPE  C310 7956   3.738   5.000   3.879  0.2313  0.7886 -0.1697
   85SOPE  H10X 7957   3.775   5.100   3.848 -1.8434  2.0481  1.1671
   85SOPE  H10Y 7958   3.831   4.939   3.887 -1.1104 -1.1457  2.3961
   85SOPE  C311 7959   3.679   5.005   4.025  0.0038  0.0233 -0.3296
   85SOPE  H11X 7960   3.633   4.910   4.059 -1.5101  0.4512 -1.0905
   85SOPE  H11Y 7961   3.601   5.084   4.028 -2.0808 -1.9541  1.4512
   85SOPE  C312 7962   3.789   5.045   4.123 -0.0207 -0.5189  0.3823
   85SOPE  H12X 7963   3.846   5.131   4.081 -0.6454  1.2980  2.9703
   85SOPE  H12Y 7964   3.869   4.970   4.143 -0.5241 -0.9403  0.8448
   85SOPE  C313 7965   3.724   5.098   4.249 -0.0699 -0.0723  0.5724
   85SOPE  H13X 7966   3.658   5.018   4.291  0.0252 -0.9724 -0.9035
   85SOPE  H13Y 7967   3.656   5.176   4.211 -0.4775 -0.4720  0.4661
   85SOPE  C314 7968   3.831   5.143   4.347  0.4428  0.2974  0.3021
   85SOPE  H14X 7969   3.908   5.204   4.294  1.3285  0.9714  2.2716
   85SOPE  H14Y 7970   3.876   5.052   4.393 -0.3675 -0.9465 -1.2424
   85SOPE  C315 7971   3.773   5.244   4.455  1.2770 -0.0545 -0.1750
   85SOPE  H15X 7972   3.678   5.206   4.499 -0.7536  3.1396 -1.4167
   85SOPE  H15Y 7973   3.739   5.338   4.406 -0.5895  0.9324  2.7590
   85SOPE  C316 7974   3.876   5.274   4.572  0.2166 -0.8403  0.1044
   85SOPE  H16X 7975   3.973   5.246   4.527  0.0977 -0.5790 -0.3175
   85SOPE  H16Y 7976   3.860   5.197   4.651  1.9650  0.1222  1.4874
   85SOPE  C317 7977   3.855   5.417   4.620 -0.3837 -0.2293 -0.4916
   85SOPE  H17X 7978   3.931   5.435   4.698 -3.0093 -0.2329  2.2330
   85SOPE  H17Y 7979   3.756   5.425   4.670  0.8706 -0.7402  2.2592
   85SOPE  C318 7980   3.883   5.527   4.512 -0.2743 -0.1908 -0.2408
   85SOPE  H18X 7981   3.948   5.500   4.427 -2.3367 -0.9834 -1.6348
   85SOPE  H18Y 7982   3.929   5.614   4.565  0.3912 -1.3611  1.1712
   85SOPE  H18Z 7983   3.788   5.563   4.468  0.9294  3.3210 -0.3022
   86SOPE     N 7984   2.360   0.523   2.914  0.3425  0.5785  0.2020
   86SOPE   HN1 7985   2.417   0.550   2.831  0.0421  0.8996  0.0982
   86SOPE   HN2 7986   2.268   0.491   2.876  0.5521  0.1209  0.0722
   86SOPE   HN3 7987   2.330   0.606   2.968 -2.7260 -2.6515  4.2133
   86SOPE   C12 7988   2.420   0.407   2.983  0.2755  0.0052  0.6103
   86SOPE  H12A 7989   2.384   0.320   2.924  0.1506 -0.5407  1.4655
   86SOPE  H12B 7990   2.377   0.386   3.084  1.0212  0.3298  1.0052
   86SOPE   C11 7991   2.568   0.408   3.003 -1.0148 -0.9271  0.6760
   86SOPE  H11A 7992   2.589   0.314   3.059 -0.7735 -0.3366  1.5866
   86SOPE  H11B 7993   2.599   0.496   3.063  0.4945 -0.8581 -0.1424
   86SOPE     P 7994   2.719   0.523   2.820  0.2270 -0.0037 -0.3739
   86SOPE   O13 7995   2.615   0.627   2.807  0.2024  0.2639  0.0668
   86SOPE   O14 7996   2.795   0.485   2.701 -0.2430 -0.3916  0.5498
   86SOPE   O12 7997   2.641   0.404   2.877  0.0309  0.2313 -0.3982
   86SOPE   O11 7998   2.820   0.564   2.931  0.5326 -0.2298  0.1976
   86SOPE    C1 7999   2.926   0.474   2.963  0.1977 -0.2732  0.1049
   86SOPE    HA 8000   2.963   0.414   2.876 -1.2446 -0.3750 -0.4569
   86SOPE    HB 8001   2.879   0.393   3.022  1.9655 -1.9989 -0.7281
   86SOPE    C2 8002   3.048   0.543   3.030 -0.4182  0.2335  0.6007
   86SOPE    HS 8003   3.121   0.469   3.069  1.4507  1.2883 -0.6944
   86SOPE   O21 8004   3.011   0.634   3.133  0.5328  0.1792  0.0244
   86SOPE   C21 8005   2.956   0.590   3.243 -0.2331  1.0070  0.7308
   86SOPE   O22 8006   2.965   0.475   3.287 -0.0813 -0.5081  0.4413
   86SOPE   C22 8007   2.876   0.697   3.312  0.4151  0.6612 -0.3998
   86SOPE   H2R 8008   2.794   0.645   3.366  0.4581  0.6825 -0.3141
   86SOPE   H2S 8009   2.838   0.766   3.234 -1.2699  2.9073  2.1985
   86SOPE    C3 8010   3.135   0.616   2.918 -0.0628  0.1287 -0.1572
   86SOPE    HX 8011   3.054   0.669   2.862  0.2745 -0.0114 -0.7878
   86SOPE    HY 8012   3.184   0.546   2.847  1.2069  1.6623 -0.8618
   86SOPE   O31 8013   3.233   0.711   2.971  0.3542  0.2574  0.8721
   86SOPE   C31 8014   3.349   0.653   3.008  0.5195 -0.8431 -0.0396
   86SOPE   O32 8015   3.378   0.540   2.988 -0.7418 -0.0625  0.2827
   86SOPE   C32 8016   3.425   0.751   3.089  0.1358 -0.0007  0.4433
   86SOPE   H2X 8017   3.381   0.852   3.077  0.3692 -0.1439 -2.1638
   86SOPE   H2Y 8018   3.525   0.738   3.044  0.1126  0.2582  0.3141
   86SOPE   C23 8019   2.981   0.767   3.406 -0.7567  0.6820 -0.4311
   86SOPE   H3R 8020   3.044   0.824   3.334 -0.0298  0.1772 -0.2105
   86SOPE   H3S 8021   3.046   0.699   3.465  2.9424  2.4949 -2.1190
   86SOPE   C24 8022   2.920   0.867   3.503  0.1080  0.1440  0.8197
   86SOPE   H4R 8023   2.997   0.929   3.554  1.6284 -1.1412  0.1564
   86SOPE   H4S 8024   2.856   0.935   3.442 -1.8437 -2.1125  0.2488
   86SOPE   C25 8025   2.828   0.798   3.595 -0.4411  0.4454 -0.7527
   86SOPE   H5R 8026   2.740   0.750   3.546 -0.6933 -0.1711  0.2637
   86SOPE   H5S 8027   2.881   0.717   3.649 -0.6938 -0.5237 -1.8986
   86SOPE   C26 8028   2.780   0.894   3.712 -0.3126  0.0173 -0.9721
   86SOPE   H6R 8029   2.877   0.908   3.765  0.4716 -2.9854 -1.4101
   86SOPE   H6S 8030   2.738   0.990   3.677  1.2941  1.7072  1.3839
   86SOPE   C27 8031   2.680   0.834   3.809 -0.0952  0.3877  0.1970
   86SOPE   H7R 8032   2.599   0.791   3.747 -0.6312  0.9198  0.5243
   86SOPE   H7S 8033   2.723   0.743   3.857  0.6442  0.7790  0.2938
   86SOPE   C28 8034   2.630   0.936   3.917  0.0822 -0.3956 -0.1844
   86SOPE   H8R 8035   2.567   1.011   3.865  0.0130 -0.0910  0.3402
   86SOPE   H8S 8036   2.565   0.875   3.984  0.8139 -2.1709 -0.9982
   86SOPE   C29 8037   2.737   1.012   3.990 -0.2749  0.0079 -0.1366
   86SOPE   H91 8038   2.781   1.097   3.936  1.0175 -0.8555 -0.5021
   86SOPE  C210 8039   2.787   0.982   4.112 -0.3035 -0.7275  0.1994
   86SOPE  H101 8040   2.863   1.049   4.155 -1.5652  1.1799 -0.4254
   86SOPE  C211 8041   2.743   0.866   4.198 -0.2184  0.6229 -0.0842
   86SOPE  H11R 8042   2.827   0.812   4.246 -0.5356 -0.5198 -0.7713
   86SOPE  H11S 8043   2.685   0.792   4.138  0.2604 -0.4852  0.7984
   86SOPE  C212 8044   2.652   0.907   4.325 -0.3443  0.1816 -0.0418
   86SOPE  H12R 8045   2.563   0.960   4.284 -2.0652 -0.9428  1.9890
   86SOPE  H12S 8046   2.706   0.977   4.392  2.4594 -0.8511 -1.1009
   86SOPE  C213 8047   2.617   0.780   4.403  0.1893  0.4421 -0.1115
   86SOPE  H13R 8048   2.579   0.702   4.333  0.0966  1.3625 -1.1083
   86SOPE  H13S 8049   2.535   0.804   4.475  1.2252  1.2687  0.8123
   86SOPE  C214 8050   2.728   0.724   4.486 -0.1472  0.0766 -0.1555
   86SOPE  H14R 8051   2.793   0.796   4.541 -0.1753 -1.0930  1.4574
   86SOPE  H14S 8052   2.792   0.676   4.409  1.8224  0.4334  1.1789
   86SOPE  C215 8053   2.684   0.619   4.585 -0.0128  0.5348  0.2024
   86SOPE  H15R 8054   2.643   0.530   4.533 -0.0243 -0.1288  1.3099
   86SOPE  H15S 8055   2.610   0.668   4.653  0.9021  1.5687  0.4829
   86SOPE  C216 8056   2.794   0.565   4.678  0.4905 -0.6262 -0.2559
   86SOPE  H16R 8057   2.760   0.479   4.740 -1.3990  0.7588  0.6953
   86SOPE  H16S 8058   2.822   0.639   4.756 -0.1614 -1.3607  0.7021
   86SOPE  C217 8059   2.928   0.522   4.601  0.4336 -0.0599  0.2690
   86SOPE  H17R 8060   2.981   0.608   4.555  0.8172 -0.1782  0.4938
   86SOPE  H17S 8061   2.900   0.460   4.513  1.3968  2.9177 -2.3569
   86SOPE  C218 8062   3.020   0.450   4.701  0.3905 -0.0428  0.0098
   86SOPE  H18R 8063   2.965   0.393   4.779  0.8006 -0.3604  0.0750
   86SOPE  H18S 8064   3.061   0.535   4.759 -3.1657  2.3661 -0.6846
   86SOPE  H18T 8065   3.100   0.394   4.648 -1.1633 -2.0642 -0.3406
   86SOPE   C33 8066   3.414   0.712   3.236 -0.1420 -0.6804 -0.4178
   86SOPE   H3X 8067   3.437   0.604   3.245  1.8648 -0.4033 -1.5590
   86SOPE   H3Y 8068   3.314   0.738   3.276  0.3784  0.9619 -0.1070
   86SOPE   C34 8069   3.518   0.788   3.322 -0.5648 -0.0237  0.2776
   86SOPE   H4X 8070   3.498   0.897   3.330 -0.8143  0.0330 -0.8803
   86SOPE   H4Y 8071   3.613   0.772   3.267 -0.1634  2.4330  0.1321
   86SOPE   C35 8072   3.539   0.729   3.465 -0.1951 -0.4441 -0.0585
   86SOPE   H5X 8073   3.623   0.791   3.503  0.1469  1.3050 -3.2810
   86SOPE   H5Y 8074   3.553   0.619   3.463  2.7828 -0.2025  2.0759
   86SOPE   C36 8075   3.423   0.754   3.564 -0.4069 -0.4750  0.2520
   86SOPE   H6X 8076   3.369   0.847   3.535  0.9258 -0.4655 -2.5559
   86SOPE   H6Y 8077   3.452   0.777   3.669  1.1953 -3.3407  0.5441
   86SOPE   C37 8078   3.306   0.647   3.567  0.4452 -0.4995 -0.2742
   86SOPE   H7X 8079   3.345   0.544   3.581 -0.7124 -0.9724 -0.3567
   86SOPE   H7Y 8080   3.254   0.640   3.469  2.2275  0.4416 -1.3326
   86SOPE   C38 8081   3.205   0.675   3.683 -0.7935 -1.1211  0.1271
   86SOPE   H8X 8082   3.118   0.609   3.665 -1.9626  0.0598  1.2137
   86SOPE   H8Y 8083   3.169   0.779   3.667 -1.1846 -1.5366 -2.1127
   86SOPE   C39 8084   3.267   0.673   3.826 -0.3791  0.2380 -0.1613
   86SOPE   H9X 8085   3.355   0.742   3.830  0.6715 -0.8625 -2.5014
   86SOPE   H9Y 8086   3.303   0.569   3.844 -0.7646  0.2432  0.6576
   86SOPE  C310 8087   3.168   0.717   3.927  0.2832 -0.4344  0.1815
   86SOPE  H10X 8088   3.081   0.648   3.932 -0.6438  0.6569 -0.4440
   86SOPE  H10Y 8089   3.136   0.814   3.884  1.4149 -0.1278 -0.0065
   86SOPE  C311 8090   3.233   0.736   4.058 -0.2740 -0.1996  0.3612
   86SOPE  H11X 8091   3.311   0.815   4.065  0.7294 -0.9335 -1.7105
   86SOPE  H11Y 8092   3.274   0.637   4.088  0.3218 -0.7188 -1.9781
   86SOPE  C312 8093   3.124   0.785   4.163 -0.5449  0.1685 -0.1825
   86SOPE  H12X 8094   3.040   0.713   4.160 -0.7417  0.0081  3.6281
   86SOPE  H12Y 8095   3.083   0.882   4.129 -1.2957 -0.7952 -2.1693
   86SOPE  C313 8096   3.166   0.770   4.306 -0.1672  0.3795 -0.5736
   86SOPE  H13X 8097   3.215   0.675   4.335 -0.2058  1.0930  2.0425
   86SOPE  H13Y 8098   3.079   0.768   4.374 -0.8552 -0.5708 -1.4514
   86SOPE  C314 8099   3.255   0.884   4.354 -0.6112  0.1062  0.0586
   86SOPE  H14X 8100   3.192   0.975   4.344  1.1864  1.4048  0.0934
   86SOPE  H14Y 8101   3.340   0.886   4.283  0.6892  0.6091  1.5678
   86SOPE  C315 8102   3.312   0.860   4.494 -0.4395 -0.5413  0.2412
   86SOPE  H15X 8103   3.390   0.933   4.525 -2.2766  1.8798 -0.4723
   86SOPE  H15Y 8104   3.370   0.767   4.479  3.5123  1.5973  0.8724
   86SOPE  C316 8105   3.211   0.830   4.598 -0.2953 -0.1169  0.2087
   86SOPE  H16X 8106   3.167   0.732   4.567  0.1910 -0.0601 -0.6826
   86SOPE  H16Y 8107   3.129   0.904   4.587  1.3274  1.5975 -0.8874
   86SOPE  C317 8108   3.267   0.830   4.749  1.1009  0.8913  0.1397
   86SOPE  H17X 8109   3.353   0.760   4.756 -0.2374 -0.6763  2.0562
   86SOPE  H17Y 8110   3.183   0.805   4.818  0.5089  0.4286 -0.7225
   86SOPE  C318 8111   3.317   0.971   4.792  0.6878  0.0808 -0.5023
   86SOPE  H18X 8112   3.239   1.041   4.830 -0.1053 -2.6821  3.6586
   86SOPE  H18Y 8113   3.373   1.021   4.711  1.4111  0.5294  0.2543
   86SOPE  H18Z 8114   3.381   0.955   4.881 -2.5110 -1.5357  1.6986
   87SOPE     N 8115   5.068   6.701   2.675 -0.0560  0.0615 -0.1577
   87SOPE   HN1 8116   4.974   6.686   2.717 -0.1213 -3.7862 -1.3597
   87SOPE   HN2 8117   5.124   6.778   2.717  1.3889 -1.8172  1.4834
   87SOPE   HN3 8118   5.056   6.719   2.573 -0.6638  1.5087  0.1392
   87SOPE   C12 8119   5.147   6.568   2.689  0.3141  0.2451 -0.5843
   87SOPE  H12A 8120   5.142   6.519   2.589 -0.7704 -0.4720 -0.1977
   87SOPE  H12B 8121   5.083   6.517   2.763  0.3553  0.9457 -0.0511
   87SOPE   C11 8122   5.283   6.592   2.747 -0.5977  0.4064  0.1192
   87SOPE  H11A 8123   5.330   6.497   2.782 -0.5198 -0.3002 -1.7463
   87SOPE  H11B 8124   5.267   6.649   2.841  0.4039 -0.6324  0.9485
   87SOPE     P 8125   5.532   6.674   2.689 -0.1745 -0.1221  0.1096
   87SOPE   O13 8126   5.573   6.812   2.723 -0.1336  0.3393  0.1389
   87SOPE   O14 8127   5.603   6.601   2.580  0.2478  0.3884  0.0194
   87SOPE   O12 8128   5.374   6.659   2.656 -0.4062 -0.2435  0.4549
   87SOPE   O11 8129   5.545   6.594   2.819 -0.1589 -0.3944  0.2240
   87SOPE    C1 8130   5.544   6.637   2.956  0.7296 -0.3712  0.4308
   87SOPE    HA 8131   5.493   6.560   3.018 -3.0782  0.5290 -1.2805
   87SOPE    HB 8132   5.488   6.733   2.963 -0.5091 -0.8703 -1.7999
   87SOPE    C2 8133   5.681   6.665   3.009 -1.2347 -0.4129  0.4339
   87SOPE    HS 8134   5.742   6.723   2.936  0.4739 -2.4168  0.1641
   87SOPE   O21 8135   5.740   6.537   3.043  0.3508 -0.9371  0.3083
   87SOPE   C21 8136   5.870   6.554   3.041  0.4490  0.6801  0.3745
   87SOPE   O22 8137   5.937   6.639   2.983 -0.0977  0.3944 -0.1897
   87SOPE   C22 8138   5.932   6.436   3.113 -0.5816  0.0330  0.3801
   87SOPE   H2R 8139   6.030   6.415   3.065 -1.3796 -0.0728 -1.2563
   87SOPE   H2S 8140   5.871   6.346   3.090  1.0158 -1.0050  0.0056
   87SOPE    C3 8141   5.661   6.756   3.138  0.1417  0.2712 -1.0982
   87SOPE    HX 8142   5.600   6.693   3.206 -1.7462  3.5237  0.4708
   87SOPE    HY 8143   5.601   6.848   3.119 -0.5896  0.3480  1.2342
   87SOPE   O31 8144   5.782   6.772   3.213 -1.0077 -0.5204 -0.1603
   87SOPE   C31 8145   5.849   6.887   3.194 -0.2484  0.3177 -0.5973
   87SOPE   O32 8146   5.806   6.978   3.126 -0.3444  0.4914 -0.0057
   87SOPE   C32 8147   5.958   6.892   3.298 -0.0395 -0.7374 -0.8288
   87SOPE   H2X 8148   6.024   6.803   3.291  1.0439  0.0023 -0.3490
   87SOPE   H2Y 8149   5.911   6.878   3.397  2.0693 -1.9653  0.0650
   87SOPE   C23 8150   5.924   6.447   3.276  0.1705 -0.0326 -0.4095
   87SOPE   H3R 8151   5.928   6.557   3.293 -1.5194  0.4173 -2.5554
   87SOPE   H3S 8152   6.002   6.381   3.320  1.1026  0.2664 -1.5699
   87SOPE   C24 8153   5.783   6.392   3.323 -0.1331  0.5890 -0.0286
   87SOPE   H4R 8154   5.715   6.406   3.236  1.4075  2.3518 -1.0289
   87SOPE   H4S 8155   5.805   6.286   3.351 -1.5584  0.3127  0.0935
   87SOPE   C25 8156   5.727   6.459   3.450  0.0475 -0.4483 -0.4577
   87SOPE   H5R 8157   5.666   6.548   3.424 -1.7908 -0.8319  2.1022
   87SOPE   H5S 8158   5.648   6.391   3.491 -0.0232 -0.7572 -1.1007
   87SOPE   C26 8159   5.837   6.492   3.548 -0.4595 -0.2252 -0.2507
   87SOPE   H6R 8160   5.901   6.403   3.564  0.3326  0.5459  1.0918
   87SOPE   H6S 8161   5.905   6.572   3.513  0.8455 -1.5577 -0.8391
   87SOPE   C27 8162   5.782   6.530   3.690 -0.4812 -0.6105 -0.8916
   87SOPE   H7R 8163   5.717   6.620   3.678 -0.9297 -0.1554  3.3638
   87SOPE   H7S 8164   5.720   6.447   3.730  0.6556 -1.0304  0.0655
   87SOPE   C28 8165   5.872   6.565   3.805 -0.5855 -0.0249 -0.4903
   87SOPE   H8R 8166   5.810   6.576   3.896  0.8854 -0.0121  0.5480
   87SOPE   H8S 8167   5.930   6.470   3.811 -0.4782  0.1092  0.9353
   87SOPE   C29 8168   5.973   6.679   3.785 -0.0427 -0.5741 -1.0400
   87SOPE   H91 8169   6.029   6.672   3.690  0.9709  1.7468 -0.6933
   87SOPE  C210 8170   6.012   6.780   3.873  0.5349  0.3704  0.0781
   87SOPE  H101 8171   6.089   6.844   3.828  0.1658 -0.2979 -1.5773
   87SOPE  C211 8172   5.962   6.806   4.008 -0.1823  0.5708 -0.2814
   87SOPE  H11R 8173   5.874   6.740   4.023  0.5554 -0.5065 -0.5617
   87SOPE  H11S 8174   5.937   6.915   4.008  0.6812  0.8065 -1.5768
   87SOPE  C212 8175   6.078   6.785   4.109  0.1616 -0.3702  0.0029
   87SOPE  H12R 8176   6.153   6.865   4.093  0.3016 -0.6959 -1.1130
   87SOPE  H12S 8177   6.129   6.687   4.091 -1.4791 -1.5815  1.6013
   87SOPE  C213 8178   6.039   6.770   4.253  0.4122 -0.3598 -0.2086
   87SOPE  H13R 8179   6.120   6.719   4.309 -1.0740 -2.1670  0.4124
   87SOPE  H13S 8180   5.967   6.685   4.256  0.7240 -0.6959 -1.5789
   87SOPE  C214 8181   6.001   6.889   4.333  1.0530 -0.6335 -0.6136
   87SOPE  H14R 8182   5.923   6.942   4.275  0.2254  2.0220  2.5991
   87SOPE  H14S 8183   6.076   6.970   4.351  0.1701 -0.0923  0.7269
   87SOPE  C215 8184   5.923   6.856   4.466 -0.3884 -0.4614 -0.0694
   87SOPE  H15R 8185   5.969   6.771   4.522  1.3700 -0.6834 -1.7039
   87SOPE  H15S 8186   5.823   6.817   4.439 -0.9613 -1.9928  3.7163
   87SOPE  C216 8187   5.906   6.972   4.557  0.0909 -0.1908  0.4400
   87SOPE  H16R 8188   5.836   6.946   4.640  0.2256 -0.4027  0.4867
   87SOPE  H16S 8189   5.863   7.051   4.491  0.5785 -1.0683 -0.9768
   87SOPE  C217 8190   6.039   7.035   4.614 -0.4863 -0.1627 -0.5582
   87SOPE  H17R 8191   6.103   7.068   4.530  1.1597  1.9344  1.3754
   87SOPE  H17S 8192   6.096   6.962   4.676  1.5511 -0.5336 -2.7291
   87SOPE  C218 8193   6.009   7.151   4.697 -0.3358  0.3352 -0.0778
   87SOPE  H18R 8194   5.972   7.109   4.792  1.5258 -0.0451  0.5243
   87SOPE  H18S 8195   5.922   7.207   4.656  1.0394  1.9551 -0.9119
   87SOPE  H18T 8196   6.096   7.216   4.718  0.5103 -0.4897 -0.9171
   87SOPE   C33 8197   6.046   7.025   3.293 -0.2564  0.8834  0.5437
   87SOPE   H3X 8198   5.985   7.117   3.282  3.2357  3.0680 -3.1042
   87SOPE   H3Y 8199   6.117   7.006   3.210 -0.6154 -2.9079  0.9103
   87SOPE   C34 8200   6.141   7.034   3.417  0.4129  0.0171  0.2793
   87SOPE   H4X 8201   6.225   7.103   3.393 -1.9267  3.4610  1.2664
   87SOPE   H4Y 8202   6.179   6.930   3.430 -1.4658 -0.6433  0.7184
   87SOPE   C35 8203   6.050   7.082   3.530 -0.4380  0.1558  0.6799
   87SOPE   H5X 8204   5.967   7.011   3.550 -1.2207  0.5910 -0.8369
   87SOPE   H5Y 8205   5.997   7.177   3.505  0.1534  0.6781  1.3704
   87SOPE   C36 8206   6.125   7.109   3.654 -0.0098  0.2705 -0.2035
   87SOPE   H6X 8207   6.213   7.172   3.630 -1.0861  3.1832  2.6836
   87SOPE   H6Y 8208   6.171   7.013   3.685  0.1051 -0.2454 -1.8746
   87SOPE   C37 8209   6.038   7.155   3.775 -1.0680 -0.1561  0.9286
   87SOPE   H7X 8210   5.961   7.083   3.810 -1.7257  0.8968  1.7014
   87SOPE   H7Y 8211   5.976   7.241   3.741  1.0905  1.5621  1.0658
   87SOPE   C38 8212   6.116   7.209   3.888 -0.2782  0.1988 -0.8742
   87SOPE   H8X 8213   6.142   7.313   3.858  2.0887 -0.2879 -0.6941
   87SOPE   H8Y 8214   6.200   7.147   3.925 -2.5214 -0.8228  3.0154
   87SOPE   C39 8215   6.028   7.215   4.019  0.3825  0.0372  0.2605
   87SOPE   H9X 8216   5.973   7.128   4.060 -1.7541  1.6256  0.9305
   87SOPE   H9Y 8217   5.949   7.289   3.994 -1.0481 -1.9904 -1.5676
   87SOPE  C310 8218   6.112   7.269   4.131  0.2460 -0.2009 -0.0385
   87SOPE  H10X 8219   6.178   7.351   4.096  0.0775  0.2867  0.7570
   87SOPE  H10Y 8220   6.175   7.189   4.176 -0.4240 -1.4796 -1.3031
   87SOPE  C311 8221   6.014   7.333   4.236 -0.2088 -0.3970 -0.2699
   87SOPE  H11X 8222   5.953   7.244   4.262  2.4089 -2.3713 -0.3817
   87SOPE  H11Y 8223   5.954   7.417   4.196  1.7587  1.1270 -0.1741
   87SOPE  C312 8224   6.080   7.371   4.370 -0.2329  0.2204  0.0713
   87SOPE  H12X 8225   6.155   7.292   4.388  0.7279  1.0081 -0.3398
   87SOPE  H12Y 8226   6.018   7.365   4.462 -1.0015  3.2493 -0.1216
   87SOPE  C313 8227   6.157   7.501   4.373  0.2047  0.0557 -0.4272
   87SOPE  H13X 8228   6.093   7.577   4.323  0.1649 -0.0107 -0.4771
   87SOPE  H13Y 8229   6.244   7.473   4.308 -2.2453 -1.7672 -3.2097
   87SOPE  C314 8230   6.206   7.555   4.508  0.3046 -0.1150  0.8318
   87SOPE  H14X 8231   6.124   7.587   4.575 -0.4253  0.0579 -0.1243
   87SOPE  H14Y 8232   6.262   7.650   4.492  0.9689 -0.1388  2.7666
   87SOPE  C315 8233   6.297   7.450   4.574  0.0433 -0.1560 -0.1940
   87SOPE  H15X 8234   6.381   7.434   4.504  0.0525 -3.2524  0.3463
   87SOPE  H15Y 8235   6.243   7.354   4.588  1.0970 -0.4939  2.1395
   87SOPE  C316 8236   6.342   7.482   4.713 -0.3862 -0.0574 -0.9092
   87SOPE  H16X 8237   6.409   7.571   4.713  0.2129 -0.4989 -1.6902
   87SOPE  H16Y 8238   6.402   7.396   4.751 -0.0474 -0.2974 -1.9599
   87SOPE  C317 8239   6.236   7.520   4.820  0.4625  0.0745  0.0420
   87SOPE  H17X 8240   6.174   7.428   4.830 -0.7687  0.8622 -0.1145
   87SOPE  H17Y 8241   6.184   7.608   4.777  0.0697  0.6037  1.5659
   87SOPE  C318 8242   6.294   7.555   4.953 -0.4699  0.8637  0.5001
   87SOPE  H18X 8243   6.356   7.647   4.942 -0.7459  1.0027  0.1082
   87SOPE  H18Y 8244   6.361   7.481   5.002 -0.1400  0.2119 -0.8767
   87SOPE  H18Z 8245   6.226   7.574   5.039  0.3160 -3.9905  2.5458
   88SOPE     N 8246   4.929   0.719   2.359  0.2380  0.3231 -0.9353
   88SOPE   HN1 8247   4.866   0.637   2.358  0.4524 -0.0211  2.4805
   88SOPE   HN2 8248   5.022   0.672   2.367  0.4955  1.1826  2.1448
   88SOPE   HN3 8249   4.929   0.766   2.451 -2.6160  0.6658 -1.0297
   88SOPE   C12 8250   4.921   0.821   2.245 -0.0975  1.0225 -0.5237
   88SOPE  H12A 8251   4.920   0.755   2.156  0.9838  0.0575  0.1607
   88SOPE  H12B 8252   5.008   0.890   2.251 -0.3397  1.2043  2.0577
   88SOPE   C11 8253   4.793   0.906   2.243  0.7239 -0.3191 -0.2340
   88SOPE  H11A 8254   4.815   0.984   2.168  2.6533 -0.1570  0.4342
   88SOPE  H11B 8255   4.777   0.962   2.338 -0.1929 -0.6430 -0.1868
   88SOPE     P 8256   4.547   0.860   2.139 -0.6658 -0.5167 -0.1053
   88SOPE   O13 8257   4.513   0.752   2.050  0.2939 -0.7114  0.3931
   88SOPE   O14 8258   4.568   0.993   2.073  0.4351  0.2572 -0.0339
   88SOPE   O12 8259   4.679   0.824   2.216 -0.1785 -0.1653 -0.3810
   88SOPE   O11 8260   4.453   0.868   2.259 -0.2601 -0.2076 -0.8932
   88SOPE    C1 8261   4.430   0.981   2.341  0.2917  0.4608  0.3735
   88SOPE    HA 8262   4.332   0.965   2.390  0.5224 -2.6575 -0.0030
   88SOPE    HB 8263   4.422   1.069   2.273  0.3030 -0.5767 -1.0203
   88SOPE    C2 8264   4.519   0.976   2.461 -0.4603  0.1244  0.1277
   88SOPE    HS 8265   4.620   0.936   2.440 -0.4147 -0.0179  0.6032
   88SOPE   O21 8266   4.451   0.887   2.553  0.0573 -0.5443 -0.4198
   88SOPE   C21 8267   4.521   0.835   2.641  0.6211 -0.5575  0.2066
   88SOPE   O22 8268   4.647   0.837   2.645  0.4464  0.3077 -0.4018
   88SOPE   C22 8269   4.438   0.759   2.742  0.5469 -0.4770  0.4432
   88SOPE   H2R 8270   4.402   0.663   2.700 -0.1312 -1.0677  2.2752
   88SOPE   H2S 8271   4.347   0.815   2.771  2.0006  0.5513  3.4791
   88SOPE    C3 8272   4.518   1.123   2.526  0.2401 -0.3868 -0.6749
   88SOPE    HX 8273   4.420   1.152   2.570  0.5922 -1.3409  0.8147
   88SOPE    HY 8274   4.544   1.200   2.450  1.2272 -1.2187 -1.2122
   88SOPE   O31 8275   4.605   1.127   2.641 -0.1062 -0.3432 -0.3984
   88SOPE   C31 8276   4.739   1.149   2.603 -0.7861  0.1688 -0.4579
   88SOPE   O32 8277   4.785   1.164   2.492  0.3065 -0.3717 -0.0098
   88SOPE   C32 8278   4.826   1.135   2.729  0.3432  0.4757 -0.6239
   88SOPE   H2X 8279   4.910   1.205   2.709 -0.6709  1.4459 -1.6729
   88SOPE   H2Y 8280   4.858   1.032   2.754  0.7416  0.5636 -0.7666
   88SOPE   C23 8281   4.528   0.725   2.864  0.0457  0.0669 -0.1059
   88SOPE   H3R 8282   4.631   0.691   2.843  0.2931 -0.9375  2.4494
   88SOPE   H3S 8283   4.477   0.649   2.927 -0.2341  0.8919  0.6918
   88SOPE   C24 8284   4.533   0.855   2.949  0.2721 -0.0081  0.3612
   88SOPE   H4R 8285   4.588   0.930   2.889  1.2499 -0.7379  0.3194
   88SOPE   H4S 8286   4.430   0.894   2.964  0.2480 -0.1471  0.5674
   88SOPE   C25 8287   4.600   0.831   3.086  0.0924 -0.3735  0.1890
   88SOPE   H5R 8288   4.616   0.932   3.130  0.5428 -0.5573  0.4535
   88SOPE   H5S 8289   4.529   0.776   3.152 -0.6780  0.5318  0.1326
   88SOPE   C26 8290   4.734   0.751   3.071  1.1216 -0.1568  0.2435
   88SOPE   H6R 8291   4.703   0.651   3.036 -0.8065 -0.1032  1.6197
   88SOPE   H6S 8292   4.800   0.800   2.996 -0.3740  1.5044 -0.0610
   88SOPE   C27 8293   4.813   0.725   3.204  0.4886 -0.0761 -0.7351
   88SOPE   H7R 8294   4.881   0.813   3.210  1.4925 -0.8435 -0.4882
   88SOPE   H7S 8295   4.745   0.739   3.291  0.0989  3.0489 -1.4272
   88SOPE   C28 8296   4.896   0.595   3.211  0.5038 -0.8453  0.0653
   88SOPE   H8R 8297   4.966   0.612   3.126 -2.9964  0.9398 -2.7039
   88SOPE   H8S 8298   4.959   0.608   3.302 -2.4453  1.4087  1.9662
   88SOPE   C29 8299   4.815   0.460   3.216 -0.6000 -0.4210 -0.7672
   88SOPE   H91 8300   4.780   0.423   3.118  1.3005 -0.2513 -1.5505
   88SOPE  C210 8301   4.796   0.392   3.336  0.3870 -0.1974 -0.2866
   88SOPE  H101 8302   4.736   0.300   3.339  1.3491 -0.9354 -2.0315
   88SOPE  C211 8303   4.847   0.443   3.466 -0.2475 -0.7338  0.7919
   88SOPE  H11R 8304   4.775   0.514   3.512 -0.0966 -0.3454  0.4305
   88SOPE  H11S 8305   4.948   0.487   3.460  0.0705 -1.4779  0.5744
   88SOPE  C212 8306   4.855   0.330   3.570 -0.0658  0.4347  0.4878
   88SOPE  H12R 8307   4.917   0.242   3.542 -1.2309 -0.8497  1.7735
   88SOPE  H12S 8308   4.751   0.290   3.576 -0.0866  0.2088 -0.9239
   88SOPE  C213 8309   4.910   0.382   3.707 -0.3289  0.0846 -0.0305
   88SOPE  H13R 8310   4.854   0.472   3.741 -0.1511  0.9114 -1.8121
   88SOPE  H13S 8311   5.017   0.402   3.686 -0.5546 -0.3870 -1.7844
   88SOPE  C214 8312   4.908   0.286   3.828 -0.1055 -0.3119  0.0103
   88SOPE  H14R 8313   4.974   0.200   3.802 -0.3920 -0.7993  0.8733
   88SOPE  H14S 8314   4.803   0.258   3.852  0.5587 -1.9615  1.1793
   88SOPE  C215 8315   4.962   0.346   3.957  0.0093 -0.2983  0.1871
   88SOPE  H15R 8316   4.894   0.422   4.001 -0.9307 -0.3579 -1.1010
   88SOPE  H15S 8317   5.064   0.381   3.931 -0.0545 -0.1556  0.1290
   88SOPE  C216 8318   4.980   0.247   4.074 -0.3794  0.3132  0.3014
   88SOPE  H16R 8319   5.047   0.164   4.043  0.6369  1.8507 -1.8494
   88SOPE  H16S 8320   4.881   0.204   4.100 -0.4624  0.8303  0.8660
   88SOPE  C217 8321   5.032   0.320   4.205 -0.2752  0.2439 -0.5555
   88SOPE  H17R 8322   4.943   0.365   4.254 -1.5727 -1.4137 -1.2873
   88SOPE  H17S 8323   5.102   0.398   4.170 -0.3557  0.5917  0.0439
   88SOPE  C218 8324   5.113   0.230   4.286 -0.7283  0.5112 -0.8165
   88SOPE  H18R 8325   5.036   0.166   4.334 -1.4225  0.5231 -1.8882
   88SOPE  H18S 8326   5.162   0.285   4.369  0.6129 -0.4459 -0.9408
   88SOPE  H18T 8327   5.180   0.169   4.222 -1.2815 -0.2916 -0.6422
   88SOPE   C33 8328   4.754   1.190   2.854 -0.7450 -0.2534  0.3771
   88SOPE   H3X 8329   4.662   1.131   2.875 -0.3529 -0.7562  0.7172
   88SOPE   H3Y 8330   4.733   1.298   2.853 -2.1642 -0.5036  0.9969
   88SOPE   C34 8331   4.843   1.149   2.971  0.0064 -0.7719  0.5680
   88SOPE   H4X 8332   4.941   1.200   2.956 -0.3393 -0.5060 -0.9908
   88SOPE   H4Y 8333   4.867   1.041   2.984  0.2892 -0.7391  0.3428
   88SOPE   C35 8334   4.778   1.196   3.099  0.0258  0.1309 -0.8098
   88SOPE   H5X 8335   4.683   1.142   3.112  0.1177  0.3832  1.2529
   88SOPE   H5Y 8336   4.752   1.304   3.088 -1.7184 -0.1718  0.0882
   88SOPE   C36 8337   4.872   1.165   3.217  0.0805  0.0123 -0.2636
   88SOPE   H6X 8338   4.950   1.243   3.203 -1.1068  0.8419 -3.1286
   88SOPE   H6Y 8339   4.920   1.066   3.205 -1.4434 -0.8109  0.1638
   88SOPE   C37 8340   4.805   1.173   3.355  0.8926  0.4248 -0.3745
   88SOPE   H7X 8341   4.873   1.139   3.436 -0.5603 -1.9784 -0.0489
   88SOPE   H7Y 8342   4.718   1.106   3.372  0.3179  1.2575  0.0384
   88SOPE   C38 8343   4.768   1.316   3.393  0.3923 -0.5701  0.7774
   88SOPE   H8X 8344   4.687   1.356   3.328  0.3684 -1.8096 -0.0031
   88SOPE   H8Y 8345   4.851   1.386   3.371  0.3865 -0.9795 -0.6280
   88SOPE   C39 8346   4.731   1.334   3.544 -0.0622 -0.2431 -0.2308
   88SOPE   H9X 8347   4.668   1.247   3.571 -1.2050 -0.4318 -3.0820
   88SOPE   H9Y 8348   4.686   1.436   3.551 -0.6675 -0.4274 -1.1874
   88SOPE  C310 8349   4.858   1.326   3.633  0.0969 -0.0485  0.2402
   88SOPE  H10X 8350   4.925   1.399   3.583  0.6938 -0.0378  1.0571
   88SOPE  H10Y 8351   4.900   1.223   3.636  1.6098  0.4525 -1.8782
   88SOPE  C311 8352   4.853   1.375   3.777  0.5783  0.2898 -0.3482
   88SOPE  H11X 8353   4.778   1.455   3.792 -0.8811 -0.8568 -1.2530
   88SOPE  H11Y 8354   4.952   1.416   3.806  0.5578  1.3914 -1.7437
   88SOPE  C312 8355   4.838   1.260   3.887  0.2718  0.2565 -0.1838
   88SOPE  H12X 8356   4.931   1.201   3.897  0.1531  0.3149  1.6261
   88SOPE  H12Y 8357   4.761   1.190   3.847  2.4329 -1.4442 -1.6110
   88SOPE  C313 8358   4.804   1.326   4.032 -0.0011  0.7593  0.0641
   88SOPE  H13X 8359   4.764   1.247   4.099  1.0577  0.1221 -0.0254
   88SOPE  H13Y 8360   4.722   1.397   4.009 -0.6324 -0.4092 -1.5408
   88SOPE  C314 8361   4.921   1.396   4.093 -0.0818 -0.3177 -0.4203
   88SOPE  H14X 8362   4.935   1.493   4.042 -1.3341  0.0469 -0.1040
   88SOPE  H14Y 8363   5.013   1.339   4.065  0.8280  0.5305  0.7597
   88SOPE  C315 8364   4.919   1.413   4.246 -0.1463  0.1501 -0.8232
   88SOPE  H15X 8365   5.012   1.464   4.281 -0.5863  0.4097 -0.0159
   88SOPE  H15Y 8366   4.906   1.317   4.300 -1.5030  0.6561 -0.1945
   88SOPE  C316 8367   4.804   1.506   4.282  0.2170  0.3842  0.1705
   88SOPE  H16X 8368   4.711   1.453   4.252 -0.2502  1.7147 -0.7956
   88SOPE  H16Y 8369   4.811   1.594   4.216 -2.0682  0.0574 -0.5784
   88SOPE  C317 8370   4.789   1.538   4.429  0.0673  0.2845 -0.7689
   88SOPE  H17X 8371   4.810   1.444   4.484  0.0591  0.4432 -0.4907
   88SOPE  H17Y 8372   4.687   1.568   4.462  0.1589  0.4484 -0.6299
   88SOPE  C318 8373   4.884   1.650   4.469 -0.3444 -0.0320  1.0246
   88SOPE  H18X 8374   4.989   1.614   4.469 -0.5153 -0.5933  2.3295
   88SOPE  H18Y 8375   4.857   1.672   4.574  2.6729 -1.1993  2.1726
   88SOPE  H18Z 8376   4.870   1.735   4.399 -1.6086  1.3922  2.9113
   89SAPC     N 8377   5.882   5.745   6.946 -0.1074 -0.2053 -0.2465
   89SAPC   C12 8378   5.998   5.818   6.876 -0.2190  0.7074 -0.3029
   89SAPC  H12A 8379   5.979   5.925   6.882 -1.5799  0.4264  0.9906
   89SAPC  H12B 8380   6.005   5.791   6.772 -0.5822 -2.3564  0.3742
   89SAPC   C13 8381   5.922   5.608   6.968 -0.1601 -0.5662  0.0969
   89SAPC  H13A 8382   6.006   5.601   7.036 -0.0034 -2.7548 -0.2218
   89SAPC  H13B 8383   5.842   5.549   7.010  0.6394 -1.3361  0.5760
   89SAPC  H13C 8384   5.950   5.560   6.875 -2.8208 -0.7004 -0.7120
   89SAPC   C14 8385   5.858   5.803   7.086 -0.2892  0.4678  0.4962
   89SAPC  H14A 8386   5.818   5.903   7.074  1.5874  1.3651  1.2115
   89SAPC  H14B 8387   5.796   5.736   7.143 -0.2245  0.5920  0.7108
   89SAPC  H14C 8388   5.954   5.819   7.133  0.8580 -0.2487 -1.4778
   89SAPC   C15 8389   5.752   5.758   6.868  0.7544 -0.2786 -0.2335
   89SAPC  H15A 8390   5.722   5.861   6.857  0.4377 -0.2698  0.6386
   89SAPC  H15B 8391   5.756   5.707   6.772  0.0531 -1.2126  0.2225
   89SAPC  H15C 8392   5.668   5.727   6.927 -0.2046  0.5271 -1.1386
   89SAPC   C11 8393   6.130   5.790   6.944  0.2513  0.3413 -0.0733
   89SAPC  H11A 8394   6.127   5.818   7.051  0.5337  0.6244 -0.1407
   89SAPC  H11B 8395   6.186   5.865   6.885 -1.4543  0.5852 -1.4859
   89SAPC     P 8396   6.330   5.628   6.965  0.4216 -0.4584  0.3439
   89SAPC   O13 8397   6.396   5.757   6.979 -0.8251  0.1136  0.2530
   89SAPC   O14 8398   6.325   5.555   7.093  0.5937  0.0765  0.2562
   89SAPC   O12 8399   6.184   5.657   6.927  0.1750 -0.5432 -0.1636
   89SAPC   O11 8400   6.387   5.543   6.841 -0.7028  0.4254  0.1941
   89SAPC    C1 8401   6.292   5.467   6.765 -0.4350 -0.0127  0.0700
   89SAPC    HA 8402   6.199   5.450   6.822 -1.1076  1.7755 -0.4271
   89SAPC    HB 8403   6.258   5.524   6.676 -2.0089 -0.2815  0.4729
   89SAPC    C2 8404   6.352   5.337   6.711  0.1185  0.0196 -0.0930
   89SAPC    HS 8405   6.384   5.270   6.793  3.0628 -0.3712 -1.4273
   89SAPC   O21 8406   6.455   5.367   6.619 -0.7784  0.5178  0.1913
   89SAPC   C21 8407   6.534   5.260   6.594  0.9620 -0.2570 -0.2749
   89SAPC   O22 8408   6.526   5.154   6.652  0.5331  0.2793  0.1114
   89SAPC   C22 8409   6.629   5.297   6.479  0.1074  0.3424 -0.2226
   89SAPC   H2R 8410   6.625   5.406   6.457  2.0624 -0.1765 -3.9078
   89SAPC   H2S 8411   6.727   5.269   6.523  0.3883 -0.0022 -1.0499
   89SAPC    C3 8412   6.238   5.260   6.631  0.3923 -0.7643  0.0526
   89SAPC    HX 8413   6.150   5.233   6.694  0.7704 -1.3408  0.3522
   89SAPC    HY 8414   6.274   5.160   6.598  2.3831  0.3618 -1.3396
   89SAPC   O31 8415   6.190   5.341   6.520  0.0716 -0.1005 -0.2326
   89SAPC   C31 8416   6.094   5.279   6.453  0.6222  0.3561  0.5602
   89SAPC   O32 8417   6.049   5.167   6.479  0.0989  0.0585 -0.4646
   89SAPC   C32 8418   6.041   5.362   6.338  0.4811  0.4661  0.2335
   89SAPC   H2X 8419   6.053   5.468   6.368  0.6875  0.0794  1.6194
   89SAPC   H2Y 8420   5.935   5.333   6.321  0.3488  1.7307 -1.2259
   89SAPC   C23 8421   6.608   5.201   6.352 -0.6084 -0.7737  0.0489
   89SAPC   H3R 8422   6.589   5.094   6.375  1.0402 -1.5248 -1.8190
   89SAPC   H3S 8423   6.704   5.202   6.296 -0.9574  0.5289 -0.5506
   89SAPC   C24 8424   6.488   5.246   6.265  1.0493 -1.0168  0.1895
   89SAPC   H4R 8425   6.394   5.220   6.317 -0.6131  1.8599 -1.0768
   89SAPC   H4S 8426   6.484   5.186   6.172  1.4294  1.7772 -1.7649
   89SAPC   C25 8427   6.496   5.393   6.226  0.0043  0.2244  0.5613
   89SAPC   H5R 8428   6.515   5.463   6.309  2.3979  0.6705 -0.2779
   89SAPC   C26 8429   6.477   5.454   6.110  0.1369  0.5767  0.5305
   89SAPC   H6R 8430   6.485   5.563   6.101  0.0234  0.4163 -2.9059
   89SAPC   C27 8431   6.460   5.396   5.971 -0.2427  0.2477  0.2572
   89SAPC   H7R 8432   6.353   5.405   5.944 -0.9980 -2.0839  2.1028
   89SAPC   H7S 8433   6.463   5.285   5.976 -4.0047  0.0414  0.9078
   89SAPC   C28 8434   6.551   5.460   5.877 -0.8230  0.3005  0.4908
   89SAPC   H8R 8435   6.627   5.523   5.926 -0.1126 -2.3808  3.1726
   89SAPC   C29 8436   6.553   5.439   5.745 -0.0418 -0.6901  0.3098
   89SAPC   H9R 8437   6.623   5.501   5.687  0.8241 -2.1987 -0.3129
   89SAPC  C210 8438   6.460   5.357   5.660 -0.5501  0.0411 -0.6833
   89SAPC  H10R 8439   6.361   5.404   5.643 -2.0259 -1.7709  2.1240
   89SAPC  H10S 8440   6.428   5.264   5.712 -0.1901  0.9900  1.3416
   89SAPC  C211 8441   6.533   5.315   5.533  0.2067  0.5930  0.3363
   89SAPC  H11R 8442   6.641   5.297   5.541  0.0941  0.3119  1.3760
   89SAPC  C212 8443   6.478   5.307   5.409  0.1714  0.3848 -0.3425
   89SAPC  H12R 8444   6.544   5.261   5.334  0.7876 -3.0450  2.0644
   89SAPC  C213 8445   6.339   5.351   5.382  0.3456  0.3130 -0.2538
   89SAPC  H13R 8446   6.325   5.457   5.412 -1.0621 -0.2652  1.2581
   89SAPC  H13S 8447   6.273   5.296   5.452  0.9867 -0.0583  0.0741
   89SAPC  C214 8448   6.285   5.313   5.251 -0.4017  0.4001 -0.2260
   89SAPC  H14R 8449   6.302   5.209   5.218 -0.0551  0.4975 -0.3631
   89SAPC  C215 8450   6.195   5.385   5.184  0.3004  0.2570  0.1967
   89SAPC  H15R 8451   6.152   5.343   5.091  1.2871  2.5066 -1.3666
   89SAPC  C216 8452   6.141   5.519   5.226  0.8576  0.8404  0.0797
   89SAPC  H16R 8453   6.184   5.562   5.319 -1.4886  0.4129  1.4475
   89SAPC  H16S 8454   6.034   5.502   5.250  0.5097  0.1096 -1.7601
   89SAPC  C217 8455   6.154   5.623   5.116 -0.3604 -0.7212 -0.1653
   89SAPC  H17R 8456   6.092   5.596   5.027 -0.1318  0.0856 -0.5809
   89SAPC  H17S 8457   6.258   5.619   5.078 -0.6669 -0.6575 -1.0441
   89SAPC  C218 8458   6.119   5.766   5.162 -0.2415 -0.1539  0.2558
   89SAPC  H18R 8459   6.176   5.809   5.247 -0.0706  0.7137 -0.2820
   89SAPC  H18S 8460   6.016   5.760   5.202 -0.8623 -2.2625 -1.4745
   89SAPC  C219 8461   6.125   5.870   5.045  0.4043 -0.0456 -0.2174
   89SAPC  H19R 8462   6.060   5.830   4.964 -1.1298 -1.3374  1.5550
   89SAPC  H19S 8463   6.223   5.895   4.999  1.3823  0.1686  1.8714
   89SAPC  C220 8464   6.050   5.994   5.089  0.3895 -0.8060  0.3525
   89SAPC  H20R 8465   6.070   6.071   5.011 -1.8306  1.5571  1.9366
   89SAPC  H20S 8466   6.085   6.035   5.186 -0.8655 -0.1816  0.5631
   89SAPC  H20T 8467   5.940   5.981   5.099  0.5191 -2.3124  0.0911
   89SAPC   C33 8468   6.116   5.336   6.212  0.5123  0.2618  0.1241
   89SAPC   H3X 8469   6.217   5.294   6.231  1.3767  1.5706 -1.2825
   89SAPC   H3Y 8470   6.122   5.434   6.159 -0.5183  0.2592 -0.0165
   89SAPC   C34 8471   6.053   5.229   6.122 -0.2889  0.5331  0.3889
   89SAPC   H4X 8472   5.947   5.260   6.109  0.1690  1.9651 -0.1551
   89SAPC   H4Y 8473   6.054   5.133   6.178 -0.5875  0.4539  0.2618
   89SAPC   C35 8474   6.116   5.224   5.985  0.0164 -0.6095  0.1507
   89SAPC   H5X 8475   6.227   5.229   5.993  0.1554  1.1780 -1.9510
   89SAPC   H5Y 8476   6.092   5.310   5.919 -0.4062 -1.0054 -0.2155
   89SAPC   C36 8477   6.064   5.107   5.892 -0.7763  0.2844  0.2903
   89SAPC   H6X 8478   5.966   5.135   5.849 -0.5106 -0.7693 -1.0459
   89SAPC   H6Y 8479   6.031   5.029   5.963 -1.3193  0.9655  0.8049
   89SAPC   C37 8480   6.165   5.072   5.778  0.9207 -0.3421 -0.0615
   89SAPC   H7X 8481   6.251   5.020   5.825  1.8863 -0.1360 -1.5554
   89SAPC   H7Y 8482   6.196   5.172   5.740  3.1571 -1.5592 -1.6232
   89SAPC   C38 8483   6.094   4.990   5.673 -0.4528  0.6904 -0.6991
   89SAPC   H8X 8484   6.012   5.054   5.632 -2.3937  0.8043  2.9255
   89SAPC   H8Y 8485   6.042   4.905   5.721  1.2126  0.4964  0.8772
   89SAPC   C39 8486   6.185   4.956   5.560 -0.3690 -0.2462  0.4695
   89SAPC   H9X 8487   6.270   4.896   5.600 -0.5031 -0.8852 -0.1682
   89SAPC   H9Y 8488   6.221   5.056   5.528  2.2797 -1.2052  0.1904
   89SAPC  C310 8489   6.115   4.874   5.450  0.6887 -0.0861 -0.1106
   89SAPC  H10X 8490   6.037   4.930   5.394  0.3629 -0.9282 -0.5241
   89SAPC  H10Y 8491   6.054   4.795   5.500 -0.9608  1.2895  0.1250
   89SAPC  C311 8492   6.213   4.815   5.350  0.1013 -0.1334 -0.3912
   89SAPC  H11X 8493   6.156   4.743   5.287 -2.4153  0.2413  1.3219
   89SAPC  H11Y 8494   6.301   4.777   5.404 -1.1210  0.3491  2.0982
   89SAPC  C312 8495   6.277   4.921   5.255 -0.2565 -1.2963  0.4095
   89SAPC  H12X 8496   6.358   4.980   5.304 -0.6436 -0.5791  0.2088
   89SAPC  H12Y 8497   6.194   4.993   5.243 -0.1303 -1.0140  1.2028
   89SAPC  C313 8498   6.314   4.874   5.117 -0.2833  0.5933 -0.1551
   89SAPC  H13X 8499   6.232   4.820   5.065 -0.5828 -0.4924  1.4000
   89SAPC  H13Y 8500   6.392   4.799   5.141  1.6510  2.4204 -0.4309
   89SAPC  C314 8501   6.370   4.990   5.034  0.0919  0.1058 -0.6930
   89SAPC  H14X 8502   6.446   5.045   5.094  1.3875 -1.4190 -0.8503
   89SAPC  H14Y 8503   6.286   5.054   5.000 -0.5794 -0.8068 -0.7619
   89SAPC  C315 8504   6.445   4.944   4.909  0.4577  0.1854 -0.3263
   89SAPC  H15X 8505   6.528   4.874   4.927  3.2568  3.3069 -0.0430
   89SAPC  H15Y 8506   6.485   5.028   4.848 -0.9051  0.5968 -0.6863
   89SAPC  C316 8507   6.349   4.869   4.812 -0.1897  0.1817  0.2451
   89SAPC  H16X 8508   6.244   4.903   4.806 -0.2670  0.3517  2.0224
   89SAPC  H16Y 8509   6.338   4.763   4.844  0.9977  0.1083  0.4697
   89SAPC  C317 8510   6.408   4.863   4.667  0.0315  0.5125 -0.3201
   89SAPC  H17X 8511   6.510   4.820   4.661 -1.6142 -3.6252 -1.6153
   89SAPC  H17Y 8512   6.408   4.971   4.638  0.6528  0.9559  1.2382
   89SAPC  C318 8513   6.306   4.788   4.574 -0.2740  0.0893 -0.2488
   89SAPC  H18X 8514   6.301   4.682   4.606 -0.9521  0.4268  0.8042
   89SAPC  H18Y 8515   6.355   4.790   4.474  1.5367  0.4091  0.5889
   89SAPC  H18Z 8516   6.206   4.836   4.580 -0.3350  0.3043 -2.2014
   90SAPC     N 8517   1.120   0.117   7.546  0.0194  0.5645 -0.2112
   90SAPC   C12 8518   1.160   0.011   7.444 -0.6294  0.0425  0.4699
   90SAPC  H12A 8519   1.209  -0.069   7.498  1.9544  0.2059 -1.4385
   90SAPC  H12B 8520   1.233   0.050   7.375 -1.5387  0.7823 -0.1039
   90SAPC   C13 8521   0.996   0.071   7.620  0.3699 -0.4893  0.5630
   90SAPC  H13A 8522   0.963   0.134   7.701 -1.2837 -2.4458  1.5338
   90SAPC  H13B 8523   0.916   0.073   7.547 -0.4588 -2.3382  1.3412
   90SAPC  H13C 8524   1.010  -0.031   7.654  0.1644 -0.5761  0.3932
   90SAPC   C14 8525   1.220   0.139   7.656  0.1977  0.1532  0.3681
   90SAPC  H14A 8526   1.184   0.199   7.737 -1.4338  1.4639 -1.2375
   90SAPC  H14B 8527   1.265   0.055   7.707  2.7799  2.3488  1.9707
   90SAPC  H14C 8528   1.314   0.180   7.621  1.1428 -0.6046  1.8854
   90SAPC   C15 8529   1.090   0.251   7.486 -0.0245  0.4700 -0.1413
   90SAPC  H15A 8530   1.048   0.319   7.558  1.1703 -0.4932  1.5235
   90SAPC  H15B 8531   1.175   0.289   7.432  0.4722 -0.3885  0.0078
   90SAPC  H15C 8532   1.019   0.234   7.406 -0.7633 -3.1818  1.0919
   90SAPC   C11 8533   1.049  -0.047   7.356  0.4219  0.4670 -0.0957
   90SAPC  H11A 8534   0.995  -0.115   7.425  0.3208  0.0138 -0.6131
   90SAPC  H11B 8535   1.093  -0.115   7.279  1.8414  0.7417  0.4358
   90SAPC     P 8536   0.954   0.114   7.173  0.3490  0.5448  0.1866
   90SAPC   O13 8537   0.848   0.041   7.103  0.1869 -0.4689  0.4132
   90SAPC   O14 8538   0.939   0.258   7.197  0.1469  0.0320  0.2647
   90SAPC   O12 8539   0.968   0.054   7.311  0.0262  0.3243  0.5989
   90SAPC   O11 8540   1.096   0.087   7.114 -0.4062  0.0397  0.0395
   90SAPC    C1 8541   1.116   0.022   6.989  0.2439 -0.4166 -0.0763
   90SAPC    HA 8542   1.213  -0.032   6.982  1.7205  2.1012  0.0175
   90SAPC    HB 8543   1.035  -0.050   6.966  0.0255  0.0395 -0.7686
   90SAPC    C2 8544   1.115   0.130   6.874  0.5110 -0.3323  0.3012
   90SAPC    HS 8545   1.023   0.192   6.888  1.7031  1.7490 -0.5641
   90SAPC   O21 8546   1.122   0.074   6.744 -0.2379  0.2904 -0.4648
   90SAPC   C21 8547   1.013   0.048   6.672  0.5655 -0.5847  0.2012
   90SAPC   O22 8548   0.900   0.056   6.714  0.3301  0.2006  0.2838
   90SAPC   C22 8549   1.050   0.004   6.530 -0.1855  0.7658 -0.4242
   90SAPC   H2R 8550   1.123  -0.079   6.532  0.1726  1.0197 -1.7977
   90SAPC   H2S 8551   0.956  -0.042   6.492  0.7227 -1.0126 -0.6120
   90SAPC    C3 8552   1.225   0.230   6.891 -0.9472  0.1598 -0.0017
   90SAPC    HX 8553   1.319   0.171   6.880 -0.8711 -0.2993  2.4590
   90SAPC    HY 8554   1.220   0.258   6.999  0.0791 -0.8669  0.3455
   90SAPC   O31 8555   1.225   0.339   6.792 -0.4039  0.2868  0.3692
   90SAPC   C31 8556   1.162   0.449   6.819 -0.4021 -0.6603 -0.0520
   90SAPC   O32 8557   1.089   0.462   6.920 -0.8469  0.0108  0.7197
   90SAPC   C32 8558   1.172   0.551   6.705 -0.7693  0.0396  0.6386
   90SAPC   H2X 8559   1.281   0.565   6.685 -0.9673 -1.3498 -1.8192
   90SAPC   H2Y 8560   1.132   0.642   6.754  0.1190  0.3775  0.7517
   90SAPC   C23 8561   1.107   0.123   6.449  0.3178 -0.5139  0.1150
   90SAPC   H3R 8562   1.183   0.184   6.503 -0.1707 -0.9785  1.3593
   90SAPC   H3S 8563   1.025   0.197   6.437  0.8375 -0.0848 -0.8358
   90SAPC   C24 8564   1.147   0.086   6.310 -0.1002  0.6082  1.0212
   90SAPC   H4R 8565   1.186   0.180   6.265  0.9487  0.3936  1.4409
   90SAPC   H4S 8566   1.069   0.031   6.253 -0.7786  2.1205  0.4255
   90SAPC   C25 8567   1.277   0.008   6.321 -0.4222 -0.2819  0.2048
   90SAPC   H5R 8568   1.357   0.049   6.384  0.3843  0.4099 -1.2097
   90SAPC   C26 8569   1.310  -0.106   6.256  0.1267  0.2787 -0.4382
   90SAPC   H6R 8570   1.400  -0.162   6.285  0.5342  1.5658  0.8600
   90SAPC   C27 8571   1.223  -0.179   6.160  0.4451  0.7805  0.2053
   90SAPC   H7R 8572   1.118  -0.143   6.168 -0.0823 -0.4886 -0.6490
   90SAPC   H7S 8573   1.216  -0.288   6.183  1.2635  0.6534 -0.1275
   90SAPC   C28 8574   1.272  -0.157   6.014 -0.8499  0.4936  0.2595
   90SAPC   H8R 8575   1.291  -0.052   5.987  2.8469  0.6459  2.7224
   90SAPC   C29 8576   1.300  -0.250   5.921  0.7205 -0.1091  0.0653
   90SAPC   H9R 8577   1.342  -0.212   5.827  1.3263 -2.0572 -0.4882
   90SAPC  C210 8578   1.307  -0.403   5.938 -0.2750 -0.4767  0.2018
   90SAPC  H10R 8579   1.256  -0.430   6.032 -1.8206  2.1101  0.2221
   90SAPC  H10S 8580   1.415  -0.424   5.957 -0.6267 -0.6527  2.1941
   90SAPC  C211 8581   1.246  -0.494   5.831  0.0716 -0.0669 -0.4882
   90SAPC  H11R 8582   1.144  -0.535   5.838  0.2171 -0.2589  0.6103
   90SAPC  C212 8583   1.315  -0.549   5.728  0.5568 -0.3040 -0.0195
   90SAPC  H12R 8584   1.271  -0.612   5.650 -1.8527  0.0801  0.9488
   90SAPC  C213 8585   1.459  -0.517   5.700  0.6990 -0.1287  0.4159
   90SAPC  H13R 8586   1.522  -0.549   5.786  0.7707 -0.9262  0.0750
   90SAPC  H13S 8587   1.457  -0.407   5.687 -3.9596 -0.2071 -1.1234
   90SAPC  C214 8588   1.521  -0.584   5.586  0.1612  0.3399  0.3031
   90SAPC  H14R 8589   1.540  -0.693   5.593 -0.6527  0.1863  0.2337
   90SAPC  C215 8590   1.555  -0.522   5.471 -0.1854 -0.1634  0.3236
   90SAPC  H15R 8591   1.594  -0.587   5.392  0.5607 -0.4130  0.8785
   90SAPC  C216 8592   1.533  -0.382   5.426 -0.7400  1.0544 -0.3216
   90SAPC  H16R 8593   1.631  -0.332   5.420 -0.1466 -0.2158 -2.1292
   90SAPC  H16S 8594   1.485  -0.318   5.503  0.0153 -0.1956  1.2176
   90SAPC  C217 8595   1.453  -0.363   5.295 -0.5620  0.0669 -0.6436
   90SAPC  H17R 8596   1.361  -0.424   5.308  0.3586 -1.2580 -0.1214
   90SAPC  H17S 8597   1.511  -0.398   5.207  0.1151  0.3808 -0.3277
   90SAPC  C218 8598   1.394  -0.225   5.257  0.2445  0.9822 -0.7211
   90SAPC  H18R 8599   1.361  -0.225   5.151  2.3328  1.9746 -1.4110
   90SAPC  H18S 8600   1.473  -0.148   5.256  1.8714 -0.6081 -1.4826
   90SAPC  C219 8601   1.292  -0.161   5.359 -0.2159  1.3611  0.5193
   90SAPC  H19R 8602   1.347  -0.130   5.451  0.2843 -0.0132  0.6969
   90SAPC  H19S 8603   1.219  -0.241   5.380 -0.1521  1.4143  0.9566
   90SAPC  C220 8604   1.211  -0.043   5.314  0.8205  0.2829 -0.0931
   90SAPC  H20R 8605   1.140  -0.066   5.232 -0.7092  0.5445  1.1073
   90SAPC  H20S 8606   1.272   0.046   5.287  1.5788 -0.5089 -1.1163
   90SAPC  H20T 8607   1.143  -0.022   5.399 -1.5299 -2.4168 -1.1418
   90SAPC   C33 8608   1.102   0.513   6.580  0.1178 -0.0512 -0.0669
   90SAPC   H3X 8609   0.993   0.508   6.600 -0.2154 -0.2175 -1.7194
   90SAPC   H3Y 8610   1.129   0.409   6.552 -1.5485 -0.4029 -0.4589
   90SAPC   C34 8611   1.134   0.606   6.471 -0.4734  0.0822 -0.0508
   90SAPC   H4X 8612   1.234   0.654   6.481 -1.0194  1.2598 -0.1198
   90SAPC   H4Y 8613   1.060   0.688   6.463  0.4644  1.1062  1.4576
   90SAPC   C35 8614   1.122   0.535   6.334 -0.3589 -0.0402 -0.2663
   90SAPC   H5X 8615   1.014   0.512   6.320 -0.2626 -0.9683  0.4293
   90SAPC   H5Y 8616   1.183   0.443   6.337  0.4933  0.5288  0.1488
   90SAPC   C36 8617   1.185   0.632   6.235  0.8944  0.5697  0.4796
   90SAPC   H6X 8618   1.293   0.645   6.254  0.9552 -1.5610  1.8950
   90SAPC   H6Y 8619   1.134   0.731   6.235  2.8417  1.7243  3.8646
   90SAPC   C37 8620   1.149   0.570   6.106 -0.0258 -0.0675 -0.1510
   90SAPC   H7X 8621   1.038   0.567   6.108 -0.0623  0.3539 -0.8527
   90SAPC   H7Y 8622   1.179   0.464   6.092 -0.7227  0.0346 -3.2590
   90SAPC   C38 8623   1.192   0.651   5.983  0.1920  0.4599 -0.0505
   90SAPC   H8X 8624   1.300   0.672   5.962  0.3806 -0.8849 -0.5016
   90SAPC   H8Y 8625   1.155   0.755   5.996  1.1526  0.6703  1.1644
   90SAPC   C39 8626   1.141   0.580   5.858  0.2844 -0.6794  0.3048
   90SAPC   H9X 8627   1.031   0.591   5.863  0.5095  1.4172  2.2462
   90SAPC   H9Y 8628   1.170   0.473   5.851  0.9977 -0.3812 -3.9830
   90SAPC  C310 8629   1.189   0.652   5.729 -0.1391  0.0449  0.8007
   90SAPC  H10X 8630   1.300   0.658   5.725 -0.0559 -1.7158 -1.3125
   90SAPC  H10Y 8631   1.146   0.754   5.739  0.5390  0.2656  1.6380
   90SAPC  C311 8632   1.135   0.611   5.589  0.4435  0.8612  0.8376
   90SAPC  H11X 8633   1.166   0.676   5.505  0.3222 -0.3854 -0.2013
   90SAPC  H11Y 8634   1.024   0.621   5.594  0.4835  2.1970 -0.2998
   90SAPC  C312 8635   1.174   0.459   5.557 -0.1118  0.0943  0.6458
   90SAPC  H12X 8636   1.141   0.385   5.632 -2.7538 -0.4482 -0.9188
   90SAPC  H12Y 8637   1.284   0.445   5.554  0.1447  1.8989  0.3261
   90SAPC  C313 8638   1.127   0.399   5.418 -0.4889 -0.7479 -0.0207
   90SAPC  H13X 8639   1.017   0.386   5.410 -0.4781 -1.0632  0.3434
   90SAPC  H13Y 8640   1.174   0.298   5.416  2.9740  0.7048  0.4048
   90SAPC  C314 8641   1.181   0.473   5.295  1.0011 -0.0421 -0.4424
   90SAPC  H14X 8642   1.288   0.488   5.323  1.0139 -0.7025 -0.1247
   90SAPC  H14Y 8643   1.134   0.573   5.283 -1.2613 -1.0479 -0.3557
   90SAPC  C315 8644   1.161   0.388   5.169 -0.7313  0.3108 -0.4606
   90SAPC  H15X 8645   1.058   0.348   5.168 -0.8155  0.2544  2.4808
   90SAPC  H15Y 8646   1.242   0.312   5.172 -1.2805 -0.2779  2.6445
   90SAPC  C316 8647   1.176   0.475   5.039  0.0436  0.6751 -0.4726
   90SAPC  H16X 8648   1.126   0.572   5.062 -1.5964  0.4546 -2.7570
   90SAPC  H16Y 8649   1.129   0.410   4.962 -1.4137 -0.0447  0.9619
   90SAPC  C317 8650   1.322   0.492   4.999  0.4068 -0.4920  0.1721
   90SAPC  H17X 8651   1.365   0.390   4.998  0.6353 -0.4284  1.6106
   90SAPC  H17Y 8652   1.372   0.552   5.078 -1.4321  3.1599 -1.2036
   90SAPC  C318 8653   1.322   0.562   4.862  0.4813  0.1771 -0.8179
   90SAPC  H18X 8654   1.260   0.502   4.792 -0.6309  2.5352 -2.0047
   90SAPC  H18Y 8655   1.418   0.567   4.806  0.1416  1.7009 -1.3304
   90SAPC  H18Z 8656   1.277   0.663   4.878  1.1095  0.1642  1.2672
   91SAPC     N 8657   6.893   0.890   7.537 -0.0657  0.1132 -0.3347
   91SAPC   C12 8658   7.000   0.856   7.435  0.7275 -0.8994 -1.2243
   91SAPC  H12A 8659   7.074   0.807   7.496 -1.4476 -0.7322  1.7743
   91SAPC  H12B 8660   7.026   0.950   7.389 -2.7013  1.4395  1.1374
   91SAPC   C13 8661   6.943   1.010   7.612  0.3689  0.3735  0.0631
   91SAPC  H13A 8662   7.039   0.993   7.658  1.7225  1.2533 -2.2367
   91SAPC  H13B 8663   6.943   1.094   7.544  0.0448  1.3004  1.1988
   91SAPC  H13C 8664   6.870   1.037   7.686 -0.0724  2.1995 -0.9788
   91SAPC   C14 8665   6.758   0.920   7.474 -0.4586 -0.4223  0.3547
   91SAPC  H14A 8666   6.723   0.826   7.433  0.9942  0.1579 -2.5342
   91SAPC  H14B 8667   6.688   0.955   7.547  0.0400  0.9283  0.2085
   91SAPC  H14C 8668   6.761   0.987   7.389  1.3174 -0.9061 -0.0246
   91SAPC   C15 8669   6.867   0.778   7.633 -0.2780  0.2317  0.5499
   91SAPC  H15A 8670   6.777   0.805   7.686  0.0499 -0.2953  1.3934
   91SAPC  H15B 8671   6.836   0.690   7.579 -0.9585  1.6021 -1.4109
   91SAPC  H15C 8672   6.956   0.751   7.689  1.9451  1.5887 -2.0510
   91SAPC   C11 8673   6.954   0.757   7.327 -0.6574  0.3293 -0.3794
   91SAPC  H11A 8674   7.044   0.752   7.261  0.1931 -0.4736  0.8050
   91SAPC  H11B 8675   6.872   0.808   7.273 -0.0494  0.5382 -1.1260
   91SAPC     P 8676   7.033   0.528   7.424  0.1410 -0.2600 -0.2822
   91SAPC   O13 8677   7.151   0.611   7.457  0.8171 -0.0718 -0.1829
   91SAPC   O14 8678   6.975   0.449   7.534 -0.4553  0.1671 -0.0413
   91SAPC   O12 8679   6.913   0.625   7.369  0.2897  1.1005 -0.0322
   91SAPC   O11 8680   7.069   0.424   7.306 -0.0723 -0.3965  0.1964
   91SAPC    C1 8681   7.024   0.448   7.175 -0.0496 -0.1345 -0.6460
   91SAPC    HA 8682   6.922   0.411   7.152 -0.2087 -1.3718  1.7581
   91SAPC    HB 8683   7.035   0.555   7.149 -1.6943  0.2711  0.1907
   91SAPC    C2 8684   7.114   0.376   7.066  0.0532  0.0832  0.1154
   91SAPC    HS 8685   7.119   0.275   7.112  3.0354 -0.1832 -0.5763
   91SAPC   O21 8686   7.244   0.441   7.057  0.7035  0.0106 -0.1851
   91SAPC   C21 8687   7.345   0.377   7.018 -0.7131 -0.1134 -0.0310
   91SAPC   O22 8688   7.346   0.260   6.982 -0.1138 -0.7537  0.3266
   91SAPC   C22 8689   7.460   0.481   7.006  0.1701  0.8191  0.1464
   91SAPC   H2R 8690   7.444   0.541   6.914 -0.1984  0.6271  0.0862
   91SAPC   H2S 8691   7.448   0.549   7.093  1.3783  0.3526  0.6997
   91SAPC    C3 8692   7.048   0.363   6.927 -0.6005 -0.2895 -0.1952
   91SAPC    HX 8693   6.942   0.338   6.950 -0.6047  0.3913  0.5491
   91SAPC    HY 8694   7.092   0.276   6.873  1.3490  1.5553 -1.7777
   91SAPC   O31 8695   7.057   0.480   6.844 -0.4311 -0.2137  0.5340
   91SAPC   C31 8696   7.003   0.460   6.721  0.4411 -0.4884  0.2375
   91SAPC   O32 8697   6.952   0.353   6.687  0.4612 -0.6402 -0.2474
   91SAPC   C32 8698   7.033   0.582   6.628 -0.4583  0.3375  0.5519
   91SAPC   H2X 8699   7.111   0.640   6.681 -1.5487  2.8415 -0.4519
   91SAPC   H2Y 8700   6.937   0.638   6.626 -1.6664 -1.6405 -1.3498
   91SAPC   C23 8701   7.597   0.412   7.015 -0.6441  0.0891  0.0813
   91SAPC   H3R 8702   7.601   0.358   7.112  0.9717  0.9230  0.5077
   91SAPC   H3S 8703   7.679   0.487   7.014 -0.9404  0.4130 -0.4327
   91SAPC   C24 8704   7.626   0.325   6.894 -1.0039  0.1150  0.6828
   91SAPC   H4R 8705   7.545   0.252   6.870 -1.2373  0.8497 -0.9024
   91SAPC   H4S 8706   7.718   0.268   6.918  0.2455  0.5243 -2.5304
   91SAPC   C25 8707   7.656   0.408   6.766  0.3002 -0.1688 -0.1072
   91SAPC   H5R 8708   7.753   0.458   6.779  1.3847 -2.2376  0.1766
   91SAPC   C26 8709   7.588   0.421   6.648  0.0417 -0.5493 -0.0888
   91SAPC   H6R 8710   7.629   0.487   6.571  1.1844 -2.2676 -1.0274
   91SAPC   C27 8711   7.453   0.353   6.616  0.1032 -0.5163 -0.5420
   91SAPC   H7R 8712   7.436   0.400   6.517  1.4238 -1.5113 -1.2729
   91SAPC   H7S 8713   7.368   0.375   6.684 -0.3746  1.1131 -1.5994
   91SAPC   C28 8714   7.465   0.204   6.607 -0.0972  0.1243 -0.3546
   91SAPC   H8R 8715   7.416   0.148   6.687  1.1658 -3.1565 -1.6916
   91SAPC   C29 8716   7.519   0.138   6.501 -0.5132 -0.1095 -0.4924
   91SAPC   H9R 8717   7.506   0.029   6.500 -0.3934 -0.1217 -0.6804
   91SAPC  C210 8718   7.593   0.199   6.384  0.8403 -0.7275  0.0544
   91SAPC  H10R 8719   7.693   0.152   6.387  1.9831  1.5563 -0.0762
   91SAPC  H10S 8720   7.616   0.307   6.396  1.2688 -0.7977 -0.1449
   91SAPC  C211 8721   7.524   0.172   6.249 -0.1227 -0.4392  0.8573
   91SAPC  H11R 8722   7.424   0.216   6.239 -0.6222 -1.1991  2.2300
   91SAPC  C212 8723   7.578   0.124   6.139  0.5563 -1.0241  0.1258
   91SAPC  H12R 8724   7.516   0.104   6.050  2.5040 -1.3095 -1.2264
   91SAPC  C213 8725   7.725   0.082   6.127  0.3972 -0.0174  0.3403
   91SAPC  H13R 8726   7.714   0.009   6.045 -2.0364 -0.4463  0.9612
   91SAPC  H13S 8727   7.764   0.023   6.213 -0.2702 -1.0033 -0.0095
   91SAPC  C214 8728   7.812   0.202   6.095  0.2045  0.3159 -0.0342
   91SAPC  H14R 8729   7.785   0.285   6.162  0.4046  0.9702 -0.7616
   91SAPC  C215 8730   7.891   0.215   5.991 -0.1137  0.0548  0.1988
   91SAPC  H15R 8731   7.945   0.309   5.980  1.4400 -0.8983 -0.6435
   91SAPC  C216 8732   7.924   0.118   5.880  0.6084  0.0824 -0.5593
   91SAPC  H16R 8733   7.886   0.014   5.894 -1.1160  0.5026 -1.7705
   91SAPC  H16S 8734   8.034   0.111   5.869  0.4272 -0.8494 -2.0706
   91SAPC  C217 8735   7.863   0.181   5.749 -0.3137 -0.5385  0.1061
   91SAPC  H17R 8736   7.894   0.287   5.733 -1.1146 -0.3592 -0.3080
   91SAPC  H17S 8737   7.753   0.166   5.756 -0.3819 -0.2148 -0.2554
   91SAPC  C218 8738   7.913   0.107   5.625  0.0667  0.2594 -0.4051
   91SAPC  H18R 8739   7.922   0.005   5.668  1.9308  1.0781  1.3096
   91SAPC  H18S 8740   8.017   0.132   5.596 -0.1613  0.4948 -1.0338
   91SAPC  C219 8741   7.832   0.108   5.496 -0.1502 -0.0272  0.2250
   91SAPC  H19R 8742   7.864   0.020   5.436 -0.6183 -2.3639  3.1413
   91SAPC  H19S 8743   7.859   0.195   5.433  0.5795 -0.9286 -0.7379
   91SAPC  C220 8744   7.682   0.124   5.513 -0.0028  0.1640  0.1748
   91SAPC  H20R 8745   7.640   0.035   5.566 -0.9026 -0.1591 -1.0498
   91SAPC  H20S 8746   7.627   0.123   5.417  3.5976  1.7680 -2.0754
   91SAPC  H20T 8747   7.658   0.218   5.568 -0.3874  0.1552  0.0247
   91SAPC   C33 8748   7.074   0.539   6.485  0.1177  0.4108  0.0452
   91SAPC   H3X 8749   6.996   0.469   6.448 -0.0628  1.3217 -1.3777
   91SAPC   H3Y 8750   7.156   0.464   6.494  0.9451  0.9977 -1.8831
   91SAPC   C34 8751   7.097   0.640   6.379  0.0933  1.0186 -0.4445
   91SAPC   H4X 8752   7.172   0.714   6.414 -1.5232  1.3779  2.6027
   91SAPC   H4Y 8753   7.003   0.697   6.368 -1.4460 -1.3483 -0.2388
   91SAPC   C35 8754   7.145   0.581   6.245 -0.1751 -0.0976  0.0991
   91SAPC   H5X 8755   7.111   0.643   6.160 -1.2634 -0.7637  0.0329
   91SAPC   H5Y 8756   7.100   0.480   6.236 -0.2171 -0.0923  0.2435
   91SAPC   C36 8757   7.299   0.554   6.236 -0.3395  0.0598 -0.3228
   91SAPC   H6X 8758   7.331   0.498   6.326  2.2411 -0.2290 -1.3162
   91SAPC   H6Y 8759   7.352   0.651   6.253 -0.4981 -0.0968  1.2157
   91SAPC   C37 8760   7.357   0.494   6.112  1.0180 -0.0366  0.1274
   91SAPC   H7X 8761   7.277   0.426   6.076  1.3616  0.9627 -2.7812
   91SAPC   H7Y 8762   7.460   0.455   6.131  1.6395  1.1160 -0.7734
   91SAPC   C38 8763   7.370   0.590   5.992  0.1536 -0.1765 -0.2894
   91SAPC   H8X 8764   7.449   0.665   6.015  0.6978 -1.3186  1.7705
   91SAPC   H8Y 8765   7.277   0.649   5.975  1.4803  1.9290 -0.6908
   91SAPC   C39 8766   7.399   0.527   5.863  0.3130 -0.1508 -0.0558
   91SAPC   H9X 8767   7.342   0.586   5.788  2.1592  1.5466 -0.2146
   91SAPC   H9Y 8768   7.348   0.428   5.871 -0.6139  0.1810 -1.4097
   91SAPC  C310 8769   7.546   0.488   5.838 -0.0175  0.6579  0.2027
   91SAPC  H10X 8770   7.572   0.409   5.911  1.3661 -2.4729 -3.3703
   91SAPC  H10Y 8771   7.605   0.578   5.867  0.1428  0.4729  0.4562
   91SAPC  C311 8772   7.574   0.448   5.690 -0.0883  0.2132 -1.0686
   91SAPC  H11X 8773   7.519   0.354   5.666  0.7644 -0.2441 -1.2703
   91SAPC  H11Y 8774   7.684   0.433   5.686  0.4577  1.7739  3.2565
   91SAPC  C312 8775   7.537   0.572   5.605 -0.3162  0.3823  0.1322
   91SAPC  H12X 8776   7.572   0.661   5.661  3.4824 -0.2269 -1.0407
   91SAPC  H12Y 8777   7.426   0.569   5.597 -0.2188  0.3491 -1.5943
   91SAPC  C313 8778   7.601   0.566   5.464  0.3093  0.2095 -0.5463
   91SAPC  H13X 8779   7.700   0.517   5.458 -0.1866 -0.7484 -1.3704
   91SAPC  H13Y 8780   7.623   0.673   5.447  0.5733  0.2814  0.2306
   91SAPC  C314 8781   7.511   0.507   5.349 -0.0501 -0.2811 -0.0885
   91SAPC  H14X 8782   7.419   0.567   5.334 -1.9496 -2.5586  1.7927
   91SAPC  H14Y 8783   7.463   0.410   5.373 -1.3509  0.5485  0.7924
   91SAPC  C315 8784   7.584   0.492   5.212 -0.9434  0.6114 -0.1671
   91SAPC  H15X 8785   7.666   0.422   5.240 -2.1455  0.1458  2.4123
   91SAPC  H15Y 8786   7.631   0.591   5.190  0.8376  0.0975  1.0827
   91SAPC  C316 8787   7.488   0.439   5.099 -0.7244  0.1911 -0.5448
   91SAPC  H16X 8788   7.411   0.518   5.093  0.5782  1.7305  1.5160
   91SAPC  H16Y 8789   7.449   0.337   5.122  0.5246 -0.3135 -0.5504
   91SAPC  C317 8790   7.555   0.423   4.962 -0.1922 -0.1544 -0.2518
   91SAPC  H17X 8791   7.617   0.512   4.939  0.1611 -0.4751 -0.5521
   91SAPC  H17Y 8792   7.469   0.412   4.892 -1.6173  0.2424  1.3658
   91SAPC  C318 8793   7.649   0.305   4.959  0.3878  0.0842  0.1344
   91SAPC  H18X 8794   7.718   0.310   4.872 -0.6448 -0.1357 -0.7134
   91SAPC  H18Y 8795   7.594   0.208   4.958 -1.2236  0.9138  1.9543
   91SAPC  H18Z 8796   7.720   0.315   5.043  0.2610  0.9802  0.1419
   92SAPC     N 8797   2.043   4.248   7.722 -0.1205  0.3294  0.9565
   92SAPC   C12 8798   2.022   4.169   7.593  0.3395  0.0096 -0.0976
   92SAPC  H12A 8799   1.941   4.206   7.532 -0.4019 -1.3523  0.0104
   92SAPC  H12B 8800   2.002   4.067   7.623  0.4261 -0.3281 -1.1266
   92SAPC   C13 8801   2.138   4.183   7.811 -0.8184 -0.2166  0.1270
   92SAPC  H13A 8802   2.179   4.256   7.878  0.8752 -0.5702 -0.4650
   92SAPC  H13B 8803   2.090   4.095   7.851 -1.1419 -0.5653 -0.9853
   92SAPC  H13C 8804   2.227   4.156   7.757 -0.8270  1.7146 -0.9461
   92SAPC   C14 8805   2.064   4.395   7.683 -0.3741  0.5835  0.7854
   92SAPC  H14A 8806   1.988   4.444   7.623 -1.5600 -0.6073  1.2728
   92SAPC  H14B 8807   2.081   4.452   7.772 -0.0545 -0.0687  1.1510
   92SAPC  H14C 8808   2.152   4.406   7.622 -0.3644  0.0275  0.6867
   92SAPC   C15 8809   1.907   4.251   7.798 -0.4054  1.0356 -0.5508
   92SAPC  H15A 8810   1.928   4.298   7.893  0.7644  0.5498 -0.5463
   92SAPC  H15B 8811   1.841   4.317   7.744  1.1067  1.5131 -1.8985
   92SAPC  H15C 8812   1.868   4.151   7.812  3.6045 -0.3660  2.3261
   92SAPC   C11 8813   2.142   4.163   7.498  0.0084  0.8306 -0.0430
   92SAPC  H11A 8814   2.135   4.079   7.425  0.0441  0.7695  0.0238
   92SAPC  H11B 8815   2.239   4.141   7.548  0.6200  0.6280 -1.2654
   92SAPC     P 8816   2.077   4.321   7.296  0.5060 -0.1852  0.1465
   92SAPC   O13 8817   1.932   4.315   7.327 -0.2408  0.0249 -0.1602
   92SAPC   O14 8818   2.123   4.452   7.240 -0.2310  0.4130 -0.4186
   92SAPC   O12 8819   2.157   4.286   7.430 -0.2069 -0.6714 -0.0603
   92SAPC   O11 8820   2.119   4.206   7.195  0.1245 -0.1269 -0.4098
   92SAPC    C1 8821   2.181   4.232   7.068 -0.0397  0.4243  0.4978
   92SAPC    HA 8822   2.246   4.322   7.068  0.6379 -0.0478 -0.8704
   92SAPC    HB 8823   2.239   4.145   7.033 -0.7738 -0.3309  1.1134
   92SAPC    C2 8824   2.079   4.265   6.962 -0.9181 -0.4603  0.7560
   92SAPC    HS 8825   2.038   4.359   7.007  2.2500  1.3681  0.0907
   92SAPC   O21 8826   1.980   4.162   6.956  0.0194  0.4287 -0.2824
   92SAPC   C21 8827   1.871   4.214   6.912  0.3824 -0.6124 -0.4154
   92SAPC   O22 8828   1.842   4.335   6.909 -0.5645 -0.4140 -0.6563
   92SAPC   C22 8829   1.784   4.107   6.850 -0.0150 -0.1686 -0.4155
   92SAPC   H2R 8830   1.768   4.031   6.929 -3.0157  0.4631 -0.2851
   92SAPC   H2S 8831   1.688   4.161   6.837 -0.2992 -0.5251  0.1800
   92SAPC    C3 8832   2.141   4.292   6.818 -0.5774 -0.0077 -0.6299
   92SAPC    HX 8833   2.251   4.310   6.823 -0.7871  1.3098 -0.3639
   92SAPC    HY 8834   2.101   4.391   6.786  1.0483  0.5362 -1.0907
   92SAPC   O31 8835   2.112   4.186   6.725 -0.6783 -0.0562 -0.2739
   92SAPC   C31 8836   2.212   4.113   6.684  0.1118 -0.3006 -0.1853
   92SAPC   O32 8837   2.328   4.135   6.717 -0.4120 -0.5078 -0.6254
   92SAPC   C32 8838   2.165   4.014   6.577  0.3090 -0.0867 -0.3448
   92SAPC   H2X 8839   2.094   3.942   6.624 -2.9383  2.3950 -1.0591
   92SAPC   H2Y 8840   2.244   3.949   6.533 -0.3038 -0.3977 -1.0087
   92SAPC   C23 8841   1.832   4.046   6.713  0.5064 -0.0689 -0.3050
   92SAPC   H3R 8842   1.917   3.975   6.727  1.1113  1.0539  2.3972
   92SAPC   H3S 8843   1.862   4.130   6.648  1.3920  0.0169  0.1888
   92SAPC   C24 8844   1.718   3.961   6.656 -0.1487 -0.1317  0.2633
   92SAPC   H4R 8845   1.678   3.887   6.728 -1.2526 -0.5389 -0.7202
   92SAPC   H4S 8846   1.750   3.911   6.562  1.4968  1.3285 -0.0004
   92SAPC   C25 8847   1.594   4.042   6.617  0.2349 -0.5976  0.2317
   92SAPC   H5R 8848   1.546   4.086   6.706  4.3407 -0.3355  2.5751
   92SAPC   C26 8849   1.534   4.056   6.497  0.3065 -0.6185 -0.3184
   92SAPC   H6R 8850   1.444   4.117   6.482  0.7665 -0.0346 -0.7818
   92SAPC   C27 8851   1.578   3.993   6.365  0.7576  0.0237 -0.6305
   92SAPC   H7R 8852   1.503   3.990   6.283  2.7201  1.9813 -2.6110
   92SAPC   H7S 8853   1.590   3.885   6.389 -1.1421 -0.2418 -0.7089
   92SAPC   C28 8854   1.714   4.041   6.322  0.2511 -0.3305  0.5438
   92SAPC   H8R 8855   1.750   4.121   6.388  0.6325 -1.2255  1.4224
   92SAPC   C29 8856   1.774   4.022   6.203  0.0265 -0.0572  0.4785
   92SAPC   H9R 8857   1.878   4.054   6.183 -0.5870 -0.0418 -3.5040
   92SAPC  C210 8858   1.719   3.939   6.091  0.1387  0.1411  0.4772
   92SAPC  H10R 8859   1.626   3.886   6.121  0.1679 -1.1952 -1.5797
   92SAPC  H10S 8860   1.784   3.850   6.073 -2.0861 -1.3339 -0.8931
   92SAPC  C211 8861   1.694   4.013   5.959 -0.0057  0.0966  0.3720
   92SAPC  H11R 8862   1.705   4.121   5.971  0.2580  0.1561 -0.3459
   92SAPC  C212 8863   1.674   3.955   5.841 -0.1842 -0.4324 -0.2812
   92SAPC  H12R 8864   1.658   4.024   5.756 -2.7346  3.0578  2.6925
   92SAPC  C213 8865   1.665   3.799   5.823 -0.5050 -0.1335  0.3487
   92SAPC  H13R 8866   1.641   3.753   5.921 -1.1548  0.4427  0.4651
   92SAPC  H13S 8867   1.764   3.751   5.809  0.4951  1.0298  2.8098
   92SAPC  C214 8868   1.578   3.750   5.712  0.2350  0.0012  0.1610
   92SAPC  H14R 8869   1.592   3.817   5.626 -0.0981 -1.3303 -0.9588
   92SAPC  C215 8870   1.486   3.653   5.712  0.6031  0.2158  0.0025
   92SAPC  H15R 8871   1.439   3.633   5.615 -0.6427  0.1095  0.6173
   92SAPC  C216 8872   1.451   3.560   5.822 -0.2290  0.5992 -0.4712
   92SAPC  H16R 8873   1.531   3.559   5.899 -1.3374 -0.4158  0.7113
   92SAPC  H16S 8874   1.459   3.457   5.781 -2.3963  0.7091 -1.2973
   92SAPC  C217 8875   1.315   3.581   5.900  0.4516 -0.2017  0.5364
   92SAPC  H17R 8876   1.284   3.498   5.966 -1.0585 -0.7709 -0.8454
   92SAPC  H17S 8877   1.242   3.595   5.818  0.6010 -1.0586  0.2583
   92SAPC  C218 8878   1.319   3.707   5.987 -0.6831  0.2663  0.2980
   92SAPC  H18R 8879   1.323   3.803   5.930 -0.7429  0.6951  0.9998
   92SAPC  H18S 8880   1.412   3.718   6.046 -1.0862  2.9561  0.5912
   92SAPC  C219 8881   1.198   3.733   6.073 -0.0751 -0.2826 -0.9133
   92SAPC  H19R 8882   1.105   3.734   6.013  1.1654 -0.6239 -2.9422
   92SAPC  H19S 8883   1.200   3.839   6.105  1.0638 -0.0732 -1.6215
   92SAPC  C220 8884   1.190   3.648   6.199  0.1075 -0.5238  0.2977
   92SAPC  H20R 8885   1.110   3.700   6.255 -0.1814  0.8626 -1.3029
   92SAPC  H20S 8886   1.281   3.657   6.261  0.7224 -2.5563 -0.2223
   92SAPC  H20T 8887   1.169   3.540   6.189 -0.0894 -0.5144  0.5959
   92SAPC   C33 8888   2.093   4.085   6.466 -0.1485  0.1073  0.4722
   92SAPC   H3X 8889   2.005   4.145   6.499  0.2342  0.5111  0.7750
   92SAPC   H3Y 8890   2.051   4.013   6.393 -0.6357  0.4898  0.3721
   92SAPC   C34 8891   2.177   4.190   6.386  0.3317 -0.2893  0.6479
   92SAPC   H4X 8892   2.283   4.156   6.393  0.2579 -0.5102  0.6969
   92SAPC   H4Y 8893   2.175   4.289   6.435  4.3686  0.5805 -0.5917
   92SAPC   C35 8894   2.149   4.208   6.236  0.7265  0.2600  0.4964
   92SAPC   H5X 8895   2.218   4.291   6.207  2.8913 -1.2615  1.0577
   92SAPC   H5Y 8896   2.044   4.239   6.218  0.8983  0.0294 -1.0239
   92SAPC   C36 8897   2.187   4.092   6.146  0.4638  0.7884  0.1616
   92SAPC   H6X 8898   2.128   4.005   6.181 -0.7897  0.9622 -1.3846
   92SAPC   H6Y 8899   2.294   4.061   6.141  0.3273  0.1822  0.8247
   92SAPC   C37 8900   2.163   4.103   5.998  0.6468 -0.2326  0.0868
   92SAPC   H7X 8901   2.229   4.187   5.969  0.7401  0.4181  2.0359
   92SAPC   H7Y 8902   2.059   4.142   5.985  0.7936  0.2252  0.2620
   92SAPC   C38 8903   2.174   3.972   5.918 -0.1739 -0.4586  0.7347
   92SAPC   H8X 8904   2.079   3.921   5.945  0.1970 -0.3672  2.3288
   92SAPC   H8Y 8905   2.261   3.902   5.926  1.4602  1.4558  0.5583
   92SAPC   C39 8906   2.159   4.007   5.765  0.6826  0.8738  0.2081
   92SAPC   H9X 8907   2.185   3.923   5.697  2.0069 -0.2433  2.0025
   92SAPC   H9Y 8908   2.241   4.075   5.734  0.5884  1.4165  1.1119
   92SAPC  C310 8909   2.018   4.068   5.730 -0.3667 -0.2533  0.2359
   92SAPC  H10X 8910   1.989   4.152   5.795 -0.1206  1.3227 -1.5859
   92SAPC  H10Y 8911   1.948   3.981   5.736 -1.3605  0.5923  1.1083
   92SAPC  C311 8912   2.013   4.116   5.577  0.0625  0.5178  0.2195
   92SAPC  H11X 8913   1.910   4.133   5.541 -0.1674 -0.5617  0.3555
   92SAPC  H11Y 8914   2.058   4.028   5.526 -0.9913  0.0529  0.0842
   92SAPC  C312 8915   2.100   4.233   5.542 -0.3558 -0.0223  0.3440
   92SAPC  H12X 8916   2.200   4.225   5.588  1.9487  0.3686 -4.0348
   92SAPC  H12Y 8917   2.060   4.326   5.587  0.1328  0.3258  0.0688
   92SAPC  C313 8918   2.114   4.266   5.389 -0.3032  0.1937 -0.5466
   92SAPC  H13X 8919   2.163   4.366   5.380  0.7428 -0.2271  0.2257
   92SAPC  H13Y 8920   2.017   4.279   5.336  0.0053  2.7116 -0.6029
   92SAPC  C314 8921   2.209   4.174   5.302 -0.3998  0.5858 -0.0838
   92SAPC  H14X 8922   2.172   4.069   5.304 -0.9749  0.7882  0.3258
   92SAPC  H14Y 8923   2.313   4.176   5.340 -0.7624  0.2875  0.9755
   92SAPC  C315 8924   2.197   4.206   5.149  0.0806 -0.2336  0.5604
   92SAPC  H15X 8925   2.281   4.157   5.094  0.4416 -0.2331  1.1040
   92SAPC  H15Y 8926   2.197   4.317   5.141 -0.9801 -0.2397  0.3680
   92SAPC  C316 8927   2.058   4.154   5.087 -0.6061 -0.8468 -0.7196
   92SAPC  H16X 8928   1.975   4.151   5.160 -0.0027  1.3165  0.1154
   92SAPC  H16Y 8929   2.081   4.051   5.053  2.4310 -0.3386 -0.4916
   92SAPC  C317 8930   1.995   4.222   4.953 -0.3106 -0.0824 -0.6897
   92SAPC  H17X 8931   2.082   4.238   4.886  1.5513 -0.9563  1.3961
   92SAPC  H17Y 8932   1.949   4.320   4.978  0.2651 -0.3429  1.6077
   92SAPC  C318 8933   1.889   4.131   4.893  0.0387 -0.4740 -0.1172
   92SAPC  H18X 8934   1.855   4.170   4.794 -1.1942  1.8690  1.1347
   92SAPC  H18Y 8935   1.793   4.130   4.949  0.1668 -1.0369  0.0951
   92SAPC  H18Z 8936   1.921   4.025   4.882  1.1986 -0.2451  0.8019
   93SAPC     N 8937   6.767   1.665   7.076  0.0618 -0.1578  0.2616
   93SAPC   C12 8938   6.835   1.534   7.065  0.3899  0.1924 -0.4057
   93SAPC  H12A 8939   6.890   1.522   7.157 -0.3809  2.0503  0.3385
   93SAPC  H12B 8940   6.909   1.548   6.987  1.9033  0.3776  1.0203
   93SAPC   C13 8941   6.851   1.761   7.163  0.6088 -0.3916 -0.4835
   93SAPC  H13A 8942   6.949   1.784   7.122  1.1176 -0.4283  0.6609
   93SAPC  H13B 8943   6.796   1.851   7.183 -0.2190 -0.9104 -0.3770
   93SAPC  H13C 8944   6.858   1.720   7.262  0.2834  2.4045  0.7825
   93SAPC   C14 8945   6.753   1.728   6.939 -0.2650  0.1996  0.5676
   93SAPC  H14A 8946   6.847   1.751   6.890 -0.3951 -0.6398 -0.1060
   93SAPC  H14B 8947   6.691   1.667   6.875 -1.3588  0.5562  1.2715
   93SAPC  H14C 8948   6.703   1.823   6.948  1.0030  0.8710  0.7782
   93SAPC   C15 8949   6.623   1.652   7.128 -0.5004  0.8708  0.4892
   93SAPC  H15A 8950   6.551   1.619   7.055 -1.1959  0.8518  1.1672
   93SAPC  H15B 8951   6.622   1.583   7.211 -0.2551 -0.5708 -0.6671
   93SAPC  H15C 8952   6.591   1.746   7.172 -1.7765  1.2092 -1.0501
   93SAPC   C11 8953   6.756   1.400   7.037  0.3584  0.8390  0.5117
   93SAPC  H11A 8954   6.825   1.323   6.997 -2.2011 -0.2277 -2.2480
   93SAPC  H11B 8955   6.684   1.429   6.958  3.2488 -1.6540 -3.4035
   93SAPC     P 8956   6.735   1.265   7.263 -0.3168  0.4205 -0.7736
   93SAPC   O13 8957   6.842   1.343   7.329  0.3205 -0.3437 -0.0065
   93SAPC   O14 8958   6.631   1.221   7.350 -0.2932 -0.5748 -0.6590
   93SAPC   O12 8959   6.671   1.343   7.146  0.0416 -0.7026  0.4187
   93SAPC   O11 8960   6.799   1.141   7.191  0.1154  0.4036 -0.0591
   93SAPC    C1 8961   6.717   1.061   7.106  0.3124 -0.0203  0.0676
   93SAPC    HA 8962   6.646   0.994   7.160  1.0381  0.3267  1.5164
   93SAPC    HB 8963   6.670   1.125   7.029  0.1188  0.2694  0.4229
   93SAPC    C2 8964   6.792   0.954   7.013 -0.3818 -0.1544 -0.7507
   93SAPC    HS 8965   6.846   0.876   7.070 -1.4558 -0.8805 -0.7034
   93SAPC   O21 8966   6.893   1.026   6.937 -0.1625  0.3122  0.5191
   93SAPC   C21 8967   6.964   0.944   6.860 -0.0342  0.3515 -0.4649
   93SAPC   O22 8968   6.966   0.823   6.871  0.0893  0.1577 -0.5465
   93SAPC   C22 8969   7.032   1.019   6.749 -0.0959  0.4942 -0.0638
   93SAPC   H2R 8970   6.966   1.101   6.713 -0.1770 -0.0755 -1.2641
   93SAPC   H2S 8971   7.125   1.061   6.792 -0.5053  0.9366  0.4016
   93SAPC    C3 8972   6.690   0.876   6.920  0.1550 -0.3806 -0.6333
   93SAPC    HX 8973   6.642   0.798   6.982  0.2475 -0.6024 -0.8374
   93SAPC    HY 8974   6.745   0.817   6.843 -2.9594 -0.0828 -3.3008
   93SAPC   O31 8975   6.584   0.955   6.866  0.0181 -0.5713  0.2626
   93SAPC   C31 8976   6.601   1.014   6.750 -0.0360  0.2011 -0.2794
   93SAPC   O32 8977   6.689   0.980   6.673 -0.0482  0.4875  0.5473
   93SAPC   C32 8978   6.504   1.130   6.738  0.5274 -0.5575  0.4210
   93SAPC   H2X 8979   6.536   1.206   6.812  1.2844 -1.4912  1.0758
   93SAPC   H2Y 8980   6.406   1.086   6.769  0.7630 -0.1653  1.7752
   93SAPC   C23 8981   7.061   0.919   6.632  0.5917  0.2487 -0.7123
   93SAPC   H3R 8982   6.976   0.852   6.611 -0.8750  2.5110 -2.5124
   93SAPC   H3S 8983   7.158   0.869   6.651  0.2829  0.1866  0.8146
   93SAPC   C24 8984   7.071   0.995   6.500 -0.1177 -0.1460 -0.3435
   93SAPC   H4R 8985   6.980   1.059   6.501 -0.1154 -0.0066  3.0602
   93SAPC   H4S 8986   7.054   0.913   6.426 -1.9347 -1.4124  1.3582
   93SAPC   C25 8987   7.198   1.075   6.484  0.1223 -0.1814 -0.1447
   93SAPC   H5R 8988   7.206   1.143   6.570 -1.9067 -0.4050  0.2693
   93SAPC   C26 8989   7.285   1.075   6.382  0.1778 -0.1785  0.3661
   93SAPC   H6R 8990   7.369   1.143   6.399  0.3077 -0.4353  0.7767
   93SAPC   C27 8991   7.267   0.990   6.256  0.1712 -0.1377 -0.6233
   93SAPC   H7R 8992   7.248   0.884   6.282 -0.6957  0.3910  1.0718
   93SAPC   H7S 8993   7.364   0.999   6.203  0.2206  1.3815 -0.3247
   93SAPC   C28 8994   7.156   1.048   6.167 -0.3629  0.0525 -1.0017
   93SAPC   H8R 8995   7.058   1.050   6.218  0.3876  2.9872  0.5152
   93SAPC   C29 8996   7.164   1.107   6.044 -0.7851 -0.5844  0.6406
   93SAPC   H9R 8997   7.075   1.149   5.995  0.3025  1.0473 -0.0226
   93SAPC  C210 8998   7.285   1.117   5.954 -0.9421  0.2108 -0.3504
   93SAPC  H10R 8999   7.297   1.018   5.903 -2.9987 -0.6467  0.6908
   93SAPC  H10S 9000   7.381   1.132   6.008  0.7377 -1.2848 -2.7163
   93SAPC  C211 9001   7.256   1.228   5.855 -0.1119 -0.1671  0.7322
   93SAPC  H11R 9002   7.207   1.318   5.895  2.6739  0.8836  2.0456
   93SAPC  C212 9003   7.280   1.223   5.718 -0.2239  0.0999  0.2743
   93SAPC  H12R 9004   7.269   1.313   5.656 -1.0452  0.7808  1.3783
   93SAPC  C213 9005   7.351   1.109   5.650  0.4874 -0.1291  0.4231
   93SAPC  H13R 9006   7.427   1.064   5.717  1.6207  1.8458  0.5693
   93SAPC  H13S 9007   7.421   1.147   5.572  1.6793 -2.3790  0.3232
   93SAPC  C214 9008   7.246   1.011   5.593 -0.0806 -0.4214 -0.3074
   93SAPC  H14R 9009   7.152   1.021   5.649  0.2002  1.2283 -0.0793
   93SAPC  C215 9010   7.257   0.923   5.489 -0.2134  0.0795  0.3271
   93SAPC  H15R 9011   7.167   0.867   5.460  1.3991 -1.5653 -1.8301
   93SAPC  C216 9012   7.379   0.920   5.401  0.7799  0.1388  0.3216
   93SAPC  H16R 9013   7.405   0.816   5.373  0.9204  0.5263 -1.0548
   93SAPC  H16S 9014   7.466   0.960   5.457  1.8457 -3.1951  1.2752
   93SAPC  C217 9015   7.356   1.008   5.280 -0.0623  0.7925  0.1865
   93SAPC  H17R 9016   7.308   1.105   5.304 -3.3459  0.0166 -2.4191
   93SAPC  H17S 9017   7.287   0.961   5.207  0.3120  0.6549 -0.0822
   93SAPC  C218 9018   7.485   1.026   5.194  0.1155  0.0844  0.4059
   93SAPC  H18R 9019   7.527   0.929   5.159 -0.0847  0.2525 -0.3071
   93SAPC  H18S 9020   7.563   1.076   5.256 -1.2428  1.9645  0.6834
   93SAPC  C219 9021   7.452   1.113   5.076  0.0217 -0.0104  0.0476
   93SAPC  H19R 9022   7.407   1.205   5.119 -1.5302 -1.2898  1.3375
   93SAPC  H19S 9023   7.370   1.062   5.021  0.9373 -0.4029 -0.9867
   93SAPC  C220 9024   7.569   1.146   4.987  0.8627  0.0826  0.0621
   93SAPC  H20R 9025   7.630   1.230   5.027 -0.0566  0.1172  1.4811
   93SAPC  H20S 9026   7.549   1.177   4.883 -3.8802  1.5171  1.1840
   93SAPC  H20T 9027   7.642   1.062   4.985  0.6869 -0.0740 -2.4403
   93SAPC   C33 9028   6.503   1.173   6.594 -0.3804 -0.5651  0.0043
   93SAPC   H3X 9029   6.601   1.183   6.541 -1.0934  0.2911 -1.2103
   93SAPC   H3Y 9030   6.465   1.277   6.582 -2.9594 -1.2459  1.5962
   93SAPC   C34 9031   6.416   1.076   6.515  0.3972 -0.1217  0.3344
   93SAPC   H4X 9032   6.308   1.086   6.541  0.6190  2.3670  0.4636
   93SAPC   H4Y 9033   6.458   0.982   6.556  4.0672  0.9706 -0.5622
   93SAPC   C35 9034   6.450   1.086   6.369  0.3597 -0.1929  0.8015
   93SAPC   H5X 9035   6.560   1.083   6.355  0.2785 -0.3703  0.1556
   93SAPC   H5Y 9036   6.415   1.181   6.322  0.7808 -0.9924 -1.2256
   93SAPC   C36 9037   6.398   0.970   6.281 -0.6716  0.4488 -0.7945
   93SAPC   H6X 9038   6.288   0.975   6.267 -0.6461  1.0135 -0.8513
   93SAPC   H6Y 9039   6.422   0.877   6.337  2.0039  2.3358  1.4966
   93SAPC   C37 9040   6.455   0.963   6.138 -0.0652  0.0293 -0.1377
   93SAPC   H7X 9041   6.542   0.894   6.136  0.8178  1.1309 -0.5602
   93SAPC   H7Y 9042   6.493   1.062   6.104 -0.0111  0.2710  0.6221
   93SAPC   C38 9043   6.352   0.910   6.029 -0.0965  0.4505 -0.2803
   93SAPC   H8X 9044   6.272   0.987   6.028 -0.3907  0.3560  3.2986
   93SAPC   H8Y 9045   6.297   0.820   6.062 -1.1278  1.2666  0.2707
   93SAPC   C39 9046   6.414   0.888   5.896  0.0973 -0.5943  0.1941
   93SAPC   H9X 9047   6.347   0.837   5.823  0.8253  1.8008 -2.3313
   93SAPC   H9Y 9048   6.506   0.829   5.915  2.0610  1.9870 -0.7317
   93SAPC  C310 9049   6.470   1.018   5.823 -0.5808  0.3576  0.2872
   93SAPC  H10X 9050   6.518   1.085   5.897 -1.5768  2.6422 -1.0469
   93SAPC  H10Y 9051   6.379   1.074   5.793 -0.9477  0.9485  2.3080
   93SAPC  C311 9052   6.569   0.985   5.708 -0.2646  0.5982  0.0024
   93SAPC  H11X 9053   6.585   1.086   5.665 -0.9811  1.8504  2.5018
   93SAPC  H11Y 9054   6.520   0.928   5.626  1.7632 -0.0305 -0.8357
   93SAPC  C312 9055   6.705   0.930   5.755  0.3993 -0.8434 -0.0827
   93SAPC  H12X 9056   6.696   0.829   5.801  2.9501 -0.4012  1.6086
   93SAPC  H12Y 9057   6.725   0.997   5.841  1.2943  0.0949 -0.9945
   93SAPC  C313 9058   6.814   0.933   5.654  0.0873  0.1857  0.2994
   93SAPC  H13X 9059   6.912   0.894   5.690  0.6801  0.8006 -0.6007
   93SAPC  H13Y 9060   6.821   1.042   5.637  1.7418  0.1800  0.7966
   93SAPC  C314 9061   6.771   0.861   5.519  0.0548  0.3218 -0.5082
   93SAPC  H14X 9062   6.670   0.893   5.487 -0.2666  0.0576  0.2189
   93SAPC  H14Y 9063   6.763   0.752   5.537  2.2606 -0.0349 -1.3413
   93SAPC  C315 9064   6.863   0.892   5.402 -0.8004  0.2087  0.0847
   93SAPC  H15X 9065   6.944   0.817   5.396 -0.1782  0.9300 -0.9034
   93SAPC  H15Y 9066   6.920   0.987   5.407  1.6391 -1.0711 -1.3246
   93SAPC  C316 9067   6.797   0.891   5.264 -0.1985  0.4905  0.5042
   93SAPC  H16X 9068   6.874   0.881   5.185 -0.0497  1.0370  0.5737
   93SAPC  H16Y 9069   6.758   0.994   5.248 -0.4799  0.4452  0.8802
   93SAPC  C317 9070   6.689   0.789   5.244  0.3775 -0.0047  0.5270
   93SAPC  H17X 9071   6.606   0.814   5.313  0.5593  1.5856  0.2096
   93SAPC  H17Y 9072   6.730   0.689   5.273  0.9134 -0.1747 -0.7380
   93SAPC  C318 9073   6.633   0.795   5.103  0.3454 -0.4865  0.2095
   93SAPC  H18X 9074   6.613   0.903   5.086  0.9737 -0.2924  0.6633
   93SAPC  H18Y 9075   6.531   0.752   5.106 -0.2359  0.8861  1.5708
   93SAPC  H18Z 9076   6.695   0.754   5.020  1.3296 -0.5381  0.9511
   94SAPC     N 9077   6.569   5.084   7.043  0.1634 -0.1468 -0.0552
   94SAPC   C12 9078   6.620   5.013   6.915 -0.3415 -0.2200  0.4031
   94SAPC  H12A 9079   6.565   5.057   6.833  0.0430 -0.2600  0.1203
   94SAPC  H12B 9080   6.595   4.910   6.933 -0.6859 -0.3148 -0.5638
   94SAPC   C13 9081   6.622   5.033   7.175  0.3818  0.0675 -0.6109
   94SAPC  H13A 9082   6.730   5.034   7.180  0.3740  2.0421  2.5648
   94SAPC  H13B 9083   6.567   5.084   7.253  0.2743  0.9120 -1.2306
   94SAPC  H13C 9084   6.577   4.936   7.192  1.5896 -0.6022 -1.1600
   94SAPC   C14 9085   6.593   5.228   7.036  0.1358 -0.2660  0.5926
   94SAPC  H14A 9086   6.536   5.270   6.954  2.8314 -0.4202 -1.5011
   94SAPC  H14B 9087   6.561   5.273   7.129  0.3200 -0.7815  0.9079
   94SAPC  H14C 9088   6.698   5.247   7.025  0.1710 -0.6185  0.3309
   94SAPC   C15 9089   6.419   5.056   7.050 -0.5125 -0.1278  0.3083
   94SAPC  H15A 9090   6.388   5.088   7.149  1.7954 -0.5323  1.2333
   94SAPC  H15B 9091   6.360   5.103   6.973 -0.7899  2.3290  1.8979
   94SAPC  H15C 9092   6.408   4.949   7.052  1.4865 -0.3716  0.6039
   94SAPC   C11 9093   6.767   5.011   6.878  0.5749  0.2304  0.0693
   94SAPC  H11A 9094   6.815   5.110   6.861  0.8092 -0.2022 -2.1033
   94SAPC  H11B 9095   6.775   4.983   6.771  1.1226 -2.0305  0.6660
   94SAPC     P 9096   6.864   4.779   6.951  0.5229  0.2696 -0.0128
   94SAPC   O13 9097   6.954   4.736   7.061 -0.9316  0.4483  0.1456
   94SAPC   O14 9098   6.734   4.705   6.929 -0.0138  0.4916 -0.5409
   94SAPC   O12 9099   6.843   4.932   6.964  0.0063  0.2316 -1.0678
   94SAPC   O11 9100   6.932   4.780   6.805 -0.2785  0.1272  0.5712
   94SAPC    C1 9101   7.069   4.753   6.796  0.5647 -0.7000  0.6747
   94SAPC    HA 9102   7.126   4.835   6.845 -0.3001  0.4912 -0.2242
   94SAPC    HB 9103   7.095   4.655   6.841 -0.9301 -2.2431 -1.5787
   94SAPC    C2 9104   7.105   4.756   6.652  0.5762  0.4659 -0.2759
   94SAPC    HS 9105   7.074   4.855   6.611  0.9006 -0.3629 -2.6709
   94SAPC   O21 9106   7.031   4.668   6.571 -0.1073 -0.0796  0.1576
   94SAPC   C21 9107   7.036   4.534   6.595  0.2516 -0.1350  0.0640
   94SAPC   O22 9108   7.103   4.481   6.682 -0.4167  0.3575  0.2441
   94SAPC   C22 9109   6.957   4.465   6.474  0.1748 -0.3771  0.2930
   94SAPC   H2R 9110   6.857   4.515   6.469  1.2308  2.1629  2.0619
   94SAPC   H2S 9111   7.005   4.490   6.377  0.7023 -1.0813  0.3700
   94SAPC    C3 9112   7.255   4.736   6.624  0.5333  1.0913 -0.4732
   94SAPC    HX 9113   7.282   4.631   6.647 -1.7401  1.1832  3.4237
   94SAPC    HY 9114   7.309   4.797   6.700  1.6520 -2.1354  1.5420
   94SAPC   O31 9115   7.294   4.774   6.490 -0.2004 -0.1505  0.0662
   94SAPC   C31 9116   7.289   4.675   6.406 -0.0584 -0.3468 -0.1239
   94SAPC   O32 9117   7.297   4.557   6.432 -0.1374  0.2466  0.1435
   94SAPC   C32 9118   7.303   4.737   6.266 -0.1190 -0.1018 -0.5226
   94SAPC   H2X 9119   7.376   4.821   6.270 -0.8704  0.6189 -1.4849
   94SAPC   H2Y 9120   7.203   4.782   6.251 -1.2636 -1.9945  0.9864
   94SAPC   C23 9121   6.946   4.310   6.494 -1.1357 -0.7215  0.0924
   94SAPC   H3R 9122   6.872   4.287   6.575 -1.3954 -0.5118 -0.0828
   94SAPC   H3S 9123   7.045   4.281   6.536  0.6855  0.4761 -3.0696
   94SAPC   C24 9124   6.906   4.209   6.385  0.6360 -0.0892  0.9503
   94SAPC   H4R 9125   6.823   4.262   6.335  1.1985 -1.4438 -1.5889
   94SAPC   H4S 9126   6.862   4.117   6.428 -0.5293  0.4073  0.8484
   94SAPC   C25 9127   7.024   4.174   6.301 -0.5516 -0.0233  1.0339
   94SAPC   H5R 9128   7.089   4.099   6.347  1.9906 -0.0856 -2.2797
   94SAPC   C26 9129   7.046   4.208   6.170 -0.3097 -0.4238  0.3142
   94SAPC   H6R 9130   7.130   4.160   6.118 -1.2168 -0.8710 -0.7794
   94SAPC   C27 9131   6.956   4.303   6.092 -0.0716 -0.5097  0.0770
   94SAPC   H7R 9132   6.905   4.378   6.156 -0.7310 -1.8864  1.2137
   94SAPC   H7S 9133   6.884   4.237   6.039 -1.3297  1.9097 -1.3984
   94SAPC   C28 9134   7.035   4.388   5.994  1.0613  0.2068  0.0766
   94SAPC   H8R 9135   7.076   4.483   6.034  2.4087 -0.2741 -0.1085
   94SAPC   C29 9136   7.043   4.374   5.856  0.0741 -0.3298  0.7694
   94SAPC   H9R 9137   7.092   4.462   5.809  0.9002 -1.3176 -0.2853
   94SAPC  C210 9138   6.997   4.262   5.769 -0.0975 -0.3612  0.4555
   94SAPC  H10R 9139   6.997   4.163   5.820  1.4762 -0.5318  0.1716
   94SAPC  H10S 9140   7.066   4.250   5.683  0.3631 -1.2713  0.9319
   94SAPC  C211 9141   6.861   4.305   5.721 -0.5715  0.1860 -0.7739
   94SAPC  H11R 9142   6.792   4.307   5.806  1.2664  2.5806  0.7856
   94SAPC  C212 9143   6.827   4.353   5.598  0.5664  0.0805 -1.0281
   94SAPC  H12R 9144   6.730   4.403   5.587  1.5567  2.1817 -0.6532
   94SAPC  C213 9145   6.922   4.359   5.476  0.3682  0.3684 -0.0668
   94SAPC  H13R 9146   7.019   4.307   5.488  0.3341  0.1939 -0.5056
   94SAPC  H13S 9147   6.956   4.464   5.462 -0.5678  0.6749 -0.1596
   94SAPC  C214 9148   6.881   4.300   5.341  0.5911 -0.2628  0.3250
   94SAPC  H14R 9149   6.807   4.219   5.338 -0.2549  0.5090 -0.5143
   94SAPC  C215 9150   6.921   4.344   5.224  0.8282  0.4043  0.3915
   94SAPC  H15R 9151   6.903   4.290   5.131 -0.9920  1.5300  0.0459
   94SAPC  C216 9152   7.009   4.466   5.195 -0.0887 -0.1032 -0.0433
   94SAPC  H16R 9153   7.096   4.420   5.144 -0.5550 -2.1104  0.8727
   94SAPC  H16S 9154   7.045   4.517   5.287 -0.5861 -1.4776  0.9513
   94SAPC  C217 9155   6.937   4.564   5.099  0.1388  0.1464 -0.2424
   94SAPC  H17R 9156   6.838   4.598   5.137 -0.1927 -0.5730 -0.4466
   94SAPC  H17S 9157   6.923   4.516   5.000  2.6715 -2.1237  0.3835
   94SAPC  C218 9158   7.007   4.699   5.076  0.5051  0.2962 -0.0592
   94SAPC  H18R 9159   7.116   4.691   5.061  0.5116  0.1850  0.0438
   94SAPC  H18S 9160   6.988   4.770   5.159  1.5722 -0.1050  0.5436
   94SAPC  C219 9161   6.944   4.772   4.959  0.2608 -0.5474 -0.1529
   94SAPC  H19R 9162   6.834   4.788   4.964  0.0011 -2.3365  0.9186
   94SAPC  H19S 9163   6.955   4.710   4.867  0.4254 -2.0364  0.8239
   94SAPC  C220 9164   7.013   4.904   4.946  0.0646 -1.2380  0.9958
   94SAPC  H20R 9165   7.005   4.938   4.841 -1.8393 -0.3462  1.3851
   94SAPC  H20S 9166   7.122   4.900   4.970  1.0904 -0.2367 -2.8068
   94SAPC  H20T 9167   6.967   4.989   5.001 -1.5770 -0.8460 -0.8781
   94SAPC   C33 9168   7.334   4.646   6.146  0.4724 -1.1209  0.2447
   94SAPC   H3X 9169   7.264   4.560   6.146 -1.4253  0.3669 -0.0876
   94SAPC   H3Y 9170   7.442   4.622   6.157  0.8229  1.1378  2.8021
   94SAPC   C34 9171   7.314   4.722   6.014 -0.0368 -0.1445  0.6836
   94SAPC   H4X 9172   7.374   4.815   6.014  0.3741 -0.1677 -3.6234
   94SAPC   H4Y 9173   7.206   4.749   6.009 -0.2972 -1.2038  0.2319
   94SAPC   C35 9174   7.356   4.637   5.894 -0.1978  0.0494  0.1905
   94SAPC   H5X 9175   7.315   4.535   5.900  0.2125 -0.2540 -1.4744
   94SAPC   H5Y 9176   7.463   4.611   5.886 -0.1639  0.5222 -1.2966
   94SAPC   C36 9177   7.317   4.707   5.762  0.1268  0.2489 -0.3208
   94SAPC   H6X 9178   7.380   4.798   5.753  1.1078 -0.2954  0.8414
   94SAPC   H6Y 9179   7.210   4.738   5.761 -0.8106 -2.5674  0.3747
   94SAPC   C37 9180   7.349   4.617   5.640 -0.5799  0.4007  0.3976
   94SAPC   H7X 9181   7.354   4.510   5.670 -1.3679  0.3437  0.3493
   94SAPC   H7Y 9182   7.450   4.644   5.602 -0.5712  0.5470  0.5245
   94SAPC   C38 9183   7.246   4.646   5.537 -0.3311  0.6718  0.1270
   94SAPC   H8X 9184   7.208   4.749   5.557 -1.9124 -0.0165  0.7893
   94SAPC   H8Y 9185   7.152   4.590   5.555 -0.1438 -0.4745 -2.1607
   94SAPC   C39 9186   7.293   4.635   5.396 -0.2268  0.0890  0.3987
   94SAPC   H9X 9187   7.202   4.650   5.334  1.5516  2.7431 -1.7862
   94SAPC   H9Y 9188   7.309   4.527   5.376 -0.0891  0.3093 -0.7408
   94SAPC  C310 9189   7.415   4.722   5.351  0.0301 -0.1227 -0.7623
   94SAPC  H10X 9190   7.506   4.659   5.362  0.1420  0.2869  1.0404
   94SAPC  H10Y 9191   7.444   4.809   5.413  1.1524  0.6453 -2.3082
   94SAPC  C311 9192   7.396   4.775   5.209 -0.7163 -0.0173 -0.0427
   94SAPC  H11X 9193   7.323   4.857   5.224 -1.4195 -1.0125  2.4644
   94SAPC  H11Y 9194   7.346   4.699   5.145 -3.6300 -0.1672  2.1843
   94SAPC  C312 9195   7.516   4.840   5.145  0.3701  0.1100  0.2096
   94SAPC  H12X 9196   7.590   4.763   5.114 -2.0569 -2.1143 -0.4197
   94SAPC  H12Y 9197   7.575   4.889   5.225 -0.0389  0.1598  0.4804
   94SAPC  C313 9198   7.483   4.940   5.035  0.5528  0.1555 -0.9139
   94SAPC  H13X 9199   7.410   5.012   5.078 -1.0433 -0.0928 -3.0469
   94SAPC  H13Y 9200   7.434   4.891   4.948 -0.1135  1.0019 -1.0350
   94SAPC  C314 9201   7.613   5.002   4.985 -0.0580  0.3416  0.5945
   94SAPC  H14X 9202   7.679   4.928   4.934  0.1306 -0.1467  1.5261
   94SAPC  H14Y 9203   7.670   5.052   5.066 -1.8220  2.9090  0.3947
   94SAPC  C315 9204   7.573   5.118   4.894  0.5537 -0.0845 -0.2494
   94SAPC  H15X 9205   7.505   5.171   4.964 -0.8496 -1.5139 -0.4749
   94SAPC  H15Y 9206   7.519   5.096   4.800 -0.9263  0.5993  0.3988
   94SAPC  C316 9207   7.684   5.216   4.860 -0.3080 -0.2537 -0.1342
   94SAPC  H16X 9208   7.772   5.169   4.810  1.9611  3.8815 -0.4355
   94SAPC  H16Y 9209   7.718   5.236   4.964  0.8891 -2.7658  0.0296
   94SAPC  C317 9210   7.650   5.348   4.788 -0.7183  0.0640  0.5056
   94SAPC  H17X 9211   7.587   5.313   4.703 -0.2833 -0.4324  0.3809
   94SAPC  H17Y 9212   7.740   5.400   4.750 -0.0160 -1.8736 -0.5891
   94SAPC  C318 9213   7.561   5.442   4.870  0.0818 -0.2116  0.2803
   94SAPC  H18X 9214   7.604   5.468   4.970  0.6677  0.6998 -0.1918
   94SAPC  H18Y 9215   7.463   5.391   4.882  0.8956 -1.5144  1.9367
   94SAPC  H18Z 9216   7.551   5.540   4.821 -0.2680 -0.9302 -1.1320
   95SAPC     N 9217   2.059   1.808   2.441  0.5687  0.2877  0.4090
   95SAPC   C12 9218   2.036   1.801   2.590 -0.4695 -0.7167  0.1856
   95SAPC  H12A 9219   1.934   1.832   2.608 -0.0478 -0.1774  1.7391
   95SAPC  H12B 9220   2.104   1.869   2.639 -2.0456  0.1943  1.1643
   95SAPC   C13 9221   2.028   1.938   2.382 -0.3578 -0.3049 -0.1732
   95SAPC  H13A 9222   2.100   2.018   2.399  0.8831 -1.4373  0.1086
   95SAPC  H13B 9223   2.034   1.939   2.274  0.9549 -2.3731 -0.1767
   95SAPC  H13C 9224   1.930   1.976   2.407  0.1320  1.8352 -1.2608
   95SAPC   C14 9225   2.200   1.767   2.396  0.4851  0.3544 -0.0332
   95SAPC  H14A 9226   2.211   1.782   2.290  2.3483  1.1455  0.2379
   95SAPC  H14B 9227   2.269   1.833   2.446  0.0437  0.6876  0.1496
   95SAPC  H14C 9228   2.209   1.662   2.422 -2.4861 -0.6904 -2.5925
   95SAPC   C15 9229   1.965   1.714   2.367 -0.6236  0.2617 -0.0746
   95SAPC  H15A 9230   1.862   1.736   2.391 -0.6128 -0.6104  0.8861
   95SAPC  H15B 9231   1.997   1.725   2.265  2.0451 -1.1080  0.5081
   95SAPC  H15C 9232   1.996   1.613   2.389 -2.1759 -0.2913 -0.3354
   95SAPC   C11 9233   2.040   1.657   2.659  0.9057 -0.3988 -0.7845
   95SAPC  H11A 9234   1.955   1.608   2.608  0.7005 -1.9729  0.9757
   95SAPC  H11B 9235   2.017   1.668   2.767  0.0338  1.2998 -1.0961
   95SAPC     P 9236   2.304   1.610   2.705  0.2581  0.2179  0.0306
   95SAPC   O13 9237   2.377   1.485   2.678 -0.0181 -0.4172  0.4081
   95SAPC   O14 9238   2.369   1.742   2.677 -0.0754 -0.6011 -0.0494
   95SAPC   O12 9239   2.165   1.597   2.626  0.3179  0.3011 -0.2651
   95SAPC   O11 9240   2.262   1.614   2.859 -0.7219  0.3759 -0.0792
   95SAPC    C1 9241   2.212   1.491   2.916 -0.1146 -0.1070 -0.1351
   95SAPC    HA 9242   2.138   1.446   2.846 -0.0102  1.9397 -1.6519
   95SAPC    HB 9243   2.294   1.416   2.924  0.1969  0.4549  2.8900
   95SAPC    C2 9244   2.134   1.509   3.048  0.2486 -0.3942 -0.1196
   95SAPC    HS 9245   2.038   1.558   3.019  0.7281 -1.2456 -3.5722
   95SAPC   O21 9246   2.211   1.594   3.138 -0.0377 -0.5546 -0.0188
   95SAPC   C21 9247   2.140   1.667   3.228 -0.4640  0.5092 -0.2292
   95SAPC   O22 9248   2.021   1.682   3.229 -0.1836  0.2282 -0.3084
   95SAPC   C22 9249   2.241   1.739   3.325  0.1449 -0.6426 -0.1781
   95SAPC   H2R 9250   2.340   1.695   3.301 -0.0931 -0.7320 -1.0121
   95SAPC   H2S 9251   2.235   1.846   3.296  0.7244  0.1233  2.2291
   95SAPC    C3 9252   2.113   1.368   3.101  0.9965  0.6487 -0.3503
   95SAPC    HX 9253   2.210   1.313   3.095  0.4095 -0.4297 -0.0810
   95SAPC    HY 9254   2.043   1.323   3.027  0.7211 -0.4419  0.5575
   95SAPC   O31 9255   2.069   1.359   3.241  0.0181 -0.6104 -0.2607
   95SAPC   C31 9256   1.937   1.333   3.259  0.5342  0.1821  0.9172
   95SAPC   O32 9257   1.851   1.313   3.169  0.1905 -0.6409 -0.4454
   95SAPC   C32 9258   1.904   1.334   3.404  0.3273 -0.0516  0.0028
   95SAPC   H2X 9259   1.927   1.229   3.433  0.6555 -0.3761 -1.3314
   95SAPC   H2Y 9260   1.793   1.341   3.401  0.3633  0.3696 -2.4230
   95SAPC   C23 9261   2.195   1.729   3.473 -0.0263  0.2657 -0.5534
   95SAPC   H3R 9262   2.179   1.624   3.508 -2.0738 -0.2016 -2.6333
   95SAPC   H3S 9263   2.093   1.773   3.475  0.3154  1.0332  0.6294
   95SAPC   C24 9264   2.280   1.811   3.567  0.2440 -0.6238 -0.3762
   95SAPC   H4R 9265   2.381   1.766   3.555 -0.2929 -1.9472 -0.0701
   95SAPC   H4S 9266   2.253   1.796   3.673 -0.0442 -1.0574 -0.5084
   95SAPC   C25 9267   2.290   1.961   3.537  0.6900 -0.3436  0.0034
   95SAPC   H5R 9268   2.313   1.988   3.433 -0.7612  2.6790  0.3512
   95SAPC   C26 9269   2.260   2.062   3.620  0.4463  0.1270  0.5263
   95SAPC   H6R 9270   2.276   2.167   3.594 -0.6491  0.3197  0.5590
   95SAPC   C27 9271   2.240   2.047   3.768 -1.2331  0.0597 -0.5915
   95SAPC   H7R 9272   2.275   2.136   3.824  0.5958 -0.0040 -1.5546
   95SAPC   H7S 9273   2.299   1.964   3.812 -0.6894  1.0328  0.5622
   95SAPC   C28 9274   2.096   2.025   3.799 -0.0624  0.2631  0.1037
   95SAPC   H8R 9275   2.059   1.936   3.746  0.1116  0.0898  0.2703
   95SAPC   C29 9276   2.028   2.086   3.896 -0.0989  0.8855  0.4044
   95SAPC   H9R 9277   1.920   2.063   3.901  0.1238 -0.7910 -1.3057
   95SAPC  C210 9278   2.067   2.195   3.993  0.8101 -0.6697 -0.4663
   95SAPC  H10R 9279   1.981   2.265   3.995  0.6200 -0.8671  2.5000
   95SAPC  H10S 9280   2.143   2.260   3.944  1.6129 -0.4374  1.0557
   95SAPC  C211 9281   2.134   2.144   4.115  0.1528 -0.1556  0.5424
   95SAPC  H11R 9282   2.146   2.035   4.117  1.2307 -0.0697  2.7802
   95SAPC  C212 9283   2.168   2.218   4.220  0.5365 -0.6663  0.7003
   95SAPC  H12R 9284   2.224   2.166   4.299  0.5462 -1.0576  0.4380
   95SAPC  C213 9285   2.164   2.374   4.226  0.1555  0.3005 -0.1422
   95SAPC  H13R 9286   2.173   2.424   4.127  1.6956  1.9155  0.7466
   95SAPC  H13S 9287   2.257   2.405   4.278 -0.0767  0.8261 -0.0326
   95SAPC  C214 9288   2.037   2.417   4.286 -0.5587  0.6315 -0.5406
   95SAPC  H14R 9289   1.969   2.474   4.221 -1.2305  0.8546  0.3318
   95SAPC  C215 9290   2.005   2.406   4.418 -0.0686  0.2626 -0.1369
   95SAPC  H15R 9291   1.912   2.460   4.445  0.0800  0.9641 -0.9979
   95SAPC  C216 9292   2.084   2.348   4.538  0.3302  0.8040 -0.4904
   95SAPC  H16R 9293   2.116   2.433   4.603  0.3105 -0.5328  1.3463
   95SAPC  H16S 9294   2.176   2.300   4.499  0.0976 -0.2091  0.1688
   95SAPC  C217 9295   2.004   2.253   4.626 -0.2418  0.3812  0.4852
   95SAPC  H17R 9296   1.951   2.181   4.560  1.5248 -1.0010  0.4935
   95SAPC  H17S 9297   1.933   2.318   4.681  0.9846  2.2735 -0.0678
   95SAPC  C218 9298   2.081   2.176   4.737  0.6314 -0.0912  0.8726
   95SAPC  H18R 9299   2.008   2.103   4.778 -1.7631 -0.6075 -3.6907
   95SAPC  H18S 9300   2.124   2.243   4.815  2.7251 -1.1851  0.7101
   95SAPC  C219 9301   2.190   2.083   4.680  0.3258  0.6278 -0.1118
   95SAPC  H19R 9302   2.224   2.133   4.587 -0.6146  3.4346  0.9111
   95SAPC  H19S 9303   2.141   1.987   4.655  0.0989 -0.3660  3.5540
   95SAPC  C220 9304   2.308   2.040   4.765 -0.6953  0.2128 -0.1485
   95SAPC  H20R 9305   2.370   1.984   4.692 -0.2621  1.0580 -0.4448
   95SAPC  H20S 9306   2.292   1.986   4.861 -0.6048 -0.5085 -0.5330
   95SAPC  H20T 9307   2.362   2.133   4.791 -0.4070  0.3036 -1.0421
   95SAPC   C33 9308   1.966   1.447   3.491 -0.0438  0.3420  0.1717
   95SAPC   H3X 9309   1.955   1.550   3.450 -0.7697 -0.0275 -0.6017
   95SAPC   H3Y 9310   2.075   1.434   3.472  0.0163  2.5915 -1.4766
   95SAPC   C34 9311   1.925   1.426   3.637  0.0366  0.1897 -0.9025
   95SAPC   H4X 9312   1.963   1.330   3.676  0.6394  0.2413 -1.3525
   95SAPC   H4Y 9313   1.816   1.447   3.652  0.4621  0.8373  1.8911
   95SAPC   C35 9314   1.991   1.537   3.716 -0.3943  0.4108 -0.0817
   95SAPC   H5X 9315   1.989   1.640   3.674 -1.0293  1.1569  1.6838
   95SAPC   H5Y 9316   2.100   1.513   3.714 -0.2208  1.1582  0.0980
   95SAPC   C36 9317   1.957   1.527   3.866  0.1982  1.0556 -0.7670
   95SAPC   H6X 9318   1.956   1.425   3.910  0.9950  1.7647  0.9527
   95SAPC   H6Y 9319   1.850   1.554   3.879 -0.3418 -1.0742 -0.3579
   95SAPC   C37 9320   2.031   1.623   3.954  0.1112 -0.0191 -0.1274
   95SAPC   H7X 9321   2.003   1.725   3.921  0.1117 -0.3932 -1.3243
   95SAPC   H7Y 9322   2.141   1.614   3.939  0.4997  2.3867  0.7288
   95SAPC   C38 9323   2.008   1.619   4.110 -0.0669 -0.2013  0.6467
   95SAPC   H8X 9324   2.021   1.514   4.144 -1.2366 -1.1340 -1.5565
   95SAPC   H8Y 9325   1.904   1.654   4.131 -0.0161 -0.6936  1.8019
   95SAPC   C39 9326   2.093   1.716   4.177 -0.9207 -0.4765 -0.2538
   95SAPC   H9X 9327   2.080   1.815   4.127 -2.0047  0.1506  1.1942
   95SAPC   H9Y 9328   2.197   1.681   4.159  0.6494  2.8284  1.4987
   95SAPC  C310 9329   2.067   1.721   4.329  1.4350 -1.5910 -0.7456
   95SAPC  H10X 9330   2.093   1.631   4.388  2.4182 -0.7233  0.2006
   95SAPC  H10Y 9331   1.959   1.745   4.344  1.7612 -0.4491 -0.0455
   95SAPC  C311 9332   2.145   1.824   4.407 -0.3038  0.5093 -0.0123
   95SAPC  H11X 9333   2.078   1.861   4.488 -1.7376 -0.7458 -0.5685
   95SAPC  H11Y 9334   2.176   1.908   4.342  3.4815 -0.1773  0.6808
   95SAPC  C312 9335   2.277   1.776   4.472  0.1609 -0.4265  0.3208
   95SAPC  H12X 9336   2.339   1.865   4.496  2.5507 -1.6170 -1.0287
   95SAPC  H12Y 9337   2.334   1.712   4.401 -0.1680 -0.7061  0.3045
   95SAPC  C313 9338   2.265   1.698   4.604  0.2946 -0.2900  0.1600
   95SAPC  H13X 9339   2.197   1.612   4.582 -1.9315  1.2405  0.7156
   95SAPC  H13Y 9340   2.227   1.759   4.689  0.1865 -0.8417  0.5112
   95SAPC  C314 9341   2.402   1.640   4.653 -0.5541  0.2595  0.1128
   95SAPC  H14X 9342   2.454   1.706   4.726 -1.2055 -0.0889  0.9002
   95SAPC  H14Y 9343   2.467   1.624   4.564  0.6148 -2.3479  1.3419
   95SAPC  C315 9344   2.395   1.508   4.732  1.1992  0.4056 -0.7042
   95SAPC  H15X 9345   2.339   1.438   4.666 -2.9316  0.8049  1.9931
   95SAPC  H15Y 9346   2.328   1.526   4.818 -0.1511 -3.0201 -0.9080
   95SAPC  C316 9347   2.525   1.450   4.799 -0.5339 -0.6379  0.1402
   95SAPC  H16X 9348   2.562   1.518   4.879  0.0189 -1.6338  0.7499
   95SAPC  H16Y 9349   2.604   1.443   4.721 -0.2481  2.4477  0.0330
   95SAPC  C317 9350   2.520   1.305   4.859  0.1875 -0.2799 -0.0062
   95SAPC  H17X 9351   2.452   1.313   4.947  0.7114 -1.4864  0.5252
   95SAPC  H17Y 9352   2.614   1.286   4.914 -0.4808  0.2327  1.3718
   95SAPC  C318 9353   2.485   1.188   4.765 -0.1353 -0.3322 -0.2798
   95SAPC  H18X 9354   2.549   1.176   4.674 -0.2478 -0.9588 -0.2805
   95SAPC  H18Y 9355   2.377   1.188   4.739  0.2126 -0.0387 -1.8521
   95SAPC  H18Z 9356   2.508   1.105   4.834  1.9067  0.2655 -0.1596
   96SAPC     N 9357   1.391   2.105   2.422 -0.3334 -0.2607 -0.3998
   96SAPC   C12 9358   1.379   2.123   2.573  0.1410 -0.0491  0.0048
   96SAPC  H12A 9359   1.307   2.048   2.602  0.3291  0.6349  2.4076
   96SAPC  H12B 9360   1.334   2.219   2.593 -0.3213 -0.4492  0.9091
   96SAPC   C13 9361   1.268   2.140   2.351 -0.2764 -0.2587 -0.5779
   96SAPC  H13A 9362   1.233   2.241   2.372 -0.1272 -0.5479  1.2252
   96SAPC  H13B 9363   1.282   2.130   2.244  0.0393 -2.2912 -0.3721
   96SAPC  H13C 9364   1.187   2.077   2.384 -0.5396  1.2375  1.8877
   96SAPC   C14 9365   1.490   2.198   2.357 -0.8746 -0.9546  0.3052
   96SAPC  H14A 9366   1.450   2.297   2.348 -1.1347 -1.0085  0.8070
   96SAPC  H14B 9367   1.585   2.207   2.409  1.1973  0.6552 -3.3521
   96SAPC  H14C 9368   1.513   2.166   2.257  1.0525  2.7519 -0.6139
   96SAPC   C15 9369   1.427   1.959   2.390  0.1847  0.0366  0.5673
   96SAPC  H15A 9370   1.418   1.958   2.282 -0.0180  0.1624  0.5828
   96SAPC  H15B 9371   1.531   1.937   2.410  0.8789 -0.1918 -2.7348
   96SAPC  H15C 9372   1.361   1.890   2.441  0.2076  0.7181  1.5388
   96SAPC   C11 9373   1.503   2.081   2.650 -0.9409 -0.1673 -0.6460
   96SAPC  H11A 9374   1.498   1.970   2.649 -2.1770 -0.1337 -0.4213
   96SAPC  H11B 9375   1.481   2.106   2.756 -0.7669  0.1522 -0.6820
   96SAPC     P 9376   1.765   2.097   2.635 -0.0918 -0.1264  0.5115
   96SAPC   O13 9377   1.775   1.950   2.623  0.0966  0.2793  0.2349
   96SAPC   O14 9378   1.866   2.164   2.553  0.0482 -0.3178  0.1228
   96SAPC   O12 9379   1.621   2.152   2.598  0.7446  0.4401 -0.6584
   96SAPC   O11 9380   1.772   2.147   2.781 -0.5530 -0.0332  0.1972
   96SAPC    C1 9381   1.782   2.290   2.816 -0.6035  0.8515  0.3788
   96SAPC    HA 9382   1.781   2.362   2.732  1.8324  2.3083  1.4632
   96SAPC    HB 9383   1.706   2.315   2.893 -0.3487  0.5570  0.7345
   96SAPC    C2 9384   1.926   2.316   2.889 -0.5511 -0.1347 -0.0559
   96SAPC    HS 9385   1.995   2.277   2.812 -1.1096 -0.2438 -0.5125
   96SAPC   O21 9386   1.939   2.234   2.997 -0.0773 -0.3144 -0.3730
   96SAPC   C21 9387   2.057   2.201   3.026 -0.8145  0.5839 -0.4485
   96SAPC   O22 9388   2.159   2.232   2.963  0.5381  0.2681  0.9569
   96SAPC   C22 9389   2.057   2.127   3.161  0.3993  0.4007  0.0451
   96SAPC   H2R 9390   1.960   2.072   3.161  1.0353 -0.7935  1.7816
   96SAPC   H2S 9391   2.139   2.053   3.167  0.9402  1.0745  1.2223
   96SAPC    C3 9392   1.952   2.467   2.922  0.7630  0.5243  0.1274
   96SAPC    HX 9393   1.953   2.531   2.831 -1.1193  0.3327 -0.0629
   96SAPC    HY 9394   2.051   2.481   2.972 -0.3615 -0.0945  2.7177
   96SAPC   O31 9395   1.852   2.511   3.015  0.0747 -0.4469  0.9179
   96SAPC   C31 9396   1.857   2.643   3.037 -1.3011 -0.2392  0.1652
   96SAPC   O32 9397   1.941   2.721   2.991  0.0317  0.3892  0.0807
   96SAPC   C32 9398   1.757   2.691   3.132  0.5103  0.5137 -0.4607
   96SAPC   H2X 9399   1.745   2.617   3.214 -0.2336  1.4200  0.2636
   96SAPC   H2Y 9400   1.655   2.697   3.089  0.6808 -1.0559 -1.1672
   96SAPC   C23 9401   2.078   2.217   3.290  0.0038 -0.1631  0.5933
   96SAPC   H3R 9402   2.143   2.295   3.245 -1.6569  0.2024 -1.3532
   96SAPC   H3S 9403   2.119   2.137   3.355 -3.0396 -2.4033 -0.0259
   96SAPC   C24 9404   1.953   2.274   3.346 -0.1258  0.1718 -0.1416
   96SAPC   H4R 9405   1.890   2.189   3.380 -0.3359  0.7014  0.8279
   96SAPC   H4S 9406   1.907   2.334   3.265 -0.1338 -0.1809 -0.3994
   96SAPC   C25 9407   1.989   2.360   3.459 -0.4027  0.3712  0.5180
   96SAPC   H5R 9408   1.984   2.309   3.556  1.7146  0.4184  0.6998
   96SAPC   C26 9409   2.022   2.492   3.457 -0.4119 -0.4680  0.0504
   96SAPC   H6R 9410   2.048   2.531   3.557 -0.4334 -0.9743  0.2574
   96SAPC   C27 9411   2.034   2.592   3.345 -0.2857  0.3879  0.3015
   96SAPC   H7R 9412   1.948   2.660   3.358  0.6465  1.5433  0.6458
   96SAPC   H7S 9413   2.023   2.540   3.248  3.3407  1.0514 -0.6141
   96SAPC   C28 9414   2.163   2.667   3.343 -0.3920 -0.2410  1.1179
   96SAPC   H8R 9415   2.244   2.597   3.319  0.4159  1.0309 -0.0243
   96SAPC   C29 9416   2.192   2.789   3.387 -0.2812 -0.2633 -0.4565
   96SAPC   H9R 9417   2.291   2.836   3.379 -0.7943  1.0618  0.6750
   96SAPC  C210 9418   2.089   2.879   3.448 -0.5151  0.4051 -0.0526
   96SAPC  H10R 9419   1.993   2.824   3.458  0.1756 -0.7592  0.4168
   96SAPC  H10S 9420   2.072   2.966   3.381 -0.8466 -0.0721 -0.5932
   96SAPC  C211 9421   2.132   2.933   3.578 -0.4224 -0.3407 -0.9100
   96SAPC  H11R 9422   2.209   3.011   3.569  0.9037 -1.5707 -0.5127
   96SAPC  C212 9423   2.087   2.903   3.699  0.1106 -0.1299 -0.5289
   96SAPC  H12R 9424   2.151   2.950   3.776 -2.1109  1.7315  0.2876
   96SAPC  C213 9425   1.984   2.814   3.758 -0.1797 -0.6140 -0.0679
   96SAPC  H13R 9426   1.931   2.769   3.672 -0.5987 -0.9364  0.3539
   96SAPC  H13S 9427   1.904   2.879   3.800  0.3140  0.9291 -1.3899
   96SAPC  C214 9428   2.031   2.707   3.859 -1.3380  0.0387 -0.1487
   96SAPC  H14R 9429   2.097   2.625   3.825 -0.7112 -0.5419  2.3156
   96SAPC  C215 9430   2.009   2.700   3.994  0.1476 -0.1301  0.6212
   96SAPC  H15R 9431   2.054   2.616   4.048  2.3433 -0.2262 -1.1712
   96SAPC  C216 9432   1.917   2.788   4.066 -0.0281  0.3798 -0.1666
   96SAPC  H16R 9433   1.812   2.752   4.065  0.2933 -0.8567  2.2196
   96SAPC  H16S 9434   1.914   2.893   4.029 -0.3809  0.2815 -0.4155
   96SAPC  C217 9435   1.972   2.806   4.207 -0.0945 -0.0178 -0.0763
   96SAPC  H17R 9436   2.055   2.880   4.206 -1.9685  2.1773 -1.7247
   96SAPC  H17S 9437   2.011   2.712   4.251 -0.2962  0.0745  0.3049
   96SAPC  C218 9438   1.872   2.874   4.309 -0.0779 -0.0764 -0.3458
   96SAPC  H18R 9439   1.783   2.808   4.320 -1.9563  2.1703 -0.9470
   96SAPC  H18S 9440   1.830   2.970   4.272 -2.4419 -1.0473 -0.3844
   96SAPC  C219 9441   1.929   2.905   4.453 -0.3692  0.2259 -0.3317
   96SAPC  H19R 9442   1.839   2.921   4.517 -0.5945 -0.7123 -0.3911
   96SAPC  H19S 9443   1.990   2.998   4.446  1.9048 -1.1393  0.4318
   96SAPC  C220 9444   2.001   2.782   4.508 -0.7484 -0.0149  0.3427
   96SAPC  H20R 9445   2.097   2.761   4.456  0.4630  0.7879  2.1830
   96SAPC  H20S 9446   1.935   2.695   4.485 -1.1280  0.6410 -1.2022
   96SAPC  H20T 9447   2.019   2.781   4.617 -0.2899  2.4367  0.3352
   96SAPC   C33 9448   1.780   2.835   3.198  0.2971  0.8143 -0.5537
   96SAPC   H3X 9449   1.725   2.912   3.140  0.6224  0.4456 -1.3624
   96SAPC   H3Y 9450   1.889   2.856   3.213  0.0273  1.1349  1.1681
   96SAPC   C34 9451   1.720   2.843   3.342  0.3708  0.1921  0.1269
   96SAPC   H4X 9452   1.742   2.938   3.395 -0.4509 -0.3396  1.4806
   96SAPC   H4Y 9453   1.773   2.776   3.413 -1.1817 -0.5600  0.6162
   96SAPC   C35 9454   1.568   2.833   3.346  0.1095 -0.0792  0.3155
   96SAPC   H5X 9455   1.525   2.759   3.275 -0.8576  1.4271 -0.7576
   96SAPC   H5Y 9456   1.533   2.933   3.312  1.4677  0.7191  1.1735
   96SAPC   C36 9457   1.509   2.829   3.488 -0.2217  0.0890  0.5245
   96SAPC   H6X 9458   1.544   2.730   3.522  0.3342 -0.5583 -1.7342
   96SAPC   H6Y 9459   1.398   2.826   3.483 -0.1522 -0.7913 -2.4731
   96SAPC   C37 9460   1.550   2.944   3.580 -0.4589  0.0182 -0.1928
   96SAPC   H7X 9461   1.537   3.047   3.539 -3.3257  0.4323  1.5356
   96SAPC   H7Y 9462   1.656   2.930   3.611 -1.2922  0.1899  3.0488
   96SAPC   C38 9463   1.468   2.946   3.713  0.5131  0.2617  0.3792
   96SAPC   H8X 9464   1.431   2.842   3.731 -1.7790  1.5416  3.9962
   96SAPC   H8Y 9465   1.380   3.008   3.686  0.3207 -0.8629 -1.7945
   96SAPC   C39 9466   1.547   2.995   3.839 -0.9465 -0.1834 -0.5933
   96SAPC   H9X 9467   1.579   3.102   3.832  1.6383 -0.8483 -0.1746
   96SAPC   H9Y 9468   1.637   2.930   3.845 -0.6469  0.3101  0.5789
   96SAPC  C310 9469   1.473   2.984   3.975 -0.6482  0.2049 -0.0671
   96SAPC  H10X 9470   1.461   2.879   4.010  1.1951  1.2417  4.3535
   96SAPC  H10Y 9471   1.370   3.021   3.956 -1.4752 -2.1016 -0.3941
   96SAPC  C311 9472   1.537   3.047   4.100 -0.0677 -0.1260 -0.2846
   96SAPC  H11X 9473   1.519   3.156   4.092 -0.3187  0.0747  2.0983
   96SAPC  H11Y 9474   1.644   3.018   4.102 -0.3981 -1.5094 -1.1822
   96SAPC  C312 9475   1.458   3.003   4.221 -0.5589  0.4211  0.1385
   96SAPC  H12X 9476   1.472   2.893   4.226 -0.4628  0.4966  3.7854
   96SAPC  H12Y 9477   1.350   3.015   4.199 -0.4195  2.3756  0.3667
   96SAPC  C313 9478   1.503   3.069   4.352  0.2722  0.1650 -0.3591
   96SAPC  H13X 9479   1.471   3.175   4.362  1.1156  0.3398  0.6736
   96SAPC  H13Y 9480   1.612   3.086   4.358  0.2556  0.0100  0.5527
   96SAPC  C314 9481   1.461   2.995   4.482 -0.5632  0.2714 -0.2651
   96SAPC  H14X 9482   1.351   3.007   4.489 -0.7457 -1.9126  2.2028
   96SAPC  H14Y 9483   1.507   3.046   4.569 -0.7638 -1.4327  0.8973
   96SAPC  C315 9484   1.486   2.842   4.491  0.0801  0.5458  0.4808
   96SAPC  H15X 9485   1.587   2.829   4.446 -1.0854  1.6934 -2.7855
   96SAPC  H15Y 9486   1.423   2.800   4.409  1.0336  1.7304 -0.9088
   96SAPC  C316 9487   1.465   2.777   4.625 -0.9872 -0.3477 -0.6731
   96SAPC  H16X 9488   1.378   2.820   4.679 -0.7118  0.2873 -0.7204
   96SAPC  H16Y 9489   1.555   2.803   4.686 -1.9357  1.3229  0.1046
   96SAPC  C317 9490   1.457   2.629   4.624 -0.0720  0.1464  0.4673
   96SAPC  H17X 9491   1.360   2.598   4.578 -0.4799  3.0191 -0.8657
   96SAPC  H17Y 9492   1.457   2.585   4.726 -0.6768  0.4661  0.6123
   96SAPC  C318 9493   1.571   2.563   4.550  0.4769  0.2370  0.5053
   96SAPC  H18X 9494   1.592   2.595   4.446 -1.1773 -2.5481 -0.8373
   96SAPC  H18Y 9495   1.542   2.456   4.542 -1.2821  0.6496  0.8356
   96SAPC  H18Z 9496   1.660   2.557   4.616  1.0216  2.0309 -0.0198
   97SAPC     N 9497   0.185   2.835   2.329  0.0909  0.2936 -0.5604
   97SAPC   C12 9498   0.215   2.722   2.420 -0.5292 -0.1300  0.0678
   97SAPC  H12A 9499   0.306   2.752   2.470 -0.5804  0.7063 -0.3198
   97SAPC  H12B 9500   0.232   2.634   2.360  2.6057  0.8148 -0.6125
   97SAPC   C13 9501   0.148   2.960   2.405  0.8385 -0.1537  0.2848
   97SAPC  H13A 9502   0.228   2.985   2.473  0.3068 -1.7101  1.5429
   97SAPC  H13B 9503   0.116   3.043   2.344 -1.9379 -1.0879  0.3143
   97SAPC  H13C 9504   0.071   2.939   2.478  0.8626 -2.4060 -0.2547
   97SAPC   C14 9505   0.294   2.888   2.237 -0.4434 -1.2562 -0.6953
   97SAPC  H14A 9506   0.256   2.965   2.171 -4.5121 -0.7906  1.8498
   97SAPC  H14B 9507   0.383   2.913   2.292 -2.7200 -0.4971  3.0064
   97SAPC  H14C 9508   0.305   2.808   2.166 -1.4085 -1.2047 -0.9134
   97SAPC   C15 9509   0.074   2.794   2.243  0.5474 -0.0725 -0.0574
   97SAPC  H15A 9510  -0.014   2.770   2.299  0.0249  0.2779 -0.7111
   97SAPC  H15B 9511   0.051   2.871   2.171  0.1718  0.0658  0.2092
   97SAPC  H15C 9512   0.099   2.705   2.188  1.3597 -0.1600  0.4400
   97SAPC   C11 9513   0.120   2.691   2.542  0.1982  0.2759  0.1948
   97SAPC  H11A 9514   0.118   2.777   2.613 -0.4443 -0.2721  0.8513
   97SAPC  H11B 9515   0.154   2.603   2.600 -2.0148 -0.3686  0.6274
   97SAPC     P 9516  -0.124   2.623   2.613  0.0019  0.4292 -0.3394
   97SAPC   O13 9517  -0.194   2.748   2.640  0.9132  0.1039  0.2943
   97SAPC   O14 9518  -0.213   2.507   2.573 -0.2695  0.3358  0.0248
   97SAPC   O12 9519  -0.012   2.657   2.502  0.6075 -0.5569 -0.3428
   97SAPC   O11 9520  -0.044   2.581   2.744  0.1502  0.1924 -0.0553
   97SAPC    C1 9521   0.028   2.458   2.752 -0.5556  0.0162 -0.4327
   97SAPC    HA 9522   0.052   2.414   2.653 -0.5990 -1.0902  0.0342
   97SAPC    HB 9523   0.131   2.480   2.788 -0.9120 -0.0187  0.6613
   97SAPC    C2 9524  -0.039   2.353   2.843 -0.6710  0.6873 -0.8811
   97SAPC    HS 9525  -0.143   2.336   2.808 -0.3598 -2.4801 -0.6209
   97SAPC   O21 9526  -0.029   2.395   2.976 -0.0289  0.1368  0.4756
   97SAPC   C21 9527  -0.136   2.385   3.049 -0.2938  0.0269  0.3179
   97SAPC   O22 9528  -0.242   2.335   3.014 -0.5220 -1.1619 -0.5880
   97SAPC   C22 9529  -0.110   2.449   3.190 -0.0450 -0.3185  0.2854
   97SAPC   H2R 9530  -0.002   2.432   3.208  0.4880 -1.6794 -3.3892
   97SAPC   H2S 9531  -0.131   2.558   3.187  0.6819 -0.1824 -0.0915
   97SAPC    C3 9532   0.026   2.204   2.835 -0.2143 -1.1280 -0.1801
   97SAPC    HX 9533   0.130   2.219   2.872 -0.1702  0.7946 -0.9981
   97SAPC    HY 9534   0.019   2.177   2.728  0.8210 -1.8487 -0.0853
   97SAPC   O31 9535  -0.053   2.118   2.921 -0.3712  0.6324 -0.6159
   97SAPC   C31 9536  -0.034   1.986   2.879 -0.0359 -0.1425 -0.5903
   97SAPC   O32 9537   0.046   1.951   2.796 -0.0463 -0.1161 -0.1151
   97SAPC   C32 9538  -0.119   1.886   2.960 -0.4530  0.6016 -0.6621
   97SAPC   H2X 9539  -0.068   1.790   2.939  0.2762  1.2704 -2.0584
   97SAPC   H2Y 9540  -0.225   1.881   2.926  0.1073 -0.5485 -2.3261
   97SAPC   C23 9541  -0.191   2.405   3.313  0.4010 -0.3772 -0.1652
   97SAPC   H3R 9542  -0.299   2.421   3.297  0.5461  0.6103 -0.2113
   97SAPC   H3S 9543  -0.166   2.468   3.401  1.2825 -1.5282  0.4354
   97SAPC   C24 9544  -0.181   2.254   3.342  0.1552 -0.5907 -0.2834
   97SAPC   H4R 9545  -0.182   2.207   3.241  1.0436 -1.3029  0.0186
   97SAPC   H4S 9546  -0.277   2.238   3.395  0.2523  1.0597  0.4272
   97SAPC   C25 9547  -0.057   2.203   3.411 -0.9899 -0.8201  0.3999
   97SAPC   H5R 9548   0.033   2.174   3.355  0.4711 -1.1533  2.7698
   97SAPC   C26 9549  -0.046   2.185   3.540 -0.2684 -0.3097 -0.2247
   97SAPC   H6R 9550   0.049   2.159   3.589 -1.4930 -0.2461  2.3044
   97SAPC   C27 9551  -0.170   2.210   3.630 -0.3840  0.2386  0.0221
   97SAPC   H7R 9552  -0.161   2.150   3.722 -0.8941 -0.7319 -0.5443
   97SAPC   H7S 9553  -0.264   2.174   3.583 -0.0209 -0.4310 -0.2060
   97SAPC   C28 9554  -0.200   2.357   3.666 -0.1344  0.7339 -0.4596
   97SAPC   H8R 9555  -0.232   2.416   3.579 -0.4494  1.1714 -0.0513
   97SAPC   C29 9556  -0.163   2.430   3.773  0.2614 -0.7508 -0.0814
   97SAPC   H9R 9557  -0.177   2.539   3.773  1.2248 -0.5892 -2.0079
   97SAPC  C210 9558  -0.101   2.389   3.905  0.1695  0.3651  0.2105
   97SAPC  H10R 9559  -0.050   2.479   3.946 -0.9298  1.1962 -0.2096
   97SAPC  H10S 9560  -0.015   2.322   3.880 -0.5512 -0.4982 -0.0278
   97SAPC  C211 9561  -0.189   2.322   4.014 -0.2328 -0.6563  0.1287
   97SAPC  H11R 9562  -0.284   2.375   4.034 -0.5323 -0.6259 -1.2304
   97SAPC  C212 9563  -0.164   2.224   4.093 -0.5370  0.2519  0.0582
   97SAPC  H12R 9564  -0.246   2.193   4.160 -1.0837  0.2279 -0.6190
   97SAPC  C213 9565  -0.029   2.148   4.108  0.4337  0.0155  0.9209
   97SAPC  H13R 9566   0.055   2.218   4.128  0.3924  1.0722 -2.1158
   97SAPC  H13S 9567   0.001   2.104   4.010 -1.9758  0.2676 -0.0047
   97SAPC  C214 9568  -0.037   2.043   4.217  0.5453  0.2269  0.4526
   97SAPC  H14R 9569  -0.105   1.958   4.202  1.4412 -0.6237  1.0459
   97SAPC  C215 9570   0.013   2.055   4.339 -0.3457 -0.3801 -0.6102
   97SAPC  H15R 9571  -0.002   1.970   4.407  1.0604 -0.7360 -0.7111
   97SAPC  C216 9572   0.114   2.159   4.394  0.3456  0.0818  0.5986
   97SAPC  H16R 9573   0.061   2.243   4.444 -0.4374 -0.1547  0.1850
   97SAPC  H16S 9574   0.171   2.199   4.307 -1.8455 -0.7898 -1.3558
   97SAPC  C217 9575   0.214   2.080   4.490  0.3108 -0.0634 -0.3467
   97SAPC  H17R 9576   0.299   2.151   4.494 -0.7205  1.2185 -0.5981
   97SAPC  H17S 9577   0.258   1.988   4.446 -0.4173 -0.3816 -0.4337
   97SAPC  C218 9578   0.147   2.049   4.626  0.4863  0.0654  0.0926
   97SAPC  H18R 9579   0.068   1.971   4.627  2.8781 -2.5071  1.0833
   97SAPC  H18S 9580   0.121   2.146   4.672 -0.5820  1.3989 -3.0042
   97SAPC  C219 9581   0.250   1.987   4.722 -0.3754  0.8360  0.0273
   97SAPC  H19R 9582   0.212   1.955   4.821  0.8812  0.2991  0.3513
   97SAPC  H19S 9583   0.323   2.066   4.749  1.9855 -0.8442 -1.0770
   97SAPC  C220 9584   0.329   1.868   4.677 -0.0125  0.3823 -0.3424
   97SAPC  H20R 9585   0.273   1.778   4.711  2.6011 -0.9363  0.8390
   97SAPC  H20S 9586   0.427   1.859   4.729 -1.5596  1.2207  2.9442
   97SAPC  H20T 9587   0.341   1.863   4.566 -2.6942 -0.4630 -0.6654
   97SAPC   C33 9588  -0.106   1.909   3.107 -0.4049  0.0220 -0.2787
   97SAPC   H3X 9589  -0.136   2.007   3.148 -0.4580  0.1041 -0.5138
   97SAPC   H3Y 9590  -0.001   1.882   3.130 -1.4274 -3.5975  0.8309
   97SAPC   C34 9591  -0.185   1.797   3.194 -0.3887 -0.3493 -0.1933
   97SAPC   H4X 9592  -0.178   1.691   3.163 -1.3390 -0.1853 -1.0093
   97SAPC   H4Y 9593  -0.290   1.831   3.183  0.0395  0.9290 -0.5152
   97SAPC   C35 9594  -0.139   1.809   3.342 -0.1139 -0.7408 -0.9453
   97SAPC   H5X 9595  -0.161   1.908   3.386  0.3289  0.1530 -2.6620
   97SAPC   H5Y 9596  -0.033   1.781   3.365 -0.6912 -1.1077  1.5944
   97SAPC   C36 9597  -0.218   1.705   3.422 -0.5396 -0.1402  0.5113
   97SAPC   H6X 9598  -0.215   1.612   3.361 -1.4467  0.7380 -0.9299
   97SAPC   H6Y 9599  -0.324   1.738   3.419 -0.1663  1.1718  1.1328
   97SAPC   C37 9600  -0.172   1.694   3.564 -0.3967  0.0395  0.2639
   97SAPC   H7X 9601  -0.063   1.676   3.557 -0.4943 -1.3838  1.7692
   97SAPC   H7Y 9602  -0.214   1.605   3.615  1.6942 -0.6208  0.9434
   97SAPC   C38 9603  -0.193   1.821   3.640  0.7186  0.0993 -0.0653
   97SAPC   H8X 9604  -0.304   1.835   3.640  0.7910  0.7956 -1.3824
   97SAPC   H8Y 9605  -0.152   1.910   3.588 -0.6164  2.8445  3.2038
   97SAPC   C39 9606  -0.142   1.838   3.783 -0.0508  0.1827  0.4933
   97SAPC   H9X 9607  -0.183   1.935   3.819  1.8077  0.8338  0.9330
   97SAPC   H9Y 9608  -0.032   1.829   3.787 -0.1392 -0.5202  2.3592
   97SAPC  C310 9609  -0.187   1.726   3.877  0.3682 -0.3023  1.1871
   97SAPC  H10X 9610  -0.140   1.634   3.836 -0.0930  0.3437 -0.9517
   97SAPC  H10Y 9611  -0.297   1.709   3.869  0.6932 -2.3453  0.4870
   97SAPC  C311 9612  -0.142   1.748   4.022  0.2800  0.6835  0.2139
   97SAPC  H11X 9613  -0.205   1.822   4.076  2.2515  0.5923  2.8443
   97SAPC  H11Y 9614  -0.043   1.796   4.024  0.4367  0.3795 -0.0636
   97SAPC  C312 9615  -0.121   1.613   4.102  0.8652 -0.0383 -0.0399
   97SAPC  H12X 9616  -0.054   1.547   4.044 -2.3564 -1.6569 -2.2300
   97SAPC  H12Y 9617  -0.216   1.555   4.107  1.1396 -0.3976  3.9716
   97SAPC  C313 9618  -0.056   1.628   4.242 -0.0589 -0.4001 -0.1627
   97SAPC  H13X 9619   0.019   1.709   4.232 -1.2906  0.5965 -1.8361
   97SAPC  H13Y 9620  -0.010   1.530   4.265 -1.4972 -1.7410 -2.5449
   97SAPC  C314 9621  -0.170   1.679   4.332  0.2615  0.6406 -0.6315
   97SAPC  H14X 9622  -0.246   1.601   4.314  1.1147  0.3225 -3.1805
   97SAPC  H14Y 9623  -0.211   1.771   4.286  1.0147  0.2339 -2.1628
   97SAPC  C315 9624  -0.125   1.679   4.478 -0.3393 -0.1537  0.3064
   97SAPC  H15X 9625  -0.049   1.760   4.480 -2.0253  1.5874 -1.4115
   97SAPC  H15Y 9626  -0.086   1.577   4.495  0.8247  0.0534 -0.9696
   97SAPC  C316 9627  -0.246   1.704   4.569  0.1198  0.3275 -0.2543
   97SAPC  H16X 9628  -0.311   1.616   4.549 -0.8431  0.9396  0.1277
   97SAPC  H16Y 9629  -0.308   1.791   4.538 -0.0577  0.6035  0.8500
   97SAPC  C317 9630  -0.215   1.721   4.714  0.7668 -0.1106  0.2132
   97SAPC  H17X 9631  -0.127   1.664   4.751  0.8974  1.3123  2.2582
   97SAPC  H17Y 9632  -0.300   1.680   4.772 -0.8192 -1.4382 -2.8033
   97SAPC  C318 9633  -0.203   1.869   4.743 -0.3051 -0.1658 -0.1401
   97SAPC  H18X 9634  -0.150   1.919   4.659  1.0685  0.2206  0.9096
   97SAPC  H18Y 9635  -0.155   1.881   4.842 -2.2280 -1.5213  1.0155
   97SAPC  H18Z 9636  -0.305   1.911   4.738  0.9063  3.5666  2.6826
   98SAPC     N 9637   4.040   4.329   2.464 -0.2526  0.0868  0.0364
   98SAPC   C12 9638   4.154   4.329   2.561  0.3901 -0.3471 -0.4790
   98SAPC  H12A 9639   4.203   4.233   2.552 -0.9609 -1.0493 -0.8033
   98SAPC  H12B 9640   4.115   4.326   2.662 -1.0508 -1.1748 -1.0172
   98SAPC   C13 9641   3.937   4.220   2.485 -0.0460  0.0128 -0.3168
   98SAPC  H13A 9642   3.977   4.120   2.482  2.4857  0.9817 -1.7923
   98SAPC  H13B 9643   3.888   4.235   2.580  1.2782 -1.3062  0.6384
   98SAPC  H13C 9644   3.861   4.211   2.410 -1.5772 -1.5298  1.3159
   98SAPC   C14 9645   3.972   4.465   2.468 -0.3275  0.4050  0.4338
   98SAPC  H14A 9646   3.949   4.489   2.571 -1.0600 -0.2642  0.4387
   98SAPC  H14B 9647   4.031   4.545   2.428  1.1359 -0.0970  1.4911
   98SAPC  H14C 9648   3.883   4.470   2.408 -0.3579  0.8440  0.5122
   98SAPC   C15 9649   4.086   4.302   2.327  0.1708 -0.0290  0.4473
   98SAPC  H15A 9650   4.151   4.378   2.286  2.1145 -1.6090  0.4814
   98SAPC  H15B 9651   4.139   4.209   2.317  0.6890  0.3607 -0.5758
   98SAPC  H15C 9652   4.007   4.291   2.253 -0.2411  0.2807  0.8335
   98SAPC   C11 9653   4.267   4.433   2.557  0.3540  0.0031 -0.5129
   98SAPC  H11A 9654   4.337   4.395   2.635 -1.4489  0.8226  1.5972
   98SAPC  H11B 9655   4.225   4.531   2.585  1.1854 -0.4739  2.7815
   98SAPC     P 9656   4.462   4.335   2.404 -0.3343  0.2131  0.3802
   98SAPC   O13 9657   4.449   4.264   2.277 -0.1425 -0.3458  0.3505
   98SAPC   O14 9658   4.588   4.407   2.424 -0.1001 -0.4666  0.0471
   98SAPC   O12 9659   4.337   4.431   2.424  0.4044  0.0043 -1.1682
   98SAPC   O11 9660   4.438   4.223   2.518  0.2248  0.0294 -0.1382
   98SAPC    C1 9661   4.485   4.094   2.481 -0.1159 -0.8185  0.2441
   98SAPC    HA 9662   4.418   4.043   2.409 -0.1520 -0.3296 -0.0700
   98SAPC    HB 9663   4.577   4.096   2.419 -0.8963  0.5462 -0.9027
   98SAPC    C2 9664   4.512   4.005   2.604  0.2323  0.7694 -0.2554
   98SAPC    HS 9665   4.536   3.902   2.568  0.7955  1.1242 -0.9113
   98SAPC   O21 9666   4.398   4.008   2.698 -0.2982 -0.0542  0.1517
   98SAPC   C21 9667   4.372   3.898   2.759  0.5526  0.3932  0.4419
   98SAPC   O22 9668   4.423   3.791   2.740 -0.2245  0.6075  0.0625
   98SAPC   C22 9669   4.264   3.916   2.867 -0.0028 -0.3307 -0.0282
   98SAPC   H2R 9670   4.244   4.024   2.887 -0.7791 -0.8816  2.5079
   98SAPC   H2S 9671   4.178   3.853   2.839 -1.2280  1.1366  0.3157
   98SAPC    C3 9672   4.650   4.041   2.678 -0.2758  0.1531 -0.3956
   98SAPC    HX 9673   4.652   4.145   2.716  0.1591  0.0716 -0.1796
   98SAPC    HY 9674   4.728   4.036   2.599 -0.8889  1.9794 -1.1599
   98SAPC   O31 9675   4.669   3.954   2.787 -0.2407  0.0272  0.8064
   98SAPC   C31 9676   4.736   3.841   2.765 -0.6098 -0.0093 -0.2077
   98SAPC   O32 9677   4.772   3.798   2.658 -0.0473  0.1288 -0.1821
   98SAPC   C32 9678   4.769   3.779   2.901 -0.2804  0.8127  0.2827
   98SAPC   H2X 9679   4.841   3.841   2.959  1.0779  1.4543 -1.9468
   98SAPC   H2Y 9680   4.824   3.684   2.885  0.1230  1.1394 -0.3176
   98SAPC   C23 9681   4.311   3.862   3.005  0.2514 -0.2141 -0.2255
   98SAPC   H3R 9682   4.411   3.901   3.036 -0.5462  0.9876  0.9487
   98SAPC   H3S 9683   4.322   3.753   2.991 -2.2954 -0.5439 -0.0937
   98SAPC   C24 9684   4.221   3.895   3.123  0.1059  0.0944 -0.4877
   98SAPC   H4R 9685   4.216   4.004   3.142  2.1821 -0.1665  2.3149
   98SAPC   H4S 9686   4.272   3.849   3.211 -2.0531 -1.6887 -0.0759
   98SAPC   C25 9687   4.073   3.855   3.097  0.0397 -0.6628  0.1599
   98SAPC   H5R 9688   4.025   3.906   3.012 -0.3009  2.4551  2.0636
   98SAPC   C26 9689   4.012   3.744   3.155 -0.4043 -0.3736 -0.0031
   98SAPC   H6R 9690   3.906   3.725   3.135 -0.2606  0.0387 -1.2626
   98SAPC   C27 9691   4.079   3.669   3.266  0.2163 -0.0823  0.1024
   98SAPC   H7R 9692   4.182   3.646   3.230  0.6616  0.5931  0.9240
   98SAPC   H7S 9693   4.030   3.569   3.268 -1.0050  0.5093  0.9541
   98SAPC   C28 9694   4.089   3.728   3.405 -0.2630  0.5872 -0.0942
   98SAPC   H8R 9695   4.168   3.805   3.413 -0.4998  0.6792  1.7730
   98SAPC   C29 9696   4.036   3.683   3.518 -0.3010  0.4150 -0.7878
   98SAPC   H9R 9697   4.061   3.731   3.614  0.1331  0.2958 -0.8381
   98SAPC  C210 9698   3.926   3.586   3.534 -0.4156 -0.1663 -0.7804
   98SAPC  H10R 9699   3.975   3.496   3.577  0.8402  0.1166 -1.5563
   98SAPC  H10S 9700   3.881   3.555   3.437 -0.4646  0.7102 -1.0483
   98SAPC  C211 9701   3.815   3.626   3.629 -0.1168  0.7956 -0.0980
   98SAPC  H11R 9702   3.719   3.641   3.578 -0.3355 -2.6309 -0.9950
   98SAPC  C212 9703   3.814   3.640   3.764 -0.5498 -0.5223 -0.3884
   98SAPC  H12R 9704   3.721   3.658   3.820 -0.5293 -2.1017  0.2143
   98SAPC  C213 9705   3.925   3.621   3.867  0.8889  0.1968  0.0725
   98SAPC  H13R 9706   4.000   3.547   3.833  0.3963 -0.0312 -0.5402
   98SAPC  H13S 9707   3.871   3.583   3.956  1.6282  2.1301  1.4077
   98SAPC  C214 9708   3.996   3.743   3.925  0.4176  0.0284 -0.2191
   98SAPC  H14R 9709   3.978   3.839   3.875  1.8380  1.2107  1.4514
   98SAPC  C215 9710   4.090   3.740   4.018  0.3332 -0.1990 -0.3211
   98SAPC  H15R 9711   4.139   3.832   4.052  0.0751 -0.0472 -0.3602
   98SAPC  C216 9712   4.141   3.620   4.099  0.3311  0.0325  0.2888
   98SAPC  H16R 9713   4.106   3.525   4.054 -0.0425  0.6302 -0.7287
   98SAPC  H16S 9714   4.081   3.609   4.192 -3.0761 -0.0029 -1.7619
   98SAPC  C217 9715   4.289   3.607   4.136 -0.2354 -1.1039 -0.8180
   98SAPC  H17R 9716   4.327   3.704   4.176  0.9469 -0.9454 -2.2395
   98SAPC  H17S 9717   4.350   3.597   4.044 -1.9955 -1.6797 -1.9719
   98SAPC  C218 9718   4.322   3.499   4.241  0.2493 -0.8736  0.2248
   98SAPC  H18R 9719   4.255   3.513   4.328 -1.6959 -2.4622 -0.9260
   98SAPC  H18S 9720   4.422   3.521   4.283 -0.2795  2.2977  0.1141
   98SAPC  C219 9721   4.332   3.350   4.188 -0.0416 -0.2510  0.2693
   98SAPC  H19R 9722   4.236   3.329   4.136 -1.0139  4.7381 -0.4867
   98SAPC  H19S 9723   4.349   3.286   4.277  1.9669  1.0497  0.8959
   98SAPC  C220 9724   4.442   3.328   4.087  0.0757 -0.0524  0.1186
   98SAPC  H20R 9725   4.417   3.382   3.993 -1.9869 -0.5390  0.3272
   98SAPC  H20S 9726   4.459   3.221   4.061  0.9653 -0.1625  1.0998
   98SAPC  H20T 9727   4.539   3.371   4.119  0.0627 -0.5228  0.8164
   98SAPC   C33 9728   4.643   3.747   2.977 -0.3109 -0.6126  0.6208
   98SAPC   H3X 9729   4.576   3.684   2.915 -0.9067  0.7587 -0.1641
   98SAPC   H3Y 9730   4.595   3.846   2.988  1.1034  0.1573  0.0502
   98SAPC   C34 9731   4.679   3.677   3.109 -0.3100  0.5955 -0.1565
   98SAPC   H4X 9732   4.750   3.743   3.163  1.4534 -0.4401 -1.1100
   98SAPC   H4Y 9733   4.724   3.576   3.096  0.9439  1.2218 -0.8873
   98SAPC   C35 9734   4.553   3.675   3.196  0.2196  0.1352  0.1255
   98SAPC   H5X 9735   4.475   3.618   3.140  0.1201  1.0668 -0.7067
   98SAPC   H5Y 9736   4.526   3.781   3.217 -1.9966 -0.0007 -1.6381
   98SAPC   C36 9737   4.587   3.609   3.328  0.0140  0.4908 -0.4328
   98SAPC   H6X 9738   4.679   3.662   3.359  0.5141 -0.2330 -0.6361
   98SAPC   H6Y 9739   4.610   3.502   3.304 -0.8378  0.0842  0.5217
   98SAPC   C37 9740   4.467   3.619   3.434 -0.1044  0.8163 -0.1045
   98SAPC   H7X 9741   4.374   3.588   3.384 -2.2499  1.5405  3.1196
   98SAPC   H7Y 9742   4.448   3.722   3.471 -0.6619  0.9541 -0.7595
   98SAPC   C38 9743   4.498   3.529   3.559  0.1908 -0.0634 -0.0713
   98SAPC   H8X 9744   4.533   3.428   3.529  0.2590  0.4405 -1.7709
   98SAPC   H8Y 9745   4.410   3.525   3.627  1.5082  1.1099  1.7947
   98SAPC   C39 9746   4.608   3.582   3.647  0.4900 -0.3647 -0.3409
   98SAPC   H9X 9747   4.604   3.693   3.649 -2.4685 -0.3893 -0.7767
   98SAPC   H9Y 9748   4.705   3.546   3.606 -0.1856 -1.7456 -0.7965
   98SAPC  C310 9749   4.598   3.544   3.799 -0.4366  0.0238 -0.0873
   98SAPC  H10X 9750   4.583   3.434   3.799 -1.8525  0.1991 -0.1487
   98SAPC  H10Y 9751   4.498   3.582   3.827 -1.5260 -1.6912 -1.4705
   98SAPC  C311 9752   4.706   3.596   3.896  0.1990 -0.4806  0.9779
   98SAPC  H11X 9753   4.780   3.652   3.835 -2.4689 -0.6670 -2.7898
   98SAPC  H11Y 9754   4.755   3.504   3.933  0.7095 -0.1146  1.2131
   98SAPC  C312 9755   4.649   3.661   4.019  0.1343  0.5322 -0.8802
   98SAPC  H12X 9756   4.569   3.597   4.063  2.0080 -1.4933 -0.2529
   98SAPC  H12Y 9757   4.582   3.744   3.989  0.5397  0.3820 -2.2704
   98SAPC  C313 9758   4.751   3.686   4.128 -0.0684  0.3192 -0.5372
   98SAPC  H13X 9759   4.711   3.766   4.194  0.1154  0.7138 -0.8963
   98SAPC  H13Y 9760   4.845   3.722   4.082  0.3811 -1.7319 -1.3614
   98SAPC  C314 9761   4.782   3.562   4.212 -0.3255  0.0457 -0.3654
   98SAPC  H14X 9762   4.828   3.483   4.150  0.7574  1.2178 -1.1169
   98SAPC  H14Y 9763   4.689   3.520   4.256  0.7640 -1.0675  0.9802
   98SAPC  C315 9764   4.862   3.595   4.331 -1.0200 -0.7292 -0.0008
   98SAPC  H15X 9765   4.851   3.523   4.415 -2.9413 -0.8942 -0.3484
   98SAPC  H15Y 9766   4.826   3.689   4.376  1.6021  1.2535 -1.7475
   98SAPC  C316 9767   5.017   3.601   4.297  0.0229  0.3220  0.6997
   98SAPC  H16X 9768   5.025   3.669   4.210 -1.1596  2.5713  2.2497
   98SAPC  H16Y 9769   5.065   3.501   4.287 -2.0884 -0.6955  0.2098
   98SAPC  C317 9770   5.090   3.675   4.409 -0.5987  0.5475 -0.1132
   98SAPC  H17X 9771   5.057   3.627   4.504  0.4193  0.4709  0.2157
   98SAPC  H17Y 9772   5.057   3.780   4.407  0.9309  1.0689 -2.1517
   98SAPC  C318 9773   5.243   3.683   4.390 -0.0202  0.0224 -0.0169
   98SAPC  H18X 9774   5.299   3.588   4.381  1.1680  0.8325 -1.9327
   98SAPC  H18Y 9775   5.287   3.735   4.477 -0.0177  1.9696 -1.1215
   98SAPC  H18Z 9776   5.270   3.730   4.293  1.6864  0.2759  0.5564
   99SAPC     N 9777   1.944   6.155   2.428  0.0514 -0.2081  0.1621
   99SAPC   C12 9778   1.855   6.280   2.417 -0.5759 -0.0010 -0.4943
   99SAPC  H12A 9779   1.762   6.240   2.454  0.6828  0.0799  3.0524
   99SAPC  H12B 9780   1.831   6.305   2.314 -0.2094 -0.2826 -0.6483
   99SAPC   C13 9781   1.896   6.051   2.328  0.5362 -0.3250 -0.5341
   99SAPC  H13A 9782   1.962   6.065   2.244  3.3382 -1.9913  1.1842
   99SAPC  H13B 9783   1.910   5.947   2.354 -0.1191 -0.8173 -2.0953
   99SAPC  H13C 9784   1.790   6.066   2.317 -0.5062  0.1697  5.8961
   99SAPC   C14 9785   2.084   6.187   2.397 -0.3146 -0.1663 -0.1657
   99SAPC  H14A 9786   2.145   6.099   2.380  1.9519  1.0673  1.1368
   99SAPC  H14B 9787   2.103   6.254   2.314 -2.7563 -0.0935 -0.7232
   99SAPC  H14C 9788   2.137   6.235   2.478  1.6867 -0.3214 -1.3051
   99SAPC   C15 9789   1.944   6.099   2.568  0.6748  0.7853 -0.1596
   99SAPC  H15A 9790   2.016   6.021   2.586 -1.7677 -1.4108  0.7194
   99SAPC  H15B 9791   1.966   6.176   2.640  0.6621 -1.2421  2.1283
   99SAPC  H15C 9792   1.844   6.064   2.590  0.2187  2.3085  0.3824
   99SAPC   C11 9793   1.896   6.402   2.508 -0.4897  0.2360  0.9690
   99SAPC  H11A 9794   1.807   6.467   2.495 -1.1450 -1.1024 -2.5510
   99SAPC  H11B 9795   1.982   6.457   2.464 -1.0219  1.4552  1.4027
   99SAPC     P 9796   1.792   6.350   2.734  0.5021  0.3052 -0.0251
   99SAPC   O13 9797   1.699   6.262   2.660  0.6652 -0.0618  0.1907
   99SAPC   O14 9798   1.844   6.298   2.865 -0.3623 -0.5001  0.3605
   99SAPC   O12 9799   1.919   6.377   2.643 -0.5549  0.4830 -0.4002
   99SAPC   O11 9800   1.726   6.499   2.751 -0.7358  0.0154 -0.4265
   99SAPC    C1 9801   1.818   6.608   2.758  0.1628 -0.8608 -0.0638
   99SAPC    HA 9802   1.899   6.607   2.682  0.4316 -0.6354  0.2183
   99SAPC    HB 9803   1.759   6.702   2.765 -0.4073 -1.3221  2.1197
   99SAPC    C2 9804   1.904   6.613   2.889  0.0002 -0.1423 -0.6941
   99SAPC    HS 9805   1.978   6.530   2.885 -0.2138 -0.3970  0.2610
   99SAPC   O21 9806   1.812   6.584   2.996  0.2302 -0.9446  0.4708
   99SAPC   C21 9807   1.863   6.518   3.104  0.2664 -0.4738 -0.0357
   99SAPC   O22 9808   1.982   6.497   3.121  0.4464 -0.6670  0.6385
   99SAPC   C22 9809   1.753   6.471   3.205 -0.3347 -0.4251  0.2885
   99SAPC   H2R 9810   1.664   6.530   3.172 -0.3315 -0.7393 -0.2965
   99SAPC   H2S 9811   1.734   6.363   3.187 -0.0242 -0.6595  1.3143
   99SAPC    C3 9812   1.986   6.751   2.903 -0.2369  0.4187  0.7727
   99SAPC    HX 9813   1.919   6.840   2.904 -0.4116  0.2924  0.4538
   99SAPC    HY 9814   2.043   6.740   2.808  0.0495 -0.2237  1.0164
   99SAPC   O31 9815   2.083   6.747   3.005  0.0516 -0.2892  0.4788
   99SAPC   C31 9816   2.046   6.782   3.130 -0.0395  0.0930 -0.0076
   99SAPC   O32 9817   1.929   6.806   3.158 -0.3396  0.1733  1.0395
   99SAPC   C32 9818   2.168   6.762   3.229  0.1597 -0.0794  0.4789
   99SAPC   H2X 9819   2.263   6.764   3.173 -0.8442  1.6351 -1.3067
   99SAPC   H2Y 9820   2.160   6.665   3.284 -0.7771 -0.6812 -0.6761
   99SAPC   C23 9821   1.807   6.499   3.348 -0.2073  0.8533  0.1716
   99SAPC   H3R 9822   1.827   6.608   3.344 -1.4919  1.2095  2.0624
   99SAPC   H3S 9823   1.908   6.465   3.378 -0.1226  2.0277  1.3155
   99SAPC   C24 9824   1.703   6.480   3.458 -0.2101  0.4011  0.1007
   99SAPC   H4R 9825   1.617   6.538   3.417 -1.1733 -0.4941  0.8063
   99SAPC   H4S 9826   1.744   6.537   3.544 -2.7281  1.8559  0.4239
   99SAPC   C25 9827   1.656   6.339   3.482 -0.4339 -0.4857 -0.3615
   99SAPC   H5R 9828   1.635   6.283   3.390 -2.0727 -1.0096  0.2961
   99SAPC   C26 9829   1.645   6.281   3.598  0.5045  0.4097 -0.3224
   99SAPC   H6R 9830   1.631   6.172   3.596  0.7437  0.3871 -0.9671
   99SAPC   C27 9831   1.675   6.341   3.733 -1.0239 -0.8180 -0.3972
   99SAPC   H7R 9832   1.611   6.430   3.751  1.6558  1.0494  0.5695
   99SAPC   H7S 9833   1.773   6.393   3.726 -0.6626 -1.6561 -1.8128
   99SAPC   C28 9834   1.689   6.254   3.857 -0.5016  0.0420  0.4547
   99SAPC   H8R 9835   1.763   6.173   3.847 -0.5961  0.1483 -1.4435
   99SAPC   C29 9836   1.652   6.291   3.976  0.4356 -0.6527 -0.0473
   99SAPC   H9R 9837   1.663   6.219   4.059 -1.1512 -1.7426 -0.7329
   99SAPC  C210 9838   1.568   6.415   4.003 -0.3871 -0.1254 -0.3021
   99SAPC  H10R 9839   1.463   6.396   3.972  0.3529  1.7503 -4.5779
   99SAPC  H10S 9840   1.599   6.504   3.945  0.4542 -2.0990 -3.1349
   99SAPC  C211 9841   1.591   6.442   4.152 -0.2771 -0.4186  0.3716
   99SAPC  H11R 9842   1.677   6.506   4.177 -1.0598  0.2622  1.3976
   99SAPC  C212 9843   1.538   6.383   4.264  0.3814  0.0916 -0.0864
   99SAPC  H12R 9844   1.568   6.418   4.364  2.5239 -3.0211  0.4947
   99SAPC  C213 9845   1.435   6.269   4.253  0.0823 -0.1041  0.0876
   99SAPC  H13R 9846   1.478   6.188   4.317  0.7326  0.5981  0.5607
   99SAPC  H13S 9847   1.439   6.227   4.150 -1.6569  0.8215 -0.4004
   99SAPC  C214 9848   1.289   6.296   4.299 -0.0812  0.1018  1.3337
   99SAPC  H14R 9849   1.212   6.264   4.228  0.6549  1.7285 -0.2865
   99SAPC  C215 9850   1.249   6.349   4.415 -0.6113  0.6583 -0.3292
   99SAPC  H15R 9851   1.141   6.347   4.436 -0.2112 -2.0791  2.2072
   99SAPC  C216 9852   1.337   6.397   4.531  0.3983 -0.5269  0.1996
   99SAPC  H16R 9853   1.440   6.359   4.515  1.2315  1.6779 -0.1266
   99SAPC  H16S 9854   1.296   6.359   4.627  0.3645 -0.9598  0.0139
   99SAPC  C217 9855   1.341   6.551   4.542 -0.1679 -0.7446 -0.2269
   99SAPC  H17R 9856   1.250   6.594   4.590 -0.4491  0.6618 -1.9260
   99SAPC  H17S 9857   1.330   6.597   4.442 -0.1362 -0.9578 -0.3292
   99SAPC  C218 9858   1.461   6.604   4.610 -0.0976  0.4946 -0.7049
   99SAPC  H18R 9859   1.453   6.714   4.605 -0.3019  0.4852 -0.5449
   99SAPC  H18S 9860   1.531   6.559   4.536  2.3937 -0.7220  2.1559
   99SAPC  C219 9861   1.488   6.550   4.749  0.4498 -0.2820 -0.3409
   99SAPC  H19R 9862   1.533   6.451   4.727  1.2236  0.1279 -0.6007
   99SAPC  H19S 9863   1.394   6.531   4.807  0.2430  1.6938  0.0328
   99SAPC  C220 9864   1.582   6.629   4.835 -0.2034  0.8461 -0.1331
   99SAPC  H20R 9865   1.684   6.643   4.796 -0.5734 -0.4507 -1.7093
   99SAPC  H20S 9866   1.585   6.585   4.937  0.8926 -4.1890 -2.0183
   99SAPC  H20T 9867   1.534   6.729   4.837  0.3522  1.0986  0.8831
   99SAPC   C33 9868   2.170   6.873   3.343  0.0560 -0.1617  0.4974
   99SAPC   H3X 9869   2.081   6.856   3.406 -0.2538 -1.3615 -0.2425
   99SAPC   H3Y 9870   2.168   6.973   3.293  1.1605 -0.7287 -0.7671
   99SAPC   C34 9871   2.294   6.882   3.439  0.2106  0.5440 -0.2781
   99SAPC   H4X 9872   2.387   6.900   3.381  0.2494  1.1671 -0.0346
   99SAPC   H4Y 9873   2.310   6.786   3.492  0.7527  1.0614  0.5231
   99SAPC   C35 9874   2.283   7.004   3.537 -0.3089 -0.1793  0.0691
   99SAPC   H5X 9875   2.192   7.063   3.513 -1.6560 -0.6749  3.3929
   99SAPC   H5Y 9876   2.378   7.057   3.515  2.0284 -3.1847  2.1088
   99SAPC   C36 9877   2.265   6.973   3.688 -0.4732 -1.0776  0.2576
   99SAPC   H6X 9878   2.352   6.909   3.715  0.7651  1.0635  1.6018
   99SAPC   H6Y 9879   2.177   6.908   3.706 -0.5614 -1.1471 -0.3754
   99SAPC   C37 9880   2.283   7.097   3.782  0.0770  0.2553  0.5368
   99SAPC   H7X 9881   2.212   7.174   3.747 -1.7741 -1.2399  0.8681
   99SAPC   H7Y 9882   2.386   7.135   3.765 -0.4897  0.9907 -1.5544
   99SAPC   C38 9883   2.252   7.070   3.928  0.1726  0.8831 -0.0576
   99SAPC   H8X 9884   2.147   7.034   3.936 -0.2189  2.2166  1.2020
   99SAPC   H8Y 9885   2.249   7.163   3.988 -1.4865 -1.4118  3.8026
   99SAPC   C39 9886   2.345   6.971   3.993  0.1195  0.3560 -0.5145
   99SAPC   H9X 9887   2.452   7.002   3.997 -0.0115  0.8700 -0.9280
   99SAPC   H9Y 9888   2.351   6.872   3.942  3.6860 -0.1658  0.6112
   99SAPC  C310 9889   2.310   6.931   4.129  0.4766  0.5985  0.4428
   99SAPC  H10X 9890   2.200   6.916   4.138  0.6803  0.3669  3.2021
   99SAPC  H10Y 9891   2.343   7.018   4.191  0.3122  0.2890  0.9660
   99SAPC  C311 9892   2.388   6.808   4.174  0.1006  0.8947  0.0606
   99SAPC  H11X 9893   2.497   6.824   4.159  0.7164 -2.7422 -0.1492
   99SAPC  H11Y 9894   2.351   6.714   4.127 -2.4849  1.5454  0.6528
   99SAPC  C312 9895   2.375   6.776   4.329 -0.2454 -0.2381 -0.2838
   99SAPC  H12X 9896   2.277   6.783   4.380 -0.2498 -3.8060  0.4719
   99SAPC  H12Y 9897   2.430   6.861   4.373 -1.9612  1.2308 -0.8521
   99SAPC  C313 9898   2.439   6.649   4.376 -1.0346  0.2660 -0.1290
   99SAPC  H13X 9899   2.543   6.642   4.337 -1.0336  1.0505 -0.2861
   99SAPC  H13Y 9900   2.374   6.563   4.348 -0.7511 -0.2798  0.8280
   99SAPC  C314 9901   2.444   6.639   4.524 -0.5137  0.5068 -0.8266
   99SAPC  H14X 9902   2.516   6.722   4.546 -0.1096 -0.3850  1.5512
   99SAPC  H14Y 9903   2.493   6.540   4.535  0.0423  0.3098 -4.1121
   99SAPC  C315 9904   2.316   6.641   4.605  0.2351  0.0551  0.2534
   99SAPC  H15X 9905   2.244   6.560   4.580  0.9728 -1.0534  1.5648
   99SAPC  H15Y 9906   2.268   6.738   4.581  1.5367  0.3170 -1.4356
   99SAPC  C316 9907   2.335   6.629   4.755 -0.1046 -0.1356 -0.3420
   99SAPC  H16X 9908   2.416   6.699   4.784 -1.1407  1.2510 -0.6479
   99SAPC  H16Y 9909   2.359   6.526   4.788 -2.2536 -0.5881 -0.0702
   99SAPC  C317 9910   2.207   6.671   4.828  0.3858 -0.6568  0.4793
   99SAPC  H17X 9911   2.214   6.650   4.937 -0.7957 -1.6643  0.3748
   99SAPC  H17Y 9912   2.128   6.599   4.799  0.3970 -1.3289  2.0708
   99SAPC  C318 9913   2.143   6.809   4.803  0.2530  0.1694 -0.8631
   99SAPC  H18X 9914   2.046   6.829   4.853  0.3479 -0.4278 -0.4247
   99SAPC  H18Y 9915   2.138   6.836   4.695 -1.0961  0.2637 -0.7892
   99SAPC  H18Z 9916   2.205   6.887   4.853  1.3587 -0.6473 -0.9095
  100SAPC     N 9917   0.932   5.667   3.429 -0.3124  0.3930 -0.0661
  100SAPC   C12 9918   0.958   5.565   3.319  0.3150  0.7094 -0.0432
  100SAPC  H12A 9919   1.004   5.615   3.235  0.4237  0.8975  0.1272
  100SAPC  H12B 9920   0.864   5.533   3.276  0.9636  0.5446 -1.3855
  100SAPC   C13 9921   0.849   5.782   3.367 -0.5823  0.1689 -0.6835
  100SAPC  H13A 9922   0.831   5.849   3.450 -0.9864  0.2414 -0.8288
  100SAPC  H13B 9923   0.895   5.842   3.289  0.7667  0.9903  0.6802
  100SAPC  H13C 9924   0.760   5.742   3.321  0.1167 -1.1934 -0.9036
  100SAPC   C14 9925   0.846   5.609   3.541  0.6687 -0.0856 -0.5022
  100SAPC  H14A 9926   0.823   5.682   3.617 -0.4325 -0.4891 -0.4256
  100SAPC  H14B 9927   0.755   5.572   3.495  0.5069  2.4388 -2.4888
  100SAPC  H14C 9928   0.905   5.528   3.580 -0.1480 -1.7068 -2.4667
  100SAPC   C15 9929   1.055   5.730   3.486 -0.3815 -0.4837 -0.5005
  100SAPC  H15A 9930   1.029   5.792   3.571 -0.9713 -1.8535  0.3488
  100SAPC  H15B 9931   1.131   5.658   3.511 -2.1183 -2.3931 -0.4846
  100SAPC  H15C 9932   1.106   5.792   3.414 -1.7939  1.5069  0.1071
  100SAPC   C11 9933   1.036   5.437   3.354 -0.2699 -0.4262 -0.0524
  100SAPC  H11A 9934   0.958   5.367   3.388 -1.3601  1.1157  0.7659
  100SAPC  H11B 9935   1.115   5.460   3.429 -1.2760  2.7889  0.1831
  100SAPC     P 9936   1.241   5.404   3.204 -0.2642 -0.1850 -0.1040
  100SAPC   O13 9937   1.278   5.312   3.089  0.0411 -0.4201 -0.0129
  100SAPC   O14 9938   1.268   5.548   3.181 -0.3096 -0.0617 -0.1960
  100SAPC   O12 9939   1.090   5.391   3.229 -0.1056  0.4978  0.0994
  100SAPC   O11 9940   1.315   5.356   3.331  0.4435 -0.1489  0.1507
  100SAPC    C1 9941   1.365   5.223   3.346 -0.2371 -0.3101  0.5117
  100SAPC    HA 9942   1.350   5.157   3.258  2.0607 -0.4704  0.1790
  100SAPC    HB 9943   1.474   5.224   3.368  0.2965  0.5148 -1.8114
  100SAPC    C2 9944   1.293   5.150   3.467  0.9549  0.9901 -0.7537
  100SAPC    HS 9945   1.343   5.055   3.497  1.1547  1.1379 -0.6226
  100SAPC   O21 9946   1.161   5.119   3.421  0.3362 -0.3041  0.0576
  100SAPC   C21 9947   1.155   5.010   3.346 -0.6427  0.8047  0.3219
  100SAPC   O22 9948   1.248   4.933   3.317  0.2982 -0.4556 -0.1847
  100SAPC   C22 9949   1.007   4.981   3.312 -0.4020  0.3500 -0.3286
  100SAPC   H2R 9950   0.942   5.069   3.333 -1.4310  0.3591 -3.1338
  100SAPC   H2S 9951   1.004   4.973   3.202  1.8957 -0.5427 -0.3705
  100SAPC    C3 9952   1.268   5.233   3.594  0.1889 -0.0908 -0.3017
  100SAPC    HX 9953   1.214   5.323   3.558  0.1772 -0.3897 -1.0494
  100SAPC    HY 9954   1.363   5.261   3.643  1.8115 -1.7015 -2.3572
  100SAPC   O31 9955   1.184   5.173   3.694  0.2094 -0.0183  0.0537
  100SAPC   C31 9956   1.235   5.063   3.745  0.4578 -0.8900  0.5034
  100SAPC   O32 9957   1.340   5.011   3.714 -0.5064 -0.1769 -0.8772
  100SAPC   C32 9958   1.143   5.006   3.861 -0.5571 -0.6096  0.6753
  100SAPC   H2X 9959   1.085   4.920   3.821  0.6922 -1.2906  0.2403
  100SAPC   H2Y 9960   1.077   5.091   3.885  0.2547  0.5083 -0.8897
  100SAPC   C23 9961   0.967   4.850   3.384  0.0473  0.5953  0.1802
  100SAPC   H3R 9962   1.028   4.768   3.342 -1.4164  0.4156 -1.7413
  100SAPC   H3S 9963   0.863   4.816   3.361  0.3854 -0.4578  0.1756
  100SAPC   C24 9964   0.963   4.875   3.535  0.9422 -0.5933  0.3762
  100SAPC   H4R 9965   0.888   4.956   3.545  0.1742 -1.4327  1.6158
  100SAPC   H4S 9966   1.053   4.929   3.570  1.5784 -0.3163 -1.5780
  100SAPC   C25 9967   0.938   4.763   3.622 -0.8539  0.1689  0.1336
  100SAPC   H5R 9968   0.998   4.672   3.604  1.1822  1.4401  0.1531
  100SAPC   C26 9969   0.841   4.760   3.714  0.2793  0.9773  0.1883
  100SAPC   H6R 9970   0.818   4.672   3.776 -0.7776  0.7864 -0.4527
  100SAPC   C27 9971   0.742   4.874   3.746 -0.4247  0.0112  0.0304
  100SAPC   H7R 9972   0.766   4.970   3.695 -2.8165  0.2757 -0.7054
  100SAPC   H7S 9973   0.752   4.898   3.854  0.9735 -0.7470  0.1022
  100SAPC   C28 9974   0.594   4.853   3.698 -0.0442 -0.4144  0.2181
  100SAPC   H8R 9975   0.586   4.794   3.605 -1.5951  0.8642 -0.5197
  100SAPC   C29 9976   0.481   4.887   3.762  0.3222  0.7841  0.1477
  100SAPC   H9R 9977   0.383   4.860   3.721  0.6904  0.3927 -0.5022
  100SAPC  C210 9978   0.458   4.959   3.893  0.2694 -0.8859 -0.5687
  100SAPC  H10R 9979   0.552   4.944   3.952  1.7566  1.2046 -2.2401
  100SAPC  H10S 9980   0.381   4.903   3.950  1.4221 -0.3302  1.6578
  100SAPC  C211 9981   0.425   5.106   3.890 -0.1325  0.9643  0.1585
  100SAPC  H11R 9982   0.460   5.156   3.799  1.2136  0.9402  0.6301
  100SAPC  C212 9983   0.389   5.182   3.994  0.4180 -0.1436 -0.0257
  100SAPC  H12R 9984   0.359   5.283   3.961  1.5377 -0.2509 -1.4786
  100SAPC  C213 9985   0.353   5.138   4.135 -0.6773 -0.4705  1.0681
  100SAPC  H13R 9986   0.424   5.182   4.209  2.5683 -0.6715 -1.6624
  100SAPC  H13S 9987   0.369   5.030   4.154 -0.1249 -0.5878  0.0466
  100SAPC  C214 9988   0.213   5.177   4.169  0.3265 -0.2731 -1.1122
  100SAPC  H14R 9989   0.144   5.091   4.176  1.5404 -1.1159  3.2043
  100SAPC  C215 9990   0.170   5.297   4.221 -0.1621  0.3081 -0.3032
  100SAPC  H15R 9991   0.063   5.301   4.245 -0.3689  0.2802 -1.1885
  100SAPC  C216 9992   0.255   5.421   4.246 -0.4775 -0.6303  0.0203
  100SAPC  H16R 9993   0.196   5.510   4.215  1.1731  0.0461 -1.2703
  100SAPC  H16S 9994   0.343   5.422   4.179  0.8459 -0.4579  1.6776
  100SAPC  C217 9995   0.300   5.436   4.389 -0.8242  0.6948 -0.5723
  100SAPC  H17R 9996   0.368   5.351   4.415 -1.8185 -0.6925 -2.2588
  100SAPC  H17S 9997   0.217   5.421   4.461 -1.5418 -1.8789 -1.7847
  100SAPC  C218 9998   0.380   5.566   4.411  0.0010 -0.3605 -0.2047
  100SAPC  H18R 9999   0.320   5.642   4.355  0.8781  1.3059  1.0255
  100SAPC  H18S10000   0.478   5.564   4.358 -0.2641 -1.4566 -0.6857
  100SAPC  C21910001   0.399   5.593   4.558 -0.9035 -1.2618 -0.3332
  100SAPC  H19R10002   0.450   5.502   4.595 -1.6344 -1.5768 -0.0723
  100SAPC  H19S10003   0.305   5.600   4.618 -0.3284  5.2421  0.5392
  100SAPC  C22010004   0.478   5.718   4.591 -0.1381 -0.4634 -0.0938
  100SAPC  H20R10005   0.421   5.809   4.564  1.2639  0.6566  0.5550
  100SAPC  H20S10006   0.571   5.722   4.530 -0.3255  1.8318 -0.2922
  100SAPC  H20T10007   0.497   5.732   4.700 -0.6011  1.5738 -0.2446
  100SAPC   C3310008   1.234   4.954   3.970  0.4121 -0.3178 -0.3903
  100SAPC   H3X10009   1.298   4.867   3.943  2.6967  0.8622  0.9690
  100SAPC   H3Y10010   1.171   4.915   4.054  0.3996 -0.5013 -0.4839
  100SAPC   C3410011   1.309   5.067   4.032 -0.7621  0.0286  0.0238
  100SAPC   H4X10012   1.250   5.148   4.079  1.9517  1.6003  0.9462
  100SAPC   H4Y10013   1.382   5.114   3.963 -0.7208 -2.6051 -1.8996
  100SAPC   C3510014   1.392   5.016   4.149 -0.4145  0.2739 -0.2883
  100SAPC   H5X10015   1.477   5.084   4.173  0.1153 -0.6253  0.4842
  100SAPC   H5Y10016   1.443   4.923   4.115 -0.4883 -0.0490  0.4544
  100SAPC   C3610017   1.312   4.982   4.280 -0.4569  0.4268  0.2228
  100SAPC   H6X10018   1.248   4.894   4.255  1.3336 -0.7371 -0.4260
  100SAPC   H6Y10019   1.239   5.064   4.293 -0.8310  0.5056 -1.9150
  100SAPC   C3710020   1.403   4.948   4.398 -0.4969  0.3334 -0.8140
  100SAPC   H7X10021   1.448   5.046   4.424 -1.0183  0.0972  1.1240
  100SAPC   H7Y10022   1.473   4.863   4.380  0.3506  0.8186  0.1012
  100SAPC   C3810023   1.326   4.902   4.530 -0.4133  0.3354 -0.3215
  100SAPC   H8X10024   1.266   4.812   4.506 -1.6944  0.8338  0.8079
  100SAPC   H8Y10025   1.252   4.982   4.553  0.7188  0.8499  1.8340
  100SAPC   C3910026   1.419   4.881   4.649 -0.2282 -0.1818 -0.5694
  100SAPC   H9X10027   1.477   4.972   4.677  0.1656 -0.2072 -1.2931
  100SAPC   H9Y10028   1.504   4.821   4.612 -0.4885 -0.5469 -0.5865
  100SAPC  C31010029   1.362   4.837   4.782 -0.1447  0.1065  0.4552
  100SAPC  H10X10030   1.298   4.748   4.761 -2.8601  1.9951  0.2209
  100SAPC  H10Y10031   1.284   4.909   4.813 -1.7469 -0.4231 -2.0412
  100SAPC  C31110032   1.462   4.794   4.896  0.9875  0.4684  0.4095
  100SAPC  H11X10033   1.560   4.768   4.850 -0.3577  1.9000 -3.6628
  100SAPC  H11Y10034   1.407   4.703   4.927  0.8196  0.9913  1.6966
  100SAPC  C31210035   1.473   4.901   5.006 -0.3752  0.1451  0.8716
  100SAPC  H12X10036   1.517   4.849   5.094  0.2833 -1.3873 -0.3133
  100SAPC  H12Y10037   1.370   4.929   5.035 -0.3843  0.6083  0.4042
  100SAPC  C31310038   1.545   5.034   4.982 -0.2796 -0.1346  0.0823
  100SAPC  H13X10039   1.507   5.092   4.895 -0.7083  0.1542  0.4588
  100SAPC  H13Y10040   1.655   5.020   4.971 -0.6191 -1.1456 -2.7742
  100SAPC  C31410041   1.532   5.130   5.105 -0.1826 -0.3417 -0.2841
  100SAPC  H14X10042   1.604   5.122   5.189 -1.2711 -1.0939  0.6094
  100SAPC  H14Y10043   1.441   5.100   5.162  1.0026 -0.8591  1.3822
  100SAPC  C31510044   1.501   5.274   5.067 -0.5172 -0.2017  0.3229
  100SAPC  H15X10045   1.461   5.312   5.163 -2.4026 -0.4179 -0.3486
  100SAPC  H15Y10046   1.423   5.287   4.990  0.9382 -1.6204 -1.4825
  100SAPC  C31610047   1.620   5.364   5.025 -0.4432 -0.0656 -1.0110
  100SAPC  H16X10048   1.634   5.344   4.917 -1.6693 -0.0426 -1.1843
  100SAPC  H16Y10049   1.700   5.327   5.092 -0.4989 -0.8566 -1.3689
  100SAPC  C31710050   1.591   5.520   5.031 -0.4449 -0.3221  0.0622
  100SAPC  H17X10051   1.596   5.544   5.140  0.7360  2.2282 -0.4748
  100SAPC  H17Y10052   1.492   5.548   4.989  0.2839  4.2893  0.8507
  100SAPC  C31810053   1.701   5.604   4.959 -0.2803 -0.3121 -0.1694
  100SAPC  H18X10054   1.708   5.575   4.852  0.7808 -1.2592  0.1321
  100SAPC  H18Y10055   1.798   5.584   5.009 -1.0170 -0.2544  1.3263
  100SAPC  H18Z10056   1.672   5.710   4.968 -2.1181 -0.6942 -1.2064
  101OSM      N10057   4.833   2.814   7.292 -0.1170  0.0609  0.6265
  101OSM    C1510058   4.903   2.831   7.420 -0.2377 -0.5504 -0.2073
  101OSM   H15A10059   4.937   2.933   7.429  3.1050 -1.6702  1.1128
  101OSM   H15B10060   4.987   2.763   7.422 -0.2663 -0.6011 -0.6185
  101OSM   H15C10061   4.836   2.806   7.501  0.9282 -0.9563  0.6571
  101OSM    C1410062   4.923   2.809   7.174  0.0764 -0.2140  0.1517
  101OSM   H14A10063   4.964   2.909   7.166 -1.2601  0.2246 -1.8656
  101OSM   H14B10064   4.861   2.809   7.086  1.9521  0.6578 -1.2483
  101OSM   H14C10065   4.990   2.726   7.155 -1.3224 -0.8494 -2.4097
  101OSM    C1310066   4.755   2.683   7.297 -0.1850 -0.1490 -0.0815
  101OSM   H13A10067   4.822   2.602   7.321  1.2486  1.4008  1.3994
  101OSM   H13B10068   4.715   2.663   7.198  1.3045 -0.9215 -0.5625
  101OSM   H13C10069   4.672   2.696   7.364  0.2394  1.3635  0.1833
  101OSM    C1210070   4.735   2.927   7.259 -0.3301  0.1895 -0.1738
  101OSM   H12A10071   4.781   3.022   7.278  0.6561 -0.2678 -0.2240
  101OSM   H12B10072   4.650   2.920   7.326  0.7277 -0.1881  1.1808
  101OSM    C1110073   4.685   2.935   7.113 -0.6266 -0.6542 -0.4594
  101OSM   H11A10074   4.641   2.838   7.081 -0.9551 -0.2536 -1.2382
  101OSM   H11B10075   4.768   2.958   7.043 -0.3147  2.2606  0.7413
  101OSM      P10076   4.632   3.191   7.086  0.1888  0.1641  0.3849
  101OSM    O1310077   4.520   3.282   7.090  0.5851  0.1641 -0.1503
  101OSM    O1410078   4.747   3.213   7.178  0.2352 -0.3904  0.1627
  101OSM    O1110079   4.684   3.197   6.934  0.4413  0.2686  0.0270
  101OSM    O1210080   4.584   3.044   7.107 -0.1498 -0.4251  0.4517
  101OSM    C1S10081   4.611   3.124   6.825  0.2297 -0.1277 -0.8698
  101OSM    H1S10082   4.535   3.190   6.777 -1.6123  0.8699  3.0506
  101OSM    H1T10083   4.559   3.035   6.866  0.6290  0.3225  0.6560
  101OSM     NF10084   4.614   2.960   6.648 -0.5306 -0.7979 -0.0419
  101OSM    HNF10085   4.645   2.868   6.672  2.4059  0.0032 -0.4315
  101OSM    C2S10086   4.692   3.059   6.720 -0.7002  0.7435 -0.4555
  101OSM    H2S10087   4.706   3.140   6.645 -0.8031  0.7783 -0.4377
  101OSM    C3S10088   4.825   3.006   6.771 -0.3870 -0.0017 -0.1966
  101OSM    H3S10089   4.794   2.918   6.831  1.7908 -0.3889  0.4648
  101OSM     O310090   4.907   3.087   6.853  0.0766 -0.1962 -0.3972
  101OSM    HO310091   4.844   3.139   6.903  0.2923 -1.8902  1.7958
  101OSM    C4S10092   4.916   2.952   6.656  0.7056 -0.2673 -0.3654
  101OSM    H4S10093   4.929   3.022   6.572 -0.9166 -2.1124 -2.2415
  101OSM    C5S10094   4.994   2.840   6.666 -0.3364 -0.3195 -0.5814
  101OSM    H5S10095   5.007   2.794   6.765  3.1766  1.7961  0.1018
  101OSM    C6S10096   5.095   2.794   6.562 -0.4760  0.6077  0.0365
  101OSM    H6S10097   5.087   2.685   6.542 -2.2729  1.2434 -3.5707
  101OSM    H6T10098   5.202   2.812   6.586 -0.0323 -0.0586 -1.3143
  101OSM    C7S10099   5.084   2.865   6.416 -0.1547  0.3307 -0.3861
  101OSM    H7S10100   5.123   2.968   6.426  2.5776 -0.6960  0.7271
  101OSM    H7T10101   4.981   2.885   6.381 -0.4494 -2.5605 -1.5192
  101OSM    C8S10102   5.167   2.797   6.300  0.2718 -0.5627  0.2147
  101OSM    H8S10103   5.145   2.689   6.292  0.1558 -0.6601  1.5572
  101OSM    H8T10104   5.275   2.802   6.325 -0.1179 -2.1599  2.5452
  101OSM    C9S10105   5.134   2.857   6.158  0.0951  0.0411  0.7929
  101OSM    H9S10106   5.147   2.967   6.171 -1.0308  0.2113  0.5499
  101OSM    H9T10107   5.025   2.846   6.142  0.4680 -2.9471 -0.3378
  101OSM   C10S10108   5.209   2.789   6.043  0.1518 -0.2483 -0.1547
  101OSM   H10S10109   5.177   2.683   6.038 -0.9851  0.1179 -1.2755
  101OSM   H10T10110   5.318   2.791   6.064 -0.3519 -1.0641  3.2817
  101OSM   C11S10111   5.172   2.841   5.905  0.2837  0.4195 -0.2799
  101OSM   H11S10112   5.214   2.941   5.887  0.9238 -0.1267 -2.0349
  101OSM   H11T10113   5.062   2.839   5.889  0.3232 -0.2195 -0.5094
  101OSM   C12S10114   5.225   2.745   5.796  0.1582 -0.8692 -0.2598
  101OSM   H12S10115   5.183   2.642   5.794  0.7643 -1.1045 -0.9632
  101OSM   H12T10116   5.329   2.725   5.828  0.0417  0.5278  1.1003
  101OSM   C13S10117   5.213   2.801   5.651 -0.5319  0.3287  0.2094
  101OSM   H13S10118   5.242   2.909   5.655  0.1074  0.1379  0.8449
  101OSM   H13T10119   5.106   2.803   5.621 -0.8383  1.7875  1.2657
  101OSM   C14S10120   5.318   2.741   5.556  0.1450  0.2422 -0.5654
  101OSM   H14S10121   5.272   2.655   5.504  0.8438  0.3091 -1.3227
  101OSM   H14T10122   5.407   2.705   5.612  1.3322  2.7187 -0.7238
  101OSM   C15S10123   5.363   2.838   5.448 -0.1783 -0.1287 -0.2808
  101OSM   H15S10124   5.469   2.813   5.422  0.5777  3.8514 -1.7797
  101OSM   H15T10125   5.369   2.939   5.492  0.4168  0.3875 -1.4777
  101OSM   C16S10126   5.282   2.834   5.322  0.8529 -0.3669 -0.7327
  101OSM   H16S10127   5.180   2.870   5.347  0.7372 -1.7322  0.9253
  101OSM   H16T10128   5.280   2.730   5.284  0.5403 -0.5385 -0.2390
  101OSM   C17S10129   5.326   2.916   5.199 -0.1675 -0.2279 -0.7681
  101OSM   H17S10130   5.426   2.886   5.160 -0.5492 -1.2549 -0.9943
  101OSM   H17T10131   5.331   3.024   5.221 -0.7583  0.2296 -2.7019
  101OSM   C18S10132   5.224   2.925   5.089  0.2096 -0.2941  0.1440
  101OSM   H18S10133   5.152   2.842   5.102 -0.2341  0.2939  1.5935
  101OSM   H18T10134   5.270   2.935   4.988  1.6000 -0.6597  0.7110
  101OSM   H18U10135   5.160   3.014   5.105  0.6471  0.0096  0.2280
  101OSM    C1F10136   4.509   2.990   6.564 -0.4994  0.0736 -0.3809
  101OSM     OF10137   4.501   3.108   6.539  0.8750 -0.3148 -0.0315
  101OSM    C2F10138   4.415   2.881   6.532 -0.3676 -0.5260  0.0628
  101OSM    H2F10139   4.407   2.817   6.623 -1.8459 -0.8647 -0.2774
  101OSM    H2G10140   4.467   2.814   6.460 -0.1449 -0.3799  0.0863
  101OSM    C3F10141   4.275   2.922   6.499  0.2228  0.2209 -0.0001
  101OSM    H3F10142   4.240   2.992   6.578  0.8115  0.2305  0.2595
  101OSM    H3G10143   4.202   2.839   6.493 -1.1829  1.3139  1.2581
  101OSM    C4F10144   4.273   2.995   6.355 -0.0315  0.3378 -0.4995
  101OSM    H4F10145   4.302   2.916   6.283 -2.5390 -0.4257 -0.7731
  101OSM    H4G10146   4.339   3.085   6.350  2.1160 -1.1941 -1.4726
  101OSM    C5F10147   4.136   3.040   6.312 -0.5101 -0.4571  0.0809
  101OSM    H5F10148   4.098   3.116   6.384  0.3017 -0.5913  0.6649
  101OSM    H5G10149   4.075   2.947   6.312  4.1424 -3.9195 -2.6412
  101OSM    C6F10150   4.137   3.104   6.167 -0.2877 -0.2097  0.0606
  101OSM    H6F10151   4.135   3.030   6.084 -2.2322  2.5330 -2.5394
  101OSM    H6G10152   4.219   3.176   6.145  0.1779 -0.5856  0.5276
  101OSM    C7F10153   4.008   3.186   6.160  1.0074  0.3522  0.4499
  101OSM    H7F10154   4.006   3.260   6.242  0.7526  0.3864  0.4139
  101OSM    H7G10155   3.922   3.118   6.178  0.9781  0.9755  2.9164
  101OSM    C8F10156   3.990   3.255   6.030  0.0778 -0.3468  0.0382
  101OSM    H8F10157   4.080   3.319   6.026  1.8231 -2.6125  0.7841
  101OSM    H8G10158   3.897   3.314   6.043  0.9656  0.8903  0.9971
  101OSM    C9F10159   3.973   3.165   5.911 -0.1120  0.2498 -0.1342
  101OSM    H9F10160   4.065   3.109   5.891  0.1999  0.8391 -0.3861
  101OSM   C10F10161   3.881   3.157   5.820 -0.8833 -0.2421 -0.6766
  101OSM   H10F10162   3.893   3.080   5.742 -1.4041  0.7931 -1.8073
  101OSM   C11F10163   3.757   3.242   5.810  0.4594  0.3073  0.2808
  101OSM   H11F10164   3.702   3.250   5.906 -0.4854  0.2018 -0.2339
  101OSM   H11G10165   3.688   3.189   5.740  1.1831 -0.7484  0.3284
  101OSM   C12F10166   3.773   3.372   5.741  0.0418 -0.1922  0.8335
  101OSM   H12F10167   3.838   3.435   5.806 -0.5794 -1.3259  2.6303
  101OSM   H12G10168   3.674   3.421   5.748 -0.6775 -1.4526 -0.1400
  101OSM   C13F10169   3.816   3.352   5.596 -0.2904  0.4594 -0.6499
  101OSM   H13F10170   3.729   3.294   5.559 -1.7451  0.7487  2.0298
  101OSM   H13G10171   3.907   3.289   5.583 -0.5263  0.0168 -0.2136
  101OSM   C14F10172   3.828   3.487   5.532  0.0427  0.2866  0.4770
  101OSM   H14F10173   3.921   3.544   5.556  1.4888 -0.3193 -3.0722
  101OSM   H14G10174   3.747   3.556   5.564 -0.0744  1.0351 -1.3028
  101OSM   C15F10175   3.826   3.469   5.378  0.2482  0.2483 -0.6003
  101OSM   H15F10176   3.753   3.392   5.348 -1.1863  1.2769  0.1092
  101OSM   H15G10177   3.917   3.420   5.338 -1.5283 -3.0737 -0.9103
  101OSM   C16F10178   3.805   3.597   5.302  0.0547 -0.2004  0.5774
  101OSM   H16F10179   3.855   3.687   5.345  0.6378  0.2919 -1.0389
  101OSM   H16G10180   3.697   3.625   5.305  0.5668  2.8405 -2.6867
  101OSM   C17F10181   3.848   3.581   5.157  0.2391 -0.5692  0.3017
  101OSM   H17F10182   3.817   3.489   5.103 -0.2768  0.3032 -0.9479
  101OSM   H17G10183   3.958   3.574   5.160  0.1409 -2.5618  1.1180
  101OSM   C18F10184   3.817   3.696   5.076  0.0912 -0.8153  0.1151
  101OSM   H18F10185   3.711   3.709   5.048  0.8489  1.3997 -2.1431
  101OSM   H18G10186   3.880   3.711   4.986 -1.2519  0.7746 -0.6049
  101OSM   H18H10187   3.836   3.792   5.129  1.6469 -0.4018 -1.1322
  102OSM      N10188   6.451   3.134   7.363  0.2278  0.0863  0.2194
  102OSM    C1510189   6.301   3.151   7.361 -1.0620 -0.4706 -0.3044
  102OSM   H15A10190   6.279   3.239   7.421  2.5793  0.6693 -0.3854
  102OSM   H15B10191   6.254   3.060   7.394 -0.1139 -1.4226 -1.4892
  102OSM   H15C10192   6.265   3.170   7.261  0.1131  0.5081 -0.5689
  102OSM    C1410193   6.483   3.093   7.501  0.6364 -0.6116 -0.5585
  102OSM   H14A10194   6.453   3.171   7.569  0.0410 -2.4635  1.4029
  102OSM   H14B10195   6.585   3.061   7.516  0.9582 -0.9065 -2.9678
  102OSM   H14C10196   6.418   3.014   7.535  1.4555 -0.6262  1.0664
  102OSM    C1310197   6.488   3.030   7.264 -1.1554  0.4911  0.8708
  102OSM   H13A10198   6.444   2.934   7.287  0.0321 -0.5827 -1.0411
  102OSM   H13B10199   6.594   3.012   7.269 -1.5459 -2.3300  0.7292
  102OSM   H13C10200   6.466   3.062   7.163 -0.2688  1.1784  0.8825
  102OSM    C1210201   6.524   3.261   7.339 -0.2466 -0.7428  0.7162
  102OSM   H12A10202   6.631   3.243   7.343 -0.0113 -0.7616 -2.5923
  102OSM   H12B10203   6.503   3.327   7.421  1.5521 -0.8798  1.3276
  102OSM    C1110204   6.499   3.348   7.211 -0.0725 -0.4631  0.5348
  102OSM   H11A10205   6.572   3.432   7.204 -0.3023 -0.3892 -2.2797
  102OSM   H11B10206   6.401   3.399   7.224 -0.2797 -0.7513  0.1188
  102OSM      P10207   6.633   3.260   7.020 -0.2161 -0.1803 -0.1392
  102OSM    O1310208   6.739   3.224   7.115  0.0287 -0.3175  0.0986
  102OSM    O1410209   6.607   3.168   6.901 -0.0236 -0.6375 -0.2493
  102OSM    O1110210   6.655   3.404   6.963  0.0144  0.0100 -0.3452
  102OSM    O1210211   6.500   3.268   7.092  0.7999  0.1564 -0.3528
  102OSM    C1S10212   6.748   3.430   6.857  0.2572  0.1259 -0.0553
  102OSM    H1S10213   6.837   3.363   6.863 -1.7479 -2.8719 -1.0398
  102OSM    H1T10214   6.801   3.524   6.881  1.6352 -0.6387 -0.0029
  102OSM     NF10215   6.796   3.441   6.621  0.1404  0.0263 -0.4033
  102OSM    HNF10216   6.788   3.531   6.579 -0.3276  2.0280  3.5010
  102OSM    C2S10217   6.685   3.422   6.717 -0.7079  0.2179 -0.1447
  102OSM    H2S10218   6.636   3.323   6.704 -0.0725 -0.3833  1.7171
  102OSM    C3S10219   6.571   3.530   6.716  0.4526  0.2123  0.6384
  102OSM    H3S10220   6.625   3.627   6.712  0.3455  0.2426 -2.5745
  102OSM     O310221   6.485   3.558   6.824 -0.0413  0.0426  0.4427
  102OSM    HO310222   6.516   3.494   6.887  0.7521  0.4093  0.4312
  102OSM    C4S10223   6.493   3.528   6.583  1.2574 -0.3538  0.4547
  102OSM    H4S10224   6.537   3.589   6.503  0.2601  2.0598  1.6387
  102OSM    C5S10225   6.367   3.466   6.564 -0.7768  0.0361 -0.4901
  102OSM    H5S10226   6.325   3.400   6.641 -2.3847  2.6881  1.0381
  102OSM    C6S10227   6.288   3.467   6.436 -0.2795 -0.7899 -0.0467
  102OSM    H6S10228   6.194   3.523   6.455 -0.0704  0.1112 -1.4988
  102OSM    H6T10229   6.263   3.363   6.408  0.9174 -1.0403 -0.2418
  102OSM    C7S10230   6.369   3.516   6.311  0.3164  0.5040  0.4658
  102OSM    H7S10231   6.468   3.467   6.294 -0.6667 -1.0876 -0.9514
  102OSM    H7T10232   6.386   3.625   6.325 -0.5033  0.7366 -0.3048
  102OSM    C8S10233   6.305   3.492   6.168  0.6355  0.0280 -0.8266
  102OSM    H8S10234   6.219   3.562   6.168 -0.2454 -0.9150  2.2098
  102OSM    H8T10235   6.277   3.385   6.162  0.1098  0.2047 -1.7309
  102OSM    C9S10236   6.401   3.527   6.052 -0.6272  0.9076  0.4910
  102OSM    H9S10237   6.506   3.496   6.074 -0.1697  0.0343 -2.5325
  102OSM    H9T10238   6.420   3.635   6.039  1.1493  0.3863 -1.9861
  102OSM   C10S10239   6.351   3.473   5.918 -0.0504 -0.8295 -0.2521
  102OSM   H10S10240   6.249   3.517   5.919  0.8162  1.3667 -1.4809
  102OSM   H10T10241   6.340   3.363   5.914 -3.2248 -0.7529  2.4113
  102OSM   C11S10242   6.429   3.515   5.790  0.6166 -0.0029 -0.4323
  102OSM   H11S10243   6.536   3.496   5.811  0.3130 -1.2175  0.1171
  102OSM   H11T10244   6.410   3.621   5.762  1.1516  0.0551 -0.5847
  102OSM   C12S10245   6.384   3.437   5.663 -0.6674 -0.5627  0.0103
  102OSM   H12S10246   6.281   3.470   5.637 -0.7304  0.9284  1.9148
  102OSM   H12T10247   6.373   3.336   5.708  0.3990  0.5841  3.1891
  102OSM   C13S10248   6.490   3.454   5.552 -0.0001  0.1837 -0.4073
  102OSM   H13S10249   6.593   3.428   5.586 -0.2104 -1.3982 -0.8999
  102OSM   H13T10250   6.482   3.559   5.516 -1.7082  0.1710 -0.1434
  102OSM   C14S10251   6.457   3.379   5.429 -0.0805  0.4134 -0.4148
  102OSM   H14S10252   6.357   3.401   5.386 -1.1109 -2.2245  0.3982
  102OSM   H14T10253   6.453   3.272   5.458  0.6709  0.9387  1.8740
  102OSM   C15S10254   6.566   3.386   5.315 -0.2596 -0.0139  0.3242
  102OSM   H15S10255   6.666   3.357   5.353  1.0499  0.9997 -2.1543
  102OSM   H15T10256   6.579   3.493   5.289 -3.0085 -0.2524 -2.7827
  102OSM   C16S10257   6.523   3.315   5.188 -0.0018 -0.1013  0.1557
  102OSM   H16S10258   6.426   3.356   5.153  0.7206  2.8211  1.2709
  102OSM   H16T10259   6.502   3.213   5.226  1.1112 -0.2712  0.3324
  102OSM   C17S10260   6.632   3.322   5.080 -0.2548 -0.1344 -0.1598
  102OSM   H17S10261   6.706   3.242   5.100  3.1468  2.7106 -0.3169
  102OSM   H17T10262   6.681   3.421   5.074  1.0946 -0.8006 -0.3606
  102OSM   C18S10263   6.581   3.300   4.930 -0.2159 -0.1536  0.1194
  102OSM   H18S10264   6.525   3.393   4.905 -0.3075 -0.4129 -0.6477
  102OSM   H18T10265   6.528   3.204   4.920 -1.9219  0.8520 -0.9569
  102OSM   H18U10266   6.671   3.284   4.867 -0.7449  1.0926 -1.0233
  102OSM    C1F10267   6.898   3.360   6.610  0.0360 -0.6078  0.7377
  102OSM     OF10268   6.892   3.248   6.655  0.0300  0.5945 -0.1844
  102OSM    C2F10269   7.015   3.412   6.532  1.0592  0.4795 -1.0238
  102OSM    H2F10270   7.104   3.429   6.596 -0.5550 -1.0149  1.8277
  102OSM    H2G10271   6.977   3.504   6.484 -0.9618  0.6576  0.7653
  102OSM    C3F10272   7.042   3.311   6.419 -0.6741 -0.4904  0.1567
  102OSM    H3F10273   6.953   3.300   6.353 -1.2749  1.2585  0.6267
  102OSM    H3G10274   7.075   3.209   6.448  0.9156 -0.2852 -0.8290
  102OSM    C4F10275   7.166   3.360   6.338  0.2339  0.5720  0.3434
  102OSM    H4F10276   7.253   3.372   6.406 -0.0943  0.8856  0.7095
  102OSM    H4G10277   7.138   3.457   6.292 -0.7463 -1.3003 -3.4369
  102OSM    C5F10278   7.207   3.264   6.217  0.1789  0.0608  0.6046
  102OSM    H5F10279   7.113   3.219   6.179  0.0641  1.5892 -1.0814
  102OSM    H5G10280   7.279   3.185   6.247  1.2400  0.0736 -1.6656
  102OSM    C6F10281   7.269   3.351   6.110 -0.8379 -0.1581 -0.1249
  102OSM    H6F10282   7.360   3.394   6.157  0.7508 -1.1586 -2.1186
  102OSM    H6G10283   7.201   3.437   6.090 -1.7333 -0.3571  1.7829
  102OSM    C7F10284   7.288   3.272   5.978  0.4277  0.0855  0.4669
  102OSM    H7F10285   7.201   3.204   5.965  1.7274 -1.4210 -0.7685
  102OSM    H7G10286   7.366   3.194   5.991 -0.8902 -1.2545  0.5355
  102OSM    C8F10287   7.324   3.355   5.852  0.0537  0.1406 -0.0749
  102OSM    H8F10288   7.416   3.417   5.855  1.1672 -1.4472  0.0234
  102OSM    H8G10289   7.247   3.426   5.816  1.5604  0.8549 -2.1010
  102OSM    C9F10290   7.358   3.261   5.738 -0.2185 -0.0881  0.5003
  102OSM    H9F10291   7.464   3.253   5.709 -0.4289  4.3001 -2.3378
  102OSM   C10F10292   7.281   3.207   5.642 -0.0051  0.1979  0.1087
  102OSM   H10F10293   7.331   3.138   5.572 -1.1030  0.0628 -0.5718
  102OSM   C11F10294   7.132   3.202   5.630 -1.0050 -1.7853  0.6341
  102OSM   H11F10295   7.084   3.278   5.695 -1.4445 -1.3859 -0.1360
  102OSM   H11G10296   7.086   3.103   5.653 -2.6863 -0.6532  2.4303
  102OSM   C12F10297   7.091   3.251   5.490  0.5955 -0.3621  0.0120
  102OSM   H12F10298   7.138   3.349   5.465  0.0737 -0.0571  0.2062
  102OSM   H12G10299   6.981   3.262   5.501  0.7447  1.1649  0.2326
  102OSM   C13F10300   7.126   3.147   5.382 -0.6371 -0.5449 -1.4415
  102OSM   H13F10301   7.068   3.053   5.392 -0.4979 -0.6740 -1.8244
  102OSM   H13G10302   7.234   3.120   5.385 -0.6333 -0.7263  3.1452
  102OSM   C14F10303   7.093   3.185   5.239 -0.5563  0.3231 -0.1696
  102OSM   H14F10304   6.982   3.191   5.227 -0.5936 -0.5760 -0.3429
  102OSM   H14G10305   7.130   3.107   5.169 -1.4254 -1.4350  1.2363
  102OSM   C15F10306   7.159   3.323   5.189  0.4469  0.3050  0.0636
  102OSM   H15F10307   7.270   3.313   5.180  0.4747 -0.7075  1.2008
  102OSM   H15G10308   7.138   3.404   5.261  1.4624 -1.4852  2.5296
  102OSM   C16F10309   7.100   3.357   5.050 -0.0945 -0.1135 -0.1260
  102OSM   H16F10310   6.990   3.348   5.063 -0.2696 -0.2528 -1.5203
  102OSM   H16G10311   7.125   3.271   4.984  0.4112  0.1344 -0.2605
  102OSM   C17F10312   7.149   3.481   4.982 -0.0176 -0.9136  0.3231
  102OSM   H17F10313   7.097   3.476   4.884  2.3936 -2.6770 -0.9690
  102OSM   H17G10314   7.255   3.473   4.950  0.3472  2.0866  0.5443
  102OSM   C18F10315   7.115   3.616   5.054  1.0311  0.0960  0.1693
  102OSM   H18F10316   7.155   3.635   5.156  0.7912  1.1572  0.0783
  102OSM   H18G10317   7.004   3.623   5.063  1.2446  2.0096  2.2626
  102OSM   H18H10318   7.145   3.705   4.994 -0.3327 -0.0072 -0.7107
  103OSM      N10319   4.909   3.845   7.211 -0.1300  0.1621  0.3009
  103OSM    C1510320   4.919   3.995   7.189  0.3564 -0.1321  0.5307
  103OSM   H15A10321   5.017   4.034   7.212  0.1086  0.5331  0.4774
  103OSM   H15B10322   4.843   4.058   7.234 -0.4662 -0.1473 -0.7665
  103OSM   H15C10323   4.905   4.016   7.084 -0.3957  1.7486  0.9594
  103OSM    C1410324   4.924   3.822   7.350  0.3353  0.0730  0.2186
  103OSM   H14A10325   4.923   3.716   7.369  0.9242 -0.4523 -2.3886
  103OSM   H14B10326   4.837   3.858   7.403  0.0066  1.0467 -0.9572
  103OSM   H14C10327   5.005   3.875   7.398  2.3024 -3.0396  0.5824
  103OSM    C1310328   4.766   3.806   7.188  0.7812  0.1647 -0.5489
  103OSM   H13A10329   4.698   3.852   7.258  2.2068  0.8946  0.4009
  103OSM   H13B10330   4.763   3.699   7.205  0.0922  0.2905  0.2018
  103OSM   H13C10331   4.728   3.825   7.089 -0.8485  2.0325  0.3697
  103OSM    C1210332   5.005   3.760   7.129  0.4018  0.5033  1.1576
  103OSM   H12A10333   4.985   3.656   7.150  0.4619 -0.0473 -1.2768
  103OSM   H12B10334   5.108   3.788   7.145 -0.2295  3.0183  1.2808
  103OSM    C1110335   4.987   3.771   6.976 -0.0683 -0.5402 -0.2877
  103OSM   H11A10336   4.909   3.715   6.920 -0.5876  1.9890 -2.2905
  103OSM   H11B10337   5.067   3.704   6.939  0.6642  0.0659  0.1568
  103OSM      P10338   5.137   3.946   6.860 -0.4141  0.1127 -0.1232
  103OSM    O1310339   5.119   4.068   6.775  0.3450 -0.2512  0.0781
  103OSM    O1410340   5.244   3.936   6.964  0.7183  0.2401  0.0010
  103OSM    O1110341   5.176   3.831   6.760  0.6566 -0.3044  0.4832
  103OSM    O1210342   5.001   3.901   6.922  0.8474 -0.2561 -0.2710
  103OSM    C1S10343   5.068   3.771   6.679 -0.6031  0.3058  0.1962
  103OSM    H1S10344   4.965   3.805   6.703 -1.1230 -1.4535  0.6294
  103OSM    H1T10345   5.062   3.660   6.686 -1.9315  0.2511 -1.2713
  103OSM     NF10346   4.983   3.726   6.459  0.1321  0.5509  0.1665
  103OSM    HNF10347   5.004   3.636   6.421 -2.0174 -0.1486  0.4726
  103OSM    C2S10348   5.091   3.789   6.523  1.2159 -0.6152 -0.5323
  103OSM    H2S10349   5.098   3.898   6.501  0.2037 -0.4154  0.0545
  103OSM    C3S10350   5.233   3.735   6.485 -0.1270  0.2233 -1.0503
  103OSM    H3S10351   5.231   3.625   6.496 -3.2667  0.2458 -0.3600
  103OSM     O310352   5.340   3.790   6.570 -0.1496  0.2235  0.8978
  103OSM    HO310353   5.284   3.825   6.640 -0.2092 -0.9845  1.4892
  103OSM    C4S10354   5.261   3.765   6.341  0.1886  0.0875 -0.0108
  103OSM    H4S10355   5.289   3.869   6.319  0.2252 -0.2719 -1.8441
  103OSM    C5S10356   5.268   3.676   6.242 -0.0006 -0.9560  0.2104
  103OSM    H5S10357   5.246   3.569   6.258 -2.3757 -0.6871 -0.7976
  103OSM    C6S10358   5.289   3.723   6.098 -0.2496 -0.0005 -0.1858
  103OSM    H6S10359   5.263   3.829   6.081 -3.0424 -0.6268 -0.3479
  103OSM    H6T10360   5.206   3.679   6.038 -3.0139  2.7014  1.4060
  103OSM    C7S10361   5.433   3.715   6.060 -0.9492 -0.4358  0.2047
  103OSM    H7S10362   5.471   3.611   6.065  0.0822 -0.3067 -2.6678
  103OSM    H7T10363   5.486   3.783   6.130 -0.8699  2.4069 -2.3702
  103OSM    C8S10364   5.461   3.767   5.921 -0.4302 -0.4013  0.3095
  103OSM    H8S10365   5.569   3.781   5.898 -0.4673  0.4052  0.6039
  103OSM    H8T10366   5.419   3.869   5.928 -0.6905 -0.4707 -0.1866
  103OSM    C9S10367   5.392   3.686   5.808  0.1884  0.1378 -0.3004
  103OSM    H9S10368   5.284   3.703   5.825  0.5504  1.6951  0.6925
  103OSM    H9T10369   5.412   3.577   5.810 -0.9270 -0.0718  1.9359
  103OSM   C10S10370   5.439   3.734   5.669  0.2493  0.1379  0.3598
  103OSM   H10S10371   5.548   3.713   5.659 -0.2829 -3.2553  0.2382
  103OSM   H10T10372   5.425   3.844   5.670 -1.0423  0.0187 -1.1290
  103OSM   C11S10373   5.344   3.669   5.563 -0.0004  0.5254 -0.3814
  103OSM   H11S10374   5.246   3.666   5.616  1.1374 -1.2341  1.8297
  103OSM   H11T10375   5.356   3.561   5.538  2.3416  1.2172 -2.5413
  103OSM   C12S10376   5.352   3.751   5.436 -0.0035  0.6033  0.3740
  103OSM   H12S10377   5.452   3.745   5.388 -0.8892  1.6133 -1.7120
  103OSM   H12T10378   5.323   3.856   5.454  3.3245  1.6851  0.2283
  103OSM   C13S10379   5.258   3.694   5.325  0.0314 -0.2222  0.1637
  103OSM   H13S10380   5.156   3.665   5.359  0.1572 -0.9024 -0.0192
  103OSM   H13T10381   5.300   3.602   5.278  0.7775  0.4643 -0.5603
  103OSM   C14S10382   5.237   3.802   5.212  0.3329  0.0089  0.4320
  103OSM   H14S10383   5.338   3.843   5.191  0.4784 -0.1800  0.7511
  103OSM   H14T10384   5.170   3.882   5.252 -1.2803 -0.2103 -1.6557
  103OSM   C15S10385   5.166   3.748   5.087 -0.3576  0.3918 -0.1209
  103OSM   H15S10386   5.062   3.723   5.117 -0.9655  1.8362 -0.9427
  103OSM   H15T10387   5.218   3.652   5.067 -0.1664  0.2095  1.1653
  103OSM   C16S10388   5.171   3.846   4.967  0.0234  0.0345  0.5287
  103OSM   H16S10389   5.279   3.863   4.945  0.0894  1.4592  1.7418
  103OSM   H16T10390   5.135   3.949   4.989  0.2213  0.6168 -1.6661
  103OSM   C17S10391   5.097   3.798   4.834 -0.0017 -0.7378 -0.8194
  103OSM   H17S10392   4.990   3.782   4.859 -0.0373  0.6936  0.0879
  103OSM   H17T10393   5.144   3.701   4.808 -0.2326 -1.1956  0.4158
  103OSM   C18S10394   5.112   3.895   4.723 -0.0753  0.1440  0.0986
  103OSM   H18S10395   5.215   3.902   4.682 -0.8305  0.3506 -1.8755
  103OSM   H18T10396   5.091   4.002   4.744 -1.4482  0.1123 -0.9801
  103OSM   H18U10397   5.043   3.876   4.638 -1.5954 -0.3782  1.4244
  103OSM    C1F10398   4.867   3.780   6.447  0.0735 -0.1639 -0.2031
  103OSM     OF10399   4.841   3.890   6.495  0.5815  0.0590  0.1462
  103OSM    C2F10400   4.762   3.704   6.371  0.5011  0.2003  0.5398
  103OSM    H2F10401   4.664   3.756   6.380  0.0372 -0.5682  0.0455
  103OSM    H2G10402   4.745   3.614   6.435 -0.6500 -2.3981 -3.0812
  103OSM    C3F10403   4.807   3.643   6.231 -0.4203  0.2726 -0.2972
  103OSM    H3F10404   4.718   3.588   6.191  0.4754 -1.1719 -0.3897
  103OSM    H3G10405   4.876   3.559   6.256  1.1796  1.0743 -1.8529
  103OSM    C4F10406   4.859   3.750   6.128 -0.5290  0.9084  1.1691
  103OSM    H4F10407   4.939   3.808   6.180 -0.6038 -0.4082  2.8620
  103OSM    H4G10408   4.777   3.823   6.113 -1.4376 -0.3698 -0.4165
  103OSM    C5F10409   4.889   3.682   5.997 -0.1602  0.1472  0.3113
  103OSM    H5F10410   4.800   3.618   5.978  0.7214 -0.9299 -0.3338
  103OSM    H5G10411   4.973   3.611   6.005 -0.8468 -0.8817 -1.2197
  103OSM    C6F10412   4.922   3.767   5.877 -0.5936 -0.7624 -1.1007
  103OSM    H6F10413   5.013   3.826   5.900  0.0976 -2.2056  0.0616
  103OSM    H6G10414   4.840   3.836   5.852  0.7863  0.7947 -1.4877
  103OSM    C7F10415   4.965   3.688   5.752 -0.0263 -0.3519  0.0445
  103OSM    H7F10416   4.888   3.611   5.727  0.2449 -0.3492 -0.8453
  103OSM    H7G10417   5.063   3.638   5.771  1.9979  2.9100 -0.9661
  103OSM    C8F10418   4.984   3.776   5.625 -0.6050 -0.2261 -0.1729
  103OSM    H8F10419   5.024   3.701   5.553 -0.2170 -0.4299  0.2463
  103OSM    H8G10420   5.064   3.851   5.644 -0.7135 -0.1814  0.1135
  103OSM    C9F10421   4.866   3.836   5.562  0.2321  0.2814 -0.4245
  103OSM    H9F10422   4.818   3.916   5.621 -2.9954 -0.1712 -2.1745
  103OSM   C10F10423   4.811   3.817   5.444  0.0483 -0.4034 -0.0918
  103OSM   H10F10424   4.721   3.870   5.410 -1.8826 -3.6531 -0.5278
  103OSM   C11F10425   4.842   3.704   5.347  0.2702 -0.9475  0.0195
  103OSM   H11F10426   4.902   3.618   5.384  0.0668 -0.1531  2.3523
  103OSM   H11G10427   4.909   3.745   5.268 -0.4330  3.0336  1.2365
  103OSM   C12F10428   4.715   3.647   5.283  0.0652 -0.3389  0.2092
  103OSM   H12F10429   4.645   3.726   5.249  0.3521 -1.0830 -2.2955
  103OSM   H12G10430   4.660   3.573   5.345 -0.1693  0.0321  0.4481
  103OSM   C13F10431   4.746   3.573   5.153  0.4161 -0.5176  0.0143
  103OSM   H13F10432   4.820   3.490   5.154 -0.5975 -1.4698 -0.5585
  103OSM   H13G10433   4.761   3.646   5.071 -2.8457 -2.9262 -3.0952
  103OSM   C14F10434   4.614   3.515   5.097  0.1455  0.3781  0.1759
  103OSM   H14F10435   4.540   3.594   5.073 -0.2592 -1.0056 -3.7795
  103OSM   H14G10436   4.581   3.441   5.174  0.8603 -1.5739 -1.3227
  103OSM   C15F10437   4.619   3.429   4.979 -0.4553 -0.0459  0.4037
  103OSM   H15F10438   4.517   3.394   4.953  0.2824 -1.8451 -0.2948
  103OSM   H15G10439   4.683   3.339   4.994  2.2611  1.6756 -0.2231
  103OSM   C16F10440   4.668   3.494   4.847  0.1301  0.2948  0.4951
  103OSM   H16F10441   4.779   3.497   4.855  0.1073  1.4975  0.5490
  103OSM   H16G10442   4.630   3.596   4.824  1.1594  0.6005  0.0821
  103OSM   C17F10443   4.634   3.403   4.726 -0.3122 -0.3321 -0.1300
  103OSM   H17F10444   4.627   3.299   4.764  0.4241  0.6060  2.7947
  103OSM   H17G10445   4.713   3.393   4.649 -1.1158 -2.5684 -0.7421
  103OSM   C18F10446   4.505   3.435   4.652 -0.3577  1.2380  0.2183
  103OSM   H18F10447   4.455   3.527   4.689 -0.8577  0.7826  0.6732
  103OSM   H18G10448   4.445   3.345   4.676  1.6732  0.6169  3.6075
  103OSM   H18H10449   4.523   3.460   4.545 -1.2131  0.6441 -0.0715
  104OSM      N10450   0.051   3.447   7.352 -0.2938 -0.2330 -0.0211
  104OSM    C1510451  -0.063   3.464   7.259  0.6147 -0.3640  1.0514
  104OSM   H15A10452  -0.032   3.538   7.187 -0.1532 -0.7771  0.2793
  104OSM   H15B10453  -0.145   3.502   7.320  0.8507  3.1051 -0.5611
  104OSM   H15C10454  -0.101   3.374   7.212 -0.1282 -0.4062  1.7102
  104OSM    C1410455   0.005   3.418   7.492  0.7535  0.0082  0.2146
  104OSM   H14A10456  -0.067   3.490   7.528 -1.0509 -2.3827  1.7742
  104OSM   H14B10457   0.087   3.421   7.562  3.7695 -1.9445 -2.9306
  104OSM   H14C10458  -0.047   3.323   7.500 -0.8956  0.9445  1.4441
  104OSM    C1310459   0.138   3.330   7.309  0.0427 -0.0323  0.4948
  104OSM   H13A10460   0.188   3.361   7.219 -1.7247  1.3616 -0.0637
  104OSM   H13B10461   0.080   3.241   7.286 -0.4205  0.0033  1.4603
  104OSM   H13C10462   0.209   3.307   7.386 -0.1249  0.5983  0.8382
  104OSM    C1210463   0.135   3.572   7.355  0.1599  0.3812 -0.3502
  104OSM   H12A10464   0.213   3.551   7.426 -0.1381  0.3605 -0.0244
  104OSM   H12B10465   0.082   3.659   7.391 -1.3411 -0.1471 -1.1745
  104OSM    C1110466   0.202   3.616   7.219  0.2776  0.0139  0.1389
  104OSM   H11A10467   0.282   3.545   7.189 -0.4307 -0.9464  0.4892
  104OSM   H11B10468   0.264   3.699   7.258 -1.0193  0.5630  1.1045
  104OSM      P10469   0.084   3.788   7.074 -0.0198 -0.3694 -0.1718
  104OSM    O1310470  -0.037   3.779   6.995  0.3352  0.1733 -0.2706
  104OSM    O1410471   0.089   3.877   7.197  0.1625  0.0346 -0.0820
  104OSM    O1110472   0.206   3.831   6.982  0.1379 -0.5645  0.3343
  104OSM    O1210473   0.116   3.645   7.110  0.9021  0.4169  0.0463
  104OSM    C1S10474   0.271   3.753   6.890 -0.0024  0.1158 -0.5179
  104OSM    H1S10475   0.200   3.723   6.810 -1.0579  0.5698  0.2272
  104OSM    H1T10476   0.310   3.658   6.934  0.0975  0.3109 -0.1856
  104OSM     NF10477   0.449   3.788   6.704 -0.0719  0.3704 -0.0312
  104OSM    HNF10478   0.519   3.717   6.694 -0.6775 -0.5608  1.8509
  104OSM    C2S10479   0.402   3.827   6.832  0.3059  0.3192  0.0786
  104OSM    H2S10480   0.375   3.934   6.822  3.9271  1.2767 -1.0764
  104OSM    C3S10481   0.516   3.814   6.928  0.3738 -0.1237 -0.4804
  104OSM    H3S10482   0.543   3.706   6.935 -0.1491 -0.2851 -0.8881
  104OSM     O310483   0.476   3.851   7.061  0.2362 -0.3336  0.3036
  104OSM    HO310484   0.382   3.871   7.059 -0.2118 -2.1575 -2.1062
  104OSM    C4S10485   0.642   3.890   6.897 -0.2889  0.4677 -0.4874
  104OSM    H4S10486   0.613   3.990   6.859  0.7071  0.4661 -1.2847
  104OSM    C5S10487   0.756   3.826   6.871 -0.1213 -0.2345  0.0584
  104OSM    H5S10488   0.751   3.716   6.871 -0.1424 -0.2683 -1.8583
  104OSM    C6S10489   0.878   3.880   6.800 -0.7223 -0.0900 -0.0732
  104OSM    H6S10490   0.908   3.809   6.720 -0.1017  0.4643 -0.3454
  104OSM    H6T10491   0.959   3.867   6.875 -1.9319  1.6167  1.6238
  104OSM    C7S10492   0.872   4.016   6.734  0.2916  0.2088  0.1795
  104OSM    H7S10493   0.977   4.047   6.712  0.9265 -0.4946  2.0154
  104OSM    H7T10494   0.824   4.086   6.805 -0.1073 -1.6754  1.8260
  104OSM    C8S10495   0.789   4.021   6.602 -0.9260  0.1951 -0.1969
  104OSM    H8S10496   0.773   4.127   6.572 -0.8315 -0.3953 -2.5469
  104OSM    H8T10497   0.687   3.981   6.618 -1.3768  1.4358  0.1489
  104OSM    C9S10498   0.860   3.960   6.484 -0.3053  0.3620  0.4068
  104OSM    H9S10499   0.869   3.851   6.501 -1.0935 -0.3476 -2.9881
  104OSM    H9T10500   0.964   4.001   6.490  0.0980 -0.2743 -1.4076
  104OSM   C10S10501   0.793   3.976   6.343 -0.7175  0.2981 -0.1032
  104OSM   H10S10502   0.771   4.085   6.332 -1.2690  0.1654 -0.3160
  104OSM   H10T10503   0.693   3.930   6.347  0.0960 -1.4604  0.9539
  104OSM   C11S10504   0.883   3.934   6.219  0.5092 -0.7727 -0.2054
  104OSM   H11S10505   0.897   3.824   6.227  0.4530 -0.9702 -2.2598
  104OSM   H11T10506   0.981   3.986   6.225  0.3163 -0.1432 -2.0289
  104OSM   C12S10507   0.821   3.969   6.082 -0.7197 -0.3515  0.2028
  104OSM   H12S10508   0.812   4.080   6.083  0.5519 -0.2123 -0.7918
  104OSM   H12T10509   0.722   3.918   6.078 -0.7919 -0.4152  1.9907
  104OSM   C13S10510   0.910   3.931   5.964  0.1294 -0.1111 -0.4018
  104OSM   H13S10511   0.919   3.820   5.956  2.8496 -0.0985  1.1571
  104OSM   H13T10512   1.015   3.959   5.986 -0.0667 -0.1877  0.6814
  104OSM   C14S10513   0.874   3.984   5.822  0.3810 -0.0267  0.3856
  104OSM   H14S10514   0.832   4.086   5.830 -1.8273 -0.9370  1.4323
  104OSM   H14T10515   0.795   3.912   5.791 -0.9939  1.1826  1.0006
  104OSM   C15S10516   0.997   3.992   5.728 -0.4980 -0.3908  0.1769
  104OSM   H15S10517   1.034   3.887   5.726 -1.0877 -0.6020  0.2280
  104OSM   H15T10518   1.080   4.059   5.761 -0.3845 -0.1812 -0.5186
  104OSM   C16S10519   0.956   4.022   5.579 -0.9628  0.3970 -0.7378
  104OSM   H16S10520   1.042   4.007   5.511 -0.7927  0.9030 -0.6369
  104OSM   H16T10521   0.905   4.121   5.584 -1.4372  0.0994  1.2421
  104OSM   C17S10522   0.851   3.928   5.519 -0.5006 -0.1011  0.0418
  104OSM   H17S10523   0.751   3.953   5.559 -0.2237  0.3252  0.4811
  104OSM   H17T10524   0.867   3.819   5.535  0.2741 -0.0009 -0.0275
  104OSM   C18S10525   0.837   3.946   5.369  0.1939  0.3640 -0.0076
  104OSM   H18S10526   0.934   3.930   5.317  0.8960 -0.7714  1.5771
  104OSM   H18T10527   0.810   4.053   5.351  1.3908  0.8333  0.8505
  104OSM   H18U10528   0.765   3.884   5.311  1.6503 -0.9186 -0.5041
  104OSM    C1F10529   0.368   3.805   6.596  0.1466  1.2099 -0.1719
  104OSM     OF10530   0.273   3.879   6.601  0.8776  0.4022 -0.1768
  104OSM    C2F10531   0.410   3.728   6.472  0.4395 -0.3603  0.2982
  104OSM    H2F10532   0.417   3.622   6.506 -1.4408 -0.6668 -0.1399
  104OSM    H2G10533   0.506   3.773   6.438  0.1946  1.2207  1.5859
  104OSM    C3F10534   0.309   3.740   6.355  0.4754  0.4246 -0.2441
  104OSM    H3F10535   0.284   3.849   6.350  2.2634  0.8302 -1.0801
  104OSM    H3G10536   0.212   3.688   6.371  0.7383 -0.0439 -0.1813
  104OSM    C4F10537   0.381   3.706   6.221 -0.1079  0.1289 -0.3525
  104OSM    H4F10538   0.392   3.596   6.220 -0.1923  0.1239 -0.8257
  104OSM    H4G10539   0.483   3.748   6.236 -0.7060  1.3680  0.4928
  104OSM    C5F10540   0.327   3.765   6.093  0.0621 -0.1371  0.8639
  104OSM    H5F10541   0.296   3.867   6.123 -2.4683 -1.2200  2.3219
  104OSM    H5G10542   0.231   3.714   6.068  0.1959  0.4409 -0.8900
  104OSM    C6F10543   0.426   3.775   5.977  0.2874 -0.2681  0.4678
  104OSM    H6F10544   0.462   3.682   5.929  1.1064  0.0393  0.4742
  104OSM    H6G10545   0.510   3.832   6.023 -0.1933 -0.7921  2.0649
  104OSM    C7F10546   0.361   3.858   5.868 -0.3196  0.1313 -0.1991
  104OSM    H7F10547   0.307   3.946   5.908  3.0524  1.6936  1.3702
  104OSM    H7G10548   0.281   3.787   5.839 -1.0344  0.6485  0.4818
  104OSM    C8F10549   0.459   3.890   5.754 -0.3851  0.2884 -0.1383
  104OSM    H8F10550   0.497   3.794   5.715 -1.4335  1.1299 -3.5692
  104OSM    H8G10551   0.550   3.936   5.799  0.3868 -0.0856 -1.2778
  104OSM    C9F10552   0.397   3.987   5.660  0.0985  0.5448  0.9017
  104OSM    H9F10553   0.325   4.062   5.697 -0.2037  1.5320 -1.5040
  104OSM   C10F10554   0.397   3.979   5.523 -0.3335 -0.0601 -0.2463
  104OSM   H10F10555   0.352   4.065   5.471 -0.4802 -0.3828 -0.6560
  104OSM   C11F10556   0.468   3.879   5.442  0.0117 -0.7348 -0.1000
  104OSM   H11F10557   0.563   3.848   5.491  0.3681  1.0479  0.3949
  104OSM   H11G10558   0.508   3.931   5.352  1.9521 -0.7681  0.6904
  104OSM   C12F10559   0.401   3.757   5.384  0.1646 -0.1541  0.0399
  104OSM   H12F10560   0.449   3.731   5.287  1.5508  1.3707  0.2616
  104OSM   H12G10561   0.297   3.780   5.355  0.6595  1.2524 -0.7650
  104OSM   C13F10562   0.396   3.639   5.479  0.5904  1.0044  0.2426
  104OSM   H13F10563   0.330   3.566   5.429  1.1754  2.1559 -2.3587
  104OSM   H13G10564   0.362   3.656   5.584  0.7310  1.3436  0.2343
  104OSM   C14F10565   0.527   3.563   5.507  0.4323 -0.1829 -0.0488
  104OSM   H14F10566   0.505   3.469   5.562  1.7288 -1.0599 -0.9769
  104OSM   H14G10567   0.604   3.631   5.549 -1.9690  1.5737  1.7767
  104OSM   C15F10568   0.585   3.511   5.367  0.1456  0.8027 -0.0895
  104OSM   H15F10569   0.622   3.589   5.297  0.8037  0.0519 -0.6004
  104OSM   H15G10570   0.509   3.464   5.301  1.3459 -1.1520 -0.1685
  104OSM   C16F10571   0.687   3.393   5.378  0.4430 -0.4495 -0.2691
  104OSM   H16F10572   0.623   3.305   5.401 -0.1586  0.1965  0.6000
  104OSM   H16G10573   0.767   3.415   5.453 -0.5758  1.0945  0.4033
  104OSM   C17F10574   0.774   3.355   5.258 -0.3340  0.3283  0.2828
  104OSM   H17F10575   0.839   3.440   5.227  0.5983 -1.1844 -2.2210
  104OSM   H17G10576   0.706   3.353   5.170 -1.0835  2.6171  0.7255
  104OSM   C18F10577   0.851   3.227   5.291  0.5768  0.0607 -0.1184
  104OSM   H18F10578   0.904   3.194   5.199 -1.2614  0.0751 -1.2466
  104OSM   H18G10579   0.791   3.144   5.334  1.4596  0.1932  1.4615
  104OSM   H18H10580   0.937   3.251   5.357  1.7064  1.4832 -2.0130
  105OSM      N10581   6.518   2.431   7.162  0.0077 -0.2126 -0.1269
  105OSM    C1510582   6.582   2.305   7.197  0.3723 -0.4617 -0.0583
  105OSM   H15A10583   6.681   2.316   7.238 -0.0418 -1.0949  1.1482
  105OSM   H15B10584   6.579   2.228   7.121 -0.1954  0.8478 -1.4167
  105OSM   H15C10585   6.522   2.261   7.275  0.7365 -0.0751  0.4447
  105OSM    C1410586   6.371   2.415   7.120 -0.2817  0.6040 -0.5222
  105OSM   H14A10587   6.314   2.505   7.136 -2.4709 -0.7424 -0.1885
  105OSM   H14B10588   6.327   2.337   7.181  3.2569 -1.3074 -0.1215
  105OSM   H14C10589   6.360   2.390   7.015  2.3043 -0.8352 -0.5257
  105OSM    C1310590   6.515   2.523   7.279 -0.4815  0.1309  0.5537
  105OSM   H13A10591   6.616   2.539   7.311 -0.9848 -0.9281  2.9398
  105OSM   H13B10592   6.488   2.472   7.370  2.1496 -2.1491  0.1756
  105OSM   H13C10593   6.471   2.616   7.246 -2.0915 -1.3833 -1.9432
  105OSM    C1210594   6.581   2.494   7.045  0.0658  0.3914  0.1761
  105OSM   H12A10595   6.525   2.584   7.025  0.2098  0.7204  1.1967
  105OSM   H12B10596   6.557   2.442   6.953 -0.1436 -1.2372  1.1269
  105OSM    C1110597   6.737   2.516   7.050  0.3861  0.4084 -0.2342
  105OSM   H11A10598   6.759   2.554   6.948  2.7284 -0.3091 -0.0499
  105OSM   H11B10599   6.782   2.415   7.066 -2.3875 -0.8136  0.4823
  105OSM      P10600   6.754   2.769   7.126  0.2180  0.1209  0.1781
  105OSM    O1310601   6.619   2.792   7.069 -0.1874  0.0750 -0.5353
  105OSM    O1410602   6.782   2.848   7.253 -0.4085  0.4185  0.0917
  105OSM    O1110603   6.866   2.805   7.024  0.1893 -0.2224  0.2862
  105OSM    O1210604   6.771   2.616   7.150  0.3810 -0.0424  0.4877
  105OSM    C1S10605   6.892   2.944   7.002  0.2217  0.1633  0.2136
  105OSM    H1S10606   6.947   2.981   7.091  0.4136  1.0018 -0.2353
  105OSM    H1T10607   6.798   2.999   6.978  0.1193 -0.6769 -1.4763
  105OSM     NF10608   7.024   3.110   6.869  0.1873 -0.1781 -0.7911
  105OSM    HNF10609   6.958   3.158   6.812 -1.5126  0.6578  1.7067
  105OSM    C2S10610   6.980   2.968   6.881 -0.2105 -0.5594 -0.7907
  105OSM    H2S10611   7.074   2.909   6.891 -0.0071 -0.3067 -1.1792
  105OSM    C3S10612   6.913   2.921   6.754 -0.1784 -0.4936 -0.9673
  105OSM    H3S10613   6.821   2.982   6.745 -1.1228 -1.3873  1.5980
  105OSM     O310614   6.851   2.796   6.762 -0.3886 -0.3710  0.4975
  105OSM    HO310615   6.854   2.766   6.853 -1.2051 -3.8622 -0.4538
  105OSM    C4S10616   7.016   2.935   6.638  0.2046  0.5234  0.1862
  105OSM    H4S10617   7.032   3.043   6.618  0.8621  0.3306 -0.3662
  105OSM    C5S10618   7.076   2.845   6.558 -0.0548 -0.1582 -0.4570
  105OSM    H5S10619   7.047   2.740   6.576  1.4739 -0.5242 -0.0226
  105OSM    C6S10620   7.164   2.869   6.437  0.2919  0.7927  0.3456
  105OSM    H6S10621   7.267   2.828   6.448 -0.3792 -1.1073 -0.2001
  105OSM    H6T10622   7.167   2.979   6.422 -2.4611  0.8837  0.0094
  105OSM    C7S10623   7.103   2.808   6.307 -0.2511  0.5090 -0.3224
  105OSM    H7S10624   7.005   2.859   6.295 -0.0182  0.7590 -1.2765
  105OSM    H7T10625   7.098   2.698   6.322 -0.8045  0.5762  0.0048
  105OSM    C8S10626   7.201   2.852   6.199 -0.6298  0.5083  0.4343
  105OSM    H8S10627   7.309   2.826   6.206 -0.5399 -0.1843 -2.3672
  105OSM    H8T10628   7.198   2.963   6.195  1.4181  0.6457  1.4322
  105OSM    C9S10629   7.150   2.819   6.062  0.0755 -0.1485 -0.8820
  105OSM    H9S10630   7.065   2.881   6.025 -0.1173  1.5728  2.1491
  105OSM    H9T10631   7.116   2.713   6.052 -1.2403  0.1021  0.5173
  105OSM   C10S10632   7.259   2.831   5.961 -0.2712 -0.6125  0.1511
  105OSM   H10S10633   7.333   2.752   5.988 -0.9089 -1.0267  0.7145
  105OSM   H10T10634   7.304   2.932   5.967  0.4316 -0.6963 -2.5309
  105OSM   C11S10635   7.211   2.807   5.812 -0.2100  0.1476  0.6858
  105OSM   H11S10636   7.136   2.888   5.804 -0.7478 -0.3501  0.6228
  105OSM   H11T10637   7.172   2.703   5.807 -0.0858  0.1495 -0.8875
  105OSM   C12S10638   7.322   2.829   5.706 -0.1100 -0.2902 -0.2042
  105OSM   H12S10639   7.401   2.751   5.715  1.1236  0.8880 -0.4779
  105OSM   H12T10640   7.362   2.931   5.722 -0.2785 -0.4901  1.8341
  105OSM   C13S10641   7.275   2.814   5.564  0.0036 -0.0846 -0.0986
  105OSM   H13S10642   7.192   2.883   5.540  1.7327  1.7248 -1.1271
  105OSM   H13T10643   7.226   2.715   5.554  1.2167 -0.8946  1.5506
  105OSM   C14S10644   7.383   2.837   5.455  0.0684 -0.2525 -0.0973
  105OSM   H14S10645   7.477   2.780   5.466  0.3802  0.0981 -0.8824
  105OSM   H14T10646   7.414   2.944   5.462 -0.0424 -0.2370  0.1999
  105OSM   C15S10647   7.343   2.799   5.307 -0.2370 -0.1744  0.2585
  105OSM   H15S10648   7.243   2.845   5.293 -0.3408 -0.3776  0.3291
  105OSM   H15T10649   7.332   2.689   5.298 -1.1380 -0.0643 -0.1601
  105OSM   C16S10650   7.444   2.858   5.204  0.5114  0.7619  0.4944
  105OSM   H16S10651   7.407   2.814   5.110 -2.8638  1.2650  1.4475
  105OSM   H16T10652   7.549   2.827   5.222  0.7148  0.2003 -1.5197
  105OSM   C17S10653   7.453   3.005   5.182  0.1818  1.1373  0.2257
  105OSM   H17S10654   7.513   3.053   5.262 -0.4630  1.6233  0.4294
  105OSM   H17T10655   7.348   3.038   5.194 -0.4726 -0.7654  0.1041
  105OSM   C18S10656   7.514   3.038   5.047 -0.1361 -0.1782  0.0290
  105OSM   H18S10657   7.624   3.023   5.041 -0.1264 -0.1423  0.1104
  105OSM   H18T10658   7.504   3.146   5.025  0.2246 -0.1852 -0.1759
  105OSM   H18U10659   7.468   2.979   4.965 -1.7153  2.3908 -1.0221
  105OSM    C1F10660   7.111   3.160   6.952  0.1140 -0.0544 -0.1197
  105OSM     OF10661   7.176   3.096   7.034 -0.1104 -0.2033  0.2740
  105OSM    C2F10662   7.124   3.306   6.945 -0.2535  0.1166 -0.7564
  105OSM    H2F10663   7.073   3.356   7.030  1.6766 -0.1687  0.6238
  105OSM    H2G10664   7.069   3.342   6.855 -1.5362 -1.3611 -0.6147
  105OSM    C3F10665   7.275   3.338   6.930  0.1369 -0.1595 -0.2375
  105OSM    H3F10666   7.324   3.320   7.028 -1.2565  1.2892  0.7775
  105OSM    H3G10667   7.282   3.449   6.921  0.4908 -0.2104 -0.6148
  105OSM    C4F10668   7.356   3.263   6.816  0.1993 -0.4993 -0.0450
  105OSM    H4F10669   7.364   3.164   6.865 -0.3594 -0.5511 -0.0472
  105OSM    H4G10670   7.464   3.288   6.815 -0.2353  1.7936 -2.1315
  105OSM    C5F10671   7.297   3.254   6.680  0.1522 -0.1966 -0.0221
  105OSM    H5F10672   7.315   3.348   6.624  1.5099 -0.5350 -0.1846
  105OSM    H5G10673   7.188   3.246   6.701  0.0058  0.9097 -0.3140
  105OSM    C6F10674   7.335   3.125   6.612  0.1674 -0.0109  0.4986
  105OSM    H6F10675   7.298   3.130   6.507 -0.8819  0.6979  0.8827
  105OSM    H6G10676   7.294   3.034   6.661  2.2452 -1.7932 -0.8742
  105OSM    C7F10677   7.484   3.101   6.604 -0.4715  0.9176 -0.1234
  105OSM    H7F10678   7.516   3.115   6.710  0.5107  0.4852 -0.3494
  105OSM    H7G10679   7.531   3.193   6.562  1.9825  1.0720  2.6015
  105OSM    C8F10680   7.530   2.971   6.541 -0.0121  0.4103  0.4466
  105OSM    H8F10681   7.459   2.939   6.461 -0.4851 -2.4695  1.8830
  105OSM    H8G10682   7.526   2.898   6.624 -0.6176 -0.2982 -0.1863
  105OSM    C9F10683   7.670   2.979   6.493 -0.8231  0.1946 -0.4754
  105OSM    H9F10684   7.740   3.052   6.534  0.6819 -0.0875 -2.3993
  105OSM   C10F10685   7.719   2.910   6.387  0.3186  0.5303 -0.5891
  105OSM   H10F10686   7.826   2.924   6.365  1.1366  0.7264  3.0004
  105OSM   C11F10687   7.648   2.803   6.303 -0.3199  0.2968 -0.3198
  105OSM   H11F10688   7.537   2.801   6.304 -0.3718 -0.3117 -2.1608
  105OSM   H11G10689   7.675   2.698   6.325 -0.9068  0.3667  0.7668
  105OSM   C12F10690   7.674   2.832   6.153  0.2301  0.0303  0.5707
  105OSM   H12F10691   7.600   2.767   6.101 -0.4748  0.9294  0.4281
  105OSM   H12G10692   7.781   2.818   6.126  0.3920  0.4585  0.9743
  105OSM   C13F10693   7.629   2.977   6.112  0.6485  0.8227 -0.7965
  105OSM   H13F10694   7.706   3.047   6.152  1.3303  0.2096 -1.0175
  105OSM   H13G10695   7.532   2.992   6.164 -0.5393  0.5177 -2.8170
  105OSM   C14F10696   7.602   2.993   5.967 -0.3647  0.0591  0.0999
  105OSM   H14F10697   7.568   3.099   5.963  2.8899  1.2819  1.2562
  105OSM   H14G10698   7.530   2.915   5.933  0.8651 -0.2044 -2.0731
  105OSM   C15F10699   7.726   2.988   5.868 -0.4504  0.7106  0.3862
  105OSM   H15F10700   7.788   2.905   5.908 -0.5042  0.4769 -0.0057
  105OSM   H15G10701   7.776   3.082   5.900  1.1567 -0.2579  0.8106
  105OSM   C16F10702   7.696   2.988   5.717 -0.2903 -0.4427 -0.0778
  105OSM   H16F10703   7.649   3.087   5.700  0.8647  0.8243  3.3856
  105OSM   H16G10704   7.622   2.908   5.693  0.9067 -1.3215 -0.9381
  105OSM   C17F10705   7.815   2.963   5.618  0.0262 -0.2327  0.1046
  105OSM   H17F10706   7.871   2.878   5.664 -1.0260 -0.1556  1.5826
  105OSM   H17G10707   7.874   3.056   5.606 -0.4957 -0.1208 -1.9939
  105OSM   C18F10708   7.777   2.908   5.478 -0.7688  0.4020 -0.0969
  105OSM   H18F10709   7.719   2.993   5.437  0.1884  0.9372 -0.3723
  105OSM   H18G10710   7.705   2.824   5.490 -0.1633 -0.1633 -0.3275
  105OSM   H18H10711   7.859   2.886   5.406  1.4416  0.5122  2.2365
  106OSM      N10712   4.704   2.193   7.145  0.4629  0.1173  0.0154
  106OSM    C1510713   4.732   2.319   7.208  1.4084  0.5976  0.0252
  106OSM   H15A10714   4.833   2.357   7.207  1.4289  0.5557 -1.9073
  106OSM   H15B10715   4.702   2.322   7.312 -0.0134 -0.6208 -0.3330
  106OSM   H15C10716   4.668   2.396   7.169  0.2254 -0.3906 -0.0479
  106OSM    C1410717   4.759   2.083   7.227 -0.1691 -0.2392  0.1269
  106OSM   H14A10718   4.725   2.091   7.329 -1.3724 -0.9687 -0.2027
  106OSM   H14B10719   4.866   2.095   7.236 -0.1236 -0.7138  0.2726
  106OSM   H14C10720   4.751   1.986   7.180 -1.4521  0.0800 -0.3584
  106OSM    C1310721   4.559   2.176   7.128  0.3587 -0.0402 -0.3000
  106OSM   H13A10722   4.530   2.093   7.066 -0.6087 -0.6595  0.9474
  106OSM   H13B10723   4.518   2.269   7.092  2.2257  0.6783 -0.6595
  106OSM   H13C10724   4.515   2.154   7.224  0.0837 -1.1078 -0.6587
  106OSM    C1210725   4.773   2.174   7.004  0.3438 -0.2000  0.1915
  106OSM   H12A10726   4.876   2.149   7.022 -0.1619 -2.9810 -0.3119
  106OSM   H12B10727   4.771   2.269   6.953 -0.0318 -0.2480  0.1146
  106OSM    C1110728   4.728   2.067   6.912 -0.1446  0.2153  0.3665
  106OSM   H11A10729   4.774   2.092   6.814 -1.0244  1.8518  0.3396
  106OSM   H11B10730   4.621   2.051   6.889  0.0204 -0.8801  0.2991
  106OSM      P10731   4.929   1.897   6.957 -0.2889 -0.0086 -0.2409
  106OSM    O1310732   5.012   2.016   6.974 -0.4147 -0.1697  0.3447
  106OSM    O1410733   4.946   1.785   7.051  0.7674 -0.3526 -0.1703
  106OSM    O1110734   4.959   1.855   6.815 -0.3564 -0.1614  0.4619
  106OSM    O1210735   4.780   1.938   6.954  0.0362  0.3117  0.6517
  106OSM    C1S10736   4.854   1.785   6.740 -1.1195 -0.3904 -0.7589
  106OSM    H1S10737   4.778   1.858   6.706  0.4489  1.0551 -1.3342
  106OSM    H1T10738   4.816   1.697   6.797  0.1554  0.2990  1.2653
  106OSM     NF10739   4.813   1.686   6.513  0.0020  0.5383 -0.4677
  106OSM    HNF10740   4.820   1.598   6.468 -1.4313  0.5167 -0.7070
  106OSM    C2S10741   4.917   1.742   6.603  0.0901 -0.0181 -0.3505
  106OSM    H2S10742   4.955   1.832   6.550 -0.2698  0.4468  0.1619
  106OSM    C3S10743   5.042   1.649   6.630  0.0553  0.0239 -0.0015
  106OSM    H3S10744   4.986   1.571   6.685 -0.9236  0.8903  0.2473
  106OSM     O310745   5.152   1.693   6.705 -0.1696  0.1031 -0.3769
  106OSM    HO310746   5.133   1.786   6.718  2.7639  0.6877  0.3826
  106OSM    C4S10747   5.094   1.585   6.501 -0.1175  0.2731 -0.6303
  106OSM    H4S10748   5.067   1.479   6.489  1.3025 -0.3441  1.1379
  106OSM    C5S10749   5.169   1.638   6.404 -0.1572  0.8301  0.1806
  106OSM    H5S10750   5.206   1.741   6.415  2.0372 -0.0027  1.0512
  106OSM    C6S10751   5.218   1.545   6.295  0.1960  0.1319  0.2397
  106OSM    H6S10752   5.169   1.446   6.299 -0.0641  0.0379 -2.8855
  106OSM    H6T10753   5.325   1.516   6.309  0.6291  0.9517 -1.2123
  106OSM    C7S10754   5.210   1.606   6.157 -0.0854 -0.7284  0.4066
  106OSM    H7S10755   5.293   1.680   6.147  0.5386 -1.0514  2.5883
  106OSM    H7T10756   5.111   1.654   6.140 -0.1003 -0.7369  0.4721
  106OSM    C8S10757   5.218   1.497   6.047  0.5798 -0.0282 -0.4293
  106OSM    H8S10758   5.153   1.411   6.077 -1.3381  2.5568  3.8719
  106OSM    H8T10759   5.322   1.459   6.052  0.1435 -1.6370 -2.2031
  106OSM    C9S10760   5.183   1.552   5.909  0.2624 -0.4116  0.5975
  106OSM    H9S10761   5.244   1.642   5.889 -1.1524  0.6676  1.0012
  106OSM    H9T10762   5.078   1.572   5.880  0.7711 -0.7818 -1.6480
  106OSM   C10S10763   5.217   1.452   5.804  0.3184  0.0944 -0.1679
  106OSM   H10S10764   5.168   1.352   5.804  1.2682 -0.4450 -2.3416
  106OSM   H10T10765   5.325   1.435   5.828 -0.1863 -2.2286  0.7503
  106OSM   C11S10766   5.204   1.509   5.668 -0.3647 -0.0476 -0.5667
  106OSM   H11S10767   5.244   1.612   5.653  1.7975 -0.8372 -0.4662
  106OSM   H11T10768   5.094   1.505   5.652 -0.2557 -1.0500 -1.1085
  106OSM   C12S10769   5.268   1.423   5.559  0.6822  0.1011  0.1571
  106OSM   H12S10770   5.217   1.326   5.574 -1.3539  0.7631 -1.8632
  106OSM   H12T10771   5.378   1.420   5.578  0.7333 -0.0365 -0.1496
  106OSM   C13S10772   5.251   1.489   5.419 -0.7556 -0.1082  0.7419
  106OSM   H13S10773   5.321   1.438   5.349 -0.5089  1.1574  0.0259
  106OSM   H13T10774   5.290   1.593   5.428  1.6862 -0.7213 -1.5172
  106OSM   C14S10775   5.110   1.479   5.362 -0.2130 -0.5703  0.0373
  106OSM   H14S10776   5.047   1.530   5.439 -0.7006 -0.3236 -0.5134
  106OSM   H14T10777   5.078   1.373   5.354 -0.5249 -0.4707 -0.0513
  106OSM   C15S10778   5.095   1.542   5.215  0.6521  0.2753 -0.2869
  106OSM   H15S10779   5.113   1.650   5.235 -3.3055  1.3099 -1.5321
  106OSM   H15T10780   4.990   1.528   5.181  0.4395  0.4966  0.2713
  106OSM   C16S10781   5.189   1.479   5.110  0.3874  0.3271 -0.0596
  106OSM   H16S10782   5.174   1.369   5.104 -1.0717  0.4321  1.0409
  106OSM   H16T10783   5.289   1.505   5.151 -0.3531  1.6256  0.9940
  106OSM   C17S10784   5.179   1.561   4.978 -0.1821 -0.2617  0.0169
  106OSM   H17S10785   5.251   1.515   4.908  3.3679 -0.8288  3.6220
  106OSM   H17T10786   5.212   1.665   5.004 -0.3046 -0.2067 -0.0493
  106OSM   C18S10787   5.037   1.585   4.924 -0.4233  0.4865 -0.6855
  106OSM   H18S10788   5.035   1.656   4.838 -0.6552  0.1896 -0.9264
  106OSM   H18T10789   4.961   1.626   4.993 -2.1928  1.0683 -2.8577
  106OSM   H18U10790   4.993   1.488   4.891  0.1391  0.2569 -0.7690
  106OSM    C1F10791   4.707   1.755   6.472  0.3148 -0.2251 -0.1135
  106OSM     OF10792   4.699   1.879   6.486 -0.2989  0.1599 -1.0045
  106OSM    C2F10793   4.601   1.681   6.396  0.0853 -0.1679  0.0243
  106OSM    H2F10794   4.497   1.716   6.411 -0.9433 -3.2364  0.8964
  106OSM    H2G10795   4.606   1.576   6.431  0.2216 -0.1362  0.1019
  106OSM    C3F10796   4.623   1.687   6.248  0.2978 -0.9072 -0.1002
  106OSM    H3F10797   4.718   1.635   6.225  1.9102  2.3065 -1.2047
  106OSM    H3G10798   4.662   1.789   6.227  1.5102 -1.3490 -0.0437
  106OSM    C4F10799   4.507   1.642   6.153  0.2789  0.5427  0.2791
  106OSM    H4F10800   4.434   1.722   6.176  1.1570  1.4201  0.0848
  106OSM    H4G10801   4.474   1.540   6.183 -0.7918  0.5091 -0.9108
  106OSM    C5F10802   4.546   1.639   6.008 -0.4527 -0.6115  0.2779
  106OSM    H5F10803   4.636   1.574   5.995 -1.6907 -2.3063 -0.2107
  106OSM    H5G10804   4.581   1.732   5.959 -0.7404 -0.0597  1.1003
  106OSM    C6F10805   4.444   1.574   5.919  0.2187 -0.5935 -0.0724
  106OSM    H6F10806   4.365   1.649   5.899  1.2284  1.4333  2.9017
  106OSM    H6G10807   4.405   1.476   5.955 -1.7317 -0.0298 -0.5331
  106OSM    C7F10808   4.508   1.542   5.781  0.6898 -0.5744 -0.3239
  106OSM    H7F10809   4.560   1.444   5.786  0.7363 -0.5946 -1.1795
  106OSM    H7G10810   4.571   1.629   5.753  1.2874  0.3562  3.3837
  106OSM    C8F10811   4.397   1.527   5.672  0.1644 -0.2370  0.6837
  106OSM    H8F10812   4.314   1.475   5.725 -0.0708  0.6757  1.2366
  106OSM    H8G10813   4.443   1.461   5.596 -0.3960 -0.9699  0.9694
  106OSM    C9F10814   4.348   1.655   5.608 -0.1532  0.0928 -0.0299
  106OSM    H9F10815   4.365   1.750   5.661  0.3618  1.0376 -1.7997
  106OSM   C10F10816   4.291   1.661   5.484  0.0329 -0.3069  0.1823
  106OSM   H10F10817   4.272   1.764   5.450 -1.1625 -0.2453  0.9983
  106OSM   C11F10818   4.270   1.560   5.377 -0.5895  0.5980 -0.1940
  106OSM   H11F10819   4.164   1.552   5.345 -0.5746 -2.0230  0.1690
  106OSM   H11G10820   4.298   1.462   5.422  1.6040  2.4116  2.7164
  106OSM   C12F10821   4.367   1.572   5.258  0.3362  0.3233 -0.6976
  106OSM   H12F10822   4.358   1.669   5.204 -0.5253 -0.1665 -1.4769
  106OSM   H12G10823   4.334   1.485   5.198  0.1753  0.4425 -0.7861
  106OSM   C13F10824   4.512   1.538   5.296  0.1469 -0.0106  1.1024
  106OSM   H13F10825   4.504   1.443   5.354  1.0926 -1.0937 -0.4884
  106OSM   H13G10826   4.552   1.618   5.363  2.1023  2.6616 -2.8856
  106OSM   C14F10827   4.606   1.532   5.177 -0.7816 -0.4031 -0.2250
  106OSM   H14F10828   4.708   1.529   5.219 -0.1786  0.5369 -1.5336
  106OSM   H14G10829   4.593   1.628   5.123 -0.2315  0.3313  0.9288
  106OSM   C15F10830   4.583   1.420   5.071 -0.2331 -0.1153  0.2450
  106OSM   H15F10831   4.495   1.358   5.093 -1.1946  1.4426  0.9685
  106OSM   H15G10832   4.671   1.355   5.051  0.7431  1.6276 -1.5531
  106OSM   C16F10833   4.555   1.485   4.933  0.4041  0.8971  0.6787
  106OSM   H16F10834   4.651   1.528   4.895  0.6920  0.1294  0.5160
  106OSM   H16G10835   4.485   1.570   4.943 -0.3602  0.1641  1.7564
  106OSM   C17F10836   4.499   1.379   4.839  0.1745 -0.0923 -0.4237
  106OSM   H17F10837   4.399   1.348   4.876  1.5849 -0.4950  3.5158
  106OSM   H17G10838   4.574   1.298   4.847  2.0556  1.6259  0.5072
  106OSM   C18F10839   4.496   1.420   4.689  0.5334 -0.3222  0.9637
  106OSM   H18F10840   4.465   1.336   4.623  0.9428 -0.6313  1.1591
  106OSM   H18G10841   4.594   1.466   4.665 -0.0716  0.9630  0.8819
  106OSM   H18H10842   4.423   1.504   4.685  1.6923  0.6565 -1.1900
  107OSM      N10843   3.821   5.966   7.292  0.7477 -0.4824 -0.1375
  107OSM    C1510844   3.908   5.842   7.317 -0.1342  0.3849 -0.1830
  107OSM   H15A10845   4.009   5.861   7.284  0.3783 -0.2858  0.9161
  107OSM   H15B10846   3.873   5.764   7.250  1.1927 -0.0175 -0.4251
  107OSM   H15C10847   3.906   5.813   7.421 -1.4950  0.3018 -0.2077
  107OSM    C1410848   3.693   5.957   7.369 -0.2011  0.1497  0.0541
  107OSM   H14A10849   3.706   5.970   7.476 -1.8426  0.4469  0.2427
  107OSM   H14B10850   3.635   5.868   7.356 -0.0935 -0.4325  2.9205
  107OSM   H14C10851   3.625   6.035   7.337 -1.1409 -0.5207  0.3808
  107OSM    C1310852   3.906   6.087   7.329  0.1039  0.0183 -0.2912
  107OSM   H13A10853   3.856   6.182   7.318  0.5145  0.3129  0.3129
  107OSM   H13B10854   3.994   6.105   7.268  0.0055  1.5682 -0.0074
  107OSM   H13C10855   3.943   6.092   7.430  0.2567 -3.2858 -0.0778
  107OSM    C1210856   3.792   5.976   7.142  0.5222 -0.0358  0.0437
  107OSM   H12A10857   3.722   5.897   7.120 -0.5344  0.9542 -0.2255
  107OSM   H12B10858   3.883   5.959   7.086 -0.0514  1.2758 -1.3430
  107OSM    C1110859   3.715   6.100   7.098  0.2605 -0.0311  0.1490
  107OSM   H11A10860   3.735   6.105   6.989 -0.9646  1.9144 -0.0327
  107OSM   H11B10861   3.753   6.190   7.151 -2.1919  0.4491  1.1910
  107OSM      P10862   3.482   6.015   7.028 -0.1306 -0.4428  0.2663
  107OSM    O1310863   3.519   5.871   7.033  0.5904  0.3077  0.0156
  107OSM    O1410864   3.342   6.050   7.057  0.4270 -0.0403  0.1277
  107OSM    O1110865   3.534   6.072   6.893 -0.6637 -0.5963  0.5687
  107OSM    O1210866   3.577   6.091   7.129  0.3835 -0.2082  0.3691
  107OSM    C1S10867   3.439   6.110   6.792  0.0025 -0.2589  0.2436
  107OSM    H1S10868   3.358   6.174   6.834  0.8307  1.3915 -0.5493
  107OSM    H1T10869   3.399   6.020   6.741 -1.7680 -0.3055  1.6315
  107OSM     NF10870   3.406   6.257   6.600 -0.6115  0.1668 -0.3883
  107OSM    HNF10871   3.373   6.199   6.526  2.2250  1.1356 -2.6280
  107OSM    C2S10872   3.511   6.198   6.687  0.7956  0.2449  0.0370
  107OSM    H2S10873   3.557   6.286   6.736  0.9453  0.2728 -0.1515
  107OSM    C3S10874   3.613   6.112   6.612  0.2994  0.2664 -0.7449
  107OSM    H3S10875   3.554   6.021   6.589 -0.5203  0.0190  2.0150
  107OSM     O310876   3.718   6.063   6.686  0.7404 -0.7624 -0.1313
  107OSM    HO310877   3.685   6.080   6.774  0.0174  1.5630 -0.7723
  107OSM    C4S10878   3.667   6.176   6.495  0.6179 -0.4486  0.1644
  107OSM    H4S10879   3.615   6.138   6.407 -1.1512 -1.2727  1.4989
  107OSM    C5S10880   3.761   6.273   6.478 -0.6282  0.4105  1.0650
  107OSM    H5S10881   3.821   6.306   6.564  2.2297  1.9801 -1.3235
  107OSM    C6S10882   3.811   6.343   6.348  0.1863 -0.1770  0.2033
  107OSM    H6S10883   3.921   6.352   6.352  0.0901  2.0244 -0.7702
  107OSM    H6T10884   3.767   6.445   6.341 -1.4267 -0.7223  1.6771
  107OSM    C7S10885   3.777   6.274   6.220  0.0067 -0.5516  0.7589
  107OSM    H7S10886   3.680   6.219   6.214  1.1211 -2.6400  1.0210
  107OSM    H7T10887   3.855   6.195   6.211  0.4291 -0.2760  1.8687
  107OSM    C8S10888   3.787   6.377   6.101  0.7400 -0.4298  0.0174
  107OSM    H8S10889   3.891   6.416   6.092  0.9650 -0.9502  0.3642
  107OSM    H8T10890   3.711   6.453   6.129  1.0081  0.2485 -1.0016
  107OSM    C9S10891   3.756   6.306   5.967  0.4176 -0.4302 -0.0754
  107OSM    H9S10892   3.654   6.263   5.972  1.3331 -2.9011 -0.7709
  107OSM    H9T10893   3.820   6.215   5.971  0.2306 -0.5476  0.2870
  107OSM   C10S10894   3.760   6.389   5.832 -0.7388 -0.3938 -0.5832
  107OSM   H10S10895   3.862   6.430   5.813 -1.1292 -0.1570 -2.3606
  107OSM   H10T10896   3.689   6.474   5.843  2.4853  2.8839 -2.6679
  107OSM   C11S10897   3.707   6.309   5.716 -0.2527  0.1602 -0.1629
  107OSM   H11S10898   3.617   6.248   5.739  0.3750 -1.2399 -1.2573
  107OSM   H11T10899   3.782   6.235   5.681  0.1544  1.0922 -1.3539
  107OSM   C12S10900   3.663   6.403   5.597  0.4948  0.5244  0.6001
  107OSM   H12S10901   3.746   6.475   5.578  1.2436 -0.8045 -1.6287
  107OSM   H12T10902   3.578   6.457   5.643  0.4948  0.7014  0.3974
  107OSM   C13S10903   3.628   6.337   5.462 -0.3633  0.7829 -0.2498
  107OSM   H13S10904   3.555   6.256   5.482 -0.6644  0.7042 -1.5386
  107OSM   H13T10905   3.716   6.294   5.411  1.1317 -0.9088  3.4000
  107OSM   C14S10906   3.545   6.437   5.384  0.0488  0.0378 -0.1139
  107OSM   H14S10907   3.579   6.543   5.387 -2.8951  1.0384  1.4315
  107OSM   H14T10908   3.440   6.443   5.419  0.2152  2.6189  0.0912
  107OSM   C15S10909   3.534   6.390   5.238  0.4586  0.7153  0.0534
  107OSM   H15S10910   3.480   6.293   5.246  0.1042  0.6332 -2.4984
  107OSM   H15T10911   3.634   6.372   5.193  0.0431 -0.4494 -0.4705
  107OSM   C16S10912   3.456   6.478   5.149 -0.0056 -0.3225  0.3926
  107OSM   H16S10913   3.510   6.483   5.052 -0.5655 -0.2901  0.0807
  107OSM   H16T10914   3.453   6.582   5.188 -1.3831 -0.0202 -0.4468
  107OSM   C17S10915   3.312   6.431   5.118 -0.3354  0.1580 -0.3224
  107OSM   H17S10916   3.332   6.334   5.067  1.6477 -0.3735  1.3388
  107OSM   H17T10917   3.245   6.495   5.057  0.2339 -0.6678 -1.8654
  107OSM   C18S10918   3.215   6.411   5.240  0.6941  0.4817  0.1253
  107OSM   H18S10919   3.120   6.360   5.215  2.1319 -2.0903 -0.4382
  107OSM   H18T10920   3.186   6.503   5.296  1.8269  1.7806 -1.3116
  107OSM   H18U10921   3.266   6.344   5.313  1.0295 -1.5581 -1.8661
  107OSM    C1F10922   3.333   6.367   6.622  0.4110  0.5829 -0.6195
  107OSM     OF10923   3.324   6.420   6.735 -0.6364 -0.0238 -1.0455
  107OSM    C2F10924   3.248   6.427   6.511  0.0247 -0.2347 -0.4017
  107OSM    H2F10925   3.269   6.536   6.512 -1.0576 -0.0062  1.2114
  107OSM    H2G10926   3.140   6.428   6.538 -0.1435 -2.4336 -0.7709
  107OSM    C3F10927   3.252   6.363   6.364 -0.8222 -0.2801  0.2549
  107OSM    H3F10928   3.236   6.254   6.378  2.0973 -0.8842 -0.3872
  107OSM    H3G10929   3.351   6.381   6.318  0.5695 -3.3570  1.7504
  107OSM    C4F10930   3.143   6.435   6.278  0.1530  0.1009 -1.0941
  107OSM    H4F10931   3.181   6.539   6.283 -1.1328  0.6017 -1.3910
  107OSM    H4G10932   3.044   6.426   6.327 -0.4069  1.5824 -1.9022
  107OSM    C5F10933   3.134   6.373   6.138  0.6226  0.5318  0.6338
  107OSM    H5F10934   3.223   6.388   6.075 -1.5447  2.5712 -2.1807
  107OSM    H5G10935   3.071   6.437   6.073  2.9565 -0.2785 -2.6699
  107OSM    C6F10936   3.107   6.221   6.129  0.4652 -0.0933  0.7255
  107OSM    H6F10937   3.029   6.179   6.197 -0.3435 -1.2442 -0.8384
  107OSM    H6G10938   3.203   6.175   6.159 -0.6280 -3.6399 -0.6330
  107OSM    C7F10939   3.080   6.153   5.985 -0.0478 -0.6473  0.2664
  107OSM    H7F10940   3.175   6.143   5.928 -0.0848  1.7735 -0.3285
  107OSM    H7G10941   3.017   6.223   5.926  2.9172  1.3134 -0.8019
  107OSM    C8F10942   2.995   6.024   5.997  0.0411  0.1695 -0.4733
  107OSM    H8F10943   2.938   6.007   5.904 -1.0282  0.6391  0.0795
  107OSM    H8G10944   2.914   6.023   6.074  1.0158  2.3124  0.6935
  107OSM    C9F10945   3.095   5.916   6.020 -0.5963  0.4740 -0.6958
  107OSM    H9F10946   3.118   5.903   6.127 -1.1647  0.1628 -0.6083
  107OSM   C10F10947   3.148   5.835   5.927  0.2240  0.1227  0.1863
  107OSM   H10F10948   3.212   5.751   5.957 -1.5282 -1.2443  0.2425
  107OSM   C11F10949   3.114   5.825   5.780 -0.2295 -1.0975  0.0079
  107OSM   H11F10950   3.037   5.899   5.751  1.4289  0.7771  0.1844
  107OSM   H11G10951   3.065   5.728   5.756 -1.9084  0.0562 -1.4201
  107OSM   C12F10952   3.234   5.842   5.686 -0.0340  0.3386  0.2991
  107OSM   H12F10953   3.303   5.754   5.688  0.4789  0.7243 -0.0015
  107OSM   H12G10954   3.296   5.927   5.721  1.9519 -0.5459 -0.8554
  107OSM   C13F10955   3.201   5.875   5.538  0.1878 -0.4863  0.4162
  107OSM   H13F10956   3.119   5.950   5.530  0.0331 -0.6011  0.8747
  107OSM   H13G10957   3.173   5.778   5.492  1.1781 -2.0261  2.8586
  107OSM   C14F10958   3.318   5.946   5.465 -0.1476 -0.3536  0.0759
  107OSM   H14F10959   3.402   5.879   5.437 -0.3196 -0.9061  0.8492
  107OSM   H14G10960   3.358   6.027   5.529 -0.1854  1.4129 -2.0251
  107OSM   C15F10961   3.262   6.000   5.335  0.8407  0.5114  0.2462
  107OSM   H15F10962   3.344   6.050   5.279 -0.4929  1.9740 -0.4784
  107OSM   H15G10963   3.189   6.084   5.342  0.3726  0.1317 -0.0361
  107OSM   C16F10964   3.191   5.895   5.246 -0.2923  0.2313  0.1450
  107OSM   H16F10965   3.083   5.890   5.274 -0.5448 -0.0700 -0.8584
  107OSM   H16G10966   3.251   5.804   5.266 -0.3537 -0.5610 -2.8622
  107OSM   C17F10967   3.193   5.927   5.096 -0.2755 -0.6650 -0.8516
  107OSM   H17F10968   3.155   5.844   5.032  0.9486 -1.5486 -0.4747
  107OSM   H17G10969   3.300   5.942   5.070  0.5227 -3.4718  0.3798
  107OSM   C18F10970   3.114   6.053   5.059  0.0121  0.2395 -0.1952
  107OSM   H18F10971   3.105   6.060   4.949  0.0451  0.7915 -0.1633
  107OSM   H18G10972   3.138   6.153   5.099 -0.4055  0.0329  0.6000
  107OSM   H18H10973   3.013   6.050   5.105  0.1969  0.5889  0.2363
  108OSM      N10974   1.674   5.358   7.192  0.1614  0.3137 -0.0892
  108OSM    C1510975   1.777   5.430   7.118  0.3579  0.1233  0.2360
  108OSM   H15A10976   1.842   5.360   7.068 -0.0968  1.4773 -2.4346
  108OSM   H15B10977   1.840   5.491   7.181 -2.2594  0.3617  2.8287
  108OSM   H15C10978   1.725   5.482   7.038 -0.0636  0.5963  0.8051
  108OSM    C1410979   1.737   5.269   7.299  1.2146  0.4965  0.0231
  108OSM   H14A10980   1.659   5.253   7.372 -0.3107  1.6229 -1.3004
  108OSM   H14B10981   1.812   5.318   7.359 -0.9647  1.6380  1.9963
  108OSM   H14C10982   1.783   5.183   7.251 -0.4492 -1.2897  1.4282
  108OSM    C1310983   1.590   5.454   7.267  0.3469 -0.3299  0.1614
  108OSM   H13A10984   1.537   5.520   7.199 -1.7281 -1.3558  0.7095
  108OSM   H13B10985   1.649   5.517   7.332  0.3595 -0.7769  0.5862
  108OSM   H13C10986   1.514   5.408   7.328  0.6834 -0.6295  0.3561
  108OSM    C1210987   1.588   5.267   7.112 -0.3291 -0.6649 -0.1001
  108OSM   H12A10988   1.508   5.221   7.168 -1.5370  0.2619 -1.0032
  108OSM   H12B10989   1.645   5.182   7.077 -0.3401 -1.2683  1.2740
  108OSM    C1110990   1.516   5.330   6.984 -0.6325  0.3406  0.6250
  108OSM   H11A10991   1.462   5.244   6.939 -1.9936  1.8143 -0.6885
  108OSM   H11B10992   1.593   5.365   6.912 -0.2901 -0.5715  0.5433
  108OSM      P10993   1.283   5.404   7.065 -0.2906  0.1328  0.4511
  108OSM    O1310994   1.287   5.263   7.107  0.3177  0.8168 -0.3894
  108OSM    O1410995   1.232   5.503   7.156  0.4559 -0.0833 -0.6511
  108OSM    O1110996   1.196   5.406   6.931 -0.5535  0.3878 -0.4229
  108OSM    O1210997   1.431   5.443   7.020 -0.3162  0.0313 -0.5930
  108OSM    C1S10998   1.239   5.499   6.832  0.5369  0.1759 -0.4863
  108OSM    H1S10999   1.345   5.533   6.831 -0.2276  2.7974  0.4266
  108OSM    H1T11000   1.172   5.587   6.846  0.5561  0.1895 -0.4775
  108OSM     NF11001   1.182   5.565   6.597 -0.4044 -0.6381  0.3323
  108OSM    HNF11002   1.089   5.577   6.564 -1.6004 -2.2584  2.8753
  108OSM    C2S11003   1.199   5.442   6.688 -1.1746 -0.5232 -0.7230
  108OSM    H2S11004   1.288   5.387   6.651  1.5242  2.3494  1.0146
  108OSM    C3S11005   1.076   5.352   6.690  0.5536 -0.1573 -0.1464
  108OSM    H3S11006   1.002   5.402   6.755  0.5187 -0.2883 -0.0848
  108OSM     O311007   1.097   5.224   6.756  0.1779  0.3467 -0.0108
  108OSM    HO311008   1.164   5.240   6.823 -0.3937  1.5445  0.2829
  108OSM    C4S11009   1.019   5.333   6.549  0.3033  0.8734 -0.0990
  108OSM    H4S11010   0.965   5.419   6.506 -1.3820 -0.4917 -0.8444
  108OSM    C5S11011   1.019   5.220   6.476  0.5801  0.0099 -0.2327
  108OSM    H5S11012   1.076   5.134   6.515  2.3940  1.7285  1.1450
  108OSM    C6S11013   0.957   5.194   6.342  0.1797 -0.4276 -0.4204
  108OSM    H6S11014   0.857   5.149   6.356  0.2649 -0.3770  0.4599
  108OSM    H6T11015   1.016   5.125   6.278  0.2010 -0.0677 -0.7885
  108OSM    C7S11016   0.932   5.321   6.262 -0.0789 -0.1818 -0.2155
  108OSM    H7S11017   1.029   5.375   6.257  0.6707 -1.5631 -1.4224
  108OSM    H7T11018   0.867   5.390   6.321 -0.6952  1.7192 -2.9489
  108OSM    C8S11019   0.864   5.305   6.133 -0.4373 -0.0042  0.3612
  108OSM    H8S11020   0.825   5.403   6.097 -0.2109  0.9591  2.6248
  108OSM    H8T11021   0.778   5.235   6.134  0.9431 -1.7642  0.3324
  108OSM    C9S11022   0.964   5.248   6.026  0.4705 -0.2623  0.2228
  108OSM    H9S11023   0.958   5.137   6.032  0.3786 -0.2843 -0.2357
  108OSM    H9T11024   1.067   5.285   6.048  1.1299 -2.0246  0.2277
  108OSM   C10S11025   0.914   5.291   5.881  0.0917  0.1175 -0.3975
  108OSM   H10S11026   0.947   5.397   5.870  2.4899 -0.3884  1.1589
  108OSM   H10T11027   0.805   5.309   5.872 -0.0263 -0.8516 -1.1159
  108OSM   C11S11028   0.970   5.222   5.760  0.2284  0.6232  0.3173
  108OSM   H11S11029   0.940   5.115   5.768  1.0433  0.2220 -1.5537
  108OSM   H11T11030   1.079   5.244   5.762 -0.2661  3.5344  0.0559
  108OSM   C12S11031   0.904   5.274   5.629  0.4356  0.3466 -0.2291
  108OSM   H12S11032   0.933   5.381   5.622  1.6678  0.0115 -0.4233
  108OSM   H12T11033   0.794   5.266   5.642  0.3488 -0.5176 -1.3657
  108OSM   C13S11034   0.961   5.209   5.501  0.1192 -0.6451  1.4149
  108OSM   H13S11035   0.961   5.099   5.487 -1.3793 -0.2707 -2.9045
  108OSM   H13T11036   1.068   5.239   5.499  0.0856  0.4827 -5.1050
  108OSM   C14S11037   0.898   5.271   5.381 -0.1302 -0.6212  0.0690
  108OSM   H14S11038   0.885   5.381   5.380 -1.2633 -0.7370  0.6341
  108OSM   H14T11039   0.794   5.232   5.373 -0.7732  0.6677  1.6979
  108OSM   C15S11040   0.964   5.232   5.245 -0.4503 -0.3892 -0.3114
  108OSM   H15S11041   1.049   5.300   5.223  1.5888 -2.0517  1.8209
  108OSM   H15T11042   0.884   5.246   5.169 -0.0724  0.1107 -0.6238
  108OSM   C16S11043   1.021   5.093   5.224 -0.0975 -0.3513 -0.0377
  108OSM   H16S11044   0.938   5.024   5.249 -0.2678  0.1760  0.8626
  108OSM   H16T11045   1.106   5.073   5.294  1.0881  0.9413 -1.0391
  108OSM   C17S11046   1.063   5.054   5.080 -0.5810 -0.8395  0.2316
  108OSM   H17S11047   0.976   5.053   5.011  0.1268 -1.4328 -0.6722
  108OSM   H17T11048   1.100   4.949   5.086  1.9442  0.0218  0.7299
  108OSM   C18S11049   1.164   5.142   5.020  0.6163 -0.7675 -0.2016
  108OSM   H18S11050   1.191   5.101   4.921 -0.8131 -1.1111 -0.4775
  108OSM   H18T11051   1.251   5.162   5.086 -1.1379 -1.3281  2.4419
  108OSM   H18U11052   1.121   5.244   5.012 -1.0397 -1.1421  2.5302
  108OSM    C1F11053   1.274   5.665   6.588 -0.2968 -0.4710  0.1802
  108OSM     OF11054   1.387   5.634   6.634  0.4756 -0.3509  0.5132
  108OSM    C2F11055   1.224   5.803   6.552 -0.4582 -0.0537 -0.3851
  108OSM    H2F11056   1.216   5.856   6.650  0.0577  1.6986 -1.2624
  108OSM    H2G11057   1.128   5.795   6.496 -0.1972  0.4950 -0.9130
  108OSM    C3F11058   1.320   5.889   6.463 -0.0379 -0.4208 -0.4663
  108OSM    H3F11059   1.351   5.816   6.386 -1.6751 -0.6149 -0.9667
  108OSM    H3G11060   1.399   5.935   6.526 -0.4917 -0.3727  0.0712
  108OSM    C4F11061   1.250   6.003   6.393  0.1601  0.4350 -1.0181
  108OSM    H4F11062   1.203   6.065   6.472 -1.1567 -2.4308  0.6342
  108OSM    H4G11063   1.174   5.942   6.338 -0.9885  0.7834  0.1403
  108OSM    C5F11064   1.338   6.086   6.297  0.0374 -0.0652  0.5513
  108OSM    H5F11065   1.374   6.010   6.225  3.7520 -0.4282  2.5083
  108OSM    H5G11066   1.428   6.117   6.354  0.4288 -0.3587  0.1050
  108OSM    C6F11067   1.266   6.199   6.225 -0.2764 -0.3719 -0.3198
  108OSM    H6F11068   1.318   6.206   6.127  1.8719 -0.9582  0.7088
  108OSM    H6G11069   1.298   6.295   6.272 -1.4281  0.0342 -0.3231
  108OSM    C7F11070   1.111   6.195   6.227 -0.0533 -0.3079 -0.3407
  108OSM    H7F11071   1.073   6.209   6.331 -1.5642  2.0899 -1.1465
  108OSM    H7G11072   1.077   6.091   6.207 -1.8003  0.1162  0.2474
  108OSM    C8F11073   1.041   6.296   6.136  0.2690  0.0399 -0.8996
  108OSM    H8F11074   1.062   6.273   6.029  1.7906 -1.0757 -0.4002
  108OSM    H8G11075   1.092   6.386   6.174  0.4731 -0.0796 -0.8898
  108OSM    C9F11076   0.893   6.337   6.155 -0.6106 -0.1749 -1.0764
  108OSM    H9F11077   0.866   6.364   6.258  3.9820  2.0871 -0.1948
  108OSM   C10F11078   0.804   6.356   6.061  0.0999  0.2373  1.0699
  108OSM   H10F11079   0.699   6.365   6.093 -0.1382  2.0136 -0.1058
  108OSM   C11F11080   0.823   6.337   5.913 -0.8879 -0.3648  0.2027
  108OSM   H11F11081   0.915   6.275   5.903 -1.8678 -2.0002  0.8553
  108OSM   H11G11082   0.845   6.437   5.871 -2.3970 -0.0346  0.1395
  108OSM   C12F11083   0.711   6.271   5.836 -0.3936 -0.0394  0.4000
  108OSM   H12F11084   0.744   6.272   5.730  1.2292  3.6386  0.7999
  108OSM   H12G11085   0.622   6.338   5.841  0.3007  0.7836  2.2598
  108OSM   C13F11086   0.681   6.135   5.895 -0.1822  0.2578 -0.4800
  108OSM   H13F11087   0.645   6.149   6.000 -1.8314 -1.1049 -0.8192
  108OSM   H13G11088   0.777   6.078   5.897 -0.9429 -1.1409  2.7200
  108OSM   C14F11089   0.577   6.059   5.822  0.0298  0.1477  0.1317
  108OSM   H14F11090   0.601   6.070   5.714 -1.1163  0.1256 -0.1413
  108OSM   H14G11091   0.479   6.110   5.831 -1.5015 -2.4992 -0.5251
  108OSM   C15F11092   0.575   5.912   5.855 -0.2466 -0.8401  0.2925
  108OSM   H15F11093   0.560   5.892   5.963  0.7443 -0.7047  0.4723
  108OSM   H15G11094   0.682   5.882   5.845  0.7055  1.9612  0.8998
  108OSM   C16F11095   0.485   5.813   5.784  0.9709 -0.2951  0.4792
  108OSM   H16F11096   0.507   5.829   5.676 -1.9851  2.4880  0.1462
  108OSM   H16G11097   0.377   5.836   5.793  1.1659  0.3495  1.2949
  108OSM   C17F11098   0.500   5.664   5.821  0.0425 -0.2445  0.7365
  108OSM   H17F11099   0.609   5.644   5.811 -0.1194 -1.4041  1.1062
  108OSM   H17G11100   0.451   5.601   5.744 -0.1192 -0.5923  1.1222
  108OSM   C18F11101   0.469   5.623   5.962  0.3127  0.3353  0.0245
  108OSM   H18F11102   0.545   5.671   6.028  3.1725 -1.5330 -1.7059
  108OSM   H18G11103   0.492   5.514   5.961  1.3879  0.5499  0.3381
  108OSM   H18H11104   0.368   5.657   5.997 -0.7666 -0.3496 -2.2519
  109OSM      N11105   4.150   2.448   7.305 -0.4801 -0.1029  0.1023
  109OSM    C1511106   4.092   2.316   7.350 -0.1355  0.1163 -0.1691
  109OSM   H15A11107   4.011   2.277   7.290  0.8515 -0.5514 -1.0917
  109OSM   H15B11108   4.069   2.315   7.456  0.0597 -0.0083 -0.1276
  109OSM   H15C11109   4.161   2.235   7.329 -1.4381 -1.1366  0.2306
  109OSM    C1411110   4.056   2.552   7.356 -0.3630  0.4680  0.1858
  109OSM   H14A11111   3.955   2.538   7.320 -0.4898  0.8392  0.3899
  109OSM   H14B11112   4.105   2.647   7.339 -1.6476  1.1644  0.2499
  109OSM   H14C11113   4.036   2.546   7.462 -0.1605 -0.8017  0.1698
  109OSM    C1311114   4.285   2.466   7.370 -0.1795  0.1954  0.4743
  109OSM   H13A11115   4.270   2.461   7.477  0.1348  0.9456  0.5574
  109OSM   H13B11116   4.331   2.562   7.352  0.1739 -0.3692 -2.0001
  109OSM   H13C11117   4.354   2.391   7.334  0.7105  1.2549 -0.0886
  109OSM    C1211118   4.160   2.460   7.157 -0.3412  0.1681 -0.7812
  109OSM   H12A11119   4.167   2.563   7.126  0.4278  0.1704 -0.6011
  109OSM   H12B11120   4.065   2.417   7.127 -0.9608 -1.1710  2.6372
  109OSM    C1111121   4.267   2.377   7.085 -0.0098  0.0662  0.0410
  109OSM   H11A11122   4.240   2.384   6.978  0.6684 -0.9814 -0.2143
  109OSM   H11B11123   4.256   2.272   7.119  0.4642  0.4591  1.4971
  109OSM      P11124   4.455   2.547   7.033  0.2854  0.1995  0.2324
  109OSM    O1311125   4.365   2.665   7.050 -0.0648 -0.8209  0.2812
  109OSM    O1411126   4.603   2.565   7.061  0.5173 -0.2168  0.1749
  109OSM    O1111127   4.431   2.507   6.879  0.0589  0.3701 -0.1544
  109OSM    O1211128   4.404   2.425   7.115 -0.0197  0.0645 -0.4401
  109OSM    C1S11129   4.518   2.408   6.816  0.6327 -0.7889  0.3498
  109OSM    H1S11130   4.467   2.310   6.818 -0.4642 -0.2586 -0.4966
  109OSM    H1T11131   4.615   2.395   6.869  2.0872  2.8155 -1.1169
  109OSM     NF11132   4.565   2.338   6.568  0.2391 -0.5822  0.3658
  109OSM    HNF11133   4.655   2.312   6.533 -0.1614 -0.8862 -0.4812
  109OSM    C2S11134   4.544   2.447   6.662 -0.9302 -0.9484  0.0052
  109OSM    H2S11135   4.450   2.502   6.638  0.0012  0.6290 -0.1686
  109OSM    C3S11136   4.648   2.558   6.650 -0.1361 -0.4693 -0.6065
  109OSM    H3S11137   4.743   2.528   6.699 -0.4257 -0.7476 -0.2003
  109OSM     O311138   4.613   2.674   6.734  0.2269  0.2019  0.1679
  109OSM    HO311139   4.529   2.659   6.779 -0.0138  2.9028  0.7768
  109OSM    C4S11140   4.660   2.608   6.507  0.6635  0.0885  0.1765
  109OSM    H4S11141   4.566   2.648   6.466  1.4229 -0.0104 -1.7620
  109OSM    C5S11142   4.770   2.637   6.434  0.3488 -0.3077  0.7559
  109OSM    H5S11143   4.870   2.605   6.467 -0.1577 -1.0001  1.6524
  109OSM    C6S11144   4.770   2.698   6.295 -0.5676 -0.4162  0.6102
  109OSM    H6S11145   4.857   2.767   6.289 -0.8129 -0.1700 -0.2038
  109OSM    H6T11146   4.676   2.757   6.281 -0.1055  0.1107 -0.3449
  109OSM    C7S11147   4.772   2.581   6.192  0.4773 -0.0411 -0.5687
  109OSM    H7S11148   4.682   2.515   6.196  1.5928 -1.7456 -2.1117
  109OSM    H7T11149   4.861   2.517   6.208 -0.7619 -1.4477  1.0275
  109OSM    C8S11150   4.791   2.625   6.042  0.3191  0.4751 -0.7959
  109OSM    H8S11151   4.887   2.681   6.041  0.5248  0.1280 -1.6057
  109OSM    H8T11152   4.719   2.704   6.012  0.9427  1.3115 -0.1515
  109OSM    C9S11153   4.820   2.511   5.947 -0.4504 -0.4687  0.2880
  109OSM    H9S11154   4.720   2.475   5.915 -1.5907  2.0336  0.8396
  109OSM    H9T11155   4.887   2.429   5.981  1.5935  1.6892  1.7621
  109OSM   C10S11156   4.886   2.571   5.818 -0.6138 -0.0469 -0.1706
  109OSM   H10S11157   4.981   2.622   5.846 -0.4073 -0.0630 -0.8422
  109OSM   H10T11158   4.822   2.655   5.785 -0.5755  0.7204  1.5883
  109OSM   C11S11159   4.915   2.471   5.706 -0.2317 -0.6373 -0.0648
  109OSM   H11S11160   4.817   2.422   5.687 -1.3133  1.0909  0.7954
  109OSM   H11T11161   4.992   2.394   5.731  1.4567  0.8417 -0.4733
  109OSM   C12S11162   4.955   2.537   5.572 -0.3881 -0.1037 -0.0537
  109OSM   H12S11163   5.064   2.561   5.573 -0.8151  1.9646  0.2494
  109OSM   H12T11164   4.899   2.631   5.558  0.2761  0.0388 -2.0641
  109OSM   C13S11165   4.923   2.459   5.438 -0.1878 -0.8082 -0.7382
  109OSM   H13S11166   4.814   2.453   5.418 -0.3215  0.7848 -0.6127
  109OSM   H13T11167   4.953   2.353   5.455  0.3328 -0.6000 -0.3245
  109OSM   C14S11168   4.990   2.511   5.314 -0.0422  0.2022 -0.1886
  109OSM   H14S11169   5.098   2.488   5.325  0.1335 -0.3928 -2.5083
  109OSM   H14T11170   4.963   2.618   5.323 -3.5065 -0.6348  1.2412
  109OSM   C15S11171   4.932   2.443   5.187 -0.6392 -0.5598 -0.6303
  109OSM   H15S11172   4.825   2.474   5.183 -0.3102  1.0572  1.3170
  109OSM   H15T11173   4.932   2.334   5.207  0.4769 -0.8163 -1.9528
  109OSM   C16S11174   4.996   2.490   5.052  0.1460  0.0474  0.2250
  109OSM   H16S11175   5.088   2.428   5.045 -0.2718 -0.6368  0.6789
  109OSM   H16T11176   5.019   2.598   5.052 -0.2729  0.1404  1.0345
  109OSM   C17S11177   4.904   2.458   4.939  0.0610 -0.0751 -0.6215
  109OSM   H17S11178   4.810   2.518   4.934  0.7357  1.0328 -0.2819
  109OSM   H17T11179   4.878   2.351   4.936  1.3058 -0.3960 -0.5336
  109OSM   C18S11180   4.975   2.481   4.799 -0.2340  0.2837 -0.1244
  109OSM   H18S11181   5.079   2.444   4.802 -0.7839 -1.4379  3.8180
  109OSM   H18T11182   4.982   2.588   4.770  1.2352  0.7968  1.9153
  109OSM   H18U11183   4.918   2.442   4.712  1.7229  0.3730 -1.5107
  109OSM    C1F11184   4.465   2.255   6.535  0.5934 -0.1069 -1.1649
  109OSM     OF11185   4.350   2.283   6.562  0.0459 -0.1427  0.1398
  109OSM    C2F11186   4.503   2.139   6.443  0.2380  0.1356 -0.5782
  109OSM    H2F11187   4.546   2.056   6.502  2.1744 -0.2768 -2.4381
  109OSM    H2G11188   4.587   2.183   6.385  1.6447 -1.3001  0.2887
  109OSM    C3F11189   4.383   2.100   6.349  0.2394 -0.5556  0.1876
  109OSM    H3F11190   4.343   2.194   6.305 -0.2991  0.6980  3.1100
  109OSM    H3G11191   4.297   2.064   6.410 -2.2941  3.8953 -0.2947
  109OSM    C4F11192   4.420   2.000   6.241 -0.9962 -0.6056 -0.1499
  109OSM    H4F11193   4.331   1.984   6.177 -0.4795  1.8053 -1.6060
  109OSM    H4G11194   4.450   1.904   6.289  0.4693  0.8062  1.9460
  109OSM    C5F11195   4.528   2.054   6.142 -0.5395 -0.6379 -0.1838
  109OSM    H5F11196   4.555   1.973   6.070  2.2638 -1.6660  1.8619
  109OSM    H5G11197   4.627   2.066   6.192  0.3186 -2.5395 -1.3175
  109OSM    C6F11198   4.479   2.178   6.068 -0.6713 -0.8082  0.1168
  109OSM    H6F11199   4.477   2.268   6.133 -0.0479 -0.7828  0.1014
  109OSM    H6G11200   4.376   2.151   6.034 -1.2400  1.2978 -0.0091
  109OSM    C7F11201   4.564   2.214   5.954  0.0666  0.1680 -0.1480
  109OSM    H7F11202   4.667   2.193   5.990 -0.7547 -1.0372  1.6283
  109OSM    H7G11203   4.568   2.322   5.929  1.3547  0.2466  0.3073
  109OSM    C8F11204   4.537   2.117   5.832 -0.0160 -0.0670 -0.6308
  109OSM    H8F11205   4.427   2.125   5.821 -0.1847  1.4573  1.4934
  109OSM    H8G11206   4.574   2.017   5.863  1.2283  0.3606 -0.6589
  109OSM    C9F11207   4.625   2.155   5.721 -0.3652 -1.2094  0.9657
  109OSM    H9F11208   4.713   2.215   5.746 -0.4042 -0.4224 -0.6669
  109OSM   C10F11209   4.600   2.140   5.590  1.0289 -0.2474 -0.1195
  109OSM   H10F11210   4.669   2.195   5.523 -0.4498  1.4213 -0.3521
  109OSM   C11F11211   4.483   2.069   5.526  0.3187 -0.0120 -0.7377
  109OSM   H11F11212   4.392   2.106   5.578  0.7528 -0.3852  0.2962
  109OSM   H11G11213   4.478   1.959   5.541 -1.1791  0.0538 -0.5608
  109OSM   C12F11214   4.469   2.103   5.372  0.0495  0.2713 -0.3835
  109OSM   H12F11215   4.551   2.064   5.308  0.3520  1.5983 -0.8349
  109OSM   H12G11216   4.476   2.210   5.343 -2.6795  1.0247  1.2987
  109OSM   C13F11217   4.330   2.070   5.315  0.3009 -0.3758 -0.2225
  109OSM   H13F11218   4.292   1.968   5.335 -0.5859  0.0208  0.1867
  109OSM   H13G11219   4.334   2.075   5.204 -3.6685  0.8209 -0.4472
  109OSM   C14F11220   4.224   2.182   5.351 -0.1694  0.0285 -0.2947
  109OSM   H14F11221   4.267   2.279   5.319 -0.3743 -0.3265 -1.6808
  109OSM   H14G11222   4.200   2.196   5.459 -0.2297  1.2736 -0.4513
  109OSM   C15F11223   4.086   2.150   5.289 -0.1443  0.4138  0.5919
  109OSM   H15F11224   4.010   2.229   5.307 -2.1630 -1.6369  1.5623
  109OSM   H15G11225   4.050   2.059   5.341  1.4298 -0.9757 -0.6283
  109OSM   C16F11226   4.095   2.119   5.141 -0.2463  1.0676  0.4650
  109OSM   H16F11227   4.138   2.019   5.116 -3.0746 -0.2035  0.2664
  109OSM   H16G11228   4.166   2.194   5.100  1.4876 -0.6670  0.1214
  109OSM   C17F11229   3.973   2.145   5.065  0.3168  0.0003  0.9788
  109OSM   H17F11230   3.926   2.241   5.095  0.7260  1.0257 -1.4090
  109OSM   H17G11231   3.901   2.065   5.095 -0.5824  0.7991  1.0069
  109OSM   C18F11232   3.994   2.152   4.909  0.0399  0.6580 -0.2311
  109OSM   H18F11233   3.893   2.174   4.868 -0.2749 -0.0692  0.1372
  109OSM   H18G11234   4.040   2.054   4.881  0.4004  0.2777  1.5680
  109OSM   H18H11235   4.059   2.236   4.877 -0.2646  1.4576  1.1734
  110OSM      N11236   6.319   6.423   7.197 -0.7033 -0.7388 -0.1343
  110OSM    C1511237   6.411   6.410   7.315  0.5174  0.2107 -0.5817
  110OSM   H15A11238   6.513   6.438   7.292  2.6844 -2.1363  4.5908
  110OSM   H15B11239   6.409   6.310   7.357  0.3920 -0.2928 -1.7318
  110OSM   H15C11240   6.387   6.486   7.387  0.2342 -0.4667  0.0528
  110OSM    C1411241   6.318   6.563   7.151 -0.5992  0.1111 -0.5983
  110OSM   H14A11242   6.413   6.614   7.151 -0.5989  0.1386 -1.9744
  110OSM   H14B11243   6.255   6.624   7.214  0.0942 -0.9122  1.1778
  110OSM   H14C11244   6.273   6.577   7.054  0.1752  0.2883 -0.9404
  110OSM    C1311245   6.372   6.330   7.086 -0.6384  0.0826 -0.0609
  110OSM   H13A11246   6.283   6.327   7.024 -0.0790  2.6124 -1.0924
  110OSM   H13B11247   6.395   6.237   7.136 -1.8256  0.5843  1.5243
  110OSM   H13C11248   6.459   6.356   7.029 -1.3456 -1.5819 -2.0239
  110OSM    C1211249   6.187   6.387   7.238 -0.4956  0.0308  0.2276
  110OSM   H12A11250   6.166   6.447   7.325 -0.1525 -0.2187  0.4844
  110OSM   H12B11251   6.188   6.289   7.284 -0.8127  1.5126  3.7114
  110OSM    C1111252   6.072   6.386   7.132 -0.5627  1.0054 -0.9640
  110OSM   H11A11253   6.075   6.484   7.080 -1.0788  1.5265 -0.0398
  110OSM   H11B11254   5.989   6.389   7.206  2.8224  1.0775  3.2922
  110OSM      P11255   5.952   6.238   6.961  0.2269 -0.2357 -0.0255
  110OSM    O1311256   5.907   6.101   6.980 -1.0529  0.7617 -0.4511
  110OSM    O1411257   5.856   6.351   6.971  0.0481  0.3518  0.3054
  110OSM    O1111258   6.027   6.243   6.816 -0.3713 -0.4496  0.2292
  110OSM    O1211259   6.077   6.261   7.061  0.0597  0.1074  0.2633
  110OSM    C1S11260   6.140   6.160   6.789  0.5051  0.0651 -0.8613
  110OSM    H1S11261   6.111   6.053   6.798  1.4441 -0.7369 -5.2997
  110OSM    H1T11262   6.231   6.175   6.851  0.5867  2.3313 -1.4460
  110OSM     NF11263   6.254   6.035   6.594  0.4730  0.3068 -0.0021
  110OSM    HNF11264   6.353   6.042   6.599  0.4320  0.0552  4.0604
  110OSM    C2S11265   6.169   6.147   6.637  0.2477  0.1112  0.0451
  110OSM    H2S11266   6.069   6.138   6.590  0.6660 -0.9280 -0.6750
  110OSM    C3S11267   6.244   6.278   6.585 -0.2135 -0.0656  0.2256
  110OSM    H3S11268   6.353   6.271   6.602  0.0666  0.6654 -1.1102
  110OSM     O311269   6.204   6.397   6.646 -0.8158  0.0845  0.1021
  110OSM    HO311270   6.168   6.376   6.733 -2.5771  0.9188 -0.3753
  110OSM    C4S11271   6.236   6.281   6.428  0.4654  0.2718  0.2895
  110OSM    H4S11272   6.304   6.222   6.365  0.1884  2.0956 -1.8278
  110OSM    C5S11273   6.135   6.339   6.352  0.1340  0.0049  0.0498
  110OSM    H5S11274   6.068   6.401   6.413  0.0032  0.5317 -0.6146
  110OSM    C6S11275   6.106   6.355   6.204 -0.3453  0.0557 -0.2622
  110OSM    H6S11276   6.103   6.463   6.181 -0.6194  0.2811  0.7959
  110OSM    H6T11277   6.008   6.308   6.181 -1.1471  1.6086 -0.0937
  110OSM    C7S11278   6.212   6.271   6.117  0.0838 -0.2411 -0.5990
  110OSM    H7S11279   6.200   6.167   6.154 -2.1567  0.2012  0.0798
  110OSM    H7T11280   6.316   6.301   6.143 -0.4052  0.6221  0.4325
  110OSM    C8S11281   6.186   6.262   5.964 -0.1278 -0.1594  0.7829
  110OSM    H8S11282   6.157   6.366   5.941  1.0720  0.5465  2.2901
  110OSM    H8T11283   6.097   6.202   5.936 -0.3368 -0.3357  1.7708
  110OSM    C9S11284   6.312   6.233   5.876  0.5349  0.1489 -0.9244
  110OSM    H9S11285   6.310   6.123   5.857  1.8462 -0.0662  0.0174
  110OSM    H9T11286   6.400   6.255   5.939 -0.4666  0.0585  0.5448
  110OSM   C10S11287   6.313   6.326   5.755  0.6070  0.7605 -0.4313
  110OSM   H10S11288   6.420   6.340   5.731  1.0658  0.0404  1.0354
  110OSM   H10T11289   6.275   6.424   5.793  1.7575  0.9985  0.1838
  110OSM   C11S11290   6.243   6.263   5.640  0.0696 -0.2580 -0.4156
  110OSM   H11S11291   6.134   6.252   5.660  0.2192 -3.6398 -0.8951
  110OSM   H11T11292   6.279   6.158   5.633  0.6900  0.0584 -2.3406
  110OSM   C12S11293   6.260   6.338   5.505 -0.3118  0.4219 -0.2986
  110OSM   H12S11294   6.364   6.362   5.473 -0.6323 -0.0379 -1.7742
  110OSM   H12T11295   6.206   6.434   5.518 -2.2603 -0.6131 -0.5171
  110OSM   C13S11296   6.174   6.268   5.395 -0.6986  0.5722  0.7128
  110OSM   H13S11297   6.080   6.236   5.445 -0.2856  1.5863  2.2027
  110OSM   H13T11298   6.221   6.177   5.351 -0.7857  1.0549 -0.3872
  110OSM   C14S11299   6.137   6.358   5.287  0.1854  0.1504  0.2318
  110OSM   H14S11300   6.087   6.443   5.338 -0.7261  0.2264 -0.7615
  110OSM   H14T11301   6.066   6.317   5.211  0.1537  2.7640 -1.2598
  110OSM   C15S11302   6.249   6.418   5.202 -0.6461 -0.3318 -0.7907
  110OSM   H15S11303   6.310   6.487   5.263 -1.6845 -1.4413  1.6231
  110OSM   H15T11304   6.202   6.481   5.123 -2.0927  1.8350  1.6526
  110OSM   C16S11305   6.335   6.317   5.137  0.7727  0.8337 -0.2137
  110OSM   H16S11306   6.271   6.236   5.095  1.2941 -0.2642  1.0495
  110OSM   H16T11307   6.387   6.269   5.222  3.1246  0.0709 -1.9898
  110OSM   C17S11308   6.413   6.379   5.021 -0.4634  0.3037 -0.1941
  110OSM   H17S11309   6.344   6.430   4.951 -0.3236  0.7358 -0.0205
  110OSM   H17T11310   6.472   6.304   4.964  1.2220  0.4075  1.3259
  110OSM   C18S11311   6.500   6.495   5.068  0.0399 -0.3193  0.2403
  110OSM   H18S11312   6.564   6.549   4.994 -1.1508  1.0908  0.1821
  110OSM   H18T11313   6.572   6.468   5.148  0.4539  0.4225  0.1336
  110OSM   H18U11314   6.454   6.575   5.130 -0.3624 -2.1024  2.3578
  110OSM    C1F11315   6.206   5.907   6.588  0.6163 -0.0707 -0.6735
  110OSM     OF11316   6.085   5.899   6.608  0.6029  0.7643  0.3855
  110OSM    C2F11317   6.305   5.798   6.558  0.2006 -0.3020 -0.5491
  110OSM    H2F11318   6.317   5.731   6.646  1.4521 -1.1762 -1.3521
  110OSM    H2G11319   6.397   5.859   6.546  0.2419  0.1945  1.7194
  110OSM    C3F11320   6.266   5.723   6.432  1.2007 -0.2348  0.2080
  110OSM    H3F11321   6.164   5.687   6.457  1.1930 -0.7535 -0.5315
  110OSM    H3G11322   6.330   5.633   6.422  3.4899  1.5209 -2.6424
  110OSM    C4F11323   6.257   5.801   6.296 -0.7417 -0.0885 -0.8667
  110OSM    H4F11324   6.359   5.834   6.266 -0.9508 -0.9628 -2.6887
  110OSM    H4G11325   6.197   5.893   6.311 -0.0877  0.0890  0.8366
  110OSM    C5F11326   6.209   5.708   6.182  0.3527 -0.3833  0.2744
  110OSM    H5F11327   6.100   5.690   6.194  0.0510  1.5517  0.6821
  110OSM    H5G11328   6.270   5.617   6.168  1.3808  0.2425  0.5878
  110OSM    C6F11329   6.215   5.783   6.051 -0.5597 -0.4230 -0.0733
  110OSM    H6F11330   6.307   5.845   6.041 -0.5681 -0.5353 -0.9198
  110OSM    H6G11331   6.126   5.849   6.047 -0.1084  0.2916 -4.7792
  110OSM    C7F11332   6.221   5.697   5.921 -1.1662  0.0481  0.1886
  110OSM    H7F11333   6.310   5.630   5.929 -0.8692  0.3805 -0.3144
  110OSM    H7G11334   6.237   5.769   5.839 -1.7301 -0.2351 -0.1772
  110OSM    C8F11335   6.090   5.617   5.900 -0.9966 -0.5383 -0.3254
  110OSM    H8F11336   6.006   5.690   5.900  0.4996  1.2675  0.2355
  110OSM    H8G11337   6.076   5.537   5.975  0.6200  0.7046  1.3950
  110OSM    C9F11338   6.089   5.543   5.767  0.2378 -0.1756  0.2033
  110OSM    H9F11339   6.141   5.447   5.784 -0.5750 -0.2582  2.6847
  110OSM   C10F11340   6.025   5.591   5.657 -0.6675  0.4843 -0.0950
  110OSM   H10F11341   6.009   5.531   5.567 -0.9238 -1.1675  1.0124
  110OSM   C11F11342   5.964   5.730   5.649 -0.1906  0.6604  0.1786
  110OSM   H11F11343   5.983   5.803   5.730 -3.7923  0.5285  1.3249
  110OSM   H11G11344   5.855   5.714   5.665 -0.3920  0.5918 -1.2000
  110OSM   C12F11345   6.001   5.784   5.514 -0.1071  0.4662 -0.3567
  110OSM   H12F11346   5.935   5.743   5.434 -0.0531 -2.2168  0.8746
  110OSM   H12G11347   6.108   5.767   5.491 -0.1686  0.8668 -0.9593
  110OSM   C13F11348   5.979   5.938   5.504 -0.3281  0.2623 -1.1286
  110OSM   H13F11349   6.024   5.960   5.405  2.7058 -1.3729 -0.2285
  110OSM   H13G11350   6.042   6.001   5.570 -1.0391  1.9314 -1.9804
  110OSM   C14F11351   5.830   5.992   5.511 -0.5615  0.2544 -0.8376
  110OSM   H14F11352   5.793   5.969   5.613  0.4216 -1.3611 -0.8014
  110OSM   H14G11353   5.776   5.921   5.445 -1.3086 -1.6526  1.6803
  110OSM   C15F11354   5.816   6.140   5.463  0.5589 -0.0120  0.0030
  110OSM   H15F11355   5.867   6.151   5.365  0.8530 -2.0566 -0.1223
  110OSM   H15G11356   5.864   6.214   5.531 -1.6566  3.5399 -1.9659
  110OSM   C16F11357   5.665   6.182   5.458  0.9720 -0.0225 -0.2181
  110OSM   H16F11358   5.608   6.107   5.398  1.6177  0.3037 -1.2770
  110OSM   H16G11359   5.648   6.277   5.402 -2.1347  0.1181  0.7473
  110OSM   C17F11360   5.598   6.209   5.599 -0.3124  0.5043 -0.4983
  110OSM   H17F11361   5.673   6.261   5.662 -0.3610 -1.7590  1.5732
  110OSM   H17G11362   5.581   6.107   5.639  0.4851  0.4309 -0.3354
  110OSM   C18F11363   5.459   6.277   5.603  0.5465 -0.3984  0.6685
  110OSM   H18F11364   5.463   6.383   5.634  0.9812 -0.1354 -0.2242
  110OSM   H18G11365   5.382   6.215   5.653 -3.4544  0.3017 -3.9037
  110OSM   H18H11366   5.429   6.288   5.496 -0.9517 -1.0327  1.0063
  111OSM      N11367   2.206   6.191   7.091  0.2046 -0.2271  0.2994
  111OSM    C1511368   2.188   6.329   7.144 -0.1482  0.0283  0.2838
  111OSM   H15A11369   2.251   6.352   7.229  1.0700  0.5812 -0.7327
  111OSM   H15B11370   2.088   6.358   7.171  0.0078  0.5453  0.3274
  111OSM   H15C11371   2.224   6.396   7.066 -0.0383  0.9995  1.1477
  111OSM    C1411372   2.155   6.101   7.192  0.0866 -0.1124  0.0834
  111OSM   H14A11373   2.056   6.129   7.226 -0.2235  0.0619 -0.9195
  111OSM   H14B11374   2.211   6.104   7.284 -1.3795  0.6178  0.9978
  111OSM   H14C11375   2.148   6.000   7.154 -2.6268  0.0592 -0.0601
  111OSM    C1311376   2.126   6.174   6.967 -0.1940 -0.3107  0.1859
  111OSM   H13A11377   2.122   6.076   6.922  1.1012  0.0704 -0.8412
  111OSM   H13B11378   2.159   6.247   6.894 -2.6705 -0.5156 -1.2533
  111OSM   H13C11379   2.025   6.208   6.984 -0.4080 -0.6823 -0.3458
  111OSM    C1211380   2.350   6.150   7.060  0.3924 -0.0357  0.6738
  111OSM   H12A11381   2.388   6.213   6.981  0.4025 -1.6302 -0.6591
  111OSM   H12B11382   2.338   6.054   7.010  1.8167  1.1941 -2.3093
  111OSM    C1111383   2.460   6.140   7.163  0.9453 -0.0642  0.5399
  111OSM   H11A11384   2.459   6.237   7.218 -1.0641  1.4836 -1.9961
  111OSM   H11B11385   2.559   6.133   7.115  0.8471  1.8669 -0.0267
  111OSM      P11386   2.484   5.893   7.236  0.2787  0.1841 -0.0327
  111OSM    O1311387   2.624   5.890   7.287 -0.0015 -0.1844  0.4685
  111OSM    O1411388   2.392   5.797   7.300  0.4943 -0.3425  0.1699
  111OSM    O1111389   2.476   5.857   7.085 -0.7156 -0.0684 -0.1648
  111OSM    O1211390   2.428   6.036   7.253 -0.4151 -0.5963 -0.4252
  111OSM    C1S11391   2.533   5.738   7.040 -0.2388 -0.2213 -0.2472
  111OSM    H1S11392   2.468   5.649   7.056 -1.7290  0.7918 -0.5092
  111OSM    H1T11393   2.638   5.720   7.072  0.1768 -2.0347 -2.3347
  111OSM     NF11394   2.608   5.620   6.842 -0.0370  0.1111  0.4326
  111OSM    HNF11395   2.704   5.626   6.815 -0.2839  0.2875 -0.4103
  111OSM    C2S11396   2.547   5.746   6.885 -0.7368 -0.2878  0.3664
  111OSM    H2S11397   2.444   5.756   6.843 -0.9059 -0.0810  0.8174
  111OSM    C3S11398   2.615   5.879   6.836 -0.4589  0.2317  0.3280
  111OSM    H3S11399   2.718   5.883   6.877 -0.0594  0.4660 -0.6909
  111OSM     O311400   2.559   6.003   6.879 -0.0400  0.7831  0.3408
  111OSM    HO311401   2.483   5.973   6.929 -0.0948 -1.3904 -0.9362
  111OSM    C4S11402   2.624   5.875   6.691  0.1002 -0.2891 -0.0993
  111OSM    H4S11403   2.727   5.855   6.656  0.1913  1.0083 -0.6451
  111OSM    C5S11404   2.525   5.901   6.596 -0.5493  0.3346 -0.2433
  111OSM    H5S11405   2.426   5.927   6.637 -0.3994  0.5447 -0.0082
  111OSM    C6S11406   2.521   5.899   6.445  0.0040  0.3996  0.2970
  111OSM    H6S11407   2.453   5.985   6.425 -1.8315 -1.1179 -0.2862
  111OSM    H6T11408   2.468   5.809   6.408 -1.1428  1.4951 -0.8688
  111OSM    C7S11409   2.652   5.904   6.368 -0.1177 -0.5483  0.0961
  111OSM    H7S11410   2.722   5.820   6.386  0.8018  0.4480  1.3161
  111OSM    H7T11411   2.703   5.997   6.403 -2.0524  1.1410 -1.2995
  111OSM    C8S11412   2.626   5.923   6.216  0.2250  0.4190 -0.0030
  111OSM    H8S11413   2.709   5.984   6.175 -0.5278  1.3600 -0.1651
  111OSM    H8T11414   2.535   5.984   6.203 -1.5710 -2.0264  0.3099
  111OSM    C9S11415   2.624   5.789   6.143  0.5341 -0.5256  0.0231
  111OSM    H9S11416   2.594   5.818   6.041  1.0468 -1.1673 -0.3147
  111OSM    H9T11417   2.548   5.717   6.181  0.7522 -0.5841  0.3561
  111OSM   C10S11418   2.767   5.728   6.146  0.1666 -0.0455  0.2463
  111OSM   H10S11419   2.789   5.698   6.251 -0.1745  1.5492  0.7927
  111OSM   H10T11420   2.837   5.812   6.128  1.0285 -0.6288  0.7761
  111OSM   C11S11421   2.797   5.607   6.065  0.1787 -0.4194  0.6240
  111OSM   H11S11422   2.720   5.530   6.086 -0.5955  0.6917  2.0781
  111OSM   H11T11423   2.893   5.558   6.093  0.9263  0.2955 -0.6175
  111OSM   C12S11424   2.780   5.643   5.916  0.2454  0.0729  0.1523
  111OSM   H12S11425   2.832   5.740   5.897  0.3149 -0.0394 -0.2543
  111OSM   H12T11426   2.673   5.666   5.894  0.6511 -0.9211 -3.6989
  111OSM   C13S11427   2.828   5.533   5.824 -0.0065 -0.2363  0.3577
  111OSM   H13S11428   2.767   5.440   5.827  1.5974 -1.4005 -1.3445
  111OSM   H13T11429   2.930   5.511   5.861  0.7624 -1.7168 -2.4263
  111OSM   C14S11430   2.821   5.568   5.677 -0.3744  0.4478 -0.8021
  111OSM   H14S11431   2.861   5.671   5.660  3.2134 -0.0749  3.0477
  111OSM   H14T11432   2.717   5.571   5.638  0.1833  0.3199 -2.3646
  111OSM   C15S11433   2.892   5.466   5.593 -0.2680 -0.0425 -0.1021
  111OSM   H15S11434   2.834   5.372   5.599 -0.1810  0.0110  3.3156
  111OSM   H15T11435   2.989   5.440   5.640  0.2348  0.7261 -0.6860
  111OSM   C16S11436   2.908   5.494   5.446  0.4677  0.2360  0.5971
  111OSM   H16S11437   2.967   5.586   5.425  1.2409 -0.7314 -1.8740
  111OSM   H16T11438   2.805   5.521   5.414  1.1266  0.3663 -1.5823
  111OSM   C17S11439   2.950   5.372   5.360  0.3001  0.2215 -0.2249
  111OSM   H17S11440   2.880   5.293   5.397  0.8763  0.2127  0.9024
  111OSM   H17T11441   3.048   5.339   5.400  0.0287  0.2468  0.4817
  111OSM   C18S11442   2.943   5.393   5.206  0.6637 -0.0318  0.1641
  111OSM   H18S11443   2.954   5.298   5.150 -0.0396 -0.1435  0.2008
  111OSM   H18T11444   3.017   5.466   5.167  0.3488  0.9057  1.2646
  111OSM   H18U11445   2.838   5.425   5.185 -0.0613 -2.1466  0.3459
  111OSM    C1F11446   2.550   5.502   6.835 -0.1728 -0.2981  0.1394
  111OSM     OF11447   2.439   5.491   6.883 -0.4294 -0.8438 -0.4865
  111OSM    C2F11448   2.622   5.388   6.770 -0.5091  0.5764  0.4542
  111OSM    H2F11449   2.714   5.358   6.824  0.4408 -2.6220 -2.5589
  111OSM    H2G11450   2.659   5.430   6.674  2.6809 -1.7696  0.4954
  111OSM    C3F11451   2.532   5.268   6.738  0.9973  0.4951  0.9488
  111OSM    H3F11452   2.449   5.317   6.682  1.4817  0.4448  0.1696
  111OSM    H3G11453   2.482   5.221   6.825  0.1025  1.4380  0.9598
  111OSM    C4F11454   2.585   5.162   6.636  0.1392 -0.2823  0.4772
  111OSM    H4F11455   2.651   5.218   6.566  0.4272 -1.0597  0.1213
  111OSM    H4G11456   2.501   5.116   6.580  1.1189  0.7018 -1.9328
  111OSM    C5F11457   2.657   5.049   6.707  0.0182 -0.8065 -0.4349
  111OSM    H5F11458   2.585   4.976   6.751 -3.2462  0.9694 -2.3743
  111OSM    H5G11459   2.711   5.100   6.789  0.1029 -0.5945 -0.6221
  111OSM    C6F11460   2.759   4.989   6.612  0.0600 -0.5085  0.2029
  111OSM    H6F11461   2.846   5.058   6.608 -0.3712  0.1504  1.7113
  111OSM    H6G11462   2.722   4.982   6.507 -0.5636 -2.4088  0.4977
  111OSM    C7F11463   2.817   4.847   6.652  0.2549 -0.5079 -0.2627
  111OSM    H7F11464   2.738   4.769   6.658 -1.0130  0.6439 -1.3649
  111OSM    H7G11465   2.863   4.847   6.753 -3.1372  0.2644  1.4119
  111OSM    C8F11466   2.926   4.804   6.547  0.2410 -0.5956  1.0204
  111OSM    H8F11467   3.007   4.880   6.552  0.1485 -0.4268  0.1980
  111OSM    H8G11468   2.881   4.813   6.445 -0.9758 -1.2149  1.4820
  111OSM    C9F11469   2.984   4.665   6.556  0.1388 -0.5928 -0.6069
  111OSM    H9F11470   3.019   4.642   6.658 -2.5225 -0.4894  0.3878
  111OSM   C10F11471   3.028   4.581   6.458  0.2696  0.9844 -0.6528
  111OSM   H10F11472   3.049   4.476   6.483 -0.9960  0.8337 -0.1450
  111OSM   C11F11473   3.013   4.606   6.310  0.2220  0.4308 -0.5168
  111OSM   H11F11474   2.959   4.699   6.284  1.4889  1.3563  0.0510
  111OSM   H11G11475   2.969   4.519   6.257 -0.4621  0.4707 -0.0314
  111OSM   C12F11476   3.155   4.630   6.256  0.0932 -0.0565  0.1312
  111OSM   H12F11477   3.207   4.533   6.238 -0.1761 -0.4282  1.2812
  111OSM   H12G11478   3.219   4.692   6.322  0.5146  0.2073 -0.5165
  111OSM   C13F11479   3.156   4.692   6.114 -0.3022  0.4869  1.0055
  111OSM   H13F11480   3.260   4.696   6.076 -1.2187  4.0361 -1.7294
  111OSM   H13G11481   3.129   4.799   6.123  0.7748  1.0158 -1.3319
  111OSM   C14F11482   3.074   4.624   5.998 -0.4158  0.6633  0.6266
  111OSM   H14F11483   2.967   4.617   6.028 -0.1461 -1.6327  1.2348
  111OSM   H14G11484   3.102   4.518   5.977  1.0974  1.5956 -2.7541
  111OSM   C15F11485   3.102   4.698   5.867 -0.7410  0.0568 -0.4173
  111OSM   H15F11486   3.206   4.672   5.836 -1.0051  1.2021 -2.4619
  111OSM   H15G11487   3.094   4.807   5.886 -3.8602  0.1211 -1.5543
  111OSM   C16F11488   3.016   4.657   5.747 -0.0154 -0.1427  0.1188
  111OSM   H16F11489   2.911   4.656   5.783 -0.0030 -1.5357  0.1583
  111OSM   H16G11490   3.025   4.553   5.708 -0.6853  0.1978 -0.9980
  111OSM   C17F11491   3.026   4.766   5.639  0.0743 -0.5980  0.7033
  111OSM   H17F11492   3.134   4.769   5.612 -0.5139 -2.4476 -2.4478
  111OSM   H17G11493   3.006   4.869   5.675  0.6351 -0.5126  0.7866
  111OSM   C18F11494   2.950   4.744   5.504 -0.0026  0.0112 -0.6368
  111OSM   H18F11495   2.841   4.743   5.524  0.2620 -0.2841  0.8941
  111OSM   H18G11496   2.984   4.649   5.456  0.9421  0.3170 -0.5941
  111OSM   H18H11497   2.966   4.833   5.439  0.4805  2.0532  2.1343
  112OSM      N11498   5.806   2.326   7.058  0.1851  0.2734  0.1289
  112OSM    C1511499   5.774   2.466   7.024 -0.2730 -0.1692  0.0733
  112OSM   H15A11500   5.672   2.490   6.998  0.8180  2.7202 -2.1221
  112OSM   H15B11501   5.841   2.511   6.953 -0.0665 -0.5775  0.0082
  112OSM   H15C11502   5.795   2.527   7.112  0.8841 -1.9433  1.0838
  112OSM    C1411503   5.954   2.333   7.090 -0.3081 -0.0738  0.2996
  112OSM   H14A11504   5.995   2.243   7.133 -0.6810  0.2159  1.2809
  112OSM   H14B11505   5.981   2.415   7.154  0.8393  1.7717 -2.3726
  112OSM   H14C11506   6.011   2.352   7.001  0.5276  1.7125  1.1704
  112OSM    C1311507   5.738   2.292   7.185 -0.0131 -0.0617  0.3052
  112OSM   H13A11508   5.765   2.192   7.215  0.4185 -0.6980 -2.0426
  112OSM   H13B11509   5.633   2.310   7.167 -0.2954 -1.5747  0.3174
  112OSM   H13C11510   5.763   2.365   7.260  1.1696  1.3920 -1.4214
  112OSM    C1211511   5.766   2.234   6.944 -0.5677 -0.8424 -0.4350
  112OSM   H12A11512   5.829   2.260   6.861  2.2975  1.0713  2.1081
  112OSM   H12B11513   5.663   2.239   6.911 -0.1791 -1.8391 -1.8834
  112OSM    C1111514   5.795   2.083   6.969  0.2177 -0.5673  0.1869
  112OSM   H11A11515   5.900   2.061   6.998  1.0108  0.1729 -1.9166
  112OSM   H11B11516   5.779   2.033   6.871 -0.5709 -2.2128  1.1084
  112OSM      P11517   5.584   1.951   7.064  0.3287 -0.2479  0.2163
  112OSM    O1311518   5.612   1.821   7.128 -0.1869  0.3211 -0.2641
  112OSM    O1411519   5.474   2.038   7.117  0.6055 -0.6069  0.6308
  112OSM    O1111520   5.575   1.926   6.906  0.5072 -0.1285 -0.4296
  112OSM    O1211521   5.713   2.031   7.074 -0.1349 -1.0311 -0.3025
  112OSM    C1S11522   5.513   2.018   6.816 -0.1469  0.4441  0.0594
  112OSM    H1S11523   5.529   2.124   6.842  1.2527  0.5356 -1.0988
  112OSM    H1T11524   5.402   2.007   6.822 -0.4400  0.7277 -3.2115
  112OSM     NF11525   5.468   2.095   6.584  0.0868 -0.0562  0.8828
  112OSM    HNF11526   5.378   2.067   6.550 -1.0498  0.6169  3.0933
  112OSM    C2S11527   5.531   1.990   6.661 -0.2067 -0.2199  0.1520
  112OSM    H2S11528   5.637   1.994   6.629 -0.8212 -1.0113 -2.1625
  112OSM    C3S11529   5.495   1.848   6.614  0.0256 -0.1026 -0.2276
  112OSM    H3S11530   5.384   1.845   6.611  0.0189  0.2427 -0.4280
  112OSM     O311531   5.550   1.741   6.692 -0.4641  0.6543  0.8079
  112OSM    HO311532   5.567   1.789   6.773  1.4316 -0.3681  1.0511
  112OSM    C4S11533   5.553   1.831   6.478  0.2745  0.4530  0.3549
  112OSM    H4S11534   5.662   1.820   6.470 -0.0425 -2.8774 -1.1007
  112OSM    C5S11535   5.487   1.821   6.362  0.3034 -0.1393  0.3081
  112OSM    H5S11536   5.379   1.839   6.368  0.1741  0.2008 -2.2934
  112OSM    C6S11537   5.560   1.793   6.231 -0.6629  0.4207  0.1155
  112OSM    H6S11538   5.505   1.707   6.188  0.4187 -0.3925  0.3223
  112OSM    H6T11539   5.668   1.770   6.243 -0.6183  0.3913 -0.3521
  112OSM    C7S11540   5.551   1.915   6.134 -0.4343 -0.1501  0.2355
  112OSM    H7S11541   5.615   2.002   6.158  1.1864 -0.9896 -0.8814
  112OSM    H7T11542   5.448   1.957   6.125  0.1959  1.4848  0.2805
  112OSM    C8S11543   5.609   1.868   5.992  0.6375 -0.4393 -0.6246
  112OSM    H8S11544   5.718   1.849   6.004  0.6700 -1.6090 -2.4657
  112OSM    H8T11545   5.606   1.967   5.942  2.4160 -0.7516 -1.4430
  112OSM    C9S11546   5.522   1.772   5.910 -0.1090  0.4055  0.0192
  112OSM    H9S11547   5.423   1.820   5.900  0.2836  0.9643 -1.3096
  112OSM    H9T11548   5.500   1.683   5.974 -3.3435  0.5798 -0.7050
  112OSM   C10S11549   5.574   1.738   5.772  0.0523 -0.5714  0.0002
  112OSM   H10S11550   5.505   1.658   5.738  1.4239 -1.4091 -0.8797
  112OSM   H10T11551   5.674   1.691   5.766 -0.1205 -0.8272 -1.4222
  112OSM   C11S11552   5.570   1.857   5.670  0.4046 -0.2929 -0.4002
  112OSM   H11S11553   5.646   1.932   5.701  1.2363 -1.9569  1.8495
  112OSM   H11T11554   5.466   1.898   5.672  1.2993  2.1329 -0.1318
  112OSM   C12S11555   5.596   1.811   5.534  0.1249  0.2448 -0.1327
  112OSM   H12S11556   5.527   1.724   5.526 -0.0498  0.2092  1.3638
  112OSM   H12T11557   5.699   1.783   5.503  0.0975  1.8076 -1.7973
  112OSM   C13S11558   5.561   1.911   5.427 -0.0675 -0.3002 -0.1821
  112OSM   H13S11559   5.640   1.989   5.421 -0.1692 -0.2932 -3.6629
  112OSM   H13T11560   5.467   1.950   5.472 -1.1776 -1.9653 -0.9328
  112OSM   C14S11561   5.535   1.848   5.296  0.3809  0.1338  0.4337
  112OSM   H14S11562   5.446   1.782   5.303  1.0702 -0.6938  1.7714
  112OSM   H14T11563   5.620   1.788   5.258 -0.0415 -0.0467 -0.2444
  112OSM   C15S11564   5.508   1.947   5.183  0.5774  0.4917  0.4065
  112OSM   H15S11565   5.606   1.991   5.156  0.1006  0.5632 -1.3908
  112OSM   H15T11566   5.436   2.027   5.210 -1.8133 -0.8706 -1.4771
  112OSM   C16S11567   5.474   1.866   5.055  0.4260  0.3043  0.7100
  112OSM   H16S11568   5.386   1.804   5.081 -0.5540  0.2581 -2.3105
  112OSM   H16T11569   5.555   1.801   5.015 -0.9477 -0.4848 -0.9360
  112OSM   C17S11570   5.417   1.951   4.934 -0.1892  0.8582 -0.6505
  112OSM   H17S11571   5.335   2.009   4.981  1.7165  1.2883  2.4895
  112OSM   H17T11572   5.374   1.888   4.854  1.1344 -0.3398 -0.4683
  112OSM   C18S11573   5.509   2.045   4.858 -0.3328 -0.2026  0.4575
  112OSM   H18S11574   5.588   1.984   4.809 -1.6015  0.5333 -2.7246
  112OSM   H18T11575   5.562   2.119   4.922  0.6290 -1.3499  1.0184
  112OSM   H18U11576   5.456   2.114   4.789 -1.1518 -1.9310 -0.7247
  112OSM    C1F11577   5.514   2.218   6.592  0.1689  0.0492  0.4351
  112OSM     OF11578   5.617   2.244   6.647 -0.1238  0.4572 -0.4634
  112OSM    C2F11579   5.426   2.323   6.530 -0.1885 -0.0495 -0.4534
  112OSM    H2F11580   5.433   2.406   6.603 -1.7909 -0.5758  0.3408
  112OSM    H2G11581   5.323   2.283   6.520  0.2131 -0.9724 -1.0084
  112OSM    C3F11582   5.489   2.370   6.395 -0.6772  0.0735 -0.5302
  112OSM    H3F11583   5.593   2.402   6.415 -0.7937 -0.8756  1.9396
  112OSM    H3G11584   5.430   2.456   6.357  1.9585  2.9982  1.5224
  112OSM    C4F11585   5.469   2.262   6.287 -0.0749 -0.1572  0.4391
  112OSM    H4F11586   5.359   2.257   6.271 -0.2503  0.8137  1.2527
  112OSM    H4G11587   5.513   2.166   6.323 -1.1898 -0.9102 -0.1482
  112OSM    C5F11588   5.529   2.300   6.153  0.5488 -0.6755 -0.5163
  112OSM    H5F11589   5.543   2.204   6.099  1.6109 -0.9291  0.1805
  112OSM    H5G11590   5.630   2.346   6.165 -0.2188  2.1929 -3.5412
  112OSM    C6F11591   5.460   2.411   6.071 -0.0565 -0.0483  0.0249
  112OSM    H6F11592   5.485   2.512   6.110 -1.5094  1.1852 -2.0266
  112OSM    H6G11593   5.350   2.406   6.075 -0.0524  0.4632  2.9889
  112OSM    C7F11594   5.495   2.411   5.922  0.5132  0.5621  0.4514
  112OSM    H7F11595   5.604   2.432   5.913  1.2488 -1.6620  2.9575
  112OSM    H7G11596   5.452   2.500   5.871 -1.1494 -0.2722  0.3222
  112OSM    C8F11597   5.451   2.291   5.842 -0.1065 -0.6564 -0.1243
  112OSM    H8F11598   5.354   2.325   5.799  0.4322 -0.3715 -1.1454
  112OSM    H8G11599   5.432   2.214   5.920 -0.4890 -1.6146 -1.1387
  112OSM    C9F11600   5.541   2.239   5.733  0.1672 -0.1887 -0.9866
  112OSM    H9F11601   5.611   2.163   5.771  1.3165 -0.3470 -3.2079
  112OSM   C10F11602   5.517   2.260   5.603 -0.2593  0.4404 -0.1187
  112OSM   H10F11603   5.587   2.208   5.536 -3.0351 -1.8731 -1.4406
  112OSM   C11F11604   5.409   2.350   5.544 -0.4922 -0.2523  0.2824
  112OSM   H11F11605   5.383   2.428   5.619 -1.7411 -1.9474  1.7222
  112OSM   H11G11606   5.317   2.291   5.523 -0.2239 -1.3479  1.9704
  112OSM   C12F11607   5.469   2.425   5.424 -0.3230  0.5129 -0.1512
  112OSM   H12F11608   5.555   2.488   5.453  1.2652 -1.1114 -1.1468
  112OSM   H12G11609   5.387   2.486   5.381 -0.6619 -0.3029 -0.6931
  112OSM   C13F11610   5.501   2.329   5.307 -0.4281 -0.0249  0.3783
  112OSM   H13F11611   5.411   2.268   5.282  0.6150 -2.4403  2.1180
  112OSM   H13G11612   5.581   2.257   5.334  3.7545  3.5296 -1.3537
  112OSM   C14F11613   5.561   2.394   5.178  0.1349 -0.1288  0.2258
  112OSM   H14F11614   5.611   2.319   5.113  0.9225  1.0010 -0.4997
  112OSM   H14G11615   5.646   2.458   5.209  1.7244 -0.3815 -3.2097
  112OSM   C15F11616   5.464   2.478   5.095  0.0928 -0.2513  0.0483
  112OSM   H15F11617   5.419   2.560   5.154 -0.7615 -0.4496 -0.3189
  112OSM   H15G11618   5.384   2.406   5.069 -0.8163  1.1005 -1.0168
  112OSM   C16F11619   5.516   2.525   4.963 -0.2683  0.3292  0.2521
  112OSM   H16F11620   5.550   2.441   4.898 -1.5450  0.4572 -0.6197
  112OSM   H16G11621   5.605   2.589   4.979  0.0219  0.2634 -1.0318
  112OSM   C17F11622   5.408   2.608   4.895 -0.8281  0.0650  1.2059
  112OSM   H17F11623   5.398   2.702   4.952 -1.4810  0.2136  0.8515
  112OSM   H17G11624   5.309   2.559   4.898 -1.3809  1.0394 -0.1261
  112OSM   C18F11625   5.434   2.643   4.744  0.1172  0.0097 -0.2380
  112OSM   H18F11626   5.485   2.742   4.734  1.3177 -0.6475 -0.7889
  112OSM   H18G11627   5.347   2.640   4.675 -0.9677 -0.6135  1.0992
  112OSM   H18H11628   5.508   2.573   4.701  1.6569  0.5765  1.3592
  113OSM      N11629   2.109   3.086   7.175 -0.2044  0.4161  0.3727
  113OSM    C1511630   2.020   3.083   7.058 -0.2687  0.5394 -0.0724
  113OSM   H15A11631   1.947   3.163   7.065 -0.5539  0.3769 -1.0459
  113OSM   H15B11632   1.971   2.987   7.061 -0.7659  0.8054  1.9411
  113OSM   H15C11633   2.071   3.105   6.966  1.1981 -0.5604  0.4426
  113OSM    C1411634   2.192   3.217   7.177 -0.1220  0.5638  0.0680
  113OSM   H14A11635   2.243   3.232   7.083  1.0655 -1.1628  0.4050
  113OSM   H14B11636   2.272   3.205   7.247 -1.9432 -1.9690  1.8774
  113OSM   H14C11637   2.134   3.307   7.196 -1.5519 -0.1010 -0.9385
  113OSM    C1311638   2.030   3.080   7.301 -0.0430  0.1446 -0.1178
  113OSM   H13A11639   2.081   3.043   7.388 -1.4901  0.7032  1.0235
  113OSM   H13B11640   1.954   3.004   7.289  0.1180  0.1008 -0.9328
  113OSM   H13C11641   1.984   3.176   7.322 -0.1568 -0.0052  0.3420
  113OSM    C1211642   2.208   2.966   7.165  0.4699 -0.5892 -0.3622
  113OSM   H12A11643   2.152   2.874   7.155 -1.3829  0.1189  2.3206
  113OSM   H12B11644   2.256   2.973   7.262  0.0518 -1.0660 -0.1154
  113OSM    C1111645   2.300   2.969   7.047  0.0705 -0.1599  0.2841
  113OSM   H11A11646   2.238   2.985   6.956 -0.1984 -1.7562  0.1618
  113OSM   H11B11647   2.344   2.870   7.021  1.0965  0.3774 -0.0938
  113OSM      P11648   2.546   3.030   7.104  0.4385 -0.6091 -0.3574
  113OSM    O1311649   2.605   3.150   7.174 -0.6193  0.0791 -0.0951
  113OSM    O1411650   2.560   2.899   7.176  0.9012  0.2248  0.1714
  113OSM    O1111651   2.625   3.023   6.970 -0.0301 -0.3857 -0.0031
  113OSM    O1211652   2.398   3.067   7.052 -0.3845  0.5621  0.0256
  113OSM    C1S11653   2.587   2.950   6.858 -0.2765 -0.3864  0.5259
  113OSM    H1S11654   2.478   2.967   6.839 -0.3137  1.6400  2.1417
  113OSM    H1T11655   2.596   2.842   6.883  0.0518 -0.5653 -0.3657
  113OSM     NF11656   2.622   2.928   6.615 -0.6987  0.0722 -0.0100
  113OSM    HNF11657   2.653   2.838   6.584  0.1085  0.2981  0.1457
  113OSM    C2S11658   2.682   2.975   6.740  0.2634  0.2775 -0.7241
  113OSM    H2S11659   2.688   3.086   6.732 -1.1588  0.3485 -1.1286
  113OSM    C3S11660   2.829   2.925   6.772  0.0093  0.0131  0.6023
  113OSM    H3S11661   2.827   2.815   6.755  0.5495  0.0087  0.5484
  113OSM     O311662   2.873   2.957   6.905  0.2157  0.0901  0.2326
  113OSM    HO311663   2.796   2.984   6.956  0.9240 -0.2156  1.5212
  113OSM    C4S11664   2.923   2.968   6.657  0.4605 -0.1563 -0.9016
  113OSM    H4S11665   2.948   2.885   6.589 -1.4725 -1.3339 -0.2395
  113OSM    C5S11666   2.991   3.082   6.641  0.3464  0.1179 -0.0764
  113OSM    H5S11667   2.994   3.147   6.729 -0.2351 -2.0598  1.6236
  113OSM    C6S11668   3.089   3.117   6.536  0.1424 -0.6175  0.2232
  113OSM    H6S11669   3.163   3.190   6.575  0.4391 -0.9450  0.2688
  113OSM    H6T11670   3.037   3.175   6.456  0.0303 -0.1217  0.6472
  113OSM    C7S11671   3.159   3.003   6.467 -0.0811 -0.4762  0.4955
  113OSM    H7S11672   3.083   2.945   6.410  0.5648 -0.1298 -0.7736
  113OSM    H7T11673   3.220   2.950   6.543  0.5854  0.1550  0.4063
  113OSM    C8S11674   3.265   3.052   6.367 -0.5098 -0.6686 -0.1734
  113OSM    H8S11675   3.351   3.085   6.428  0.2587 -1.1040 -0.9871
  113OSM    H8T11676   3.241   3.152   6.325  2.6031 -0.8853 -2.8991
  113OSM    C9S11677   3.309   2.954   6.260 -0.1232  0.1491 -0.9058
  113OSM    H9S11678   3.223   2.907   6.207 -0.6476  0.8486 -0.6922
  113OSM    H9T11679   3.373   2.872   6.298 -1.5819 -1.2601 -1.3460
  113OSM   C10S11680   3.399   3.022   6.152  0.5170  0.8769 -0.3587
  113OSM   H10S11681   3.450   2.939   6.098 -0.2141 -1.1905  1.9700
  113OSM   H10T11682   3.475   3.087   6.201 -1.8907  3.2496  0.4261
  113OSM   C11S11683   3.315   3.103   6.055  0.7136  0.8875 -0.5726
  113OSM   H11S11684   3.255   3.175   6.116 -1.9273 -2.4102  1.1077
  113OSM   H11T11685   3.243   3.034   6.006  0.1666  1.1450 -0.1492
  113OSM   C12S11686   3.378   3.176   5.940 -0.0611 -0.8440 -0.1749
  113OSM   H12S11687   3.396   3.108   5.854 -3.1058 -0.7195 -1.0259
  113OSM   H12T11688   3.472   3.213   5.987  0.0318  0.4136 -1.2937
  113OSM   C13S11689   3.293   3.296   5.894 -0.0250  0.5053 -0.0993
  113OSM   H13S11690   3.302   3.379   5.967  1.7317  0.9503 -0.7531
  113OSM   H13T11691   3.186   3.273   5.878 -0.5662  1.5714  1.7152
  113OSM   C14S11692   3.361   3.360   5.775  0.4567  0.1965 -0.0351
  113OSM   H14S11693   3.457   3.396   5.817 -0.4484 -0.7849  3.1104
  113OSM   H14T11694   3.295   3.445   5.747 -0.4668 -0.9646 -1.5644
  113OSM   C15S11695   3.374   3.286   5.644  0.2123  0.1420  0.0696
  113OSM   H15S11696   3.269   3.259   5.621 -0.1468  0.9398  0.7267
  113OSM   H15T11697   3.426   3.192   5.672 -0.1015 -0.3424 -0.9416
  113OSM   C16S11698   3.435   3.361   5.532  0.1010 -0.0340  0.1884
  113OSM   H16S11699   3.451   3.298   5.442  1.6772 -0.2998  0.6337
  113OSM   H16T11700   3.535   3.404   5.551 -0.3091  1.0103  0.0616
  113OSM   C17S11701   3.344   3.476   5.484 -0.5933 -0.4044  0.4024
  113OSM   H17S11702   3.377   3.557   5.551 -1.1595 -0.7130  1.0650
  113OSM   H17T11703   3.236   3.452   5.494 -0.9582  0.8614 -0.2662
  113OSM   C18S11704   3.372   3.523   5.346  0.2833  0.4939 -0.1273
  113OSM   H18S11705   3.359   3.442   5.272 -0.9338  0.3916  0.1720
  113OSM   H18T11706   3.470   3.574   5.332 -0.5163  3.2769  2.9641
  113OSM   H18U11707   3.295   3.597   5.313  0.3912 -0.2168 -2.0576
  113OSM    C1F11708   2.507   2.973   6.556  0.0777 -0.4460  0.3668
  113OSM     OF11709   2.441   3.067   6.601 -0.1860  0.3816  0.3618
  113OSM    C2F11710   2.447   2.887   6.442 -0.8400 -0.4886 -0.6285
  113OSM    H2F11711   2.367   2.824   6.487  1.0511 -0.2085  3.6547
  113OSM    H2G11712   2.527   2.824   6.398  2.0669  2.0088  0.6703
  113OSM    C3F11713   2.390   2.974   6.326  0.3227 -0.0985  0.3338
  113OSM    H3F11714   2.457   3.061   6.312  1.2671 -1.0766 -1.7548
  113OSM    H3G11715   2.292   3.019   6.353 -0.1038  0.1851 -1.5181
  113OSM    C4F11716   2.397   2.904   6.189 -0.1661  0.2540 -0.1011
  113OSM    H4F11717   2.378   2.984   6.114  2.3784  2.1223  1.1115
  113OSM    H4G11718   2.313   2.833   6.182 -0.6584  0.4826  2.5116
  113OSM    C5F11719   2.528   2.840   6.150 -0.2840 -0.4589  0.3061
  113OSM    H5F11720   2.565   2.748   6.199  0.2581  0.6539  2.0739
  113OSM    H5G11721   2.602   2.918   6.177 -2.0074  1.7324 -0.9326
  113OSM    C6F11722   2.537   2.822   5.998  0.8026  0.3791 -0.3738
  113OSM    H6F11723   2.442   2.776   5.963  0.3253  0.9541  0.1211
  113OSM    H6G11724   2.622   2.757   5.970  1.7328  1.3316  0.1687
  113OSM    C7F11725   2.565   2.945   5.921 -0.0605 -0.8668  0.1153
  113OSM    H7F11726   2.656   2.996   5.961  0.6857 -1.2686 -1.0081
  113OSM    H7G11727   2.489   3.025   5.930  0.1359 -0.5189 -1.1263
  113OSM    C8F11728   2.587   2.927   5.767  0.4251  0.5156 -0.2996
  113OSM    H8F11729   2.689   2.886   5.754  0.0444 -1.2923  1.9842
  113OSM    H8G11730   2.595   3.030   5.724  0.2507  0.1541 -1.2319
  113OSM    C9F11731   2.475   2.855   5.690  0.1529 -0.1202  0.4029
  113OSM    H9F11732   2.379   2.910   5.688 -0.3873 -1.0370 -1.3892
  113OSM   C10F11733   2.486   2.733   5.642 -0.3770  0.9478  0.0848
  113OSM   H10F11734   2.401   2.676   5.603 -0.2949  0.4338  0.6482
  113OSM   C11F11735   2.609   2.645   5.654 -0.8834  0.7810  0.0347
  113OSM   H11F11736   2.572   2.555   5.708 -0.1522  1.2997  1.4651
  113OSM   H11G11737   2.694   2.694   5.707 -0.3029  1.2398 -1.2786
  113OSM   C12F11738   2.666   2.596   5.516 -0.4120 -0.7670  0.6280
  113OSM   H12F11739   2.591   2.543   5.454 -0.3725  0.9430 -0.9511
  113OSM   H12G11740   2.744   2.517   5.522  1.7803  0.8900 -2.8457
  113OSM   C13F11741   2.727   2.707   5.432  0.3623 -0.2662  0.3538
  113OSM   H13F11742   2.838   2.697   5.427  0.4973  1.0004  0.3823
  113OSM   H13G11743   2.704   2.798   5.492 -2.4188 -0.6669 -0.0094
  113OSM   C14F11744   2.678   2.724   5.290  0.5908  0.0212  0.7096
  113OSM   H14F11745   2.567   2.720   5.294  0.4272  2.5971  0.3670
  113OSM   H14G11746   2.715   2.645   5.221  2.9746  1.7874 -0.1746
  113OSM   C15F11747   2.704   2.869   5.237 -0.2091  0.4993  0.2320
  113OSM   H15F11748   2.813   2.890   5.226 -0.1269 -0.2260 -0.4136
  113OSM   H15G11749   2.663   2.943   5.309 -0.8751  1.8484 -1.4477
  113OSM   C16F11750   2.627   2.888   5.106 -0.5684 -0.0049 -0.6728
  113OSM   H16F11751   2.521   2.877   5.137 -0.2985  1.6343  0.9940
  113OSM   H16G11752   2.659   2.816   5.027 -1.6400  0.4650 -1.5493
  113OSM   C17F11753   2.645   3.026   5.037  1.2666 -0.3162  0.2642
  113OSM   H17F11754   2.751   3.032   5.004  1.3009  1.5363  0.6158
  113OSM   H17G11755   2.638   3.094   5.125  2.8713  3.1410 -2.0757
  113OSM   C18F11756   2.540   3.040   4.927 -0.5586  0.0545 -0.5211
  113OSM   H18F11757   2.442   3.079   4.961 -0.0787 -0.1245  1.1759
  113OSM   H18G11758   2.521   2.942   4.878 -0.0787 -0.4324  0.2446
  113OSM   H18H11759   2.571   3.115   4.852 -2.1209  1.7412  0.4397
  114OSM      N11760   1.525   1.450   7.209 -0.2794 -0.3066  0.4512
  114OSM    C1511761   1.553   1.351   7.322 -0.2650  0.1404 -0.1393
  114OSM   H15A11762   1.495   1.262   7.303  0.7368 -0.1851 -1.9216
  114OSM   H15B11763   1.512   1.388   7.415 -0.2313 -1.6293  0.6165
  114OSM   H15C11764   1.660   1.335   7.330 -0.1311  1.1986  0.3892
  114OSM    C1411765   1.577   1.588   7.241  0.1552 -0.2801  0.6802
  114OSM   H14A11766   1.594   1.649   7.154  2.8601 -1.1050  0.5032
  114OSM   H14B11767   1.682   1.578   7.267  0.6172 -3.0578 -1.6804
  114OSM   H14C11768   1.512   1.638   7.311  0.7092 -0.3414  1.2590
  114OSM    C1311769   1.608   1.411   7.086 -0.9931  0.7068  0.2344
  114OSM   H13A11770   1.714   1.423   7.097 -1.0372  0.3964  1.1202
  114OSM   H13B11771   1.586   1.471   6.999 -2.1996  1.3917  0.9800
  114OSM   H13C11772   1.586   1.307   7.069 -1.5284  1.1607 -2.3242
  114OSM    C1211773   1.378   1.461   7.171  0.3088  0.9369 -0.4361
  114OSM   H12A11774   1.338   1.368   7.133  0.7745  0.5409  0.0289
  114OSM   H12B11775   1.358   1.540   7.101  0.8412  1.2800 -0.2033
  114OSM    C1111776   1.280   1.490   7.288 -0.1146 -0.4945  0.5621
  114OSM   H11A11777   1.285   1.417   7.372  0.3516 -2.1816 -0.8728
  114OSM   H11B11778   1.178   1.487   7.242 -0.6167 -1.8192  1.6824
  114OSM      P11779   1.214   1.742   7.308 -0.0634 -0.3340  0.0609
  114OSM    O1311780   1.099   1.764   7.399  0.2081  0.9458  0.9927
  114OSM    O1411781   1.306   1.859   7.296  0.1678 -0.4431  0.3957
  114OSM    O1111782   1.154   1.709   7.162  0.2861  0.2702 -0.0794
  114OSM    O1211783   1.296   1.615   7.343  0.3583 -0.7255 -0.3591
  114OSM    C1S11784   1.243   1.760   7.056  0.4169 -0.1883  0.9104
  114OSM    H1S11785   1.337   1.703   7.045 -1.6754 -3.4362 -3.0558
  114OSM    H1T11786   1.256   1.870   7.066 -0.8262 -0.0667  1.4541
  114OSM     NF11787   1.267   1.778   6.813  0.1770 -0.3863 -0.1266
  114OSM    HNF11788   1.271   1.862   6.760  0.9670 -0.3522 -0.0238
  114OSM    C2S11789   1.171   1.760   6.913  0.3777  0.2148 -0.1078
  114OSM    H2S11790   1.124   1.659   6.910  0.0321  0.3364  0.9122
  114OSM    C3S11791   1.054   1.857   6.906  0.0075  0.2156 -0.4431
  114OSM    H3S11792   1.092   1.952   6.951  1.6952 -0.8056  0.3601
  114OSM     O311793   0.949   1.830   7.000 -0.4718 -1.3814 -0.0919
  114OSM    HO311794   0.968   1.749   7.048 -1.7184 -1.9188 -0.4534
  114OSM    C4S11795   0.986   1.868   6.778 -0.3620 -0.3829 -0.1269
  114OSM    H4S11796   0.944   1.776   6.734 -3.0464  1.0923 -0.9063
  114OSM    C5S11797   1.000   1.978   6.695 -0.3253  0.7624  0.1876
  114OSM    H5S11798   1.058   2.065   6.728 -0.6145  0.2747  2.0583
  114OSM    C6S11799   0.952   1.986   6.554 -0.0561  0.1539 -0.3332
  114OSM    H6S11800   1.035   2.014   6.487  2.1927 -1.7379  1.4938
  114OSM    H6T11801   0.878   2.070   6.554 -0.0954  0.1404  0.9398
  114OSM    C7S11802   0.889   1.854   6.506 -0.0063  0.1757  1.0060
  114OSM    H7S11803   0.805   1.833   6.576 -0.4628 -0.8021  0.1988
  114OSM    H7T11804   0.955   1.767   6.520 -0.6070 -0.0394  2.7694
  114OSM    C8S11805   0.839   1.846   6.358 -0.5958 -0.1266  0.0766
  114OSM    H8S11806   0.768   1.930   6.342  0.2383  0.5569 -0.0653
  114OSM    H8T11807   0.794   1.746   6.340 -0.9370  0.4807 -3.1386
  114OSM    C9S11808   0.954   1.867   6.248 -0.3972 -0.1187 -0.5100
  114OSM    H9S11809   1.031   1.790   6.274  2.3806  2.8966  0.9188
  114OSM    H9T11810   1.005   1.965   6.257  1.7151 -1.2735  1.1481
  114OSM   C10S11811   0.901   1.849   6.098 -0.5886  0.1205  0.0702
  114OSM   H10S11812   0.836   1.758   6.096  0.3171 -0.5609  0.7752
  114OSM   H10T11813   0.979   1.852   6.019 -0.6127  2.6806  0.0689
  114OSM   C11S11814   0.823   1.972   6.064 -0.4463 -0.1269 -1.0060
  114OSM   H11S11815   0.883   2.047   6.008 -0.9355  0.4975 -0.7034
  114OSM   H11T11816   0.796   2.028   6.156  1.4547  0.9817 -1.0616
  114OSM   C12S11817   0.707   1.950   5.961  0.1416 -0.3139 -0.2817
  114OSM   H12S11818   0.639   2.037   5.971  1.7067  1.0216 -0.9335
  114OSM   H12T11819   0.653   1.854   5.980  1.2779 -0.9583 -0.2042
  114OSM   C13S11820   0.755   1.950   5.813 -0.0870 -0.1183  0.2118
  114OSM   H13S11821   0.819   1.860   5.818  1.1238  0.7446  0.7244
  114OSM   H13T11822   0.813   2.041   5.785  1.0880 -1.6943 -2.9362
  114OSM   C14S11823   0.642   1.928   5.711  0.2463  0.1536  1.0022
  114OSM   H14S11824   0.560   2.001   5.724  1.9239  2.1831  0.6696
  114OSM   H14T11825   0.604   1.826   5.734 -0.4272  0.3133  0.6283
  114OSM   C15S11826   0.701   1.924   5.569  0.1690 -0.1811 -0.6713
  114OSM   H15S11827   0.783   1.850   5.562  0.2447 -0.5687  2.6540
  114OSM   H15T11828   0.734   2.029   5.553 -0.2357  0.1839  0.7353
  114OSM   C16S11829   0.590   1.903   5.461 -0.2439 -0.8215 -0.9441
  114OSM   H16S11830   0.500   1.968   5.466  0.4485  0.1703 -0.9464
  114OSM   H16T11831   0.571   1.794   5.473  1.2058 -0.9981  0.0056
  114OSM   C17S11832   0.647   1.909   5.323 -0.5332  0.5504 -0.0725
  114OSM   H17S11833   0.739   1.847   5.313 -0.6550  0.4109 -0.3301
  114OSM   H17T11834   0.680   2.011   5.295 -0.6580  0.4059 -0.7684
  114OSM   C18S11835   0.550   1.870   5.211  0.7455  0.0128  0.6095
  114OSM   H18S11836   0.493   1.958   5.174  0.9936 -0.2516 -0.4341
  114OSM   H18T11837   0.485   1.782   5.232 -0.3683  0.9836  1.3767
  114OSM   H18U11838   0.599   1.837   5.117 -1.0993  0.7062 -0.6601
  114OSM    C1F11839   1.363   1.686   6.792  0.4335 -0.2357 -0.2526
  114OSM     OF11840   1.361   1.579   6.854 -0.3186 -0.4030  0.6809
  114OSM    C2F11841   1.478   1.719   6.699  1.3933 -0.4412  0.5679
  114OSM    H2F11842   1.563   1.649   6.711  1.8057  0.2679  2.0810
  114OSM    H2G11843   1.505   1.825   6.719  0.7686 -0.2375  0.3712
  114OSM    C3F11844   1.431   1.729   6.548  0.3644 -0.3918  0.8615
  114OSM    H3F11845   1.518   1.742   6.480 -0.5133  0.5315 -0.1333
  114OSM    H3G11846   1.359   1.811   6.527 -0.2335 -1.2358 -0.4914
  114OSM    C4F11847   1.339   1.610   6.507 -0.6148  0.1198  0.6637
  114OSM    H4F11848   1.247   1.619   6.568 -1.2518  0.9880 -0.4046
  114OSM    H4G11849   1.389   1.513   6.531 -1.1781  0.0112  1.4533
  114OSM    C5F11850   1.304   1.613   6.351 -0.7627 -0.3255  0.2800
  114OSM    H5F11851   1.397   1.637   6.295 -0.6358 -1.0160  0.1935
  114OSM    H5G11852   1.236   1.701   6.351 -2.0183 -1.2519  0.9524
  114OSM    C6F11853   1.243   1.484   6.307 -0.3004 -0.1066  0.0567
  114OSM    H6F11854   1.184   1.456   6.396 -0.4717  2.3089  0.7675
  114OSM    H6G11855   1.322   1.405   6.300  0.7892  0.8164  1.3797
  114OSM    C7F11856   1.147   1.492   6.194 -0.2084 -0.8266 -0.0708
  114OSM    H7F11857   1.060   1.561   6.195 -0.0061 -0.5701 -0.0883
  114OSM    H7G11858   1.106   1.390   6.177  1.6455 -1.6101 -0.0674
  114OSM    C8F11859   1.211   1.527   6.058 -0.2610 -0.2535 -0.1475
  114OSM    H8F11860   1.274   1.443   6.022  0.7240  0.7217 -0.7852
  114OSM    H8G11861   1.279   1.614   6.068  0.9508 -1.2209  0.1658
  114OSM    C9F11862   1.118   1.555   5.946  0.6250 -1.1394  0.2742
  114OSM    H9F11863   1.026   1.605   5.979  1.5883  1.5224 -0.7893
  114OSM   C10F11864   1.134   1.534   5.812  0.4451 -0.5735 -0.3237
  114OSM   H10F11865   1.049   1.569   5.750 -2.3119 -4.8506  0.5786
  114OSM   C11F11866   1.252   1.479   5.741 -0.5765  0.0803 -0.4747
  114OSM   H11F11867   1.253   1.369   5.756 -0.8317  0.1876  0.4086
  114OSM   H11G11868   1.336   1.523   5.798  0.4855 -1.3672 -0.8769
  114OSM   C12F11869   1.253   1.509   5.591  0.1360  0.1736 -0.0072
  114OSM   H12F11870   1.353   1.470   5.564 -0.6204 -2.9494  1.2272
  114OSM   H12G11871   1.244   1.616   5.564  1.4608  0.5181  0.8542
  114OSM   C13F11872   1.147   1.423   5.505  0.1977  0.3982  1.1255
  114OSM   H13F11873   1.050   1.477   5.493 -0.7640 -1.6056 -0.7256
  114OSM   H13G11874   1.137   1.332   5.567  1.6575 -0.7779 -0.3004
  114OSM   C14F11875   1.190   1.368   5.366  0.1717 -0.4872  0.0762
  114OSM   H14F11876   1.106   1.330   5.305  1.6822 -0.3612 -2.1842
  114OSM   H14G11877   1.266   1.288   5.377 -1.0160 -2.1106 -2.7742
  114OSM   C15F11878   1.266   1.461   5.279  0.4746 -0.1803  0.2628
  114OSM   H15F11879   1.357   1.502   5.327  0.2589  0.9825 -0.2995
  114OSM   H15G11880   1.200   1.543   5.244  1.6459  1.0913  0.9764
  114OSM   C16F11881   1.316   1.393   5.150 -1.1144  0.1360 -0.3703
  114OSM   H16F11882   1.230   1.348   5.095 -2.3707 -0.9396  2.2727
  114OSM   H16G11883   1.378   1.304   5.176  1.2486  1.8747  0.2822
  114OSM   C17F11884   1.406   1.477   5.062 -0.4390  0.2192 -0.1706
  114OSM   H17F11885   1.463   1.399   5.007 -2.0591 -2.4722  1.7046
  114OSM   H17G11886   1.486   1.520   5.126  1.4407 -0.0809 -2.1958
  114OSM   C18F11887   1.350   1.581   4.976 -0.2133 -0.4669 -0.2185
  114OSM   H18F11888   1.311   1.662   5.041  0.8068 -1.7846  2.1698
  114OSM   H18G11889   1.269   1.538   4.912  0.3275 -1.5931 -0.1756
  114OSM   H18H11890   1.425   1.624   4.907 -1.0420  1.6536  0.1220
  115OSM      N11891   1.536   3.029   7.330  0.2766  0.1353  0.0178
  115OSM    C1511892   1.561   3.050   7.476 -0.7083  0.3605  0.0651
  115OSM   H15A11893   1.594   3.149   7.504  0.4098  0.4775 -1.5219
  115OSM   H15B11894   1.629   2.970   7.500 -1.1817 -0.1121 -0.1646
  115OSM   H15C11895   1.473   3.037   7.536  0.3764 -0.6716  1.5034
  115OSM    C1411896   1.446   3.138   7.291  0.2137  1.1345  0.5907
  115OSM   H14A11897   1.437   3.142   7.184 -1.2504  0.6626  0.6690
  115OSM   H14B11898   1.485   3.232   7.326  1.8245  0.1012  1.7415
  115OSM   H14C11899   1.348   3.129   7.336 -0.1315 -1.9383 -0.5513
  115OSM    C1311900   1.662   3.052   7.254  0.0344  0.0171 -0.0292
  115OSM   H13A11901   1.648   3.053   7.147  1.0666 -0.6342 -0.1811
  115OSM   H13B11902   1.729   2.971   7.277  0.3840 -0.7792 -3.3159
  115OSM   H13C11903   1.708   3.144   7.288 -0.7643 -0.9445  4.1532
  115OSM    C1211904   1.485   2.886   7.308  0.7307 -0.3414 -0.4105
  115OSM   H12A11905   1.409   2.863   7.381  2.0442 -2.4769  0.3969
  115OSM   H12B11906   1.561   2.813   7.334  1.4276  0.2862 -0.6396
  115OSM    C1111907   1.430   2.849   7.172  0.1262 -0.8465 -0.2758
  115OSM   H11A11908   1.412   2.739   7.171 -2.4091 -0.5056  0.5960
  115OSM   H11B11909   1.503   2.872   7.092  0.1042 -0.5134 -0.1994
  115OSM      P11910   1.269   2.955   7.001 -0.3132 -0.4106  0.0128
  115OSM    O1311911   1.260   2.832   6.921  0.6720 -0.3494 -0.4956
  115OSM    O1411912   1.147   3.044   7.010  0.4540 -0.1467  1.0561
  115OSM    O1111913   1.392   3.039   6.950 -0.6648 -0.2328 -0.4007
  115OSM    O1211914   1.307   2.919   7.147 -0.0185 -0.1089 -0.6222
  115OSM    C1S11915   1.464   3.022   6.832  0.3594 -0.0289 -0.2816
  115OSM    H1S11916   1.416   2.943   6.770 -4.3079  3.0379 -1.0768
  115OSM    H1T11917   1.562   2.981   6.862 -0.2821 -0.5737  1.1585
  115OSM     NF11918   1.548   3.138   6.625  0.2114  0.1925  0.1004
  115OSM    HNF11919   1.627   3.193   6.597 -0.9323  1.6151 -0.4163
  115OSM    C2S11920   1.480   3.159   6.760 -0.1316  0.0234  0.0487
  115OSM    H2S11921   1.379   3.201   6.747 -0.0798 -0.2968 -1.7547
  115OSM    C3S11922   1.556   3.268   6.842 -0.3869  0.0029  0.0264
  115OSM    H3S11923   1.661   3.233   6.852  0.5903  2.0162 -2.2851
  115OSM     O311924   1.486   3.291   6.969  0.3566 -0.4763  0.0813
  115OSM    HO311925   1.433   3.213   6.985 -0.4563 -0.2678 -1.4201
  115OSM    C4S11926   1.573   3.394   6.764  0.8457 -0.6158  0.2996
  115OSM    H4S11927   1.674   3.412   6.723  0.3876 -2.3126 -1.7352
  115OSM    C5S11928   1.475   3.482   6.732  0.7047  0.1986  0.0979
  115OSM    H5S11929   1.374   3.466   6.774  0.4961 -0.0835 -0.4960
  115OSM    C6S11930   1.493   3.599   6.650  0.4135 -0.0037  0.6364
  115OSM    H6S11931   1.512   3.687   6.715 -1.5793  1.6931 -0.9569
  115OSM    H6T11932   1.396   3.620   6.601  0.7814  2.0860  0.7105
  115OSM    C7S11933   1.607   3.589   6.545  0.0350 -0.1940  0.1835
  115OSM    H7S11934   1.709   3.598   6.587  0.9050  2.1729 -2.1953
  115OSM    H7T11935   1.613   3.685   6.490  1.9260 -1.0080 -1.1356
  115OSM    C8S11936   1.609   3.466   6.449 -0.3342 -0.0127 -0.5569
  115OSM    H8S11937   1.507   3.431   6.421 -1.2884 -0.0295  2.5763
  115OSM    H8T11938   1.645   3.372   6.495 -1.1856 -1.0050 -1.8536
  115OSM    C9S11939   1.694   3.501   6.327 -0.8193 -0.5611  0.3495
  115OSM    H9S11940   1.799   3.523   6.356 -0.7100 -0.5841 -0.0201
  115OSM    H9T11941   1.644   3.594   6.291  1.3327  0.2357 -0.7439
  115OSM   C10S11942   1.681   3.385   6.223 -0.3434 -0.4157  0.0486
  115OSM   H10S11943   1.573   3.369   6.207 -0.3379 -1.5863  1.0777
  115OSM   H10T11944   1.720   3.296   6.276 -0.9464  0.3708  1.8642
  115OSM   C11S11945   1.743   3.414   6.085  0.1464 -0.2808  0.8941
  115OSM   H11S11946   1.853   3.404   6.099 -0.0433 -1.4040  1.7215
  115OSM   H11T11947   1.721   3.519   6.058  0.0854 -1.2946 -3.9623
  115OSM   C12S11948   1.699   3.312   5.976 -0.1373 -0.6021 -0.1045
  115OSM   H12S11949   1.589   3.303   5.963  0.1347 -2.9035 -1.3870
  115OSM   H12T11950   1.723   3.212   6.018  0.9634  0.5310  2.1442
  115OSM   C13S11951   1.763   3.328   5.842 -0.4258  0.2532  0.1635
  115OSM   H13S11952   1.873   3.314   5.838 -0.7189 -2.3396 -3.2371
  115OSM   H13T11953   1.730   3.428   5.804  0.1607  0.4025  0.0454
  115OSM   C14S11954   1.706   3.222   5.738 -0.8266 -0.1109 -0.6156
  115OSM   H14S11955   1.598   3.245   5.727 -0.7301  0.6460 -0.0795
  115OSM   H14T11956   1.730   3.124   5.785 -0.9869  0.2850  0.3115
  115OSM   C15S11957   1.765   3.235   5.594  0.0374  0.0373 -0.3662
  115OSM   H15S11958   1.729   3.162   5.518 -2.3445 -0.2006  0.8922
  115OSM   H15T11959   1.872   3.209   5.607 -0.4483 -0.3372  4.9746
  115OSM   C16S11960   1.735   3.369   5.528  0.3106 -0.0945 -0.1059
  115OSM   H16S11961   1.802   3.379   5.440 -2.0252  0.5299 -1.9022
  115OSM   H16T11962   1.755   3.457   5.594 -1.3395 -0.0934  0.4422
  115OSM   C17S11963   1.591   3.377   5.466 -0.6144  0.8888  0.6985
  115OSM   H17S11964   1.501   3.403   5.527 -0.9966 -0.2075  0.6239
  115OSM   H17T11965   1.564   3.276   5.428 -1.1059  0.6709  1.6025
  115OSM   C18S11966   1.591   3.468   5.336 -0.3348  0.0299  0.0830
  115OSM   H18S11967   1.498   3.455   5.277  0.3853  0.1879 -1.1446
  115OSM   H18T11968   1.671   3.429   5.268  0.0156  1.0677 -0.1157
  115OSM   H18U11969   1.632   3.568   5.361  0.5391 -0.4764  0.7235
  115OSM    C1F11970   1.502   3.055   6.538 -0.5879 -0.0409  0.4759
  115OSM     OF11971   1.383   3.032   6.531 -0.0114  0.3262  0.4839
  115OSM    C2F11972   1.604   3.015   6.444 -0.1130  0.6272 -0.0400
  115OSM    H2F11973   1.671   2.940   6.492 -0.4563 -0.1843 -0.7896
  115OSM    H2G11974   1.668   3.103   6.423  1.0144  0.2282  1.5450
  115OSM    C3F11975   1.552   2.965   6.306  0.1694  0.3593 -0.2936
  115OSM    H3F11976   1.471   3.034   6.274  0.1029  1.1082  1.3714
  115OSM    H3G11977   1.500   2.870   6.329  2.8598 -1.2232 -0.2449
  115OSM    C4F11978   1.664   2.942   6.209 -0.2444  0.6651 -0.0855
  115OSM    H4F11979   1.734   2.863   6.242 -2.0536 -0.6831  0.6844
  115OSM    H4G11980   1.720   3.038   6.207 -0.7828  0.9710 -1.1529
  115OSM    C5F11981   1.605   2.906   6.073  0.2348  0.3036 -0.2118
  115OSM    H5F11982   1.549   2.993   6.031 -1.1516 -0.2978  0.3164
  115OSM    H5G11983   1.531   2.823   6.071  0.1384  0.3925 -0.3897
  115OSM    C6F11984   1.708   2.847   5.970  0.0464 -0.5928 -0.1592
  115OSM    H6F11985   1.763   2.766   6.022  1.5832  0.8697  0.5892
  115OSM    H6G11986   1.773   2.932   5.940  1.6001 -1.8086 -0.3847
  115OSM    C7F11987   1.643   2.783   5.843 -0.5899  0.4863  0.0887
  115OSM    H7F11988   1.582   2.866   5.801 -0.7550 -0.4526 -1.6010
  115OSM    H7G11989   1.574   2.700   5.874  0.2423 -0.2587 -0.0091
  115OSM    C8F11990   1.739   2.733   5.738 -0.1189  0.4306  0.0219
  115OSM    H8F11991   1.677   2.674   5.668 -0.0551  0.2103  0.1473
  115OSM    H8G11992   1.803   2.653   5.783 -0.9566 -0.8989 -1.0780
  115OSM    C9F11993   1.824   2.833   5.663 -0.1238 -0.3049 -0.1606
  115OSM    H9F11994   1.909   2.880   5.716  0.1506 -0.2067 -0.6801
  115OSM   C10F11995   1.819   2.860   5.534 -0.8017 -0.0340  0.6478
  115OSM   H10F11996   1.889   2.931   5.488  0.2076 -1.3221  0.1165
  115OSM   C11F11997   1.720   2.805   5.431  0.2899 -0.7418  0.3700
  115OSM   H11F11998   1.630   2.761   5.478 -0.4752  0.6447  0.2535
  115OSM   H11G11999   1.766   2.742   5.352  0.0712  2.9035 -2.9557
  115OSM   C12F12000   1.661   2.917   5.342 -0.0263 -0.0842 -0.0302
  115OSM   H12F12001   1.594   2.981   5.403 -2.4470 -1.6809 -0.8877
  115OSM   H12G12002   1.585   2.877   5.272 -2.4367  2.0542  1.2111
  115OSM   C13F12003   1.762   2.983   5.247 -0.3680 -0.2426  0.2576
  115OSM   H13F12004   1.804   2.913   5.172  0.2412  1.7336 -1.3386
  115OSM   H13G12005   1.842   3.021   5.315 -0.8865 -1.5505  1.6647
  115OSM   C14F12006   1.703   3.100   5.174  0.4300 -0.0269  0.0699
  115OSM   H14F12007   1.667   3.177   5.245 -0.2024 -1.8641  1.8264
  115OSM   H14G12008   1.614   3.068   5.116  0.0543  1.8473 -0.4732
  115OSM   C15F12009   1.806   3.169   5.079  0.1263 -0.5277  0.3692
  115OSM   H15F12010   1.759   3.216   4.991  0.0675 -1.7708 -0.2839
  115OSM   H15G12011   1.856   3.082   5.031 -3.3047 -0.6554 -3.5003
  115OSM   C16F12012   1.897   3.271   5.150 -0.1388  0.4513  0.1500
  115OSM   H16F12013   1.932   3.219   5.241  1.1130 -0.6330 -0.9115
  115OSM   H16G12014   1.842   3.363   5.180 -0.4721 -0.0973  1.2521
  115OSM   C17F12015   2.015   3.313   5.063  0.0586  0.4893 -0.3414
  115OSM   H17F12016   2.075   3.385   5.122  0.0587  0.5845 -0.4565
  115OSM   H17G12017   1.966   3.360   4.975 -1.4127 -1.8092 -0.8580
  115OSM   C18F12018   2.109   3.197   5.020  0.0966 -0.0982  1.1010
  115OSM   H18F12019   2.041   3.130   4.963 -2.2101  4.1696 -1.7699
  115OSM   H18G12020   2.151   3.147   5.109  1.4369 -1.3986 -0.1996
  115OSM   H18H12021   2.185   3.231   4.946  0.4619  0.3319  1.6699
  116OSM      N12022   2.663   6.775   7.549 -0.2649 -0.0799  0.2169
  116OSM    C1512023   2.554   6.874   7.543  0.1134 -0.2355  0.6109
  116OSM   H15A12024   2.480   6.856   7.620 -1.3570  2.2700 -0.0830
  116OSM   H15B12025   2.513   6.873   7.443  2.3367  1.2012 -0.3734
  116OSM   H15C12026   2.579   6.977   7.564  0.1441 -0.5998  2.5756
  116OSM    C1412027   2.725   6.769   7.682  0.1593 -0.0664  0.1982
  116OSM   H14A12028   2.809   6.701   7.689  0.5093  0.4369  1.1084
  116OSM   H14B12029   2.650   6.755   7.759 -0.5310  1.4616 -0.1553
  116OSM   H14C12030   2.768   6.865   7.708 -1.8717  2.0646 -3.4870
  116OSM    C1312031   2.603   6.637   7.523  0.1682  0.0860 -0.2185
  116OSM   H13A12032   2.506   6.621   7.569 -0.3990 -3.1248 -2.2387
  116OSM   H13B12033   2.675   6.563   7.553  2.6095  0.7106 -3.9097
  116OSM   H13C12034   2.589   6.611   7.420  1.1212  0.1360 -0.3659
  116OSM    C1212035   2.767   6.807   7.441  0.0620  0.3906 -0.2250
  116OSM   H12A12036   2.843   6.730   7.444  0.7029  0.9081 -1.9373
  116OSM   H12B12037   2.828   6.889   7.475  2.0444 -0.1070 -2.3751
  116OSM    C1112038   2.706   6.841   7.296  0.1930  0.0252 -0.1421
  116OSM   H11A12039   2.631   6.763   7.270 -0.8115  0.5266  1.1579
  116OSM   H11B12040   2.790   6.836   7.224  0.2321  0.3599 -0.1185
  116OSM      P12041   2.727   7.109   7.309  0.1716  0.1282  0.0958
  116OSM    O1312042   2.627   7.221   7.329 -0.0574 -0.2851 -0.2710
  116OSM    O1412043   2.838   7.102   7.410 -0.1714  0.2720 -0.6227
  116OSM    O1112044   2.779   7.127   7.160 -0.2911 -0.7971  0.8264
  116OSM    O1212045   2.649   6.972   7.289 -0.1537  0.6076 -0.4345
  116OSM    C1S12046   2.725   7.058   7.047 -0.2721  0.7456  0.2517
  116OSM    H1S12047   2.618   7.031   7.054 -0.1560  0.2580  0.1797
  116OSM    H1T12048   2.775   6.959   7.047 -1.4351  0.1093 -1.5701
  116OSM     NF12049   2.679   7.094   6.811 -0.2207  0.0140 -0.1865
  116OSM    HNF12050   2.709   7.006   6.773 -1.4994 -0.1676 -0.8540
  116OSM    C2S12051   2.767   7.140   6.926  0.1319 -0.4311  0.6934
  116OSM    H2S12052   2.750   7.249   6.942  0.5242 -0.1830 -0.4513
  116OSM    C3S12053   2.920   7.122   6.893  1.1145 -0.2700  0.0991
  116OSM    H3S12054   2.934   7.012   6.886  0.7340 -0.6633  3.7390
  116OSM     O312055   3.015   7.174   6.986  0.2146 -0.5019 -0.6083
  116OSM    HO312056   2.965   7.197   7.065  2.6782  1.0229  0.6588
  116OSM    C4S12057   2.951   7.183   6.763  0.1951 -0.5122  0.9771
  116OSM    H4S12058   2.883   7.267   6.744  0.8904 -0.1209  0.1525
  116OSM    C5S12059   3.046   7.146   6.676  0.6273 -0.1384  0.7276
  116OSM    H5S12060   3.096   7.049   6.689 -0.0281 -0.9062 -1.7894
  116OSM    C6S12061   3.062   7.193   6.532  0.0364  0.7246  0.0670
  116OSM    H6S12062   3.074   7.104   6.467  1.5648 -0.2459  1.6058
  116OSM    H6T12063   3.154   7.253   6.520  0.7010 -0.4418 -0.8885
  116OSM    C7S12064   2.941   7.275   6.495 -0.2908  0.7785  0.7828
  116OSM    H7S12065   2.925   7.367   6.555 -1.5415  1.7308 -0.9265
  116OSM    H7T12066   2.848   7.214   6.500 -0.1813  0.2561 -1.8631
  116OSM    C8S12067   2.957   7.324   6.350 -0.3303  0.2539  0.1382
  116OSM    H8S12068   2.857   7.364   6.326 -0.9604 -1.5422 -0.3568
  116OSM    H8T12069   2.961   7.241   6.276 -2.7010  0.5334 -0.3775
  116OSM    C9S12070   3.073   7.428   6.326  0.5889 -0.2296 -0.3748
  116OSM    H9S12071   3.163   7.376   6.288 -0.6188 -0.5868 -2.9337
  116OSM    H9T12072   3.101   7.478   6.421  1.6679 -0.5103 -0.5370
  116OSM   C10S12073   3.041   7.523   6.208 -0.4129  0.6392 -0.2722
  116OSM   H10S12074   3.092   7.620   6.219  0.1684  0.4632 -1.2932
  116OSM   H10T12075   2.931   7.541   6.213 -0.7913  0.0822 -3.5881
  116OSM   C11S12076   3.056   7.466   6.068 -0.2249  0.1691 -0.0678
  116OSM   H11S12077   3.016   7.364   6.058  0.4587 -0.0807 -0.3518
  116OSM   H11T12078   3.166   7.461   6.049 -0.4442 -3.0603 -0.9913
  116OSM   C12S12079   2.999   7.552   5.951  0.3487 -0.7500 -0.6604
  116OSM   H12S12080   3.027   7.659   5.949 -2.7687  0.1599 -1.3785
  116OSM   H12T12081   2.890   7.572   5.962  0.7140  0.7982  0.6021
  116OSM   C13S12082   3.025   7.485   5.816  0.3669 -0.2567  0.8473
  116OSM   H13S12083   2.981   7.382   5.813  0.0059 -0.0849  0.0737
  116OSM   H13T12084   3.133   7.469   5.799  0.2273 -0.1015 -0.2249
  116OSM   C14S12085   2.964   7.559   5.695  0.3636 -0.5096 -0.5420
  116OSM   H14S12086   3.019   7.656   5.686  0.3241 -0.4306  0.0280
  116OSM   H14T12087   2.857   7.581   5.711  0.4406  0.3584 -1.1527
  116OSM   C15S12088   2.983   7.477   5.569 -0.0325  0.1892  0.3812
  116OSM   H15S12089   2.945   7.373   5.582  1.6185 -0.3761  0.9134
  116OSM   H15T12090   3.091   7.470   5.548  0.5463  1.2877  2.6581
  116OSM   C16S12091   2.913   7.555   5.447 -0.2663  0.7845  0.8999
  116OSM   H16S12092   2.955   7.657   5.439 -0.1374  0.7363  0.9510
  116OSM   H16T12093   2.804   7.550   5.462 -0.0846 -4.2614  2.4307
  116OSM   C17S12094   2.926   7.479   5.312 -0.6787  0.4862 -0.1427
  116OSM   H17S12095   3.031   7.488   5.274  0.2129 -3.7997  0.7116
  116OSM   H17T12096   2.861   7.531   5.239 -0.2593  0.2308 -0.7097
  116OSM   C18S12097   2.895   7.329   5.298  0.4095  0.0771 -0.5066
  116OSM   H18S12098   2.891   7.290   5.194  0.2865 -0.4074 -0.3252
  116OSM   H18T12099   2.803   7.311   5.358  0.9889 -0.4136  0.2423
  116OSM   H18U12100   2.971   7.271   5.354 -0.3801 -0.1595  0.3433
  116OSM    C1F12101   2.556   7.141   6.796  0.1001  0.6671 -0.5955
  116OSM     OF12102   2.514   7.230   6.873  0.6271  0.2783 -0.4509
  116OSM    C2F12103   2.451   7.063   6.719 -0.4261 -1.1339  0.9115
  116OSM    H2F12104   2.359   7.049   6.780 -0.9246  0.2435  0.5006
  116OSM    H2G12105   2.488   6.962   6.690  0.7238 -0.4151 -0.2088
  116OSM    C3F12106   2.422   7.133   6.585 -0.3441  0.2489 -1.0109
  116OSM    H3F12107   2.369   7.231   6.585  0.1110  0.5421  1.1117
  116OSM    H3G12108   2.358   7.060   6.531 -1.7142 -1.3192  2.4389
  116OSM    C4F12109   2.555   7.151   6.502 -0.2893 -0.0588 -0.0091
  116OSM    H4F12110   2.628   7.075   6.537  0.1622 -0.4183 -1.6708
  116OSM    H4G12111   2.593   7.255   6.510 -1.0555  0.2155  0.1177
  116OSM    C5F12112   2.534   7.113   6.354  0.3187  0.5817 -0.4728
  116OSM    H5F12113   2.446   7.169   6.317 -0.5330 -1.2973 -1.3869
  116OSM    H5G12114   2.498   7.008   6.362  0.3153  0.4213 -2.1572
  116OSM    C6F12115   2.659   7.111   6.272 -0.3682  0.4231  0.0136
  116OSM    H6F12116   2.737   7.059   6.332 -0.2947 -0.4746 -0.8449
  116OSM    H6G12117   2.692   7.216   6.254 -0.2540  0.2790 -0.6399
  116OSM    C7F12118   2.658   7.033   6.132  0.0329 -0.5608  0.0994
  116OSM    H7F12119   2.678   6.926   6.153  2.9599  0.5331  4.0974
  116OSM    H7G12120   2.742   7.081   6.079  0.6086 -0.4511  1.0829
  116OSM    C8F12121   2.530   7.070   6.048  0.5002 -0.0579 -0.5659
  116OSM    H8F12122   2.448   7.034   6.114  0.7854 -0.1513 -0.2629
  116OSM    H8G12123   2.531   7.003   5.959 -2.5254 -1.8785  0.6006
  116OSM    C9F12124   2.505   7.216   6.012 -0.1467 -0.6397 -0.6956
  116OSM    H9F12125   2.471   7.279   6.095 -3.2329 -2.3533 -0.5236
  116OSM   C10F12126   2.535   7.271   5.897 -0.9631 -0.4804  0.5329
  116OSM   H10F12127   2.500   7.373   5.878  0.7981  0.2679  1.0789
  116OSM   C11F12128   2.593   7.210   5.766  0.1983 -0.6511 -0.3880
  116OSM   H11F12129   2.512   7.147   5.725  0.3285 -0.8346 -0.3637
  116OSM   H11G12130   2.682   7.156   5.804  0.0632  0.8802  2.4108
  116OSM   C12F12131   2.632   7.310   5.650  0.6025 -0.0458 -0.5458
  116OSM   H12F12132   2.693   7.258   5.573 -1.6330 -1.5218 -1.4466
  116OSM   H12G12133   2.681   7.395   5.701  0.8856 -0.5336  0.0123
  116OSM   C13F12134   2.513   7.349   5.561  0.3337 -0.0572 -0.1813
  116OSM   H13F12135   2.445   7.417   5.617 -0.1682 -0.6047 -0.1138
  116OSM   H13G12136   2.453   7.256   5.553 -2.3830  1.7252 -2.3351
  116OSM   C14F12137   2.554   7.395   5.424  0.7561  0.0814  0.2956
  116OSM   H14F12138   2.595   7.302   5.377 -1.5299 -0.9433  0.2134
  116OSM   H14G12139   2.619   7.485   5.416  1.3917 -0.4357 -0.5574
  116OSM   C15F12140   2.430   7.418   5.326 -0.1826 -0.5505  0.5461
  116OSM   H15F12141   2.360   7.500   5.354 -1.0497 -1.5053  1.2593
  116OSM   H15G12142   2.368   7.327   5.338  0.9293 -1.2149  1.4442
  116OSM   C16F12143   2.464   7.430   5.180 -0.6168 -0.4256  0.6153
  116OSM   H16F12144   2.528   7.520   5.166  0.1783 -0.7503  1.9921
  116OSM   H16G12145   2.372   7.456   5.123 -1.3897 -2.7927  0.6956
  116OSM   C17F12146   2.519   7.301   5.105 -1.2476 -0.5195  0.1336
  116OSM   H17F12147   2.456   7.212   5.126 -0.8798 -0.9363 -0.4882
  116OSM   H17G12148   2.616   7.281   5.155 -0.9501  1.4509  0.4459
  116OSM   C18F12149   2.538   7.326   4.957 -0.0304 -0.4322  0.6211
  116OSM   H18F12150   2.557   7.235   4.896  0.4783 -0.9780  1.5662
  116OSM   H18G12151   2.621   7.395   4.934 -1.6857  1.3177 -0.4021
  116OSM   H18H12152   2.450   7.371   4.906  1.0380  0.7690 -0.1962
  117OSM      N12153   1.823   4.651   7.190  0.3301  0.0094  0.4174
  117OSM    C1512154   1.773   4.552   7.085 -0.7645 -0.0116 -0.1447
  117OSM   H15A12155   1.839   4.467   7.084  1.1386  1.2204  3.1063
  117OSM   H15B12156   1.780   4.602   6.990  0.9817 -0.2591 -0.1752
  117OSM   H15C12157   1.673   4.519   7.110 -0.9289  1.0616  0.7020
  117OSM    C1412158   1.723   4.761   7.191  0.0487 -0.3887  0.2246
  117OSM   H14A12159   1.632   4.725   7.237  0.8562 -0.6009  1.7236
  117OSM   H14B12160   1.714   4.797   7.090  1.8681  0.5891  0.3732
  117OSM   H14C12161   1.761   4.847   7.244 -0.4390 -0.7115  1.1334
  117OSM    C1312162   1.816   4.585   7.326 -0.5951 -0.1822 -0.2263
  117OSM   H13A12163   1.862   4.487   7.331 -1.4222 -0.6044 -0.6628
  117OSM   H13B12164   1.713   4.566   7.354 -0.6370  2.6331  1.9842
  117OSM   H13C12165   1.868   4.646   7.398 -0.3081 -0.9069  0.1892
  117OSM    C1212166   1.966   4.705   7.164  0.3432  0.1672  0.0204
  117OSM   H12A12167   2.035   4.625   7.189  0.2111  0.0155 -0.1032
  117OSM   H12B12168   1.979   4.792   7.226 -1.5920  0.2056  0.4102
  117OSM    C1112169   1.990   4.750   7.019  0.3497  0.2931 -0.7013
  117OSM   H11A12170   1.972   4.657   6.962  0.4212 -1.2431  1.6429
  117OSM   H11B12171   2.098   4.775   7.015  1.0424 -0.8757  4.3494
  117OSM      P12172   1.925   5.006   7.026  0.6715  0.0295 -0.3475
  117OSM    O1312173   1.912   5.015   7.176 -0.9069  0.1905 -0.0132
  117OSM    O1412174   2.049   5.064   6.970  0.6820 -1.0189  0.8582
  117OSM    O1112175   1.799   5.084   6.957  0.8815 -0.2092  0.0010
  117OSM    O1212176   1.904   4.854   6.980 -0.1553  0.2297  0.2996
  117OSM    C1S12177   1.792   5.104   6.814  0.0661  0.5214 -0.5808
  117OSM    H1S12178   1.890   5.122   6.766  0.7332 -0.4270  0.3833
  117OSM    H1T12179   1.739   5.200   6.797  0.8546  0.7722 -1.7149
  117OSM     NF12180   1.689   5.025   6.599 -0.2604  0.2175 -0.1772
  117OSM    HNF12181   1.607   5.076   6.578 -0.1375  0.6524  0.3643
  117OSM    C2S12182   1.704   4.991   6.742  0.2063  0.5155 -0.0426
  117OSM    H2S12183   1.765   4.898   6.749 -0.1947  0.3370  4.8580
  117OSM    C3S12184   1.566   4.985   6.819  0.2270  0.3701  0.1190
  117OSM    H3S12185   1.537   5.092   6.824 -1.2332 -0.0449  1.6115
  117OSM     O312186   1.576   4.942   6.958  0.1259 -0.3431  0.0881
  117OSM    HO312187   1.668   4.948   6.985 -0.0703  3.0229  0.4304
  117OSM    C4S12188   1.466   4.910   6.746  0.0597 -0.2268  0.5460
  117OSM    H4S12189   1.513   4.851   6.666  0.9260  0.3090  0.6368
  117OSM    C5S12190   1.337   4.948   6.743  0.8653  0.3776 -0.2740
  117OSM    H5S12191   1.307   5.028   6.812  1.4343  0.1912  0.1972
  117OSM    C6S12192   1.221   4.905   6.651  0.4129 -0.3657 -0.0766
  117OSM    H6S12193   1.173   5.002   6.626  2.2407  1.5352  3.0835
  117OSM    H6T12194   1.149   4.836   6.702 -1.9676  1.7480 -0.4066
  117OSM    C7S12195   1.268   4.833   6.524  0.3647 -0.3303  0.0527
  117OSM    H7S12196   1.332   4.746   6.552  1.3310 -0.8610 -3.3446
  117OSM    H7T12197   1.340   4.891   6.462  1.6141 -2.0305 -0.1668
  117OSM    C8S12198   1.148   4.789   6.432  0.1690 -0.0600  0.2522
  117OSM    H8S12199   1.114   4.875   6.371  0.7279  0.7542  1.0546
  117OSM    H8T12200   1.066   4.755   6.498 -0.2455  0.9591  0.2827
  117OSM    C9S12201   1.192   4.679   6.343  0.0601 -0.5867  0.3823
  117OSM    H9S12202   1.110   4.641   6.278  0.8868  0.3135 -1.2140
  117OSM    H9T12203   1.215   4.587   6.402 -2.4334 -1.1353  0.6378
  117OSM   C10S12204   1.307   4.724   6.251  0.2847  0.2601  0.6148
  117OSM   H10S12205   1.352   4.630   6.211  2.1386  0.9636  0.9454
  117OSM   H10T12206   1.387   4.758   6.319 -0.2525  1.8355  0.5033
  117OSM   C11S12207   1.272   4.825   6.147 -0.0499  0.3314  0.2385
  117OSM   H11S12208   1.228   4.918   6.188 -0.0091  1.1710 -1.5587
  117OSM   H11T12209   1.196   4.777   6.082  0.6340 -0.7233  0.1835
  117OSM   C12S12210   1.389   4.860   6.048 -0.9842  0.5719  0.4824
  117OSM   H12S12211   1.437   4.768   6.007  1.9200  1.2085  2.2173
  117OSM   H12T12212   1.467   4.913   6.106  0.2972  2.2912 -2.5805
  117OSM   C13S12213   1.359   4.955   5.936 -0.1725 -0.5330  0.5062
  117OSM   H13S12214   1.451   5.012   5.911  0.6347 -0.8567  2.5313
  117OSM   H13T12215   1.286   5.027   5.980 -1.2807 -0.5711 -1.1494
  117OSM   C14S12216   1.289   4.890   5.813 -0.0390 -0.6055 -0.7322
  117OSM   H14S12217   1.249   4.972   5.749 -1.0030  0.2808  0.9353
  117OSM   H14T12218   1.209   4.823   5.850 -1.5102  0.5376 -1.7253
  117OSM   C15S12219   1.379   4.798   5.735  0.0408  0.4544 -0.1206
  117OSM   H15S12220   1.309   4.747   5.666  0.2684 -0.0423  0.0137
  117OSM   H15T12221   1.437   4.726   5.797 -0.2395  0.6743  0.4078
  117OSM   C16S12222   1.467   4.885   5.647 -0.6322  0.1412  0.6715
  117OSM   H16S12223   1.528   4.940   5.722 -2.3362  2.0851  0.7103
  117OSM   H16T12224   1.399   4.956   5.596 -2.6464 -0.4237  2.4502
  117OSM   C17S12225   1.562   4.823   5.533  0.1447  0.5915 -0.4924
  117OSM   H17S12226   1.575   4.715   5.553 -2.6369 -0.3646 -3.1341
  117OSM   H17T12227   1.662   4.871   5.526  0.3657  0.0772 -0.8429
  117OSM   C18S12228   1.510   4.815   5.391 -0.0089 -0.6126 -0.2080
  117OSM   H18S12229   1.580   4.756   5.330  2.4770  0.3966  1.4912
  117OSM   H18T12230   1.510   4.919   5.351  1.2869 -0.8038 -0.7521
  117OSM   H18U12231   1.410   4.767   5.392  0.9375 -2.6976 -1.4593
  117OSM    C1F12232   1.794   5.013   6.515  0.0526 -0.2055 -0.4690
  117OSM     OF12233   1.907   4.982   6.553 -0.1767 -0.2472  1.3438
  117OSM    C2F12234   1.771   5.048   6.365 -0.4184 -0.7366  0.4317
  117OSM    H2F12235   1.767   5.158   6.370  1.6942 -0.6680  2.2724
  117OSM    H2G12236   1.667   5.019   6.339 -1.1800  0.4786  2.0178
  117OSM    C3F12237   1.882   4.992   6.278  0.5627  0.3539 -0.0415
  117OSM    H3F12238   1.896   4.883   6.298  0.1118  0.4738  0.9870
  117OSM    H3G12239   1.982   5.036   6.296  0.3227  1.9513 -2.2000
  117OSM    C4F12240   1.862   5.021   6.132  0.3164 -0.1425  0.3375
  117OSM    H4F12241   1.833   5.128   6.120  0.5491 -0.0466  0.6394
  117OSM    H4G12242   1.785   4.956   6.085  1.4407 -0.7309 -0.7524
  117OSM    C5F12243   1.983   4.997   6.051 -0.5212 -0.0183  0.3431
  117OSM    H5F12244   2.030   4.900   6.076 -1.7585 -1.6191 -2.9447
  117OSM    H5G12245   2.050   5.083   6.073 -0.5800 -0.5304  2.7826
  117OSM    C6F12246   1.954   4.989   5.901  0.3743 -0.0115  0.2443
  117OSM    H6F12247   1.877   4.911   5.882  0.9324 -0.1594 -1.5545
  117OSM    H6G12248   2.046   4.949   5.853  0.6079 -3.0226  2.8463
  117OSM    C7F12249   1.907   5.119   5.842  0.9037 -1.0494 -0.1131
  117OSM    H7F12250   1.949   5.203   5.901  1.0899 -0.7863 -0.6103
  117OSM    H7G12251   1.796   5.117   5.855  0.6624 -0.9928 -1.8633
  117OSM    C8F12252   1.955   5.151   5.701  0.3631 -0.5431 -0.5610
  117OSM    H8F12253   2.065   5.137   5.696  0.3515 -1.8167  1.3012
  117OSM    H8G12254   1.940   5.260   5.689  1.5484 -0.0433  1.7946
  117OSM    C9F12255   1.879   5.072   5.603  0.4846 -0.1823  0.7213
  117OSM    H9F12256   1.782   5.038   5.643  0.0478  0.2702  0.0559
  117OSM   C10F12257   1.921   5.035   5.487 -0.6583  0.1223  0.0616
  117OSM   H10F12258   1.856   4.980   5.417  0.7068 -1.7711  0.1957
  117OSM   C11F12259   2.063   5.060   5.429 -0.5190  0.0672  0.3129
  117OSM   H11F12260   2.111   5.141   5.489  1.1029  0.1824 -1.0567
  117OSM   H11G12261   2.068   5.093   5.323  0.6020 -3.0522 -0.7180
  117OSM   C12F12262   2.156   4.942   5.447 -0.1763 -0.0319  0.4625
  117OSM   H12F12263   2.182   4.928   5.554  1.5083 -1.6538 -0.1035
  117OSM   H12G12264   2.255   4.962   5.401 -1.0566 -1.2120 -2.1823
  117OSM   C13F12265   2.090   4.818   5.381  0.2684  0.7141  0.5658
  117OSM   H13F12266   1.982   4.803   5.399  0.8719 -1.8779  2.5856
  117OSM   H13G12267   2.147   4.732   5.422  2.0137  0.7431 -1.5696
  117OSM   C14F12268   2.096   4.833   5.233  0.1208 -0.7427  0.8410
  117OSM   H14F12269   2.195   4.874   5.202 -0.4844  1.3832  1.5334
  117OSM   H14G12270   2.014   4.904   5.207  0.6024 -0.3714  0.2932
  117OSM   C15F12271   2.067   4.714   5.145 -0.5135  0.5709  0.8163
  117OSM   H15F12272   1.962   4.684   5.165 -0.2209 -0.1933  1.2606
  117OSM   H15G12273   2.122   4.631   5.195 -2.0590  0.1458  1.8992
  117OSM   C16F12274   2.114   4.718   4.997 -0.3587  0.5605 -0.4325
  117OSM   H16F12275   2.224   4.731   4.988 -0.3677  0.5105 -0.6145
  117OSM   H16G12276   2.060   4.803   4.951  1.0624  2.1118  0.6182
  117OSM   C17F12277   2.098   4.590   4.926  0.3890 -0.4255 -0.6663
  117OSM   H17F12278   1.994   4.552   4.933  0.7263 -1.4275 -0.9378
  117OSM   H17G12279   2.163   4.516   4.978 -0.6878 -1.2391 -0.4389
  117OSM   C18F12280   2.154   4.592   4.785  0.5138  0.2849  0.0273
  117OSM   H18F12281   2.152   4.490   4.741  0.7450  0.4583 -0.3871
  117OSM   H18G12282   2.258   4.630   4.786  0.0568  1.6318  2.0981
  117OSM   H18H12283   2.097   4.647   4.708  2.5720  1.7934 -0.5004
  118OSM      N12284   2.173   3.630   7.344  0.2563  0.2054 -0.4264
  118OSM    C1512285   2.162   3.764   7.413  0.5415  0.2166  0.0513
  118OSM   H15A12286   2.062   3.800   7.395  0.8865  0.6345 -1.0724
  118OSM   H15B12287   2.247   3.821   7.379  2.4500 -1.6042  1.4760
  118OSM   H15C12288   2.178   3.742   7.518 -1.9502  0.6748  0.5796
  118OSM    C1412289   2.311   3.577   7.368 -0.1132  0.2177  0.1945
  118OSM   H14A12290   2.336   3.562   7.472  1.8349 -0.5944 -0.3525
  118OSM   H14B12291   2.390   3.644   7.338  0.5937  0.5690  2.6806
  118OSM   H14C12292   2.301   3.479   7.323 -0.9559 -0.5932  2.0509
  118OSM    C1312293   2.077   3.536   7.430 -0.8521  0.4517  0.4280
  118OSM   H13A12294   1.979   3.578   7.410 -0.5746  0.9138 -0.0040
  118OSM   H13B12295   2.099   3.539   7.535 -0.1854  2.3080  0.2781
  118OSM   H13C12296   2.089   3.435   7.393 -3.4636 -0.1389  1.0238
  118OSM    C1212297   2.142   3.640   7.200  1.3526 -0.5832 -0.0987
  118OSM   H12A12298   2.220   3.705   7.162  1.0316 -0.7477 -1.0475
  118OSM   H12B12299   2.044   3.681   7.186  1.0328 -1.3248 -0.0587
  118OSM    C1112300   2.144   3.522   7.105  1.2266  0.4435 -0.5040
  118OSM   H11A12301   2.235   3.464   7.133  0.5399  1.1101  3.7555
  118OSM   H11B12302   2.154   3.560   7.001 -2.0956  2.9616 -0.0649
  118OSM      P12303   1.890   3.464   7.071  0.4296 -0.4333 -0.2870
  118OSM    O1312304   1.812   3.350   7.120  1.1817  0.1033  0.3882
  118OSM    O1412305   1.850   3.595   7.126 -0.3060  0.2646 -0.1969
  118OSM    O1112306   1.904   3.463   6.912 -0.2035  0.5377  0.0931
  118OSM    O1212307   2.032   3.439   7.118 -0.1096  0.2274 -0.2070
  118OSM    C1S12308   1.962   3.358   6.837 -0.3165 -1.1707  0.2572
  118OSM    H1S12309   1.892   3.271   6.831 -1.0240 -0.5431 -1.0203
  118OSM    H1T12310   2.062   3.334   6.878 -1.0403 -0.1020  2.8894
  118OSM     NF12311   2.019   3.299   6.597  0.2228  0.5401 -0.5237
  118OSM    HNF12312   2.115   3.284   6.572  0.3848 -0.8090  0.7740
  118OSM    C2S12313   1.976   3.412   6.691 -0.1610  0.3600  0.6451
  118OSM    H2S12314   1.874   3.440   6.658 -0.4331 -2.4965 -1.2777
  118OSM    C3S12315   2.077   3.527   6.690 -0.5517  0.0324 -0.2328
  118OSM    H3S12316   2.173   3.485   6.725 -0.7456 -0.6543 -0.5104
  118OSM     O312317   2.046   3.639   6.773 -0.3416 -0.2656 -0.1064
  118OSM    HO312318   1.968   3.611   6.822 -0.4524  2.1761  1.2563
  118OSM    C4S12319   2.095   3.589   6.552 -0.2346 -0.2141 -0.4075
  118OSM    H4S12320   2.171   3.533   6.496 -1.0368 -0.4969 -1.2322
  118OSM    C5S12321   2.036   3.692   6.489 -0.3065  0.0727  0.0968
  118OSM    H5S12322   1.957   3.750   6.539 -0.5400 -0.2721  0.1302
  118OSM    C6S12323   2.080   3.735   6.354 -0.3156 -0.0274 -0.2202
  118OSM    H6S12324   2.144   3.824   6.372  1.9931 -1.7202  0.4273
  118OSM    H6T12325   1.993   3.757   6.289 -0.2470 -0.9712 -0.6444
  118OSM    C7S12326   2.168   3.641   6.270  0.4436  0.4713  0.0338
  118OSM    H7S12327   2.246   3.576   6.316 -0.0067  0.0044  0.1526
  118OSM    H7T12328   2.205   3.701   6.184 -3.8163  1.5902 -1.2524
  118OSM    C8S12329   2.080   3.531   6.204 -0.1663 -0.4826  0.0381
  118OSM    H8S12330   1.985   3.579   6.170  1.6119  3.1218 -0.2683
  118OSM    H8T12331   2.069   3.459   6.287  1.2061 -0.4691  0.2524
  118OSM    C9S12332   2.138   3.449   6.089 -0.8436 -0.5311  0.9281
  118OSM    H9S12333   2.060   3.376   6.060 -3.7321  3.2119 -1.8116
  118OSM    H9T12334   2.223   3.399   6.140 -0.9163  0.4919  2.1126
  118OSM   C10S12335   2.177   3.518   5.954  0.2112 -0.2107 -0.2977
  118OSM   H10S12336   2.230   3.433   5.908  2.0738  0.0122  1.2846
  118OSM   H10T12337   2.249   3.598   5.982  0.3329  0.5244 -2.4986
  118OSM   C11S12338   2.056   3.582   5.874  0.1957 -0.5159 -0.3433
  118OSM   H11S12339   2.011   3.672   5.920 -0.1335 -0.3441 -0.9896
  118OSM   H11T12340   1.975   3.506   5.865  0.3933 -0.6658 -0.9512
  118OSM   C12S12341   2.112   3.623   5.738  0.9490 -0.0830 -0.6988
  118OSM   H12S12342   2.188   3.547   5.709  0.4327 -1.2237  0.7664
  118OSM   H12T12343   2.155   3.724   5.754 -0.0211  0.3028 -0.4561
  118OSM   C13S12344   1.997   3.622   5.631  0.5883  0.4309 -0.0025
  118OSM   H13S12345   1.903   3.675   5.659 -0.9626  0.5959 -4.6589
  118OSM   H13T12346   1.963   3.518   5.616  1.7662  0.0249  0.0500
  118OSM   C14S12347   2.057   3.658   5.496  0.0751  0.4091 -0.1016
  118OSM   H14S12348   2.134   3.578   5.484 -1.9184 -1.8150  1.0625
  118OSM   H14T12349   2.114   3.753   5.484  0.5214  0.0026 -1.2897
  118OSM   C15S12350   1.951   3.655   5.390  0.4892  0.4061 -0.0760
  118OSM   H15S12351   1.888   3.746   5.402  0.7685  1.1069 -3.0260
  118OSM   H15T12352   1.889   3.563   5.400  0.1571  0.7785  1.5514
  118OSM   C16S12353   2.030   3.672   5.256  0.6738  0.3350 -0.0975
  118OSM   H16S12354   2.084   3.577   5.236  0.3668 -0.1717  1.3850
  118OSM   H16T12355   2.106   3.753   5.262  2.9743 -1.8059  3.1013
  118OSM   C17S12356   1.936   3.699   5.144 -0.3726 -0.1730 -0.3456
  118OSM   H17S12357   1.867   3.612   5.134 -1.4590  0.3730  1.7210
  118OSM   H17T12358   1.992   3.704   5.049  0.3856 -2.2510 -0.0671
  118OSM   C18S12359   1.856   3.824   5.156  0.2072 -0.4299  0.3015
  118OSM   H18S12360   1.925   3.909   5.173  1.4825 -1.0638 -1.4398
  118OSM   H18T12361   1.778   3.825   5.236 -1.4296  1.3190 -1.2293
  118OSM   H18U12362   1.800   3.827   5.060  0.2269 -3.4756  0.0975
  118OSM    C1F12363   1.932   3.208   6.558  0.2495 -0.4454 -0.1834
  118OSM     OF12364   1.813   3.219   6.594  0.2915  0.5713  0.5166
  118OSM    C2F12365   1.974   3.095   6.466 -0.2192  0.3223 -0.0209
  118OSM    H2F12366   1.901   3.014   6.446 -0.7606  0.4191  1.4838
  118OSM    H2G12367   2.064   3.048   6.511 -1.0086 -0.3789  0.8444
  118OSM    C3F12368   2.005   3.148   6.324 -0.3566 -0.1011 -0.4539
  118OSM    H3F12369   2.094   3.214   6.331 -0.3917 -0.2341  1.6281
  118OSM    H3G12370   1.914   3.206   6.294  0.6437  1.2796 -0.9118
  118OSM    C4F12371   2.027   3.034   6.215  0.9037  0.0903 -0.2467
  118OSM    H4F12372   1.937   2.968   6.212  2.5505 -2.3717  1.2174
  118OSM    H4G12373   2.109   2.966   6.246  0.8174 -0.1470 -0.5312
  118OSM    C5F12374   2.065   3.089   6.081  0.4947  0.0507  0.4268
  118OSM    H5F12375   2.152   3.158   6.081 -1.5945  2.8753 -1.1119
  118OSM    H5G12376   1.976   3.149   6.054  1.6236  1.7859  0.4179
  118OSM    C6F12377   2.085   2.975   5.979  0.0902 -0.3204  0.3019
  118OSM    H6F12378   2.007   2.897   5.995 -0.8734  0.3481 -0.9383
  118OSM    H6G12379   2.184   2.926   5.990  1.1486  1.3903 -1.1330
  118OSM    C7F12380   2.073   3.031   5.835 -0.4206  0.3230  0.4680
  118OSM    H7F12381   1.977   3.087   5.826 -1.6047 -1.5669  0.9196
  118OSM    H7G12382   2.085   2.937   5.776 -0.3708 -0.3906  1.5995
  118OSM    C8F12383   2.182   3.130   5.803 -0.2505 -0.2206  0.3588
  118OSM    H8F12384   2.278   3.079   5.784 -0.0900  0.0597  0.4108
  118OSM    H8G12385   2.214   3.183   5.895 -3.3790  2.4203  0.1220
  118OSM    C9F12386   2.143   3.226   5.688 -0.0725 -0.1403  0.4261
  118OSM    H9F12387   2.055   3.289   5.708  0.0329  1.1219 -2.5466
  118OSM   C10F12388   2.194   3.235   5.565 -0.0194  0.2558 -0.2763
  118OSM   H10F12389   2.157   3.318   5.502  0.0762 -0.0081 -0.6831
  118OSM   C11F12390   2.305   3.159   5.498  0.1737 -0.3244 -0.2798
  118OSM   H11F12391   2.336   3.074   5.562 -2.9776 -0.4894  1.2187
  118OSM   H11G12392   2.393   3.227   5.500  0.3396 -0.5479  0.9814
  118OSM   C12F12393   2.277   3.109   5.352  0.9556 -0.8609 -0.9034
  118OSM   H12F12394   2.374   3.109   5.298  1.8492  5.5495 -0.0846
  118OSM   H12G12395   2.233   3.192   5.293  2.0682 -0.1563 -0.7706
  118OSM   C13F12396   2.199   2.976   5.328 -0.2160  0.3844 -0.9358
  118OSM   H13F12397   2.194   2.949   5.220  0.2395 -1.4682 -0.5315
  118OSM   H13G12398   2.098   2.986   5.371 -1.0671 -1.1313 -2.4676
  118OSM   C14F12399   2.271   2.853   5.391  0.0994  0.4376 -0.5486
  118OSM   H14F12400   2.251   2.850   5.500  1.2026  0.8875 -0.3128
  118OSM   H14G12401   2.379   2.878   5.380  0.9375 -2.6822 -0.2763
  118OSM   C15F12402   2.226   2.720   5.328  0.1279  0.4683 -0.3059
  118OSM   H15F12403   2.262   2.633   5.387 -1.0156 -0.5790 -1.0868
  118OSM   H15G12404   2.281   2.712   5.231  2.7835  0.1767  1.1164
  118OSM   C16F12405   2.074   2.701   5.313 -0.3108 -0.2528  0.2807
  118OSM   H16F12406   2.041   2.764   5.227 -0.6384 -1.4238 -0.4845
  118OSM   H16G12407   2.020   2.745   5.399 -1.1755 -1.9478  0.6523
  118OSM   C17F12408   2.027   2.556   5.289  0.1475  0.4975 -0.1671
  118OSM   H17F12409   1.918   2.552   5.270  0.0815 -3.3862  0.2758
  118OSM   H17G12410   2.045   2.496   5.381 -0.4011  0.9105  0.2182
  118OSM   C18F12411   2.089   2.480   5.171 -0.3237 -0.0014  0.7511
  118OSM   H18F12412   2.084   2.539   5.077 -3.2717 -1.7871 -0.3656
  118OSM   H18G12413   2.022   2.393   5.155  0.5043 -0.8501  1.7673
  118OSM   H18H12414   2.186   2.428   5.186 -1.2616 -1.5290  1.8696
  119OSM      N12415   5.914   0.308   7.093  1.0689  0.0704  0.1773
  119OSM    C1512416   5.781   0.329   7.027 -0.5805 -0.6030 -0.0030
  119OSM   H15A12417   5.795   0.390   6.938 -1.4091  0.2683  0.4353
  119OSM   H15B12418   5.696   0.369   7.080  1.0997  2.3203  0.7351
  119OSM   H15C12419   5.750   0.230   6.997 -0.5502 -1.2918  2.0842
  119OSM    C1412420   5.951   0.434   7.152 -0.3344  0.3727 -0.3441
  119OSM   H14A12421   5.951   0.518   7.083  1.7887 -0.7885 -1.8686
  119OSM   H14B12422   6.048   0.430   7.199 -1.4018  2.1376  2.2582
  119OSM   H14C12423   5.891   0.449   7.241 -0.1545 -0.5897 -0.0500
  119OSM    C1312424   5.878   0.201   7.202  0.3590  0.0703  0.5546
  119OSM   H13A12425   5.961   0.164   7.260  0.4787 -1.0004 -0.2729
  119OSM   H13B12426   5.838   0.113   7.155  1.3527 -0.9212  1.5063
  119OSM   H13C12427   5.807   0.247   7.269 -2.4508  0.0636 -2.2120
  119OSM    C1212428   6.009   0.258   6.984 -0.0205 -0.3315 -0.0949
  119OSM   H12A12429   6.110   0.259   7.021  0.3953  0.3261 -1.1815
  119OSM   H12B12430   6.011   0.332   6.905  0.3720  0.3718  0.5672
  119OSM    C1112431   5.980   0.123   6.914 -0.0614 -0.8345 -0.0336
  119OSM   H11A12432   6.047   0.126   6.825  1.4751  1.5587  1.1245
  119OSM   H11B12433   5.877   0.123   6.872  0.4944 -0.4335 -1.4528
  119OSM      P12434   6.155  -0.029   7.041 -0.1175 -0.2652 -0.0321
  119OSM    O1312435   6.242   0.092   7.061  0.2315 -0.1489  0.7565
  119OSM    O1412436   6.125  -0.111   7.161 -0.3600  0.4169 -0.0222
  119OSM    O1112437   6.224  -0.122   6.938 -0.2414 -0.2088  0.2247
  119OSM    O1212438   6.009   0.007   6.990  0.2027  0.0441 -0.2387
  119OSM    C1S12439   6.157  -0.228   6.873  0.2812 -0.2767 -0.4753
  119OSM    H1S12440   6.067  -0.257   6.932  0.5633 -1.0696 -0.4232
  119OSM    H1T12441   6.223  -0.317   6.869  1.4398  0.5514 -0.1693
  119OSM     NF12442   6.021  -0.278   6.686  0.3795  0.2450  0.3550
  119OSM    HNF12443   6.057  -0.361   6.644 -0.2727 -0.5074  1.2438
  119OSM    C2S12444   6.115  -0.185   6.733 -0.0111 -0.2239  0.2700
  119OSM    H2S12445   6.068  -0.086   6.749  0.5482  0.1141 -0.1377
  119OSM    C3S12446   6.237  -0.162   6.637 -0.1495 -0.6709  0.3211
  119OSM    H3S12447   6.304  -0.250   6.645  1.2206  0.3284  0.2755
  119OSM     O312448   6.326  -0.057   6.680  0.6895 -0.7543  0.3444
  119OSM    HO312449   6.281  -0.026   6.759 -0.7827 -0.2497 -0.6396
  119OSM    C4S12450   6.201  -0.124   6.490  0.3500 -0.1282  0.0183
  119OSM    H4S12451   6.183  -0.017   6.472  1.1695 -0.2582 -1.7754
  119OSM    C5S12452   6.205  -0.212   6.385  0.0365 -0.2946 -0.3585
  119OSM    H5S12453   6.240  -0.312   6.413  0.7119  0.0363  0.0203
  119OSM    C6S12454   6.162  -0.176   6.244  0.3650 -0.0867 -0.5652
  119OSM    H6S12455   6.122  -0.073   6.232 -0.4880 -0.4394 -0.8243
  119OSM    H6T12456   6.077  -0.247   6.238 -1.4504  1.6904  2.0207
  119OSM    C7S12457   6.255  -0.211   6.120  0.4696  0.0658  0.1773
  119OSM    H7S12458   6.271  -0.320   6.128  0.6309  0.0755 -0.0146
  119OSM    H7T12459   6.352  -0.161   6.138  0.0218  1.7739 -1.7234
  119OSM    C8S12460   6.195  -0.184   5.986 -0.1308 -0.5003  0.4377
  119OSM    H8S12461   6.133  -0.092   5.984  1.6685  0.7381 -0.4248
  119OSM    H8T12462   6.126  -0.270   5.970  1.4749 -2.2085  2.1779
  119OSM    C9S12463   6.292  -0.191   5.870  0.5629 -0.0759 -0.0279
  119OSM    H9S12464   6.326  -0.296   5.863  0.4511 -0.1588  0.5886
  119OSM    H9T12465   6.372  -0.115   5.885  0.5752  0.1195 -1.0573
  119OSM   C10S12466   6.225  -0.156   5.736 -0.2511 -0.0156 -0.1756
  119OSM   H10S12467   6.190  -0.051   5.744 -1.0648 -0.3854  1.3723
  119OSM   H10T12468   6.132  -0.217   5.722 -0.1276  0.0829 -1.6445
  119OSM   C11S12469   6.319  -0.194   5.614 -0.8050  0.0993  0.6154
  119OSM   H11S12470   6.332  -0.305   5.611  1.4280  0.3134  0.8445
  119OSM   H11T12471   6.422  -0.161   5.641  1.4119 -2.3587 -3.6479
  119OSM   C12S12472   6.278  -0.122   5.486  0.2078 -0.1731 -0.6162
  119OSM   H12S12473   6.358  -0.131   5.411  2.2565  2.2476  1.0997
  119OSM   H12T12474   6.280  -0.011   5.501  0.0549 -0.3250  0.7218
  119OSM   C13S12475   6.145  -0.183   5.427 -0.1326 -0.7062 -0.3407
  119OSM   H13S12476   6.052  -0.146   5.475 -0.9076  0.2091 -2.4329
  119OSM   H13T12477   6.163  -0.290   5.451 -0.4375 -0.1819  2.5990
  119OSM   C14S12478   6.129  -0.161   5.280  0.7230  0.7870  0.3493
  119OSM   H14S12479   6.044  -0.229   5.254  0.6211  0.2728  1.9310
  119OSM   H14T12480   6.220  -0.208   5.237  0.3113 -0.7453  1.0692
  119OSM   C15S12481   6.116  -0.016   5.243  0.2930 -0.5516  0.7964
  119OSM   H15S12482   6.190   0.039   5.304  1.0793 -1.0342  0.2978
  119OSM   H15T12483   6.015   0.021   5.270  0.4048  1.8848 -1.7215
  119OSM   C16S12484   6.124   0.010   5.088  0.2180 -0.6520  0.4528
  119OSM   H16S12485   6.023   0.017   5.044 -0.1302  0.1548  1.3461
  119OSM   H16T12486   6.179  -0.072   5.036 -1.3022 -1.4963  0.1088
  119OSM   C17S12487   6.197   0.138   5.057  0.0385 -0.4051 -0.1278
  119OSM   H17S12488   6.195   0.140   4.946 -2.1958 -4.8844 -0.4109
  119OSM   H17T12489   6.304   0.126   5.085  0.0257  1.5129  0.9356
  119OSM   C18S12490   6.142   0.271   5.112  0.1702  0.0187  0.6734
  119OSM   H18S12491   6.149   0.287   5.222  1.5952  0.0488  0.5907
  119OSM   H18T12492   6.032   0.271   5.093 -0.1169 -2.6143  1.9672
  119OSM   H18U12493   6.193   0.355   5.061 -0.3144 -0.3701 -0.4903
  119OSM    C1F12494   5.890  -0.268   6.715 -0.3092 -0.5760 -0.8382
  119OSM     OF12495   5.854  -0.161   6.769  0.4248 -0.1345  0.3221
  119OSM    C2F12496   5.798  -0.375   6.694 -0.7188 -0.0816  0.3972
  119OSM    H2F12497   5.745  -0.392   6.790 -0.8162 -1.6905  0.0740
  119OSM    H2G12498   5.854  -0.470   6.679  1.9548  1.2218  1.3606
  119OSM    C3F12499   5.697  -0.340   6.572  0.0185  0.0943  0.0374
  119OSM    H3F12500   5.635  -0.253   6.603 -0.4280  0.4926 -1.8588
  119OSM    H3G12501   5.638  -0.428   6.540  3.4071 -1.4622 -2.5139
  119OSM    C4F12502   5.767  -0.297   6.442 -0.5885  0.1884  0.3519
  119OSM    H4F12503   5.849  -0.368   6.419  0.3079  0.7914  1.5470
  119OSM    H4G12504   5.816  -0.198   6.458  1.5764 -0.6297 -0.8560
  119OSM    C5F12505   5.675  -0.278   6.320 -0.5834  0.2562  0.0025
  119OSM    H5F12506   5.601  -0.206   6.360 -0.9880  0.7338 -1.5345
  119OSM    H5G12507   5.626  -0.374   6.293 -2.7429  1.4366 -0.5419
  119OSM    C6F12508   5.745  -0.222   6.191  0.4208 -0.7017  0.3914
  119OSM    H6F12509   5.687  -0.259   6.104  0.7462 -0.4596  0.0679
  119OSM    H6G12510   5.845  -0.268   6.201 -0.6635 -3.5895 -0.9951
  119OSM    C7F12511   5.740  -0.073   6.179 -0.0354  0.0235 -0.0566
  119OSM    H7F12512   5.792  -0.020   6.262  1.4172 -0.1695 -0.8308
  119OSM    H7G12513   5.637  -0.030   6.178  0.6953  1.8996 -1.3780
  119OSM    C8F12514   5.817  -0.038   6.052  0.0763  0.4611  0.3476
  119OSM    H8F12515   5.901  -0.108   6.036 -1.2447 -1.0934  0.0036
  119OSM    H8G12516   5.848   0.069   6.057  0.2829  0.4236 -0.0903
  119OSM    C9F12517   5.725  -0.042   5.929 -0.7673 -0.4468 -0.5862
  119OSM    H9F12518   5.625  -0.079   5.955 -1.2437  1.6972  0.9945
  119OSM   C10F12519   5.757  -0.006   5.805 -0.3439 -0.1489 -0.2489
  119OSM   H10F12520   5.679  -0.009   5.728  0.1227  0.4863 -0.7556
  119OSM   C11F12521   5.883   0.058   5.760 -0.0109 -0.5581  0.4905
  119OSM   H11F12522   5.939  -0.011   5.693  2.2973  1.5290  0.1096
  119OSM   H11G12523   5.951   0.073   5.847  0.3210 -1.1523  0.3392
  119OSM   C12F12524   5.862   0.186   5.678  0.0899  0.7352 -0.1823
  119OSM   H12F12525   5.960   0.209   5.631 -0.1015 -1.1511 -1.6031
  119OSM   H12G12526   5.844   0.266   5.753  2.1533  1.9805 -0.9186
  119OSM   C13F12527   5.755   0.177   5.572 -0.0094  0.6676 -0.1054
  119OSM   H13F12528   5.653   0.159   5.612 -0.9686  2.1350 -1.7179
  119OSM   H13G12529   5.791   0.082   5.526 -0.9090 -0.2059  0.9216
  119OSM   C14F12530   5.764   0.302   5.484  0.4306 -0.4097  0.1972
  119OSM   H14F12531   5.867   0.316   5.445  0.5514  1.3257  1.0511
  119OSM   H14G12532   5.746   0.388   5.551  0.7749 -0.1809 -0.0007
  119OSM   C15F12533   5.670   0.288   5.372  0.5297  0.2257  0.5038
  119OSM   H15F12534   5.671   0.391   5.329 -1.8080 -0.7359 -2.1225
  119OSM   H15G12535   5.571   0.255   5.408  0.1068  0.9613  0.0518
  119OSM   C16F12536   5.714   0.202   5.251  0.1512 -0.0611 -0.6020
  119OSM   H16F12537   5.705   0.093   5.273  2.2754  0.2810  2.6540
  119OSM   H16G12538   5.819   0.220   5.220 -0.2363  1.9801 -0.8346
  119OSM   C17F12539   5.618   0.233   5.139  0.2375 -0.2852  0.3138
  119OSM   H17F12540   5.593   0.341   5.145  1.2483 -0.1311  3.1872
  119OSM   H17G12541   5.518   0.185   5.151 -0.8344  0.9421 -2.8096
  119OSM   C18F12542   5.663   0.188   4.992  0.3589 -0.8324  0.6125
  119OSM   H18F12543   5.583   0.200   4.915 -0.4793 -5.3438  0.4726
  119OSM   H18G12544   5.684   0.079   4.999  1.2234 -0.5676  2.8874
  119OSM   H18H12545   5.753   0.244   4.962  0.4507 -1.1036  0.3833
  120OSM      N12546   0.067   0.069   7.445 -0.1468  0.2071 -0.2016
  120OSM    C1512547   0.044   0.134   7.307  0.7585 -0.3378  0.5095
  120OSM   H15A12548   0.098   0.227   7.303 -0.2553  0.2423 -2.5866
  120OSM   H15B12549  -0.058   0.168   7.303  1.5572  2.1045 -0.3100
  120OSM   H15C12550   0.075   0.073   7.223 -2.2729 -1.8141  0.3091
  120OSM    C1412551   0.216   0.072   7.452  0.1786  0.2134  0.0939
  120OSM   H14A12552   0.256   0.017   7.368 -0.6801 -1.4447  0.7271
  120OSM   H14B12553   0.240   0.013   7.539 -2.7497 -0.7024  0.3842
  120OSM   H14C12554   0.257   0.172   7.453  0.5275  0.0711  1.5994
  120OSM    C1312555   0.031   0.155   7.558  0.8744 -0.3640  0.8984
  120OSM   H13A12556   0.095   0.242   7.564 -0.2881  0.6173 -0.2568
  120OSM   H13B12557   0.043   0.101   7.651  2.1038  0.9408  1.5508
  120OSM   H13C12558  -0.074   0.180   7.546  0.9438 -0.5359 -0.1275
  120OSM    C1212559   0.008  -0.064   7.466 -0.0227 -0.4834  0.1733
  120OSM   H12A12560   0.029  -0.101   7.565  0.5900 -0.7185 -0.0402
  120OSM   H12B12561   0.053  -0.130   7.393  0.5858  0.7714 -0.6110
  120OSM    C1112562  -0.138  -0.066   7.441  0.3384 -0.4214 -0.0632
  120OSM   H11A12563  -0.193   0.015   7.493 -1.3108 -1.2399 -0.4594
  120OSM   H11B12564  -0.173  -0.163   7.481  0.0305 -1.3100 -2.3459
  120OSM      P12565  -0.161  -0.188   7.211 -0.2604 -0.3606 -0.1816
  120OSM    O1312566  -0.049  -0.153   7.126  0.4445 -0.2002 -0.3125
  120OSM    O1412567  -0.145  -0.312   7.295  0.2208 -0.0133  0.2627
  120OSM    O1112568  -0.289  -0.205   7.127  0.1397 -0.4087 -0.1441
  120OSM    O1212569  -0.179  -0.057   7.304 -0.5575  0.0790  0.0260
  120OSM    C1S12570  -0.332  -0.110   7.025 -0.1611 -0.2655 -0.2774
  120OSM    H1S12571  -0.297  -0.007   7.049 -0.2722 -0.8988  3.0634
  120OSM    H1T12572  -0.443  -0.107   7.020 -0.0911  0.7164 -1.9799
  120OSM     NF12573  -0.319  -0.052   6.796  0.3112 -0.2795  0.0307
  120OSM    HNF12574  -0.407  -0.081   6.759 -1.1960  1.2432  2.2257
  120OSM    C2S12575  -0.283  -0.153   6.887 -0.1998 -0.2845  0.4911
  120OSM    H2S12576  -0.172  -0.156   6.889 -0.1618 -0.9984 -1.0298
  120OSM    C3S12577  -0.338  -0.294   6.850 -0.3497 -0.0559 -0.1940
  120OSM    H3S12578  -0.447  -0.278   6.837 -0.1009 -0.0374 -2.9871
  120OSM     O312579  -0.335  -0.396   6.951  0.1218  0.4052  0.3470
  120OSM    HO312580  -0.317  -0.340   7.027  2.6623 -0.5086  0.4906
  120OSM    C4S12581  -0.290  -0.349   6.719 -0.5529 -0.1431  0.2365
  120OSM    H4S12582  -0.180  -0.343   6.707 -0.5855 -1.0410 -0.6781
  120OSM    C5S12583  -0.367  -0.400   6.621 -0.2194  0.8631 -0.3471
  120OSM    H5S12584  -0.474  -0.409   6.644  0.3103 -1.1978  1.6973
  120OSM    C6S12585  -0.313  -0.462   6.496 -0.3809  0.4381 -0.7104
  120OSM    H6S12586  -0.338  -0.570   6.487 -1.4990  0.7945 -2.4398
  120OSM    H6T12587  -0.202  -0.465   6.487 -0.1539 -2.3403  1.5677
  120OSM    C7S12588  -0.379  -0.396   6.371 -0.5508  0.6029 -0.0721
  120OSM    H7S12589  -0.359  -0.287   6.360 -1.8068  1.0294  1.3559
  120OSM    H7T12590  -0.491  -0.397   6.374 -0.5771 -2.0186  0.1304
  120OSM    C8S12591  -0.335  -0.484   6.247 -0.4851 -0.3718  0.2369
  120OSM    H8S12592  -0.389  -0.581   6.249 -0.2422 -0.5102  0.1382
  120OSM    H8T12593  -0.225  -0.501   6.253 -0.5815 -0.4888  1.8889
  120OSM    C9S12594  -0.344  -0.408   6.112 -0.4582 -0.7266  0.5047
  120OSM    H9S12595  -0.287  -0.315   6.132  0.3339 -0.8742 -0.9421
  120OSM    H9T12596  -0.451  -0.383   6.097 -0.1780  0.8358  0.9899
  120OSM   C10S12597  -0.277  -0.481   6.000 -0.6155  0.8975  0.1428
  120OSM   H10S12598  -0.333  -0.570   5.965 -0.4066  0.3822  1.0679
  120OSM   H10T12599  -0.178  -0.519   6.032 -0.9173 -1.4269 -1.4447
  120OSM   C11S12600  -0.263  -0.392   5.869 -0.8156 -0.4457  0.0006
  120OSM   H11S12601  -0.205  -0.300   5.894 -0.9219 -0.0251 -1.2640
  120OSM   H11T12602  -0.361  -0.365   5.825 -0.8275 -1.6946 -0.7928
  120OSM   C12S12603  -0.178  -0.467   5.763 -0.8303  0.3125  0.9490
  120OSM   H12S12604  -0.253  -0.522   5.704  1.4974 -2.8976  0.7076
  120OSM   H12T12605  -0.120  -0.544   5.819 -1.6119 -0.0661  1.2451
  120OSM   C13S12606  -0.086  -0.363   5.684  0.0970  0.6746 -0.5203
  120OSM   H13S12607  -0.002  -0.325   5.746  1.4814 -0.6013 -1.5292
  120OSM   H13T12608  -0.159  -0.287   5.648 -1.6991 -0.4299  0.6429
  120OSM   C14S12609  -0.029  -0.410   5.552 -0.9066 -0.1717  0.1483
  120OSM   H14S12610   0.050  -0.486   5.569  0.4621  0.7709 -1.5612
  120OSM   H14T12611   0.021  -0.326   5.499 -0.8059 -0.0221  0.4821
  120OSM   C15S12612  -0.134  -0.480   5.469  0.3371  0.0076 -0.3346
  120OSM   H15S12613  -0.232  -0.428   5.476  1.8696  3.2680 -1.0731
  120OSM   H15T12614  -0.139  -0.580   5.517 -0.8368  0.8639  1.4338
  120OSM   C16S12615  -0.088  -0.505   5.321 -0.0938  0.3470 -0.5385
  120OSM   H16S12616  -0.083  -0.409   5.266 -0.0141  0.1469 -0.8806
  120OSM   H16T12617  -0.161  -0.564   5.263 -1.2038  1.2364 -0.0857
  120OSM   C17S12618   0.054  -0.561   5.317 -0.4129 -0.8015  0.2859
  120OSM   H17S12619   0.042  -0.665   5.354 -0.4017 -1.6887 -2.0423
  120OSM   H17T12620   0.125  -0.499   5.376 -1.2822  0.5679 -0.0514
  120OSM   C18S12621   0.117  -0.579   5.175 -0.8966  0.8221  0.1282
  120OSM   H18S12622   0.058  -0.647   5.110 -2.0572  2.9834 -1.1977
  120OSM   H18T12623   0.224  -0.608   5.173 -1.2262 -0.4513 -0.2472
  120OSM   H18U12624   0.127  -0.477   5.132 -1.5231  1.4021  1.3116
  120OSM    C1F12625  -0.260   0.069   6.796 -0.2407 -0.1245 -0.1294
  120OSM     OF12626  -0.194   0.112   6.890 -0.1459  0.1548 -0.0827
  120OSM    C2F12627  -0.262   0.155   6.673 -0.7016  0.4337 -0.4531
  120OSM    H2F12628  -0.158   0.192   6.662 -1.5214  2.9735 -0.2974
  120OSM    H2G12629  -0.317   0.250   6.690  2.7344  2.1648  2.0366
  120OSM    C3F12630  -0.292   0.074   6.548  0.1959  0.1431  0.1722
  120OSM    H3F12631  -0.400   0.053   6.555  0.0908  0.0355 -1.5118
  120OSM    H3G12632  -0.228  -0.017   6.543  0.7205  0.5668 -1.3000
  120OSM    C4F12633  -0.267   0.149   6.418 -0.1483  0.4262  0.0172
  120OSM    H4F12634  -0.159   0.164   6.400  0.5862 -1.5674  2.2560
  120OSM    H4G12635  -0.318   0.247   6.421 -1.4266 -0.2382  1.7676
  120OSM    C5F12636  -0.329   0.056   6.304  0.0895  0.3844 -0.6296
  120OSM    H5F12637  -0.438   0.075   6.315  0.2130  0.2554  1.2504
  120OSM    H5G12638  -0.300  -0.049   6.328  1.2303  0.9790  0.7272
  120OSM    C6F12639  -0.274   0.094   6.168  0.4520 -0.4776  0.3035
  120OSM    H6F12640  -0.164   0.106   6.173  0.3146  0.7819  0.7387
  120OSM    H6G12641  -0.311   0.196   6.143  2.7752  0.7134  1.4008
  120OSM    C7F12642  -0.307   0.003   6.051 -0.1483  0.0473 -0.0363
  120OSM    H7F12643  -0.412  -0.031   6.035  0.0998 -1.2035  0.8655
  120OSM    H7G12644  -0.253  -0.092   6.067 -0.6204 -0.6825 -2.3361
  120OSM    C8F12645  -0.259   0.072   5.915  0.2385 -0.4387  0.0526
  120OSM    H8F12646  -0.151   0.094   5.924  0.7404 -2.3631 -0.7601
  120OSM    H8G12647  -0.315   0.168   5.910 -0.9230 -1.0589  0.5211
  120OSM    C9F12648  -0.296  -0.016   5.793  0.5519  0.4603 -0.2302
  120OSM    H9F12649  -0.348  -0.111   5.811  2.8440 -0.3029  3.6782
  120OSM   C10F12650  -0.282   0.034   5.669  0.2095 -0.0477  0.1922
  120OSM   H10F12651  -0.302  -0.022   5.576  0.9471  1.0724 -0.6657
  120OSM   C11F12652  -0.235   0.174   5.648  0.6008 -0.7405 -0.1208
  120OSM   H11F12653  -0.135   0.197   5.692  0.1234  1.7576 -0.1871
  120OSM   H11G12654  -0.310   0.244   5.691 -0.3509 -0.7365 -1.7529
  120OSM   C12F12655  -0.195   0.218   5.502 -0.7249  0.4415  0.2660
  120OSM   H12F12656  -0.114   0.155   5.458  1.2362  0.4986  3.5200
  120OSM   H12G12657  -0.153   0.320   5.509  1.0204 -0.3311  1.9632
  120OSM   C13F12658  -0.317   0.227   5.406  0.3880  0.1523 -0.4442
  120OSM   H13F12659  -0.395   0.301   5.436  1.7929  2.9501 -3.0542
  120OSM   H13G12660  -0.355   0.124   5.395  0.9059 -0.2231  1.1476
  120OSM   C14F12661  -0.274   0.281   5.267 -0.2137 -0.1358  0.2210
  120OSM   H14F12662  -0.202   0.208   5.225 -2.4073 -2.2719 -0.0856
  120OSM   H14G12663  -0.227   0.380   5.283 -2.1221  1.0281 -1.0566
  120OSM   C15F12664  -0.378   0.322   5.166  0.5593  0.5277  0.9539
  120OSM   H15F12665  -0.460   0.372   5.223 -0.2090  0.3338  0.0587
  120OSM   H15G12666  -0.402   0.220   5.129  0.8258  1.2651 -1.3987
  120OSM   C16F12667  -0.319   0.404   5.048 -0.4879 -0.8464  0.1030
  120OSM   H16F12668  -0.304   0.506   5.090 -0.9523 -0.3977 -0.7902
  120OSM   H16G12669  -0.399   0.418   4.972 -0.0545 -0.9026 -0.3676
  120OSM   C17F12670  -0.192   0.348   4.980  0.8339  0.7209  0.9671
  120OSM   H17F12671  -0.120   0.345   5.064  0.7924 -0.2519  0.9745
  120OSM   H17G12672  -0.156   0.428   4.912 -0.4521  0.2684 -0.2946
  120OSM   C18F12673  -0.213   0.220   4.903  0.0252 -0.6766 -0.4790
  120OSM   H18F12674  -0.123   0.194   4.843  1.3161  2.0929  0.0559
  120OSM   H18G12675  -0.300   0.236   4.836  1.5399  1.6396 -2.0793
  120OSM   H18H12676  -0.225   0.145   4.984 -0.3278  1.1543  1.2502
  121OSM      N12677   0.670   1.837   7.388 -0.4334  0.4440  0.1608
  121OSM    C1512678   0.562   1.901   7.319  0.3247  0.2077  0.4618
  121OSM   H15A12679   0.475   1.902   7.383  0.8754 -1.3115  1.2757
  121OSM   H15B12680   0.530   1.849   7.230  0.8353  0.3805  0.1742
  121OSM   H15C12681   0.584   2.002   7.289 -0.0696  0.3086  0.4983
  121OSM    C1412682   0.791   1.844   7.299  0.4477  0.0717 -0.5165
  121OSM   H14A12683   0.779   1.814   7.196  0.4608 -0.5928 -0.3333
  121OSM   H14B12684   0.875   1.794   7.346 -0.9369 -2.1802 -0.2551
  121OSM   H14C12685   0.819   1.946   7.280 -1.7578  0.6940 -0.7078
  121OSM    C1312686   0.703   1.899   7.522 -0.0721  0.0092  0.7348
  121OSM   H13A12687   0.739   1.820   7.586  1.7401  2.4499  2.9690
  121OSM   H13B12688   0.622   1.944   7.578 -1.1676  0.4821 -1.1374
  121OSM   H13C12689   0.784   1.971   7.518 -0.0770  0.0060 -3.1690
  121OSM    C1212690   0.636   1.687   7.399 -0.2103 -0.1918 -0.7101
  121OSM   H12A12691   0.723   1.637   7.438  1.6022  2.1247 -1.5729
  121OSM   H12B12692   0.620   1.648   7.300 -0.4318  0.1648 -0.8195
  121OSM    C1112693   0.514   1.645   7.489 -0.4870 -0.3467 -0.3529
  121OSM   H11A12694   0.545   1.661   7.595  0.1681 -0.9504 -0.4458
  121OSM   H11B12695   0.491   1.536   7.485  0.4246 -0.5432 -0.4938
  121OSM      P12696   0.295   1.692   7.352 -0.0832  0.0366  0.1703
  121OSM    O1312697   0.202   1.582   7.383 -0.2758 -0.3830 -0.1512
  121OSM    O1412698   0.236   1.817   7.308 -0.3382  0.4829 -0.1119
  121OSM    O1112699   0.392   1.649   7.232  0.5036  0.3081 -0.8721
  121OSM    O1212700   0.395   1.720   7.476 -0.4153 -0.0953  0.0306
  121OSM    C1S12701   0.337   1.561   7.134  0.0103  0.0447 -0.4886
  121OSM    H1S12702   0.229   1.572   7.113 -0.7733 -1.2119  2.4206
  121OSM    H1T12703   0.357   1.454   7.157 -0.2734 -0.2182 -1.4354
  121OSM     NF12704   0.341   1.483   6.889  0.8057 -0.9039 -0.7784
  121OSM    HNF12705   0.395   1.426   6.828  4.4954  2.3843 -1.0067
  121OSM    C2S12706   0.410   1.568   6.993  0.9625 -0.6339  1.1883
  121OSM    H2S12707   0.397   1.671   6.955 -0.5797 -2.1991 -3.2055
  121OSM    C3S12708   0.563   1.541   7.001  0.2652 -0.6050 -0.6929
  121OSM    H3S12709   0.571   1.436   7.039 -1.2933  0.0466  1.6595
  121OSM     O312710   0.634   1.606   7.104  0.2461  1.7320  0.3120
  121OSM    HO312711   0.567   1.629   7.168  1.1543 -0.9017  2.4021
  121OSM    C4S12712   0.633   1.557   6.866 -0.4173  0.8281 -0.9901
  121OSM    H4S12713   0.592   1.640   6.806 -0.4590  0.9808 -0.7532
  121OSM    C5S12714   0.724   1.474   6.807  0.0088 -0.3691  0.5438
  121OSM    H5S12715   0.750   1.383   6.863 -0.2317 -0.1389  1.0342
  121OSM    C6S12716   0.787   1.490   6.671  0.0750  0.7901 -0.3124
  121OSM    H6S12717   0.894   1.461   6.672  0.0142  0.5684 -0.1227
  121OSM    H6T12718   0.768   1.590   6.625 -1.9753  0.6649  0.1642
  121OSM    C7S12719   0.721   1.394   6.574 -0.0041  0.9691  0.6179
  121OSM    H7S12720   0.613   1.421   6.568 -1.2975 -3.4022  1.0669
  121OSM    H7T12721   0.708   1.291   6.611 -1.3952  0.8668 -0.0758
  121OSM    C8S12722   0.781   1.400   6.435 -0.4604  0.2424  0.5398
  121OSM    H8S12723   0.888   1.371   6.428 -0.4269  0.7413 -1.8759
  121OSM    H8T12724   0.774   1.503   6.394 -3.1030  0.8081  2.1994
  121OSM    C9S12725   0.716   1.298   6.340  0.5418 -0.0638 -0.2805
  121OSM    H9S12726   0.618   1.264   6.381  0.4875  0.1781 -0.2082
  121OSM    H9T12727   0.775   1.204   6.333 -1.7301 -1.6619  0.7112
  121OSM   C10S12728   0.686   1.359   6.198 -0.0841  0.1247 -0.7945
  121OSM   H10S12729   0.610   1.438   6.215 -0.1073 -0.3987  2.0101
  121OSM   H10T12730   0.645   1.274   6.139 -0.3397  0.8330 -1.6594
  121OSM   C11S12731   0.809   1.410   6.119 -0.1736  0.2532 -0.0546
  121OSM   H11S12732   0.894   1.340   6.133  0.5318  0.9320 -0.8267
  121OSM   H11T12733   0.844   1.510   6.150 -0.6320 -0.1058  1.7255
  121OSM   C12S12734   0.771   1.412   5.972  0.3176 -0.4488  0.3703
  121OSM   H12S12735   0.717   1.318   5.948  2.5993 -2.3059  2.0693
  121OSM   H12T12736   0.864   1.423   5.913  0.1187  2.1414  0.4438
  121OSM   C13S12737   0.681   1.522   5.918 -0.0971  0.1227 -0.1301
  121OSM   H13S12738   0.740   1.616   5.909 -0.7974  0.5349 -0.5142
  121OSM   H13T12739   0.587   1.537   5.975  0.5047  2.2343  0.4133
  121OSM   C14S12740   0.649   1.493   5.772  0.2726 -0.5740 -0.0218
  121OSM   H14S12741   0.571   1.567   5.745 -0.0367 -1.2193 -0.9568
  121OSM   H14T12742   0.605   1.391   5.759  2.7731 -1.7694  0.2683
  121OSM   C15S12743   0.772   1.506   5.674  0.1283 -0.5974 -0.2091
  121OSM   H15S12744   0.836   1.415   5.675  0.4761 -0.3482  0.1408
  121OSM   H15T12745   0.833   1.595   5.701 -0.6493  0.7277 -2.4670
  121OSM   C16S12746   0.729   1.520   5.526  0.7241 -0.1635 -0.2800
  121OSM   H16S12747   0.815   1.558   5.467  0.6071 -0.0970 -0.4095
  121OSM   H16T12748   0.664   1.610   5.524  2.4878  1.2809  2.1893
  121OSM   C17S12749   0.660   1.401   5.452 -0.0637  0.5917 -0.7744
  121OSM   H17S12750   0.584   1.364   5.524 -0.1830 -0.6839 -1.5282
  121OSM   H17T12751   0.723   1.310   5.450 -1.5121 -0.4716 -0.2430
  121OSM   C18S12752   0.579   1.435   5.330  0.2330 -0.3858  0.1296
  121OSM   H18S12753   0.491   1.496   5.361  0.2293 -0.8830  1.1107
  121OSM   H18T12754   0.544   1.346   5.274  2.5163 -1.6592  0.6068
  121OSM   H18U12755   0.638   1.503   5.264  0.1970  0.7731  1.2442
  121OSM    C1F12756   0.217   1.514   6.838  0.3464  1.0300  0.1545
  121OSM     OF12757   0.168   1.623   6.860  0.5230 -0.0013  0.3180
  121OSM    C2F12758   0.167   1.412   6.747  1.0879 -0.4570 -0.2369
  121OSM    H2F12759   0.128   1.323   6.802  0.6118 -0.2545 -0.2466
  121OSM    H2G12760   0.252   1.368   6.691  0.6723 -0.3870 -0.9318
  121OSM    C3F12761   0.057   1.483   6.664  0.5934  0.8936 -0.3837
  121OSM    H3F12762   0.101   1.562   6.600  0.0809  0.7497 -0.9268
  121OSM    H3G12763  -0.019   1.526   6.734 -1.9134 -1.4188 -1.4937
  121OSM    C4F12764  -0.008   1.381   6.571 -0.3426  0.2391 -0.8155
  121OSM    H4F12765  -0.073   1.314   6.632 -0.3427  0.7185 -0.2784
  121OSM    H4G12766   0.083   1.325   6.540  0.4886  0.6084  0.8283
  121OSM    C5F12767  -0.077   1.451   6.454 -0.5372 -0.2546  0.4712
  121OSM    H5F12768  -0.013   1.532   6.412 -1.5547  0.8632  0.9901
  121OSM    H5G12769  -0.170   1.493   6.497 -0.1176  0.9931  0.2153
  121OSM    C6F12770  -0.115   1.371   6.340 -0.1039  0.3085  0.3681
  121OSM    H6F12771  -0.191   1.294   6.365 -1.6675  1.5965 -0.1939
  121OSM    H6G12772  -0.024   1.318   6.307 -1.3770  0.5497 -4.1787
  121OSM    C7F12773  -0.182   1.455   6.225  0.3085  0.0703 -0.0865
  121OSM    H7F12774  -0.100   1.521   6.188 -0.0903  1.0949  0.7964
  121OSM    H7G12775  -0.261   1.520   6.270  1.3618  1.3248 -0.0016
  121OSM    C8F12776  -0.229   1.358   6.113 -0.3642  0.6052  1.3303
  121OSM    H8F12777  -0.307   1.289   6.152 -2.1715  1.3930 -0.6781
  121OSM    H8G12778  -0.141   1.296   6.085  0.4144  2.1115  0.3588
  121OSM    C9F12779  -0.282   1.437   5.991 -0.8479 -0.1206  0.4233
  121OSM    H9F12780  -0.385   1.474   6.000 -1.1096 -0.6014 -0.5728
  121OSM   C10F12781  -0.217   1.451   5.875  0.2938 -0.5039 -0.4009
  121OSM   H10F12782  -0.279   1.499   5.799 -0.0559 -0.4775 -0.1013
  121OSM   C11F12783  -0.075   1.414   5.828 -0.0047  0.5576 -0.1626
  121OSM   H11F12784  -0.050   1.315   5.873  0.3259 -0.2379 -2.0077
  121OSM   H11G12785  -0.004   1.493   5.859 -0.2534  0.1770  1.4679
  121OSM   C12F12786  -0.085   1.413   5.676  0.8385  0.3997  0.0907
  121OSM   H12F12787  -0.111   1.517   5.648 -0.7786  0.2278  0.8556
  121OSM   H12G12788  -0.167   1.345   5.647  1.3386 -1.4653  2.6772
  121OSM   C13F12789   0.044   1.362   5.607  0.5159 -0.4919 -0.0473
  121OSM   H13F12790   0.053   1.254   5.633  0.2036  0.2396  3.6166
  121OSM   H13G12791   0.131   1.417   5.648  0.8348 -2.5594  2.2921
  121OSM   C14F12792   0.037   1.371   5.452 -0.7569 -0.2166  0.3593
  121OSM   H14F12793   0.056   1.478   5.431  0.2746 -0.3486  0.5632
  121OSM   H14G12794  -0.067   1.352   5.418 -0.6034 -0.4639  0.0067
  121OSM   C15F12795   0.137   1.294   5.363 -0.0309  0.0839  0.4319
  121OSM   H15F12796   0.150   1.187   5.388 -0.2234 -0.1120 -0.2914
  121OSM   H15G12797   0.231   1.353   5.357  0.4670 -0.5678  1.6066
  121OSM   C16F12798   0.087   1.304   5.214  0.3109  0.5819 -1.1651
  121OSM   H16F12799   0.081   1.407   5.174 -2.2212 -0.1691 -2.9712
  121OSM   H16G12800  -0.014   1.257   5.204  1.4628 -2.3132 -0.3737
  121OSM   C17F12801   0.184   1.224   5.124 -0.2396 -0.0575 -0.4804
  121OSM   H17F12802   0.194   1.119   5.159  0.8075  0.3935  0.6349
  121OSM   H17G12803   0.280   1.279   5.128 -0.8086  0.9147  0.3417
  121OSM   C18F12804   0.142   1.212   4.977  1.1206  0.3527  0.0262
  121OSM   H18F12805   0.033   1.191   4.970  0.4903  1.9533  3.2574
  121OSM   H18G12806   0.198   1.128   4.931 -1.2890 -1.8138  0.8525
  121OSM   H18H12807   0.162   1.306   4.920  4.1627 -0.3029 -0.1516
  122OSM      N12808   0.989   3.770   7.265  0.1007  0.1824  0.1091
  122OSM    C1512809   1.128   3.732   7.320  0.6306 -0.2638 -0.1126
  122OSM   H15A12810   1.189   3.815   7.289 -2.2917  1.4008 -1.9186
  122OSM   H15B12811   1.161   3.638   7.279 -1.1865 -0.5784 -0.9690
  122OSM   H15C12812   1.127   3.726   7.427 -0.1978  1.0411 -0.0137
  122OSM    C1412813   0.942   3.897   7.338  0.2257  0.0752  0.5700
  122OSM   H14A12814   0.837   3.911   7.319  0.1528 -1.7882 -0.6093
  122OSM   H14B12815   1.004   3.982   7.313 -0.4189  0.8988  1.7057
  122OSM   H14C12816   0.936   3.884   7.445 -2.7060 -0.9047  0.3805
  122OSM    C1312817   0.987   3.795   7.116 -0.0365  0.5021  0.8476
  122OSM   H13A12818   0.885   3.807   7.085  0.4531  0.7650 -0.7193
  122OSM   H13B12819   1.032   3.717   7.056 -1.3238 -0.7002  1.3896
  122OSM   H13C12820   1.039   3.887   7.093  0.7702 -0.4370 -1.3925
  122OSM    C1212821   0.891   3.656   7.312  0.1797 -0.1702 -0.1510
  122OSM   H12A12822   0.789   3.686   7.298  1.0499  4.1517  1.3875
  122OSM   H12B12823   0.915   3.649   7.417  1.8643  3.7019 -0.1078
  122OSM    C1112824   0.913   3.510   7.253 -0.6027  0.2822  0.3475
  122OSM   H11A12825   0.872   3.433   7.321  0.5531 -0.9454 -0.2968
  122OSM   H11B12826   1.021   3.484   7.249 -0.7052 -0.1642  0.4171
  122OSM      P12827   0.731   3.412   7.092 -0.2605  0.3350  0.3434
  122OSM    O1312828   0.762   3.282   7.152  0.1312 -0.0442 -0.0287
  122OSM    O1412829   0.602   3.479   7.133  0.2620  0.2019  0.9274
  122OSM    O1112830   0.729   3.405   6.940  0.1123 -0.0823 -1.2375
  122OSM    O1212831   0.849   3.503   7.122  0.4129  0.5231 -0.1508
  122OSM    C1S12832   0.851   3.410   6.862 -0.6296  0.1494 -0.4617
  122OSM    H1S12833   0.904   3.319   6.897  1.2231  0.8908 -1.2402
  122OSM    H1T12834   0.908   3.504   6.878  2.4906 -1.3735 -1.7852
  122OSM     NF12835   0.934   3.375   6.634  0.2193 -0.4421 -0.4974
  122OSM    HNF12836   0.983   3.456   6.603  0.4052 -0.8337 -1.2755
  122OSM    C2S12837   0.820   3.393   6.709 -0.0785 -0.3249 -0.2799
  122OSM    H2S12838   0.756   3.303   6.695 -3.6630  1.9034  0.4616
  122OSM    C3S12839   0.741   3.516   6.671  0.3481 -0.6336  0.4283
  122OSM    H3S12840   0.813   3.600   6.679 -1.2035  0.8607 -0.4623
  122OSM     O312841   0.624   3.563   6.739 -0.5802  0.5880 -0.3096
  122OSM    HO312842   0.630   3.515   6.821  1.9381 -3.1189 -2.3809
  122OSM    C4S12843   0.690   3.498   6.530  0.2482 -0.1343 -0.5563
  122OSM    H4S12844   0.603   3.432   6.514  0.2543 -0.3636  0.2953
  122OSM    C5S12845   0.745   3.545   6.424 -0.2162 -0.2707 -0.2341
  122OSM    H5S12846   0.847   3.586   6.432 -0.3963 -0.0948  1.3702
  122OSM    C6S12847   0.693   3.522   6.282  0.3545 -0.5343 -0.3221
  122OSM    H6S12848   0.707   3.616   6.224  1.6802  0.0974  0.9516
  122OSM    H6T12849   0.584   3.502   6.283  0.5674 -1.7661 -0.5866
  122OSM    C7S12850   0.749   3.391   6.224  0.5008  0.8696  0.7997
  122OSM    H7S12851   0.689   3.306   6.263 -0.9102  1.5462  0.1766
  122OSM    H7T12852   0.857   3.389   6.248  1.0264 -0.4195 -1.4745
  122OSM    C8S12853   0.752   3.374   6.071  0.0548  0.0062  0.5469
  122OSM    H8S12854   0.650   3.383   6.026  1.4478  0.3773 -2.7948
  122OSM    H8T12855   0.795   3.273   6.052 -0.0534 -0.0776  0.7368
  122OSM    C9S12856   0.839   3.480   5.997 -0.0848  0.0196 -0.3303
  122OSM    H9S12857   0.941   3.460   6.038 -0.2999  1.3744  0.9733
  122OSM    H9T12858   0.811   3.576   6.045 -0.7618 -0.8690  1.1462
  122OSM   C10S12859   0.823   3.476   5.842  0.1817 -0.8415  0.2534
  122OSM   H10S12860   0.728   3.531   5.824  1.9999  2.7729  0.8088
  122OSM   H10T12861   0.818   3.368   5.816 -0.6059 -0.8902  0.5758
  122OSM   C11S12862   0.947   3.539   5.771 -0.1306 -0.2086 -0.1033
  122OSM   H11S12863   1.037   3.480   5.802  0.4954  0.8993  0.2343
  122OSM   H11T12864   0.967   3.641   5.810  1.2572 -0.9835  1.3203
  122OSM   C12S12865   0.961   3.545   5.615  0.0685  0.1217 -0.2920
  122OSM   H12S12866   0.879   3.596   5.560 -0.4508  0.4682  0.7767
  122OSM   H12T12867   0.944   3.439   5.585  0.3482 -0.9471  2.9615
  122OSM   C13S12868   1.097   3.587   5.560 -0.7019 -0.7010  0.6602
  122OSM   H13S12869   1.178   3.550   5.628 -1.5953  0.1720  2.2555
  122OSM   H13T12870   1.108   3.698   5.564 -0.9792 -0.6825  0.9681
  122OSM   C14S12871   1.130   3.550   5.412 -0.0186 -0.1902  0.7042
  122OSM   H14S12872   1.116   3.440   5.403 -1.9943  0.1956 -3.5235
  122OSM   H14T12873   1.234   3.565   5.376  0.9979 -0.0259  3.4580
  122OSM   C15S12874   1.033   3.620   5.316  0.1166  0.8168 -0.4314
  122OSM   H15S12875   1.054   3.726   5.341  0.0463  0.6008  0.5980
  122OSM   H15T12876   0.928   3.587   5.333  1.1894 -2.8989 -0.1653
  122OSM   C16S12877   1.065   3.602   5.165 -0.1475 -0.0805 -0.0635
  122OSM   H16S12878   1.047   3.498   5.131  0.4211  0.3105 -1.6333
  122OSM   H16T12879   1.175   3.621   5.159  0.0190 -1.0608 -0.2277
  122OSM   C17S12880   0.991   3.693   5.072  0.4322  0.8607  0.6262
  122OSM   H17S12881   1.014   3.799   5.096  2.3369  1.0218 -1.5259
  122OSM   H17T12882   0.882   3.670   5.080  0.5633  0.2395  0.6748
  122OSM   C18S12883   1.026   3.679   4.918 -0.1409  0.0878  0.1072
  122OSM   H18S12884   1.135   3.694   4.904 -0.2480  0.7224 -0.0872
  122OSM   H18T12885   0.977   3.759   4.859  0.0950  1.7587  2.0396
  122OSM   H18U12886   0.998   3.583   4.871 -0.8288 -0.4587  1.5675
  122OSM    C1F12887   1.001   3.258   6.618 -0.0446  0.1967 -0.4574
  122OSM     OF12888   0.966   3.153   6.668 -0.5476  0.2657  0.1872
  122OSM    C2F12889   1.123   3.276   6.528 -0.0432 -0.4674 -0.7743
  122OSM    H2F12890   1.213   3.253   6.589 -0.5956  0.8194  0.5922
  122OSM    H2G12891   1.130   3.376   6.480  2.7043  0.7869  1.8738
  122OSM    C3F12892   1.107   3.176   6.412 -0.1531  0.2265 -0.0812
  122OSM    H3F12893   1.003   3.182   6.375 -0.1582  4.7365  0.1084
  122OSM    H3G12894   1.111   3.071   6.450  0.5322 -0.2171 -1.3313
  122OSM    C4F12895   1.194   3.207   6.289 -0.3707 -0.5300 -0.1008
  122OSM    H4F12896   1.299   3.178   6.309  0.3581  0.7708 -1.8305
  122OSM    H4G12897   1.192   3.316   6.266  0.4706 -0.3080  0.7858
  122OSM    C5F12898   1.142   3.134   6.166 -0.3667 -0.5112 -0.5067
  122OSM    H5F12899   1.047   3.171   6.123 -0.8486 -0.3505  0.6655
  122OSM    H5G12900   1.110   3.034   6.203 -1.5258 -0.3788 -1.1291
  122OSM    C6F12901   1.248   3.115   6.051  0.9726  0.7383  0.4820
  122OSM    H6F12902   1.284   3.010   6.051 -0.4872  0.1739 -1.3577
  122OSM    H6G12903   1.340   3.170   6.081  2.5036 -1.7719  0.7140
  122OSM    C7F12904   1.202   3.169   5.918  0.6236 -0.1880 -0.2154
  122OSM    H7F12905   1.187   3.279   5.925  0.0290 -0.3497  1.3883
  122OSM    H7G12906   1.113   3.116   5.879  1.2165 -0.3304 -1.4099
  122OSM    C8F12907   1.311   3.147   5.819 -0.0026  0.1185  0.3373
  122OSM    H8F12908   1.308   3.037   5.806  2.2160  0.1024 -0.4959
  122OSM    H8G12909   1.410   3.163   5.867  0.3562 -0.0128 -0.3477
  122OSM    C9F12910   1.294   3.236   5.699  0.0255  0.3812  0.1499
  122OSM    H9F12911   1.279   3.341   5.725  1.5743  0.3222  1.4427
  122OSM   C10F12912   1.295   3.209   5.563  0.0506  0.1695  0.3398
  122OSM   H10F12913   1.312   3.298   5.500  0.5131  0.5886  1.0378
  122OSM   C11F12914   1.303   3.070   5.500 -0.5597  0.1231  0.2214
  122OSM   H11F12915   1.262   2.998   5.573 -1.4190  0.1174 -0.2468
  122OSM   H11G12916   1.405   3.040   5.468 -0.8146 -2.9249  1.8984
  122OSM   C12F12917   1.209   3.065   5.372 -0.3773  0.0069  0.1804
  122OSM   H12F12918   1.220   3.146   5.297  1.0539  1.2157  1.6147
  122OSM   H12G12919   1.102   3.068   5.400 -0.8934  1.6171 -1.7569
  122OSM   C13F12920   1.243   2.949   5.279  0.0541 -0.4651 -0.6626
  122OSM   H13F12921   1.206   2.864   5.340  1.2358  0.4727  1.4753
  122OSM   H13G12922   1.353   2.951   5.268  0.3091  1.1552  1.4440
  122OSM   C14F12923   1.163   2.947   5.143  0.0053  0.6059 -0.8777
  122OSM   H14F12924   1.056   2.938   5.172  0.4215  0.8055  0.8204
  122OSM   H14G12925   1.175   2.848   5.095  1.2260 -0.1299  0.8467
  122OSM   C15F12926   1.187   3.060   5.045  0.7965  0.1791 -0.5276
  122OSM   H15F12927   1.123   3.144   5.079  0.9395 -1.4145  4.4123
  122OSM   H15G12928   1.150   3.030   4.945 -1.4275 -1.6926  0.7710
  122OSM   C16F12929   1.336   3.109   5.032 -0.3231 -0.1426  0.7477
  122OSM   H16F12930   1.382   3.015   4.995  0.4288  0.5912 -0.2196
  122OSM   H16G12931   1.364   3.131   5.137 -1.9063 -1.3816  1.4660
  122OSM   C17F12932   1.366   3.228   4.936 -0.4701 -0.1776  0.0675
  122OSM   H17F12933   1.368   3.199   4.828  0.5937  0.6981 -0.1622
  122OSM   H17G12934   1.473   3.251   4.953 -0.1776 -1.0947 -0.4345
  122OSM   C18F12935   1.269   3.348   4.943  0.1820  0.0373 -0.3406
  122OSM   H18F12936   1.166   3.324   4.910  0.7082 -2.6747 -0.2122
  122OSM   H18G12937   1.306   3.432   4.880 -0.2070  0.0570 -0.5408
  122OSM   H18H12938   1.259   3.382   5.048  2.8941 -1.3601  0.4741
  123OSM      N12939   2.390   3.525   2.744 -0.0162 -0.2653 -0.2163
  123OSM    C1512940   2.424   3.639   2.660  0.2003 -0.3023 -0.1233
  123OSM   H15A12941   2.337   3.695   2.628  0.4730 -0.0179 -0.3716
  123OSM   H15B12942   2.483   3.612   2.574 -0.1424 -1.3129 -0.0503
  123OSM   H15C12943   2.487   3.717   2.702 -0.0513 -0.5344  0.7142
  123OSM    C1412944   2.283   3.450   2.679  0.6023 -0.5009  0.1477
  123OSM   H14A12945   2.255   3.369   2.744 -1.3647 -2.1521 -2.5372
  123OSM   H14B12946   2.315   3.409   2.584 -1.4016 -0.1282 -0.7350
  123OSM   H14C12947   2.200   3.515   2.654  0.6720 -0.1156  0.8888
  123OSM    C1312948   2.514   3.446   2.762  1.1085  0.4389  0.5912
  123OSM   H13A12949   2.504   3.359   2.826  2.2185 -0.1212  0.0290
  123OSM   H13B12950   2.591   3.513   2.797  2.9657 -1.2789  0.0187
  123OSM   H13C12951   2.547   3.413   2.665  4.5049 -0.0938  1.8004
  123OSM    C1212952   2.351   3.582   2.881  0.4481  0.3342  0.1557
  123OSM   H12A12953   2.439   3.599   2.942  0.2484 -0.3041  0.6282
  123OSM   H12B12954   2.298   3.504   2.934 -0.3985  0.7677 -0.0440
  123OSM    C1112955   2.242   3.697   2.885 -0.4513  0.9640 -1.1805
  123OSM   H11A12956   2.298   3.783   2.841  1.6474  0.6230  0.6288
  123OSM   H11B12957   2.213   3.723   2.989  3.7363 -1.6024  0.8875
  123OSM      P12958   2.027   3.781   2.779  0.1608 -0.3161  0.5511
  123OSM    O1312959   2.108   3.893   2.719 -0.5958 -0.4340  0.1079
  123OSM    O1412960   1.907   3.739   2.706  0.0738  0.6936 -0.1851
  123OSM    O1112961   1.977   3.833   2.921 -0.3063  0.3762 -0.8137
  123OSM    O1212962   2.124   3.660   2.809  0.6512 -0.9852 -0.4572
  123OSM    C1S12963   1.884   3.749   2.998 -0.4018 -0.2042 -0.2146
  123OSM    H1S12964   1.921   3.645   2.991  1.6752  0.6142 -3.6236
  123OSM    H1T12965   1.781   3.750   2.956 -0.0621 -0.6793 -1.0752
  123OSM     NF12966   1.803   3.686   3.229 -0.1466 -0.3780  0.2009
  123OSM    HNF12967   1.717   3.716   3.268 -1.2362 -1.9330 -0.8946
  123OSM    C2S12968   1.891   3.776   3.152  0.3675 -0.1559 -0.3178
  123OSM    H2S12969   1.998   3.764   3.178  1.0013  2.5551 -1.3612
  123OSM    C3S12970   1.850   3.921   3.167 -0.7321 -0.2590  0.5333
  123OSM    H3S12971   1.750   3.927   3.119  0.4585  1.1712 -1.9720
  123OSM     O312972   1.929   4.018   3.097  0.1895  0.0458 -0.4435
  123OSM    HO312973   1.981   3.964   3.038  0.5614 -0.0168 -0.0641
  123OSM    C4S12974   1.838   3.960   3.313  0.7944  0.1183 -0.0269
  123OSM    H4S12975   1.734   3.961   3.349  0.9063  1.7535  0.3229
  123OSM    C5S12976   1.932   4.009   3.391 -0.2217 -0.0904 -0.0181
  123OSM    H5S12977   2.033   4.026   3.352  1.0454  0.9783  3.3465
  123OSM    C6S12978   1.913   4.076   3.522  0.1557  0.0272  0.4753
  123OSM    H6S12979   1.807   4.061   3.551 -0.8300  2.7154 -1.3169
  123OSM    H6T12980   1.922   4.187   3.518  0.8193 -0.0682 -1.7298
  123OSM    C7S12981   1.985   4.003   3.635 -0.0091  0.2606 -0.2020
  123OSM    H7S12982   2.092   4.027   3.616  0.5647 -1.8449  0.0818
  123OSM    H7T12983   1.980   3.893   3.648 -1.6219  0.0792 -1.9387
  123OSM    C8S12984   1.936   4.060   3.772  0.0082  0.1227  0.2038
  123OSM    H8S12985   1.826   4.077   3.777 -0.0432 -0.3781  0.8690
  123OSM    H8T12986   1.968   4.167   3.773 -1.3167  0.5751 -1.3962
  123OSM    C9S12987   1.986   3.989   3.896 -0.3496  0.2080 -0.0012
  123OSM    H9S12988   2.085   3.947   3.870 -2.0101 -2.2745 -3.1223
  123OSM    H9T12989   1.925   3.898   3.917 -0.8244 -0.2999 -3.1633
  123OSM   C10S12990   1.983   4.072   4.024 -0.3712 -0.0502 -0.4856
  123OSM   H10S12991   1.879   4.111   4.031 -0.4290 -0.5194  2.5409
  123OSM   H10T12992   2.050   4.160   4.013 -0.6253  0.2400  0.2522
  123OSM   C11S12993   2.018   3.991   4.148  0.3565 -0.4033  1.0397
  123OSM   H11S12994   2.118   3.950   4.124  0.1122  0.2675 -1.3647
  123OSM   H11T12995   1.957   3.899   4.153 -0.3803  0.0358  0.4002
  123OSM   C12S12996   2.015   4.085   4.272  0.4908 -0.1428 -0.0110
  123OSM   H12S12997   1.913   4.129   4.285  1.2988  1.4841  1.0909
  123OSM   H12T12998   2.078   4.171   4.244 -1.9931  2.5167  1.9495
  123OSM   C13S12999   2.084   4.023   4.393 -0.0490 -0.0440 -0.3977
  123OSM   H13S13000   2.190   4.002   4.369  0.0942 -0.1994  0.3404
  123OSM   H13T13001   2.028   3.928   4.411 -2.0049  0.8756 -1.4129
  123OSM   C14S13002   2.076   4.124   4.513  0.7201 -0.4361  0.2419
  123OSM   H14S13003   1.971   4.149   4.540  0.0624  1.3618 -3.3480
  123OSM   H14T13004   2.111   4.221   4.471 -1.0842 -0.2041 -0.8261
  123OSM   C15S13005   2.161   4.090   4.640  0.3473 -0.6248  0.5737
  123OSM   H15S13006   2.117   4.011   4.704  0.2772 -1.8113 -0.8742
  123OSM   H15T13007   2.158   4.189   4.690 -0.6508 -0.3746  0.0401
  123OSM   C16S13008   2.310   4.052   4.614 -0.0836  0.1070 -0.3607
  123OSM   H16S13009   2.358   4.132   4.554  2.3414 -0.4607  0.7118
  123OSM   H16T13010   2.310   3.953   4.564 -0.7331 -0.8266  1.4021
  123OSM   C17S13011   2.392   4.038   4.741  0.5329 -0.4363 -0.3722
  123OSM   H17S13012   2.427   4.135   4.782 -0.7400 -0.2975  0.4161
  123OSM   H17T13013   2.480   3.979   4.707  2.2260  0.4343  2.1912
  123OSM   C18S13014   2.324   3.970   4.863  0.0176 -0.0732  0.3643
  123OSM   H18S13015   2.250   4.038   4.911 -1.0816 -0.2644 -1.0136
  123OSM   H18T13016   2.400   3.944   4.940  2.1224  0.1486 -1.5528
  123OSM   H18U13017   2.273   3.872   4.849 -1.2827  0.3984  1.5141
  123OSM    C1F13018   1.847   3.572   3.269  0.1132 -0.3333 -0.8243
  123OSM     OF13019   1.967   3.546   3.252  0.5397 -1.1900  0.0939
  123OSM    C2F13020   1.759   3.471   3.344 -0.3865 -0.5610  0.0417
  123OSM    H2F13021   1.668   3.448   3.285 -2.0655  0.1049  2.2122
  123OSM    H2G13022   1.718   3.506   3.442  3.4297 -0.5462  1.8207
  123OSM    C3F13023   1.811   3.333   3.378 -0.4291  0.3351 -0.5726
  123OSM    H3F13024   1.842   3.288   3.281  1.7667 -2.7837  1.3585
  123OSM    H3G13025   1.725   3.272   3.410  1.1786 -0.8883  1.6837
  123OSM    C4F13026   1.927   3.320   3.480  0.2135 -0.2739  0.2044
  123OSM    H4F13027   1.989   3.409   3.457 -1.1361  0.6945  0.1929
  123OSM    H4G13028   1.983   3.228   3.453 -1.3965 -0.8131 -1.5107
  123OSM    C5F13029   1.882   3.309   3.628  0.5934 -0.9440 -0.9369
  123OSM    H5F13030   1.804   3.232   3.647 -0.5544  0.9955  3.5975
  123OSM    H5G13031   1.823   3.396   3.665  1.3973 -0.9810  0.5236
  123OSM    C6F13032   1.992   3.278   3.730 -0.2396 -0.0526  0.4874
  123OSM    H6F13033   2.062   3.365   3.724 -0.7829  0.3090 -0.8117
  123OSM    H6G13034   2.043   3.184   3.702  0.0883 -0.2441  1.6752
  123OSM    C7F13035   1.940   3.279   3.878  0.0376 -0.1878  0.1424
  123OSM    H7F13036   1.848   3.218   3.879  0.6899 -1.2302  2.2562
  123OSM    H7G13037   1.915   3.378   3.923  2.4976 -0.0670  1.4192
  123OSM    C8F13038   2.035   3.203   3.967  0.3039 -0.4212  0.4673
  123OSM    H8F13039   2.026   3.093   3.958 -3.2946 -0.0930 -1.9525
  123OSM    H8G13040   2.003   3.211   4.073 -0.1775  0.6761  0.2539
  123OSM    C9F13041   2.186   3.242   3.957 -0.5898  0.3059 -0.2745
  123OSM    H9F13042   2.222   3.261   3.854 -1.1567  1.9653 -0.1980
  123OSM   C10F13043   2.269   3.264   4.060  0.2587  0.0657  0.3648
  123OSM   H10F13044   2.373   3.290   4.034  0.9729 -2.2112  0.6857
  123OSM   C11F13045   2.237   3.241   4.203 -0.9701  0.2547  0.2188
  123OSM   H11F13046   2.129   3.222   4.221 -1.1246 -1.5359 -2.1155
  123OSM   H11G13047   2.252   3.333   4.263  0.0268  0.1617  0.1298
  123OSM   C12F13048   2.333   3.128   4.254  0.6532 -0.2069 -0.6669
  123OSM   H12F13049   2.428   3.183   4.272  1.0679 -0.9533 -0.5339
  123OSM   H12G13050   2.344   3.049   4.176 -0.2483 -2.7034  1.6042
  123OSM   C13F13051   2.272   3.072   4.386 -0.2577  0.9293 -0.7978
  123OSM   H13F13052   2.177   3.024   4.354  0.2070 -2.1153  1.8591
  123OSM   H13G13053   2.249   3.158   4.452 -2.8260 -1.0621  1.0839
  123OSM   C14F13054   2.361   2.970   4.458 -0.4775  0.1089 -0.1068
  123OSM   H14F13055   2.355   2.868   4.416 -1.9213  0.6950 -1.3777
  123OSM   H14G13056   2.327   2.956   4.563 -0.1579 -0.3894 -0.0654
  123OSM   C15F13057   2.512   3.014   4.477  0.6333  0.6018  0.1364
  123OSM   H15F13058   2.560   3.022   4.377  2.3590 -0.9755  0.7706
  123OSM   H15G13059   2.569   2.930   4.523 -0.3633 -0.5717 -0.7161
  123OSM   C16F13060   2.528   3.137   4.567  0.4623 -0.3371  0.0717
  123OSM   H16F13061   2.457   3.133   4.652  1.1579  3.6431  1.0584
  123OSM   H16G13062   2.497   3.219   4.499 -0.9006 -0.7413  0.1768
  123OSM   C17F13063   2.664   3.181   4.614 -0.2453  0.6028  0.0374
  123OSM   H17F13064   2.734   3.175   4.528 -0.6210 -2.8388 -0.1558
  123OSM   H17G13065   2.712   3.098   4.670  1.6524  1.4906 -0.1947
  123OSM   C18F13066   2.682   3.313   4.695 -0.0558 -0.5811 -0.1395
  123OSM   H18F13067   2.685   3.402   4.629 -1.8313 -1.1387 -1.0549
  123OSM   H18G13068   2.782   3.303   4.741 -0.1869  1.3805  0.6426
  123OSM   H18H13069   2.599   3.326   4.768 -1.2740  0.9910 -1.7287
  124OSM      N13070   0.751   5.466   2.761 -0.0664  0.1064 -0.0076
  124OSM    C1513071   0.810   5.563   2.865 -0.3431  0.6688  0.0497
  124OSM   H15A13072   0.752   5.654   2.864 -1.9165 -0.2914 -1.6076
  124OSM   H15B13073   0.907   5.590   2.826 -0.8099  1.0613 -0.8720
  124OSM   H15C13074   0.818   5.508   2.958 -3.0024 -1.9438 -1.1086
  124OSM    C1413075   0.752   5.546   2.636  0.9268 -0.2247 -0.0563
  124OSM   H14A13076   0.720   5.649   2.643 -0.1241 -0.3499 -2.2262
  124OSM   H14B13077   0.685   5.499   2.565 -1.2833 -1.7995  2.8507
  124OSM   H14C13078   0.849   5.556   2.591  0.2880 -0.2505 -1.4872
  124OSM    C1313079   0.839   5.348   2.740  0.0477  0.0628 -0.2908
  124OSM   H13A13080   0.805   5.289   2.656  1.2928 -1.4959  0.2567
  124OSM   H13B13081   0.852   5.288   2.829 -0.7083 -3.3824 -2.3372
  124OSM   H13C13082   0.932   5.384   2.700  0.6618  2.0047  2.5737
  124OSM    C1213083   0.613   5.439   2.807  0.0706 -0.3977 -0.1892
  124OSM   H12A13084   0.565   5.374   2.735  0.6906 -0.9579 -0.1098
  124OSM   H12B13085   0.563   5.534   2.819 -1.5311 -1.3813  1.3056
  124OSM    C1113086   0.597   5.348   2.926  0.5390 -0.1593  0.2520
  124OSM   H11A13087   0.620   5.397   3.023 -2.6936 -0.1271  1.1068
  124OSM   H11B13088   0.648   5.249   2.924  0.4462 -0.2529  1.8198
  124OSM      P13089   0.347   5.405   2.997 -0.0782  0.5161 -0.1708
  124OSM    O1313090   0.388   5.542   3.014 -0.3720  0.2099 -0.2904
  124OSM    O1413091   0.227   5.393   2.918 -0.0175  0.1042  0.0527
  124OSM    O1113092   0.319   5.322   3.133 -0.2266  0.5923 -0.0865
  124OSM    O1213093   0.459   5.314   2.920 -0.1301  0.2820 -0.4709
  124OSM    C1S13094   0.426   5.273   3.214 -0.0327 -0.4640  0.5479
  124OSM    H1S13095   0.500   5.354   3.231 -1.4683  0.9580  0.2286
  124OSM    H1T13096   0.479   5.193   3.158  0.3588 -0.1144  0.4159
  124OSM     NF13097   0.468   5.150   3.432 -0.3107 -0.0045  0.6831
  124OSM    HNF13098   0.493   5.056   3.412 -1.1086  0.1817 -1.3818
  124OSM    C2S13099   0.361   5.191   3.340 -0.2014 -0.4272 -0.2403
  124OSM    H2S13100   0.298   5.256   3.403 -1.5595  0.3951 -2.3578
  124OSM    C3S13101   0.258   5.086   3.290  0.7835  0.0309 -0.1790
  124OSM    H3S13102   0.307   5.017   3.218 -2.0285 -1.3216 -0.9355
  124OSM     O313103   0.146   5.147   3.219  0.1161  0.0105  0.1202
  124OSM    HO313104   0.178   5.230   3.184  2.0751 -1.3227 -1.4591
  124OSM    C4S13105   0.201   5.013   3.401  0.7411 -0.1829  0.8065
  124OSM    H4S13106   0.164   5.070   3.488 -0.2134  1.0578 -0.3649
  124OSM    C5S13107   0.209   4.876   3.404 -0.2663 -0.5566 -0.5977
  124OSM    H5S13108   0.260   4.818   3.326 -0.8144  1.3116 -2.4176
  124OSM    C6S13109   0.169   4.784   3.518 -0.4251 -0.8600 -0.1746
  124OSM    H6S13110   0.261   4.726   3.540  1.3038  2.0942  0.9052
  124OSM    H6T13111   0.083   4.726   3.479 -0.3463  0.1396 -1.9477
  124OSM    C7S13112   0.120   4.863   3.641  0.0491 -0.0514 -0.5617
  124OSM    H7S13113   0.026   4.901   3.596 -0.7287  0.8060  1.6516
  124OSM    H7T13114   0.175   4.956   3.666  0.6245 -0.6046  0.3093
  124OSM    C8S13115   0.094   4.781   3.767  1.3589  0.8208 -0.2216
  124OSM    H8S13116   0.186   4.744   3.816  1.6381 -0.7716 -1.8490
  124OSM    H8T13117   0.040   4.692   3.728 -0.1901  1.0699  1.1953
  124OSM    C9S13118   0.002   4.846   3.864 -0.3239  0.2643  0.1671
  124OSM    H9S13119  -0.096   4.882   3.827 -0.2771  0.6533  0.4199
  124OSM    H9T13120   0.053   4.939   3.898  0.7196  0.6794 -2.3078
  124OSM   C10S13121  -0.010   4.773   3.992  0.6505  0.0995  0.6718
  124OSM   H10S13122   0.093   4.740   4.020  1.7849  3.4939  0.9936
  124OSM   H10T13123  -0.072   4.686   3.963  0.9290 -0.1449  0.8000
  124OSM   C11S13124  -0.090   4.841   4.102 -0.4672 -0.3473 -0.4623
  124OSM   H11S13125  -0.017   4.906   4.154 -0.2532  0.2961 -1.5427
  124OSM   H11T13126  -0.118   4.765   4.178 -0.4092 -1.0034 -1.0862
  124OSM   C12S13127  -0.214   4.930   4.073 -0.1602 -0.0519 -0.7604
  124OSM   H12S13128  -0.269   4.890   3.985  0.1479  2.5974 -2.2474
  124OSM   H12T13129  -0.168   5.023   4.034  1.2748 -0.7562 -0.8305
  124OSM   C13S13130  -0.306   4.945   4.195  0.4649 -0.0401  0.5376
  124OSM   H13S13131  -0.344   4.846   4.228 -0.9619  0.6957  1.2052
  124OSM   H13T13132  -0.387   5.010   4.155  2.7989  2.4355 -0.5034
  124OSM   C14S13133  -0.235   5.008   4.317 -0.0657  0.4868  0.3320
  124OSM   H14S13134  -0.158   5.082   4.287 -0.4148  0.7841  0.1551
  124OSM   H14T13135  -0.174   4.930   4.367  2.0928  2.2156  0.5795
  124OSM   C15S13136  -0.331   5.079   4.418 -0.2128  0.0872  0.1668
  124OSM   H15S13137  -0.410   5.004   4.441 -1.7395  1.3568 -0.8002
  124OSM   H15T13138  -0.386   5.163   4.371  1.4470  0.9283 -0.3331
  124OSM   C16S13139  -0.270   5.120   4.546  0.3111 -0.1167 -1.0887
  124OSM   H16S13140  -0.222   5.034   4.598 -0.0207  0.2320 -0.1872
  124OSM   H16T13141  -0.350   5.157   4.613  1.4408  1.9214 -0.7640
  124OSM   C17S13142  -0.181   5.243   4.526 -0.0196  0.8393  0.0895
  124OSM   H17S13143  -0.198   5.314   4.610 -1.7284 -0.5810  1.0180
  124OSM   H17T13144  -0.182   5.291   4.426  1.4604  1.6060  0.4109
  124OSM   C18S13145  -0.035   5.205   4.531 -0.5470 -0.1198 -0.2116
  124OSM   H18S13146   0.002   5.186   4.634 -3.1335  1.7541  1.1789
  124OSM   H18T13147   0.028   5.280   4.479 -1.3140  0.1082 -0.8277
  124OSM   H18U13148  -0.015   5.111   4.475  2.1331 -1.4287  2.6330
  124OSM    C1F13149   0.535   5.242   3.509  0.2582  0.4109  0.3231
  124OSM     OF13150   0.488   5.354   3.546 -0.2435  0.1663 -0.5202
  124OSM    C2F13151   0.676   5.217   3.547  0.1953  0.5112  0.7899
  124OSM    H2F13152   0.749   5.258   3.474  0.3121  3.7353  2.5359
  124OSM    H2G13153   0.688   5.107   3.557 -1.9590 -0.0740 -2.0028
  124OSM    C3F13154   0.708   5.280   3.687 -0.2011 -0.3075 -0.8270
  124OSM    H3F13155   0.655   5.227   3.768  0.1018  2.4013  1.2939
  124OSM    H3G13156   0.669   5.384   3.681  1.9904  0.5297 -2.0910
  124OSM    C4F13157   0.856   5.299   3.731  0.6347  0.1959  0.3632
  124OSM    H4F13158   0.905   5.350   3.645 -1.8295 -1.2420 -2.0437
  124OSM    H4G13159   0.915   5.205   3.738  0.7118  0.3694  4.2571
  124OSM    C5F13160   0.864   5.359   3.875  0.3914  0.1959  0.2509
  124OSM    H5F13161   0.827   5.271   3.931  2.9144 -1.4208 -0.4330
  124OSM    H5G13162   0.791   5.441   3.891  0.1918  0.1324 -0.3147
  124OSM    C6F13163   1.005   5.402   3.909  0.1208 -0.1744  0.9338
  124OSM    H6F13164   1.071   5.317   3.879  1.2081  0.8970  0.1812
  124OSM    H6G13165   1.015   5.420   4.018  1.9090  1.6689  0.5224
  124OSM    C7F13166   1.054   5.537   3.848  0.2873 -0.6294 -0.0129
  124OSM    H7F13167   0.964   5.601   3.864 -0.3111 -1.4822  0.0746
  124OSM    H7G13168   1.070   5.530   3.738 -1.0256  0.5689 -0.3115
  124OSM    C8F13169   1.175   5.607   3.914 -0.2261  0.3455  0.5970
  124OSM    H8F13170   1.205   5.694   3.852 -1.0458  1.0919  1.2159
  124OSM    H8G13171   1.263   5.539   3.921  0.2886  0.8713 -0.5032
  124OSM    C9F13172   1.127   5.653   4.048  0.8231 -0.1711  1.0377
  124OSM    H9F13173   1.030   5.704   4.036  1.5278  0.5931 -2.8720
  124OSM   C10F13174   1.186   5.637   4.162 -0.4200  0.1491  0.1356
  124OSM   H10F13175   1.139   5.672   4.254  0.1595  0.8757  0.1608
  124OSM   C11F13176   1.325   5.575   4.188  0.0015 -0.0265 -0.6605
  124OSM   H11F13177   1.383   5.640   4.257 -1.8086  0.4023  0.5121
  124OSM   H11G13178   1.385   5.576   4.094  2.0421  0.5255  0.5672
  124OSM   C12F13179   1.313   5.438   4.248 -0.2439 -0.2673 -0.9393
  124OSM   H12F13180   1.415   5.403   4.272 -0.8412 -1.2733  0.2544
  124OSM   H12G13181   1.265   5.375   4.170  1.9912  0.4516 -3.0368
  124OSM   C13F13182   1.220   5.443   4.368 -0.5360 -0.5782  0.2252
  124OSM   H13F13183   1.114   5.445   4.335 -0.3816  0.0771 -0.2395
  124OSM   H13G13184   1.241   5.535   4.426  2.8021 -0.8945 -0.3031
  124OSM   C14F13185   1.240   5.330   4.469 -0.0494  0.0344  1.1938
  124OSM   H14F13186   1.232   5.241   4.402 -1.3835  1.5853 -0.8048
  124OSM   H14G13187   1.141   5.327   4.519 -1.2280 -0.0925 -1.0333
  124OSM   C15F13188   1.364   5.321   4.556  0.2471  0.3121 -0.0875
  124OSM   H15F13189   1.452   5.320   4.488  0.5375  1.5561  0.2484
  124OSM   H15G13190   1.343   5.223   4.604 -0.1255  0.8769  0.9387
  124OSM   C16F13191   1.382   5.434   4.664  0.5472 -0.0430  0.3240
  124OSM   H16F13192   1.390   5.384   4.763  1.0765  2.2635  1.5000
  124OSM   H16G13193   1.295   5.501   4.678  0.7038  0.4595 -0.9298
  124OSM   C17F13194   1.498   5.532   4.647 -0.1451  0.1132  0.5103
  124OSM   H17F13195   1.596   5.481   4.634 -0.4138 -1.1834  3.0020
  124OSM   H17G13196   1.503   5.596   4.738  2.5062 -3.2386  2.9938
  124OSM   C18F13197   1.503   5.630   4.523 -0.6747  0.3144 -0.0087
  124OSM   H18F13198   1.406   5.683   4.513 -1.8212 -1.8189 -0.9269
  124OSM   H18G13199   1.519   5.568   4.432 -0.8907 -0.5718  0.5411
  124OSM   H18H13200   1.586   5.699   4.549  0.5759 -1.3186  0.5214
  125OSM      N13201   3.780   6.715   2.307  0.0796 -0.6193  0.2720
  125OSM    C1513202   3.833   6.612   2.406  0.0804  0.9816 -0.5005
  125OSM   H15A13203   3.920   6.656   2.451  0.3671 -0.3187  0.2313
  125OSM   H15B13204   3.854   6.521   2.353 -1.9326  0.0764  0.1524
  125OSM   H15C13205   3.753   6.599   2.478  1.3497  1.4611  1.0505
  125OSM    C1413206   3.849   6.711   2.178 -0.2623 -1.4391  0.4917
  125OSM   H14A13207   3.839   6.617   2.125  0.7847 -0.0340 -2.3926
  125OSM   H14B13208   3.956   6.719   2.188 -0.2293 -2.5761  1.2811
  125OSM   H14C13209   3.815   6.785   2.107  0.6907 -1.0827  0.3896
  125OSM    C1313210   3.642   6.661   2.280  0.5591 -0.4633 -0.4091
  125OSM   H13A13211   3.585   6.674   2.371 -0.4605 -0.1980 -1.0705
  125OSM   H13B13212   3.644   6.560   2.242 -0.9232 -0.4077 -0.6957
  125OSM   H13C13213   3.582   6.714   2.207 -1.0463 -1.5578  0.0502
  125OSM    C1213214   3.782   6.850   2.372  0.0519 -0.3754  0.9940
  125OSM   H12A13215   3.716   6.919   2.321 -0.1425 -0.6394  0.8886
  125OSM   H12B13216   3.880   6.889   2.353 -0.4640 -0.1971 -1.5857
  125OSM    C1113217   3.733   6.857   2.520 -0.2766 -0.3395 -0.0043
  125OSM   H11A13218   3.744   6.963   2.551  0.9258  0.5849 -3.1697
  125OSM   H11B13219   3.809   6.794   2.571 -0.2136 -0.6121 -0.4307
  125OSM      P13220   3.470   6.895   2.529 -0.0448 -0.1080  0.0091
  125OSM    O1313221   3.490   7.010   2.435  0.0094  0.1202  0.3774
  125OSM    O1413222   3.353   6.813   2.497  0.0330  0.4169  0.6283
  125OSM    O1113223   3.469   6.941   2.679  0.8266  0.6847 -0.8201
  125OSM    O1213224   3.601   6.806   2.537  0.1480 -0.3670 -0.1290
  125OSM    C1S13225   3.385   6.862   2.773 -0.2252  1.0327 -0.3075
  125OSM    H1S13226   3.406   6.755   2.751  2.6427  1.0515  1.7067
  125OSM    H1T13227   3.280   6.898   2.764  0.2051  2.1841 -0.9492
  125OSM     NF13228   3.373   6.797   3.012  0.2822 -0.8732 -0.1799
  125OSM    HNF13229   3.310   6.848   3.071  0.0926  1.2075 -2.0638
  125OSM    C2S13230   3.438   6.885   2.916 -0.0503  0.5842  0.2977
  125OSM    H2S13231   3.542   6.846   2.912 -0.9556 -1.9616 -1.1291
  125OSM    C3S13232   3.441   7.030   2.961 -0.0971  0.0830  0.3587
  125OSM    H3S13233   3.337   7.067   2.946 -0.0807  0.4262  1.0458
  125OSM     O313234   3.523   7.107   2.877 -0.3275  0.5343  0.4362
  125OSM    HO313235   3.526   7.052   2.798 -0.5045 -0.8434  1.3575
  125OSM    C4S13236   3.486   7.040   3.105  0.0881 -0.3473  0.6203
  125OSM    H4S13237   3.578   6.988   3.136 -0.0261  0.1513  1.8532
  125OSM    C5S13238   3.429   7.118   3.201 -0.3376 -0.3234 -0.0441
  125OSM    H5S13239   3.328   7.159   3.188 -0.2316 -0.0966 -0.1760
  125OSM    C6S13240   3.464   7.136   3.349  0.0689 -0.5312  0.0632
  125OSM    H6S13241   3.392   7.072   3.404 -0.1597  0.9293  1.5348
  125OSM    H6T13242   3.451   7.243   3.376 -0.2563 -0.6399  0.3468
  125OSM    C7S13243   3.607   7.115   3.386  0.3848  0.4011  0.1435
  125OSM    H7S13244   3.672   7.198   3.353  1.3365 -0.5369 -0.4068
  125OSM    H7T13245   3.643   7.017   3.347  2.0772  1.3149 -0.6891
  125OSM    C8S13246   3.624   7.123   3.537 -0.3813  0.7331  1.0026
  125OSM    H8S13247   3.720   7.079   3.572 -1.8871 -1.7902  2.2505
  125OSM    H8T13248   3.558   7.052   3.593 -0.3648 -0.7704 -0.7817
  125OSM    C9S13249   3.614   7.264   3.594 -0.1391 -0.3820 -0.2514
  125OSM    H9S13250   3.512   7.303   3.573  0.0714  0.6127  0.4911
  125OSM    H9T13251   3.681   7.338   3.546  0.0058  0.4601  1.1704
  125OSM   C10S13252   3.634   7.287   3.743 -0.5799  0.2337 -0.1582
  125OSM   H10S13253   3.702   7.373   3.758 -0.5094 -0.0432  1.2146
  125OSM   H10T13254   3.696   7.203   3.780  0.8876  1.6261  0.6542
  125OSM   C11S13255   3.502   7.287   3.822  0.5213 -0.2864 -0.5536
  125OSM   H11S13256   3.464   7.183   3.810  0.9656 -0.7946  1.8370
  125OSM   H11T13257   3.431   7.357   3.774 -0.3078  0.5169  1.7309
  125OSM   C12S13258   3.514   7.314   3.975  0.0565  0.4309  0.2511
  125OSM   H12S13259   3.410   7.309   4.013 -0.0624  1.1862  0.0318
  125OSM   H12T13260   3.545   7.418   3.999 -1.3685  0.9969 -0.2971
  125OSM   C13S13261   3.593   7.215   4.062 -0.4650 -0.2862  0.0431
  125OSM   H13S13262   3.698   7.250   4.050 -1.0007  0.9797 -1.3472
  125OSM   H13T13263   3.602   7.120   4.006  0.9636 -0.7503  1.0248
  125OSM   C14S13264   3.551   7.195   4.205  0.8121 -0.1166  0.8787
  125OSM   H14S13265   3.616   7.120   4.255  1.9372  0.6480  0.5925
  125OSM   H14T13266   3.450   7.149   4.198  0.4434  0.9233 -2.5434
  125OSM   C15S13267   3.539   7.325   4.287 -0.3392 -0.3897 -0.4130
  125OSM   H15S13268   3.462   7.392   4.244 -0.1855 -0.0364 -0.1373
  125OSM   H15T13269   3.638   7.374   4.285  0.4940 -2.0047 -0.3878
  125OSM   C16S13270   3.484   7.292   4.426 -0.3092  0.1082  0.3482
  125OSM   H16S13271   3.561   7.216   4.454  0.2797 -0.2709 -2.0928
  125OSM   H16T13272   3.387   7.239   4.418 -0.1640  0.0344 -1.1862
  125OSM   C17S13273   3.485   7.411   4.526 -0.5530 -0.5880 -0.1200
  125OSM   H17S13274   3.396   7.470   4.497 -0.2545  0.4225  0.9477
  125OSM   H17T13275   3.571   7.481   4.515 -0.4964 -0.8374 -1.3529
  125OSM   C18S13276   3.468   7.361   4.669  0.4565  0.4830  0.1157
  125OSM   H18S13277   3.443   7.445   4.737 -1.9458  0.3942 -0.5486
  125OSM   H18T13278   3.543   7.297   4.720  1.1916  3.4871  3.1646
  125OSM   H18U13279   3.378   7.295   4.662  1.4705 -0.8379 -1.1956
  125OSM    C1F13280   3.366   6.662   3.011 -0.0800 -0.5371 -0.7676
  125OSM     OF13281   3.438   6.586   2.949  0.0996  0.0162  1.3392
  125OSM    C2F13282   3.276   6.606   3.106 -0.1401 -0.2187  0.2835
  125OSM    H2F13283   3.256   6.497   3.096 -1.5869 -0.0967  1.5320
  125OSM    H2G13284   3.180   6.661   3.099 -0.1619 -0.3116 -0.1272
  125OSM    C3F13285   3.318   6.636   3.253  0.2081 -0.0549 -0.7318
  125OSM    H3F13286   3.353   6.739   3.276  0.5204 -0.4131  0.5078
  125OSM    H3G13287   3.402   6.567   3.276 -0.4151 -0.3624  0.7951
  125OSM    C4F13288   3.200   6.609   3.351  0.1994 -0.1689 -0.1713
  125OSM    H4F13289   3.178   6.500   3.349  0.8259 -0.3290  0.7837
  125OSM    H4G13290   3.104   6.658   3.326 -0.6586 -0.5142  2.2014
  125OSM    C5F13291   3.246   6.650   3.493 -0.2054 -0.1576  0.2294
  125OSM    H5F13292   3.252   6.761   3.495  1.4238 -0.2111 -0.4944
  125OSM    H5G13293   3.348   6.613   3.518  0.6452  1.9621  0.0841
  125OSM    C6F13294   3.147   6.613   3.601  0.0844  0.4250  0.8306
  125OSM    H6F13295   3.040   6.629   3.575 -0.7193 -1.7581  2.4710
  125OSM    H6G13296   3.154   6.679   3.690 -1.0684  1.8989 -0.1245
  125OSM    C7F13297   3.160   6.460   3.635 -0.4188 -0.4056  0.8522
  125OSM    H7F13298   3.266   6.434   3.656  0.1735 -1.8733 -3.0237
  125OSM    H7G13299   3.127   6.408   3.543  2.0417 -1.9288  0.7484
  125OSM    C8F13300   3.065   6.410   3.745 -0.7791 -0.9447 -0.0531
  125OSM    H8F13301   3.053   6.301   3.731  1.2750 -1.4048  1.3381
  125OSM    H8G13302   2.965   6.454   3.721 -0.2604  0.6056  0.4694
  125OSM    C9F13303   3.109   6.468   3.872 -0.4776 -0.4884  0.7228
  125OSM    H9F13304   3.117   6.578   3.870  1.1672 -0.5813 -0.5030
  125OSM   C10F13305   3.151   6.403   3.979  0.0726  0.3409 -0.1929
  125OSM   H10F13306   3.202   6.457   4.060  1.1169 -3.2396  1.7223
  125OSM   C11F13307   3.146   6.254   4.000  0.0240  0.1224 -0.2423
  125OSM   H11F13308   3.254   6.232   4.017 -0.1186 -1.7834 -1.5526
  125OSM   H11G13309   3.122   6.189   3.914  1.7864 -0.2018 -0.5403
  125OSM   C12F13310   3.060   6.226   4.128 -0.1039 -1.0530  0.3355
  125OSM   H12F13311   2.950   6.229   4.114 -0.6202  3.2828  3.3761
  125OSM   H12G13312   3.080   6.315   4.192  1.8815 -1.3399  0.1844
  125OSM   C13F13313   3.110   6.106   4.200 -0.4205  0.7144 -0.5774
  125OSM   H13F13314   3.219   6.104   4.178 -0.0105  0.5068  1.3162
  125OSM   H13G13315   3.061   6.021   4.149 -0.4397  1.5169 -1.9708
  125OSM   C14F13316   3.082   6.113   4.354 -0.0941 -0.2338  0.0185
  125OSM   H14F13317   2.983   6.159   4.377 -1.3017 -1.4435 -2.3099
  125OSM   H14G13318   3.155   6.185   4.395 -1.3572 -0.3353  2.6194
  125OSM   C15F13319   3.100   5.992   4.432  0.3182  0.3237  0.8022
  125OSM   H15F13320   3.198   5.948   4.403  0.1768 -0.3613  1.3356
  125OSM   H15G13321   3.029   5.913   4.400  2.2258 -1.4399  0.6959
  125OSM   C16F13322   3.075   6.006   4.577 -0.1277 -0.8242  0.2402
  125OSM   H16F13323   2.971   6.043   4.585  0.0449 -0.5210  1.2678
  125OSM   H16G13324   3.141   6.079   4.629 -0.1810 -0.3533 -0.3399
  125OSM   C17F13325   3.089   5.871   4.665 -0.4697  0.4800 -0.4100
  125OSM   H17F13326   3.005   5.802   4.646  1.4078 -1.5360 -1.8907
  125OSM   H17G13327   3.084   5.902   4.772 -1.5643  1.1514 -0.6407
  125OSM   C18F13328   3.225   5.795   4.646 -0.2994 -0.1717 -0.3818
  125OSM   H18F13329   3.225   5.747   4.546  1.6252  0.5206 -0.7664
  125OSM   H18G13330   3.246   5.721   4.726 -2.0916 -0.1449  0.1493
  125OSM   H18H13331   3.305   5.872   4.657  0.6089 -1.2435  0.8989
  126OSM      N13332   6.136   1.826   2.227 -0.3731 -0.1570 -0.4860
  126OSM    C1513333   6.066   1.708   2.168  0.7758 -0.3112  1.2590
  126OSM   H15A13334   5.984   1.747   2.110 -0.5310 -1.0425  2.5414
  126OSM   H15B13335   6.047   1.629   2.239 -0.0220 -2.1259 -0.8610
  126OSM   H15C13336   6.137   1.668   2.097  1.3443  1.5444  0.7346
  126OSM    C1413337   6.143   1.926   2.127  0.0621  0.3900  0.5559
  126OSM   H14A13338   6.046   1.960   2.092 -0.1950 -0.7455  0.1346
  126OSM   H14B13339   6.194   1.891   2.038  2.1651  1.7536  1.1534
  126OSM   H14C13340   6.195   2.011   2.168  1.2569  0.8959 -1.8484
  126OSM    C1313341   6.055   1.875   2.346  0.1368 -0.2817 -0.4135
  126OSM   H13A13342   6.056   1.802   2.426 -0.0188 -1.4257 -1.4228
  126OSM   H13B13343   5.953   1.890   2.316 -0.3782  0.5699  1.6670
  126OSM   H13C13344   6.097   1.969   2.379  1.9109 -1.4135  0.7416
  126OSM    C1213345   6.278   1.788   2.279  0.1803 -0.6035  0.5993
  126OSM   H12A13346   6.330   1.744   2.195  0.3184  0.1909  0.2579
  126OSM   H12B13347   6.257   1.710   2.352 -2.0986  0.9440  1.7009
  126OSM    C1113348   6.368   1.895   2.349  0.2552 -0.1988 -0.1070
  126OSM   H11A13349   6.468   1.846   2.357 -0.1632 -0.9810  0.4771
  126OSM   H11B13350   6.329   1.901   2.453  0.5461 -0.2593  0.0076
  126OSM      P13351   6.349   2.155   2.360  0.2695 -0.2243 -0.3460
  126OSM    O1313352   6.406   2.266   2.281 -0.2638 -0.2737 -0.2345
  126OSM    O1413353   6.203   2.158   2.394 -0.3060  0.2216  0.2179
  126OSM    O1113354   6.426   2.149   2.498 -0.0052  0.4278 -0.0206
  126OSM    O1213355   6.382   2.022   2.284 -0.0014 -0.0215 -0.3794
  126OSM    C1S13356   6.439   2.266   2.577 -0.1010  0.1933 -0.1905
  126OSM    H1S13357   6.364   2.343   2.548 -1.2046 -0.9066 -0.3518
  126OSM    H1T13358   6.542   2.306   2.568  0.2497 -0.1305  1.8836
  126OSM     NF13359   6.436   2.361   2.806 -0.2483 -0.2733 -0.1744
  126OSM    HNF13360   6.512   2.352   2.870 -1.2737  0.8140  1.2666
  126OSM    C2S13361   6.404   2.242   2.731 -0.5478  0.6914  0.4299
  126OSM    H2S13362   6.294   2.227   2.732 -0.4871  0.2472  0.4780
  126OSM    C3S13363   6.474   2.110   2.795  1.1895  0.3225  0.3003
  126OSM    H3S13364   6.578   2.148   2.792  0.2193  3.1918 -1.0045
  126OSM     O313365   6.464   1.993   2.707  0.3582  0.0636  0.0380
  126OSM    HO313366   6.422   2.014   2.624 -1.2838  0.4926  0.9410
  126OSM    C4S13367   6.428   2.078   2.933 -0.6406  0.1469 -0.3171
  126OSM    H4S13368   6.480   2.144   3.004 -1.8589  0.5695  0.2255
  126OSM    C5S13369   6.350   1.982   2.974 -0.3320 -0.2334  0.3831
  126OSM    H5S13370   6.306   1.916   2.898  0.6029 -2.0379  1.3364
  126OSM    C6S13371   6.315   1.938   3.108  0.5852 -0.2105 -0.0154
  126OSM    H6S13372   6.387   1.859   3.136  2.2619  1.1371 -0.3809
  126OSM    H6T13373   6.210   1.904   3.120  0.6297 -0.1351  0.6190
  126OSM    C7S13374   6.321   2.062   3.212 -1.1579 -0.2250  0.3003
  126OSM    H7S13375   6.283   2.157   3.168  1.6585  1.2947  0.9317
  126OSM    H7T13376   6.430   2.063   3.231 -0.9576 -3.9611  0.1210
  126OSM    C8S13377   6.252   2.025   3.346  0.2037 -0.3458  0.2498
  126OSM    H8S13378   6.278   1.925   3.387  1.7865  0.4880  1.4052
  126OSM    H8T13379   6.143   2.029   3.329  0.2876 -1.6116 -0.7947
  126OSM    C9S13380   6.298   2.133   3.454  0.1913 -0.0835 -0.1001
  126OSM    H9S13381   6.269   2.229   3.407 -2.4345 -1.5671 -1.7532
  126OSM    H9T13382   6.406   2.118   3.475  0.5843  1.3175 -0.9917
  126OSM   C10S13383   6.233   2.107   3.588 -0.8524  0.2309  0.1641
  126OSM   H10S13384   6.267   2.006   3.618 -0.6292 -0.2094 -1.4777
  126OSM   H10T13385   6.126   2.119   3.560 -0.3148 -0.6368 -2.5515
  126OSM   C11S13386   6.274   2.199   3.714 -0.2530 -0.6608  0.0967
  126OSM   H11S13387   6.199   2.191   3.796  1.3404  0.9498  1.7973
  126OSM   H11T13388   6.264   2.305   3.682  1.9123 -1.0145 -2.0659
  126OSM   C12S13389   6.409   2.164   3.774 -0.0502  0.1967 -0.5956
  126OSM   H12S13390   6.444   2.239   3.848 -1.0607 -0.2252  0.3380
  126OSM   H12T13391   6.468   2.151   3.681  1.0350 -0.1168  0.1190
  126OSM   C13S13392   6.414   2.028   3.850  0.6294  0.3337 -0.7685
  126OSM   H13S13393   6.520   2.000   3.871  0.4990  1.2990  1.4407
  126OSM   H13T13394   6.357   1.949   3.797 -1.7969 -0.2617  2.4280
  126OSM   C14S13395   6.344   2.028   3.986 -0.1594  0.6703 -0.3506
  126OSM   H14S13396   6.234   2.040   3.972 -0.7407 -2.4422  0.7130
  126OSM   H14T13397   6.391   2.102   4.054  1.2519  1.1902 -1.8287
  126OSM   C15S13398   6.367   1.889   4.061 -0.1605 -0.1701 -0.3615
  126OSM   H15S13399   6.475   1.865   4.057  0.3555  2.0775 -1.8798
  126OSM   H15T13400   6.316   1.809   4.004 -1.0016  0.3803 -0.4018
  126OSM   C16S13401   6.324   1.884   4.206 -0.2612 -0.1006  0.1302
  126OSM   H16S13402   6.346   1.779   4.234  2.3724 -0.0373 -1.3956
  126OSM   H16T13403   6.214   1.897   4.212  0.0329  2.9738  0.5889
  126OSM   C17S13404   6.387   1.992   4.298  0.0779 -0.1213  0.3743
  126OSM   H17S13405   6.348   1.989   4.402  0.9340 -0.8529  0.6824
  126OSM   H17T13406   6.354   2.086   4.248  0.5193  0.8657  1.8851
  126OSM   C18S13407   6.538   1.986   4.311 -0.1983 -0.7758  0.6380
  126OSM   H18S13408   6.567   1.888   4.355  0.2862 -0.0193  2.0743
  126OSM   H18T13409   6.575   2.069   4.375  1.2339 -2.7935  2.5907
  126OSM   H18U13410   6.583   1.994   4.210 -1.3287  1.1582  0.2343
  126OSM    C1F13411   6.384   2.478   2.783 -0.2042 -0.9019  1.0163
  126OSM     OF13412   6.273   2.492   2.732  0.8300  0.2587 -0.3102
  126OSM    C2F13413   6.462   2.600   2.821 -0.4427 -0.4967 -0.6586
  126OSM    H2F13414   6.463   2.667   2.733  0.0320  2.4331  1.4547
  126OSM    H2G13415   6.564   2.563   2.845 -0.1542  1.6238  1.7793
  126OSM    C3F13416   6.385   2.662   2.938 -0.0871  0.2829 -0.5246
  126OSM    H3F13417   6.275   2.660   2.922 -0.3849  1.1142  1.1664
  126OSM    H3G13418   6.410   2.768   2.960  0.1007  0.0420  0.5006
  126OSM    C4F13419   6.410   2.587   3.078 -0.1140 -0.4362 -0.0675
  126OSM    H4F13420   6.516   2.582   3.110 -0.5497 -1.9475  1.2594
  126OSM    H4G13421   6.379   2.480   3.072 -2.7431  0.1873  0.9748
  126OSM    C5F13422   6.327   2.643   3.190 -0.3231 -0.6566  0.9988
  126OSM    H5F13423   6.220   2.655   3.164  0.1840  0.4752 -0.7425
  126OSM    H5G13424   6.380   2.737   3.215  1.0700 -0.9001 -0.8610
  126OSM    C6F13425   6.342   2.568   3.326  0.4383  0.1592 -0.4108
  126OSM    H6F13426   6.449   2.576   3.356  0.4787  0.9910 -0.7477
  126OSM    H6G13427   6.309   2.463   3.310 -1.1223  0.1609  2.1961
  126OSM    C7F13428   6.256   2.643   3.438 -0.3949  0.3751 -0.3086
  126OSM    H7F13429   6.150   2.630   3.407 -0.2842 -0.6235 -0.2899
  126OSM    H7G13430   6.285   2.750   3.425  2.5567 -0.5381 -2.1695
  126OSM    C8F13431   6.286   2.585   3.580 -1.2223 -0.1690  0.7072
  126OSM    H8F13432   6.393   2.610   3.598 -0.1223 -3.0566 -1.1045
  126OSM    H8G13433   6.282   2.474   3.585  0.4391 -0.2331  1.2514
  126OSM    C9F13434   6.203   2.648   3.689 -0.1039  0.3145 -0.1077
  126OSM    H9F13435   6.118   2.709   3.655 -2.6071 -2.7297  0.2123
  126OSM   C10F13436   6.239   2.641   3.818  0.2392  0.1584  0.7861
  126OSM   H10F13437   6.168   2.674   3.895 -1.5915 -0.3172 -0.6421
  126OSM   C11F13438   6.367   2.583   3.871  0.0585  0.0737 -0.2275
  126OSM   H11F13439   6.452   2.630   3.818 -1.3612  2.3070 -0.6300
  126OSM   H11G13440   6.379   2.478   3.837  0.7035  1.2655 -4.0974
  126OSM   C12F13441   6.394   2.607   4.022  0.3596  0.9699  1.0419
  126OSM   H12F13442   6.405   2.713   4.054  0.6187  1.3768 -0.3326
  126OSM   H12G13443   6.491   2.557   4.041 -0.8645 -1.3289  1.6271
  126OSM   C13F13444   6.295   2.544   4.122 -0.3017  0.4306 -0.2672
  126OSM   H13F13445   6.281   2.438   4.091  3.7158 -0.0264 -0.9613
  126OSM   H13G13446   6.201   2.603   4.116  0.0276  0.8348 -1.6459
  126OSM   C14F13447   6.342   2.543   4.270  0.9578 -0.7912 -0.0135
  126OSM   H14F13448   6.348   2.649   4.303 -0.6778 -0.6285 -0.1371
  126OSM   H14G13449   6.442   2.496   4.278  1.6710  0.8205  1.3549
  126OSM   C15F13450   6.235   2.476   4.356  0.2581  0.3801  0.1694
  126OSM   H15F13451   6.226   2.371   4.321  0.9965  0.7805 -1.2908
  126OSM   H15G13452   6.139   2.526   4.331  0.3717 -0.3873 -1.9784
  126OSM   C16F13453   6.259   2.493   4.504  0.4193 -0.3483 -0.1154
  126OSM   H16F13454   6.171   2.473   4.568 -0.5929  0.3874 -1.2318
  126OSM   H16G13455   6.289   2.599   4.516  0.8054 -0.1348 -2.4534
  126OSM   C17F13456   6.374   2.403   4.555 -0.3531  0.2486  0.4110
  126OSM   H17F13457   6.444   2.469   4.611  1.4938  0.7414 -2.3057
  126OSM   H17G13458   6.420   2.348   4.470  2.6445 -1.2943  2.8355
  126OSM   C18F13459   6.318   2.281   4.643  0.0898  0.2090 -0.1776
  126OSM   H18F13460   6.254   2.216   4.581 -1.5156  0.0939  1.5108
  126OSM   H18G13461   6.257   2.314   4.729 -0.4025  0.4697 -0.6243
  126OSM   H18H13462   6.403   2.231   4.694  0.0761  2.1830  2.0077
  127OSM      N13463   2.763   4.210   2.314  0.9271  0.1664 -1.0120
  127OSM    C1513464   2.775   4.321   2.218  0.0671  0.6607 -0.3805
  127OSM   H15A13465   2.758   4.295   2.115 -0.8124  0.9134 -0.3096
  127OSM   H15B13466   2.862   4.383   2.230 -0.6989  1.5336  0.9153
  127OSM   H15C13467   2.695   4.388   2.246 -0.7524 -0.5184  0.2242
  127OSM    C1413468   2.626   4.145   2.302  0.2485 -0.1943  0.0055
  127OSM   H14A13469   2.594   4.096   2.392 -0.6217 -0.9666 -0.7090
  127OSM   H14B13470   2.629   4.065   2.230  2.9178 -1.2328  1.1400
  127OSM   H14C13471   2.543   4.208   2.274  1.6095  0.2489 -3.6781
  127OSM    C1313472   2.862   4.110   2.267 -0.3026 -0.8785 -0.4938
  127OSM   H13A13473   2.839   4.017   2.317 -2.6608  0.6326  1.4970
  127OSM   H13B13474   2.964   4.139   2.283 -0.4248 -0.1466 -1.0133
  127OSM   H13C13475   2.849   4.084   2.163 -0.5861 -0.7772 -0.4867
  127OSM    C1213476   2.791   4.250   2.457 -0.0766  0.9073  0.7770
  127OSM   H12A13477   2.712   4.313   2.496 -0.4703  1.0425 -0.2192
  127OSM   H12B13478   2.887   4.300   2.460 -0.9427  2.6009  1.9204
  127OSM    C1113479   2.798   4.142   2.568 -0.4695 -0.2646  0.4674
  127OSM   H11A13480   2.829   4.200   2.657  0.5471  0.4674 -0.3408
  127OSM   H11B13481   2.887   4.077   2.552  0.4958  1.3021 -0.9361
  127OSM      P13482   2.675   3.936   2.676  0.0357  0.0918 -0.6956
  127OSM    O1313483   2.548   3.918   2.742 -0.2345 -0.4428 -0.2243
  127OSM    O1413484   2.711   3.832   2.582  0.8451 -0.1781 -0.1455
  127OSM    O1113485   2.789   3.935   2.786  0.4734  0.0592  0.4736
  127OSM    O1213486   2.679   4.069   2.589 -0.4781 -0.1377  0.9314
  127OSM    C1S13487   2.795   4.029   2.891  0.2498  0.6707  0.2966
  127OSM    H1S13488   2.699   4.083   2.906 -0.3721 -0.3443  0.0910
  127OSM    H1T13489   2.882   4.095   2.878  0.7098 -0.4817 -4.1829
  127OSM     NF13490   2.787   4.047   3.143  0.1887 -0.9295  0.2392
  127OSM    HNF13491   2.864   4.090   3.189 -0.4845  0.4202  0.1493
  127OSM    C2S13492   2.820   3.956   3.029 -0.1689 -0.0544  0.2081
  127OSM    H2S13493   2.756   3.865   3.034  2.0943 -1.8410 -1.4165
  127OSM    C3S13494   2.963   3.898   3.029 -0.5790 -0.2816  0.4715
  127OSM    H3S13495   3.042   3.974   3.012  2.0343 -2.6572  1.1020
  127OSM     O313496   2.988   3.808   2.922  0.0773  0.4308 -0.1214
  127OSM    HO313497   2.908   3.821   2.871  0.3193 -0.7393 -0.8375
  127OSM    C4S13498   2.995   3.825   3.165  0.4817 -1.2566  0.1443
  127OSM    H4S13499   3.016   3.894   3.249 -0.4514  0.4243 -0.9446
  127OSM    C5S13500   3.023   3.698   3.189  0.2973 -0.1001  0.3704
  127OSM    H5S13501   3.004   3.624   3.109 -1.2423 -0.0536  0.6603
  127OSM    C6S13502   3.058   3.646   3.327 -0.3203  0.1980 -0.1916
  127OSM    H6S13503   2.994   3.558   3.351  0.5429 -0.3427  0.1870
  127OSM    H6T13504   3.057   3.729   3.400  1.8653  2.5394 -2.6264
  127OSM    C7S13505   3.202   3.593   3.337 -0.5036  0.4350 -0.2295
  127OSM    H7S13506   3.272   3.679   3.325  2.1383 -1.4413  0.9010
  127OSM    H7T13507   3.218   3.524   3.251  1.1991  0.1207  0.3164
  127OSM    C8S13508   3.234   3.513   3.458 -0.3374 -0.3986  0.4615
  127OSM    H8S13509   3.324   3.448   3.458 -0.1885 -0.1955 -0.3802
  127OSM    H8T13510   3.144   3.450   3.476 -0.9453  0.3045 -0.1012
  127OSM    C9S13511   3.264   3.616   3.576 -0.2784  0.5420 -0.1203
  127OSM    H9S13512   3.169   3.673   3.587 -0.1527  0.3676  2.4929
  127OSM    H9T13513   3.336   3.693   3.541 -1.8905  1.6312 -1.1917
  127OSM   C10S13514   3.300   3.554   3.704  0.2197 -0.8300  0.0780
  127OSM   H10S13515   3.389   3.491   3.679 -1.1051 -1.8383 -2.4473
  127OSM   H10T13516   3.212   3.494   3.736  0.8624 -1.3979  0.8293
  127OSM   C11S13517   3.326   3.658   3.818  0.7364  0.2110  0.7984
  127OSM   H11S13518   3.231   3.717   3.821  0.4171 -0.1903 -0.6213
  127OSM   H11T13519   3.412   3.725   3.793  0.6363  0.0507 -0.0102
  127OSM   C12S13520   3.339   3.587   3.956  0.1069 -0.1703  0.3874
  127OSM   H12S13521   3.245   3.529   3.971 -0.2022 -0.1536 -1.2504
  127OSM   H12T13522   3.330   3.658   4.040  0.2609  1.1705 -0.6976
  127OSM   C13S13523   3.467   3.503   3.969  0.2366  0.1726 -0.2898
  127OSM   H13S13524   3.557   3.567   3.978 -0.1323  0.7841 -0.8700
  127OSM   H13T13525   3.498   3.450   3.876  2.3350  0.6566  0.0824
  127OSM   C14S13526   3.446   3.404   4.094 -0.3303  0.4551 -0.2297
  127OSM   H14S13527   3.347   3.355   4.078  1.1011 -2.2727 -1.3324
  127OSM   H14T13528   3.451   3.458   4.191  0.3831 -1.3001  0.7621
  127OSM   C15S13529   3.557   3.285   4.101 -0.2742 -0.6700 -0.6582
  127OSM   H15S13530   3.543   3.227   4.008 -1.5284 -2.9566  0.8718
  127OSM   H15T13531   3.532   3.222   4.189 -1.0377  0.7377  0.1843
  127OSM   C16S13532   3.693   3.356   4.115 -0.0036 -0.4203 -0.2940
  127OSM   H16S13533   3.685   3.436   4.192  0.5810  1.6729 -2.2979
  127OSM   H16T13534   3.719   3.406   4.020 -2.7429  1.7130 -0.0610
  127OSM   C17S13535   3.798   3.271   4.177 -0.1972 -0.2723 -0.2528
  127OSM   H17S13536   3.824   3.189   4.107 -0.9749 -1.0721  0.3749
  127OSM   H17T13537   3.763   3.231   4.275  1.1499  0.1855  0.4468
  127OSM   C18S13538   3.919   3.357   4.212  0.2302 -0.2688  0.2119
  127OSM   H18S13539   3.968   3.393   4.119  0.6095 -1.0925  0.0781
  127OSM   H18T13540   3.995   3.295   4.265  2.6203  0.6908 -1.8902
  127OSM   H18U13541   3.891   3.448   4.269 -0.2184 -1.4932  2.0317
  127OSM    C1F13542   2.659   4.092   3.156  0.0802  0.2528  0.1781
  127OSM     OF13543   2.564   4.028   3.110 -0.2264  0.5150 -0.3434
  127OSM    C2F13544   2.632   4.213   3.235 -0.1605  0.5117 -0.3465
  127OSM    H2F13545   2.640   4.199   3.345 -1.5250 -1.3574 -0.4378
  127OSM    H2G13546   2.526   4.244   3.220 -0.5399 -0.7661 -0.4113
  127OSM    C3F13547   2.723   4.336   3.213  0.2718  0.0396  0.1553
  127OSM    H3F13548   2.753   4.356   3.108 -0.1297 -0.2441 -0.0197
  127OSM    H3G13549   2.809   4.313   3.278 -0.0349  0.4885  0.7265
  127OSM    C4F13550   2.654   4.467   3.273 -0.8271 -0.7142  0.4841
  127OSM    H4F13551   2.556   4.474   3.220 -0.4275 -0.0613 -0.1859
  127OSM    H4G13552   2.714   4.557   3.247 -0.7971 -0.7972  0.2607
  127OSM    C5F13553   2.634   4.461   3.425 -1.0006  0.2492 -0.3620
  127OSM    H5F13554   2.583   4.365   3.447 -0.5638 -0.5819 -2.7023
  127OSM    H5G13555   2.558   4.540   3.443  0.2405  1.1373  1.2299
  127OSM    C6F13556   2.756   4.493   3.511 -0.3438 -0.0053 -0.0530
  127OSM    H6F13557   2.787   4.597   3.483 -2.1756  0.3105 -1.0174
  127OSM    H6G13558   2.839   4.424   3.484 -1.7267 -0.9674 -2.0973
  127OSM    C7F13559   2.720   4.509   3.666  0.8590 -0.5414  0.3056
  127OSM    H7F13560   2.672   4.412   3.688  3.7932 -1.8593  1.3410
  127OSM    H7G13561   2.647   4.593   3.662  1.1235 -0.3268 -0.1610
  127OSM    C8F13562   2.844   4.532   3.756 -0.2444  0.4533  0.5011
  127OSM    H8F13563   2.893   4.626   3.723  0.2412  0.8228  2.1562
  127OSM    H8G13564   2.924   4.454   3.756 -0.9605 -0.3033 -0.9101
  127OSM    C9F13565   2.802   4.543   3.904  0.0020  0.0775 -0.2310
  127OSM    H9F13566   2.717   4.611   3.914  0.3609  0.3591  0.9819
  127OSM   C10F13567   2.851   4.497   4.020  0.2675  0.6598  0.9322
  127OSM   H10F13568   2.799   4.510   4.117 -0.8408  0.7768  0.3333
  127OSM   C11F13569   2.973   4.401   4.021  0.3180 -0.1552  0.1847
  127OSM   H11F13570   3.030   4.416   3.927  0.7836  1.2410  0.6656
  127OSM   H11G13571   2.941   4.296   4.036 -0.6348  0.1068  0.0388
  127OSM   C12F13572   3.081   4.433   4.128 -0.5271  0.1462  0.2825
  127OSM   H12F13573   3.122   4.536   4.117  3.8053 -1.1849  1.9229
  127OSM   H12G13574   3.161   4.356   4.127  0.1871  0.8524  0.9976
  127OSM   C13F13575   3.026   4.436   4.277  0.2304 -1.0691  0.8854
  127OSM   H13F13576   2.950   4.516   4.283  1.1017  0.1936 -2.5036
  127OSM   H13G13577   3.100   4.470   4.353  0.1869 -2.3710  1.5322
  127OSM   C14F13578   2.964   4.301   4.315 -1.1022 -0.1980  0.5081
  127OSM   H14F13579   3.045   4.226   4.320 -1.4617 -0.5255  1.6924
  127OSM   H14G13580   2.887   4.273   4.240 -0.7183  0.7455 -0.2583
  127OSM   C15F13581   2.915   4.302   4.459  0.1033  0.2061  0.2784
  127OSM   H15F13582   2.900   4.195   4.482  1.3823  0.2976  1.6986
  127OSM   H15G13583   2.818   4.356   4.469 -0.6555 -0.5309 -2.3881
  127OSM   C16F13584   3.015   4.365   4.557  0.7873 -0.0920 -0.0696
  127OSM   H16F13585   3.011   4.475   4.539  1.0159 -0.1498 -0.4943
  127OSM   H16G13586   3.121   4.342   4.534  0.8215 -0.2624  0.2664
  127OSM   C17F13587   2.991   4.338   4.708  0.0363  0.0350  0.1745
  127OSM   H17F13588   3.072   4.377   4.774 -0.6778 -0.0069  1.0863
  127OSM   H17G13589   2.985   4.227   4.711  1.5507 -0.1197 -0.9860
  127OSM   C18F13590   2.853   4.392   4.765 -0.5592 -0.0460 -0.5095
  127OSM   H18F13591   2.850   4.503   4.763 -0.0881  0.0750  2.2031
  127OSM   H18G13592   2.854   4.365   4.873  0.1165 -0.2833 -0.5707
  127OSM   H18H13593   2.765   4.350   4.711  0.6919 -2.9816 -0.4841
  128OSM      N13594   0.825   4.333   2.839  0.3463 -0.5111  0.5934
  128OSM    C1513595   0.802   4.471   2.785  0.3407 -0.4307 -0.0312
  128OSM   H15A13596   0.829   4.552   2.851 -0.6018 -1.0670  1.1932
  128OSM   H15B13597   0.700   4.486   2.752  0.0063 -1.4248  0.4959
  128OSM   H15C13598   0.859   4.492   2.696  2.1601  2.5686  1.6923
  128OSM    C1413599   0.736   4.308   2.956  0.2170  0.3394 -0.3659
  128OSM   H14A13600   0.636   4.277   2.929 -0.4558  0.8295  1.4543
  128OSM   H14B13601   0.736   4.389   3.027 -0.1575  2.0985 -2.2856
  128OSM   H14C13602   0.763   4.217   3.008  1.0688  0.0697 -1.2500
  128OSM    C1313603   0.790   4.234   2.725  0.3262 -0.3469  0.5516
  128OSM   H13A13604   0.685   4.237   2.701  0.2565 -0.6056  0.8178
  128OSM   H13B13605   0.811   4.135   2.764 -1.2275 -0.4108  1.2854
  128OSM   H13C13606   0.848   4.249   2.635  1.0156  0.5691  1.1249
  128OSM    C1213607   0.967   4.311   2.865  0.2692  0.7209  0.1517
  128OSM   H12A13608   1.020   4.346   2.778  0.1902  0.2013 -0.1097
  128OSM   H12B13609   0.983   4.205   2.881 -0.0856  0.6182 -0.1582
  128OSM    C1113610   1.033   4.384   2.982  0.0489 -0.4675 -0.0963
  128OSM   H11A13611   1.135   4.340   2.992 -1.0086 -2.7660  1.3500
  128OSM   H11B13612   0.982   4.370   3.079  1.1167  1.0750  0.7300
  128OSM      P13613   1.181   4.576   2.878  0.4162  0.0781  0.4762
  128OSM    O1313614   1.185   4.496   2.752 -0.8992  1.2188 -0.2864
  128OSM    O1413615   1.169   4.722   2.854  0.7281 -0.0878 -0.4785
  128OSM    O1113616   1.300   4.550   2.973 -0.7904 -0.1223  0.2337
  128OSM    O1213617   1.050   4.523   2.954 -0.0527 -1.0854 -0.0284
  128OSM    C1S13618   1.284   4.590   3.116  0.5037 -0.2768  0.2105
  128OSM    H1S13619   1.240   4.504   3.170 -1.7249 -0.8107 -2.2758
  128OSM    H1T13620   1.214   4.675   3.132  1.8534  1.0687 -0.6848
  128OSM     NF13621   1.388   4.694   3.316  0.1274 -0.1695 -0.0523
  128OSM    HNF13622   1.357   4.787   3.334  0.7664 -0.1383  1.0134
  128OSM    C2S13623   1.410   4.661   3.176 -0.0703 -0.2730 -0.2143
  128OSM    H2S13624   1.490   4.584   3.178 -0.4130 -0.6980 -1.5748
  128OSM    C3S13625   1.465   4.788   3.091 -0.7453 -0.0275  0.6874
  128OSM    H3S13626   1.381   4.861   3.081  0.8456  1.5863 -2.4974
  128OSM     O313627   1.509   4.765   2.955 -0.0506 -0.0764 -0.5015
  128OSM    HO313628   1.490   4.674   2.931  0.7223  0.0310 -1.5805
  128OSM    C4S13629   1.568   4.863   3.166  0.1992  0.5171 -0.1032
  128OSM    H4S13630   1.528   4.950   3.220  1.9693  0.5806  1.2033
  128OSM    C5S13631   1.707   4.843   3.165  0.3263 -0.2922 -0.1831
  128OSM    H5S13632   1.767   4.770   3.109  1.6959  0.4356  0.3108
  128OSM    C6S13633   1.796   4.941   3.249  0.5977  0.5442 -0.6485
  128OSM    H6S13634   1.871   4.981   3.177  2.2795 -2.4854 -0.7717
  128OSM    H6T13635   1.865   4.881   3.313  0.5982 -0.9562 -1.9668
  128OSM    C7S13636   1.730   5.053   3.332 -0.1882 -0.0357  0.5203
  128OSM    H7S13637   1.654   5.104   3.268  0.8542  1.4313  0.3938
  128OSM    H7T13638   1.805   5.133   3.345  0.5151 -0.3770 -1.1842
  128OSM    C8S13639   1.672   5.006   3.459  0.0868  0.7865 -0.1011
  128OSM    H8S13640   1.615   4.910   3.458  1.1647  0.1262  0.7706
  128OSM    H8T13641   1.598   5.077   3.500 -2.3343 -1.6801  0.1064
  128OSM    C9S13642   1.769   4.976   3.568 -0.6764  0.1038 -0.0628
  128OSM    H9S13643   1.815   5.073   3.598 -1.7671  0.8235 -0.6628
  128OSM    H9T13644   1.850   4.912   3.527  0.5542  2.3926 -1.4500
  128OSM   C10S13645   1.698   4.923   3.697 -0.4448  0.0010 -0.2254
  128OSM   H10S13646   1.663   4.821   3.669 -1.1486  0.5261 -1.3588
  128OSM   H10T13647   1.614   4.993   3.715  0.6608  1.1607  0.6080
  128OSM   C11S13648   1.788   4.930   3.825  0.6297 -0.0914 -0.2304
  128OSM   H11S13649   1.863   5.012   3.832  1.1690 -0.6926  1.4758
  128OSM   H11T13650   1.860   4.846   3.826  0.4063 -0.2831 -0.2511
  128OSM   C12S13651   1.721   4.935   3.960  0.1216  0.1999 -0.2582
  128OSM   H12S13652   1.656   4.845   3.959 -0.6753  0.7089  1.2581
  128OSM   H12T13653   1.659   5.027   3.966 -0.8253 -0.4671  0.8764
  128OSM   C13S13654   1.816   4.935   4.082 -0.6404 -0.3707  0.4229
  128OSM   H13S13655   1.874   5.029   4.091 -0.6848 -0.3421  0.4106
  128OSM   H13T13656   1.891   4.854   4.067 -0.0660  0.5588 -2.3206
  128OSM   C14S13657   1.745   4.902   4.211  0.0243  0.0268 -0.6409
  128OSM   H14S13658   1.693   4.804   4.206  1.7454 -1.0794  1.4061
  128OSM   H14T13659   1.660   4.973   4.221 -0.0101  0.0514 -1.0781
  128OSM   C15S13660   1.840   4.895   4.331 -0.4243  0.3097 -0.0280
  128OSM   H15S13661   1.892   4.989   4.357  1.8123 -0.9337  0.2444
  128OSM   H15T13662   1.920   4.820   4.312 -0.1622  0.5025  0.3107
  128OSM   C16S13663   1.774   4.861   4.468  0.1338 -0.3979  0.5557
  128OSM   H16S13664   1.739   4.755   4.467 -1.2770  0.0229  2.0657
  128OSM   H16T13665   1.684   4.923   4.482  0.6404  0.1675  1.4034
  128OSM   C17S13666   1.883   4.867   4.586 -0.5861 -0.2349 -0.0627
  128OSM   H17S13667   1.945   4.957   4.570  0.4591 -0.4219  2.4111
  128OSM   H17T13668   1.944   4.774   4.583 -1.9254 -1.1153 -1.8860
  128OSM   C18S13669   1.825   4.891   4.724 -0.2884  0.2018  0.0498
  128OSM   H18S13670   1.765   4.985   4.721 -1.2630 -0.4074 -2.3734
  128OSM   H18T13671   1.903   4.896   4.802 -1.5335  1.2567  1.2858
  128OSM   H18U13672   1.754   4.814   4.760  2.1673 -0.8122  3.1807
  128OSM    C1F13673   1.377   4.610   3.422 -0.0504 -0.2339  0.9877
  128OSM     OF13674   1.360   4.489   3.405 -0.7286 -0.6590  0.1578
  128OSM    C2F13675   1.373   4.667   3.557  0.1760 -0.1892 -0.3187
  128OSM    H2F13676   1.280   4.727   3.557  0.9902  1.1303 -0.3605
  128OSM    H2G13677   1.458   4.739   3.567  0.3403 -0.3423 -0.5943
  128OSM    C3F13678   1.386   4.561   3.665 -0.1819  0.5872 -0.1022
  128OSM    H3F13679   1.462   4.483   3.644  1.8879  2.6146 -0.4907
  128OSM    H3G13680   1.287   4.510   3.668  0.3996 -0.6116 -0.4025
  128OSM    C4F13681   1.412   4.609   3.807 -0.2466  0.5179 -0.5904
  128OSM    H4F13682   1.326   4.659   3.857  1.4218  0.0702  2.9804
  128OSM    H4G13683   1.501   4.674   3.823 -1.3934  1.5379  2.3764
  128OSM    C5F13684   1.433   4.482   3.894 -0.2972  0.2808  0.3924
  128OSM    H5F13685   1.516   4.431   3.840 -0.4596 -0.8775  1.1960
  128OSM    H5G13686   1.339   4.423   3.900 -0.9484  1.4307  2.6309
  128OSM    C6F13687   1.472   4.521   4.037  0.8713  0.0590  0.5485
  128OSM    H6F13688   1.549   4.601   4.026 -0.8839  1.9972  1.6235
  128OSM    H6G13689   1.515   4.433   4.089  0.1799 -1.1396 -0.8579
  128OSM    C7F13690   1.366   4.597   4.127 -0.3427  0.1984  0.8651
  128OSM    H7F13691   1.276   4.533   4.119  0.0241 -0.2554  0.3154
  128OSM    H7G13692   1.345   4.699   4.089 -0.6868 -0.0931  0.2547
  128OSM    C8F13693   1.419   4.610   4.274 -0.2672  0.8147 -0.2964
  128OSM    H8F13694   1.346   4.669   4.333 -1.9582 -1.5871  0.1587
  128OSM    H8G13695   1.518   4.662   4.267  0.4264 -0.2776  1.0300
  128OSM    C9F13696   1.439   4.471   4.336 -1.0153  0.8048 -0.3246
  128OSM    H9F13697   1.490   4.392   4.280 -1.7810  0.7020 -0.8974
  128OSM   C10F13698   1.394   4.428   4.454  0.0830 -0.3549 -0.4611
  128OSM   H10F13699   1.404   4.324   4.486  0.1157  0.3624  2.0880
  128OSM   C11F13700   1.325   4.508   4.566  0.0205  0.4593  0.1875
  128OSM   H11F13701   1.305   4.613   4.536  0.8639  0.7387  0.5741
  128OSM   H11G13702   1.388   4.520   4.657 -2.1062 -1.8492  2.1386
  128OSM   C12F13703   1.190   4.433   4.602  0.1392 -0.2705 -0.4813
  128OSM   H12F13704   1.210   4.331   4.641 -2.9092 -1.2038 -1.1376
  128OSM   H12G13705   1.137   4.423   4.504 -0.3222  0.1048 -0.2714
  128OSM   C13F13706   1.124   4.507   4.717  0.3351 -0.1912 -0.2219
  128OSM   H13F13707   1.082   4.593   4.661  0.7903 -1.0797 -2.0097
  128OSM   H13G13708   1.209   4.535   4.782 -0.6113  0.3494  0.8144
  128OSM   C14F13709   1.013   4.436   4.800  0.6804 -0.1871 -0.7015
  128OSM   H14F13710   0.975   4.513   4.871  1.5353  0.3992 -0.8598
  128OSM   H14G13711   1.052   4.355   4.866  2.3180 -1.1700 -2.7504
  128OSM   C15F13712   0.899   4.378   4.718 -0.0853 -1.2255 -0.4047
  128OSM   H15F13713   0.876   4.448   4.635 -0.3197 -3.0360 -1.9306
  128OSM   H15G13714   0.814   4.384   4.790  1.2437  0.9574  1.1159
  128OSM   C16F13715   0.906   4.244   4.670  0.1658  0.6650  0.5419
  128OSM   H16F13716   0.931   4.167   4.747 -0.9726  0.6746  0.9375
  128OSM   H16G13717   0.983   4.235   4.590 -0.1568 -3.3480  0.4520
  128OSM   C17F13718   0.769   4.207   4.611  0.3134  0.2650  0.4533
  128OSM   H17F13719   0.736   4.281   4.536 -1.6166 -0.4003  0.5783
  128OSM   H17G13720   0.699   4.202   4.698  0.8863  0.5003  0.9352
  128OSM   C18F13721   0.771   4.069   4.549 -0.7042 -0.0442 -0.4876
  128OSM   H18F13722   0.831   3.996   4.607 -0.1745  0.0883 -0.8597
  128OSM   H18G13723   0.822   4.060   4.450  1.7475  1.8382  0.4860
  128OSM   H18H13724   0.664   4.044   4.537 -1.1151  1.6489 -0.6465
  129OSM      N13725   2.537   1.096   2.756  0.4901  0.0997  0.4858
  129OSM    C1513726   2.497   1.203   2.665 -0.0187  0.2115 -0.9535
  129OSM   H15A13727   2.502   1.301   2.709  0.8500 -0.8027  1.4012
  129OSM   H15B13728   2.401   1.180   2.621 -0.3139 -0.0290 -0.1887
  129OSM   H15C13729   2.567   1.216   2.583  1.7895  0.2620  0.5435
  129OSM    C1413730   2.516   0.969   2.690 -0.6481 -0.2612  0.2255
  129OSM   H14A13731   2.411   0.954   2.671 -0.2785 -0.2068 -2.0251
  129OSM   H14B13732   2.548   0.890   2.757 -1.5586  1.0471  2.2967
  129OSM   H14C13733   2.573   0.956   2.600 -0.0723  1.8117  0.2369
  129OSM    C1313734   2.681   1.116   2.799 -0.3687  0.1127 -0.1965
  129OSM   H13A13735   2.699   1.219   2.824 -1.1921  0.2760 -0.2311
  129OSM   H13B13736   2.753   1.084   2.725  1.3302 -0.6645  1.6943
  129OSM   H13C13737   2.703   1.058   2.887  0.6186  0.9731  0.1251
  129OSM    C1213738   2.447   1.095   2.887 -0.2568  0.3337  0.7642
  129OSM   H12A13739   2.475   1.178   2.951 -0.0054  1.9547 -1.3173
  129OSM   H12B13740   2.476   1.002   2.933  3.9944  0.8051 -0.5524
  129OSM    C1113741   2.295   1.106   2.866 -0.4399  0.1348  0.5070
  129OSM   H11A13742   2.273   1.195   2.803 -0.2439 -1.1995 -1.5376
  129OSM   H11B13743   2.230   1.117   2.955 -1.8498  0.1927 -0.4862
  129OSM      P13744   2.236   0.846   2.857 -0.2942  0.1281 -0.0028
  129OSM    O1313745   2.245   0.751   2.742  0.7417  0.3420 -0.0708
  129OSM    O1413746   2.338   0.830   2.962  0.4876  0.0150 -0.3488
  129OSM    O1113747   2.092   0.858   2.913  0.4708 -0.2974  0.4467
  129OSM    O1213748   2.248   0.994   2.793 -0.0862 -0.2583 -0.0094
  129OSM    C1S13749   2.052   0.767   3.017  0.5501  0.2764 -0.7815
  129OSM    H1S13750   2.086   0.663   2.999 -1.5149 -0.3842 -1.1553
  129OSM    H1T13751   1.941   0.759   3.010  0.6038  0.8258 -3.1408
  129OSM     NF13752   2.066   0.702   3.259 -0.4353  0.0601  0.0674
  129OSM    HNF13753   1.990   0.706   3.324 -0.8623 -1.4555 -0.3124
  129OSM    C2S13754   2.096   0.807   3.158 -0.1854 -0.0717 -0.0940
  129OSM    H2S13755   2.204   0.832   3.157 -0.7345  2.5437  0.1415
  129OSM    C3S13756   2.030   0.946   3.202  0.0416 -0.4157  0.8024
  129OSM    H3S13757   1.923   0.919   3.217  0.1060 -1.3191 -0.2528
  129OSM     O313758   2.015   1.051   3.097 -0.7947 -0.5992  0.6118
  129OSM    HO313759   2.023   1.016   3.008  0.0315  1.7371 -0.3169
  129OSM    C4S13760   2.090   1.007   3.333  0.0288  0.1487  0.3981
  129OSM    H4S13761   2.021   1.005   3.418  0.9989 -1.7741  1.1862
  129OSM    C5S13762   2.210   1.066   3.358 -0.3961  0.3399  0.6909
  129OSM    H5S13763   2.286   1.069   3.278 -0.1372  0.2964  0.9347
  129OSM    C6S13764   2.245   1.136   3.477  0.3532 -0.0352  0.6866
  129OSM    H6S13765   2.247   1.245   3.458 -0.2580  0.1398  1.5777
  129OSM    H6T13766   2.352   1.107   3.494 -0.0207 -1.0927  1.3663
  129OSM    C7S13767   2.168   1.129   3.618  0.2338 -0.0871  0.6387
  129OSM    H7S13768   2.171   1.030   3.669  1.4285  0.4717  1.6846
  129OSM    H7T13769   2.062   1.155   3.597 -0.2741 -2.3231  0.1996
  129OSM    C8S13770   2.245   1.211   3.718 -0.1171  0.5707  0.5587
  129OSM    H8S13771   2.247   1.319   3.692  0.4144  0.7706  1.3964
  129OSM    H8T13772   2.351   1.181   3.710 -0.7847 -1.7988 -0.2950
  129OSM    C9S13773   2.188   1.205   3.855 -0.3209  0.5548  0.3391
  129OSM    H9S13774   2.201   1.102   3.896 -1.0372 -0.4060 -1.6917
  129OSM    H9T13775   2.080   1.229   3.845 -0.3024  0.3562 -0.4213
  129OSM   C10S13776   2.255   1.303   3.959 -0.1758 -0.3605  0.6335
  129OSM   H10S13777   2.178   1.314   4.038  0.4411  0.7099  1.1019
  129OSM   H10T13778   2.278   1.401   3.912  2.7143 -1.2989 -0.1013
  129OSM   C11S13779   2.375   1.256   4.028  0.0601  0.0507 -0.0924
  129OSM   H11S13780   2.457   1.252   3.953  3.0513  2.8082  2.7309
  129OSM   H11T13781   2.357   1.164   4.087 -1.4101  0.4470  0.1016
  129OSM   C12S13782   2.421   1.354   4.132 -0.4477 -0.1601  0.6643
  129OSM   H12S13783   2.341   1.377   4.205  1.1162 -0.5767  2.6239
  129OSM   H12T13784   2.452   1.447   4.080  0.4254 -1.0694 -0.5013
  129OSM   C13S13785   2.550   1.317   4.206  0.7632  0.4384 -0.0951
  129OSM   H13S13786   2.643   1.312   4.146  1.3928  1.9923  0.6911
  129OSM   H13T13787   2.519   1.220   4.251  1.6474  0.3174  0.2724
  129OSM   C14S13788   2.575   1.409   4.320 -0.9059  0.0762  0.0112
  129OSM   H14S13789   2.478   1.409   4.374 -0.1940  2.4756  1.4076
  129OSM   H14T13790   2.581   1.516   4.291 -0.7083  0.5767  1.7988
  129OSM   C15S13791   2.676   1.350   4.425  0.7032  0.1972  0.2848
  129OSM   H15S13792   2.679   1.239   4.427  2.8849  0.2180  1.5998
  129OSM   H15T13793   2.641   1.381   4.526  1.3271 -0.9972  0.8966
  129OSM   C16S13794   2.819   1.397   4.404  0.4995 -0.7288 -0.0434
  129OSM   H16S13795   2.849   1.363   4.302 -1.8216  1.7573 -1.6976
  129OSM   H16T13796   2.890   1.350   4.475 -0.4343 -2.0304  0.0679
  129OSM   C17S13797   2.845   1.549   4.417  0.4991 -0.1538 -0.3143
  129OSM   H17S13798   2.792   1.604   4.336 -0.4899  0.8835  0.9958
  129OSM   H17T13799   2.954   1.562   4.395  0.5074  0.7037  0.2088
  129OSM   C18S13800   2.825   1.614   4.554 -0.0372 -0.7548  0.2758
  129OSM   H18S13801   2.910   1.596   4.624 -0.3149  3.0399  1.8251
  129OSM   H18T13802   2.729   1.575   4.592 -0.2700 -1.7244 -1.2336
  129OSM   H18U13803   2.809   1.723   4.540 -0.3890 -0.9008 -0.5121
  129OSM    C1F13804   2.126   0.590   3.254  0.5093 -0.2059  0.3192
  129OSM     OF13805   2.224   0.571   3.187 -0.0174  0.4754 -0.6320
  129OSM    C2F13806   2.066   0.486   3.343  0.5277  0.0800  0.1898
  129OSM    H2F13807   2.078   0.394   3.282  2.9359 -0.5033  1.4382
  129OSM    H2G13808   1.961   0.520   3.359  0.8594  1.6989 -0.8813
  129OSM    C3F13809   2.142   0.477   3.479  0.0034  0.1339 -0.1824
  129OSM    H3F13810   2.246   0.441   3.459 -0.0500  0.4685 -1.1035
  129OSM    H3G13811   2.084   0.398   3.532 -0.9601  0.2304 -1.0691
  129OSM    C4F13812   2.131   0.597   3.569  0.1229  0.0145 -0.6014
  129OSM    H4F13813   2.026   0.634   3.563 -0.1473 -0.2600  1.7228
  129OSM    H4G13814   2.195   0.679   3.528 -0.7588  1.4747  0.8541
  129OSM    C5F13815   2.174   0.567   3.718 -0.3238 -0.0939  0.0901
  129OSM    H5F13816   2.272   0.518   3.700 -0.8794 -1.1114 -0.2716
  129OSM    H5G13817   2.110   0.493   3.771 -2.1618  1.4745  0.1738
  129OSM    C6F13818   2.192   0.685   3.806 -0.4121 -0.6042 -0.1373
  129OSM    H6F13819   2.091   0.722   3.835 -0.6888 -0.7209 -0.9295
  129OSM    H6G13820   2.254   0.763   3.756  1.2621 -2.2596 -0.7533
  129OSM    C7F13821   2.248   0.647   3.948  0.3282  0.0253 -0.2097
  129OSM    H7F13822   2.355   0.678   3.945  1.0146 -2.2267 -1.3600
  129OSM    H7G13823   2.246   0.536   3.952 -0.3358  0.0326 -0.2259
  129OSM    C8F13824   2.178   0.724   4.061  0.0413  0.2672  0.9044
  129OSM    H8F13825   2.071   0.698   4.072  0.4499 -1.0902  1.9548
  129OSM    H8G13826   2.177   0.832   4.036 -2.5304 -0.0081 -0.5270
  129OSM    C9F13827   2.244   0.704   4.191 -0.0631 -0.7027  0.1106
  129OSM    H9F13828   2.333   0.765   4.210 -0.8949 -0.0672  2.2859
  129OSM   C10F13829   2.205   0.618   4.288  0.2588  0.1143  0.1440
  129OSM   H10F13830   2.262   0.618   4.382  1.4317  0.2419 -0.5370
  129OSM   C11F13831   2.096   0.513   4.300 -0.0532 -0.7998  0.0984
  129OSM   H11F13832   2.033   0.501   4.209  0.3318  0.2507 -0.3252
  129OSM   H11G13833   2.018   0.541   4.374 -1.2298  0.1003 -1.3900
  129OSM   C12F13834   2.157   0.369   4.309  0.5969  0.0554  0.1472
  129OSM   H12F13835   2.213   0.331   4.220 -0.3622 -0.7808 -0.1111
  129OSM   H12G13836   2.070   0.301   4.319  1.9782 -1.8124  0.0230
  129OSM   C13F13837   2.248   0.343   4.421  0.1235 -0.7084 -0.3140
  129OSM   H13F13838   2.329   0.418   4.424 -1.4202  1.0350 -0.3658
  129OSM   H13G13839   2.304   0.248   4.407  0.1219 -0.4640 -2.2457
  129OSM   C14F13840   2.170   0.337   4.557 -0.7730 -0.2996 -0.3823
  129OSM   H14F13841   2.084   0.268   4.558 -0.9995 -0.0186 -0.4936
  129OSM   H14G13842   2.128   0.438   4.576  0.2530  0.4427 -1.8629
  129OSM   C15F13843   2.259   0.289   4.676  0.5569  0.9812 -0.0070
  129OSM   H15F13844   2.320   0.373   4.715 -0.0601 -0.0077  3.4028
  129OSM   H15G13845   2.321   0.201   4.648 -2.5276 -1.4441  0.3247
  129OSM   C16F13846   2.174   0.240   4.795  0.0758  0.1312  0.1079
  129OSM   H16F13847   2.235   0.185   4.869 -0.6649 -2.0929 -0.8482
  129OSM   H16G13848   2.108   0.161   4.754  1.7455 -0.3696 -1.8065
  129OSM   C17F13849   2.084   0.343   4.867  0.6785 -0.0616 -0.9077
  129OSM   H17F13850   2.025   0.387   4.784 -0.1043 -0.5601 -0.6362
  129OSM   H17G13851   2.155   0.423   4.899  0.5280 -0.4228  0.3825
  129OSM   C18F13852   2.007   0.288   4.989  0.9382 -0.5137  1.0116
  129OSM   H18F13853   2.075   0.252   5.069  0.4464  0.0436  1.6942
  129OSM   H18G13854   1.956   0.196   4.953  3.2700 -1.1706 -0.9227
  129OSM   H18H13855   1.940   0.366   5.032 -0.7823 -0.1471 -1.9982
  130OSM      N13856   1.777   5.024   2.774 -0.6462 -0.2808 -0.8238
  130OSM    C1513857   1.907   5.051   2.703 -0.3676  0.2624 -0.3123
  130OSM   H15A13858   1.996   5.051   2.764 -0.4810  1.0413 -0.1361
  130OSM   H15B13859   1.905   5.147   2.652 -0.7590 -0.3532 -1.5102
  130OSM   H15C13860   1.922   4.973   2.630 -0.3002 -0.8805  0.9000
  130OSM    C1413861   1.780   5.121   2.893  0.6629 -0.0343 -0.9593
  130OSM   H14A13862   1.786   5.224   2.858 -1.7708  0.1946 -0.9019
  130OSM   H14B13863   1.867   5.103   2.954  0.1057  1.7370  0.4613
  130OSM   H14C13864   1.698   5.112   2.963  2.8320  0.8519  1.8937
  130OSM    C1313865   1.671   5.063   2.681  0.7740 -0.0119 -0.3397
  130OSM   H13A13866   1.658   5.169   2.666 -0.6855 -0.0792  0.2337
  130OSM   H13B13867   1.576   5.039   2.727  1.4879  1.0992  1.8293
  130OSM   H13C13868   1.684   5.011   2.587  1.6818 -1.8711  0.7465
  130OSM    C1213869   1.774   4.879   2.831  0.0256  0.7249  0.0954
  130OSM   H12A13870   1.701   4.870   2.909  2.0093 -0.5119  1.9181
  130OSM   H12B13871   1.863   4.861   2.889  0.7144 -0.5718 -1.2952
  130OSM    C1113872   1.756   4.767   2.735 -0.0235  0.1052  0.2016
  130OSM   H11A13873   1.679   4.780   2.656 -0.5669 -2.1256  0.2883
  130OSM   H11B13874   1.721   4.671   2.779 -0.4642 -0.1817 -0.7398
  130OSM      P13875   1.977   4.627   2.702 -0.2058 -0.1479  0.1496
  130OSM    O1313876   1.940   4.515   2.611  0.1729  0.5064 -0.3386
  130OSM    O1413877   2.117   4.681   2.686  0.4369  0.1413  0.6728
  130OSM    O1113878   1.947   4.582   2.852  0.3438 -0.0392  0.7138
  130OSM    O1213879   1.876   4.743   2.668  0.0162 -0.4925 -0.3789
  130OSM    C1S13880   2.007   4.461   2.905  0.2623  0.6664 -0.5473
  130OSM    H1S13881   2.117   4.452   2.897  0.5148  2.0867  0.7992
  130OSM    H1T13882   1.957   4.377   2.854 -1.4749 -0.8879  3.3340
  130OSM     NF13883   2.047   4.336   3.101 -0.0677  0.5408  0.2987
  130OSM    HNF13884   1.999   4.249   3.117 -1.4856  1.0912 -0.7334
  130OSM    C2S13885   1.966   4.442   3.053 -0.3633  0.0293 -0.2457
  130OSM    H2S13886   1.995   4.535   3.106 -2.5216 -0.1023  1.3065
  130OSM    C3S13887   1.812   4.414   3.073 -0.1672 -0.5808 -0.3590
  130OSM    H3S13888   1.786   4.320   3.020  0.0011 -1.2625  0.7372
  130OSM     O313889   1.736   4.514   3.019  0.0834 -0.4191 -0.5604
  130OSM    HO313890   1.774   4.536   2.934 -0.7030 -2.4693 -1.5046
  130OSM    C4S13891   1.786   4.391   3.218  0.6834 -0.6260  0.0880
  130OSM    H4S13892   1.809   4.290   3.256 -0.3282 -0.9571 -0.1416
  130OSM    C5S13893   1.765   4.483   3.321 -0.7387 -0.0808  0.4332
  130OSM    H5S13894   1.780   4.588   3.294  0.3791 -0.5056 -0.7304
  130OSM    C6S13895   1.762   4.453   3.467  0.4951  0.6645  0.0278
  130OSM    H6S13896   1.730   4.348   3.487 -0.1729  0.8515 -0.0351
  130OSM    H6T13897   1.688   4.521   3.514 -0.0247  1.4521 -1.8546
  130OSM    C7S13898   1.885   4.488   3.547 -0.0230 -0.0449  0.3281
  130OSM    H7S13899   1.902   4.598   3.540 -1.0819  0.1823  1.0687
  130OSM    H7T13900   1.973   4.429   3.513 -1.2907 -0.7602 -1.9601
  130OSM    C8S13901   1.860   4.463   3.696 -0.2550 -0.2908 -0.2755
  130OSM    H8S13902   1.845   4.353   3.710  0.8015 -0.4744 -0.4626
  130OSM    H8T13903   1.766   4.515   3.720 -0.6333 -0.8260 -0.5698
  130OSM    C9S13904   1.975   4.516   3.795  0.2694 -0.8181  0.2379
  130OSM    H9S13905   1.965   4.626   3.803  1.6296 -0.6469 -0.2153
  130OSM    H9T13906   2.069   4.492   3.741 -0.5584 -2.3100 -0.6450
  130OSM   C10S13907   1.969   4.463   3.942 -0.1978  0.0785  1.0179
  130OSM   H10S13908   1.994   4.355   3.947 -1.8071 -0.2969  1.7354
  130OSM   H10T13909   1.866   4.478   3.983 -0.6586  1.2298 -0.4914
  130OSM   C11S13910   2.072   4.542   4.030  0.3654 -1.1548  0.0840
  130OSM   H11S13911   2.054   4.652   4.021  1.1494 -1.0618 -0.4712
  130OSM   H11T13912   2.175   4.535   3.987  0.7863  1.6832  0.4009
  130OSM   C12S13913   2.089   4.507   4.176  0.2060  0.6787 -0.3333
  130OSM   H12S13914   2.149   4.581   4.232 -0.9319  2.2422 -1.1088
  130OSM   H12T13915   2.146   4.412   4.192 -1.9421 -0.6431 -0.1276
  130OSM   C13S13916   1.950   4.485   4.244 -0.5488  0.4894 -0.6128
  130OSM   H13S13917   1.915   4.382   4.221 -0.3819  0.1500  0.5830
  130OSM   H13T13918   1.870   4.552   4.206 -0.6026  0.1615 -1.0814
  130OSM   C14S13919   1.962   4.483   4.395  0.2955  0.5732 -0.3420
  130OSM   H14S13920   1.991   4.581   4.438 -0.1296  0.4341  0.2750
  130OSM   H14T13921   2.040   4.411   4.430 -1.0089 -0.8167 -0.1949
  130OSM   C15S13922   1.834   4.433   4.454  0.2306 -0.0967  0.2890
  130OSM   H15S13923   1.795   4.330   4.438 -1.9721  0.9179 -1.4279
  130OSM   H15T13924   1.753   4.497   4.414 -1.0296 -0.4066  2.2416
  130OSM   C16S13925   1.832   4.453   4.610 -0.4678  0.0237  0.0065
  130OSM   H16S13926   1.841   4.562   4.626 -0.2823 -0.3264  2.6311
  130OSM   H16T13927   1.919   4.394   4.645 -0.6288 -0.6335 -0.6544
  130OSM   C17S13928   1.704   4.404   4.678 -0.1385 -0.0089 -0.5363
  130OSM   H17S13929   1.704   4.293   4.672  0.3223 -0.0413  0.0696
  130OSM   H17T13930   1.616   4.436   4.617 -0.2603  2.2283  0.6966
  130OSM   C18S13931   1.688   4.456   4.819 -0.1916  0.8925  0.7797
  130OSM   H18S13932   1.688   4.566   4.829 -0.7446  0.9536  0.1693
  130OSM   H18T13933   1.777   4.425   4.878  0.6209  1.6652 -0.0250
  130OSM   H18U13934   1.600   4.408   4.867 -0.8287 -0.9578 -1.9595
  130OSM    C1F13935   2.178   4.338   3.128 -0.8057  0.0332  1.0533
  130OSM     OF13936   2.247   4.438   3.108 -0.1590 -0.0799  0.0652
  130OSM    C2F13937   2.237   4.208   3.181  0.1450  0.5074 -0.1674
  130OSM    H2F13938   2.344   4.209   3.153 -0.2252  1.2277 -1.6133
  130OSM    H2G13939   2.188   4.131   3.118 -5.1299  3.0473  0.2617
  130OSM    C3F13940   2.216   4.193   3.338 -0.0907 -0.5142  0.7280
  130OSM    H3F13941   2.222   4.087   3.372 -0.5435 -0.1304  2.0844
  130OSM    H3G13942   2.118   4.233   3.374  1.0628  3.5200 -0.1929
  130OSM    C4F13943   2.312   4.279   3.423  0.3479 -0.3951 -0.4496
  130OSM    H4F13944   2.311   4.386   3.393  0.7559  0.0822  1.0999
  130OSM    H4G13945   2.419   4.250   3.409  0.2640 -1.3972  0.7801
  130OSM    C5F13946   2.272   4.275   3.566  0.6200 -0.2523 -0.8229
  130OSM    H5F13947   2.238   4.173   3.595  1.2625  0.1886  1.7972
  130OSM    H5G13948   2.191   4.349   3.583  2.1859  1.4756 -0.5595
  130OSM    C6F13949   2.388   4.294   3.670 -0.3026  0.5509  0.1734
  130OSM    H6F13950   2.428   4.396   3.655  0.3637  0.0930 -1.4464
  130OSM    H6G13951   2.474   4.229   3.641  1.1353  2.5682 -0.2782
  130OSM    C7F13952   2.333   4.277   3.816  0.0101  0.3806 -0.6149
  130OSM    H7F13953   2.306   4.173   3.845  0.7288  0.1299 -0.8351
  130OSM    H7G13954   2.244   4.341   3.834 -1.2886 -1.6951  0.7577
  130OSM    C8F13955   2.436   4.328   3.919 -1.0742 -0.2138  0.0053
  130OSM    H8F13956   2.385   4.360   4.012 -2.8619  1.6603 -1.5171
  130OSM    H8G13957   2.480   4.421   3.878  2.2485 -1.9977 -0.8081
  130OSM    C9F13958   2.551   4.231   3.940 -0.3359 -0.2757  0.3482
  130OSM    H9F13959   2.620   4.232   3.854 -0.5297  4.8355 -0.0805
  130OSM   C10F13960   2.568   4.168   4.056  0.1486  0.0820 -0.3676
  130OSM   H10F13961   2.662   4.113   4.070  1.5427  2.3698 -0.2157
  130OSM   C11F13962   2.481   4.176   4.184  0.3950  0.1517 -0.0506
  130OSM   H11F13963   2.488   4.075   4.230 -2.6213  0.4913  1.3991
  130OSM   H11G13964   2.376   4.212   4.178  0.7043  1.4185  1.3739
  130OSM   C12F13965   2.542   4.274   4.282 -0.1795 -0.4969  0.2618
  130OSM   H12F13966   2.652   4.268   4.292 -0.0033  0.8628 -0.6037
  130OSM   H12G13967   2.488   4.256   4.377  1.0879 -2.2097  0.6993
  130OSM   C13F13968   2.509   4.418   4.243  0.4594 -0.2954 -0.0914
  130OSM   H13F13969   2.399   4.437   4.246  0.4678 -0.2421 -0.1065
  130OSM   H13G13970   2.540   4.446   4.140  2.0570  1.3674  0.7845
  130OSM   C14F13971   2.566   4.525   4.339 -0.3498  0.4635  0.4527
  130OSM   H14F13972   2.674   4.523   4.313 -1.3226 -1.1812 -4.4823
  130OSM   H14G13973   2.555   4.499   4.447  0.5123  0.9279  0.6647
  130OSM   C15F13974   2.515   4.664   4.320 -0.6077 -0.3803  0.1424
  130OSM   H15F13975   2.406   4.666   4.343 -1.6938  1.0247 -4.0809
  130OSM   H15G13976   2.522   4.686   4.211  1.8931 -1.1743  0.0896
  130OSM   C16F13977   2.573   4.773   4.405 -0.0016  0.3920  0.8267
  130OSM   H16F13978   2.577   4.741   4.511  0.0759  0.9922  1.0070
  130OSM   H16G13979   2.523   4.872   4.395  0.3567  0.4167 -1.3795
  130OSM   C17F13980   2.720   4.792   4.356 -0.3122 -0.8851 -0.1244
  130OSM   H17F13981   2.737   4.810   4.248 -3.5680  2.3500 -0.3052
  130OSM   H17G13982   2.783   4.706   4.387 -0.0173 -0.8301 -0.5624
  130OSM   C18F13983   2.781   4.924   4.415  0.2932 -0.1021  0.6866
  130OSM   H18F13984   2.704   5.001   4.392  0.0961 -0.7977 -1.1617
  130OSM   H18G13985   2.882   4.942   4.373 -0.0455 -3.6248 -2.1032
  130OSM   H18H13986   2.798   4.910   4.524 -0.7022 -0.9174  0.7550
  131OSM      N13987   6.386   0.958   2.660 -0.4423 -0.0586 -0.7535
  131OSM    C1513988   6.300   0.846   2.704  0.0288  0.3072 -0.4096
  131OSM   H15A13989   6.260   0.873   2.801 -0.6595  1.8444 -1.1013
  131OSM   H15B13990   6.354   0.754   2.720 -1.1013 -0.4299 -0.7072
  131OSM   H15C13991   6.232   0.825   2.623  0.5869  0.1888 -0.8518
  131OSM    C1413992   6.477   0.993   2.777 -0.0261  0.0404  0.5004
  131OSM   H14A13993   6.542   1.076   2.751 -1.7029  0.5925 -2.3080
  131OSM   H14B13994   6.545   0.913   2.803  2.0486  1.3984 -0.4285
  131OSM   H14C13995   6.418   1.030   2.860 -2.3985  0.2829 -1.2062
  131OSM    C1313996   6.470   0.927   2.541  0.2895  0.1032 -0.1048
  131OSM   H13A13997   6.402   0.892   2.464  0.4415  1.1461 -0.7296
  131OSM   H13B13998   6.540   0.849   2.567 -1.0631 -0.9821  0.4134
  131OSM   H13C13999   6.519   1.015   2.502 -0.3901 -0.7288 -3.0266
  131OSM    C1214000   6.292   1.077   2.612 -0.3502  0.7521  0.0543
  131OSM   H12A14001   6.223   1.036   2.540  0.6144 -0.6102 -0.1499
  131OSM   H12B14002   6.363   1.133   2.553  0.6310 -2.1219 -1.7277
  131OSM    C1114003   6.207   1.154   2.724 -0.3763 -0.1062  0.3457
  131OSM   H11A14004   6.138   1.083   2.774 -0.6361 -0.5528 -0.6418
  131OSM   H11B14005   6.138   1.226   2.674 -0.5956 -2.2744 -2.7642
  131OSM      P14006   6.379   1.345   2.763  0.1262  0.2241 -0.0266
  131OSM    O1314007   6.464   1.390   2.874  0.6728 -0.3654  0.0242
  131OSM    O1414008   6.452   1.324   2.637  0.8370  0.5272  0.6327
  131OSM    O1114009   6.268   1.461   2.732 -0.1506 -0.1176  0.6495
  131OSM    O1214010   6.293   1.224   2.815 -0.0552 -1.1979 -0.2699
  131OSM    C1S14011   6.175   1.480   2.844 -0.0844 -0.3183 -0.3545
  131OSM    H1S14012   6.226   1.465   2.941  0.8352 -0.9367 -0.9182
  131OSM    H1T14013   6.089   1.411   2.852  0.6834 -1.2329  0.1088
  131OSM     NF14014   6.041   1.650   2.956 -0.0187  0.6015 -0.8962
  131OSM    HNF14015   5.944   1.665   2.938 -0.7622 -2.5677 -0.2163
  131OSM    C2S14016   6.129   1.633   2.846 -0.2783 -0.1352  0.5860
  131OSM    H2S14017   6.214   1.697   2.877 -0.6656  0.0176  1.3407
  131OSM    C3S14018   6.071   1.674   2.707 -0.2884 -0.2041 -0.2751
  131OSM    H3S14019   5.985   1.609   2.681  1.0821 -2.1331 -0.1430
  131OSM     O314020   6.148   1.658   2.587 -0.3266 -0.1659 -0.5156
  131OSM    HO314021   6.232   1.621   2.616  0.2007  2.4209  1.7321
  131OSM    C4S14022   6.024   1.815   2.721  0.3029 -0.3286  0.2471
  131OSM    H4S14023   5.915   1.815   2.742  0.3943 -3.0181  1.2071
  131OSM    C5S14024   6.089   1.932   2.708  0.6665 -0.3332  0.1790
  131OSM    H5S14025   6.196   1.925   2.684  0.0801 -0.6206 -2.7062
  131OSM    C6S14026   6.018   2.060   2.727 -0.0719 -0.5170  0.1879
  131OSM    H6S14027   6.005   2.107   2.627 -1.2607 -1.5632 -0.1648
  131OSM    H6T14028   6.074   2.140   2.781  0.7253 -0.9790  0.0578
  131OSM    C7S14029   5.888   2.066   2.812 -0.3288  0.4073 -0.3335
  131OSM    H7S14030   5.815   1.997   2.764 -1.1702 -0.5839  2.2344
  131OSM    H7T14031   5.845   2.168   2.810 -1.9809 -0.1227  2.6245
  131OSM    C8S14032   5.902   2.031   2.964 -0.9891 -0.1494 -0.3726
  131OSM    H8S14033   6.002   2.063   3.001 -1.0520 -2.7437  2.4576
  131OSM    H8T14034   5.921   1.923   2.979  0.9412  0.3413  1.1394
  131OSM    C9S14035   5.784   2.086   3.044  0.8365 -0.1823  0.5319
  131OSM    H9S14036   5.774   2.194   3.019  2.5828 -0.0012  0.4646
  131OSM    H9T14037   5.800   2.069   3.153 -1.2152 -0.3891  0.8295
  131OSM   C10S14038   5.645   2.030   2.996 -0.0299 -0.4414 -0.6190
  131OSM   H10S14039   5.653   1.919   2.994 -0.7872 -0.5349  0.3589
  131OSM   H10T14040   5.627   2.050   2.888  0.5729  1.6769 -0.3746
  131OSM   C11S14041   5.533   2.073   3.088 -0.4020  0.2673  0.0638
  131OSM   H11S14042   5.433   2.060   3.041  0.3053 -0.7024 -1.1968
  131OSM   H11T14043   5.544   2.182   3.109 -0.0792  0.4087 -0.8158
  131OSM   C12S14044   5.538   1.995   3.221  0.2413 -0.3861 -0.1101
  131OSM   H12S14045   5.624   2.031   3.281  0.1693 -1.9013  0.9546
  131OSM   H12T14046   5.563   1.887   3.212  1.2368 -0.2065  0.3452
  131OSM   C13S14047   5.420   2.028   3.312  0.5190  0.5253 -0.3055
  131OSM   H13S14048   5.328   2.006   3.253 -0.6782 -1.1853  2.0343
  131OSM   H13T14049   5.412   2.134   3.341 -3.1029  0.5034 -0.6599
  131OSM   C14S14050   5.423   1.925   3.429  0.8367  0.0385 -0.0077
  131OSM   H14S14051   5.450   1.823   3.394  1.4694 -0.0727  0.7921
  131OSM   H14T14052   5.326   1.923   3.482  0.2882 -0.6045 -0.9869
  131OSM   C15S14053   5.510   1.964   3.543 -0.6750  0.0560 -0.7577
  131OSM   H15S14054   5.478   2.065   3.576 -0.6676  0.2052 -1.1910
  131OSM   H15T14055   5.612   1.978   3.501 -0.5171  0.1443 -0.3417
  131OSM   C16S14056   5.508   1.872   3.667 -0.5681 -0.3826  0.1949
  131OSM   H16S14057   5.539   1.767   3.646 -1.7368 -0.6213 -0.4359
  131OSM   H16T14058   5.401   1.860   3.695 -0.4579 -0.2549  0.6792
  131OSM   C17S14059   5.572   1.929   3.786 -0.6122 -0.0404  0.3639
  131OSM   H17S14060   5.672   1.973   3.765 -0.9336  0.2191 -0.7137
  131OSM   H17T14061   5.584   1.851   3.864  3.6773  0.8065  0.8077
  131OSM   C18S14062   5.494   2.038   3.843 -0.3094 -0.4997 -0.0163
  131OSM   H18S14063   5.541   2.081   3.934 -0.3672 -0.7957  0.1584
  131OSM   H18T14064   5.387   2.012   3.852 -0.5668  0.2947 -0.6783
  131OSM   H18U14065   5.495   2.126   3.775  1.9130  2.3068  3.3009
  131OSM    C1F14066   6.079   1.639   3.086  0.9529 -0.5619  0.0433
  131OSM     OF14067   6.193   1.618   3.115  0.1471 -0.3522 -0.2865
  131OSM    C2F14068   5.975   1.653   3.190 -0.7536  0.4802  0.6438
  131OSM    H2F14069   5.989   1.561   3.251  1.0871  0.4137  0.1753
  131OSM    H2G14070   5.876   1.670   3.142 -0.0835  1.0196 -0.6005
  131OSM    C3F14071   6.000   1.777   3.279 -0.3544  0.0476 -0.6174
  131OSM    H3F14072   6.017   1.865   3.213 -1.8751 -0.8352 -2.2679
  131OSM    H3G14073   6.086   1.739   3.338 -0.2135  1.4815  0.1442
  131OSM    C4F14074   5.882   1.794   3.364  0.4298 -0.0626 -0.6598
  131OSM    H4F14075   5.846   1.699   3.408  1.9495 -0.9006 -1.1770
  131OSM    H4G14076   5.792   1.820   3.304 -0.6538 -0.5558  0.6953
  131OSM    C5F14077   5.912   1.899   3.473  1.1109 -0.0017 -0.3924
  131OSM    H5F14078   5.814   1.921   3.520  0.6966 -1.0396 -0.7432
  131OSM    H5G14079   5.942   1.991   3.418 -2.0491  1.2437 -0.2511
  131OSM    C6F14080   6.014   1.855   3.583  0.3157 -0.4511 -0.0904
  131OSM    H6F14081   6.037   1.948   3.639 -4.1479 -0.1812  1.7270
  131OSM    H6G14082   6.117   1.835   3.546  1.1770  0.2021  1.8157
  131OSM    C7F14083   5.955   1.759   3.694 -0.1999 -0.1730  0.4102
  131OSM    H7F14084   5.961   1.662   3.641 -0.5665  0.9189 -1.7515
  131OSM    H7G14085   5.845   1.761   3.707 -0.4635 -1.2012 -1.4342
  131OSM    C8F14086   6.045   1.754   3.819 -0.3812 -0.5922 -0.1767
  131OSM    H8F14087   6.148   1.780   3.789 -0.5860  0.7797  0.2349
  131OSM    H8G14088   6.047   1.648   3.853  1.8441 -0.2466  0.9297
  131OSM    C9F14089   6.003   1.857   3.924  0.2042  0.2802  0.2989
  131OSM    H9F14090   6.024   1.961   3.895  0.6933  0.5827  1.6464
  131OSM   C10F14091   5.927   1.830   4.031 -0.7779 -0.1424 -0.3970
  131OSM   H10F14092   5.919   1.911   4.105  2.3983 -0.6129  0.6115
  131OSM   C11F14093   5.870   1.693   4.069  0.1618  0.2594  0.4261
  131OSM   H11F14094   5.859   1.624   3.982 -1.6081 -0.2597  1.0136
  131OSM   H11G14095   5.768   1.705   4.111  0.0213 -1.1336  0.5590
  131OSM   C12F14096   5.960   1.621   4.176 -0.1965 -0.5807 -0.4240
  131OSM   H12F14097   5.971   1.689   4.263  2.2323  2.8334 -3.0939
  131OSM   H12G14098   6.063   1.609   4.135 -0.4600  1.2668 -1.7584
  131OSM   C13F14099   5.899   1.485   4.206  0.0301 -0.6708 -0.4856
  131OSM   H13F14100   5.934   1.418   4.125 -2.0566 -0.6130 -1.5119
  131OSM   H13G14101   5.788   1.488   4.202  0.0023 -2.0781 -1.8699
  131OSM   C14F14102   5.937   1.428   4.342  0.1807  0.0468 -0.4359
  131OSM   H14F14103   5.877   1.479   4.422 -1.4515 -2.0093 -0.2718
  131OSM   H14G14104   6.045   1.450   4.358  0.1922  0.2374 -0.7613
  131OSM   C15F14105   5.911   1.276   4.359 -0.0377  0.0597  0.3808
  131OSM   H15F14106   5.972   1.210   4.294 -0.3359  0.1439  0.0052
  131OSM   H15G14107   5.806   1.251   4.333  0.9103 -0.9341 -3.0366
  131OSM   C16F14108   5.922   1.232   4.503 -0.0542  0.8893  0.7561
  131OSM   H16F14109   5.866   1.137   4.514  0.7012  0.0654 -1.6303
  131OSM   H16G14110   5.884   1.307   4.574 -0.0219  1.8084 -0.1657
  131OSM   C17F14111   6.067   1.201   4.560 -0.4722 -1.0771  0.3353
  131OSM   H17F14112   6.128   1.292   4.542 -0.0349 -1.4363 -0.0195
  131OSM   H17G14113   6.115   1.114   4.512  1.2725  0.1837 -0.2824
  131OSM   C18F14114   6.042   1.170   4.706 -0.6112 -0.7884  0.2033
  131OSM   H18F14115   5.986   1.073   4.703 -0.9606 -0.5812 -0.0239
  131OSM   H18G14116   5.983   1.246   4.761 -1.9681 -1.1487 -0.7067
  131OSM   H18H14117   6.141   1.147   4.752  0.7080  0.6605 -1.7654
  132OSM      N14118   5.030   2.096   2.068  0.1170 -0.1961  0.3769
  132OSM    C1514119   5.070   2.191   1.967 -0.7469 -0.3193  0.9436
  132OSM   H15A14120   5.086   2.131   1.878  0.2488  1.4910 -0.1571
  132OSM   H15B14121   5.160   2.249   1.976 -1.8562  2.6257 -3.4473
  132OSM   H15C14122   4.995   2.268   1.954 -0.6516 -0.3978 -0.2114
  132OSM    C1414123   4.908   2.027   2.009  0.1538 -0.9007  0.4260
  132OSM   H14A14124   4.923   1.979   1.914 -0.2846  0.1642 -0.1996
  132OSM   H14B14125   4.836   2.107   2.006  2.8227  1.6564 -0.6806
  132OSM   H14C14126   4.872   1.960   2.085  0.8389 -1.1659  0.5216
  132OSM    C1314127   5.127   1.990   2.080  0.1503  0.1752  0.6166
  132OSM   H13A14128   5.098   1.917   2.153 -1.7997  1.4035  1.1506
  132OSM   H13B14129   5.225   2.010   2.121 -0.2642  1.3495  1.0803
  132OSM   H13C14130   5.139   1.939   1.986  2.8832 -1.3431  1.6844
  132OSM    C1214131   5.004   2.154   2.204 -0.3887  0.8035  0.5903
  132OSM   H12A14132   4.939   2.240   2.201  0.7588  1.9077  3.7155
  132OSM   H12B14133   5.095   2.194   2.246 -0.8194  0.6716  1.6742
  132OSM    C1114134   4.951   2.057   2.313 -0.0709  0.3545 -0.0360
  132OSM   H11A14135   4.974   2.103   2.411 -0.5903 -0.2086  0.3623
  132OSM   H11B14136   5.004   1.959   2.309  1.3044  0.9950  1.4935
  132OSM      P14137   4.749   1.920   2.352 -0.2030  0.0090 -0.3258
  132OSM    O1314138   4.612   1.951   2.395  0.7793  0.3451  0.5863
  132OSM    O1414139   4.767   1.810   2.249 -0.7973 -0.1870  0.0280
  132OSM    O1114140   4.839   1.874   2.478  0.7853  0.4596 -0.1056
  132OSM    O1214141   4.807   2.052   2.304 -0.1626  0.2737 -0.4037
  132OSM    C1S14142   4.807   1.901   2.612 -0.0883 -0.4203 -0.9901
  132OSM    H1S14143   4.781   2.008   2.626 -0.9520 -0.7439  0.0450
  132OSM    H1T14144   4.899   1.885   2.673 -0.5566 -1.3168 -0.5010
  132OSM     NF14145   4.643   1.842   2.795  0.0328  0.0037 -0.4942
  132OSM    HNF14146   4.660   1.761   2.851  0.3518 -0.9695 -1.9638
  132OSM    C2S14147   4.695   1.809   2.668 -0.2238 -0.5956  0.3037
  132OSM    H2S14148   4.614   1.837   2.597  0.6536  1.8430  0.1902
  132OSM    C3S14149   4.722   1.662   2.653 -0.5330 -0.1244  0.0037
  132OSM    H3S14150   4.735   1.649   2.544 -0.2972 -0.6599  0.0910
  132OSM     O314151   4.614   1.579   2.701  0.2196 -0.3759  0.1472
  132OSM    HO314152   4.538   1.637   2.691  1.5599  1.2565 -1.2139
  132OSM    C4S14153   4.852   1.624   2.724 -0.5632 -0.7223 -0.8055
  132OSM    H4S14154   4.932   1.662   2.659  0.9406 -0.0447  1.3141
  132OSM    C5S14155   4.882   1.559   2.837  0.5325  0.5704 -0.0826
  132OSM    H5S14156   4.795   1.520   2.892 -0.2709 -1.1506 -2.4262
  132OSM    C6S14157   5.021   1.522   2.882 -0.7249 -0.7546 -0.1014
  132OSM    H6S14158   5.086   1.612   2.876 -1.1504 -0.4764 -0.6317
  132OSM    H6T14159   5.073   1.440   2.828 -0.5684  0.1292 -1.3446
  132OSM    C7S14160   5.009   1.493   3.033  0.5541 -0.1149 -0.0648
  132OSM    H7S14161   4.974   1.388   3.029 -1.2522  0.4933 -1.8788
  132OSM    H7T14162   4.946   1.571   3.081  0.2218 -1.3524  1.6167
  132OSM    C8S14163   5.155   1.491   3.113 -0.5609  0.3504 -0.3541
  132OSM    H8S14164   5.210   1.587   3.107  1.1817 -0.5236  0.8072
  132OSM    H8T14165   5.215   1.410   3.066 -0.0687  0.2158  0.4955
  132OSM    C9S14166   5.139   1.482   3.268 -0.5604  0.1189 -0.3049
  132OSM    H9S14167   5.078   1.392   3.295  0.0163  0.9671  4.9996
  132OSM    H9T14168   5.093   1.578   3.298  1.6309  1.6007 -1.4199
  132OSM   C10S14169   5.266   1.467   3.347 -0.5301 -0.0947  0.1590
  132OSM   H10S14170   5.322   1.560   3.323  0.2892 -0.4112  0.7892
  132OSM   H10T14171   5.325   1.393   3.287 -1.5833  0.8325 -2.1450
  132OSM   C11S14172   5.263   1.438   3.501  0.3676  0.1432 -0.0518
  132OSM   H11S14173   5.362   1.395   3.526 -0.0571  0.1098  1.7253
  132OSM   H11T14174   5.194   1.352   3.511  0.7402 -0.1902 -0.3245
  132OSM   C12S14175   5.225   1.546   3.596 -0.9246  0.3687  0.1864
  132OSM   H12S14176   5.117   1.569   3.582 -1.3273 -1.9539 -1.0705
  132OSM   H12T14177   5.286   1.638   3.580 -0.7078 -0.1026 -2.0334
  132OSM   C13S14178   5.215   1.499   3.738 -0.2391 -0.1142 -0.0839
  132OSM   H13S14179   5.315   1.459   3.767  1.1732  2.7108 -0.6232
  132OSM   H13T14180   5.146   1.412   3.734 -0.3230 -0.0454 -0.1458
  132OSM   C14S14181   5.172   1.600   3.844  0.6910  0.2966  0.6735
  132OSM   H14S14182   5.114   1.546   3.922 -1.0893  2.0136  0.6089
  132OSM   H14T14183   5.105   1.673   3.795  2.0452 -0.4050 -2.4362
  132OSM   C15S14184   5.285   1.671   3.916 -0.3489  0.4013  0.7172
  132OSM   H15S14185   5.323   1.743   3.841  0.8355  0.4356  1.3280
  132OSM   H15T14186   5.365   1.610   3.965 -0.7397  0.0393  0.9089
  132OSM   C16S14187   5.236   1.771   4.021  0.5081 -0.6217  0.7747
  132OSM   H16S14188   5.158   1.835   3.975 -0.6493 -2.9545 -0.6540
  132OSM   H16T14189   5.318   1.844   4.043 -0.8319  2.4942 -3.2882
  132OSM   C17S14190   5.181   1.708   4.150 -0.3495  0.3254  0.8777
  132OSM   H17S14191   5.239   1.619   4.182  1.0231  0.1831 -1.7298
  132OSM   H17T14192   5.081   1.663   4.130 -0.7151  0.9460  1.2594
  132OSM   C18S14193   5.161   1.796   4.274 -0.8454  0.3803 -0.1200
  132OSM   H18S14194   5.253   1.838   4.320  0.3412  0.2068 -2.2236
  132OSM   H18T14195   5.123   1.732   4.357  2.8732 -2.1935 -0.1225
  132OSM   H18U14196   5.092   1.883   4.268  1.2307  2.2617  1.5608
  132OSM    C1F14197   4.591   1.961   2.839  0.4116  0.4862  0.1371
  132OSM     OF14198   4.598   2.066   2.780  0.0974  0.1485 -0.1041
  132OSM    C2F14199   4.526   1.951   2.977  0.6482  0.9315  0.2637
  132OSM    H2F14200   4.593   1.929   3.064  0.9411 -0.8473 -0.3578
  132OSM    H2G14201   4.452   1.868   2.974 -0.6497  2.0827 -0.2864
  132OSM    C3F14202   4.446   2.088   3.000 -0.7020 -0.3842  0.2181
  132OSM    H3F14203   4.379   2.095   2.911 -0.3578 -2.8120 -0.3058
  132OSM    H3G14204   4.518   2.172   3.001 -0.9979 -0.1238 -0.2700
  132OSM    C4F14205   4.353   2.078   3.120 -0.4601 -0.2290  0.4809
  132OSM    H4F14206   4.289   1.991   3.094 -1.3599  0.6043 -0.1680
  132OSM    H4G14207   4.288   2.167   3.135  0.5547  0.3825  1.3623
  132OSM    C5F14208   4.422   2.042   3.252  0.1548 -0.5191 -0.1717
  132OSM    H5F14209   4.484   2.129   3.282  0.7280 -1.4690  1.5084
  132OSM    H5G14210   4.480   1.949   3.233 -0.7721 -1.1262 -0.0899
  132OSM    C6F14211   4.318   2.013   3.364 -0.2940 -0.2890  0.1632
  132OSM    H6F14212   4.267   1.916   3.350  1.0890 -0.8393 -1.3774
  132OSM    H6G14213   4.252   2.099   3.389  0.5388  0.3652  0.1815
  132OSM    C7F14214   4.387   1.996   3.506 -0.4670  0.8208  0.2104
  132OSM    H7F14215   4.452   2.085   3.522  0.1039  0.3017  0.8938
  132OSM    H7G14216   4.437   1.898   3.521 -1.0388  0.4380 -0.3303
  132OSM    C8F14217   4.294   2.014   3.625  0.3871  0.0156  0.8207
  132OSM    H8F14218   4.345   1.992   3.722 -1.1240  0.6877  1.8115
  132OSM    H8G14219   4.214   1.938   3.614 -1.4653  2.0890 -1.0428
  132OSM    C9F14220   4.228   2.155   3.621 -1.1303 -0.0802 -0.0624
  132OSM    H9F14221   4.303   2.235   3.623  0.5665 -1.6237  0.9503
  132OSM   C10F14222   4.091   2.178   3.615 -0.4580 -0.1744  0.0408
  132OSM   H10F14223   4.058   2.283   3.610 -0.7951 -0.3088 -0.6648
  132OSM   C11F14224   3.973   2.086   3.611 -0.1623  0.0542  0.2943
  132OSM   H11F14225   3.988   1.986   3.564 -0.7686 -0.1677  0.5579
  132OSM   H11G14226   3.890   2.122   3.546  0.7769 -1.2207 -1.7146
  132OSM   C12F14227   3.888   2.074   3.735  0.3531  0.3074  0.3015
  132OSM   H12F14228   3.805   2.001   3.721  1.2252 -0.6072 -0.1999
  132OSM   H12G14229   3.837   2.170   3.756  1.1812  0.6429  0.8381
  132OSM   C13F14230   3.971   2.030   3.856  0.4154 -0.2639  0.8756
  132OSM   H13F14231   4.044   2.109   3.880  0.0662  0.7254 -1.0960
  132OSM   H13G14232   4.031   1.942   3.823  0.3891 -0.3867  1.1501
  132OSM   C14F14233   3.882   1.991   3.971 -0.2333 -0.2037  0.1337
  132OSM   H14F14234   3.825   1.897   3.953  1.9405 -1.8514  1.3842
  132OSM   H14G14235   3.801   2.062   3.999 -0.5686 -0.3446 -0.4575
  132OSM   C15F14236   3.961   1.942   4.098  0.2220  0.2616 -0.4090
  132OSM   H15F14237   4.002   2.037   4.139 -1.4541  0.5389  0.7655
  132OSM   H15G14238   4.044   1.872   4.076 -0.2128 -0.2839 -0.3347
  132OSM   C16F14239   3.869   1.867   4.197 -0.7399 -0.7884  0.2381
  132OSM   H16F14240   3.940   1.832   4.276  1.1561  1.2053 -0.4699
  132OSM   H16G14241   3.829   1.776   4.147  1.4735 -1.6623 -0.0842
  132OSM   C17F14242   3.756   1.949   4.261  0.2805 -0.6657  0.8579
  132OSM   H17F14243   3.719   2.022   4.186  1.7792  0.2517  0.9688
  132OSM   H17G14244   3.801   2.000   4.349 -0.2488 -0.0990  0.8084
  132OSM   C18F14245   3.628   1.864   4.303 -0.7577  0.1764  0.3065
  132OSM   H18F14246   3.647   1.805   4.395 -0.7634 -0.6779 -0.2301
  132OSM   H18G14247   3.612   1.798   4.215  2.4855  1.4813 -1.4526
  132OSM   H18H14248   3.542   1.933   4.319 -0.2196  1.3732 -1.6076
  133OSM      N14249   1.732   4.122   2.668 -0.1866 -0.6110  0.4069
  133OSM    C1514250   1.723   4.271   2.690  0.6567 -0.0094  0.7876
  133OSM   H15A14251   1.797   4.308   2.759 -0.0202  0.8024  1.0991
  133OSM   H15B14252   1.624   4.297   2.726  1.4117  3.4843  0.6444
  133OSM   H15C14253   1.729   4.314   2.592 -1.3529 -1.6429 -0.1230
  133OSM    C1414254   1.633   4.077   2.568  0.3204 -0.3161 -0.4278
  133OSM   H14A14255   1.611   4.138   2.482  0.5737  1.1216  0.4893
  133OSM   H14B14256   1.534   4.080   2.612 -0.5693  2.5116 -2.3851
  133OSM   H14C14257   1.662   3.984   2.521 -0.5178  0.3666 -2.3771
  133OSM    C1314258   1.874   4.103   2.609  0.5360  0.4367 -0.7710
  133OSM   H13A14259   1.883   3.996   2.597 -0.5771  0.0382  1.3287
  133OSM   H13B14260   1.951   4.141   2.673  0.6679  1.7188 -1.6621
  133OSM   H13C14261   1.900   4.160   2.521  2.0957  1.9729  0.6321
  133OSM    C1214262   1.721   4.053   2.806  0.6124  0.4019  0.1945
  133OSM   H12A14263   1.816   4.057   2.857  0.2765 -0.5769  0.9231
  133OSM   H12B14264   1.706   3.948   2.785 -1.1690  0.6800 -0.1170
  133OSM    C1114265   1.607   4.105   2.904  0.0165 -0.1833  0.4959
  133OSM   H11A14266   1.640   4.209   2.926 -0.9464 -0.0907  1.6171
  133OSM   H11B14267   1.632   4.060   3.003  2.9777  0.3818  0.1255
  133OSM      P14268   1.368   4.000   2.894 -0.2076  0.3166 -0.1205
  133OSM    O1314269   1.242   4.033   2.823  0.5773  0.4512 -0.5554
  133OSM    O1414270   1.420   3.862   2.883  0.2184  0.3637 -0.3004
  133OSM    O1114271   1.360   4.041   3.048  0.4843 -0.1896 -0.1968
  133OSM    O1214272   1.475   4.102   2.844 -0.1330  0.3590 -0.3253
  133OSM    C1S14273   1.288   4.148   3.104 -0.1708 -0.6581 -0.5458
  133OSM    H1S14274   1.182   4.133   3.074  0.2699 -3.1396 -1.0465
  133OSM    H1T14275   1.329   4.245   3.068 -0.2761 -0.9517 -1.4783
  133OSM     NF14276   1.228   4.252   3.312 -0.1095  0.1690 -0.6662
  133OSM    HNF14277   1.279   4.322   3.360  1.7031  0.3039 -2.6546
  133OSM    C2S14278   1.297   4.141   3.262  0.3747 -0.1067 -0.1605
  133OSM    H2S14279   1.233   4.059   3.301 -0.0378  0.6947  0.8937
  133OSM    C3S14280   1.442   4.123   3.310  0.0358  0.0944  0.1583
  133OSM    H3S14281   1.503   4.190   3.245  1.6263 -0.5715  0.9178
  133OSM     O314282   1.485   3.990   3.289 -0.1770 -0.4114  0.4496
  133OSM    HO314283   1.430   3.973   3.212 -0.0939  1.9161 -0.2187
  133OSM    C4S14284   1.461   4.170   3.452  0.2966 -0.0018  0.2373
  133OSM    H4S14285   1.497   4.274   3.456 -1.3225  0.6000  0.1360
  133OSM    C5S14286   1.421   4.112   3.563  0.4851  0.3843 -0.2814
  133OSM    H5S14287   1.379   4.011   3.556 -1.4728  1.0900  0.3954
  133OSM    C6S14288   1.430   4.163   3.702 -0.1044 -0.0936  0.3769
  133OSM    H6S14289   1.330   4.182   3.747 -1.1441  1.1526 -2.2460
  133OSM    H6T14290   1.490   4.256   3.695  0.1657 -0.3697 -2.6711
  133OSM    C7S14291   1.517   4.073   3.797 -0.1319 -0.0570 -0.6874
  133OSM    H7S14292   1.618   4.053   3.757 -0.5020  0.9577 -2.2211
  133OSM    H7T14293   1.462   3.977   3.801 -1.3913  0.6643  0.0389
  133OSM    C8S14294   1.539   4.135   3.934 -0.0562  0.3001 -0.7189
  133OSM    H8S14295   1.442   4.161   3.980 -0.1319 -2.7458  1.0706
  133OSM    H8T14296   1.604   4.226   3.926  0.2587  0.1011 -0.4456
  133OSM    C9S14297   1.597   4.032   4.034  0.1532  0.6759  0.6539
  133OSM    H9S14298   1.704   4.003   4.028  0.1351  0.3633  1.6256
  133OSM    H9T14299   1.533   3.942   4.023  0.5302  0.3684  0.9420
  133OSM   C10S14300   1.566   4.069   4.182  0.1576 -0.4711  0.7627
  133OSM   H10S14301   1.464   4.113   4.187 -0.1788 -0.7313 -2.0627
  133OSM   H10T14302   1.620   4.164   4.202  1.7463 -1.3284  0.7295
  133OSM   C11S14303   1.617   3.972   4.290 -0.8170 -0.2610 -0.3607
  133OSM   H11S14304   1.726   3.952   4.282 -1.0872 -2.4063  0.4673
  133OSM   H11T14305   1.566   3.874   4.273 -1.8447  0.1171  0.4163
  133OSM   C12S14306   1.582   4.021   4.431  0.6038  0.3173 -0.3537
  133OSM   H12S14307   1.476   4.054   4.424 -0.0024 -1.4339 -0.0443
  133OSM   H12T14308   1.643   4.113   4.445 -1.8617  2.0983 -0.6495
  133OSM   C13S14309   1.606   3.920   4.545 -0.1357  0.0804  0.3114
  133OSM   H13S14310   1.526   3.846   4.527 -0.8029  0.3594  1.9409
  133OSM   H13T14311   1.580   3.970   4.641  0.1271 -1.5210  1.2502
  133OSM   C14S14312   1.746   3.854   4.565 -0.1952 -0.4621  0.1030
  133OSM   H14S14313   1.820   3.927   4.605 -0.7454  0.4079 -0.4227
  133OSM   H14T14314   1.778   3.826   4.462  0.8810  2.6725 -0.5281
  133OSM   C15S14315   1.737   3.716   4.635 -0.1764  0.3514  0.3094
  133OSM   H15S14316   1.841   3.679   4.645  0.3007  1.7025  0.6288
  133OSM   H15T14317   1.676   3.643   4.578  2.5873  0.3703 -3.0023
  133OSM   C16S14318   1.677   3.703   4.778  0.0627  0.2342 -0.7480
  133OSM   H16S14319   1.570   3.731   4.773  0.0031 -0.1190 -1.8432
  133OSM   H16T14320   1.746   3.767   4.836  1.5457 -1.2837 -0.7425
  133OSM   C17S14321   1.683   3.565   4.831  0.5644  0.3268  0.4619
  133OSM   H17S14322   1.784   3.555   4.875  0.1794 -1.6088  0.9927
  133OSM   H17T14323   1.669   3.493   4.748  0.2146  1.7032 -0.7260
  133OSM   C18S14324   1.574   3.538   4.937  1.0021  0.5822  0.6408
  133OSM   H18S14325   1.587   3.433   4.971 -0.1242  0.7951  1.7719
  133OSM   H18T14326   1.475   3.561   4.894  1.6395  3.6082  0.5333
  133OSM   H18U14327   1.576   3.606   5.025 -2.2326  1.1053  0.4052
  133OSM    C1F14328   1.091   4.253   3.304 -0.6980  0.1105 -0.1702
  133OSM     OF14329   1.025   4.163   3.254  0.6323  0.1025 -0.0656
  133OSM    C2F14330   1.021   4.371   3.371  0.3436  0.2326 -0.2497
  133OSM    H2F14331   0.951   4.419   3.299  1.7138  1.7608 -0.6276
  133OSM    H2G14332   1.092   4.456   3.385  1.3450 -0.5293 -0.5555
  133OSM    C3F14333   0.940   4.329   3.497 -0.1391  0.1880  0.0759
  133OSM    H3F14334   0.887   4.235   3.468  1.7093 -1.1026  0.6595
  133OSM    H3G14335   0.868   4.412   3.514  1.2819  2.3631 -3.5575
  133OSM    C4F14336   1.021   4.301   3.625 -0.5350  0.6562  0.0118
  133OSM    H4F14337   1.079   4.395   3.643 -0.5003  1.0214 -1.8309
  133OSM    H4G14338   1.088   4.212   3.625 -1.8884 -0.4201  2.0560
  133OSM    C5F14339   0.917   4.285   3.735 -0.5029  0.5632  0.3387
  133OSM    H5F14340   0.876   4.182   3.734  0.9051 -0.0347  0.9185
  133OSM    H5G14341   0.827   4.350   3.742 -1.9664 -1.3493  0.1489
  133OSM    C6F14342   0.980   4.281   3.870  0.3493  0.0991  0.2598
  133OSM    H6F14343   1.049   4.367   3.882 -0.5940  1.0018 -0.5983
  133OSM    H6G14344   1.043   4.190   3.886  0.3289  0.2252  1.0579
  133OSM    C7F14345   0.868   4.281   3.973 -0.2220 -0.0035  0.0847
  133OSM    H7F14346   0.789   4.219   3.926 -0.3237  1.6555 -2.1111
  133OSM    H7G14347   0.838   4.388   3.970  0.6665  0.2433 -1.8415
  133OSM    C8F14348   0.914   4.230   4.113  0.3927 -0.1605 -0.6555
  133OSM    H8F14349   0.957   4.129   4.096  0.6867 -0.0473 -0.5949
  133OSM    H8G14350   0.829   4.214   4.182  2.0728  2.1279  2.1676
  133OSM    C9F14351   1.022   4.312   4.172 -0.4432  0.0927 -0.2783
  133OSM    H9F14352   1.122   4.267   4.169 -0.7031 -0.4559 -1.7253
  133OSM   C10F14353   1.012   4.429   4.233 -0.1758  0.3510 -0.3643
  133OSM   H10F14354   1.102   4.475   4.276 -0.1942  1.4134 -1.4136
  133OSM   C11F14355   0.889   4.515   4.249 -0.3996 -0.2125 -0.6538
  133OSM   H11F14356   0.862   4.522   4.357  1.6429  2.5982 -0.1901
  133OSM   H11G14357   0.809   4.484   4.180  0.5971 -2.5582 -0.8268
  133OSM   C12F14358   0.927   4.664   4.213 -0.2639  0.2698  0.1812
  133OSM   H12F14359   0.977   4.673   4.114 -0.8991 -1.9185 -0.3761
  133OSM   H12G14360   1.002   4.686   4.292  1.4382 -0.1889 -1.2234
  133OSM   C13F14361   0.812   4.750   4.225  0.2933 -0.0365  0.5010
  133OSM   H13F14362   0.771   4.749   4.328 -0.0727  0.5710  0.3639
  133OSM   H13G14363   0.733   4.716   4.155  2.0855 -1.2962 -1.0166
  133OSM   C14F14364   0.856   4.894   4.184  0.1593 -0.0473 -0.3440
  133OSM   H14F14365   0.883   4.896   4.077 -1.8430 -2.9429 -1.0378
  133OSM   H14G14366   0.947   4.939   4.230 -0.4369  0.5969  0.2316
  133OSM   C15F14367   0.747   5.007   4.210  0.3176  0.1454  0.3895
  133OSM   H15F14368   0.717   5.008   4.318 -1.9801  0.1749 -0.1960
  133OSM   H15G14369   0.647   4.979   4.170  1.3493 -0.6932 -1.6848
  133OSM   C16F14370   0.804   5.147   4.175 -0.0744 -0.4902  0.7477
  133OSM   H16F14371   0.841   5.140   4.071 -0.2879  0.5977  0.5826
  133OSM   H16G14372   0.896   5.151   4.237 -0.7482  1.5427  1.6981
  133OSM   C17F14373   0.698   5.250   4.196 -0.2754 -0.2338 -0.1305
  133OSM   H17F14374   0.615   5.241   4.123 -0.1645 -2.0041 -0.0891
  133OSM   H17G14375   0.748   5.345   4.167 -2.3735  0.4192 -1.9071
  133OSM   C18F14376   0.634   5.262   4.334 -0.9253 -0.8641 -0.4047
  133OSM   H18F14377   0.580   5.358   4.345 -0.8988 -0.8069 -0.7450
  133OSM   H18G14378   0.710   5.244   4.413  0.5777 -2.0079 -2.0288
  133OSM   H18H14379   0.566   5.176   4.352 -2.0762  0.2442  0.6673
  134OSM      N14380   5.178   5.186   2.315  0.2420 -0.3681  0.2621
  134OSM    C1514381   5.120   5.150   2.178 -0.2146  0.3070 -0.1319
  134OSM   H15A14382   5.196   5.172   2.105  1.9612 -0.8556  1.6849
  134OSM   H15B14383   5.036   5.215   2.156 -0.8969 -1.1701 -2.2737
  134OSM   H15C14384   5.098   5.045   2.179  0.1700  0.2052 -1.1103
  134OSM    C1414385   5.307   5.123   2.343 -0.4764 -0.1430 -0.8926
  134OSM   H14A14386   5.327   5.127   2.449 -0.0254  0.9143 -1.0028
  134OSM   H14B14387   5.389   5.157   2.282 -1.3568  1.7241 -1.1192
  134OSM   H14C14388   5.302   5.017   2.327 -0.1513 -0.0783 -1.4501
  134OSM    C1314389   5.199   5.331   2.331 -0.1196  0.0613 -0.0004
  134OSM   H13A14390   5.253   5.367   2.245 -2.5054  0.0770 -1.5877
  134OSM   H13B14391   5.267   5.354   2.412  1.7659  3.4159 -2.3009
  134OSM   H13C14392   5.109   5.391   2.331  0.2368  0.6126  0.6996
  134OSM    C1214393   5.079   5.143   2.424 -0.8051 -0.5158 -0.1567
  134OSM   H12A14394   4.986   5.198   2.417 -1.5555 -1.7298  0.0642
  134OSM   H12B14395   5.120   5.168   2.521  3.0993 -1.0374 -1.5294
  134OSM    C1114396   5.024   4.995   2.425  0.1070 -0.0753  1.0160
  134OSM   H11A14397   4.965   4.984   2.519  1.2607 -4.5030  1.4015
  134OSM   H11B14398   5.116   4.934   2.435  1.0068  0.9598 -0.5284
  134OSM      P14399   4.810   4.953   2.274  0.3755  0.2743  0.0604
  134OSM    O1314400   4.762   5.091   2.262 -0.2903 -0.5348 -0.0206
  134OSM    O1414401   4.766   4.851   2.170 -0.2510 -0.1631  0.6206
  134OSM    O1114402   4.763   4.901   2.415  0.4459 -0.0176  0.5217
  134OSM    O1214403   4.964   4.943   2.301 -0.2154 -0.3678 -0.5778
  134OSM    C1S14404   4.773   4.765   2.450  0.1669  0.4703  0.1216
  134OSM    H1S14405   4.876   4.731   2.476 -0.2549 -0.8309  0.1929
  134OSM    H1T14406   4.738   4.708   2.361  1.5978  0.3812 -0.4079
  134OSM     NF14407   4.689   4.605   2.602 -0.0323 -0.6567 -0.2458
  134OSM    HNF14408   4.644   4.533   2.550 -1.6983  0.1880 -0.0460
  134OSM    C2S14409   4.674   4.745   2.570  0.3662 -0.9984 -0.5160
  134OSM    H2S14410   4.711   4.806   2.656 -0.0546 -1.6119  0.1173
  134OSM    C3S14411   4.534   4.793   2.524  0.0680  0.4662  0.0195
  134OSM    H3S14412   4.510   4.746   2.426  1.8754 -0.9359  0.2027
  134OSM     O314413   4.520   4.937   2.501  0.0353  0.2099  0.0412
  134OSM    HO314414   4.611   4.964   2.489 -0.4667  2.1797  0.3728
  134OSM    C4S14415   4.439   4.744   2.627  0.1700  0.1363  0.8530
  134OSM    H4S14416   4.422   4.637   2.609  0.9819  0.0357  0.6678
  134OSM    C5S14417   4.389   4.804   2.735 -0.1802 -0.1369 -0.0853
  134OSM    H5S14418   4.408   4.907   2.766 -2.4849  0.9672 -2.0201
  134OSM    C6S14419   4.291   4.738   2.823  0.0981 -0.6008 -0.0666
  134OSM    H6S14420   4.243   4.645   2.784 -1.1153  0.4211 -1.0990
  134OSM    H6T14421   4.207   4.805   2.853 -0.5387 -1.2159 -0.4440
  134OSM    C7S14422   4.359   4.723   2.957 -0.2291 -0.2724  0.6309
  134OSM    H7S14423   4.390   4.826   2.986 -2.1556  0.6014 -0.1994
  134OSM    H7T14424   4.450   4.661   2.944 -0.9526 -0.9604 -1.7411
  134OSM    C8S14425   4.267   4.674   3.068 -0.2100  0.2242 -0.0490
  134OSM    H8S14426   4.235   4.569   3.053 -3.0453  1.1054 -0.8003
  134OSM    H8T14427   4.179   4.742   3.071  1.9443  3.1608  1.6159
  134OSM    C9S14428   4.329   4.683   3.211  0.4128  0.3274 -0.2791
  134OSM    H9S14429   4.376   4.783   3.222 -1.5018  1.1062  1.4004
  134OSM    H9T14430   4.411   4.609   3.201  0.2835  0.1068  0.2657
  134OSM   C10S14431   4.235   4.645   3.327 -0.0928  0.1666 -0.1259
  134OSM   H10S14432   4.176   4.554   3.304 -1.2611  1.6410 -3.7954
  134OSM   H10T14433   4.168   4.733   3.333  0.3494  0.4885  0.1624
  134OSM   C11S14434   4.317   4.614   3.447  0.4408  0.1678 -1.0737
  134OSM   H11S14435   4.375   4.702   3.482 -0.6035  1.2187 -1.8799
  134OSM   H11T14436   4.372   4.519   3.429 -4.5677 -3.0917 -1.1653
  134OSM   C12S14437   4.217   4.597   3.567 -0.5423 -0.4311  0.0368
  134OSM   H12S14438   4.130   4.536   3.535 -0.8760  0.0281  0.0606
  134OSM   H12T14439   4.181   4.700   3.590  1.7073  0.7030 -1.1077
  134OSM   C13S14440   4.286   4.545   3.700 -0.5672 -0.5184 -0.0708
  134OSM   H13S14441   4.322   4.442   3.681  1.6432  0.4958 -1.8918
  134OSM   H13T14442   4.204   4.532   3.774 -0.0406  2.0028  1.0476
  134OSM   C14S14443   4.408   4.632   3.747  0.4968  0.3673  0.0755
  134OSM   H14S14444   4.402   4.736   3.708  0.6502  0.2209 -0.3391
  134OSM   H14T14445   4.498   4.583   3.707 -0.0470 -0.7895  0.2421
  134OSM   C15S14446   4.415   4.636   3.894  0.1259  0.0965  0.4026
  134OSM   H15S14447   4.330   4.694   3.936 -1.6699 -0.3444 -2.4000
  134OSM   H15T14448   4.504   4.695   3.926 -0.4585 -0.0635  2.4670
  134OSM   C16S14449   4.415   4.498   3.961  0.1228  0.7628 -0.4121
  134OSM   H16S14450   4.487   4.430   3.910 -0.4190  0.1141 -0.3329
  134OSM   H16T14451   4.316   4.448   3.955  0.0450  0.8175  0.3156
  134OSM   C17S14452   4.437   4.506   4.113  0.0834  0.0285  0.3984
  134OSM   H17S14453   4.351   4.566   4.151 -1.6188 -1.0084 -1.6073
  134OSM   H17T14454   4.527   4.564   4.142  0.0690 -0.5475  1.6626
  134OSM   C18S14455   4.451   4.369   4.191  0.0839  0.0464 -0.4986
  134OSM   H18S14456   4.356   4.311   4.194  0.4945 -0.5905  1.4353
  134OSM   H18T14457   4.483   4.386   4.296  0.9942 -1.7063 -0.4512
  134OSM   H18U14458   4.530   4.307   4.143  0.5199 -1.4250  1.9275
  134OSM    C1F14459   4.787   4.564   2.674  0.7287  0.4731 -0.0392
  134OSM     OF14460   4.866   4.647   2.717 -0.6433 -0.2366  0.2230
  134OSM    C2F14461   4.784   4.420   2.717  0.6268  0.2237 -0.1368
  134OSM    H2F14462   4.882   4.378   2.685  1.0385 -0.0167  1.3581
  134OSM    H2G14463   4.700   4.370   2.663 -0.2016  0.6671  0.7052
  134OSM    C3F14464   4.789   4.388   2.873 -0.0680 -0.5672  0.0648
  134OSM    H3F14465   4.888   4.430   2.901 -0.4594 -1.4173  3.1272
  134OSM    H3G14466   4.790   4.280   2.898  1.3090 -0.6543 -0.2852
  134OSM    C4F14467   4.668   4.448   2.944 -0.1326  0.0847 -0.1585
  134OSM    H4F14468   4.629   4.546   2.909 -0.2219  0.5477  1.1981
  134OSM    H4G14469   4.677   4.447   3.055 -0.7838 -0.1817 -0.0978
  134OSM    C5F14470   4.530   4.365   2.911 -1.3163 -0.3255  0.1883
  134OSM    H5F14471   4.531   4.344   2.802 -0.3293  1.9617 -0.3234
  134OSM    H5G14472   4.440   4.425   2.937 -0.1575  1.6938 -0.2226
  134OSM    C6F14473   4.517   4.231   2.993  0.1533  0.4262  0.6431
  134OSM    H6F14474   4.605   4.165   2.979 -0.0777  0.1061  0.6892
  134OSM    H6G14475   4.428   4.176   2.957  1.0381 -1.3600  1.0554
  134OSM    C7F14476   4.504   4.257   3.147  0.7317 -0.9117  0.3243
  134OSM    H7F14477   4.420   4.322   3.179  2.0153  0.8201  0.3387
  134OSM    H7G14478   4.607   4.288   3.175  0.9544 -0.1887 -1.1846
  134OSM    C8F14479   4.515   4.125   3.215  0.0392  0.3006 -0.4536
  134OSM    H8F14480   4.597   4.077   3.157  1.6074  0.1574  1.7691
  134OSM    H8G14481   4.425   4.060   3.216  0.1590  0.1328  0.5197
  134OSM    C9F14482   4.541   4.135   3.366 -0.4794  0.9291 -0.1123
  134OSM    H9F14483   4.643   4.161   3.396 -0.2438  0.1490 -0.2249
  134OSM   C10F14484   4.460   4.116   3.470 -0.3273  0.9274 -0.3462
  134OSM   H10F14485   4.506   4.140   3.566  0.9705  0.1718 -0.7486
  134OSM   C11F14486   4.316   4.079   3.473  0.4799 -0.6369  0.1795
  134OSM   H11F14487   4.296   3.974   3.503 -0.7859 -1.5630 -3.3917
  134OSM   H11G14488   4.270   4.090   3.372 -0.5000  1.6963  0.7910
  134OSM   C12F14489   4.240   4.183   3.560 -0.3099  0.0887 -0.6308
  134OSM   H12F14490   4.253   4.281   3.511 -2.1543  0.4991 -0.3548
  134OSM   H12G14491   4.280   4.197   3.663 -3.6200 -1.0650  0.9365
  134OSM   C13F14492   4.094   4.147   3.572  0.4835 -0.4305 -0.3372
  134OSM   H13F14493   4.089   4.044   3.612  0.4751 -0.4757 -0.4547
  134OSM   H13G14494   4.057   4.129   3.469 -0.7460 -3.4503  0.5189
  134OSM   C14F14495   4.009   4.223   3.675 -0.3787 -0.6841 -0.0101
  134OSM   H14F14496   3.907   4.237   3.633 -0.7631 -1.1707  0.7228
  134OSM   H14G14497   4.056   4.323   3.686 -1.7545  0.0668 -0.6521
  134OSM   C15F14498   3.982   4.141   3.809 -0.3808  0.6971 -0.0648
  134OSM   H15F14499   3.979   4.034   3.782  0.3940  0.2948  1.3541
  134OSM   H15G14500   3.883   4.182   3.839 -1.3976 -1.4146 -0.4010
  134OSM   C16F14501   4.090   4.159   3.923 -0.0662  0.2312 -0.2771
  134OSM   H16F14502   4.115   4.266   3.941  0.4405  0.0415  0.1590
  134OSM   H16G14503   4.179   4.106   3.883 -1.6271 -1.5492 -1.5986
  134OSM   C17F14504   4.043   4.095   4.059 -0.5617  0.6177 -0.2608
  134OSM   H17F14505   4.131   4.062   4.119 -1.8646 -1.8396  0.4069
  134OSM   H17G14506   3.987   4.000   4.046  0.6813 -0.2057  0.1958
  134OSM   C18F14507   3.954   4.177   4.152 -0.2471 -0.7207 -0.2736
  134OSM   H18F14508   3.878   4.232   4.093  0.1121  1.6632  1.3651
  134OSM   H18G14509   4.015   4.254   4.203  0.7308 -0.4214 -1.8287
  134OSM   H18H14510   3.908   4.122   4.238 -0.0954  3.6721  2.9606
  135OSM      N14511   5.010   1.442   2.350  0.6240 -0.3303  0.1699
  135OSM    C1514512   4.883   1.518   2.364 -0.4415  0.5290 -0.5148
  135OSM   H15A14513   4.891   1.605   2.428  2.7698  0.5684 -0.8115
  135OSM   H15B14514   4.805   1.452   2.398 -0.4891  0.4391 -0.7983
  135OSM   H15C14515   4.840   1.559   2.274 -0.1097  1.7925 -0.1132
  135OSM    C1414516   5.058   1.411   2.487 -0.1141 -0.0136 -0.0702
  135OSM   H14A14517   5.152   1.463   2.502  0.4280 -0.6585 -1.1319
  135OSM   H14B14518   5.084   1.307   2.483  1.5466  0.3537  0.1150
  135OSM   H14C14519   4.982   1.422   2.562  0.9003  0.6671  0.9027
  135OSM    C1314520   4.974   1.307   2.278 -0.2571  0.5959 -0.4761
  135OSM   H13A14521   4.899   1.313   2.201 -1.4472 -1.6503  0.4077
  135OSM   H13B14522   4.933   1.245   2.356  0.9640  1.3101  0.7858
  135OSM   H13C14523   5.060   1.271   2.224 -0.9059  0.5479 -1.5026
  135OSM    C1214524   5.113   1.524   2.273  0.1966 -0.0850 -0.5270
  135OSM   H12A14525   5.070   1.573   2.187  3.0791  1.7037 -1.0957
  135OSM   H12B14526   5.186   1.452   2.240 -0.0008 -0.8485  0.6737
  135OSM    C1114527   5.196   1.632   2.345  0.0375 -0.3193  0.4016
  135OSM   H11A14528   5.122   1.689   2.406 -1.2767 -1.3715 -0.1665
  135OSM   H11B14529   5.243   1.705   2.275  2.0262 -0.1842  1.8066
  135OSM      P14530   5.396   1.677   2.517 -0.1471  0.2856 -0.1270
  135OSM    O1314531   5.429   1.618   2.648 -0.4866  0.2556  0.1647
  135OSM    O1414532   5.511   1.706   2.423 -0.0313 -0.0032  0.1832
  135OSM    O1114533   5.324   1.817   2.553  0.3988 -0.3130  0.5271
  135OSM    O1214534   5.290   1.590   2.435 -0.2568 -0.0937 -0.0179
  135OSM    C1S14535   5.211   1.850   2.637 -0.2373  0.3891  0.3718
  135OSM    H1S14536   5.189   1.762   2.702 -0.0505 -0.5722 -0.8435
  135OSM    H1T14537   5.123   1.878   2.574  0.8817 -0.2462 -1.5523
  135OSM     NF14538   5.166   1.997   2.837 -0.1740  1.2697 -0.2223
  135OSM    HNF14539   5.105   2.076   2.843 -2.5190 -0.2183 -2.4585
  135OSM    C2S14540   5.250   1.974   2.724  0.1408 -0.4665  0.9634
  135OSM    H2S14541   5.355   1.964   2.759  0.6385 -1.7981 -0.7925
  135OSM    C3S14542   5.255   2.096   2.619  0.1570  0.4449 -0.2326
  135OSM    H3S14543   5.151   2.104   2.581  0.0464  2.0840  0.3414
  135OSM     O314544   5.340   2.078   2.501 -0.6130 -0.3646 -0.3877
  135OSM    HO314545   5.393   1.999   2.515 -0.2002 -0.5946 -2.9254
  135OSM    C4S14546   5.285   2.228   2.684 -0.8780 -0.8282  0.5221
  135OSM    H4S14547   5.195   2.291   2.687  1.3678  2.5990  2.1652
  135OSM    C5S14548   5.401   2.276   2.725 -0.2921  0.7252  0.5961
  135OSM    H5S14549   5.494   2.222   2.701 -0.9650  0.3524 -1.3728
  135OSM    C6S14550   5.431   2.405   2.788  0.3179 -0.8406 -0.5414
  135OSM    H6S14551   5.467   2.399   2.893  0.2256  1.7964 -0.3138
  135OSM    H6T14552   5.334   2.455   2.807  0.6776 -1.0538  2.4655
  135OSM    C7S14553   5.535   2.499   2.726 -0.6811 -0.8131  0.6493
  135OSM    H7S14554   5.519   2.494   2.617  1.3403 -0.1539  0.2617
  135OSM    H7T14555   5.638   2.458   2.739 -0.3515 -0.1003  0.3465
  135OSM    C8S14556   5.551   2.644   2.777  0.2660 -0.5803 -0.2124
  135OSM    H8S14557   5.482   2.708   2.718  0.0858  1.1752  1.7823
  135OSM    H8T14558   5.655   2.671   2.752  0.3353 -0.5087  0.1463
  135OSM    C9S14559   5.533   2.670   2.930 -0.2706  0.4128  0.1478
  135OSM    H9S14560   5.432   2.631   2.957  0.0179  0.1074  0.8118
  135OSM    H9T14561   5.539   2.778   2.956 -1.0615  0.1320  1.6050
  135OSM   C10S14562   5.646   2.611   3.017 -0.3846 -0.0098  0.1310
  135OSM   H10S14563   5.739   2.656   2.975 -0.4171 -0.9960 -1.0680
  135OSM   H10T14564   5.644   2.500   3.010 -0.4427  0.0968 -3.2828
  135OSM   C11S14565   5.635   2.664   3.165  0.4169 -0.2965 -0.0593
  135OSM   H11S14566   5.603   2.771   3.161  0.9090 -0.1744 -1.6904
  135OSM   H11T14567   5.731   2.662   3.221  0.4833  1.8579  0.0101
  135OSM   C12S14568   5.545   2.569   3.245 -0.8648  0.0923 -0.0947
  135OSM   H12S14569   5.588   2.467   3.243  1.3238  0.8774  2.2451
  135OSM   H12T14570   5.443   2.576   3.202 -1.0424 -0.8807  0.1511
  135OSM   C13S14571   5.540   2.617   3.397  0.4315  0.4086  1.0504
  135OSM   H13S14572   5.476   2.707   3.405  0.2789  0.2354  1.8999
  135OSM   H13T14573   5.641   2.645   3.434  0.8470 -0.8371  0.9135
  135OSM   C14S14574   5.485   2.514   3.495  0.3348 -0.0553 -0.1442
  135OSM   H14S14575   5.542   2.419   3.498 -1.2388 -1.0854 -1.1859
  135OSM   H14T14576   5.381   2.495   3.460  1.2692 -1.6645 -2.2698
  135OSM   C15S14577   5.480   2.559   3.642 -0.1881  0.2108 -0.1152
  135OSM   H15S14578   5.420   2.650   3.661  1.0548  0.5868  2.3934
  135OSM   H15T14579   5.576   2.586   3.691  0.5593 -0.2701 -1.2607
  135OSM   C16S14580   5.425   2.450   3.738 -0.0827 -0.2158 -0.2954
  135OSM   H16S14581   5.498   2.367   3.743  1.0891  0.4049 -4.1078
  135OSM   H16T14582   5.327   2.417   3.700  1.0742 -2.5006 -1.4784
  135OSM   C17S14583   5.404   2.512   3.876 -0.3274  0.1625 -0.7168
  135OSM   H17S14584   5.357   2.428   3.931 -1.2182 -0.0830 -1.8219
  135OSM   H17T14585   5.337   2.600   3.889 -0.3866 -0.2305  2.8327
  135OSM   C18S14586   5.528   2.560   3.942  0.7146 -0.2249  0.2082
  135OSM   H18S14587   5.599   2.474   3.951 -1.6327 -2.0937  2.4185
  135OSM   H18T14588   5.516   2.593   4.048  0.2904  1.0440 -0.2156
  135OSM   H18U14589   5.566   2.648   3.887  0.3568  0.7959  1.5280
  135OSM    C1F14590   5.157   1.901   2.929  0.9967 -0.5706 -0.1823
  135OSM     OF14591   5.241   1.814   2.932  0.1642  0.1043  0.2171
  135OSM    C2F14592   5.032   1.910   3.007  0.4939  0.1779  0.1536
  135OSM    H2F14593   4.946   1.859   2.959  0.5161  0.6850 -0.4270
  135OSM    H2G14594   5.010   2.017   3.024  0.2071  0.1532 -0.0611
  135OSM    C3F14595   5.044   1.849   3.157 -0.4036 -0.2968  0.4669
  135OSM    H3F14596   5.136   1.888   3.205  0.5299 -1.9194  0.0466
  135OSM    H3G14597   5.045   1.738   3.155  1.0699 -0.4240 -4.3957
  135OSM    C4F14598   4.936   1.897   3.253 -0.2796 -0.2359 -0.7334
  135OSM    H4F14599   4.841   1.854   3.214 -0.3208 -0.8697  0.0213
  135OSM    H4G14600   4.938   2.008   3.249  3.3517 -0.1438  0.6284
  135OSM    C5F14601   4.957   1.855   3.403  0.1901  0.0346 -0.4165
  135OSM    H5F14602   5.057   1.888   3.438  0.9153 -0.4727 -1.8965
  135OSM    H5G14603   4.960   1.746   3.424  1.0808  0.0414 -0.4657
  135OSM    C6F14604   4.863   1.922   3.502  0.0649 -0.0684  0.0908
  135OSM    H6F14605   4.756   1.900   3.486 -0.2667  1.1996  0.4763
  135OSM    H6G14606   4.874   2.032   3.491 -1.7077  0.2138  0.8336
  135OSM    C7F14607   4.898   1.879   3.643  0.4746  0.5918 -0.0715
  135OSM    H7F14608   5.006   1.897   3.662  0.5379 -1.4990  2.0789
  135OSM    H7G14609   4.894   1.768   3.638 -1.0815  0.6206 -0.0522
  135OSM    C8F14610   4.804   1.936   3.749 -0.1003 -0.4476  0.4190
  135OSM    H8F14611   4.704   1.892   3.730  0.1285 -1.3556  1.2026
  135OSM    H8G14612   4.803   2.045   3.727 -0.4501 -0.4814  0.2617
  135OSM    C9F14613   4.867   1.898   3.880 -0.7278  0.7433 -1.1011
  135OSM    H9F14614   4.976   1.910   3.887 -0.5504 -0.9742 -0.4258
  135OSM   C10F14615   4.811   1.844   3.988 -0.3866 -0.0823 -0.7124
  135OSM   H10F14616   4.881   1.814   4.068  0.1076 -2.4341 -1.9417
  135OSM   C11F14617   4.665   1.801   4.018 -0.5043 -0.3347 -0.2375
  135OSM   H11F14618   4.644   1.694   3.993 -1.3502 -0.0001 -1.0112
  135OSM   H11G14619   4.598   1.856   3.948 -1.2512 -0.1107  0.6378
  135OSM   C12F14620   4.613   1.820   4.166 -0.0734  0.5899  0.2160
  135OSM   H12F14621   4.573   1.922   4.181  1.2273  0.9198  1.6245
  135OSM   H12G14622   4.699   1.793   4.231 -1.6746 -0.1255  2.1417
  135OSM   C13F14623   4.494   1.723   4.208  0.4098  0.5748  0.2694
  135OSM   H13F14624   4.523   1.616   4.212 -0.0973  0.3430 -1.6108
  135OSM   H13G14625   4.421   1.739   4.126 -0.6282 -1.3150  0.7821
  135OSM   C14F14626   4.437   1.765   4.344  0.6060  0.5648 -0.0182
  135OSM   H14F14627   4.434   1.876   4.351  1.0230  0.6388 -0.8755
  135OSM   H14G14628   4.514   1.740   4.421  0.4802  0.3005  0.0229
  135OSM   C15F14629   4.305   1.696   4.381 -0.5191  0.0418 -0.1978
  135OSM   H15F14630   4.334   1.591   4.400 -0.9717  0.0126  0.3765
  135OSM   H15G14631   4.233   1.685   4.298  0.3990  0.7484 -1.1217
  135OSM   C16F14632   4.245   1.768   4.504 -0.3198 -0.5620  0.5149
  135OSM   H16F14633   4.330   1.805   4.565  1.0360 -0.6064 -1.2738
  135OSM   H16G14634   4.183   1.696   4.562  1.1746 -2.5727 -0.2536
  135OSM   C17F14635   4.151   1.885   4.470 -0.4043 -0.4482  0.3036
  135OSM   H17F14636   4.051   1.843   4.448 -0.6698 -0.3501  1.2742
  135OSM   H17G14637   4.185   1.950   4.386  0.1460 -1.7545 -0.5234
  135OSM   C18F14638   4.127   1.976   4.597  0.0462  0.0670 -0.5924
  135OSM   H18F14639   4.045   1.940   4.663  0.3357 -1.1537 -0.8781
  135OSM   H18G14640   4.089   2.066   4.545 -0.7807  0.3418  0.4551
  135OSM   H18H14641   4.217   1.988   4.661 -0.2074 -1.9245  0.2266
  136OSM      N14642   2.979   0.090   2.496  0.6800 -0.0760 -0.1960
  136OSM    C1514643   3.090   0.076   2.392  0.3677 -0.6419  0.2881
  136OSM   H15A14644   3.040   0.053   2.299 -3.3993 -0.0424  1.9613
  136OSM   H15B14645   3.158  -0.005   2.414  0.3601 -1.0223 -0.9940
  136OSM   H15C14646   3.145   0.166   2.372  1.6544 -1.5333 -0.3127
  136OSM    C1414647   2.879   0.187   2.461  0.6950  0.0517  0.2194
  136OSM   H14A14648   2.845   0.171   2.360 -0.0806 -2.1756  0.7738
  136OSM   H14B14649   2.916   0.288   2.469  1.9034 -0.3988  0.6192
  136OSM   H14C14650   2.790   0.181   2.521 -0.4904  2.0135 -1.2506
  136OSM    C1314651   2.914  -0.047   2.496  0.5410 -0.0308  0.1035
  136OSM   H13A14652   2.841  -0.055   2.576  0.7478  0.4559  0.3419
  136OSM   H13B14653   2.983  -0.127   2.519  0.3317  0.4564  2.8263
  136OSM   H13C14654   2.865  -0.067   2.402  0.0907  1.4035  0.0097
  136OSM    C1214655   3.041   0.124   2.628 -0.2123  0.4199 -0.0553
  136OSM   H12A14656   3.101   0.213   2.611  1.6041 -1.1081 -2.2510
  136OSM   H12B14657   3.100   0.041   2.665 -3.5059 -2.0644  0.1150
  136OSM    C1114658   2.952   0.157   2.752 -1.0158  0.1229  0.0644
  136OSM   H11A14659   2.882   0.235   2.717  0.6642  1.7897  0.2647
  136OSM   H11B14660   3.010   0.197   2.839  0.7269 -0.3984 -0.8013
  136OSM      P14661   2.942  -0.082   2.864  0.3629 -0.0408  0.6646
  136OSM    O1314662   2.847  -0.197   2.853  0.0480  0.0862  0.4973
  136OSM    O1414663   3.077  -0.103   2.806  0.3305  0.1578  0.0699
  136OSM    O1114664   2.951  -0.037   3.019  0.3302  0.5052 -0.0936
  136OSM    O1214665   2.872   0.043   2.783 -0.4059  0.0055 -0.4666
  136OSM    C1S14666   2.877   0.076   3.073 -0.3004 -0.1602 -0.2358
  136OSM    H1S14667   2.768   0.059   3.058 -0.6437  2.7392 -1.9716
  136OSM    H1T14668   2.906   0.169   3.019  0.4998 -0.4114 -0.2478
  136OSM     NF14669   2.833   0.207   3.279  0.1385  0.3238 -0.0034
  136OSM    HNF14670   2.884   0.290   3.301  1.5757  0.1537 -2.4148
  136OSM    C2S14671   2.917   0.103   3.217  0.2328  0.1337 -0.6056
  136OSM    H2S14672   2.889   0.014   3.277 -2.1086  1.1863 -0.0425
  136OSM    C3S14673   3.074   0.118   3.231  0.0723 -0.6136 -0.7326
  136OSM    H3S14674   3.098   0.216   3.185  0.3712  0.0833  0.8587
  136OSM     O314675   3.144   0.015   3.173  0.4477  0.3109 -0.7971
  136OSM    HO314676   3.076  -0.015   3.112  0.4618 -2.4536  0.4150
  136OSM    C4S14677   3.108   0.125   3.369  0.2683 -0.3771  0.2431
  136OSM    H4S14678   3.083   0.034   3.425  2.0340 -1.4552 -0.6532
  136OSM    C5S14679   3.144   0.228   3.444 -0.5414 -0.2048 -0.4022
  136OSM    H5S14680   3.173   0.322   3.394 -0.4147 -0.1709 -0.2657
  136OSM    C6S14681   3.156   0.217   3.595  0.0763 -0.1944  0.0177
  136OSM    H6S14682   3.224   0.297   3.632  0.5652 -0.1093 -1.0288
  136OSM    H6T14683   3.217   0.126   3.607  1.9745  0.6909 -2.1447
  136OSM    C7S14684   3.025   0.199   3.669 -0.1821 -0.3482 -0.3897
  136OSM    H7S14685   2.976   0.104   3.638 -2.4629  0.4321  0.6606
  136OSM    H7T14686   2.958   0.284   3.645 -0.1666  0.0600  0.9542
  136OSM    C8S14687   3.043   0.190   3.818 -0.0431 -0.1254  0.3558
  136OSM    H8S14688   3.106   0.099   3.834  0.3895  0.5508  2.9707
  136OSM    H8T14689   2.944   0.177   3.866 -0.5018  4.1819  0.9293
  136OSM    C9S14690   3.096   0.326   3.877  0.5011  0.0189 -0.2087
  136OSM    H9S14691   3.040   0.406   3.825  0.2310 -0.7807 -1.1662
  136OSM    H9T14692   3.207   0.333   3.870  0.3291  4.1738 -1.6266
  136OSM   C10S14693   3.065   0.344   4.027 -0.0914 -0.2497  0.4133
  136OSM   H10S14694   2.956   0.347   4.046  0.1450 -1.1408  2.0080
  136OSM   H10T14695   3.094   0.445   4.063 -1.5775  0.3234  0.0791
  136OSM   C11S14696   3.121   0.238   4.114 -0.1160  0.0492 -0.3091
  136OSM   H11S14697   3.227   0.224   4.084 -0.0897 -0.6382  0.0926
  136OSM   H11T14698   3.070   0.143   4.086  0.8954 -0.9113  1.0043
  136OSM   C12S14699   3.112   0.261   4.268 -0.3375  0.7102 -0.2245
  136OSM   H12S14700   3.005   0.285   4.284 -0.3375 -0.8125  2.7780
  136OSM   H12T14701   3.176   0.347   4.297  0.8614 -0.4591  0.7800
  136OSM   C13S14702   3.143   0.127   4.343 -0.3238  0.1650  0.0740
  136OSM   H13S14703   3.239   0.092   4.300 -0.8662 -0.3121 -0.7578
  136OSM   H13T14704   3.068   0.046   4.332  0.0376  0.1165 -2.5430
  136OSM   C14S14705   3.166   0.157   4.493  0.2149 -0.5050 -1.0332
  136OSM   H14S14706   3.067   0.166   4.543  1.8144  1.7967  2.0460
  136OSM   H14T14707   3.241   0.237   4.510  0.2598 -0.6452 -0.5524
  136OSM   C15S14708   3.217   0.026   4.561  0.3366  0.0868  0.7290
  136OSM   H15S14709   3.303  -0.011   4.501  1.4491  1.0528  1.6667
  136OSM   H15T14710   3.130  -0.043   4.560 -0.8311  1.4171  2.9782
  136OSM   C16S14711   3.251   0.053   4.702 -0.4164  0.2376  0.1231
  136OSM   H16S14712   3.166   0.110   4.744  0.1662  1.4806 -0.3398
  136OSM   H16T14713   3.346   0.110   4.715 -0.0670 -0.0008 -1.1922
  136OSM   C17S14714   3.275  -0.083   4.773  0.1730  0.5847  0.3601
  136OSM   H17S14715   3.343  -0.136   4.702 -0.7926 -0.9111  0.5124
  136OSM   H17T14716   3.187  -0.151   4.769  0.0635  0.7561 -0.6103
  136OSM   C18S14717   3.330  -0.079   4.911 -0.6424 -0.0891 -0.2257
  136OSM   H18S14718   3.431  -0.033   4.917 -0.5899  0.0640 -1.8186
  136OSM   H18T14719   3.326  -0.176   4.966 -1.0115 -0.1841 -0.4117
  136OSM   H18U14720   3.257  -0.016   4.967 -0.3595  0.1323 -0.1060
  136OSM    C1F14721   2.699   0.210   3.293 -0.1765 -0.0515  0.1554
  136OSM     OF14722   2.626   0.126   3.245 -0.3281  0.6608  0.4512
  136OSM    C2F14723   2.644   0.333   3.368  0.4315 -0.6828 -0.7289
  136OSM    H2F14724   2.534   0.319   3.375  0.5175 -1.9671 -1.6436
  136OSM    H2G14725   2.679   0.430   3.325 -1.7698 -0.8776 -3.1917
  136OSM    C3F14726   2.716   0.328   3.505  0.5957  0.5622  0.3399
  136OSM    H3F14727   2.824   0.356   3.509  0.3492  1.5783  0.1779
  136OSM    H3G14728   2.713   0.228   3.551  0.3823  1.3688  2.1687
  136OSM    C4F14729   2.651   0.418   3.605 -0.0114 -0.2631 -0.5505
  136OSM    H4F14730   2.545   0.433   3.576  0.5132  1.4289 -1.7056
  136OSM    H4G14731   2.698   0.518   3.609  0.9004 -0.6612 -0.9699
  136OSM    C5F14732   2.655   0.354   3.743 -0.1013  0.2076 -0.2632
  136OSM    H5F14733   2.757   0.314   3.762  0.4556  1.2327 -0.9986
  136OSM    H5G14734   2.582   0.270   3.737 -0.9070  0.9483 -1.2126
  136OSM    C6F14735   2.619   0.435   3.861  0.6670  0.5418  0.2669
  136OSM    H6F14736   2.522   0.484   3.835  0.4245 -1.0213 -2.1548
  136OSM    H6G14737   2.695   0.515   3.878  2.6443 -0.8567 -1.4869
  136OSM    C7F14738   2.586   0.352   3.990  0.0724 -0.6451  0.2355
  136OSM    H7F14739   2.644   0.257   3.995 -0.3020 -1.1292 -2.8628
  136OSM    H7G14740   2.482   0.316   3.978  0.2728 -0.5595 -2.3222
  136OSM    C8F14741   2.598   0.443   4.115  0.5376  0.8569 -0.3900
  136OSM    H8F14742   2.549   0.541   4.103 -1.0050  0.1323 -0.2314
  136OSM    H8G14743   2.704   0.466   4.141  0.6786 -1.0633  0.9492
  136OSM    C9F14744   2.530   0.376   4.229  0.1912 -0.1082 -0.1572
  136OSM    H9F14745   2.439   0.426   4.265  0.7111  0.5980  0.2065
  136OSM   C10F14746   2.594   0.313   4.329 -0.3420  0.1124 -0.0151
  136OSM   H10F14747   2.541   0.279   4.418 -0.3279  1.5350  0.5765
  136OSM   C11F14748   2.732   0.253   4.325  0.0540  0.1039 -0.4792
  136OSM   H11F14749   2.805   0.316   4.379 -0.6135  0.8960 -0.4865
  136OSM   H11G14750   2.765   0.251   4.219  1.5493  2.3692 -0.1049
  136OSM   C12F14751   2.728   0.119   4.405  0.1958  0.3102  0.7388
  136OSM   H12F14752   2.831   0.080   4.389 -0.1469  0.3465 -2.0037
  136OSM   H12G14753   2.659   0.046   4.358 -0.8271  1.5070  0.3207
  136OSM   C13F14754   2.698   0.118   4.555  0.7063  1.0702  0.1985
  136OSM   H13F14755   2.587   0.114   4.561  0.6195  3.1088  0.5270
  136OSM   H13G14756   2.720   0.220   4.592  1.9494  2.2185 -3.3587
  136OSM   C14F14757   2.771   0.002   4.626  1.2704 -0.2695 -0.3649
  136OSM   H14F14758   2.880   0.020   4.636  1.9507 -3.3562 -1.1599
  136OSM   H14G14759   2.767  -0.092   4.568 -0.4878  0.6351 -1.8029
  136OSM   C15F14760   2.719  -0.026   4.764 -0.6393 -0.2282 -0.5814
  136OSM   H15F14761   2.609  -0.029   4.780 -0.3380  1.1462  2.6681
  136OSM   H15G14762   2.742   0.061   4.829 -0.4019 -1.0892  0.5127
  136OSM   C16F14763   2.777  -0.154   4.823  0.4430 -0.0679  0.3390
  136OSM   H16F14764   2.785  -0.230   4.743  2.1313  0.8771 -0.4429
  136OSM   H16G14765   2.713  -0.185   4.909  0.3319 -1.8507 -0.3397
  136OSM   C17F14766   2.925  -0.148   4.852  0.6867  0.8074  0.4570
  136OSM   H17F14767   2.945  -0.050   4.900  4.7776 -0.0167  0.7724
  136OSM   H17G14768   2.982  -0.146   4.757 -0.8973  0.6755 -0.5452
  136OSM   C18F14769   2.972  -0.258   4.951  0.0201  0.2535  0.2254
  136OSM   H18F14770   2.949  -0.359   4.910 -1.7685  0.5766  0.3521
  136OSM   H18G14771   2.916  -0.263   5.046  1.3370 -2.4996  0.9565
  136OSM   H18H14772   3.076  -0.239   4.986 -0.2999  2.4088  0.1424
  137OSM      N14773   5.739   3.700   2.174  0.6274  0.7533  0.0293
  137OSM    C1514774   5.762   3.604   2.060  0.5353 -1.2228 -0.1071
  137OSM   H15A14775   5.856   3.623   2.010  0.6562 -1.0024  0.2021
  137OSM   H15B14776   5.674   3.615   1.999  1.2772 -0.5415 -1.0881
  137OSM   H15C14777   5.756   3.503   2.099 -1.7187 -0.4140  1.9126
  137OSM    C1414778   5.707   3.828   2.106 -0.4601  0.0636  0.0677
  137OSM   H14A14779   5.791   3.856   2.046 -0.4374 -0.5369 -0.1834
  137OSM   H14B14780   5.692   3.913   2.172  0.1112  0.6811 -0.5770
  137OSM   H14C14781   5.614   3.821   2.051 -1.4443  0.5960  1.5792
  137OSM    C1314782   5.619   3.658   2.257 -0.0117  0.1540 -0.1407
  137OSM   H13A14783   5.634   3.569   2.316 -0.7049 -0.9432 -1.5588
  137OSM   H13B14784   5.532   3.640   2.195 -0.5490  1.6169  0.1344
  137OSM   H13C14785   5.588   3.726   2.335  1.2953  0.1629  0.4068
  137OSM    C1214786   5.858   3.707   2.254 -0.7340 -0.3725  0.2298
  137OSM   H12A14787   5.869   3.611   2.302 -2.6194 -0.3581  0.7916
  137OSM   H12B14788   5.854   3.783   2.330 -1.5011  0.4179 -0.5670
  137OSM    C1114789   5.988   3.740   2.180 -0.3583 -0.1169 -0.2917
  137OSM   H11A14790   6.022   3.657   2.114  2.4623  2.3392 -2.1939
  137OSM   H11B14791   6.062   3.748   2.262 -0.8456  0.4778  0.0918
  137OSM      P14792   6.062   3.993   2.133  0.1875 -0.1293  0.1735
  137OSM    O1314793   6.184   3.981   2.051  1.1033  0.5575 -0.2410
  137OSM    O1414794   5.985   4.117   2.104 -0.2531 -0.3753  0.4413
  137OSM    O1114795   6.108   3.982   2.284 -0.1513  0.2257  0.3829
  137OSM    O1214796   5.978   3.863   2.104  0.2067  0.5888  0.2207
  137OSM    C1S14797   5.999   4.011   2.375 -1.1197 -0.2336  0.2271
  137OSM    H1S14798   5.904   3.967   2.339 -1.0340  0.3380 -0.7250
  137OSM    H1T14799   5.963   4.116   2.378 -1.6396 -0.3645 -0.9900
  137OSM     NF14800   5.915   3.983   2.603  0.1463  0.6574 -0.4081
  137OSM    HNF14801   5.925   4.063   2.662  2.5164  1.1334 -1.3405
  137OSM    C2S14802   6.028   3.955   2.512  0.9782 -0.1703 -0.4994
  137OSM    H2S14803   6.025   3.844   2.501  4.0725 -0.3566 -0.3934
  137OSM    C3S14804   6.162   3.999   2.569 -0.5706  0.3894  0.3597
  137OSM    H3S14805   6.183   4.107   2.583  4.4585 -0.3905  0.8050
  137OSM     O314806   6.279   3.973   2.492  0.7742  0.3031  0.0660
  137OSM    HO314807   6.243   3.964   2.404 -1.7634  2.7002  0.7273
  137OSM    C4S14808   6.185   3.937   2.709 -0.0933 -0.8717  0.0986
  137OSM    H4S14809   6.128   3.976   2.795 -2.5718 -0.2125 -1.7099
  137OSM    C5S14810   6.260   3.824   2.725 -0.0512 -0.4032 -0.6844
  137OSM    H5S14811   6.304   3.771   2.639  0.3923 -1.1568  0.0002
  137OSM    C6S14812   6.284   3.745   2.849 -0.2958 -0.0690 -0.8745
  137OSM    H6S14813   6.394   3.747   2.870 -0.1108 -0.7997 -1.7082
  137OSM    H6T14814   6.264   3.640   2.817 -1.2918  0.0547 -0.6893
  137OSM    C7S14815   6.192   3.772   2.972  0.4060  0.8709 -0.2453
  137OSM    H7S14816   6.085   3.752   2.949 -0.2795  3.0818  0.7738
  137OSM    H7T14817   6.190   3.881   2.993 -3.2829  0.7477  0.7341
  137OSM    C8S14818   6.253   3.689   3.092 -0.1576 -0.3360 -0.4480
  137OSM    H8S14819   6.355   3.729   3.106 -0.1320 -0.0710 -1.3228
  137OSM    H8T14820   6.270   3.581   3.076  2.2440 -0.6555  3.0537
  137OSM    C9S14821   6.182   3.713   3.221  0.6812  0.5263  0.7192
  137OSM    H9S14822   6.180   3.821   3.245  1.4070  0.6098  0.4224
  137OSM    H9T14823   6.248   3.668   3.298  0.5036 -1.6706 -0.3154
  137OSM   C10S14824   6.054   3.628   3.235  0.0060 -0.3851  0.0895
  137OSM   H10S14825   6.081   3.524   3.205  0.7002  0.0848 -0.9595
  137OSM   H10T14826   5.979   3.665   3.162 -1.5216 -1.2995  1.1267
  137OSM   C11S14827   5.992   3.650   3.372 -0.0948  0.1504  0.2966
  137OSM   H11S14828   5.883   3.632   3.365 -0.3446  1.9295 -0.9741
  137OSM   H11T14829   5.993   3.760   3.381 -0.9790  0.1509  0.5203
  137OSM   C12S14830   6.048   3.570   3.495 -0.5374 -0.1683  0.1122
  137OSM   H12S14831   6.152   3.604   3.516 -0.4132 -0.2099 -0.4421
  137OSM   H12T14832   6.056   3.465   3.460  0.1438 -0.6081  1.4886
  137OSM   C13S14833   5.972   3.593   3.627 -0.1729 -0.0929 -0.0977
  137OSM   H13S14834   5.869   3.555   3.611 -0.0219 -0.7308  0.3871
  137OSM   H13T14835   5.963   3.698   3.662 -3.9672 -0.0243 -0.8678
  137OSM   C14S14836   6.031   3.506   3.744 -0.1390  0.5411  0.1768
  137OSM   H14S14837   6.141   3.525   3.742  0.2252 -1.2697  0.8273
  137OSM   H14T14838   6.011   3.398   3.731  0.6742  0.0415  2.6123
  137OSM   C15S14839   5.975   3.545   3.885 -0.3753 -0.4525  0.4295
  137OSM   H15S14840   5.868   3.518   3.899 -0.6273  0.9761  1.5319
  137OSM   H15T14841   5.976   3.656   3.879 -0.4284 -0.5084 -1.2586
  137OSM   C16S14842   6.064   3.508   4.003 -0.3892 -0.2757  0.8506
  137OSM   H16S14843   6.154   3.572   4.017  0.0831 -0.5960 -0.5860
  137OSM   H16T14844   6.108   3.409   3.982  0.9018  0.6295 -0.9822
  137OSM   C17S14845   5.995   3.508   4.135  0.3150  0.5956 -0.2395
  137OSM   H17S14846   5.922   3.425   4.131  3.8153 -2.8297  0.0276
  137OSM   H17T14847   5.936   3.601   4.147 -1.0485 -0.2988  0.1810
  137OSM   C18S14848   6.092   3.496   4.253  0.3027 -0.5656  0.4176
  137OSM   H18S14849   6.167   3.415   4.242  3.1037  2.1664 -3.5110
  137OSM   H18T14850   6.032   3.474   4.343 -1.5451 -0.7834 -0.8188
  137OSM   H18U14851   6.154   3.586   4.272  0.6150 -1.0703  1.8930
  137OSM    C1F14852   5.784   3.935   2.597 -0.5304  0.8016  0.6432
  137OSM     OF14853   5.752   3.851   2.517  0.3002  0.4910  0.5016
  137OSM    C2F14854   5.690   3.992   2.695 -0.0774 -0.1887  0.1893
  137OSM    H2F14855   5.611   4.049   2.641  0.5865 -0.1104 -0.7152
  137OSM    H2G14856   5.737   4.069   2.760 -2.8089  1.1595  0.7221
  137OSM    C3F14857   5.623   3.892   2.788  0.5815 -0.0501  0.0783
  137OSM    H3F14858   5.574   3.821   2.718  1.4961 -1.4062  0.7864
  137OSM    H3G14859   5.542   3.943   2.846 -0.3154 -0.2660 -0.9522
  137OSM    C4F14860   5.717   3.822   2.882  0.0729  0.6290 -0.1875
  137OSM    H4F14861   5.789   3.899   2.917  0.2775  0.5300 -0.3868
  137OSM    H4G14862   5.767   3.745   2.820  2.2413  2.1739 -0.4789
  137OSM    C5F14863   5.649   3.746   3.001 -0.2903  0.1511 -0.0207
  137OSM    H5F14864   5.729   3.680   3.040  0.9210  1.4205 -0.2813
  137OSM    H5G14865   5.559   3.686   2.974  0.8012 -0.8199 -1.6839
  137OSM    C6F14866   5.613   3.840   3.121 -0.0530  0.5169  0.1551
  137OSM    H6F14867   5.552   3.919   3.070 -0.8316 -0.9624 -1.2976
  137OSM    H6G14868   5.709   3.875   3.165  0.3960  1.6604 -1.6212
  137OSM    C7F14869   5.533   3.766   3.224 -0.4424 -0.0043  0.3542
  137OSM    H7F14870   5.594   3.678   3.254  1.7284  1.2102 -0.2821
  137OSM    H7G14871   5.451   3.736   3.157 -1.1966 -0.6197  1.5152
  137OSM    C8F14872   5.485   3.847   3.345 -0.4533  0.7782 -0.1208
  137OSM    H8F14873   5.410   3.923   3.313 -2.2874 -0.6872  0.5611
  137OSM    H8G14874   5.564   3.914   3.387 -0.2910  0.5368 -0.0394
  137OSM    C9F14875   5.427   3.748   3.450  0.6986 -0.3246 -0.0940
  137OSM    H9F14876   5.378   3.665   3.396 -0.2613 -0.7403  1.3507
  137OSM   C10F14877   5.469   3.739   3.574 -0.0478  0.3521  0.5506
  137OSM   H10F14878   5.417   3.670   3.641  2.4907 -0.7935  1.4916
  137OSM   C11F14879   5.567   3.834   3.639  0.4133 -0.2037  0.0473
  137OSM   H11F14880   5.564   3.934   3.592  0.3124 -1.4810 -2.9210
  137OSM   H11G14881   5.672   3.800   3.626  0.1274 -1.6917  1.2972
  137OSM   C12F14882   5.551   3.860   3.789 -0.4893 -0.5370 -0.2843
  137OSM   H12F14883   5.451   3.908   3.799 -0.9240 -1.8803  3.3554
  137OSM   H12G14884   5.628   3.933   3.821 -1.5227 -0.1588  1.4613
  137OSM   C13F14885   5.560   3.736   3.884  0.7828  0.9285  0.2687
  137OSM   H13F14886   5.623   3.651   3.850  0.4621  0.0948  1.6840
  137OSM   H13G14887   5.459   3.693   3.899  1.4237  0.0783  2.7406
  137OSM   C14F14888   5.606   3.784   4.023 -0.1402  0.1549  0.9287
  137OSM   H14F14889   5.568   3.888   4.036 -0.9310  0.2632 -1.6998
  137OSM   H14G14890   5.716   3.777   4.016 -0.1694 -0.4775  1.0434
  137OSM   C15F14891   5.575   3.689   4.139  0.5416 -0.5306 -0.0132
  137OSM   H15F14892   5.640   3.599   4.132 -1.0250 -1.9173  1.9003
  137OSM   H15G14893   5.473   3.643   4.131  0.2747  0.3922 -2.7097
  137OSM   C16F14894   5.607   3.752   4.274  0.0316  0.1813  0.1483
  137OSM   H16F14895   5.525   3.820   4.304  1.9690  3.2126 -1.0105
  137OSM   H16G14896   5.697   3.818   4.267 -1.4639  2.0991 -2.9236
  137OSM   C17F14897   5.629   3.646   4.384  0.1181 -0.3813 -0.6031
  137OSM   H17F14898   5.708   3.574   4.355 -0.9109 -2.4175  1.3305
  137OSM   H17G14899   5.536   3.586   4.388  1.0542 -1.9142 -1.1460
  137OSM   C18F14900   5.658   3.697   4.524 -0.0270  0.0218  0.0667
  137OSM   H18F14901   5.679   3.617   4.599 -0.4515  1.0473  1.3097
  137OSM   H18G14902   5.582   3.764   4.570  1.0613  0.5036  1.2076
  137OSM   H18H14903   5.744   3.767   4.514  0.1354 -0.4269 -2.5146
  138OSM      N14904   6.355   6.151   2.480  0.2046 -0.3446 -0.2241
  138OSM    C1514905   6.496   6.178   2.435 -0.4850  0.5486 -0.6051
  138OSM   H15A14906   6.529   6.279   2.454 -0.2985  0.1288  1.6165
  138OSM   H15B14907   6.510   6.152   2.331  0.5717 -1.0509 -0.1097
  138OSM   H15C14908   6.569   6.118   2.487 -0.2861  1.8084  0.6411
  138OSM    C1414909   6.268   6.264   2.424  0.0084 -0.1625  0.0880
  138OSM   H14A14910   6.286   6.274   2.318  1.0161  0.3919  0.3001
  138OSM   H14B14911   6.305   6.358   2.463 -0.5839 -0.1459  0.6212
  138OSM   H14C14912   6.161   6.256   2.433 -0.0269 -1.6279 -1.2179
  138OSM    C1314913   6.313   6.022   2.433  0.0086  0.0396  0.7910
  138OSM   H13A14914   6.391   5.953   2.461 -0.9006 -0.9341  0.9494
  138OSM   H13B14915   6.311   6.027   2.325  1.0405 -2.0945  0.6372
  138OSM   H13C14916   6.220   6.000   2.483  0.3113  1.1803  1.9176
  138OSM    C1214917   6.352   6.155   2.630 -0.5569 -0.0211  0.2594
  138OSM   H12A14918   6.393   6.060   2.661 -1.2333 -1.4657 -2.9265
  138OSM   H12B14919   6.251   6.159   2.668 -0.1068  0.1629  1.4765
  138OSM    C1114920   6.439   6.256   2.699 -0.0888 -0.6518  0.4161
  138OSM   H11A14921   6.546   6.240   2.672 -0.2651 -1.8627  0.3985
  138OSM   H11B14922   6.444   6.234   2.808 -0.5849 -1.0108  0.3656
  138OSM      P14923   6.282   6.459   2.750 -0.1966  0.0632  0.1438
  138OSM    O1314924   6.269   6.587   2.690  0.5117 -0.0084 -0.5245
  138OSM    O1414925   6.162   6.370   2.755 -0.1318 -0.7312  0.1226
  138OSM    O1114926   6.343   6.475   2.893 -0.4846 -0.2457 -0.4155
  138OSM    O1214927   6.396   6.389   2.666 -0.3398 -0.0752 -0.0918
  138OSM    C1S14928   6.474   6.511   2.920 -0.5918  0.2020 -0.6056
  138OSM    H1S14929   6.515   6.578   2.841  0.3944 -1.3402 -1.4436
  138OSM    H1T14930   6.545   6.427   2.933  0.4807  1.0204 -0.9894
  138OSM     NF14931   6.625   6.629   3.078 -0.1201  0.1601  0.2930
  138OSM    HNF14932   6.668   6.593   3.160  1.3436 -2.0307 -1.2971
  138OSM    C2S14933   6.487   6.582   3.063 -0.1087  0.0416 -0.5174
  138OSM    H2S14934   6.418   6.669   3.070  1.6338  1.3792  1.5826
  138OSM    C3S14935   6.441   6.478   3.176 -0.4737 -0.8501 -0.6286
  138OSM    H3S14936   6.526   6.408   3.190  0.3761  0.3224  0.2506
  138OSM     O314937   6.338   6.389   3.135  0.1758  0.3947 -0.6763
  138OSM    HO314938   6.334   6.397   3.040 -0.0262 -0.7896 -0.7834
  138OSM    C4S14939   6.426   6.535   3.317  0.8014  0.8705  0.2198
  138OSM    H4S14940   6.522   6.524   3.369  0.8073 -1.2283 -0.1496
  138OSM    C5S14941   6.324   6.588   3.388  0.4866 -0.1611  0.3429
  138OSM    H5S14942   6.223   6.598   3.345 -0.2902 -0.1879  2.0781
  138OSM    C6S14943   6.330   6.637   3.529  0.6693 -0.3094  0.1003
  138OSM    H6S14944   6.262   6.569   3.585 -0.7465  0.6485 -0.3938
  138OSM    H6T14945   6.278   6.736   3.529 -0.5290 -0.8659 -2.2645
  138OSM    C7S14946   6.475   6.648   3.597 -0.4223 -0.3831  0.7851
  138OSM    H7S14947   6.538   6.723   3.544 -0.4421 -1.6308 -1.0775
  138OSM    H7T14948   6.513   6.544   3.599 -0.4487 -0.4697 -1.4389
  138OSM    C8S14949   6.464   6.688   3.746  0.3537 -0.4352  0.4058
  138OSM    H8S14950   6.391   6.614   3.784 -2.0647 -0.3816 -3.5267
  138OSM    H8T14951   6.408   6.783   3.755  0.5046 -0.3111  0.0481
  138OSM    C9S14952   6.589   6.680   3.831 -0.0281 -0.3385  0.0258
  138OSM    H9S14953   6.669   6.750   3.800 -0.5345  1.4657  2.4954
  138OSM    H9T14954   6.636   6.579   3.839  1.7143  0.4754  0.8146
  138OSM   C10S14955   6.557   6.710   3.979  0.1423 -0.0514 -0.0368
  138OSM   H10S14956   6.528   6.817   3.986  1.8291  0.5787 -1.9177
  138OSM   H10T14957   6.654   6.708   4.034  1.0410  0.9781 -1.5203
  138OSM   C11S14958   6.457   6.613   4.050 -0.2746 -0.3185 -0.1191
  138OSM   H11S14959   6.497   6.512   4.025  1.9678  0.8955 -1.7964
  138OSM   H11T14960   6.357   6.624   4.003  0.0599  2.2737 -0.3782
  138OSM   C12S14961   6.437   6.633   4.206  0.1080 -0.0328  1.0389
  138OSM   H12S14962   6.361   6.563   4.247 -0.0305 -0.9957 -0.7833
  138OSM   H12T14963   6.403   6.736   4.230 -1.7283 -0.5582  0.8092
  138OSM   C13S14964   6.560   6.599   4.288 -0.2698  0.5503  0.2963
  138OSM   H13S14965   6.642   6.668   4.257 -0.8252  1.2014  0.2654
  138OSM   H13T14966   6.600   6.501   4.252  0.7658  0.5467  1.3745
  138OSM   C14S14967   6.537   6.579   4.438  0.3071  0.1733 -0.0717
  138OSM   H14S14968   6.456   6.505   4.458 -0.9058  1.4692  0.0358
  138OSM   H14T14969   6.515   6.673   4.494 -1.0994 -0.1398 -0.0628
  138OSM   C15S14970   6.669   6.520   4.493 -0.3359  0.6217 -0.2633
  138OSM   H15S14971   6.758   6.573   4.450  0.1272  2.0681  2.2532
  138OSM   H15T14972   6.668   6.419   4.447  1.3376  0.1950  0.5693
  138OSM   C16S14973   6.668   6.503   4.642  0.1084 -0.1690 -0.0272
  138OSM   H16S14974   6.584   6.445   4.687 -0.1354  1.3423  1.5860
  138OSM   H16T14975   6.659   6.598   4.699 -1.2675 -0.5551  0.4430
  138OSM   C17S14976   6.798   6.431   4.692  0.2496 -0.0378 -1.1119
  138OSM   H17S14977   6.893   6.483   4.666 -0.1046  0.1254 -2.1117
  138OSM   H17T14978   6.796   6.332   4.643 -0.8971 -2.2728  2.9807
  138OSM   C18S14979   6.803   6.401   4.851 -0.2138  0.3287  0.4268
  138OSM   H18S14980   6.720   6.330   4.869 -0.5299 -0.2662 -2.8012
  138OSM   H18T14981   6.786   6.498   4.901 -1.6734  1.0117 -1.2896
  138OSM   H18U14982   6.902   6.360   4.880 -0.1234  1.2942  1.5480
  138OSM    C1F14983   6.685   6.728   3.013 -0.2887 -0.4461  0.6533
  138OSM     OF14984   6.645   6.778   2.911  0.1662 -0.1529  0.1514
  138OSM    C2F14985   6.808   6.787   3.087  0.3546  0.3459  0.1818
  138OSM    H2F14986   6.888   6.710   3.087 -0.1204 -0.1585 -0.1861
  138OSM    H2G14987   6.786   6.800   3.195  3.1865  0.1007  0.8622
  138OSM    C3F14988   6.875   6.899   3.012  0.4052  0.3858  0.1673
  138OSM    H3F14989   6.808   6.986   2.993  1.2604  1.2191  0.8330
  138OSM    H3G14990   6.902   6.862   2.910  0.6641 -3.0263  1.3698
  138OSM    C4F14991   7.012   6.944   3.068  0.4884 -0.0755  0.0217
  138OSM    H4F14992   7.062   7.003   2.988  0.0022 -0.5704 -0.6603
  138OSM    H4G14993   7.068   6.848   3.079 -0.6818 -0.9599 -1.3952
  138OSM    C5F14994   6.992   7.024   3.200 -0.7301 -0.1059 -0.4560
  138OSM    H5F14995   6.953   6.964   3.284  2.6854 -4.0769 -1.3756
  138OSM    H5G14996   6.927   7.112   3.183 -1.6559  0.0149  2.9551
  138OSM    C6F14997   7.125   7.077   3.245  0.4233 -0.1349 -0.4304
  138OSM    H6F14998   7.156   7.139   3.159  0.6731  1.4384  0.7449
  138OSM    H6G14999   7.206   7.003   3.265  0.4141 -0.1316 -0.3792
  138OSM    C7F15000   7.109   7.165   3.370 -0.6636  0.2287 -0.9515
  138OSM    H7F15001   7.029   7.127   3.438 -0.3891 -1.7911 -1.7140
  138OSM    H7G15002   7.054   7.252   3.327  0.3088  0.5659 -1.5334
  138OSM    C8F15003   7.238   7.217   3.437 -0.0642 -0.0687  0.3031
  138OSM    H8F15004   7.239   7.309   3.499 -3.2300 -1.3903  2.6225
  138OSM    H8G15005   7.312   7.253   3.362 -0.2197  1.1826  0.7225
  138OSM    C9F15006   7.321   7.109   3.500  0.4750  0.1735  0.4336
  138OSM    H9F15007   7.357   7.037   3.425  2.9551  3.2659 -1.6123
  138OSM   C10F15008   7.331   7.078   3.631 -0.8356 -0.2749 -0.1472
  138OSM   H10F15009   7.398   6.999   3.668 -2.6622 -2.0621 -0.4648
  138OSM   C11F15010   7.263   7.149   3.743  0.0427  0.0522 -0.2157
  138OSM   H11F15011   7.200   7.078   3.801 -1.7689  0.4029 -1.6804
  138OSM   H11G15012   7.189   7.227   3.717 -0.1175  0.3917  1.1616
  138OSM   C12F15013   7.368   7.222   3.837 -0.1472 -0.0840  0.5701
  138OSM   H12F15014   7.319   7.248   3.933 -0.5285 -0.4508  0.4806
  138OSM   H12G15015   7.394   7.319   3.791  1.9163 -1.2833 -0.9552
  138OSM   C13F15016   7.503   7.162   3.868 -0.3813 -0.0544  0.2853
  138OSM   H13F15017   7.573   7.235   3.915  0.0499  1.0497 -1.9329
  138OSM   H13G15018   7.561   7.127   3.780 -0.9959  0.8661 -0.5003
  138OSM   C14F15019   7.486   7.036   3.948  0.1031 -0.1837  0.0696
  138OSM   H14F15020   7.577   6.988   3.989 -1.0831 -1.0304  1.8293
  138OSM   H14G15021   7.453   6.957   3.877 -1.4150 -1.8263  2.4527
  138OSM   C15F15022   7.400   7.046   4.075 -0.6838  0.0849 -0.8651
  138OSM   H15F15023   7.375   6.939   4.094  2.2712 -0.5509 -0.0455
  138OSM   H15G15024   7.307   7.105   4.056 -0.3489  1.5996  1.7788
  138OSM   C16F15025   7.469   7.110   4.192  0.0170 -0.1742  0.6241
  138OSM   H16F15026   7.387   7.148   4.257  0.0184 -0.4234  0.7740
  138OSM   H16G15027   7.531   7.198   4.165 -0.9106  0.1601 -0.5130
  138OSM   C17F15028   7.552   7.021   4.272 -0.4774  0.3787 -0.3680
  138OSM   H17F15029   7.649   7.001   4.221  2.0127  2.1270  3.1872
  138OSM   H17G15030   7.500   6.925   4.297  1.1766  0.3330  3.6516
  138OSM   C18F15031   7.585   7.086   4.414 -0.4237  0.5554 -0.1829
  138OSM   H18F15032   7.656   7.017   4.465  0.9854  0.1615 -2.5048
  138OSM   H18G15033   7.495   7.090   4.479 -0.1988 -2.2419  0.4371
  138OSM   H18H15034   7.635   7.185   4.411 -0.3330  0.5093 -0.2105
  139OSM      N15035   0.247   4.527   2.324 -0.0809 -0.0937 -0.2459
  139OSM    C1515036   0.363   4.616   2.291  0.6580  0.2913 -0.6836
  139OSM   H15A15037   0.440   4.610   2.367 -0.1956  1.1578  0.2658
  139OSM   H15B15038   0.328   4.718   2.284  2.5774  1.1294  0.8305
  139OSM   H15C15039   0.418   4.590   2.201  1.6567  0.9445 -0.2873
  139OSM    C1415040   0.144   4.535   2.213 -0.6031 -0.4688 -0.2186
  139OSM   H14A15041   0.188   4.522   2.116  1.2542 -1.6820  0.7343
  139OSM   H14B15042   0.094   4.631   2.211 -3.4165 -1.7147  1.8056
  139OSM   H14C15043   0.076   4.451   2.220  0.6107 -1.6864 -2.1798
  139OSM    C1315044   0.292   4.389   2.317 -0.2557  0.8038  0.9817
  139OSM   H13A15045   0.216   4.313   2.315 -0.5599  1.0918 -1.6722
  139OSM   H13B15046   0.374   4.383   2.387  1.1468 -0.3874 -0.6538
  139OSM   H13C15047   0.337   4.367   2.221 -0.5687 -0.1142  1.0358
  139OSM    C1215048   0.191   4.565   2.458  0.5513  0.1957  0.4656
  139OSM   H12A15049   0.094   4.517   2.467  1.0660 -0.7827  0.8572
  139OSM   H12B15050   0.163   4.669   2.451 -1.5079 -0.4143 -2.4430
  139OSM    C1115051   0.258   4.533   2.597  0.7877  1.0117  0.5384
  139OSM   H11A15052   0.179   4.545   2.674  0.4564  2.7022 -0.0125
  139OSM   H11B15053   0.327   4.621   2.603  1.9671  0.2803 -1.3984
  139OSM      P15054   0.450   4.385   2.671 -0.1384  0.2541 -0.1191
  139OSM    O1315055   0.470   4.241   2.674 -0.2884  0.3179 -0.2787
  139OSM    O1415056   0.558   4.474   2.619  0.7574  0.1743  0.6924
  139OSM    O1115057   0.418   4.424   2.817 -0.7109  0.2539 -0.1005
  139OSM    O1215058   0.318   4.405   2.595 -0.4472 -0.4886  0.5219
  139OSM    C1S15059   0.303   4.375   2.890  0.1297  0.6519 -0.1614
  139OSM    H1S15060   0.241   4.296   2.842 -1.5687 -0.7755  3.8980
  139OSM    H1T15061   0.238   4.461   2.914  0.0363  1.2475 -2.3205
  139OSM     NF15062   0.225   4.243   3.093  0.1387  0.0606 -1.0632
  139OSM    HNF15063   0.178   4.280   3.173  2.1849  2.2059 -0.7441
  139OSM    C2S15064   0.338   4.310   3.032 -0.6741  0.6674 -0.3624
  139OSM    H2S15065   0.424   4.242   3.017 -1.2718 -0.6634  1.7392
  139OSM    C3S15066   0.398   4.422   3.123  0.3236  0.3018 -0.2269
  139OSM    H3S15067   0.310   4.489   3.130  0.3711  0.6704 -2.3528
  139OSM     O315068   0.505   4.501   3.064 -0.1492  0.0945  0.4035
  139OSM    HO315069   0.489   4.485   2.971 -0.9528  1.4878  0.2694
  139OSM    C4S15070   0.449   4.366   3.249  0.1399 -0.1612 -0.1097
  139OSM    H4S15071   0.413   4.426   3.334  1.0201 -0.8059  0.7519
  139OSM    C5S15072   0.540   4.271   3.276 -0.1981 -0.3217  0.2969
  139OSM    H5S15073   0.591   4.217   3.195 -0.0295 -0.9902  0.8442
  139OSM    C6S15074   0.573   4.238   3.420 -1.0123  0.0774  1.3886
  139OSM    H6S15075   0.683   4.245   3.430 -0.5326 -2.9983 -0.4192
  139OSM    H6T15076   0.570   4.127   3.422 -0.1874 -0.1545 -2.6088
  139OSM    C7S15077   0.510   4.305   3.535 -0.1546  0.4457 -0.7222
  139OSM    H7S15078   0.399   4.318   3.531 -0.5113 -1.8590  0.3679
  139OSM    H7T15079   0.546   4.410   3.526  3.1579 -0.5043  0.2231
  139OSM    C8S15080   0.545   4.255   3.678  0.2745  0.7505  0.0871
  139OSM    H8S15081   0.646   4.209   3.673 -0.0392 -0.0446  0.7951
  139OSM    H8T15082   0.487   4.167   3.713  1.1433  0.8149  1.8076
  139OSM    C9S15083   0.540   4.361   3.784  0.5519 -0.2771  0.2997
  139OSM    H9S15084   0.605   4.441   3.743 -0.2355  1.4279  2.2030
  139OSM    H9T15085   0.595   4.326   3.875 -0.4495 -0.2075  0.9531
  139OSM   C10S15086   0.409   4.427   3.818  0.3733  1.0826 -0.2167
  139OSM   H10S15087   0.346   4.340   3.849  2.1895 -0.8301 -1.6239
  139OSM   H10T15088   0.356   4.470   3.731  3.0412  2.3079 -1.3394
  139OSM   C11S15089   0.421   4.530   3.922 -0.6306 -0.1560  0.3308
  139OSM   H11S15090   0.322   4.573   3.949 -1.0759 -0.6768 -0.4457
  139OSM   H11T15091   0.487   4.608   3.879  1.0002 -1.9868 -0.6301
  139OSM   C12S15092   0.486   4.493   4.051 -0.7069 -0.1878  0.3554
  139OSM   H12S15093   0.591   4.460   4.034 -0.1261  1.2991  0.8942
  139OSM   H12T15094   0.436   4.404   4.094  0.0552 -0.6597  0.2948
  139OSM   C13S15095   0.479   4.609   4.153 -0.1056  0.0683  0.5753
  139OSM   H13S15096   0.510   4.702   4.102  0.7085 -0.1913  0.5779
  139OSM   H13T15097   0.560   4.588   4.226 -0.2968 -0.0911  0.7469
  139OSM   C14S15098   0.341   4.625   4.218 -0.1988 -0.2412  0.1336
  139OSM   H14S15099   0.322   4.523   4.260  0.2331 -0.0931  0.6928
  139OSM   H14T15100   0.268   4.650   4.138 -0.1749  2.7596  0.9289
  139OSM   C15S15101   0.335   4.741   4.322  0.4589  0.3820 -0.0220
  139OSM   H15S15102   0.344   4.842   4.277  1.1796  1.4149  2.2858
  139OSM   H15T15103   0.411   4.720   4.400 -2.6054 -2.1900  2.5695
  139OSM   C16S15104   0.200   4.746   4.392  0.5348 -0.0390  0.1413
  139OSM   H16S15105   0.167   4.648   4.432  0.5187  0.7434  2.1767
  139OSM   H16T15106   0.117   4.770   4.321  0.1614 -0.1944  0.5234
  139OSM   C17S15107   0.214   4.845   4.509  0.1605  0.6762 -0.6604
  139OSM   H17S15108   0.256   4.941   4.471  1.3270  0.3996 -0.1032
  139OSM   H17T15109   0.293   4.810   4.579 -0.2851  0.1134 -0.4343
  139OSM   C18S15110   0.077   4.860   4.567  0.3906 -0.0362  0.4611
  139OSM   H18S15111   0.012   4.892   4.483  1.8087  1.3895 -0.1604
  139OSM   H18T15112   0.069   4.940   4.644 -1.0974 -0.0466  0.3463
  139OSM   H18U15113   0.032   4.771   4.616 -4.0648  0.6370 -1.8437
  139OSM    C1F15114   0.176   4.118   3.055  0.1909 -0.1175 -0.0998
  139OSM     OF15115   0.207   4.077   2.947 -0.2958 -0.3679 -0.2788
  139OSM    C2F15116   0.079   4.047   3.147  0.1027 -0.7876 -0.1772
  139OSM    H2F15117  -0.003   4.014   3.080  1.0276 -1.3488 -1.0759
  139OSM    H2G15118   0.042   4.124   3.217  0.8469  0.2213 -0.8668
  139OSM    C3F15119   0.135   3.923   3.205 -0.4920  0.8412  0.1025
  139OSM    H3F15120   0.146   3.860   3.114 -0.9744  1.3772 -0.3318
  139OSM    H3G15121   0.054   3.875   3.264 -0.7540 -2.5144 -2.7039
  139OSM    C4F15122   0.266   3.938   3.287 -0.2775 -0.0195 -0.2414
  139OSM    H4F15123   0.239   3.947   3.394 -0.7496 -0.4916 -0.3210
  139OSM    H4G15124   0.317   4.035   3.270 -1.7097  0.9869  0.9382
  139OSM    C5F15125   0.349   3.811   3.282  0.4337 -0.0337  0.5910
  139OSM    H5F15126   0.377   3.793   3.176 -2.6789 -1.7081 -0.0606
  139OSM    H5G15127   0.293   3.721   3.316  1.2965  0.1184  2.5864
  139OSM    C6F15128   0.472   3.818   3.368  0.2492  0.1949  0.2576
  139OSM    H6F15129   0.439   3.785   3.469 -1.7315 -1.6001 -0.8974
  139OSM    H6G15130   0.502   3.924   3.361  0.8233  0.2359  2.4148
  139OSM    C7F15131   0.596   3.735   3.328  0.1361 -0.2674  0.0845
  139OSM    H7F15132   0.635   3.786   3.237 -1.3407 -1.2552 -1.1442
  139OSM    H7G15133   0.564   3.631   3.306 -1.9051  0.1255  0.9817
  139OSM    C8F15134   0.703   3.735   3.432  0.8147 -0.2422 -0.0065
  139OSM    H8F15135   0.775   3.664   3.384  0.4547 -0.2006 -0.6129
  139OSM    H8G15136   0.670   3.675   3.520  1.0609  0.3274  0.4781
  139OSM    C9F15137   0.766   3.866   3.461  0.0658  0.3297 -0.3952
  139OSM    H9F15138   0.811   3.893   3.365 -2.9099 -1.9654 -2.6108
  139OSM   C10F15139   0.762   3.936   3.577  0.8771 -1.0276  0.1528
  139OSM   H10F15140   0.815   4.032   3.577  1.7745 -1.4652 -2.3348
  139OSM   C11F15141   0.686   3.887   3.697 -0.4150  0.0771 -0.1514
  139OSM   H11F15142   0.594   3.834   3.665 -0.1370  0.6996 -2.0609
  139OSM   H11G15143   0.647   3.974   3.754  0.6349  0.8159 -0.5311
  139OSM   C12F15144   0.767   3.789   3.780 -0.2951  0.2220  0.5592
  139OSM   H12F15145   0.841   3.846   3.840  1.2240 -2.3181  1.2478
  139OSM   H12G15146   0.818   3.708   3.723 -0.5543  0.3612  0.1206
  139OSM   C13F15147   0.671   3.729   3.887  0.1200 -0.1985  0.1305
  139OSM   H13F15148   0.621   3.639   3.845 -0.1731  0.7162 -1.5380
  139OSM   H13G15149   0.595   3.804   3.917 -0.1419 -0.2735 -0.3472
  139OSM   C14F15150   0.751   3.688   4.015 -0.3769 -0.2541  0.0676
  139OSM   H14F15151   0.821   3.764   4.056 -0.2719  0.7894 -1.9460
  139OSM   H14G15152   0.810   3.601   3.980  1.2507  0.8412  0.0087
  139OSM   C15F15153   0.651   3.644   4.121 -0.5996  0.4073 -0.0874
  139OSM   H15F15154   0.608   3.545   4.097  1.9494 -0.3767 -1.9416
  139OSM   H15G15155   0.558   3.704   4.116 -1.0529 -0.3024 -0.2738
  139OSM   C16F15156   0.712   3.626   4.269 -0.0832 -0.7819  0.5826
  139OSM   H16F15157   0.622   3.603   4.330 -2.6104  0.3690 -2.4148
  139OSM   H16G15158   0.743   3.729   4.299  0.1592 -0.6639 -0.0453
  139OSM   C17F15159   0.828   3.525   4.276 -0.9510  0.5504 -0.0706
  139OSM   H17F15160   0.910   3.574   4.219 -0.3114 -0.8582 -0.4301
  139OSM   H17G15161   0.798   3.431   4.224  1.7450 -0.4715  0.0220
  139OSM   C18F15162   0.873   3.479   4.414 -0.0024 -0.4222  0.0099
  139OSM   H18F15163   0.943   3.393   4.408  1.3231  0.2028  3.5900
  139OSM   H18G15164   0.787   3.446   4.477  1.1638  3.7432  4.4186
  139OSM   H18H15165   0.934   3.559   4.460  3.0410 -3.1147  1.0068
  140OSM      N15166   6.119   0.075   2.557 -0.4124 -0.0427  0.0728
  140OSM    C1515167   6.233   0.103   2.644  0.3814 -0.1974  0.0553
  140OSM   H15A15168   6.320   0.137   2.592  0.6368 -0.3144  0.4011
  140OSM   H15B15169   6.262   0.018   2.705  1.9925 -0.5168 -1.1156
  140OSM   H15C15170   6.204   0.169   2.725 -0.8282 -2.8463  1.9671
  140OSM    C1415171   6.150  -0.008   2.437 -0.0223  0.3224 -0.3578
  140OSM   H14A15172   6.231   0.040   2.383 -1.4852  3.3739 -0.0342
  140OSM   H14B15173   6.077  -0.012   2.358 -0.2221  0.2902 -0.1713
  140OSM   H14C15174   6.190  -0.108   2.448 -0.4759  0.2045  0.3161
  140OSM    C1315175   6.023   0.005   2.649  0.4772  0.4034  0.7438
  140OSM   H13A15176   5.983   0.075   2.721  0.3286 -0.9918  2.0586
  140OSM   H13B15177   6.072  -0.081   2.691  0.6428  0.0404 -0.1728
  140OSM   H13C15178   5.943  -0.035   2.588  0.1229  0.8791  0.8865
  140OSM    C1215179   6.065   0.209   2.511 -0.2413 -0.2922 -0.2446
  140OSM   H12A15180   6.026   0.268   2.592 -1.4933 -1.0268 -0.2919
  140OSM   H12B15181   5.989   0.168   2.447  0.5292 -0.2810 -1.1962
  140OSM    C1115182   6.158   0.302   2.428 -0.1792 -0.4720 -0.3104
  140OSM   H11A15183   6.106   0.382   2.371 -1.1835 -0.7855  0.1324
  140OSM   H11B15184   6.197   0.241   2.343 -0.3819 -0.4488 -0.4215
  140OSM      P15185   6.309   0.502   2.510  0.0591  0.2297  0.2626
  140OSM    O1315186   6.453   0.527   2.473 -0.4631 -0.1685  0.2812
  140OSM    O1415187   6.210   0.583   2.441  0.5100 -0.2670  0.1292
  140OSM    O1115188   6.287   0.539   2.660 -0.3887  0.3831 -0.6586
  140OSM    O1215189   6.275   0.350   2.492  0.0706 -0.0118 -0.8375
  140OSM    C1S15190   6.337   0.459   2.763  0.0825 -0.2944 -0.8458
  140OSM    H1S15191   6.448   0.462   2.759  0.2015 -0.6600  1.2253
  140OSM    H1T15192   6.312   0.351   2.748  0.4420 -0.5164  0.0793
  140OSM     NF15193   6.322   0.402   2.991 -0.1502  0.1059 -0.3777
  140OSM    HNF15194   6.275   0.316   3.011  2.4939 -1.2934  0.3073
  140OSM    C2S15195   6.277   0.499   2.904  0.3661 -0.3121  0.3595
  140OSM    H2S15196   6.318   0.598   2.934  0.7185 -0.3516  0.0175
  140OSM    C3S15197   6.122   0.518   2.899 -0.2217 -0.4041 -0.9290
  140OSM    H3S15198   6.083   0.418   2.867  0.6762 -1.0677 -0.0222
  140OSM     O315199   6.082   0.614   2.808 -0.0146  0.2933 -0.3820
  140OSM    HO315200   6.159   0.638   2.756  2.4261 -0.0162  2.7632
  140OSM    C4S15201   6.059   0.557   3.028 -0.2461  0.3021 -0.6000
  140OSM    H4S15202   6.075   0.658   3.069 -2.7572 -0.2234  2.0273
  140OSM    C5S15203   5.984   0.471   3.098 -0.3037 -0.1897 -0.2994
  140OSM    H5S15204   5.946   0.377   3.056 -1.4185 -0.7327  1.7717
  140OSM    C6S15205   5.907   0.505   3.228  0.3460  0.6224  0.1942
  140OSM    H6S15206   5.846   0.417   3.258 -1.4434  1.7092 -0.1839
  140OSM    H6T15207   5.827   0.580   3.214 -1.3393 -0.6016  2.5368
  140OSM    C7S15208   5.991   0.541   3.353 -0.5962 -0.4189  0.1687
  140OSM    H7S15209   6.054   0.627   3.322 -0.8041  0.0497  1.0093
  140OSM    H7T15210   6.067   0.464   3.373  0.7226  0.8743  0.3045
  140OSM    C8S15211   5.909   0.589   3.474 -0.2570 -0.2002 -0.2004
  140OSM    H8S15212   5.850   0.503   3.513  1.0590 -0.8383  0.4396
  140OSM    H8T15213   5.836   0.668   3.447  2.2458  2.3005 -0.0750
  140OSM    C9S15214   5.998   0.625   3.591 -0.3600 -0.7969 -0.4919
  140OSM    H9S15215   6.068   0.708   3.568  1.4900 -1.8201  1.1101
  140OSM    H9T15216   6.050   0.535   3.630 -0.3181  0.0474  1.5669
  140OSM   C10S15217   5.906   0.675   3.699 -0.0212  0.2699 -0.3074
  140OSM   H10S15218   5.824   0.601   3.713  0.9737 -0.9794 -0.8425
  140OSM   H10T15219   5.853   0.767   3.666 -1.2538  0.1524  1.2351
  140OSM   C11S15220   5.973   0.697   3.837  0.2547  0.3431  0.8136
  140OSM   H11S15221   6.062   0.761   3.821 -0.1206  0.5091 -0.8281
  140OSM   H11T15222   6.009   0.601   3.880  1.5993  1.1070  1.4359
  140OSM   C12S15223   5.864   0.757   3.933 -0.6799 -0.0996  0.4714
  140OSM   H12S15224   5.780   0.686   3.948  0.3699 -0.9676  2.7130
  140OSM   H12T15225   5.826   0.854   3.895  2.0743  0.5619 -0.8327
  140OSM   C13S15226   5.923   0.789   4.070 -0.3187  0.1748  0.6158
  140OSM   H13S15227   6.019   0.844   4.064 -0.1445  0.0639  2.0983
  140OSM   H13T15228   5.950   0.692   4.116  1.9974  0.3502 -0.2489
  140OSM   C14S15229   5.811   0.859   4.150 -0.6364  1.2045  0.2762
  140OSM   H14S15230   5.715   0.809   4.126 -0.2126  0.8110 -0.6668
  140OSM   H14T15231   5.801   0.964   4.114 -1.9181  1.3792  1.0898
  140OSM   C15S15232   5.848   0.859   4.298  0.0204  0.1757  0.2569
  140OSM   H15S15233   5.945   0.912   4.302  0.3478 -0.3297 -0.7173
  140OSM   H15T15234   5.855   0.753   4.329  0.4312 -0.5136 -1.9976
  140OSM   C16S15235   5.743   0.935   4.387  0.3323  0.1447  0.1821
  140OSM   H16S15236   5.738   1.035   4.339  2.0846  0.1781  0.0130
  140OSM   H16T15237   5.783   0.947   4.490  0.4329  2.7660 -0.0858
  140OSM   C17S15238   5.612   0.865   4.387  0.2407  0.0494 -0.2915
  140OSM   H17S15239   5.613   0.763   4.432 -2.3365 -0.9368 -2.2252
  140OSM   H17T15240   5.577   0.852   4.282  1.2229 -0.6935 -0.5499
  140OSM   C18S15241   5.504   0.950   4.461  0.2702  0.9304 -0.0939
  140OSM   H18S15242   5.413   0.887   4.463  0.4382  0.6911  0.0896
  140OSM   H18T15243   5.489   1.045   4.405  0.2116  0.2925 -1.1824
  140OSM   H18U15244   5.528   0.964   4.569 -1.0282 -2.5538  0.7569
  140OSM    C1F15245   6.449   0.387   3.030 -0.5479 -0.3402 -0.2879
  140OSM     OF15246   6.533   0.477   3.021 -0.7998  0.1723  0.3418
  140OSM    C2F15247   6.473   0.245   3.091 -0.6634  0.6421  0.1105
  140OSM    H2F15248   6.510   0.186   3.004 -0.2524  1.8701 -0.5712
  140OSM    H2G15249   6.374   0.195   3.097 -0.1530 -0.3660  0.4151
  140OSM    C3F15250   6.563   0.246   3.219  0.2560  0.0754 -0.2333
  140OSM    H3F15251   6.513   0.320   3.285 -0.9909 -1.4902  0.6497
  140OSM    H3G15252   6.669   0.280   3.212  1.9546 -4.4741 -0.4434
  140OSM    C4F15253   6.568   0.107   3.290 -0.5615  0.1249 -0.0569
  140OSM    H4F15254   6.575   0.023   3.218  0.3237 -0.0679  0.2381
  140OSM    H4G15255   6.470   0.091   3.340  0.3182 -2.8834  0.9467
  140OSM    C5F15256   6.661   0.104   3.415  0.9630 -0.3243  0.7577
  140OSM    H5F15257   6.762   0.130   3.376  1.0790 -0.7493  0.7779
  140OSM    H5G15258   6.663  -0.000   3.451  1.0656 -1.2239 -1.6280
  140OSM    C6F15259   6.629   0.197   3.531  0.9394 -0.2150  0.1202
  140OSM    H6F15260   6.633   0.301   3.491  1.4238 -0.7105 -1.1759
  140OSM    H6G15261   6.705   0.187   3.612  0.3592 -0.7597  0.6006
  140OSM    C7F15262   6.490   0.170   3.595 -0.5481 -0.2110 -0.6326
  140OSM    H7F15263   6.443   0.077   3.556  0.5363 -1.3858  0.7415
  140OSM    H7G15264   6.419   0.252   3.571 -0.7435  0.1742  1.1294
  140OSM    C8F15265   6.514   0.148   3.748  0.1843 -0.9797 -0.6069
  140OSM    H8F15266   6.598   0.076   3.750 -0.1843 -1.4156 -0.5616
  140OSM    H8G15267   6.424   0.100   3.792  1.3272 -1.4542  1.3274
  140OSM    C9F15268   6.546   0.271   3.829 -0.2638  0.0386  0.2186
  140OSM    H9F15269   6.561   0.367   3.778  2.7783 -0.1614  0.5461
  140OSM   C10F15270   6.552   0.279   3.957  0.6884 -0.0421 -0.2023
  140OSM   H10F15271   6.568   0.377   4.003 -0.0958  1.3351 -2.7172
  140OSM   C11F15272   6.523   0.164   4.050  0.2822 -1.1802 -0.5747
  140OSM   H11F15273   6.609   0.094   4.063  0.5821 -0.6183  0.5839
  140OSM   H11G15274   6.429   0.109   4.029 -0.6641  0.1398  0.0881
  140OSM   C12F15275   6.499   0.217   4.198 -0.0438 -0.4125  0.2274
  140OSM   H12F15276   6.429   0.303   4.199 -1.2383 -1.3591  0.1431
  140OSM   H12G15277   6.593   0.262   4.238 -1.5984  3.4720 -0.0731
  140OSM   C13F15278   6.450   0.108   4.295 -0.0538  0.0341 -0.0080
  140OSM   H13F15279   6.532   0.034   4.307 -0.0250  0.4984  3.7614
  140OSM   H13G15280   6.358   0.055   4.263 -0.2151  0.4477 -0.2275
  140OSM   C14F15281   6.427   0.162   4.437  0.0818 -0.1797  0.6341
  140OSM   H14F15282   6.333   0.221   4.435  1.0965  1.4718 -0.3427
  140OSM   H14G15283   6.518   0.218   4.467  1.4226 -1.9796  0.0580
  140OSM   C15F15284   6.411   0.047   4.538  0.2125  0.7643 -0.4304
  140OSM   H15F15285   6.510  -0.003   4.529 -0.0245  0.2924 -0.4048
  140OSM   H15G15286   6.326  -0.013   4.500  1.2539  0.0373 -1.7078
  140OSM   C16F15287   6.389   0.094   4.684 -0.1261  0.0101 -0.1851
  140OSM   H16F15288   6.303   0.164   4.678  0.3998  0.9639  2.3613
  140OSM   H16G15289   6.479   0.153   4.712  0.9792 -0.2704 -2.8438
  140OSM   C17F15290   6.374  -0.013   4.793  0.2060  0.0064  0.0133
  140OSM   H17F15291   6.268  -0.047   4.785 -0.0096  1.0463 -3.4046
  140OSM   H17G15292   6.376   0.031   4.895 -0.3476 -1.1358  0.5362
  140OSM   C18F15293   6.476  -0.119   4.776 -0.6765 -0.0368  0.2116
  140OSM   H18F15294   6.439  -0.196   4.705 -0.4390 -0.4865  0.5650
  140OSM   H18G15295   6.510  -0.170   4.869 -2.3676 -0.0879  0.8400
  140OSM   H18H15296   6.570  -0.072   4.739  1.6903 -3.0175  1.9307
  141OSM      N15297   5.663   6.023   2.539 -0.3109  0.9069  0.1627
  141OSM    C1515298   5.630   5.949   2.662  0.2076 -0.5330 -0.5989
  141OSM   H15A15299   5.637   6.016   2.746 -3.1490 -0.5063 -0.1856
  141OSM   H15B15300   5.709   5.877   2.676 -0.0637 -0.6548  0.3541
  141OSM   H15C15301   5.537   5.895   2.670  1.0207 -1.8083  0.5700
  141OSM    C1415302   5.573   6.137   2.534  0.4304 -0.2853  0.1052
  141OSM   H14A15303   5.473   6.109   2.563  0.4954 -0.7615 -0.1289
  141OSM   H14B15304   5.564   6.184   2.437 -0.8121 -0.3502  0.1689
  141OSM   H14C15305   5.600   6.206   2.613 -0.9949 -0.5392  0.8440
  141OSM    C1315306   5.800   6.075   2.554  0.4205 -0.0559  0.4012
  141OSM   H13A15307   5.873   5.999   2.578  2.9791  1.6690 -1.5192
  141OSM   H13B15308   5.802   6.155   2.626  1.5807 -1.3470  1.8856
  141OSM   H13C15309   5.823   6.119   2.459  2.4898 -1.9004 -0.0310
  141OSM    C1215310   5.648   5.940   2.413 -0.7064  0.0853  0.8068
  141OSM   H12A15311   5.714   5.855   2.405  0.2036  0.8817 -0.7856
  141OSM   H12B15312   5.683   6.007   2.335 -0.2042  0.5781  1.4484
  141OSM    C1115313   5.509   5.888   2.372  0.3846  0.0228 -0.4041
  141OSM   H11A15314   5.523   5.844   2.271  2.2864 -0.6375  0.1185
  141OSM   H11B15315   5.442   5.976   2.363  2.6571  1.8743 -0.1045
  141OSM      P15316   5.488   5.634   2.437 -0.1439  0.1419 -0.1691
  141OSM    O1315317   5.392   5.586   2.339  0.0594 -0.3418  0.2621
  141OSM    O1415318   5.632   5.612   2.416  0.3628 -0.2136 -0.4895
  141OSM    O1115319   5.450   5.562   2.573 -0.3056 -0.0343  0.5493
  141OSM    O1215320   5.456   5.789   2.470  0.2113  0.6888 -0.1805
  141OSM    C1S15321   5.509   5.599   2.698 -0.2821 -0.7868 -0.3867
  141OSM    H1S15322   5.529   5.708   2.709 -2.3813 -0.4624  0.6904
  141OSM    H1T15323   5.611   5.556   2.705  1.0947  2.1136 -0.9898
  141OSM     NF15324   5.489   5.589   2.937 -0.1065 -0.2324  0.2640
  141OSM    HNF15325   5.553   5.527   2.982 -1.5499 -1.5037  0.6551
  141OSM    C2S15326   5.429   5.548   2.813 -0.7050  0.5528 -0.3687
  141OSM    H2S15327   5.325   5.585   2.805 -1.4246 -0.9776  1.2471
  141OSM    C3S15328   5.410   5.389   2.797  0.0154  0.1584 -1.3065
  141OSM    H3S15329   5.509   5.338   2.789 -0.1340 -0.5610  0.7463
  141OSM     O315330   5.328   5.358   2.688  0.0423  0.3093 -0.2690
  141OSM    HO315331   5.345   5.427   2.623 -1.8555  1.3212  0.2136
  141OSM    C4S15332   5.355   5.336   2.927  0.2942  0.0766  0.7735
  141OSM    H4S15333   5.269   5.397   2.958  0.2348  0.5707 -0.3147
  141OSM    C5S15334   5.393   5.227   2.996  0.1203 -1.0922 -0.2877
  141OSM    H5S15335   5.471   5.162   2.954 -2.5311 -3.9701 -1.0808
  141OSM    C6S15336   5.322   5.170   3.112 -0.1782 -0.2881  0.7793
  141OSM    H6S15337   5.279   5.073   3.078  2.4591 -1.4268  0.4392
  141OSM    H6T15338   5.238   5.231   3.154 -2.0125 -1.5788 -0.7990
  141OSM    C7S15339   5.420   5.141   3.224 -0.5173 -0.5173  0.4380
  141OSM    H7S15340   5.485   5.228   3.248  0.5199 -1.2145  0.2362
  141OSM    H7T15341   5.488   5.056   3.208 -1.4006 -1.3447  0.9762
  141OSM    C8S15342   5.343   5.091   3.345  0.2771 -0.1039  0.2270
  141OSM    H8S15343   5.289   5.000   3.313 -1.1000  1.6030 -2.6320
  141OSM    H8T15344   5.266   5.167   3.369  1.2999  0.3771  2.2517
  141OSM    C9S15345   5.424   5.077   3.478  0.2049  0.0621  0.6603
  141OSM    H9S15346   5.469   5.172   3.515  0.3475  0.2365  0.0416
  141OSM    H9T15347   5.513   5.015   3.456 -1.4103 -1.7397 -1.1054
  141OSM   C10S15348   5.354   5.013   3.600 -0.0969  0.7681  0.3217
  141OSM   H10S15349   5.263   5.070   3.628  0.5088  1.3874  1.0630
  141OSM   H10T15350   5.422   5.025   3.686  2.2029  2.8292 -1.6546
  141OSM   C11S15351   5.335   4.857   3.587 -0.5399  0.5881 -0.1059
  141OSM   H11S15352   5.433   4.808   3.567 -0.0464  2.3312 -2.3684
  141OSM   H11T15353   5.268   4.834   3.501 -0.7064  0.5935  0.0223
  141OSM   C12S15354   5.277   4.800   3.709  0.4131  0.3781 -0.3841
  141OSM   H12S15355   5.188   4.856   3.744 -1.2611 -2.6687  0.5988
  141OSM   H12T15356   5.355   4.803   3.788 -0.2937 -2.4393  0.5316
  141OSM   C13S15357   5.223   4.655   3.695 -0.3544  0.1189  0.4934
  141OSM   H13S15358   5.199   4.635   3.802 -3.0384 -0.5640 -0.1694
  141OSM   H13T15359   5.304   4.585   3.666 -1.0094 -1.0582  1.3987
  141OSM   C14S15360   5.096   4.642   3.614 -0.1617 -0.2910  0.2569
  141OSM   H14S15361   5.119   4.656   3.506 -0.7143 -1.6163 -0.0521
  141OSM   H14T15362   5.028   4.724   3.644 -1.6881 -1.8672  1.3165
  141OSM   C15S15363   5.035   4.504   3.625 -0.7209 -0.1303 -0.0272
  141OSM   H15S15364   5.020   4.482   3.733  2.6257 -1.1254  0.3272
  141OSM   H15T15365   5.106   4.425   3.593 -0.4252 -0.3383  1.1012
  141OSM   C16S15366   4.902   4.491   3.546 -1.1907 -0.8486  0.4708
  141OSM   H16S15367   4.842   4.561   3.608 -1.9776 -4.0693  3.6831
  141OSM   H16T15368   4.845   4.396   3.549  0.1756 -1.7585 -0.7479
  141OSM   C17S15369   4.908   4.542   3.395  0.2342  0.0177  0.4542
  141OSM   H17S15370   4.983   4.473   3.352 -0.0826  0.2175 -0.4509
  141OSM   H17T15371   4.943   4.646   3.381 -0.1008 -0.0376 -0.9489
  141OSM   C18S15372   4.776   4.521   3.318  1.8905  0.0559 -0.5434
  141OSM   H18S15373   4.743   4.415   3.323 -0.9159  0.8884  0.6983
  141OSM   H18T15374   4.782   4.542   3.209  0.8138  0.3760 -0.5553
  141OSM   H18U15375   4.704   4.589   3.368  0.7477 -2.6913  1.8449
  141OSM    C1F15376   5.479   5.716   2.979  0.1719 -0.0092 -0.1667
  141OSM     OF15377   5.434   5.804   2.905 -0.7639  0.6450 -0.3004
  141OSM    C2F15378   5.521   5.750   3.118  0.8854 -0.1673  0.4014
  141OSM    H2F15379   5.611   5.812   3.101  0.3615  0.0296 -2.0392
  141OSM    H2G15380   5.557   5.659   3.170  1.2919 -0.1000  0.2412
  141OSM    C3F15381   5.422   5.827   3.201 -0.8134  0.4060  0.0308
  141OSM    H3F15382   5.321   5.788   3.175 -0.0925 -0.9506 -0.9063
  141OSM    H3G15383   5.429   5.932   3.164  0.3800  0.3863  0.1614
  141OSM    C4F15384   5.455   5.830   3.356  0.3986  0.2825 -0.1865
  141OSM    H4F15385   5.434   5.728   3.395 -2.0290  1.3116  1.4059
  141OSM    H4G15386   5.390   5.910   3.396  3.9318  3.0324  0.4818
  141OSM    C5F15387   5.598   5.858   3.390 -0.8454 -0.4000  0.0993
  141OSM    H5F15388   5.645   5.934   3.324  0.5673  0.8319  2.4042
  141OSM    H5G15389   5.658   5.766   3.377  1.5606  0.8406  1.6865
  141OSM    C6F15390   5.618   5.903   3.536  0.2878  0.3136 -0.3735
  141OSM    H6F15391   5.721   5.893   3.576 -0.5521  1.3621  2.2352
  141OSM    H6G15392   5.550   5.842   3.599 -1.4592 -1.4164 -3.6357
  141OSM    C7F15393   5.574   6.056   3.548  0.0400 -0.2717  0.5967
  141OSM    H7F15394   5.466   6.047   3.525  0.2094 -0.2952 -0.2321
  141OSM    H7G15395   5.628   6.121   3.476  0.5105 -0.2555  0.9580
  141OSM    C8F15396   5.605   6.104   3.686  0.5010 -0.4890  0.0190
  141OSM    H8F15397   5.549   6.043   3.761  0.2384  0.5303  0.6708
  141OSM    H8G15398   5.566   6.208   3.692 -1.9156 -1.3591  0.9269
  141OSM    C9F15399   5.749   6.103   3.717  0.0698 -0.7753  0.4991
  141OSM    H9F15400   5.815   6.168   3.658 -0.8148 -0.9881 -0.7635
  141OSM   C10F15401   5.808   6.025   3.804 -0.3244 -0.0616  0.2137
  141OSM   H10F15402   5.915   6.042   3.822 -0.2801 -1.1101  1.0322
  141OSM   C11F15403   5.744   5.920   3.893  0.0431 -0.4833  1.1127
  141OSM   H11F15404   5.823   5.843   3.911  0.9813 -0.1879 -1.3246
  141OSM   H11G15405   5.661   5.875   3.835 -0.0753  1.3233 -0.1876
  141OSM   C12F15406   5.673   5.960   4.022  0.0612 -0.2668 -0.0287
  141OSM   H12F15407   5.612   5.874   4.059  0.3947 -0.1396  0.8332
  141OSM   H12G15408   5.603   6.044   4.005  0.3219  0.5344  2.4235
  141OSM   C13F15409   5.763   6.023   4.136 -0.4165 -0.3389  0.1318
  141OSM   H13F15410   5.816   6.116   4.107 -0.4658 -0.9553 -2.1352
  141OSM   H13G15411   5.842   5.945   4.148 -1.1769 -0.8371  2.2138
  141OSM   C14F15412   5.693   6.059   4.272 -0.6054  0.3782 -0.0224
  141OSM   H14F15413   5.628   6.144   4.241  0.3943  0.5570 -1.7453
  141OSM   H14G15414   5.770   6.091   4.345  0.0574 -0.0896 -0.5113
  141OSM   C15F15415   5.607   5.941   4.335  1.1482  0.8752 -0.5267
  141OSM   H15F15416   5.677   5.858   4.358 -0.9168 -1.3174 -1.6690
  141OSM   H15G15417   5.541   5.914   4.249  0.2173  3.3181 -0.6715
  141OSM   C16F15418   5.519   5.979   4.462  0.4285  0.4409 -0.0467
  141OSM   H16F15419   5.465   5.883   4.474 -2.2794  1.6595 -1.5098
  141OSM   H16G15420   5.445   6.056   4.430  2.8156  2.9948  0.1984
  141OSM   C17F15421   5.598   6.028   4.578 -0.3103 -0.1893  0.1895
  141OSM   H17F15422   5.533   6.078   4.653  0.9761  3.7694 -1.0919
  141OSM   H17G15423   5.649   6.113   4.530 -1.0621 -0.6071 -1.4148
  141OSM   C18F15424   5.680   5.923   4.643 -0.1539 -0.5022  0.7808
  141OSM   H18F15425   5.720   5.954   4.743 -0.9049  0.6426  0.7557
  141OSM   H18G15426   5.771   5.903   4.583  0.7413 -1.3774  2.3392
  141OSM   H18H15427   5.637   5.822   4.659  0.4594 -0.6642  1.4808
  142OSM      N15428   0.649   2.126   2.347 -0.0581 -0.1825  0.2713
  142OSM    C1515429   0.502   2.088   2.346  0.3221 -0.2404  0.0614
  142OSM   H15A15430   0.492   1.981   2.331 -0.7139  0.1683 -2.9886
  142OSM   H15B15431   0.453   2.139   2.264  1.6304  0.6362 -0.1988
  142OSM   H15C15432   0.460   2.115   2.441  2.7870  0.6382  0.9820
  142OSM    C1415433   0.731   2.039   2.441  0.2699  1.1825 -0.1572
  142OSM   H14A15434   0.732   2.074   2.543  1.5396 -1.2743  0.7556
  142OSM   H14B15435   0.836   2.048   2.417  0.4248  1.1855  0.4974
  142OSM   H14C15436   0.694   1.938   2.454 -0.4767  1.4019 -0.5075
  142OSM    C1315437   0.691   2.087   2.203 -1.2917  0.1273 -0.1833
  142OSM   H13A15438   0.640   2.148   2.131  1.5497  0.6097 -1.9698
  142OSM   H13B15439   0.661   1.985   2.184 -3.1377  0.6997 -0.5174
  142OSM   H13C15440   0.799   2.096   2.196 -1.3196  1.9986  1.1805
  142OSM    C1215441   0.671   2.274   2.368 -0.0463  0.6214  0.3491
  142OSM   H12A15442   0.631   2.331   2.285  1.3180 -0.6930 -1.2863
  142OSM   H12B15443   0.776   2.299   2.363  0.2566 -0.6458  0.1811
  142OSM    C1115444   0.619   2.337   2.494  0.5596 -1.0624  0.2715
  142OSM   H11A15445   0.642   2.289   2.591  2.4903 -0.2419  0.2555
  142OSM   H11B15446   0.509   2.318   2.492  0.2495  0.5825 -1.3914
  142OSM      P15447   0.556   2.590   2.435  0.0589  0.3291  0.1580
  142OSM    O1315448   0.634   2.703   2.391 -0.2560  0.4625 -0.0688
  142OSM    O1415449   0.467   2.527   2.333 -0.7989 -0.1156 -0.2444
  142OSM    O1115450   0.461   2.641   2.553 -0.2055 -0.3658 -0.6046
  142OSM    O1215451   0.655   2.478   2.495 -0.1347 -0.3737  0.2723
  142OSM    C1S15452   0.523   2.697   2.669  0.5112  0.3009 -0.2893
  142OSM    H1S15453   0.512   2.808   2.669 -1.0776  0.1710  0.2719
  142OSM    H1T15454   0.630   2.669   2.684  0.0956 -1.1854  0.0590
  142OSM     NF15455   0.520   2.718   2.922  1.0290  0.5567 -0.3254
  142OSM    HNF15456   0.595   2.668   2.965  0.5696 -0.3322 -0.5311
  142OSM    C2S15457   0.451   2.651   2.808  0.0515  0.1085 -0.3670
  142OSM    H2S15458   0.350   2.696   2.813  0.5651  1.2548  0.1341
  142OSM    C3S15459   0.426   2.496   2.817 -0.0335 -0.8205 -0.0854
  142OSM    H3S15460   0.530   2.456   2.821  1.0656  1.7692 -0.5070
  142OSM     O315461   0.358   2.445   2.700  0.0319 -0.4468 -0.1572
  142OSM    HO315462   0.367   2.513   2.633 -2.9679 -0.3903 -0.6548
  142OSM    C4S15463   0.356   2.461   2.947 -0.1852  0.1673 -0.2818
  142OSM    H4S15464   0.257   2.507   2.958  0.6217  1.9839 -0.2319
  142OSM    C5S15465   0.421   2.393   3.046  0.4294 -0.1498  0.3020
  142OSM    H5S15466   0.522   2.352   3.032  0.4872 -0.3894  1.3746
  142OSM    C6S15467   0.367   2.356   3.180 -0.3989  0.0854 -0.2022
  142OSM    H6S15468   0.432   2.285   3.236 -1.1936 -1.0566 -0.6755
  142OSM    H6T15469   0.276   2.292   3.173  0.3240 -1.0701  0.5757
  142OSM    C7S15470   0.332   2.470   3.276  0.2143  0.4207  0.7849
  142OSM    H7S15471   0.264   2.531   3.213  2.6951  0.5778 -1.9668
  142OSM    H7T15472   0.419   2.532   3.304  0.0887  0.9579 -0.0031
  142OSM    C8S15473   0.259   2.409   3.403  0.4011 -0.1898 -0.1584
  142OSM    H8S15474   0.330   2.331   3.441  0.4043 -0.8917 -1.5537
  142OSM    H8T15475   0.166   2.352   3.386  1.1600 -1.0521 -1.6473
  142OSM    C9S15476   0.234   2.511   3.518  0.5480 -0.1536  0.1540
  142OSM    H9S15477   0.148   2.573   3.486  0.1172 -0.5474  0.5311
  142OSM    H9T15478   0.330   2.565   3.532 -0.8247  3.0415 -1.6656
  142OSM   C10S15479   0.216   2.445   3.654 -0.0251 -0.4693  0.4669
  142OSM   H10S15480   0.306   2.381   3.668  0.9364  1.0302  1.3835
  142OSM   H10T15481   0.124   2.382   3.650  0.0306 -0.5513  0.4696
  142OSM   C11S15482   0.227   2.547   3.770 -0.0722  0.3578  0.1322
  142OSM   H11S15483   0.127   2.595   3.770 -1.5703 -2.5390  0.4718
  142OSM   H11T15484   0.292   2.632   3.743 -1.3876  0.6121 -2.6159
  142OSM   C12S15485   0.256   2.486   3.908 -0.5687 -0.8465  0.6389
  142OSM   H12S15486   0.357   2.439   3.908 -0.1752 -0.1107 -1.1760
  142OSM   H12T15487   0.187   2.405   3.938 -0.3688 -0.9717  0.7627
  142OSM   C13S15488   0.249   2.593   4.012 -0.2996  0.1997  0.1729
  142OSM   H13S15489   0.143   2.621   4.031  0.1788  0.1879  3.5843
  142OSM   H13T15490   0.305   2.686   3.987 -0.1453  1.1489  3.4895
  142OSM   C14S15491   0.296   2.538   4.151  0.6316  0.5139  0.3013
  142OSM   H14S15492   0.386   2.474   4.144 -1.6842 -2.8735 -1.6077
  142OSM   H14T15493   0.218   2.467   4.188  0.1095  0.9358  0.0268
  142OSM   C15S15494   0.302   2.656   4.255  0.3040  0.0479 -0.2552
  142OSM   H15S15495   0.197   2.689   4.271 -0.0877  0.2341 -2.8601
  142OSM   H15T15496   0.360   2.735   4.203 -0.7480  0.9964 -0.0267
  142OSM   C16S15497   0.377   2.619   4.388 -0.2363  0.4490  0.4161
  142OSM   H16S15498   0.392   2.716   4.439 -1.2491  2.2108 -2.3877
  142OSM   H16T15499   0.478   2.584   4.357 -0.9751 -0.9018 -0.6383
  142OSM   C17S15500   0.312   2.506   4.463 -0.0900 -0.4117  0.1228
  142OSM   H17S15501   0.298   2.410   4.408  0.5646 -1.1145  1.1453
  142OSM   H17T15502   0.210   2.540   4.492  0.3384  0.3602  0.7280
  142OSM   C18S15503   0.389   2.479   4.592  0.4155  0.2898 -0.0026
  142OSM   H18S15504   0.321   2.416   4.653  2.4086 -2.3905 -0.3841
  142OSM   H18T15505   0.415   2.570   4.650  1.4572 -0.3932  0.6316
  142OSM   H18U15506   0.483   2.426   4.567  0.7744  1.3964 -1.0658
  142OSM    C1F15507   0.497   2.849   2.948  0.2983 -0.1509 -0.2882
  142OSM     OF15508   0.418   2.922   2.884  0.4053 -0.6224  0.1022
  142OSM    C2F15509   0.587   2.904   3.051 -0.7962  0.0160 -0.7608
  142OSM    H2F15510   0.607   3.010   3.024 -0.7177  0.4897  1.0754
  142OSM    H2G15511   0.685   2.850   3.054 -0.3790  0.7935  0.1671
  142OSM    C3F15512   0.540   2.912   3.199 -0.7985  0.2880 -0.4739
  142OSM    H3F15513   0.436   2.952   3.197 -0.7113  0.4848 -1.8326
  142OSM    H3G15514   0.614   2.980   3.247 -1.1446  1.4104 -1.4729
  142OSM    C4F15515   0.552   2.780   3.271  0.8188 -0.4080  0.3635
  142OSM    H4F15516   0.654   2.736   3.283  0.9841  0.1686  1.1908
  142OSM    H4G15517   0.499   2.697   3.221  2.9796 -1.1267 -0.8878
  142OSM    C5F15518   0.481   2.789   3.410  0.2656 -0.6936 -0.0976
  142OSM    H5F15519   0.484   2.683   3.445 -0.5661 -0.2523  1.3742
  142OSM    H5G15520   0.377   2.813   3.382  0.5823  0.4046 -0.3587
  142OSM    C6F15521   0.545   2.897   3.496  0.2181 -0.0183  0.2062
  142OSM    H6F15522   0.578   2.987   3.440  1.0374  0.1707  0.9653
  142OSM    H6G15523   0.643   2.849   3.520 -0.7946 -1.3491  1.8731
  142OSM    C7F15524   0.471   2.930   3.630 -0.1668  0.6568  0.0555
  142OSM    H7F15525   0.451   2.838   3.688  3.6273  0.2730  1.0340
  142OSM    H7G15526   0.373   2.976   3.604  0.8249  2.9246  0.0964
  142OSM    C8F15527   0.565   3.013   3.722  0.1557  0.0072 -0.8521
  142OSM    H8F15528   0.586   3.104   3.662  1.2712  1.3401  1.4057
  142OSM    H8G15529   0.657   2.959   3.749 -0.5624 -0.6142  0.4457
  142OSM    C9F15530   0.473   3.045   3.837 -0.0941  0.5831  0.2961
  142OSM    H9F15531   0.388   3.112   3.818  0.4157  0.6906 -1.8964
  142OSM   C10F15532   0.482   2.979   3.955  0.3423  1.1714 -0.8093
  142OSM   H10F15533   0.403   2.998   4.029 -1.7847 -1.6036 -2.1891
  142OSM   C11F15534   0.603   2.897   3.983 -0.2651  1.4005 -0.3498
  142OSM   H11F15535   0.696   2.923   3.928 -0.6893  2.3033 -0.6517
  142OSM   H11G15536   0.595   2.791   3.950 -0.7953  2.0701 -2.5404
  142OSM   C12F15537   0.616   2.903   4.137 -0.5516 -0.0923 -0.1669
  142OSM   H12F15538   0.707   2.848   4.168  0.3588  1.3247 -0.2620
  142OSM   H12G15539   0.519   2.870   4.181 -1.7448  2.5110 -0.6302
  142OSM   C13F15540   0.637   3.042   4.187 -0.2250  0.5828 -0.2329
  142OSM   H13F15541   0.560   3.114   4.152 -0.2270  0.9910  0.6064
  142OSM   H13G15542   0.733   3.078   4.144 -0.9199  1.9320 -0.6968
  142OSM   C14F15543   0.638   3.074   4.333 -0.6849  0.1081 -1.2145
  142OSM   H14F15544   0.671   3.177   4.356 -0.1377  0.0029 -1.5329
  142OSM   H14G15545   0.715   3.005   4.374 -2.5883 -1.6596 -0.4227
  142OSM   C15F15546   0.511   3.045   4.412 -0.0807  0.3313 -0.1714
  142OSM   H15F15547   0.536   3.077   4.515 -2.6597 -0.1443  0.6526
  142OSM   H15G15548   0.499   2.935   4.406  0.7839  0.1665  0.8594
  142OSM   C16F15549   0.375   3.116   4.376 -0.0703  0.3746 -0.2081
  142OSM   H16F15550   0.358   3.118   4.266 -1.9669 -2.9518 -0.1032
  142OSM   H16G15551   0.377   3.223   4.405  1.4022  0.8160 -1.7569
  142OSM   C17F15552   0.253   3.050   4.442  0.6042  0.6233  0.4802
  142OSM   H17F15553   0.274   3.039   4.551 -0.0315 -0.2160  0.5272
  142OSM   H17G15554   0.235   2.950   4.398 -2.0768  0.7826  1.0803
  142OSM   C18F15555   0.128   3.122   4.400 -0.1389 -1.0262  0.1851
  142OSM   H18F15556   0.029   3.077   4.424  0.0501 -2.0186 -0.8283
  142OSM   H18G15557   0.133   3.123   4.289  0.4542  1.9389  0.1603
  142OSM   H18H15558   0.138   3.225   4.439 -0.9923  0.5187 -3.3293
  143OSM      N15559   0.856   6.447   2.472  0.1761 -0.4038  0.2862
  143OSM    C1515560   0.998   6.423   2.515 -0.1755  0.0381 -0.2817
  143OSM   H15A15561   1.017   6.320   2.539 -0.1749 -0.3642 -1.8911
  143OSM   H15B15562   1.002   6.482   2.606 -1.2230  0.7252 -0.6626
  143OSM   H15C15563   1.073   6.448   2.441  1.2914 -0.0914  1.1035
  143OSM    C1415564   0.833   6.403   2.330  0.2201 -0.0168  0.4005
  143OSM   H14A15565   0.858   6.299   2.313 -2.1216 -0.8729  1.7372
  143OSM   H14B15566   0.896   6.465   2.269 -0.3863 -1.3009 -1.6382
  143OSM   H14C15567   0.730   6.425   2.306  0.3887 -1.4248 -1.9745
  143OSM    C1315568   0.765   6.363   2.563 -0.2686  0.0162 -0.2152
  143OSM   H13A15569   0.799   6.261   2.555 -1.3204 -0.5919  2.2243
  143OSM   H13B15570   0.661   6.371   2.536 -0.3238  0.9741  0.2319
  143OSM   H13C15571   0.779   6.390   2.666  0.4629 -0.3694 -0.2075
  143OSM    C1215572   0.825   6.597   2.476 -0.3419  1.1307  0.2251
  143OSM   H12A15573   0.721   6.606   2.446 -0.3369  0.2845 -0.0706
  143OSM   H12B15574   0.880   6.633   2.390 -0.1778 -0.8854 -0.5526
  143OSM    C1115575   0.859   6.682   2.600 -0.3390  0.2076 -0.0240
  143OSM   H11A15576   0.799   6.650   2.688 -0.4706 -2.6319 -1.0161
  143OSM   H11B15577   0.822   6.783   2.572 -1.4850 -0.8605 -2.7803
  143OSM      P15578   1.063   6.737   2.756  0.3457 -0.1336 -0.4419
  143OSM    O1315579   1.031   6.649   2.873 -0.3677  0.3395 -0.5096
  143OSM    O1415580   1.207   6.757   2.735 -0.5393  0.4537  0.1429
  143OSM    O1115581   0.993   6.873   2.778  0.4076 -0.6887 -0.1179
  143OSM    O1215582   0.994   6.688   2.619 -0.5648 -0.1272 -0.3470
  143OSM    C1S15583   0.901   6.912   2.879 -0.4720  0.5388 -0.2845
  143OSM    H1S15584   0.877   6.827   2.947  1.1393  0.8135  0.6863
  143OSM    H1T15585   0.800   6.939   2.842 -1.0658 -2.1381 -0.8499
  143OSM     NF15586   0.836   7.046   3.063  0.8734 -0.0139 -0.1751
  143OSM    HNF15587   0.787   7.132   3.050 -0.1694  0.0651  3.2246
  143OSM    C2S15588   0.953   7.012   2.982  0.5574 -0.6040  0.2140
  143OSM    H2S15589   1.035   6.972   3.044  2.8985  1.1236 -1.5621
  143OSM    C3S15590   1.034   7.132   2.913 -0.0758 -0.4556  0.1920
  143OSM    H3S15591   0.958   7.183   2.850 -2.4146 -1.6397  1.9132
  143OSM     O315592   1.143   7.098   2.826  0.1069 -0.2016  0.4168
  143OSM    HO315593   1.129   7.003   2.827  0.1478 -0.2101  0.2064
  143OSM    C4S15594   1.087   7.226   3.013 -0.2344  0.0331  0.8776
  143OSM    H4S15595   1.150   7.180   3.090  0.6662 -0.9770 -0.4038
  143OSM    C5S15596   1.094   7.362   3.005  0.5554 -0.1161 -0.2465
  143OSM    H5S15597   1.046   7.403   2.915  0.4866 -2.6010 -1.4256
  143OSM    C6S15598   1.172   7.453   3.099  0.1975 -0.5603  0.5928
  143OSM    H6S15599   1.109   7.544   3.112  0.2353 -0.3311 -0.6938
  143OSM    H6T15600   1.260   7.479   3.037  0.0439  0.6679  0.8611
  143OSM    C7S15601   1.220   7.391   3.230  0.3305 -0.1323  0.1700
  143OSM    H7S15602   1.287   7.303   3.217 -1.9281 -1.7876 -1.0073
  143OSM    H7T15603   1.133   7.372   3.296  0.7580 -2.3806  0.1733
  143OSM    C8S15604   1.298   7.491   3.310 -0.5601 -0.2094  0.4637
  143OSM    H8S15605   1.226   7.571   3.338  0.3896  0.6051  0.6432
  143OSM    H8T15606   1.376   7.526   3.239 -1.4622 -3.3665 -2.3659
  143OSM    C9S15607   1.364   7.447   3.437  0.4615 -0.1257 -0.4686
  143OSM    H9S15608   1.421   7.533   3.479  1.7105 -1.4610  0.7038
  143OSM    H9T15609   1.441   7.367   3.432  1.3471  0.6781 -0.0042
  143OSM   C10S15610   1.268   7.411   3.559  0.1022 -0.7300  0.0158
  143OSM   H10S15611   1.205   7.327   3.523 -2.0558  1.2791 -1.2035
  143OSM   H10T15612   1.199   7.498   3.567 -0.9780 -1.5624 -0.0136
  143OSM   C11S15613   1.334   7.405   3.695 -0.1905 -0.4022  0.3105
  143OSM   H11S15614   1.408   7.488   3.694 -0.1916 -0.1756 -4.3278
  143OSM   H11T15615   1.390   7.311   3.710  0.1103 -0.1754  0.6147
  143OSM   C12S15616   1.243   7.425   3.813  0.3149 -0.3953 -0.1397
  143OSM   H12S15617   1.181   7.333   3.819 -0.3331  0.0781  0.6988
  143OSM   H12T15618   1.192   7.522   3.794  1.4953  0.1377 -0.6640
  143OSM   C13S15619   1.329   7.432   3.937  0.9188 -0.3017 -0.0650
  143OSM   H13S15620   1.399   7.518   3.945  1.2984 -0.6879  0.7764
  143OSM   H13T15621   1.396   7.344   3.942  0.4722 -0.6902 -0.7690
  143OSM   C14S15622   1.249   7.440   4.065 -0.0166 -0.5801  0.0327
  143OSM   H14S15623   1.194   7.344   4.073 -0.8966  0.0614  2.3797
  143OSM   H14T15624   1.169   7.517   4.069 -1.9247 -2.4695  0.8859
  143OSM   C15S15625   1.334   7.451   4.194  0.4988  0.5452  0.1412
  143OSM   H15S15626   1.420   7.521   4.189  2.8785 -2.1984  0.0236
  143OSM   H15T15627   1.375   7.351   4.220  1.1499  0.6020 -0.6090
  143OSM   C16S15628   1.251   7.488   4.322  0.3386 -0.8705 -0.1126
  143OSM   H16S15629   1.159   7.425   4.327 -0.9287  0.9719  1.6347
  143OSM   H16T15630   1.225   7.596   4.319  0.1391 -0.7708  2.4790
  143OSM   C17S15631   1.322   7.478   4.456  0.5152  0.1146 -0.1334
  143OSM   H17S15632   1.261   7.529   4.533  0.9468  1.1236 -0.4440
  143OSM   H17T15633   1.419   7.533   4.458  1.7951 -1.9672 -1.0181
  143OSM   C18S15634   1.344   7.331   4.499  0.3168  0.1857 -0.1943
  143OSM   H18S15635   1.245   7.280   4.509  1.0259 -1.1240  0.4738
  143OSM   H18T15636   1.401   7.334   4.594  3.2589 -3.4392 -1.5887
  143OSM   H18U15637   1.400   7.275   4.422 -0.8229 -0.5540 -0.5158
  143OSM    C1F15638   0.789   6.954   3.145 -0.6945 -0.1910  0.4646
  143OSM     OF15639   0.856   6.858   3.174 -0.4529 -0.9484  0.1216
  143OSM    C2F15640   0.647   6.977   3.180  0.0147 -0.2127 -0.0079
  143OSM    H2F15641   0.581   7.036   3.113 -0.6645  0.2704  1.0683
  143OSM    H2G15642   0.652   7.049   3.264  1.6437  0.1059 -0.3515
  143OSM    C3F15643   0.570   6.851   3.225  0.0644  0.2690 -0.3339
  143OSM    H3F15644   0.590   6.766   3.157  0.0830 -1.0064  1.2278
  143OSM    H3G15645   0.460   6.866   3.223  0.0598  0.5583  1.0821
  143OSM    C4F15646   0.597   6.791   3.373 -0.3329 -0.4821  1.0632
  143OSM    H4F15647   0.565   6.872   3.442 -1.9251 -0.8002  0.7264
  143OSM    H4G15648   0.706   6.771   3.387 -0.3094 -0.2533  1.2268
  143OSM    C5F15649   0.509   6.676   3.408  0.0079 -0.0175  0.4616
  143OSM    H5F15650   0.529   6.596   3.333  0.8870 -1.7026  2.3920
  143OSM    H5G15651   0.404   6.706   3.385  0.9963  2.4784 -1.3136
  143OSM    C6F15652   0.531   6.624   3.551  0.6754 -0.2972 -0.0249
  143OSM    H6F15653   0.437   6.572   3.583 -0.7024  1.6002 -0.8144
  143OSM    H6G15654   0.533   6.711   3.620  0.2669 -1.2391  1.2210
  143OSM    C7F15655   0.660   6.539   3.570  0.5159 -0.2120  0.4914
  143OSM    H7F15656   0.753   6.577   3.524  0.7528  1.4052  2.1696
  143OSM    H7G15657   0.631   6.445   3.519 -0.8009  0.8569 -0.8354
  143OSM    C8F15658   0.685   6.504   3.715 -0.0504 -0.0924 -0.0077
  143OSM    H8F15659   0.736   6.405   3.712 -2.3027 -1.3343  0.3934
  143OSM    H8G15660   0.585   6.489   3.761  0.5464 -0.3996  1.2422
  143OSM    C9F15661   0.775   6.610   3.785  0.0797 -0.2743 -0.1578
  143OSM    H9F15662   0.854   6.649   3.720  0.5089 -0.1218  0.4511
  143OSM   C10F15663   0.762   6.662   3.905 -0.2799 -0.3557 -1.2026
  143OSM   H10F15664   0.836   6.737   3.936  1.3485 -1.6874 -1.7920
  143OSM   C11F15665   0.652   6.632   4.002  0.5583  0.4865  0.9100
  143OSM   H11F15666   0.621   6.525   3.994 -1.7592  1.2393 -4.1944
  143OSM   H11G15667   0.557   6.675   3.964  1.3787 -0.3662 -2.4260
  143OSM   C12F15668   0.693   6.680   4.142 -0.3856  0.6253 -0.0828
  143OSM   H12F15669   0.707   6.790   4.131 -0.1023  0.4589 -1.6244
  143OSM   H12G15670   0.790   6.642   4.181 -0.7240 -0.5674 -0.3688
  143OSM   C13F15671   0.582   6.632   4.244 -0.6204 -0.1243  0.9656
  143OSM   H13F15672   0.485   6.666   4.200  0.5809  2.1581 -0.0663
  143OSM   H13G15673   0.586   6.701   4.331  0.0593  1.6482 -0.4093
  143OSM   C14F15674   0.597   6.485   4.259  0.3442 -0.0734 -0.1896
  143OSM   H14F15675   0.703   6.455   4.272  0.3001 -0.2726 -0.2887
  143OSM   H14G15676   0.562   6.427   4.171 -3.0265 -0.5091  1.2505
  143OSM   C15F15677   0.524   6.424   4.381 -0.2227 -1.0316  0.0836
  143OSM   H15F15678   0.558   6.461   4.480  2.1761 -3.7398  0.3949
  143OSM   H15G15679   0.548   6.316   4.373 -0.8956 -1.1696 -0.1070
  143OSM   C16F15680   0.372   6.432   4.362  0.5249 -0.1468 -0.1192
  143OSM   H16F15681   0.345   6.406   4.258  2.5618  2.3190 -1.3597
  143OSM   H16G15682   0.339   6.538   4.368 -0.1064 -0.2615 -1.3343
  143OSM   C17F15683   0.295   6.356   4.475  0.8314 -0.0013  0.4413
  143OSM   H17F15684   0.320   6.400   4.573 -2.1622  0.1883  1.2293
  143OSM   H17G15685   0.328   6.250   4.479  1.7063  0.0669 -2.4107
  143OSM   C18F15686   0.145   6.368   4.455 -0.1524 -0.2167  0.1381
  143OSM   H18F15687   0.091   6.327   4.543  0.5565  0.3087  0.8278
  143OSM   H18G15688   0.118   6.307   4.366 -1.3914  0.1868  0.2186
  143OSM   H18H15689   0.123   6.476   4.438  0.8925  0.0959  0.7071
  144OSM      N15690   0.746   0.398   2.246  0.3561 -0.9414 -0.3990
  144OSM    C1515691   0.750   0.533   2.180  0.1020  0.0421  0.9031
  144OSM   H15A15692   0.733   0.606   2.258 -1.1041  0.4453  0.2919
  144OSM   H15B15693   0.664   0.554   2.118  1.3903  0.6151 -0.7486
  144OSM   H15C15694   0.843   0.546   2.127 -1.7777 -0.4832 -2.8335
  144OSM    C1415695   0.612   0.396   2.312 -0.0719  1.0436  0.4536
  144OSM   H14A15696   0.587   0.488   2.363  0.1607  1.2582  0.1874
  144OSM   H14B15697   0.602   0.312   2.379 -0.1519  1.5658  1.1068
  144OSM   H14C15698   0.544   0.370   2.232  0.8777  1.9520 -0.6985
  144OSM    C1315699   0.765   0.285   2.150 -1.1953 -0.5158 -0.2892
  144OSM   H13A15700   0.758   0.203   2.220 -0.8620  0.6925  1.2161
  144OSM   H13B15701   0.862   0.283   2.103 -0.4356 -2.2979  1.2202
  144OSM   H13C15702   0.695   0.291   2.068 -0.7772 -1.3447 -0.7196
  144OSM    C1215703   0.850   0.392   2.348  0.2869  0.8234  0.3011
  144OSM   H12A15704   0.944   0.413   2.300 -0.6250  0.6398 -1.6293
  144OSM   H12B15705   0.861   0.291   2.385  0.6969  0.2728 -1.2712
  144OSM    C1115706   0.843   0.476   2.482 -0.1685  0.0694  0.4102
  144OSM   H11A15707   0.925   0.449   2.552 -0.2425 -0.4663  0.2916
  144OSM   H11B15708   0.748   0.459   2.536 -1.2675  0.6679 -1.2570
  144OSM      P15709   0.963   0.706   2.473 -0.0902  0.0717  0.3083
  144OSM    O1315710   1.082   0.626   2.422  0.5453 -0.7657  0.3770
  144OSM    O1415711   0.937   0.839   2.416  0.1777 -0.2667 -0.0658
  144OSM    O1115712   0.971   0.729   2.629 -0.3259 -0.2895  0.2376
  144OSM    O1215713   0.832   0.619   2.456 -0.2586  0.0180  0.4863
  144OSM    C1S15714   0.857   0.735   2.717 -0.0759  0.6362  0.0756
  144OSM    H1S15715   0.809   0.635   2.716  1.4801 -0.1539 -1.3104
  144OSM    H1T15716   0.776   0.799   2.676 -1.2766 -1.1241 -0.4162
  144OSM     NF15717   0.777   0.748   2.958  0.2237 -0.1879  0.2060
  144OSM    HNF15718   0.734   0.826   3.003  0.9771  0.7734 -0.6867
  144OSM    C2S15719   0.887   0.769   2.866  0.3017  0.6986  0.1575
  144OSM    H2S15720   0.960   0.691   2.893 -0.0790  0.7968  1.5345
  144OSM    C3S15721   0.964   0.902   2.878  0.0005 -0.4438 -0.2881
  144OSM    H3S15722   0.909   0.994   2.848  1.4954  0.0048 -1.8224
  144OSM     O315723   1.092   0.912   2.811  0.1899 -0.4447 -0.3481
  144OSM    HO315724   1.084   0.873   2.723 -2.6572  1.0509 -0.8577
  144OSM    C4S15725   0.996   0.910   3.019 -0.0657  0.7037  0.4147
  144OSM    H4S15726   1.079   0.842   3.043  0.4715 -0.0633 -3.1061
  144OSM    C5S15727   0.960   1.006   3.104 -0.1275  0.2175  0.4244
  144OSM    H5S15728   0.890   1.082   3.067 -0.6434  0.1879  1.3194
  144OSM    C6S15729   1.028   1.022   3.239 -0.6045 -0.0192  0.0636
  144OSM    H6S15730   1.070   1.122   3.261  2.4704  0.1626 -4.9552
  144OSM    H6T15731   1.110   0.948   3.251 -0.8535 -0.0485  1.7496
  144OSM    C7S15732   0.928   0.976   3.343 -0.2055  0.3774  0.0140
  144OSM    H7S15733   0.872   0.882   3.325  0.0420  0.0087  1.0537
  144OSM    H7T15734   0.848   1.052   3.352 -1.8656 -0.9505 -2.4841
  144OSM    C8S15735   0.989   0.952   3.484 -0.2935 -0.1992  0.1964
  144OSM    H8S15736   1.074   0.882   3.467 -2.5179 -2.6078 -1.6600
  144OSM    H8T15737   0.904   0.900   3.533 -0.1436  1.1465  1.9698
  144OSM    C9S15738   1.012   1.081   3.562 -0.4501 -0.1717  0.4932
  144OSM    H9S15739   0.928   1.154   3.555  0.6155  1.2044  1.5450
  144OSM    H9T15740   1.099   1.140   3.527 -0.3385  0.0714  1.1703
  144OSM   C10S15741   1.014   1.052   3.718  0.7715  0.3650  0.0024
  144OSM   H10S15742   0.937   0.975   3.741  1.8671 -0.3646  1.3315
  144OSM   H10T15743   0.990   1.143   3.778  1.6298  0.6321 -0.0502
  144OSM   C11S15744   1.153   1.002   3.765 -0.4098 -0.3947 -0.4514
  144OSM   H11S15745   1.231   1.063   3.715 -0.8476 -1.4535 -2.5277
  144OSM   H11T15746   1.181   0.899   3.733 -0.0273 -0.4530  0.0481
  144OSM   C12S15747   1.179   1.008   3.914 -0.5116 -0.8690  0.0912
  144OSM   H12S15748   1.100   0.956   3.973 -0.9680 -1.0321 -0.6418
  144OSM   H12T15749   1.176   1.115   3.944  1.5387 -1.0037  0.8696
  144OSM   C13S15750   1.330   0.972   3.955  0.3599  0.3740 -0.2853
  144OSM   H13S15751   1.402   1.052   3.928 -2.3029  3.0835  0.0140
  144OSM   H13T15752   1.360   0.881   3.900  0.9221  0.4422 -0.0938
  144OSM   C14S15753   1.330   0.942   4.110 -0.9129 -0.2463 -0.9945
  144OSM   H14S15754   1.270   0.851   4.132  0.2438 -0.4910  1.5605
  144OSM   H14T15755   1.302   1.021   4.183  3.5414  0.2546  0.4583
  144OSM   C15S15756   1.475   0.911   4.146  0.8594  0.6318 -0.5248
  144OSM   H15S15757   1.539   0.997   4.118 -0.6252  2.5055  1.4861
  144OSM   H15T15758   1.505   0.819   4.092  2.3163  0.4462  0.5611
  144OSM   C16S15759   1.512   0.874   4.288  0.6599  0.0586  0.0701
  144OSM   H16S15760   1.609   0.825   4.311 -0.1462 -0.7480  2.0921
  144OSM   H16T15761   1.436   0.808   4.336  0.4387  2.1523  2.8786
  144OSM   C17S15762   1.514   0.997   4.383  0.4326  0.1330  0.2020
  144OSM   H17S15763   1.409   1.013   4.415 -0.4052 -2.1940 -1.1600
  144OSM   H17T15764   1.556   1.087   4.333  0.5854 -0.4180 -0.6685
  144OSM   C18S15765   1.610   0.973   4.509 -0.4011 -0.0819  0.0416
  144OSM   H18S15766   1.573   0.883   4.564 -0.4792 -0.4175 -0.5533
  144OSM   H18T15767   1.602   1.058   4.580 -0.4195 -0.3078  0.3106
  144OSM   H18U15768   1.716   0.952   4.484 -0.2825 -0.2265  0.6424
  144OSM    C1F15769   0.730   0.626   2.986 -0.5705  0.2859 -0.0472
  144OSM     OF15770   0.769   0.525   2.923  0.0708  0.0086 -0.2033
  144OSM    C2F15771   0.617   0.612   3.078  0.0780  0.6966  0.1323
  144OSM    H2F15772   0.546   0.528   3.064  0.2168  0.5650  0.2197
  144OSM    H2G15773   0.560   0.707   3.090  0.3543  0.7137  1.5118
  144OSM    C3F15774   0.677   0.580   3.220 -0.3199  0.1889  0.0318
  144OSM    H3F15775   0.587   0.573   3.284 -1.8603  0.0835 -2.0509
  144OSM    H3G15776   0.744   0.661   3.256  2.0848 -1.2221 -0.9853
  144OSM    C4F15777   0.748   0.442   3.234 -0.1275 -0.2260 -0.1750
  144OSM    H4F15778   0.838   0.443   3.169  0.2037 -0.2625  0.2768
  144OSM    H4G15779   0.677   0.365   3.194 -1.2420  0.6758  0.0099
  144OSM    C5F15780   0.781   0.399   3.379 -0.1005 -0.0741 -0.4882
  144OSM    H5F15781   0.822   0.296   3.373  0.1485  0.0406 -0.7974
  144OSM    H5G15782   0.686   0.397   3.437  0.6285 -0.4977  0.7386
  144OSM    C6F15783   0.881   0.492   3.451 -0.1701  0.2485 -0.1890
  144OSM    H6F15784   0.946   0.540   3.375 -0.5623 -1.1754 -1.4725
  144OSM    H6G15785   0.948   0.425   3.510 -0.0184  0.7841  0.2590
  144OSM    C7F15786   0.806   0.601   3.535 -0.1742  0.1122 -0.7870
  144OSM    H7F15787   0.721   0.641   3.476 -0.5279 -0.9921 -1.0469
  144OSM    H7G15788   0.868   0.690   3.560  0.8462 -0.1953 -2.1059
  144OSM    C8F15789   0.754   0.533   3.664 -0.1102  0.1308 -0.2297
  144OSM    H8F15790   0.699   0.437   3.649 -0.6315  0.2836  0.6681
  144OSM    H8G15791   0.674   0.592   3.713  1.1470  2.8204 -1.2380
  144OSM    C9F15792   0.862   0.500   3.772  1.0118 -0.2511  0.0486
  144OSM    H9F15793   0.918   0.409   3.748  1.5766  0.4169 -1.2788
  144OSM   C10F15794   0.889   0.568   3.881 -0.5005 -0.7796  0.2300
  144OSM   H10F15795   0.973   0.527   3.941  0.4072  0.5269 -0.1105
  144OSM   C11F15796   0.823   0.694   3.932  0.1284  0.4833  0.1674
  144OSM   H11F15797   0.749   0.739   3.862 -0.6487 -0.6497  0.2505
  144OSM   H11G15798   0.896   0.772   3.965 -0.9645  1.4904  0.2620
  144OSM   C12F15799   0.743   0.658   4.056 -0.3261 -0.1973  0.3938
  144OSM   H12F15800   0.678   0.570   4.038  0.5244 -0.3774 -2.3363
  144OSM   H12G15801   0.675   0.742   4.081 -0.4033 -0.5494  1.3866
  144OSM   C13F15802   0.835   0.630   4.181 -0.4580  0.2671  0.4505
  144OSM   H13F15803   0.893   0.723   4.197 -0.7179  0.3305  1.0380
  144OSM   H13G15804   0.901   0.541   4.165 -0.6136  0.0823  0.8145
  144OSM   C14F15805   0.755   0.599   4.306  0.4401 -0.6648  0.0760
  144OSM   H14F15806   0.700   0.503   4.294  0.8887 -0.7080 -2.0605
  144OSM   H14G15807   0.673   0.673   4.322 -0.8665 -2.1169  0.3463
  144OSM   C15F15808   0.846   0.589   4.429 -0.4693  0.2221  1.3192
  144OSM   H15F15809   0.888   0.689   4.450  0.8211 -0.2092  0.8773
  144OSM   H15G15810   0.925   0.523   4.387 -1.3312  0.7532 -1.2775
  144OSM   C16F15811   0.785   0.527   4.551  0.3117  0.7510  0.4723
  144OSM   H16F15812   0.738   0.429   4.532 -1.2564  1.4518  0.5897
  144OSM   H16G15813   0.694   0.590   4.565  0.6169  1.1730  0.5720
  144OSM   C17F15814   0.869   0.532   4.676  0.3493 -0.6487 -0.0260
  144OSM   H17F15815   0.798   0.525   4.762  1.7327 -0.7702  1.1452
  144OSM   H17G15816   0.921   0.627   4.703 -0.8086  0.4006 -1.3549
  144OSM   C18F15817   0.972   0.421   4.684 -0.6349  0.5794 -0.4345
  144OSM   H18F15818   0.924   0.324   4.659  3.1230 -1.6980  0.4018
  144OSM   H18G15819   1.007   0.397   4.787 -0.6048 -0.2952 -0.6413
  144OSM   H18H15820   1.061   0.449   4.625 -2.0696  2.7629 -1.7119
  145SAPE     N15821   3.367   2.335   7.059  0.2805  0.5823  0.1324
  145SAPE   HN115822   3.408   2.306   7.150  1.7818 -2.5673 -1.3792
  145SAPE   HN215823   3.447   2.360   6.998  1.8729 -2.7497  0.5989
  145SAPE   HN315824   3.308   2.415   7.089 -1.9711 -0.7328 -0.5264
  145SAPE   C1215825   3.282   2.226   6.992  0.0147 -0.1428  0.2831
  145SAPE  H12A15826   3.216   2.291   6.931 -0.0670  0.0906  0.6145
  145SAPE  H12B15827   3.216   2.181   7.070 -0.8632 -0.3095 -0.5403
  145SAPE   C1115828   3.361   2.120   6.919 -0.1527 -0.7532 -0.1761
  145SAPE  H11A15829   3.412   2.163   6.830 -2.1738  1.8001 -0.2155
  145SAPE  H11B15830   3.291   2.039   6.889 -0.6743 -0.3793  0.0290
  145SAPE     P15831   3.468   1.933   7.081 -0.0369 -0.1232 -0.1454
  145SAPE   O1315832   3.567   1.949   7.183  0.4492 -0.4061  0.3585
  145SAPE   O1415833   3.331   1.895   7.121 -0.3635  0.0094 -0.6299
  145SAPE   O1215834   3.465   2.068   7.002  0.0618 -0.3151 -0.5953
  145SAPE   O1115835   3.514   1.833   6.975 -0.3255  0.4116  0.0892
  145SAPE    C115836   3.644   1.762   6.984  0.2463  0.6987  0.5689
  145SAPE    HA15837   3.664   1.725   7.087 -1.7148 -1.4361  0.2466
  145SAPE    HB15838   3.629   1.670   6.924 -0.1991  0.6192  0.7982
  145SAPE    C215839   3.768   1.840   6.920 -0.7761  0.1780 -0.1297
  145SAPE    HS15840   3.783   1.932   6.980 -0.4224 -0.0868  0.1909
  145SAPE   O2115841   3.726   1.873   6.789 -0.1460 -0.3075 -0.0098
  145SAPE   C2115842   3.796   1.960   6.722 -0.1248 -0.7080 -0.0642
  145SAPE   O2215843   3.882   2.038   6.770  0.0619  0.2902 -0.0414
  145SAPE   C2215844   3.767   1.975   6.571  0.4570  0.2403 -0.0077
  145SAPE   H2R15845   3.775   1.868   6.540 -2.0547  0.2991 -1.0996
  145SAPE   H2S15846   3.660   2.006   6.570  0.5455  0.5359 -1.1970
  145SAPE    C315847   3.914   1.759   6.933 -0.1940 -0.8052  0.3263
  145SAPE    HX15848   3.946   1.773   7.038  0.8179  2.7295 -0.3205
  145SAPE    HY15849   3.979   1.815   6.861 -2.3432  0.3020 -0.8397
  145SAPE   O3115850   3.906   1.619   6.913 -0.6326 -0.1067  0.1313
  145SAPE   C3115851   3.874   1.573   6.791  0.8110 -0.1930 -0.9138
  145SAPE   O3215852   3.875   1.640   6.687  0.6343  0.0662  0.1838
  145SAPE   C3215853   3.833   1.421   6.790 -1.2074 -0.2977  0.2253
  145SAPE   H2X15854   3.729   1.408   6.827 -1.0585  1.6678  1.4594
  145SAPE   H2Y15855   3.902   1.359   6.852 -1.0897  0.0922  0.4874
  145SAPE   C2315856   3.852   2.086   6.497  0.0014 -0.6731  0.2247
  145SAPE   H3R15857   3.952   2.037   6.489 -1.0724 -3.6472  2.8390
  145SAPE   H3S15858   3.859   2.178   6.558  1.4409 -0.7654  0.2450
  145SAPE   C2415859   3.789   2.115   6.354  0.0021  0.3090  0.3996
  145SAPE   H4R15860   3.831   2.218   6.344  0.3139  0.1317 -0.1543
  145SAPE   H4S15861   3.678   2.114   6.361  0.0421 -0.8392  1.0765
  145SAPE   C2515862   3.829   2.003   6.257 -0.0750 -0.6668 -0.5333
  145SAPE   H5R15863   3.796   1.901   6.282 -1.5700  0.3537  1.9497
  145SAPE   C2615864   3.890   2.026   6.138 -0.4695  1.0284 -0.7622
  145SAPE   H6R15865   3.900   1.946   6.062  1.3153 -0.5339  1.0112
  145SAPE   C2715866   3.951   2.157   6.104  0.1119 -0.2514 -0.1761
  145SAPE   H7R15867   4.004   2.197   6.194  1.1655 -0.4038 -0.7112
  145SAPE   H7S15868   3.867   2.228   6.094 -0.4703 -1.0516 -1.1232
  145SAPE   C2815869   4.047   2.174   5.987 -0.4123  0.5722  0.0153
  145SAPE   H8R15870   4.149   2.201   6.016 -0.1557  0.3734 -0.7023
  145SAPE   C2915871   4.034   2.134   5.859 -0.0935 -0.0592  0.0414
  145SAPE   H9R15872   4.120   2.140   5.791 -1.9180  1.5517 -2.2926
  145SAPE  C21015873   3.911   2.083   5.790  0.9656  0.0058  0.9279
  145SAPE  H10R15874   3.837   2.047   5.865  0.4732  1.5486  1.2211
  145SAPE  H10S15875   3.940   1.991   5.735 -0.5165 -0.3421  0.6806
  145SAPE  C21115876   3.831   2.173   5.692 -0.1744  0.3429 -0.4672
  145SAPE  H11R15877   3.840   2.155   5.584 -1.3406 -2.2877 -0.1940
  145SAPE  C21215878   3.725   2.251   5.731  0.6334  0.0689 -0.3159
  145SAPE  H12R15879   3.681   2.319   5.657  0.2770 -0.1058 -0.2700
  145SAPE  C21315880   3.651   2.267   5.870 -0.8793 -0.6187  0.2048
  145SAPE  H13R15881   3.694   2.194   5.942 -2.6031 -1.1596  0.7418
  145SAPE  H13S15882   3.542   2.248   5.862 -0.6667 -1.2199 -2.0676
  145SAPE  C21415883   3.681   2.405   5.924 -0.4671 -0.0573  0.4477
  145SAPE  H14R15884   3.787   2.437   5.919 -0.0183 -1.3436  1.2368
  145SAPE  C21515885   3.596   2.482   5.997 -0.1239 -0.4926  0.2829
  145SAPE  H15R15886   3.632   2.583   6.022 -0.2910 -0.5804  0.9051
  145SAPE  C21615887   3.455   2.464   6.042 -0.0978  0.2265 -0.0515
  145SAPE  H16R15888   3.394   2.391   5.986 -1.0007 -0.5115  1.7906
  145SAPE  H16S15889   3.407   2.564   6.034  1.0279  0.8100  0.3211
  145SAPE  C21715890   3.469   2.430   6.191  0.8049 -0.6369 -0.2150
  145SAPE  H17R15891   3.529   2.515   6.230 -0.2171  0.5803 -1.2083
  145SAPE  H17S15892   3.529   2.339   6.210  0.8910 -0.6260 -0.4349
  145SAPE  C21815893   3.331   2.423   6.263 -0.3170 -0.7392  0.1920
  145SAPE  H18R15894   3.267   2.512   6.241 -1.1697 -1.8673 -2.3254
  145SAPE  H18S15895   3.347   2.416   6.372 -2.1781  1.2641  0.6554
  145SAPE  C21915896   3.257   2.300   6.218  1.3326  0.3344 -0.4579
  145SAPE  H19R15897   3.337   2.223   6.225  3.5068  2.4291 -0.8520
  145SAPE  H19S15898   3.231   2.290   6.110 -1.6236  0.9643  0.1078
  145SAPE  C22015899   3.127   2.272   6.284 -0.0706  0.8991 -1.0380
  145SAPE  H20R15900   3.140   2.323   6.383 -0.3138 -1.1187  0.0892
  145SAPE  H20S15901   3.109   2.163   6.290 -0.7254  0.9088 -2.4390
  145SAPE  H20T15902   3.048   2.330   6.232 -1.1226  2.5145  2.1038
  145SAPE   C3315903   3.821   1.362   6.651 -0.2076  0.5635  0.0133
  145SAPE   H3X15904   3.762   1.428   6.584  0.3675  0.5798 -0.4879
  145SAPE   H3Y15905   3.779   1.259   6.660  1.9245 -0.3267  0.2686
  145SAPE   C3415906   3.959   1.338   6.582  1.3760 -0.3798 -0.0256
  145SAPE   H4X15907   4.019   1.273   6.649  1.4705  0.1563  0.4158
  145SAPE   H4Y15908   4.011   1.436   6.571 -0.1164  0.3379 -1.0795
  145SAPE   C3515909   3.945   1.261   6.444  0.2350 -0.0521  0.1683
  145SAPE   H5X15910   3.914   1.155   6.452 -1.9208  0.5891  1.0472
  145SAPE   H5Y15911   4.037   1.274   6.384 -0.0065  1.1411  0.0237
  145SAPE   C3615912   3.838   1.315   6.355  1.1206 -1.1990 -0.0241
  145SAPE   H6X15913   3.838   1.425   6.370 -3.8058 -1.0167  0.2517
  145SAPE   H6Y15914   3.734   1.283   6.374  0.9109 -0.6116 -0.1911
  145SAPE   C3715915   3.867   1.286   6.207 -0.0600  0.2883  0.5034
  145SAPE   H7X15916   3.866   1.175   6.201 -0.3756  0.3186 -0.1086
  145SAPE   H7Y15917   3.964   1.336   6.190 -0.9043  2.0936  0.7106
  145SAPE   C3815918   3.777   1.366   6.109  0.0303 -0.3152 -0.0080
  145SAPE   H8X15919   3.787   1.476   6.114 -0.4039 -0.3040  0.7704
  145SAPE   H8Y15920   3.674   1.348   6.146  0.2416 -1.1505  0.1984
  145SAPE   C3915921   3.777   1.318   5.965 -0.0183  0.1385 -0.6875
  145SAPE   H9X15922   3.735   1.215   5.967  0.6687 -0.1392  0.9864
  145SAPE   H9Y15923   3.882   1.304   5.930  0.6949  2.1929  0.4650
  145SAPE  C31015924   3.692   1.414   5.874  0.5056 -0.0510  0.0397
  145SAPE  H10X15925   3.762   1.494   5.842  0.3734 -0.0209 -0.1749
  145SAPE  H10Y15926   3.603   1.447   5.932 -0.1656 -0.3192 -0.8136
  145SAPE  C31115927   3.638   1.337   5.747  0.2048 -0.2642 -0.4785
  145SAPE  H11X15928   3.596   1.238   5.773 -1.3792  0.1060 -1.4869
  145SAPE  H11Y15929   3.729   1.320   5.685 -0.3391  1.2443 -1.7807
  145SAPE  C31215930   3.545   1.417   5.654  0.3528 -0.1497  0.5706
  145SAPE  H12X15931   3.573   1.524   5.643  0.7512 -0.4625 -2.3288
  145SAPE  H12Y15932   3.445   1.412   5.704 -1.0193 -1.8300 -2.0724
  145SAPE  C31315933   3.520   1.357   5.514  0.2305 -0.1005 -0.1920
  145SAPE  H13X15934   3.441   1.417   5.465 -0.9896 -1.4165  0.1025
  145SAPE  H13Y15935   3.489   1.251   5.526 -0.5768  0.2223  0.6237
  145SAPE  C31415936   3.639   1.373   5.422 -0.4574  0.5041 -0.2948
  145SAPE  H14X15937   3.730   1.337   5.474 -0.7206  0.8298  0.4008
  145SAPE  H14Y15938   3.658   1.481   5.403  1.6755 -0.0728 -1.7358
  145SAPE  C31515939   3.621   1.306   5.285  0.1777  0.0479  0.6874
  145SAPE  H15X15940   3.537   1.360   5.236 -1.3698 -0.8231  2.2781
  145SAPE  H15Y15941   3.604   1.200   5.314  2.0210  0.0668  1.9695
  145SAPE  C31615942   3.749   1.309   5.198  0.3307 -0.7366 -0.1240
  145SAPE  H16X15943   3.820   1.245   5.253 -0.0385 -0.5534  0.5765
  145SAPE  H16Y15944   3.791   1.412   5.196  1.0458 -1.0176  0.1024
  145SAPE  C31715945   3.733   1.260   5.055  0.0605 -0.1568 -0.2690
  145SAPE  H17X15946   3.825   1.298   5.006  0.6292 -1.9549 -0.6463
  145SAPE  H17Y15947   3.645   1.314   5.014 -1.4522 -1.2199  1.4237
  145SAPE  C31815948   3.718   1.112   5.036 -0.0851  0.0102 -0.2605
  145SAPE  H18X15949   3.708   1.068   4.934 -2.6401 -0.8667  0.3068
  145SAPE  H18Y15950   3.623   1.079   5.083 -0.8709  0.3918 -1.5162
  145SAPE  H18Z15951   3.801   1.059   5.088  1.0283  2.4537  0.5990
  146SAPE     N15952   6.510   2.929   6.860 -0.6264  0.8770 -0.3865
  146SAPE   HN115953   6.557   3.021   6.845  0.9711  0.0871 -0.5101
  146SAPE   HN215954   6.426   2.958   6.914 -0.3316 -0.6900  1.0104
  146SAPE   HN315955   6.575   2.877   6.923 -0.3363  0.3438 -1.1133
  146SAPE   C1215956   6.491   2.857   6.729 -0.2336 -0.3580 -0.1483
  146SAPE  H12A15957   6.584   2.850   6.668 -1.0501 -1.8832 -1.2839
  146SAPE  H12B15958   6.409   2.917   6.685 -1.5980  0.5420  3.2839
  146SAPE   C1115959   6.450   2.712   6.751  0.5257 -0.5711  0.3014
  146SAPE  H11A15960   6.537   2.659   6.796  0.7621 -1.4118 -1.0609
  146SAPE  H11B15961   6.438   2.686   6.644  2.9883 -0.7693  0.0162
  146SAPE     P15962   6.236   2.577   6.831 -0.0074  0.2519  0.0373
  146SAPE   O1315963   6.325   2.459   6.828  0.4475  0.2108 -0.3199
  146SAPE   O1415964   6.142   2.596   6.946 -0.2440  0.5534 -0.1241
  146SAPE   O1215965   6.327   2.704   6.817 -0.0787  0.3631  0.3417
  146SAPE   O1115966   6.150   2.569   6.698 -0.3247 -0.1374 -0.3030
  146SAPE    C115967   6.161   2.643   6.582  1.2415  0.1173 -0.0220
  146SAPE    HA15968   6.055   2.664   6.554  0.8780 -1.1885  0.3136
  146SAPE    HB15969   6.207   2.743   6.598 -1.7298  1.7275 -0.6558
  146SAPE    C215970   6.228   2.562   6.463 -0.9014 -0.6476 -0.0556
  146SAPE    HS15971   6.338   2.560   6.482 -1.1360  0.0826  1.5448
  146SAPE   O2115972   6.225   2.639   6.339  0.3092  0.1894 -0.2321
  146SAPE   C2115973   6.285   2.750   6.321  0.6703  0.2324  0.7459
  146SAPE   O2215974   6.364   2.803   6.398 -0.1664  0.9327  0.4659
  146SAPE   C2215975   6.238   2.829   6.207  0.0029  0.0278 -0.2336
  146SAPE   H2R15976   6.192   2.924   6.242  2.8204  2.1789 -1.8780
  146SAPE   H2S15977   6.326   2.865   6.148 -0.2970 -0.6531 -1.1340
  146SAPE    C315978   6.183   2.414   6.440 -0.8453  0.7308  0.8245
  146SAPE    HX15979   6.075   2.414   6.414 -0.5132 -2.7930 -1.1444
  146SAPE    HY15980   6.196   2.369   6.540  4.1880  0.0197  0.0930
  146SAPE   O3115981   6.257   2.343   6.337 -0.1446  0.1459  0.2028
  146SAPE   C3115982   6.374   2.298   6.377  0.3526  0.7003  0.3013
  146SAPE   O3215983   6.421   2.310   6.489 -0.6469 -0.4071  0.1031
  146SAPE   C3215984   6.451   2.231   6.259  0.5510 -1.2508  0.6884
  146SAPE   H2X15985   6.398   2.142   6.218  1.6031 -0.3969 -2.8595
  146SAPE   H2Y15986   6.555   2.202   6.286  1.0346  0.2235  0.4964
  146SAPE   C2315987   6.125   2.758   6.125  0.1588 -0.1760  0.6588
  146SAPE   H3R15988   6.081   2.818   6.042 -1.6008 -2.2113  0.0160
  146SAPE   H3S15989   6.042   2.741   6.197 -1.1942 -0.1689 -0.8228
  146SAPE   C2415990   6.180   2.641   6.046 -0.5160  1.1459  0.8552
  146SAPE   H4R15991   6.096   2.592   5.991 -1.0774 -0.5436  3.0846
  146SAPE   H4S15992   6.199   2.561   6.121  0.2612 -0.0816 -0.5838
  146SAPE   C2515993   6.301   2.650   5.957  0.3435  0.1660  0.6348
  146SAPE   H5R15994   6.398   2.655   6.008 -0.1573 -3.2935  2.2269
  146SAPE   C2615995   6.295   2.633   5.824  0.0986 -1.3595 -0.7822
  146SAPE   H6R15996   6.388   2.668   5.776 -0.0148  0.5429  0.2665
  146SAPE   C2715997   6.174   2.616   5.733  0.1149  0.9772  0.0932
  146SAPE   H7R15998   6.086   2.577   5.787 -1.3965  3.0346 -0.7159
  146SAPE   H7S15999   6.200   2.539   5.658  1.0699 -0.5571  1.9310
  146SAPE   C2816000   6.132   2.743   5.648 -0.4617  0.4650  0.9419
  146SAPE   H8R16001   6.078   2.815   5.711 -0.4976 -0.0874  1.5519
  146SAPE   C2916002   6.167   2.771   5.522 -0.4913  0.0023  0.8903
  146SAPE   H9R16003   6.111   2.853   5.475 -1.1397 -0.1283  1.4285
  146SAPE  C21016004   6.260   2.697   5.421  0.0317  1.2478  0.0918
  146SAPE  H10R16005   6.329   2.635   5.482 -0.6153  0.1781 -0.2345
  146SAPE  H10S16006   6.321   2.769   5.363  0.5527  0.6479 -0.1121
  146SAPE  C21116007   6.191   2.599   5.333 -0.4515 -0.0883  0.1885
  146SAPE  H11R16008   6.123   2.524   5.375  1.7515 -2.9022 -0.9146
  146SAPE  C21216009   6.205   2.597   5.202  0.1153  0.9231  0.5602
  146SAPE  H12R16010   6.145   2.527   5.142  0.0210  0.4792  1.1601
  146SAPE  C21316011   6.300   2.678   5.121 -0.6674 -0.0744 -0.0206
  146SAPE  H13R16012   6.402   2.653   5.158 -0.8678 -0.0257  0.5777
  146SAPE  H13S16013   6.288   2.787   5.135  1.1780  0.0088  1.3649
  146SAPE  C21416014   6.309   2.630   4.981  0.3921  0.1645  0.4563
  146SAPE  H14R16015   6.332   2.524   4.965 -1.0823 -0.1540  0.3033
  146SAPE  C21516016   6.312   2.702   4.870 -0.4978  0.2326 -0.5207
  146SAPE  H15R16017   6.327   2.646   4.776  0.2446 -2.1686  0.9601
  146SAPE  C21616018   6.303   2.850   4.867 -0.7586 -0.8058 -0.4158
  146SAPE  H16R16019   6.334   2.887   4.967 -0.3953 -1.6940 -0.1849
  146SAPE  H16S16020   6.199   2.890   4.855 -0.1659  1.3817  1.1214
  146SAPE  C21716021   6.405   2.901   4.764  0.0978 -0.2902 -0.5883
  146SAPE  H17R16022   6.417   3.010   4.782  3.2776 -0.0198 -3.3135
  146SAPE  H17S16023   6.359   2.885   4.664  1.3085 -2.2426 -0.8927
  146SAPE  C21816024   6.546   2.836   4.776  0.1785 -0.0922 -0.2239
  146SAPE  H18R16025   6.554   2.726   4.772 -0.5904 -0.1178 -3.3175
  146SAPE  H18S16026   6.587   2.870   4.873 -2.7128 -0.4038  1.2262
  146SAPE  C21916027   6.642   2.896   4.668  0.8489 -0.1995  0.2035
  146SAPE  H19R16028   6.601   2.855   4.574 -0.2908  0.3371  0.4470
  146SAPE  H19S16029   6.746   2.859   4.686  0.3969 -1.5356  0.1786
  146SAPE  C22016030   6.636   3.042   4.655 -0.2757 -0.6569 -0.0597
  146SAPE  H20R16031   6.656   3.087   4.754 -0.9231  1.2507 -0.7550
  146SAPE  H20S16032   6.538   3.084   4.624 -0.4375  1.3584  2.7845
  146SAPE  H20T16033   6.700   3.092   4.579 -1.2704  1.1720  0.2358
  146SAPE   C3316034   6.466   2.329   6.143 -0.0400  0.3982  0.2929
  146SAPE   H3X16035   6.523   2.417   6.180 -0.1774  0.1253  1.1699
  146SAPE   H3Y16036   6.363   2.367   6.128  0.4358  1.9476  0.7656
  146SAPE   C3416037   6.524   2.268   6.020 -0.1816 -0.3205  0.0774
  146SAPE   H4X16038   6.483   2.166   6.004  1.3128 -1.0553  0.6571
  146SAPE   H4Y16039   6.632   2.254   6.042 -0.6561 -1.8077  1.6866
  146SAPE   C3516040   6.509   2.354   5.895 -0.0149  0.2825 -0.0547
  146SAPE   H5X16041   6.570   2.447   5.896 -0.0274  0.2941 -0.3260
  146SAPE   H5Y16042   6.400   2.377   5.905 -0.2968 -1.0343  0.0168
  146SAPE   C3616043   6.538   2.281   5.774  0.2649  0.3398 -0.4711
  146SAPE   H6X16044   6.479   2.187   5.771  2.6939 -1.2490 -1.6168
  146SAPE   H6Y16045   6.643   2.244   5.776 -0.1118 -0.8440 -1.7152
  146SAPE   C3716046   6.515   2.374   5.652  0.5811  0.6122  0.2586
  146SAPE   H7X16047   6.603   2.442   5.647  0.3755  0.7997 -2.3410
  146SAPE   H7Y16048   6.423   2.435   5.660 -1.0567 -1.4097 -1.7789
  146SAPE   C3816049   6.527   2.302   5.518  0.3077  0.8984 -0.8061
  146SAPE   H8X16050   6.453   2.220   5.525 -0.1872  1.4462  1.1185
  146SAPE   H8Y16051   6.624   2.250   5.504 -1.4799 -2.9317 -0.0702
  146SAPE   C3916052   6.496   2.392   5.405  0.4512  0.6414 -0.1202
  146SAPE   H9X16053   6.563   2.479   5.423 -0.9744  2.1184 -1.6849
  146SAPE   H9Y16054   6.393   2.434   5.400  0.7864  1.6573  0.8877
  146SAPE  C31016055   6.535   2.314   5.277 -0.3007 -0.1480  1.0508
  146SAPE  H10X16056   6.525   2.392   5.198  1.1359 -0.0009  0.9786
  146SAPE  H10Y16057   6.464   2.231   5.257  0.5561 -0.8560  0.9133
  146SAPE  C31116058   6.682   2.261   5.264  0.8998 -0.3059 -0.2900
  146SAPE  H11X16059   6.705   2.169   5.321  1.2065  0.5478  1.0116
  146SAPE  H11Y16060   6.763   2.327   5.303  1.4950 -0.3382 -1.4272
  146SAPE  C31216061   6.727   2.224   5.117 -0.1030 -0.2552 -0.4779
  146SAPE  H12X16062   6.831   2.188   5.131  0.0348 -0.5632 -2.1021
  146SAPE  H12Y16063   6.718   2.317   5.056 -2.3833 -0.8204 -1.0992
  146SAPE  C31316064   6.655   2.107   5.046  0.4391  0.1618  0.0264
  146SAPE  H13X16065   6.646   2.023   5.118 -1.5642  0.0177 -0.3200
  146SAPE  H13Y16066   6.718   2.062   4.967 -0.6428 -2.5225  0.5713
  146SAPE  C31416067   6.518   2.145   4.988 -0.1178 -0.5377 -0.1940
  146SAPE  H14X16068   6.528   2.187   4.886 -0.7936 -0.8734 -0.4011
  146SAPE  H14Y16069   6.473   2.230   5.044 -1.6772 -2.2852  1.3679
  146SAPE  C31516070   6.429   2.029   5.012 -0.2903  0.4234  0.2658
  146SAPE  H15X16071   6.440   2.007   5.120 -0.3614 -0.3607  0.1246
  146SAPE  H15Y16072   6.478   1.943   4.962 -0.5565 -0.5085  1.5647
  146SAPE  C31616073   6.289   2.056   4.968  0.5910  0.6119 -0.6930
  146SAPE  H16X16074   6.283   2.066   4.858  2.9380  1.4315 -0.7923
  146SAPE  H16Y16075   6.250   2.147   5.019  1.0218 -0.5690  1.9126
  146SAPE  C31716076   6.192   1.940   4.998  0.6943  0.1674 -0.7893
  146SAPE  H17X16077   6.240   1.844   4.970  0.2712 -1.0353  2.1946
  146SAPE  H17Y16078   6.094   1.959   4.950  0.0782 -1.6350 -0.3019
  146SAPE  C31816079   6.164   1.935   5.151  0.3515 -0.3836  0.8598
  146SAPE  H18X16080   6.091   1.855   5.178 -1.8654  0.5219 -1.9531
  146SAPE  H18Y16081   6.126   2.023   5.207  0.6130 -0.3803  1.0357
  146SAPE  H18Z16082   6.265   1.909   5.190  0.8519  0.4009  0.1387
  147SAPE     N16083   4.993   6.112   7.108 -0.1198  0.1101  0.0766
  147SAPE   HN116084   4.976   6.086   7.207  1.2216 -1.1859  0.0143
  147SAPE   HN216085   4.962   6.024   7.063 -0.5384  0.6248 -0.6578
  147SAPE   HN316086   5.097   6.103   7.101 -0.0821 -0.0447  0.7433
  147SAPE   C1216087   4.921   6.238   7.061  0.0252  0.1216  0.1864
  147SAPE  H12A16088   4.813   6.211   7.067  0.3962 -1.5999 -0.5434
  147SAPE  H12B16089   4.941   6.250   6.953 -1.8205 -0.3278 -0.2464
  147SAPE   C1116090   4.941   6.359   7.152 -0.3044  0.1908  0.3549
  147SAPE  H11A16091   5.048   6.378   7.174 -0.0259 -1.0904  0.1597
  147SAPE  H11B16092   4.900   6.342   7.254  2.0329 -0.4220  1.2517
  147SAPE     P16093   4.912   6.615   7.102 -0.6079 -0.1069  0.0115
  147SAPE   O1316094   4.800   6.674   7.181 -0.2515 -1.2175 -0.2827
  147SAPE   O1416095   5.053   6.632   7.144  0.0809  0.7256  0.1194
  147SAPE   O1216096   4.881   6.465   7.083  0.0704  0.6880  0.3717
  147SAPE   O1116097   4.900   6.661   6.947 -0.3428 -0.7247 -0.0837
  147SAPE    C116098   4.874   6.583   6.830  0.0973 -0.2956  0.5312
  147SAPE    HA16099   4.901   6.478   6.853  0.7433 -0.7613 -2.0257
  147SAPE    HB16100   4.769   6.582   6.793  0.7058 -1.0827 -1.2887
  147SAPE    C216101   4.954   6.643   6.708 -0.2501 -0.0710 -0.3453
  147SAPE    HS16102   4.945   6.753   6.718 -0.2534 -0.0249 -0.8297
  147SAPE   O2116103   4.884   6.592   6.599 -0.2373 -0.3714 -0.7088
  147SAPE   C2116104   4.873   6.676   6.495 -0.0784  0.2724 -0.9311
  147SAPE   O2216105   4.902   6.792   6.496 -0.6823 -0.7969  0.3799
  147SAPE   C2216106   4.821   6.593   6.382  0.3067  0.3533  0.2512
  147SAPE   H2R16107   4.872   6.495   6.389 -0.7728 -0.2618 -0.2846
  147SAPE   H2S16108   4.713   6.570   6.392  0.4668 -0.3350  0.4269
  147SAPE    C316109   5.107   6.596   6.696  0.7932 -0.0325 -0.5438
  147SAPE    HX16110   5.104   6.490   6.730 -0.4775  0.8894  2.5323
  147SAPE    HY16111   5.155   6.658   6.775 -0.8179  1.7878 -0.9306
  147SAPE   O3116112   5.155   6.615   6.560 -0.6427  0.0303 -0.2632
  147SAPE   C3116113   5.281   6.663   6.565 -0.8289  0.1509  0.3589
  147SAPE   O3216114   5.359   6.661   6.657  0.1841  0.7637 -0.7914
  147SAPE   C3216115   5.314   6.730   6.430  0.3972 -0.2117  0.0789
  147SAPE   H2X16116   5.415   6.770   6.453  1.5891 -1.7356 -2.1434
  147SAPE   H2Y16117   5.249   6.821   6.424 -0.3514 -0.3157  4.1496
  147SAPE   C2316118   4.833   6.650   6.235 -0.5754  0.2239  0.8433
  147SAPE   H3R16119   4.937   6.687   6.222 -0.4076 -0.2119  0.9164
  147SAPE   H3S16120   4.775   6.745   6.231 -0.0028  0.5508 -2.4678
  147SAPE   C2416121   4.757   6.562   6.137 -0.4218 -0.3690  0.3188
  147SAPE   H4R16122   4.740   6.629   6.050  0.5569 -0.1314  0.2988
  147SAPE   H4S16123   4.651   6.548   6.170  0.4141 -1.7191  2.7336
  147SAPE   C2516124   4.830   6.433   6.091 -0.2683 -0.0041  0.8934
  147SAPE   H5R16125   4.851   6.364   6.174  1.1036 -0.4209  0.2318
  147SAPE   C2616126   4.870   6.415   5.967  0.9305  1.1449 -0.1892
  147SAPE   H6R16127   4.922   6.319   5.951  2.2222  1.1536  3.1855
  147SAPE   C2716128   4.846   6.483   5.835 -1.0497 -0.1066  0.5163
  147SAPE   H7R16129   4.869   6.591   5.845 -1.8253 -0.0049  1.2605
  147SAPE   H7S16130   4.739   6.480   5.804 -1.6093  2.3767  1.9563
  147SAPE   C2816131   4.929   6.417   5.723  0.0283 -0.2282 -0.2473
  147SAPE   H8R16132   5.025   6.376   5.756 -0.3980 -1.4026 -0.4153
  147SAPE   C2916133   4.898   6.412   5.591 -0.2350  0.7671  0.0928
  147SAPE   H9R16134   4.966   6.357   5.525  0.4043 -0.2694  1.5477
  147SAPE  C21016135   4.781   6.461   5.513 -0.1975 -1.2262 -0.0259
  147SAPE  H10R16136   4.722   6.533   5.572 -0.3805  0.4664 -2.1506
  147SAPE  H10S16137   4.720   6.370   5.494 -0.4330 -1.1104  0.1728
  147SAPE  C21116138   4.826   6.536   5.387  0.1185  0.6645 -0.2816
  147SAPE  H11R16139   4.854   6.640   5.409 -0.6608  0.8768 -0.2638
  147SAPE  C21216140   4.825   6.490   5.263 -0.2181  0.0750 -0.7276
  147SAPE  H12R16141   4.855   6.559   5.183 -1.2844  0.7894 -0.5314
  147SAPE  C21316142   4.788   6.356   5.214  0.0868 -0.2885 -0.1927
  147SAPE  H13R16143   4.705   6.367   5.140  1.2288 -0.6111 -1.5608
  147SAPE  H13S16144   4.747   6.295   5.298  0.2273 -0.2617 -0.1043
  147SAPE  C21416145   4.908   6.277   5.166  0.6673 -0.8251 -0.5259
  147SAPE  H14R16146   4.967   6.261   5.258 -0.4183 -2.1837 -0.0381
  147SAPE  C21516147   4.932   6.222   5.047 -0.8697  0.1085  0.5438
  147SAPE  H15R16148   5.018   6.154   5.034 -0.2572  0.4966  2.2530
  147SAPE  C21616149   4.850   6.250   4.926 -0.4509 -0.3860  0.7358
  147SAPE  H16R16150   4.910   6.237   4.833 -0.3868 -0.9128  0.8465
  147SAPE  H16S16151   4.813   6.354   4.930  0.0200 -0.1984  0.3488
  147SAPE  C21716152   4.731   6.166   4.906  0.0053  0.1878  0.4884
  147SAPE  H17R16153   4.679   6.206   4.817  3.8873  0.7920 -1.7658
  147SAPE  H17S16154   4.663   6.169   4.994 -1.1234 -0.3050 -0.3485
  147SAPE  C21816155   4.768   6.022   4.850  0.1562 -0.0736 -0.5191
  147SAPE  H18R16156   4.853   5.969   4.899 -0.2976 -1.7878 -1.4761
  147SAPE  H18S16157   4.811   6.032   4.748 -0.3701  0.2368 -0.7113
  147SAPE  C21916158   4.657   5.918   4.851 -0.8978 -0.0009 -0.1159
  147SAPE  H19R16159   4.594   5.924   4.942 -0.7242 -0.6284  0.0497
  147SAPE  H19S16160   4.698   5.815   4.852 -0.6493  0.0020 -2.5802
  147SAPE  C22016161   4.558   5.933   4.729  0.2440  0.9254 -0.1537
  147SAPE  H20R16162   4.498   5.840   4.722  1.1922  0.3087 -0.2648
  147SAPE  H20S16163   4.615   5.940   4.634 -1.0385  1.7627 -0.8941
  147SAPE  H20T16164   4.487   6.018   4.741 -0.6293  0.3574 -1.1456
  147SAPE   C3316165   5.315   6.629   6.312 -0.2651 -0.3183  0.0866
  147SAPE   H3X16166   5.226   6.563   6.313 -0.4342 -0.0999  1.0500
  147SAPE   H3Y16167   5.405   6.566   6.325  0.9611  1.2954 -0.2803
  147SAPE   C3416168   5.322   6.700   6.179 -0.5491 -0.3659 -0.3335
  147SAPE   H4X16169   5.416   6.759   6.167 -0.8855  0.0987 -0.7429
  147SAPE   H4Y16170   5.249   6.784   6.176 -0.1071  0.1576  1.6142
  147SAPE   C3516171   5.288   6.604   6.060  0.0806 -0.5012 -0.7015
  147SAPE   H5X16172   5.177   6.596   6.059  0.1691 -2.2251 -0.7444
  147SAPE   H5Y16173   5.328   6.505   6.091  0.8468 -0.0295 -0.1370
  147SAPE   C3616174   5.330   6.659   5.924 -0.2486  0.4429 -0.1023
  147SAPE   H6X16175   5.439   6.641   5.913 -0.3887 -1.6962  1.3688
  147SAPE   H6Y16176   5.301   6.766   5.910 -0.5520  0.5031  0.8649
  147SAPE   C3716177   5.262   6.586   5.813 -0.1135  0.4880  0.5268
  147SAPE   H7X16178   5.152   6.601   5.814 -0.2812  1.8732 -5.0552
  147SAPE   H7Y16179   5.304   6.483   5.819 -0.7094  0.3382  3.8355
  147SAPE   C3816180   5.306   6.634   5.667 -0.1986 -0.3410  0.0959
  147SAPE   H8X16181   5.411   6.616   5.635 -0.6752 -1.7637 -0.7993
  147SAPE   H8Y16182   5.283   6.741   5.684  0.4269 -0.4818  2.0991
  147SAPE   C3916183   5.222   6.588   5.552  0.1930 -0.1450  0.0279
  147SAPE   H9X16184   5.122   6.636   5.554  0.8723  1.3599 -0.8030
  147SAPE   H9Y16185   5.201   6.479   5.565 -1.2265  0.0053 -0.7777
  147SAPE  C31016186   5.285   6.614   5.416  0.1112  1.2216  0.1466
  147SAPE  H10X16187   5.383   6.561   5.410 -0.7421 -0.3089 -1.4703
  147SAPE  H10Y16188   5.299   6.723   5.405 -1.3650  1.5010  0.7733
  147SAPE  C31116189   5.199   6.563   5.295 -1.0314 -0.6502 -0.2997
  147SAPE  H11X16190   5.115   6.633   5.276 -1.1852 -0.2290  1.7152
  147SAPE  H11Y16191   5.152   6.464   5.310 -2.1722 -0.3003 -1.3435
  147SAPE  C31216192   5.276   6.541   5.158  0.3487  1.1509  0.5132
  147SAPE  H12X16193   5.345   6.458   5.183 -0.9894  0.0135  0.4756
  147SAPE  H12Y16194   5.334   6.636   5.149  0.6424  0.9274  0.0143
  147SAPE  C31316195   5.194   6.501   5.035 -0.6703  0.2073  0.2023
  147SAPE  H13X16196   5.110   6.572   5.021 -1.0410 -0.2517  0.0712
  147SAPE  H13Y16197   5.153   6.407   5.078  1.2326 -0.0448  1.6060
  147SAPE  C31416198   5.267   6.480   4.905  0.6713 -0.2612 -0.6426
  147SAPE  H14X16199   5.316   6.570   4.861 -0.3392  0.5001 -0.2475
  147SAPE  H14Y16200   5.197   6.453   4.824  1.5365 -1.7179 -0.9489
  147SAPE  C31516201   5.380   6.375   4.913 -0.3948 -0.2513  0.3986
  147SAPE  H15X16202   5.326   6.279   4.926 -1.1054  0.1969  0.8021
  147SAPE  H15Y16203   5.447   6.390   5.000 -0.6612 -1.0756  0.7574
  147SAPE  C31616204   5.452   6.379   4.782 -0.3835  0.4565  0.4587
  147SAPE  H16X16205   5.389   6.370   4.691  0.2918 -1.8734  0.1653
  147SAPE  H16Y16206   5.524   6.295   4.791 -0.3520  0.5403  1.0756
  147SAPE  C31716207   5.550   6.494   4.771 -0.0791  0.0064 -1.1393
  147SAPE  H17X16208   5.600   6.501   4.870  1.3958 -0.8015 -1.7857
  147SAPE  H17Y16209   5.509   6.596   4.762  0.5505  0.6879  2.3847
  147SAPE  C31816210   5.642   6.464   4.658 -0.3322 -0.0765 -0.0116
  147SAPE  H18X16211   5.694   6.366   4.672 -1.4524 -0.4598  1.6839
  147SAPE  H18Y16212   5.718   6.545   4.649  0.2063 -0.4499  1.0201
  147SAPE  H18Z16213   5.583   6.468   4.564  0.6762  0.3142 -0.6487
  148SAPE     N16214   1.233   6.255   7.022 -0.3141 -0.2613  0.2547
  148SAPE   HN116215   1.303   6.278   6.949  1.2607  0.0861  1.8008
  148SAPE   HN216216   1.144   6.271   6.971  0.3066  0.7882 -0.5401
  148SAPE   HN316217   1.243   6.329   7.094  2.3235  0.2928 -0.5690
  148SAPE   C1216218   1.265   6.115   7.070  0.9010  0.8374 -0.5711
  148SAPE  H12A16219   1.346   6.120   7.146  1.2186  1.0068 -0.9178
  148SAPE  H12B16220   1.292   6.063   6.975 -1.6697 -1.0244 -0.3979
  148SAPE   C1116221   1.148   6.047   7.142 -0.0744 -0.7659  0.6207
  148SAPE  H11A16222   1.148   6.073   7.250 -0.2825  0.9708  0.2281
  148SAPE  H11B16223   1.166   5.939   7.121 -1.2632 -0.8821  0.0725
  148SAPE     P16224   0.891   6.010   7.077 -0.0348 -0.5970 -0.3827
  148SAPE   O1316225   0.855   5.958   7.208  0.6930 -0.4837 -0.0675
  148SAPE   O1416226   0.787   6.094   7.011 -0.0635 -0.2787 -0.2882
  148SAPE   O1216227   1.027   6.095   7.083 -0.3396 -0.2113  0.9551
  148SAPE   O1116228   0.937   5.896   6.983  0.3719 -0.4906  0.3375
  148SAPE    C116229   0.994   5.915   6.855  0.0826 -0.3549  0.4858
  148SAPE    HA16230   1.036   6.015   6.828 -1.0787  0.0067 -0.0507
  148SAPE    HB16231   1.074   5.839   6.842 -0.3289 -1.0244  1.7590
  148SAPE    C216232   0.892   5.884   6.746 -0.5904 -0.0390 -0.0845
  148SAPE    HS16233   0.951   5.853   6.657 -0.3615 -2.4611  0.8407
  148SAPE   O2116234   0.797   5.983   6.718  0.3263 -0.1854 -0.0432
  148SAPE   C2116235   0.838   6.079   6.638 -0.1311 -0.7129 -0.7199
  148SAPE   O2216236   0.945   6.086   6.589 -1.0444 -0.0241  0.2217
  148SAPE   C2216237   0.719   6.161   6.615  0.2279 -0.2685 -0.2684
  148SAPE   H2R16238   0.632   6.096   6.593  0.3574 -0.0071 -1.6392
  148SAPE   H2S16239   0.701   6.224   6.705  0.1289 -0.3627 -0.2220
  148SAPE    C316240   0.823   5.750   6.795 -0.4309  0.6608  0.0567
  148SAPE    HX16241   0.762   5.768   6.886 -1.2629  1.8011 -0.7011
  148SAPE    HY16242   0.900   5.672   6.816 -2.4981 -1.7206 -0.7477
  148SAPE   O3116243   0.728   5.707   6.699 -0.4769 -0.1554 -0.2163
  148SAPE   C3116244   0.780   5.650   6.590  0.0276 -0.1870 -0.3613
  148SAPE   O3216245   0.901   5.621   6.580  0.2566 -0.3763  0.4061
  148SAPE   C3216246   0.664   5.619   6.496  0.0489 -0.3508 -1.0085
  148SAPE   H2X16247   0.580   5.589   6.562  0.4320  0.2619 -0.2280
  148SAPE   H2Y16248   0.684   5.522   6.446 -1.6012 -1.6869  0.7748
  148SAPE   C2316249   0.735   6.243   6.487 -0.2606  0.7515  0.0267
  148SAPE   H3R16250   0.748   6.170   6.404  0.6910 -0.8573  1.5340
  148SAPE   H3S16251   0.826   6.305   6.500 -0.9860  1.6410  0.9962
  148SAPE   C2416252   0.614   6.326   6.437 -0.5653  0.1468  1.2019
  148SAPE   H4R16253   0.532   6.253   6.425  1.1276 -1.8286  1.0618
  148SAPE   H4S16254   0.624   6.351   6.329 -0.2637 -1.7495  0.7649
  148SAPE   C2516255   0.560   6.442   6.517 -0.1130  0.1804 -0.2678
  148SAPE   H5R16256   0.466   6.414   6.568 -0.5041  1.7668 -0.0809
  148SAPE   C2616257   0.620   6.562   6.540  0.2882 -0.1334 -0.8217
  148SAPE   H6R16258   0.566   6.641   6.593  0.5093 -0.4849 -0.0553
  148SAPE   C2716259   0.755   6.611   6.485  0.9220  0.8655 -0.2354
  148SAPE   H7R16260   0.739   6.706   6.429  0.4202  0.7281 -0.3247
  148SAPE   H7S16261   0.797   6.551   6.400  0.9621  1.1505 -0.4181
  148SAPE   C2816262   0.848   6.628   6.600  0.7263 -0.0587  0.3081
  148SAPE   H8R16263   0.801   6.695   6.674  1.6974  1.4294 -0.3865
  148SAPE   C2916264   0.970   6.585   6.616 -0.9069  0.3795  0.4098
  148SAPE   H9R16265   1.026   6.616   6.705  3.2981 -0.1273 -1.8160
  148SAPE  C21016266   1.055   6.505   6.511  0.6012  0.4230  0.1371
  148SAPE  H10R16267   1.107   6.575   6.442 -1.7348  1.4620 -0.6642
  148SAPE  H10S16268   0.989   6.454   6.437  0.2436 -0.1311  0.8272
  148SAPE  C21116269   1.147   6.398   6.556 -0.4396  0.2691 -0.5256
  148SAPE  H11R16270   1.100   6.312   6.605  0.1680  1.1800  1.7569
  148SAPE  C21216271   1.280   6.405   6.559 -0.5955 -0.9082 -0.1268
  148SAPE  H12R16272   1.343   6.322   6.596  3.1092  2.1213  1.0771
  148SAPE  C21316273   1.361   6.532   6.518  0.7431 -0.3546 -0.5862
  148SAPE  H13R16274   1.300   6.624   6.521  0.7406 -0.3643 -0.3752
  148SAPE  H13S16275   1.388   6.516   6.411 -0.6743  0.7905 -1.1534
  148SAPE  C21416276   1.473   6.562   6.608 -0.6821  0.0645 -0.5255
  148SAPE  H14R16277   1.545   6.479   6.618 -1.2577 -0.5358 -1.2184
  148SAPE  C21516278   1.506   6.675   6.676 -0.5638 -0.1502  0.3335
  148SAPE  H15R16279   1.600   6.682   6.734 -0.9564  0.5248  0.8980
  148SAPE  C21616280   1.444   6.814   6.679  0.4875 -0.2899  0.0105
  148SAPE  H16R16281   1.424   6.843   6.785 -0.8384  0.2228 -0.3652
  148SAPE  H16S16282   1.348   6.815   6.623  1.0344 -0.7037 -0.9494
  148SAPE  C21716283   1.532   6.933   6.629 -0.0347  0.5433 -0.2023
  148SAPE  H17R16284   1.478   7.023   6.666 -2.5055 -1.2846  0.9586
  148SAPE  H17S16285   1.525   6.933   6.518 -0.8207  0.1978 -0.1603
  148SAPE  C21816286   1.676   6.930   6.667 -0.5191 -0.3545 -0.2038
  148SAPE  H18R16287   1.715   6.831   6.634  0.2644 -0.1888  0.2180
  148SAPE  H18S16288   1.670   6.932   6.778 -1.0763  1.0860 -0.2407
  148SAPE  C21916289   1.756   7.035   6.592  0.6840 -0.6337  0.1766
  148SAPE  H19R16290   1.688   7.120   6.573  2.2469  0.9845  1.5472
  148SAPE  H19S16291   1.781   6.995   6.491 -2.5951  0.5951 -1.2396
  148SAPE  C22016292   1.874   7.071   6.678 -0.1324 -0.1070 -0.5974
  148SAPE  H20R16293   1.970   7.017   6.660  0.9973  0.0336  3.8560
  148SAPE  H20S16294   1.852   7.056   6.786 -2.7884  0.3491 -1.0164
  148SAPE  H20T16295   1.894   7.180   6.665  1.4706 -0.1967  0.7553
  148SAPE   C3316296   0.639   5.737   6.390  0.1633  0.2746  0.3879
  148SAPE   H3X16297   0.629   5.828   6.454 -1.3508 -1.6344  3.0735
  148SAPE   H3Y16298   0.537   5.711   6.357 -0.2454  1.1670  0.9098
  148SAPE   C3416299   0.740   5.737   6.276 -0.1022 -1.0324 -0.0024
  148SAPE   H4X16300   0.692   5.783   6.187 -0.8228 -0.3779  0.7094
  148SAPE   H4Y16301   0.748   5.630   6.246  0.3270 -1.0593  0.2037
  148SAPE   C3516302   0.878   5.799   6.288 -0.0350  1.1208  0.3719
  148SAPE   H5X16303   0.943   5.731   6.348 -0.0325 -0.4907 -1.3716
  148SAPE   H5Y16304   0.879   5.901   6.333  0.6640  2.0763 -1.6956
  148SAPE   C3616305   0.944   5.819   6.153  0.2289 -0.1474  0.2329
  148SAPE   H6X16306   1.039   5.873   6.174 -0.4310  0.1704  2.6821
  148SAPE   H6Y16307   0.882   5.884   6.089  1.8068  2.2304  0.9932
  148SAPE   C3716308   0.970   5.687   6.070  0.1575 -0.1461 -0.6471
  148SAPE   H7X16309   0.880   5.641   6.024  0.3669 -0.7873 -0.4280
  148SAPE   H7Y16310   1.005   5.607   6.139 -1.1706 -0.2236 -0.0460
  148SAPE   C3816311   1.091   5.713   5.978 -0.2531  0.1711 -0.6644
  148SAPE   H8X16312   1.130   5.613   5.950  0.1672  0.3575 -0.7426
  148SAPE   H8Y16313   1.169   5.771   6.030 -2.1343  2.0728  0.1887
  148SAPE   C3916314   1.054   5.784   5.844  0.8568  0.6452  0.1038
  148SAPE   H9X16315   1.139   5.821   5.783 -0.8096  1.7235 -1.6802
  148SAPE   H9Y16316   0.997   5.876   5.869 -1.4121 -0.6801  0.1385
  148SAPE  C31016317   0.952   5.696   5.766 -0.4976 -0.0817 -0.0489
  148SAPE  H10X16318   0.849   5.711   5.803 -0.9804 -1.6847 -0.6807
  148SAPE  H10Y16319   0.979   5.589   5.780 -0.9022 -0.1252  0.4090
  148SAPE  C31116320   0.973   5.709   5.611  0.1094 -1.3306  0.2181
  148SAPE  H11X16321   0.924   5.621   5.564 -0.1538 -2.9176  3.1857
  148SAPE  H11Y16322   1.079   5.710   5.580 -0.3642 -0.4507 -1.4670
  148SAPE  C31216323   0.927   5.835   5.544  0.2671 -0.5027  0.5795
  148SAPE  H12X16324   0.816   5.846   5.549  0.3156  1.4992 -1.2655
  148SAPE  H12Y16325   0.961   5.835   5.438  0.3079  0.2461  0.5877
  148SAPE  C31316326   0.979   5.977   5.586  0.0545  0.3348  0.2009
  148SAPE  H13X16327   1.089   5.983   5.573 -0.1477  0.2527 -1.7011
  148SAPE  H13Y16328   0.956   6.002   5.692 -0.2248  1.9928 -0.2222
  148SAPE  C31416329   0.920   6.091   5.503  0.5534  0.4106  0.2961
  148SAPE  H14X16330   0.812   6.109   5.521  0.5877  1.7578 -0.6837
  148SAPE  H14Y16331   0.922   6.057   5.397 -2.4473  1.1587 -0.0924
  148SAPE  C31516332   1.000   6.223   5.514  0.4995 -0.7335 -0.4044
  148SAPE  H15X16333   1.106   6.194   5.493  0.1161 -1.5235 -1.3830
  148SAPE  H15Y16334   0.981   6.267   5.614 -2.1650 -1.8116 -0.3478
  148SAPE  C31616335   0.949   6.328   5.419 -0.3602  0.3273  1.1548
  148SAPE  H16X16336   0.840   6.337   5.439 -0.7503  0.8001 -0.9104
  148SAPE  H16Y16337   0.961   6.287   5.316  0.2950  0.2478  1.2603
  148SAPE  C31716338   1.010   6.464   5.436  0.6462  0.3256  1.3762
  148SAPE  H17X16339   1.118   6.467   5.410 -0.0002 -1.0103 -2.0341
  148SAPE  H17Y16340   0.981   6.501   5.537 -0.3416  1.5871  0.6714
  148SAPE  C31816341   0.943   6.564   5.339 -0.5252 -0.0225 -0.1309
  148SAPE  H18X16342   0.958   6.533   5.233  3.3965 -0.9346  0.5339
  148SAPE  H18Y16343   0.990   6.662   5.362  0.8112 -0.9016  1.0832
  148SAPE  H18Z16344   0.835   6.565   5.367 -0.3171 -0.0867  0.7040
  149SAPE     N16345   3.507   2.917   6.826  0.3422  0.1496 -0.0029
  149SAPE   HN116346   3.603   2.954   6.811  0.0064  0.5411 -1.3572
  149SAPE   HN216347   3.453   2.991   6.875  0.1113  0.0831 -0.1561
  149SAPE   HN316348   3.513   2.837   6.892  1.1097 -0.7764 -1.1583
  149SAPE   C1216349   3.433   2.868   6.705 -0.4451  0.1371 -0.7894
  149SAPE  H12A16350   3.441   2.952   6.633 -0.1738  2.4901  1.7986
  149SAPE  H12B16351   3.324   2.861   6.728 -0.2576  0.7377  0.3553
  149SAPE   C1116352   3.484   2.736   6.657  0.0918  0.6474  0.4773
  149SAPE  H11A16353   3.595   2.738   6.650  0.2413 -2.6064  0.3101
  149SAPE  H11B16354   3.442   2.702   6.560  1.7248 -0.5059  0.1259
  149SAPE     P16355   3.456   2.481   6.719 -0.0488  0.0887 -0.0270
  149SAPE   O1316356   3.502   2.398   6.831 -0.6213 -0.1432 -0.2497
  149SAPE   O1416357   3.320   2.449   6.661 -0.2556 -0.3601 -0.2325
  149SAPE   O1216358   3.459   2.631   6.756  0.9251 -0.4055  0.3822
  149SAPE   O1116359   3.562   2.478   6.605 -0.6633 -0.3396  0.3909
  149SAPE    C116360   3.692   2.412   6.605 -0.9088 -0.2338  0.0268
  149SAPE    HA16361   3.695   2.314   6.657  1.3752 -1.0259 -1.4097
  149SAPE    HB16362   3.722   2.386   6.501  1.4541 -1.0702  0.8412
  149SAPE    C216363   3.799   2.501   6.665 -0.3996  0.4081  0.0660
  149SAPE    HS16364   3.767   2.536   6.765 -0.7355 -0.7754  0.3911
  149SAPE   O2116365   3.827   2.608   6.570  0.0237  0.5266 -0.3925
  149SAPE   C2116366   3.870   2.723   6.623 -0.4935 -0.4960  0.7393
  149SAPE   O2216367   3.886   2.749   6.740  0.2908 -0.5448  0.1636
  149SAPE   C2216368   3.895   2.830   6.515 -0.2313  0.3757  0.2920
  149SAPE   H2R16369   3.936   2.914   6.575  0.4245  1.3885 -1.4947
  149SAPE   H2S16370   3.977   2.784   6.455  0.1078  0.8159  0.4179
  149SAPE    C316371   3.940   2.425   6.688  1.1331 -0.2008 -0.3821
  149SAPE    HX16372   3.911   2.335   6.745  1.5552 -0.0501  0.0739
  149SAPE    HY16373   4.009   2.482   6.753 -1.5804  2.0017  0.7562
  149SAPE   O3116374   3.995   2.384   6.561 -0.3957 -0.3063 -0.4372
  149SAPE   C3116375   4.083   2.467   6.501  0.4550  0.4328 -0.1408
  149SAPE   O3216376   4.135   2.566   6.556  0.1483  0.3222 -0.1550
  149SAPE   C3216377   4.111   2.423   6.355  0.1613  0.3512 -0.0874
  149SAPE   H2X16378   4.013   2.387   6.319  1.0168 -2.6163  0.2236
  149SAPE   H2Y16379   4.180   2.336   6.350 -0.5659 -0.6783  3.7711
  149SAPE   C2316380   3.773   2.881   6.435  0.7918 -0.2860  0.2822
  149SAPE   H3R16381   3.822   2.962   6.377 -2.3112  1.5177 -0.0674
  149SAPE   H3S16382   3.700   2.927   6.506  1.7971  0.9744  0.5521
  149SAPE   C2416383   3.711   2.786   6.337  0.1672  0.4745  0.1480
  149SAPE   H4R16384   3.633   2.833   6.274 -0.5760  0.9990  1.4149
  149SAPE   H4S16385   3.651   2.713   6.396  0.8291 -0.2756 -0.0943
  149SAPE   C2516386   3.808   2.710   6.245 -0.7818 -0.3973 -0.1160
  149SAPE   H5R16387   3.849   2.618   6.288  2.2821 -0.3904 -2.6499
  149SAPE   C2616388   3.864   2.746   6.128  0.3012  0.7305 -0.1853
  149SAPE   H6R16389   3.932   2.669   6.090 -0.2545 -1.4477  2.8246
  149SAPE   C2716390   3.838   2.874   6.049 -0.0915  0.8725  0.7456
  149SAPE   H7R16391   3.934   2.926   6.034 -0.1847  0.4273 -1.8942
  149SAPE   H7S16392   3.772   2.946   6.103 -0.4903 -0.5730  2.2994
  149SAPE   C2816393   3.773   2.846   5.916 -0.8581  0.4687  0.1645
  149SAPE   H8R16394   3.663   2.851   5.915 -0.9149 -0.0999 -2.0782
  149SAPE   C2916395   3.835   2.785   5.807 -0.3837  0.0430  0.7473
  149SAPE   H9R16396   3.782   2.778   5.711  1.5236  0.6742 -0.4235
  149SAPE  C21016397   3.980   2.742   5.779 -0.9431 -0.6207 -0.8272
  149SAPE  H10R16398   4.029   2.806   5.855 -1.9000 -1.5139  0.5874
  149SAPE  H10S16399   4.006   2.776   5.677 -0.9704  1.3750 -0.2167
  149SAPE  C21116400   4.012   2.598   5.809  0.4203 -0.4920  0.1602
  149SAPE  H11R16401   4.040   2.572   5.912  2.6964 -0.9404 -0.5173
  149SAPE  C21216402   4.042   2.503   5.715 -0.1771  0.8699 -0.3363
  149SAPE  H12R16403   4.046   2.398   5.749  0.7124 -0.1070 -3.2044
  149SAPE  C21316404   4.056   2.524   5.566  0.1805  0.2254  0.0767
  149SAPE  H13R16405   4.154   2.485   5.532 -0.2801  0.0671 -1.1453
  149SAPE  H13S16406   4.054   2.631   5.536 -1.3089 -0.1490 -1.3316
  149SAPE  C21416407   3.952   2.455   5.481  0.4889 -0.6394 -0.7710
  149SAPE  H14R16408   3.927   2.353   5.513  0.9090 -0.1463  1.2771
  149SAPE  C21516409   3.921   2.498   5.357 -0.1059  0.0637  0.7299
  149SAPE  H15R16410   3.842   2.446   5.300 -0.0066 -1.1719  1.7000
  149SAPE  C21616411   3.957   2.630   5.298 -0.0909 -0.7373  0.2276
  149SAPE  H16R16412   4.036   2.686   5.353  1.9654 -3.2624  0.0473
  149SAPE  H16S16413   3.868   2.696   5.291  1.3977  1.7232  2.6136
  149SAPE  C21716414   4.015   2.607   5.155 -0.2096  0.0869 -0.6262
  149SAPE  H17R16415   4.092   2.527   5.165  1.0371  1.5166  2.6319
  149SAPE  H17S16416   4.063   2.701   5.121 -0.5303  0.4974  0.0457
  149SAPE  C21816417   3.912   2.568   5.045 -0.3303  0.4541 -0.3806
  149SAPE  H18R16418   3.833   2.645   5.033  0.8055  1.5325 -1.2967
  149SAPE  H18S16419   3.869   2.467   5.061  2.7519 -0.5214  3.0684
  149SAPE  C21916420   3.984   2.567   4.904 -0.1703 -0.0061 -0.3862
  149SAPE  H19R16421   3.933   2.507   4.825  2.5525 -2.0684 -0.7414
  149SAPE  H19S16422   4.082   2.516   4.906  0.1358  0.6045  1.2516
  149SAPE  C22016423   3.996   2.703   4.843 -0.0306 -0.6853  0.1912
  149SAPE  H20R16424   4.053   2.699   4.747 -0.7007 -1.8218 -0.1825
  149SAPE  H20S16425   4.040   2.779   4.910 -2.9751  0.4917  0.9060
  149SAPE  H20T16426   3.891   2.736   4.832 -0.5417 -1.5780  2.0275
  149SAPE   C3316427   4.164   2.544   6.266 -0.4056 -0.3471 -0.3617
  149SAPE   H3X16428   4.130   2.635   6.319  2.3169 -0.2713  1.4370
  149SAPE   H3Y16429   4.122   2.537   6.163  0.2728 -0.1177 -0.6574
  149SAPE   C3416430   4.321   2.559   6.263 -0.2473 -0.2294 -0.1304
  149SAPE   H4X16431   4.359   2.456   6.246 -2.1901 -0.6318 -2.5919
  149SAPE   H4Y16432   4.354   2.591   6.364 -1.2580  0.8912 -0.1442
  149SAPE   C3516433   4.365   2.654   6.147 -0.2963  0.1758  0.4383
  149SAPE   H5X16434   4.467   2.687   6.174  0.5115  0.1628 -2.2622
  149SAPE   H5Y16435   4.296   2.742   6.143 -1.6110 -0.8299  0.1325
  149SAPE   C3616436   4.359   2.579   6.015  0.2907 -0.6475  0.1293
  149SAPE   H6X16437   4.258   2.534   5.998  0.1930 -1.4556  2.5129
  149SAPE   H6Y16438   4.421   2.487   6.011 -0.0942 -0.9174 -4.0312
  149SAPE   C3716439   4.396   2.669   5.898 -0.2045 -0.2505 -0.5057
  149SAPE   H7X16440   4.481   2.721   5.947  1.3340 -1.7444 -1.5141
  149SAPE   H7Y16441   4.327   2.753   5.873 -0.2070  1.1567  3.4052
  149SAPE   C3816442   4.436   2.583   5.781  1.0176 -0.3601  0.3801
  149SAPE   H8X16443   4.350   2.513   5.769  1.6095 -1.2876  1.3742
  149SAPE   H8Y16444   4.521   2.521   5.816  1.3925  0.3081  0.6537
  149SAPE   C3916445   4.476   2.653   5.646  0.4701  0.3490  0.3328
  149SAPE   H9X16446   4.569   2.711   5.662  0.5916 -0.1926  1.6744
  149SAPE   H9Y16447   4.392   2.717   5.612 -0.6131 -1.1753  0.0496
  149SAPE  C31016448   4.508   2.547   5.542  1.0360 -0.3725  0.4769
  149SAPE  H10X16449   4.422   2.477   5.537 -0.6474  1.6187 -0.2099
  149SAPE  H10Y16450   4.590   2.485   5.584  0.8272 -0.5615  0.6119
  149SAPE  C31116451   4.541   2.608   5.398 -0.1606 -0.0771  1.6820
  149SAPE  H11X16452   4.602   2.533   5.345 -0.5867  0.5400  0.2591
  149SAPE  H11Y16453   4.595   2.704   5.413 -1.3755  1.0137 -0.4315
  149SAPE  C31216454   4.412   2.637   5.318 -0.9036  0.1407  0.1223
  149SAPE  H12X16455   4.347   2.697   5.384 -0.9118  0.7989 -0.4779
  149SAPE  H12Y16456   4.357   2.546   5.284 -1.3830  0.4028  0.1942
  149SAPE  C31316457   4.438   2.723   5.193 -0.0243  0.4334  0.4412
  149SAPE  H13X16458   4.514   2.799   5.223 -1.7722  2.0816  0.9176
  149SAPE  H13Y16459   4.347   2.778   5.162 -0.3494  1.1546  2.5197
  149SAPE  C31416460   4.497   2.642   5.075 -0.0004  0.7108  0.2288
  149SAPE  H14X16461   4.591   2.593   5.110  0.4550  0.4770 -1.2551
  149SAPE  H14Y16462   4.526   2.718   5.000 -1.0754  1.8159  0.9038
  149SAPE  C31516463   4.403   2.539   5.012 -0.0735 -0.5531  0.1525
  149SAPE  H15X16464   4.306   2.587   4.987  0.0664 -1.0926 -1.5455
  149SAPE  H15Y16465   4.384   2.455   5.083 -0.6055  0.0632  0.7528
  149SAPE  C31616466   4.463   2.500   4.876  0.6340  0.0584  0.2447
  149SAPE  H16X16467   4.420   2.404   4.839 -0.1621  0.1715  0.8617
  149SAPE  H16Y16468   4.571   2.483   4.895  0.0692 -0.8730  3.2180
  149SAPE  C31716469   4.428   2.602   4.767 -0.2173 -0.3247  0.0961
  149SAPE  H17X16470   4.476   2.701   4.784  0.0359 -0.4540  0.1357
  149SAPE  H17Y16471   4.319   2.625   4.761 -0.5997 -1.8624  0.7758
  149SAPE  C31816472   4.478   2.560   4.630  0.2059  0.6461 -0.3013
  149SAPE  H18X16473   4.511   2.645   4.567  0.7346  1.3936  0.9508
  149SAPE  H18Y16474   4.406   2.501   4.570  0.2590 -1.0158  1.1769
  149SAPE  H18Z16475   4.564   2.496   4.660 -0.0095  0.3734 -0.2589
  150SAPE     N16476   0.911   2.984   6.863 -0.2188  0.4598 -0.2738
  150SAPE   HN116477   0.996   2.983   6.923  0.1026  0.6988 -0.7196
  150SAPE   HN216478   0.936   3.054   6.790  0.9358 -0.7851 -1.1338
  150SAPE   HN316479   0.832   3.024   6.917 -0.1569 -0.8103  0.8097
  150SAPE   C1216480   0.869   2.851   6.807  0.1402 -0.3814 -0.3477
  150SAPE  H12A16481   0.908   2.837   6.704 -0.1839 -2.7132 -0.2034
  150SAPE  H12B16482   0.758   2.850   6.803  0.1842 -0.4495 -2.3805
  150SAPE   C1116483   0.922   2.738   6.895  0.4861  0.1198 -0.0288
  150SAPE  H11A16484   1.030   2.757   6.912  0.2519 -0.0168  1.9229
  150SAPE  H11B16485   0.911   2.645   6.835 -1.3025  0.7070 -0.6671
  150SAPE     P16486   0.805   2.606   7.085  0.3593 -0.2141 -0.0073
  150SAPE   O1316487   0.906   2.499   7.108  0.1648 -0.0941 -0.9586
  150SAPE   O1416488   0.711   2.628   7.200 -0.2426 -0.8418  0.3172
  150SAPE   O1216489   0.855   2.741   7.027 -0.3059 -0.4526  0.1038
  150SAPE   O1116490   0.714   2.559   6.965  0.2409 -0.0660  0.0865
  150SAPE    C116491   0.586   2.613   6.930  0.3157 -0.1272 -0.7599
  150SAPE    HA16492   0.509   2.631   7.008  1.0426  2.5654 -0.5683
  150SAPE    HB16493   0.589   2.708   6.871  1.0095  1.9092  2.3234
  150SAPE    C216494   0.509   2.511   6.843  0.0015 -0.3044  0.1968
  150SAPE    HS16495   0.466   2.450   6.926 -1.9486  0.7979  0.0548
  150SAPE   O2116496   0.587   2.434   6.750  0.3462  0.3510 -0.0317
  150SAPE   C2116497   0.555   2.303   6.743 -0.7006  0.1146 -0.0488
  150SAPE   O2216498   0.474   2.254   6.814  0.6207 -0.0320  0.1292
  150SAPE   C2216499   0.634   2.227   6.636  0.1807 -0.1283 -0.3210
  150SAPE   H2R16500   0.721   2.178   6.683 -1.1547 -1.7029  0.6272
  150SAPE   H2S16501   0.578   2.134   6.610  1.2036 -0.5956 -0.9008
  150SAPE    C316502   0.380   2.569   6.775  0.4554  0.0727 -0.4898
  150SAPE    HX16503   0.419   2.613   6.681  2.3677 -0.9147 -0.1939
  150SAPE    HY16504   0.341   2.652   6.839  0.4570 -0.1286 -0.2295
  150SAPE   O3116505   0.289   2.463   6.730 -0.2014  0.3243  0.3181
  150SAPE   C3116506   0.192   2.435   6.815 -0.2278 -0.3133 -0.4462
  150SAPE   O3216507   0.178   2.488   6.923  1.0473  0.4405 -0.1819
  150SAPE   C3216508   0.107   2.319   6.766 -0.1645  0.1090 -0.0661
  150SAPE   H2X16509   0.060   2.289   6.862  1.7783  0.3140  1.0173
  150SAPE   H2Y16510   0.167   2.234   6.726 -2.1896 -0.8050 -1.3071
  150SAPE   C2316511   0.657   2.307   6.504  0.1031  0.2770 -0.1397
  150SAPE   H3R16512   0.746   2.261   6.455 -1.4529 -3.1096 -0.0737
  150SAPE   H3S16513   0.674   2.415   6.526  0.0422  0.3418 -0.4103
  150SAPE   C2416514   0.547   2.282   6.400 -0.0157 -0.7369 -0.5102
  150SAPE   H4R16515   0.511   2.177   6.406 -1.1605 -0.2742  1.8844
  150SAPE   H4S16516   0.590   2.301   6.300 -0.3475  1.6810 -0.2413
  150SAPE   C2516517   0.422   2.365   6.417 -0.6030 -0.3268 -0.2573
  150SAPE   H5R16518   0.368   2.340   6.510 -2.0852  0.1353 -0.9598
  150SAPE   C2616519   0.373   2.453   6.331  0.2730 -0.3946  0.2258
  150SAPE   H6R16520   0.279   2.496   6.369  0.7106  0.3015  0.5379
  150SAPE   C2716521   0.432   2.498   6.205 -0.2201  0.7030  0.0345
  150SAPE   H7R16522   0.540   2.477   6.213 -0.2005  1.0347  0.7237
  150SAPE   H7S16523   0.420   2.604   6.175 -2.9801  0.2460 -0.7612
  150SAPE   C2816524   0.369   2.421   6.092 -0.0980 -0.6645 -0.2607
  150SAPE   H8R16525   0.265   2.389   6.112 -0.8041  1.0552 -1.0005
  150SAPE   C2916526   0.421   2.401   5.970  0.3751 -0.0214  0.0056
  150SAPE   H9R16527   0.359   2.339   5.903  0.8818 -0.8789  0.3107
  150SAPE  C21016528   0.544   2.467   5.910  0.5431  0.5312 -0.0518
  150SAPE  H10R16529   0.604   2.530   5.979 -0.5033  1.4885  0.0147
  150SAPE  H10S16530   0.511   2.550   5.844 -0.5507  1.0243  1.0746
  150SAPE  C21116531   0.639   2.372   5.845 -0.2553  0.1403  0.5298
  150SAPE  H11R16532   0.691   2.306   5.917  0.4461  0.2691  0.1563
  150SAPE  C21216533   0.649   2.342   5.713  0.4164  0.5269 -0.5761
  150SAPE  H12R16534   0.716   2.259   5.687  0.4442 -0.4491  2.2323
  150SAPE  C21316535   0.565   2.393   5.602 -0.4570  0.1047  0.2451
  150SAPE  H13R16536   0.466   2.422   5.643 -0.3147 -1.6062  1.9466
  150SAPE  H13S16537   0.539   2.306   5.537 -0.3622  0.7646 -0.7047
  150SAPE  C21416538   0.632   2.510   5.531 -0.1280 -0.0078 -0.5156
  150SAPE  H14R16539   0.666   2.602   5.581  1.8651  0.4484 -2.5560
  150SAPE  C21516540   0.676   2.493   5.407  0.0162 -0.0909 -0.0019
  150SAPE  H15R16541   0.740   2.572   5.366 -1.8581  1.1203 -0.6987
  150SAPE  C21616542   0.643   2.380   5.310  0.1348  0.3532  0.8771
  150SAPE  H16R16543   0.589   2.432   5.228  1.5745  1.0407  0.3346
  150SAPE  H16S16544   0.566   2.306   5.341  0.8263 -1.1682 -0.8361
  150SAPE  C21716545   0.767   2.306   5.257  0.2636 -0.1663 -0.0965
  150SAPE  H17R16546   0.721   2.226   5.194  0.3266  0.9439 -1.5963
  150SAPE  H17S16547   0.827   2.265   5.341 -0.1199 -2.0163 -0.6650
  150SAPE  C21816548   0.862   2.384   5.164 -0.6016 -0.3017 -0.4969
  150SAPE  H18R16549   0.911   2.474   5.208  0.1947  0.1015 -2.1291
  150SAPE  H18S16550   0.797   2.419   5.081  0.9848 -0.7888 -1.9955
  150SAPE  C21916551   0.986   2.294   5.114  0.2726 -0.6832 -0.6883
  150SAPE  H19R16552   0.946   2.206   5.059  0.8640 -1.4849  0.1218
  150SAPE  H19S16553   1.048   2.267   5.203 -0.4199 -2.0789 -0.5908
  150SAPE  C22016554   1.060   2.386   5.017  0.0109 -0.3770 -0.1697
  150SAPE  H20R16555   1.139   2.336   4.957  0.4726  0.6697 -0.4631
  150SAPE  H20S16556   1.114   2.465   5.073  2.4286 -0.6597 -1.9107
  150SAPE  H20T16557   0.989   2.422   4.940 -2.4344 -0.9799  1.6812
  150SAPE   C3316558  -0.007   2.362   6.683  0.6172  0.1512 -0.2036
  150SAPE   H3X16559  -0.052   2.453   6.727  1.3134 -0.2808  1.4898
  150SAPE   H3Y16560  -0.085   2.284   6.695  0.0398  0.8591  0.7668
  150SAPE   C3416561   0.030   2.373   6.536  0.2765 -0.2544 -0.1390
  150SAPE   H4X16562   0.077   2.277   6.503  2.3692  0.0267  1.7914
  150SAPE   H4Y16563   0.099   2.459   6.529  1.1826 -0.9479  0.1235
  150SAPE   C3516564  -0.107   2.398   6.456  0.0474 -0.0773  0.4931
  150SAPE   H5X16565  -0.168   2.465   6.520  2.4383 -0.0373  2.9436
  150SAPE   H5Y16566  -0.167   2.305   6.447  1.1822 -0.6636 -1.7319
  150SAPE   C3616567  -0.094   2.468   6.318  0.4909  0.4025 -0.1299
  150SAPE   H6X16568  -0.013   2.544   6.323 -0.7773  1.7356  0.6208
  150SAPE   H6Y16569  -0.184   2.528   6.296 -0.7471 -1.4250 -0.2920
  150SAPE   C3716570  -0.067   2.364   6.206  0.3865 -0.4750  0.3767
  150SAPE   H7X16571  -0.163   2.308   6.206 -0.3975  0.5070  4.3376
  150SAPE   H7Y16572   0.009   2.295   6.248 -0.8546 -1.0647  1.7184
  150SAPE   C3816573  -0.017   2.427   6.073  0.5228 -0.1331  0.2551
  150SAPE   H8X16574   0.073   2.488   6.097  0.1397  0.4565  0.2221
  150SAPE   H8Y16575  -0.092   2.501   6.040  0.5133  0.2390  1.0853
  150SAPE   C3916576   0.006   2.327   5.961  0.2332 -0.1085 -0.6111
  150SAPE   H9X16577  -0.081   2.260   5.943 -0.7042  1.0581 -0.5942
  150SAPE   H9Y16578   0.100   2.270   5.976 -0.3258 -1.3737 -1.7571
  150SAPE  C31016579   0.026   2.405   5.828 -0.3549  0.9149  1.1142
  150SAPE  H10X16580   0.110   2.478   5.835 -0.0487  0.8911 -1.4640
  150SAPE  H10Y16581  -0.057   2.473   5.802  1.2601  2.4080 -0.3538
  150SAPE  C31116582   0.047   2.301   5.719  0.3994  0.6789 -0.0909
  150SAPE  H11X16583  -0.029   2.221   5.729 -2.3989  3.3080  1.4646
  150SAPE  H11Y16584   0.150   2.259   5.719  0.9720  2.0050  0.4732
  150SAPE  C31216585   0.011   2.352   5.575  0.3914 -0.5238 -0.3639
  150SAPE  H12X16586  -0.095   2.384   5.567  0.3382 -0.5960  0.0638
  150SAPE  H12Y16587   0.023   2.264   5.508 -1.9214 -0.4820 -0.9035
  150SAPE  C31316588   0.101   2.458   5.526  0.5649  0.3787  0.1431
  150SAPE  H13X16589   0.208   2.448   5.555  0.6589  2.0130  0.4683
  150SAPE  H13Y16590   0.073   2.550   5.581 -1.3282 -0.3223  0.4115
  150SAPE  C31416591   0.122   2.483   5.373  0.7570 -0.8204 -0.0449
  150SAPE  H14X16592   0.151   2.589   5.359 -1.2929 -0.1041  0.7178
  150SAPE  H14Y16593   0.025   2.481   5.319  1.9158  0.9616 -2.3741
  150SAPE  C31516594   0.230   2.399   5.305  0.4604 -0.2215 -0.4518
  150SAPE  H15X16595   0.234   2.298   5.350 -0.1681  0.0525  0.2427
  150SAPE  H15Y16596   0.327   2.448   5.327  0.7986 -0.5428 -1.1964
  150SAPE  C31616597   0.230   2.398   5.153  0.5140 -0.6190 -0.5463
  150SAPE  H16X16598   0.122   2.411   5.131  1.0092  0.2354 -2.6682
  150SAPE  H16Y16599   0.263   2.301   5.109  0.0895 -1.1132  0.1958
  150SAPE  C31716600   0.314   2.510   5.090  0.4369  0.2513  1.1680
  150SAPE  H17X16601   0.421   2.494   5.114  0.3592  1.3130  2.3684
  150SAPE  H17Y16602   0.292   2.614   5.123  0.1735  0.2886  0.8819
  150SAPE  C31816603   0.300   2.513   4.942  0.3000  0.2956  1.0689
  150SAPE  H18X16604   0.346   2.418   4.906  0.9990  1.9475 -2.9510
  150SAPE  H18Y16605   0.363   2.597   4.905  1.1831  0.3437  2.5598
  150SAPE  H18Z16606   0.199   2.512   4.895  0.6474  3.3602  0.0421
  151SAPE     N16607   4.598   1.072   6.992 -0.5806  0.0729  0.2081
  151SAPE   HN116608   4.628   1.065   6.893 -1.7161  0.0864 -0.1541
  151SAPE   HN216609   4.568   0.977   7.022 -1.3219 -0.1211 -1.0876
  151SAPE   HN316610   4.517   1.138   6.988 -0.9044 -0.2110  1.6928
  151SAPE   C1216611   4.700   1.138   7.084  0.2364  0.8449 -0.1203
  151SAPE  H12A16612   4.794   1.092   7.046  0.5527  1.8155 -0.5383
  151SAPE  H12B16613   4.683   1.095   7.185  0.1310  2.3740  0.5361
  151SAPE   C1116614   4.693   1.289   7.069  0.1505 -0.0799  0.1324
  151SAPE  H11A16615   4.712   1.310   6.961  0.6423 -0.2546  0.1819
  151SAPE  H11B16616   4.766   1.333   7.140 -0.7303 -2.0351  2.3820
  151SAPE     P16617   4.521   1.487   7.070 -0.3966 -0.1265 -0.1327
  151SAPE   O1316618   4.424   1.541   7.162  0.7380  0.6626 -0.0058
  151SAPE   O1416619   4.634   1.577   7.060 -0.6637 -0.3530 -0.4026
  151SAPE   O1216620   4.563   1.340   7.103 -0.1799  0.7982 -0.7768
  151SAPE   O1116621   4.445   1.473   6.927 -0.1562 -0.3431  0.2188
  151SAPE    C116622   4.517   1.460   6.802 -0.3163 -0.1231 -0.3587
  151SAPE    HA16623   4.578   1.551   6.779  1.5993 -1.0892  0.6238
  151SAPE    HB16624   4.574   1.365   6.799 -0.5664 -0.4180  1.9692
  151SAPE    C216625   4.397   1.458   6.696  0.3640 -0.3851 -0.2826
  151SAPE    HS16626   4.319   1.393   6.742 -1.0292  1.7502  0.5085
  151SAPE   O2116627   4.437   1.417   6.566  0.0173 -0.0092  0.4355
  151SAPE   C2116628   4.438   1.285   6.549  0.3619 -0.3656  0.3646
  151SAPE   O2216629   4.416   1.203   6.639 -0.3145 -0.7777 -0.2015
  151SAPE   C2216630   4.480   1.248   6.407  0.3422 -0.3046  0.1008
  151SAPE   H2R16631   4.543   1.334   6.376 -0.3858  0.1244 -0.2288
  151SAPE   H2S16632   4.519   1.146   6.392  1.5128  0.2580 -0.8832
  151SAPE    C316633   4.332   1.601   6.689 -0.2655  0.0031  0.4141
  151SAPE    HX16634   4.413   1.674   6.673  1.7011 -2.2331 -0.3351
  151SAPE    HY16635   4.275   1.610   6.785  1.0727 -1.1474  1.3630
  151SAPE   O3116636   4.243   1.603   6.569 -0.5065 -0.5875 -0.2473
  151SAPE   C3116637   4.194   1.724   6.551  0.4651 -0.4067 -0.2499
  151SAPE   O3216638   4.222   1.822   6.626  0.1801  0.0287 -0.1670
  151SAPE   C3216639   4.094   1.718   6.438 -0.3067 -0.1781 -0.2937
  151SAPE   H2X16640   4.069   1.824   6.418  0.0168  0.3916  1.9661
  151SAPE   H2Y16641   4.008   1.663   6.482  1.4575 -0.8875  2.5861
  151SAPE   C2316642   4.353   1.249   6.314 -0.0321 -0.2495 -0.5540
  151SAPE   H3R16643   4.320   1.355   6.318 -2.6463 -1.0321  1.1946
  151SAPE   H3S16644   4.267   1.193   6.357 -0.9279  2.3170  1.2311
  151SAPE   C2416645   4.386   1.206   6.168 -0.3653 -0.2581 -0.5102
  151SAPE   H4R16646   4.396   1.096   6.178 -1.2150 -0.1579  2.6254
  151SAPE   H4S16647   4.483   1.253   6.141  0.9052 -0.4834  3.1374
  151SAPE   C2516648   4.275   1.244   6.073  0.8983  0.3552  0.2607
  151SAPE   H5R16649   4.200   1.302   6.129  0.4181  0.1544 -0.1712
  151SAPE   C2616650   4.264   1.199   5.949 -0.0762  0.1353  0.3678
  151SAPE   H6R16651   4.172   1.226   5.894  0.4297 -0.9895 -1.0813
  151SAPE   C2716652   4.347   1.100   5.872  0.1147 -0.1445 -0.2296
  151SAPE   H7R16653   4.278   1.016   5.846 -0.1151 -0.6976  2.0214
  151SAPE   H7S16654   4.426   1.056   5.937 -0.2151  0.3335  0.5040
  151SAPE   C2816655   4.414   1.163   5.756 -0.2020  0.0857 -0.4639
  151SAPE   H8R16656   4.509   1.204   5.792  0.2489 -1.6261  0.4140
  151SAPE   C2916657   4.379   1.153   5.625 -0.3063  0.1011 -0.0135
  151SAPE   H9R16658   4.448   1.205   5.556 -0.4312 -2.3390 -2.1551
  151SAPE  C21016659   4.245   1.106   5.559  0.0401  0.0068 -0.7464
  151SAPE  H10R16660   4.191   1.040   5.630  1.0813  0.0424  0.1006
  151SAPE  H10S16661   4.270   1.036   5.476 -1.9526 -1.1531 -0.4399
  151SAPE  C21116662   4.165   1.222   5.508 -0.3092 -0.0965  0.1158
  151SAPE  H11R16663   4.150   1.296   5.587  2.7240 -1.4588  2.1897
  151SAPE  C21216664   4.108   1.239   5.383  0.0493  0.3604  1.0164
  151SAPE  H12R16665   4.048   1.329   5.362 -0.9188 -0.7640 -1.6039
  151SAPE  C21316666   4.138   1.153   5.267 -0.3135  0.5854  0.4993
  151SAPE  H13R16667   4.053   1.081   5.265 -2.7908  3.2693 -2.7308
  151SAPE  H13S16668   4.229   1.091   5.282  0.4222  1.1756 -1.2097
  151SAPE  C21416669   4.149   1.232   5.137  0.1888  0.1923 -0.2569
  151SAPE  H14R16670   4.161   1.341   5.143 -0.1207  0.3374 -1.8610
  151SAPE  C21516671   4.173   1.186   5.008  0.2652  1.4859 -0.0793
  151SAPE  H15R16672   4.166   1.262   4.929 -0.6262  2.5404  0.9842
  151SAPE  C21616673   4.169   1.044   4.959 -0.4753  0.0932 -0.3230
  151SAPE  H16R16674   4.121   0.979   5.035 -0.6692 -0.8497 -1.2307
  151SAPE  H16S16675   4.267   1.004   4.925 -0.8058  0.1266 -1.3549
  151SAPE  C21716676   4.091   1.017   4.827  0.6365 -0.1822  0.3714
  151SAPE  H17R16677   3.992   1.063   4.846 -1.6921 -3.6062 -2.2139
  151SAPE  H17S16678   4.089   0.912   4.788  1.2401  0.1237 -0.5170
  151SAPE  C21816679   4.155   1.093   4.715 -0.3027  0.1900  0.6513
  151SAPE  H18R16680   4.251   1.039   4.701 -1.2101 -1.2872 -0.0800
  151SAPE  H18S16681   4.167   1.202   4.736 -0.0243  0.5002 -0.9930
  151SAPE  C21916682   4.071   1.092   4.589  0.2010  0.6855 -0.0930
  151SAPE  H19R16683   3.988   1.164   4.605 -1.9388 -0.9176 -2.9320
  151SAPE  H19S16684   4.023   0.992   4.583  3.5151 -1.0320 -0.1518
  151SAPE  C22016685   4.145   1.121   4.463  0.0133  0.2811  0.6413
  151SAPE  H20R16686   4.210   1.033   4.446 -1.9093 -0.8890 -1.0463
  151SAPE  H20S16687   4.192   1.222   4.467 -1.3483  1.0125 -0.6006
  151SAPE  H20T16688   4.069   1.118   4.382  1.7094 -2.7068 -1.0158
  151SAPE   C3316689   4.136   1.645   6.306 -0.0073  0.6331  0.1179
  151SAPE   H3X16690   4.139   1.536   6.331 -0.3983  0.5761 -0.0715
  151SAPE   H3Y16691   4.239   1.670   6.275 -0.5656  3.1861  0.0941
  151SAPE   C3416692   4.037   1.677   6.193 -0.5509  0.0528 -0.8719
  151SAPE   H4X16693   4.036   1.788   6.187 -3.9258  0.0728 -2.6707
  151SAPE   H4Y16694   3.931   1.656   6.218 -1.2902  1.8943 -2.2291
  151SAPE   C3516695   4.067   1.619   6.054 -0.1230 -0.7562 -0.0993
  151SAPE   H5X16696   4.042   1.511   6.056 -0.0941 -0.8469  3.9174
  151SAPE   H5Y16697   4.167   1.636   6.010 -0.5252 -0.4175 -0.9082
  151SAPE   C3616698   3.967   1.679   5.947 -0.9449 -0.3501 -0.7695
  151SAPE   H6X16699   3.975   1.789   5.949 -3.6007 -0.0994 -0.2915
  151SAPE   H6Y16700   3.864   1.655   5.980 -1.5811  1.4562 -1.3184
  151SAPE   C3716701   3.981   1.626   5.806 -0.7560  0.4322 -0.4305
  151SAPE   H7X16702   3.949   1.521   5.788 -1.1167  0.2954  0.8805
  151SAPE   H7Y16703   4.091   1.638   5.795 -0.5707  0.8012  1.4067
  151SAPE   C3816704   3.918   1.721   5.710  0.7391  0.0362  1.3060
  151SAPE   H8X16705   3.987   1.807   5.697 -0.0018  0.5081  0.3182
  151SAPE   H8Y16706   3.825   1.775   5.739  0.7512  0.0510  1.3170
  151SAPE   C3916707   3.899   1.655   5.571 -0.6301  0.0673 -0.2506
  151SAPE   H9X16708   3.797   1.612   5.575 -0.3980 -0.4236  0.4146
  151SAPE   H9Y16709   3.975   1.576   5.555 -0.0484  0.9733 -2.3803
  151SAPE  C31016710   3.904   1.766   5.464 -0.5589 -0.3885 -0.5860
  151SAPE  H10X16711   3.895   1.711   5.368  0.4235  2.1728 -2.2372
  151SAPE  H10Y16712   4.000   1.818   5.479 -1.0672  0.4955 -0.3563
  151SAPE  C31116713   3.781   1.854   5.464 -0.1467 -0.3738  0.3912
  151SAPE  H11X16714   3.809   1.954   5.505 -0.8811 -0.0381  0.0886
  151SAPE  H11Y16715   3.684   1.820   5.505  0.5088 -1.3196  1.1908
  151SAPE  C31216716   3.742   1.872   5.316  0.1276  0.1468  0.0155
  151SAPE  H12X16717   3.835   1.883   5.257  0.5161  0.3500  0.6603
  151SAPE  H12Y16718   3.685   1.967   5.326 -1.2689 -0.7880  1.4404
  151SAPE  C31316719   3.666   1.753   5.273  0.1981  0.3581  0.4519
  151SAPE  H13X16720   3.592   1.731   5.353  0.2651 -0.3919  0.3108
  151SAPE  H13Y16721   3.738   1.671   5.250  1.6958  1.8930 -0.6426
  151SAPE  C31416722   3.576   1.782   5.147  0.3554  0.2140 -0.0273
  151SAPE  H14X16723   3.518   1.876   5.162  2.3148  1.5425 -0.3214
  151SAPE  H14Y16724   3.520   1.689   5.124  2.4894 -1.8003  2.3913
  151SAPE  C31516725   3.667   1.806   5.023  0.2079 -0.5700  0.2508
  151SAPE  H15X16726   3.713   1.711   4.990  1.8170  0.6014 -1.0552
  151SAPE  H15Y16727   3.745   1.882   5.045 -0.5989  0.5839 -0.7477
  151SAPE  C31616728   3.597   1.869   4.905  0.3108  0.7723  0.2210
  151SAPE  H16X16729   3.548   1.965   4.931 -0.5956 -0.1233  2.0553
  151SAPE  H16Y16730   3.503   1.818   4.873  0.1412  1.0542  0.2714
  151SAPE  C31716731   3.693   1.896   4.784 -0.7824 -0.0111  0.1762
  151SAPE  H17X16732   3.794   1.933   4.812 -1.0468  1.2945 -0.5362
  151SAPE  H17Y16733   3.641   1.965   4.714 -2.1814  1.7635  2.7859
  151SAPE  C31816734   3.727   1.770   4.708 -0.5988  0.6036  0.2961
  151SAPE  H18X16735   3.785   1.700   4.771  0.1240  1.5584  0.7249
  151SAPE  H18Y16736   3.764   1.787   4.605 -0.3037  0.0670  0.3130
  151SAPE  H18Z16737   3.628   1.721   4.699  0.2441 -1.1123  0.0356
  152SAPE     N16738   2.163   1.200   6.930  0.3446 -0.6798  0.1461
  152SAPE   HN116739   2.225   1.140   6.873  1.2019 -0.0918  0.4344
  152SAPE   HN216740   2.083   1.159   6.983 -1.2999  2.1585  0.0910
  152SAPE   HN316741   2.121   1.273   6.869  0.1605 -0.6554  0.3002
  152SAPE   C1216742   2.249   1.279   7.024  0.3207 -0.1437  0.5085
  152SAPE  H12A16743   2.324   1.206   7.061  0.4461  0.6370  1.9024
  152SAPE  H12B16744   2.181   1.309   7.107  0.5738 -2.2003  1.5184
  152SAPE   C1116745   2.323   1.401   6.963  0.4846 -0.5602  0.3512
  152SAPE  H11A16746   2.378   1.371   6.872 -1.4818 -0.9510 -0.7445
  152SAPE  H11B16747   2.394   1.428   7.045 -2.0775  0.7387  2.2736
  152SAPE     P16748   2.151   1.530   6.807  0.0413  0.2347 -0.2619
  152SAPE   O1316749   2.116   1.391   6.760 -0.1370 -0.2992  0.5604
  152SAPE   O1416750   2.037   1.620   6.840 -0.1453 -0.0264  0.0526
  152SAPE   O1216751   2.238   1.518   6.940 -0.7186  0.3327 -0.4094
  152SAPE   O1116752   2.234   1.591   6.695 -0.1933  0.1616  0.2128
  152SAPE    C116753   2.354   1.654   6.722 -0.8821  0.3146  0.1802
  152SAPE    HA16754   2.414   1.600   6.799 -0.9211  0.4219  0.2865
  152SAPE    HB16755   2.416   1.651   6.630 -0.8561  1.3268  0.1485
  152SAPE    C216756   2.339   1.801   6.739 -0.4855 -0.3229  0.2075
  152SAPE    HS16757   2.280   1.819   6.832  0.7052  2.1965  0.5310
  152SAPE   O2116758   2.262   1.854   6.628  0.3159  0.3519  0.0055
  152SAPE   C2116759   2.203   1.974   6.650  0.7633  0.3863 -0.2430
  152SAPE   O2216760   2.208   2.030   6.754  0.5135 -0.0848 -0.0320
  152SAPE   C2216761   2.133   2.014   6.519 -0.1907  0.2138 -1.0273
  152SAPE   H2R16762   2.129   1.928   6.449 -1.8798  0.2249 -0.9838
  152SAPE   H2S16763   2.031   2.047   6.546  0.3361  0.5818  0.6148
  152SAPE    C316764   2.475   1.881   6.748  0.1353 -0.1885 -0.5330
  152SAPE    HX16765   2.524   1.845   6.840  0.9224  0.2779 -0.7579
  152SAPE    HY16766   2.455   1.990   6.762  0.3845  0.0688 -1.9859
  152SAPE   O3116767   2.571   1.848   6.644  0.6665 -0.7497  0.3769
  152SAPE   C3116768   2.588   1.952   6.559 -0.1197 -0.2160  0.3469
  152SAPE   O3216769   2.538   2.065   6.568  0.6921 -0.1492  0.2816
  152SAPE   C3216770   2.660   1.912   6.437  0.6742  0.2371 -0.0191
  152SAPE   H2X16771   2.584   1.917   6.357  0.6405  1.2538  0.0615
  152SAPE   H2Y16772   2.683   1.803   6.441 -1.2202 -0.1857  0.2048
  152SAPE   C2316773   2.195   2.140   6.465 -0.0974 -0.6820  0.6063
  152SAPE   H3R16774   2.292   2.107   6.420  0.0471  0.3318  0.1561
  152SAPE   H3S16775   2.224   2.208   6.548 -0.7130 -1.0341  1.1195
  152SAPE   C2416776   2.117   2.209   6.348 -1.1655 -0.0908 -0.3526
  152SAPE   H4R16777   2.180   2.287   6.300  0.8279  0.2933  2.6157
  152SAPE   H4S16778   2.022   2.247   6.390 -0.9141 -2.0123  2.1606
  152SAPE   C2516779   2.084   2.119   6.236  0.0309  0.5575  0.4082
  152SAPE   H5R16780   2.170   2.062   6.198 -1.1508 -1.7929  1.0123
  152SAPE   C2616781   1.959   2.089   6.176 -0.2194 -0.0323 -0.0079
  152SAPE   H6R16782   1.961   2.011   6.098 -0.3294 -0.9408  0.8810
  152SAPE   C2716783   1.827   2.150   6.203 -0.2817 -0.3431 -0.1086
  152SAPE   H7R16784   1.753   2.117   6.127  1.6567  0.0862 -2.2844
  152SAPE   H7S16785   1.845   2.259   6.194 -0.0195 -0.4338 -0.7591
  152SAPE   C2816786   1.781   2.121   6.339 -0.1783  0.5913  0.2670
  152SAPE   H8R16787   1.850   2.143   6.422 -0.9430  1.0738  0.7948
  152SAPE   C2916788   1.662   2.072   6.377 -0.3995  0.2963 -0.2596
  152SAPE   H9R16789   1.644   2.067   6.485 -0.6165  0.7160 -0.2723
  152SAPE  C21016790   1.554   2.032   6.281  0.0823  0.1367 -0.0783
  152SAPE  H10R16791   1.580   1.936   6.230  1.0704  0.2121  0.2617
  152SAPE  H10S16792   1.557   2.095   6.189 -0.6331  3.2826  1.9257
  152SAPE  C21116793   1.412   2.032   6.333 -0.2814  0.5249  0.7553
  152SAPE  H11R16794   1.416   2.031   6.443  0.5769 -1.3625  0.7294
  152SAPE  C21216795   1.297   2.048   6.263 -0.1635  1.0587 -0.1790
  152SAPE  H12R16796   1.201   2.026   6.312  0.5963 -1.1245  0.4097
  152SAPE  C21316797   1.278   2.057   6.113  0.4488 -0.4894  0.4360
  152SAPE  H13R16798   1.337   2.141   6.069  2.1003 -2.7220 -1.8768
  152SAPE  H13S16799   1.173   2.087   6.092  0.6005 -0.7380 -0.7663
  152SAPE  C21416800   1.308   1.946   6.019  0.0445  0.2588  0.1060
  152SAPE  H14R16801   1.367   1.864   6.063 -0.7343 -0.5050 -0.2310
  152SAPE  C21516802   1.285   1.939   5.886 -0.1672 -0.3242  0.3006
  152SAPE  H15R16803   1.329   1.860   5.824  0.5730 -0.7518  1.3548
  152SAPE  C21616804   1.202   2.042   5.810 -0.0203 -0.3037  0.1218
  152SAPE  H16R16805   1.272   2.117   5.767  1.9121  0.0066  3.4665
  152SAPE  H16S16806   1.148   2.105   5.884  2.7622  2.5355 -0.0621
  152SAPE  C21716807   1.105   1.990   5.699 -0.2037  0.0185  0.0592
  152SAPE  H17R16808   1.020   2.061   5.690  0.4638  0.6408 -1.5574
  152SAPE  H17S16809   1.066   1.894   5.739 -1.1966  0.8275  1.0972
  152SAPE  C21816810   1.171   1.974   5.567  0.2687 -0.0824  0.2141
  152SAPE  H18R16811   1.229   1.880   5.554  0.2449  0.1990 -2.5865
  152SAPE  H18S16812   1.238   2.060   5.543 -1.0081  1.3746  1.6151
  152SAPE  C21916813   1.069   1.975   5.454 -0.3075  0.4179  0.4010
  152SAPE  H19R16814   1.018   2.073   5.467  1.1738  1.4286 -0.9724
  152SAPE  H19S16815   1.006   1.886   5.476 -1.2295  1.1125  0.6468
  152SAPE  C22016816   1.130   1.965   5.308 -0.2129  0.4163 -0.3366
  152SAPE  H20R16817   1.052   1.992   5.234 -0.9007  2.0769  0.9415
  152SAPE  H20S16818   1.147   1.858   5.280 -0.4371  0.7543 -1.8256
  152SAPE  H20T16819   1.225   2.021   5.291  0.0323 -0.1464 -0.9027
  152SAPE   C3316820   2.775   2.002   6.411  0.1154  0.1049 -0.4472
  152SAPE   H3X16821   2.862   1.994   6.481 -0.0604  2.5695  0.1511
  152SAPE   H3Y16822   2.745   2.108   6.412  1.0810  0.3937 -0.7117
  152SAPE   C3416823   2.830   1.985   6.269 -0.4845  0.1251  0.3913
  152SAPE   H4X16824   2.914   2.056   6.251 -0.4341  0.1281  0.6304
  152SAPE   H4Y16825   2.744   2.008   6.204 -1.2628 -0.6918  1.1102
  152SAPE   C3516826   2.875   1.843   6.229 -0.1099 -0.1028 -0.9127
  152SAPE   H5X16827   2.794   1.772   6.256 -0.0464  0.4723  0.9213
  152SAPE   H5Y16828   2.960   1.809   6.292  1.1374 -0.3168 -2.6615
  152SAPE   C3616829   2.910   1.828   6.082 -0.4140  0.2443 -0.1871
  152SAPE   H6X16830   2.949   1.726   6.060 -1.1003 -0.2339  0.7543
  152SAPE   H6Y16831   2.991   1.902   6.063 -1.2227  1.5214  1.1227
  152SAPE   C3716832   2.805   1.850   5.973  0.7545 -0.0785  0.0480
  152SAPE   H7X16833   2.765   1.953   5.987  0.5338 -0.1348 -0.1654
  152SAPE   H7Y16834   2.725   1.775   5.990 -0.0610  0.6985 -0.2548
  152SAPE   C3816835   2.849   1.846   5.828 -0.2546 -0.2614  0.4010
  152SAPE   H8X16836   2.794   1.767   5.772 -1.9069  0.1412  1.3886
  152SAPE   H8Y16837   2.958   1.822   5.826  0.2708  1.9445 -0.2729
  152SAPE   C3916838   2.843   1.986   5.761  0.7446  1.3393  0.0209
  152SAPE   H9X16839   2.903   2.064   5.812  2.0350  0.3882  0.0084
  152SAPE   H9Y16840   2.734   2.009   5.768 -0.0554 -1.1856 -2.3161
  152SAPE  C31016841   2.879   1.997   5.610 -0.3491  0.7956 -0.4534
  152SAPE  H10X16842   2.821   1.919   5.556 -0.8472  1.2085 -0.5269
  152SAPE  H10Y16843   2.985   1.966   5.604 -1.0713 -1.9473 -0.2541
  152SAPE  C31116844   2.876   2.141   5.563 -0.1779 -0.1494  0.2160
  152SAPE  H11X16845   2.928   2.201   5.641  0.2218  0.6276 -0.6292
  152SAPE  H11Y16846   2.772   2.178   5.553  0.1520  0.5792 -0.6740
  152SAPE  C31216847   2.939   2.155   5.421  0.1607 -0.1137 -0.1810
  152SAPE  H12X16848   2.867   2.097   5.359 -1.2409  1.1519  0.1957
  152SAPE  H12Y16849   3.038   2.105   5.414  0.0814 -0.6359  1.8001
  152SAPE  C31316850   2.935   2.296   5.360 -0.2490  0.1459  0.1141
  152SAPE  H13X16851   2.998   2.365   5.422 -0.1094  1.7634 -1.7322
  152SAPE  H13Y16852   2.829   2.328   5.371 -1.2271 -2.6360 -0.4035
  152SAPE  C31416853   2.984   2.303   5.215  0.3296  0.1717 -0.0815
  152SAPE  H14X16854   2.920   2.236   5.155 -0.4227 -1.4751  2.4496
  152SAPE  H14Y16855   3.090   2.268   5.212 -0.5933 -2.8402 -0.4404
  152SAPE  C31516856   2.985   2.446   5.155 -0.3059  0.2341  0.1042
  152SAPE  H15X16857   2.886   2.483   5.188  0.8712  2.8891  0.9287
  152SAPE  H15Y16858   3.002   2.460   5.046  0.3525  2.1911  0.4373
  152SAPE  C31616859   3.079   2.555   5.222  0.7868  0.4052  0.3398
  152SAPE  H16X16860   3.186   2.541   5.194  0.7582  0.9194 -0.0382
  152SAPE  H16Y16861   3.068   2.538   5.332 -1.6467 -1.8268 -0.1570
  152SAPE  C31716862   3.027   2.695   5.179 -0.1363  0.1310 -0.6062
  152SAPE  H17X16863   2.916   2.697   5.175 -0.1919  2.0086  0.6347
  152SAPE  H17Y16864   3.056   2.716   5.073  0.1496  1.4193 -0.2908
  152SAPE  C31816865   3.084   2.803   5.277  0.8898  0.3677 -0.4665
  152SAPE  H18X16866   3.074   2.768   5.382  0.3272  0.7239 -0.3948
  152SAPE  H18Y16867   3.041   2.905   5.268 -0.3336  0.1732  2.2261
  152SAPE  H18Z16868   3.194   2.806   5.260  1.0140 -0.3940  0.1532
  153SAPE     N16869   1.000   0.500   7.163  0.0276 -0.8700 -0.0757
  153SAPE   HN116870   1.024   0.495   7.062  0.7819  0.2982  0.0287
  153SAPE   HN216871   0.967   0.408   7.199 -0.1753 -0.6070  0.4095
  153SAPE   HN316872   0.924   0.567   7.187 -1.2161 -2.4399  0.5163
  153SAPE   C1216873   1.114   0.546   7.249  0.0618 -0.5381  0.1150
  153SAPE  H12A16874   1.176   0.454   7.261 -0.7605 -0.8747  2.1376
  153SAPE  H12B16875   1.083   0.571   7.353 -2.7607 -0.0006 -0.7799
  153SAPE   C1116876   1.188   0.666   7.178  0.6051  0.5830  0.0485
  153SAPE  H11A16877   1.249   0.623   7.096  1.3075 -1.6123  1.6364
  153SAPE  H11B16878   1.248   0.714   7.258  1.7946 -1.1621  0.2649
  153SAPE     P16879   1.047   0.886   7.219 -0.3396 -0.1740 -0.2163
  153SAPE   O1316880   0.967   0.832   7.328  0.0751  0.3765  0.2078
  153SAPE   O1416881   1.168   0.970   7.248 -0.5065  0.4558  0.4956
  153SAPE   O1216882   1.095   0.766   7.121  0.3658 -0.3634  0.7963
  153SAPE   O1116883   0.958   0.982   7.134 -0.0070  0.6371  0.2586
  153SAPE    C116884   0.819   0.977   7.088  0.0439  0.6739 -0.1524
  153SAPE    HA16885   0.750   0.948   7.170  1.9341  0.1318  1.3509
  153SAPE    HB16886   0.776   1.079   7.076 -2.2131 -0.1213  0.6596
  153SAPE    C216887   0.806   0.888   6.963 -0.2938 -0.0158 -0.4624
  153SAPE    HS16888   0.833   0.784   6.989 -1.5270 -0.2284  0.0672
  153SAPE   O2116889   0.905   0.923   6.870  0.2795 -0.0260  0.2103
  153SAPE   C2116890   0.922   1.045   6.815  0.1679 -0.1377 -0.2019
  153SAPE   O2216891   0.855   1.143   6.842  0.2090 -0.0857 -0.1529
  153SAPE   C2216892   1.037   1.030   6.720 -1.2055 -0.6459  0.1332
  153SAPE   H2R16893   1.129   0.997   6.773  0.6745  3.4177 -0.1733
  153SAPE   H2S16894   1.010   0.960   6.638 -0.2658  0.8934 -1.5901
  153SAPE    C316895   0.662   0.899   6.901  0.0370  0.8296  0.0551
  153SAPE    HX16896   0.636   1.007   6.893  2.3265  1.3716 -0.9291
  153SAPE    HY16897   0.599   0.849   6.978 -0.7113  1.3135 -0.2361
  153SAPE   O3116898   0.664   0.825   6.771 -0.5671 -0.2799  0.1850
  153SAPE   C3116899   0.630   0.897   6.662  0.4645 -0.5851  0.4738
  153SAPE   O3216900   0.595   1.012   6.670 -0.1688 -0.2138 -0.2284
  153SAPE   C3216901   0.630   0.811   6.536  0.1690 -0.3535 -0.3259
  153SAPE   H2X16902   0.558   0.852   6.463  0.3500 -0.5697 -0.6252
  153SAPE   H2Y16903   0.602   0.709   6.571  1.5312 -2.2562 -4.1838
  153SAPE   C2316904   1.084   1.165   6.652 -0.2112  0.0665 -0.5742
  153SAPE   H3R16905   1.114   1.238   6.730 -0.6835 -0.1776 -0.1568
  153SAPE   H3S16906   1.007   1.212   6.587  1.0782  1.8314 -0.9004
  153SAPE   C2416907   1.194   1.142   6.546 -0.0689  0.6676 -0.2241
  153SAPE   H4R16908   1.285   1.091   6.584 -1.4388 -1.5471  0.2268
  153SAPE   H4S16909   1.231   1.242   6.515 -0.7214  0.4930 -1.6519
  153SAPE   C2516910   1.166   1.071   6.415 -0.0505 -0.3649 -0.3001
  153SAPE   H5R16911   1.057   1.068   6.397 -0.5894  0.3082  2.3728
  153SAPE   C2616912   1.242   1.016   6.323  0.8693  0.5852 -0.2587
  153SAPE   H6R16913   1.194   0.965   6.238  1.0592 -1.1073  0.6062
  153SAPE   C2716914   1.391   1.008   6.325  0.2671 -0.3286 -0.6205
  153SAPE   H7R16915   1.415   0.909   6.281  3.8639  0.0151  0.2847
  153SAPE   H7S16916   1.429   1.010   6.429 -1.7927  1.0825  0.1668
  153SAPE   C2816917   1.452   1.118   6.239 -0.2962 -0.2907 -0.5609
  153SAPE   H8R16918   1.504   1.193   6.300 -1.6017  0.6604 -0.5843
  153SAPE   C2916919   1.445   1.133   6.106 -0.0768  0.4780 -0.8222
  153SAPE   H9R16920   1.508   1.210   6.059  1.3158 -0.1679 -0.0789
  153SAPE  C21016921   1.379   1.048   6.002  0.6344  0.1664  0.4001
  153SAPE  H10R16922   1.330   1.117   5.930  3.3143  0.0938 -1.6522
  153SAPE  H10S16923   1.298   1.002   6.062  1.3893 -1.0076  0.5466
  153SAPE  C21116924   1.458   0.933   5.939 -0.1379  0.1983 -0.5900
  153SAPE  H11R16925   1.487   0.861   6.016 -0.5505  1.3215  0.6511
  153SAPE  C21216926   1.507   0.929   5.816  0.2104 -0.0044  1.5230
  153SAPE  H12R16927   1.538   0.833   5.772 -1.1756  1.5919 -3.5977
  153SAPE  C21316928   1.489   1.030   5.708  0.4886 -0.8092 -0.0107
  153SAPE  H13R16929   1.572   1.035   5.635  2.2869  1.7671  2.0440
  153SAPE  H13S16930   1.493   1.125   5.765  1.2953 -1.5636  1.2580
  153SAPE  C21416931   1.357   1.017   5.639  0.4522  0.0466 -0.3816
  153SAPE  H14R16932   1.271   0.991   5.703  0.1655  0.7066 -0.4958
  153SAPE  C21516933   1.334   1.023   5.504  0.0743 -0.3111  0.0549
  153SAPE  H15R16934   1.229   1.027   5.470  0.6207 -0.8224 -1.8458
  153SAPE  C21616935   1.439   1.046   5.400 -0.0575 -0.2347  0.1762
  153SAPE  H16R16936   1.522   1.104   5.444 -1.2351 -0.0460  2.2876
  153SAPE  H16S16937   1.401   1.102   5.312 -1.0048 -1.8303 -0.4738
  153SAPE  C21716938   1.502   0.908   5.358 -0.7836 -0.6259  0.3230
  153SAPE  H17R16939   1.415   0.852   5.319 -2.8722  3.8572 -2.2585
  153SAPE  H17S16940   1.556   0.860   5.443  0.3934  0.4724  0.2319
  153SAPE  C21816941   1.604   0.938   5.252 -0.6000 -0.2502  0.4702
  153SAPE  H18R16942   1.675   1.017   5.283 -0.9784 -0.3474  1.6336
  153SAPE  H18S16943   1.554   0.984   5.163 -1.2440  1.4031  1.6366
  153SAPE  C21916944   1.696   0.819   5.197 -0.6394 -0.2553  0.5749
  153SAPE  H19R16945   1.746   0.759   5.276 -0.6521  0.1956  0.9370
  153SAPE  H19S16946   1.776   0.863   5.134  0.1208 -1.3337  0.7663
  153SAPE  C22016947   1.623   0.722   5.107  0.1200 -0.7385 -0.3343
  153SAPE  H20R16948   1.558   0.782   5.039 -1.3019 -0.0402  1.5199
  153SAPE  H20S16949   1.555   0.660   5.169 -0.3859 -0.1901 -0.3254
  153SAPE  H20T16950   1.695   0.657   5.055  0.9421 -0.8309  0.8783
  153SAPE   C3316951   0.775   0.818   6.486  0.0305  0.8772 -0.5124
  153SAPE   H3X16952   0.839   0.758   6.554 -2.1207 -3.1189 -1.7183
  153SAPE   H3Y16953   0.823   0.918   6.477 -1.7455  1.7815 -0.2883
  153SAPE   C3416954   0.791   0.763   6.338 -1.1864 -0.0735  0.2780
  153SAPE   H4X16955   0.782   0.653   6.330 -1.9738 -0.0965  1.3340
  153SAPE   H4Y16956   0.894   0.783   6.302 -1.6131 -0.1633 -1.0228
  153SAPE   C3516957   0.703   0.842   6.242 -0.1706  0.1308  0.6953
  153SAPE   H5X16958   0.699   0.950   6.268 -1.1158  0.3750 -0.3912
  153SAPE   H5Y16959   0.599   0.805   6.258 -0.3585 -0.0928 -0.9431
  153SAPE   C3616960   0.744   0.838   6.092  0.0683 -0.1165  0.3025
  153SAPE   H6X16961   0.653   0.874   6.039 -0.6100 -0.0703  1.4698
  153SAPE   H6Y16962   0.756   0.729   6.074 -3.4929 -0.7871  1.1975
  153SAPE   C3716963   0.875   0.914   6.074  0.4495  0.7363  0.2925
  153SAPE   H7X16964   0.951   0.849   6.122 -1.3632 -0.7282  1.3058
  153SAPE   H7Y16965   0.867   1.005   6.137 -0.1444  0.2995  0.8567
  153SAPE   C3816966   0.920   0.954   5.933 -0.4559  0.3797 -0.5367
  153SAPE   H8X16967   0.913   0.862   5.872 -1.6024 -0.7695  1.2185
  153SAPE   H8Y16968   1.021   0.998   5.940 -0.1209 -0.3384 -0.7814
  153SAPE   C3916969   0.822   1.048   5.859 -0.4039 -0.3419  0.3655
  153SAPE   H9X16970   0.807   1.139   5.921 -1.6037 -0.6669  0.5810
  153SAPE   H9Y16971   0.729   0.992   5.836 -0.3281 -0.1656 -0.4029
  153SAPE  C31016972   0.876   1.090   5.719  0.2932  0.8032 -0.5668
  153SAPE  H10X16973   0.970   1.149   5.730 -0.5817  2.2201 -0.3847
  153SAPE  H10Y16974   0.796   1.158   5.681  0.0032  1.6078  1.3757
  153SAPE  C31116975   0.896   0.970   5.630 -0.3982  0.4415  1.0973
  153SAPE  H11X16976   0.811   0.901   5.648 -0.6064  0.5795  0.6556
  153SAPE  H11Y16977   0.995   0.932   5.662 -0.8070 -2.6201 -0.8895
  153SAPE  C31216978   0.911   0.999   5.477  0.8461  0.3454 -1.0468
  153SAPE  H12X16979   1.002   1.061   5.459  0.5876  0.6366 -1.3528
  153SAPE  H12Y16980   0.815   1.039   5.438 -0.3784 -0.3548  1.0583
  153SAPE  C31316981   0.941   0.870   5.392 -0.0020  0.4726  0.2642
  153SAPE  H13X16982   0.880   0.789   5.437 -0.9708  1.7863  1.3619
  153SAPE  H13Y16983   1.048   0.842   5.410  0.3212  1.3077 -0.3217
  153SAPE  C31416984   0.921   0.904   5.241  0.3341  0.6248  0.1010
  153SAPE  H14X16985   0.985   0.992   5.217 -0.9820  2.2355  2.0835
  153SAPE  H14Y16986   0.818   0.936   5.215 -0.0534  0.5856  1.4931
  153SAPE  C31516987   0.964   0.788   5.148 -0.2951 -0.0085  0.3689
  153SAPE  H15X16988   0.906   0.696   5.166 -1.3510  0.8311  1.3978
  153SAPE  H15Y16989   1.070   0.756   5.161 -0.2497  0.3221  0.8489
  153SAPE  C31616990   0.937   0.828   5.000 -0.9879  0.3799 -0.5406
  153SAPE  H16X16991   0.835   0.872   5.000 -2.0526 -1.8786 -2.8422
  153SAPE  H16Y16992   0.946   0.745   4.927 -0.7821  1.0246 -1.2582
  153SAPE  C31716993   1.034   0.940   4.945  0.1783 -0.4804 -0.7382
  153SAPE  H17X16994   1.130   0.886   4.929  1.5210  2.0898 -1.9194
  153SAPE  H17Y16995   1.049   1.012   5.028 -0.5180 -1.3193  0.1414
  153SAPE  C31816996   0.992   1.010   4.824 -0.2852 -0.0027 -0.1387
  153SAPE  H18X16997   0.948   1.107   4.856  2.2329  0.6144  1.7642
  153SAPE  H18Y16998   0.941   0.954   4.743 -1.1956 -0.1045  0.4871
  153SAPE  H18Z16999   1.088   1.037   4.775  0.6317 -1.8292  0.5596
  154SAPE     N17000   5.334   0.773   6.753  0.3126 -0.3356  0.7425
  154SAPE   HN117001   5.343   0.868   6.713  0.6369 -0.9304 -0.6688
  154SAPE   HN217002   5.272   0.777   6.836 -0.6101  1.3778  0.0108
  154SAPE   HN317003   5.431   0.746   6.780  0.8014  0.5150 -0.1279
  154SAPE   C1217004   5.267   0.671   6.662  0.0801 -0.6832 -0.5177
  154SAPE  H12A17005   5.256   0.578   6.721  0.0355 -0.1528  0.3276
  154SAPE  H12B17006   5.335   0.656   6.576  0.6232  0.2740 -0.2664
  154SAPE   C1117007   5.129   0.706   6.616  0.2232  0.4228  0.4345
  154SAPE  H11A17008   5.095   0.616   6.559  0.5793 -0.1098  1.0493
  154SAPE  H11B17009   5.126   0.779   6.532 -0.4701  0.0208  0.0920
  154SAPE     P17010   4.915   0.831   6.707 -0.0056  0.0936  0.1866
  154SAPE   O1317011   4.903   0.916   6.826 -0.0977 -0.0406  0.0904
  154SAPE   O1417012   4.906   0.895   6.578 -0.5473  0.2577  0.1282
  154SAPE   O1217013   5.042   0.741   6.721 -0.1029  0.6220  0.8024
  154SAPE   O1117014   4.793   0.730   6.715 -0.0944  0.1978  0.2093
  154SAPE    C117015   4.793   0.593   6.673  0.3583  0.0171  0.2387
  154SAPE    HA17016   4.891   0.543   6.686  0.5198  0.2370 -0.0920
  154SAPE    HB17017   4.717   0.548   6.740 -0.3047 -0.3144 -0.7109
  154SAPE    C217018   4.749   0.575   6.528 -0.2181  0.0198 -0.6999
  154SAPE    HS17019   4.736   0.466   6.511 -0.3870  0.1242 -1.2385
  154SAPE   O2117020   4.861   0.622   6.452 -0.0908  0.0754  0.1242
  154SAPE   C2117021   4.894   0.568   6.335  0.6838  0.1865  1.1800
  154SAPE   O2217022   4.833   0.474   6.282 -0.2780  0.3293  0.3427
  154SAPE   C2217023   5.026   0.629   6.278  0.2324 -0.1766  0.3187
  154SAPE   H2R17024   5.003   0.736   6.293 -0.5205 -0.4394  1.1602
  154SAPE   H2S17025   5.111   0.597   6.342 -1.0313 -1.0386  1.6632
  154SAPE    C317026   4.615   0.646   6.495  0.3431  0.2615  0.0006
  154SAPE    HX17027   4.634   0.755   6.485 -0.9975  0.3802 -1.6622
  154SAPE    HY17028   4.546   0.623   6.578  1.9091 -1.1417  0.9832
  154SAPE   O3117029   4.559   0.593   6.374  0.2666 -0.1553  0.0868
  154SAPE   C3117030   4.588   0.649   6.258 -0.3326  0.1700 -0.5486
  154SAPE   O3217031   4.658   0.742   6.242 -0.5023 -0.0607 -0.4592
  154SAPE   C3217032   4.518   0.575   6.148 -0.0591  0.9087  0.5861
  154SAPE   H2X17033   4.409   0.595   6.160  0.2258  1.8851  1.8060
  154SAPE   H2Y17034   4.545   0.468   6.158  1.0546  1.1283  0.1393
  154SAPE   C2317035   5.045   0.580   6.133 -1.0012 -0.2939 -0.7862
  154SAPE   H3R17036   5.079   0.474   6.130 -0.9777 -0.2788 -1.1639
  154SAPE   H3S17037   5.135   0.638   6.106  0.5863 -2.1271  0.3245
  154SAPE   C2417038   4.929   0.604   6.027 -0.1392 -0.1068 -0.4167
  154SAPE   H4R17039   4.883   0.702   6.054 -2.3586 -1.2414  0.1598
  154SAPE   H4S17040   4.854   0.527   6.054 -1.7535  1.4872 -0.2082
  154SAPE   C2517041   4.993   0.592   5.888 -0.4034  0.2057  0.6054
  154SAPE   H5R17042   5.095   0.632   5.880 -1.0077  1.6965 -0.0172
  154SAPE   C2617043   4.933   0.549   5.774 -0.1890  0.0970 -0.1345
  154SAPE   H6R17044   4.995   0.545   5.683 -1.0149  1.9589 -0.8251
  154SAPE   C2717045   4.797   0.480   5.754  0.2461  0.1736 -0.2455
  154SAPE   H7R17046   4.730   0.559   5.714  2.8949  2.8452  0.3148
  154SAPE   H7S17047   4.761   0.462   5.858 -1.9334  0.6656 -0.8557
  154SAPE   C2817048   4.808   0.353   5.672 -0.1248  0.3744 -0.8188
  154SAPE   H8R17049   4.824   0.260   5.728 -0.9231  0.8187  0.1751
  154SAPE   C2917050   4.794   0.352   5.535  0.2700 -0.9399  0.4948
  154SAPE   H9R17051   4.804   0.254   5.486  0.6474 -1.3548  1.3787
  154SAPE  C21017052   4.758   0.472   5.441  0.5778 -0.2492 -0.3311
  154SAPE  H10R17053   4.693   0.538   5.502  0.0476 -2.5073  1.6530
  154SAPE  H10S17054   4.689   0.438   5.361  0.1479 -0.1086 -0.0245
  154SAPE  C21117055   4.874   0.546   5.381 -0.2364  0.0006 -0.4591
  154SAPE  H11R17056   4.932   0.608   5.452  0.1885 -0.7675 -0.1310
  154SAPE  C21217057   4.926   0.545   5.263  0.2748  0.0399  0.7945
  154SAPE  H12R17058   5.013   0.604   5.232  1.1870 -1.3525  0.6626
  154SAPE  C21317059   4.866   0.464   5.147  0.7269 -0.5872 -0.6722
  154SAPE  H13R17060   4.771   0.418   5.181  0.3936  0.6927  0.2359
  154SAPE  H13S17061   4.931   0.390   5.097  1.2672  0.3248 -1.3448
  154SAPE  C21417062   4.826   0.570   5.049 -0.6810  0.2959 -0.0658
  154SAPE  H14R17063   4.871   0.669   5.064  0.1585 -0.2167  0.9163
  154SAPE  C21517064   4.740   0.559   4.950 -0.5769  0.4331  0.1624
  154SAPE  H15R17065   4.728   0.651   4.891  0.9880  1.4089  1.2911
  154SAPE  C21617066   4.673   0.432   4.898  0.2706  0.5555  0.3599
  154SAPE  H16R17067   4.627   0.379   4.983 -1.1948  0.0373 -0.7195
  154SAPE  H16S17068   4.747   0.364   4.850  2.2937  2.5331  0.4545
  154SAPE  C21717069   4.551   0.459   4.803 -0.1688  0.3335 -0.4357
  154SAPE  H17R17070   4.519   0.360   4.763  0.8765 -0.3018  0.2697
  154SAPE  H17S17071   4.581   0.515   4.711  5.7378  0.3456  1.1266
  154SAPE  C21817072   4.429   0.522   4.876 -0.1965  0.3087  0.0401
  154SAPE  H18R17073   4.459   0.628   4.887 -1.4189  0.6854 -0.0881
  154SAPE  H18S17074   4.417   0.456   4.965  2.0037 -1.5734 -0.9495
  154SAPE  C21917075   4.295   0.522   4.807  0.3698 -0.5839  0.3398
  154SAPE  H19R17076   4.279   0.418   4.772 -2.3742 -0.2392  0.3070
  154SAPE  H19S17077   4.297   0.586   4.716 -0.6080  0.8985  1.2947
  154SAPE  C22017078   4.180   0.571   4.894 -0.3197 -0.1393 -0.2153
  154SAPE  H20R17079   4.179   0.679   4.921 -0.6748  0.0766 -1.0598
  154SAPE  H20S17080   4.180   0.521   4.994 -3.1518  1.3826  0.6613
  154SAPE  H20T17081   4.090   0.550   4.832 -0.0398 -1.3329 -0.2443
  154SAPE   C3317082   4.555   0.616   6.004  0.7956 -0.4394  0.2437
  154SAPE   H3X17083   4.533   0.525   5.944  2.2327 -2.0831  2.0839
  154SAPE   H3Y17084   4.665   0.627   6.000  1.0312 -2.0334  1.3920
  154SAPE   C3417085   4.475   0.740   5.963  0.3248  0.9441  0.3154
  154SAPE   H4X17086   4.524   0.826   6.012  3.3986  0.4286 -1.6033
  154SAPE   H4Y17087   4.372   0.733   6.005 -0.7368 -0.3291 -2.2541
  154SAPE   C3517088   4.464   0.744   5.811 -1.0692 -0.0957  0.0211
  154SAPE   H5X17089   4.569   0.725   5.779 -0.6564  0.9595  0.6699
  154SAPE   H5Y17090   4.449   0.849   5.781  1.7998  0.3652 -0.1190
  154SAPE   C3617091   4.354   0.656   5.771 -0.5185 -0.0325  0.1751
  154SAPE   H6X17092   4.259   0.714   5.768 -1.5791 -1.6360  1.2974
  154SAPE   H6Y17093   4.337   0.568   5.836 -0.3304 -2.3416 -2.7054
  154SAPE   C3717094   4.364   0.603   5.626 -0.3476  0.9100 -0.1327
  154SAPE   H7X17095   4.273   0.545   5.601 -2.5469  3.1296  2.0673
  154SAPE   H7Y17096   4.456   0.542   5.614 -0.8369  0.4112 -1.5792
  154SAPE   C3817097   4.367   0.709   5.528  0.3613  0.5767  0.1056
  154SAPE   H8X17098   4.465   0.759   5.546  0.2870  0.6917  0.1912
  154SAPE   H8Y17099   4.277   0.774   5.538 -0.3252 -0.4181  0.5275
  154SAPE   C3917100   4.364   0.647   5.383  0.2446  0.4352  0.4728
  154SAPE   H9X17101   4.266   0.597   5.368  0.6583  0.1115 -1.3786
  154SAPE   H9Y17102   4.433   0.561   5.365 -2.1958 -0.9463 -3.6629
  154SAPE  C31017103   4.374   0.747   5.268 -0.2848 -0.0099 -0.0054
  154SAPE  H10X17104   4.328   0.845   5.293  0.1261  0.2843 -0.3940
  154SAPE  H10Y17105   4.337   0.698   5.176 -0.8110  0.4168 -0.0265
  154SAPE  C31117106   4.520   0.800   5.260 -0.7274  0.3090  0.8033
  154SAPE  H11X17107   4.596   0.723   5.234  1.7652  2.7534  0.4229
  154SAPE  H11Y17108   4.556   0.839   5.358  1.4889 -0.1597  0.2299
  154SAPE  C31217109   4.523   0.920   5.157  0.2856 -0.5573 -0.5393
  154SAPE  H12X17110   4.583   1.007   5.192 -0.2559 -0.6914  0.7953
  154SAPE  H12Y17111   4.420   0.962   5.161  0.2633 -0.6935  1.9413
  154SAPE  C31317112   4.578   0.883   5.020 -0.3126 -0.0936  0.2253
  154SAPE  H13X17113   4.506   0.805   4.985 -0.3549  1.0575 -2.5202
  154SAPE  H13Y17114   4.680   0.841   5.013 -0.3157 -0.0399 -0.1711
  154SAPE  C31417115   4.583   1.001   4.917 -0.4401 -0.6447 -0.5656
  154SAPE  H14X17116   4.670   1.063   4.948 -1.1547 -0.2793  0.7710
  154SAPE  H14Y17117   4.496   1.068   4.932 -0.4508 -0.6421 -0.6397
  154SAPE  C31517118   4.600   0.941   4.772  0.0268  0.7103 -0.0159
  154SAPE  H15X17119   4.521   0.865   4.756 -1.0576  1.9649 -0.8397
  154SAPE  H15Y17120   4.703   0.901   4.765 -0.4562 -0.2414 -2.3182
  154SAPE  C31617121   4.591   1.051   4.667  0.9713 -0.0672  0.6131
  154SAPE  H16X17122   4.667   1.129   4.688  1.5532 -1.1504  2.8593
  154SAPE  H16Y17123   4.492   1.101   4.657  0.6086 -1.1507 -2.6489
  154SAPE  C31717124   4.619   1.009   4.524 -0.3066  0.0875 -0.7424
  154SAPE  H17X17125   4.727   1.001   4.499 -0.1156 -1.1551  0.3181
  154SAPE  H17Y17126   4.583   1.090   4.458  1.6424  1.4215 -0.2719
  154SAPE  C31817127   4.541   0.883   4.489  0.2487 -0.1031  0.3519
  154SAPE  H18X17128   4.526   0.873   4.380  2.1156 -0.8790  0.1302
  154SAPE  H18Y17129   4.442   0.883   4.541 -1.7127  0.1460 -3.1129
  154SAPE  H18Z17130   4.604   0.797   4.521 -0.1733 -1.0890 -1.3307
  155SAPE     N17131   5.904   1.876   7.247  0.1867  0.7743  0.3393
  155SAPE   HN117132   5.852   1.820   7.316 -0.5329 -0.4959 -1.1680
  155SAPE   HN217133   5.940   1.955   7.305  1.2660 -0.1795  1.0067
  155SAPE   HN317134   5.845   1.919   7.173  1.5107  2.3064  0.1163
  155SAPE   C1217135   6.008   1.785   7.185  0.5270 -0.3124  0.5265
  155SAPE  H12A17136   5.959   1.687   7.164 -1.0669  0.5262  0.1408
  155SAPE  H12B17137   6.089   1.761   7.256  0.7018 -0.1482  0.3845
  155SAPE   C1117138   6.081   1.846   7.062  0.0316 -0.3265 -0.4759
  155SAPE  H11A17139   6.028   1.834   6.965 -1.3508  2.3846 -0.1415
  155SAPE  H11B17140   6.169   1.778   7.054  0.2140 -0.3116  1.1559
  155SAPE     P17141   6.232   2.044   7.158 -0.1535 -0.5367  0.1990
  155SAPE   O1317142   6.190   2.166   7.223  0.3764 -0.3537 -0.0974
  155SAPE   O1417143   6.287   1.936   7.245  0.2289 -0.0624 -0.3405
  155SAPE   O1217144   6.109   1.988   7.075  0.1395  0.3594  0.1289
  155SAPE   O1117145   6.328   2.086   7.049 -0.2099  0.1869  0.0956
  155SAPE    C117146   6.275   2.134   6.926 -0.3210 -0.0518  0.2677
  155SAPE    HA17147   6.168   2.161   6.932  0.2450  2.1339  1.7347
  155SAPE    HB17148   6.331   2.227   6.901  0.5851 -0.8117 -0.6218
  155SAPE    C217149   6.299   2.025   6.813  0.2343 -0.7000 -0.5650
  155SAPE    HS17150   6.280   1.928   6.865 -0.9671 -0.8830 -1.2890
  155SAPE   O2117151   6.431   2.047   6.758 -0.2868  0.2811  0.1114
  155SAPE   C2117152   6.491   1.933   6.732  0.2763  0.1298  0.2001
  155SAPE   O2217153   6.454   1.821   6.747  0.2476  0.2923  0.6079
  155SAPE   C2217154   6.628   1.973   6.677 -0.0957 -0.2863  0.2207
  155SAPE   H2R17155   6.606   2.054   6.604 -1.4448 -1.8490 -1.1951
  155SAPE   H2S17156   6.698   1.995   6.760  0.7505 -2.2401  0.0589
  155SAPE    C317157   6.192   2.023   6.697  0.6120  0.5813  0.1268
  155SAPE    HX17158   6.191   2.120   6.643  1.9967  0.7515  0.3632
  155SAPE    HY17159   6.086   2.011   6.726  0.6724 -0.7804 -0.1407
  155SAPE   O3117160   6.218   1.927   6.594  0.5064 -0.0377 -0.4855
  155SAPE   C3117161   6.200   1.796   6.626 -0.3294  0.0955  0.4511
  155SAPE   O3217162   6.150   1.742   6.720  0.2081 -0.2597 -0.6670
  155SAPE   C3217163   6.267   1.714   6.518  0.5499  0.2351 -0.2303
  155SAPE   H2X17164   6.377   1.707   6.528  0.5476 -3.3274 -1.3934
  155SAPE   H2Y17165   6.244   1.760   6.420  0.0552 -1.3525 -0.8815
  155SAPE   C2317166   6.695   1.845   6.613 -0.1545  0.5150  1.3268
  155SAPE   H3R17167   6.628   1.814   6.531  0.5591  0.8738  0.5951
  155SAPE   H3S17168   6.698   1.773   6.697 -1.7482  2.5965  3.3066
  155SAPE   C2417169   6.842   1.874   6.563  0.1877 -0.2621  0.2335
  155SAPE   H4R17170   6.889   1.776   6.538  0.5107 -0.2815  0.8965
  155SAPE   H4S17171   6.896   1.909   6.654 -2.0440 -0.9815  1.9241
  155SAPE   C2517172   6.854   1.977   6.457  0.3162  0.4693  0.0194
  155SAPE   H5R17173   6.910   2.068   6.486  1.7372 -0.5851  0.6896
  155SAPE   C2617174   6.806   1.975   6.327  0.0584  0.0068 -0.1696
  155SAPE   H6R17175   6.820   2.067   6.268  0.9100 -1.0070 -1.5906
  155SAPE   C2717176   6.728   1.862   6.265  0.5463 -0.2336  0.1028
  155SAPE   H7R17177   6.761   1.766   6.311  2.1278  0.4462  0.4438
  155SAPE   H7S17178   6.759   1.848   6.159  1.4858 -1.4550  0.5155
  155SAPE   C2817179   6.579   1.856   6.270 -0.0441 -0.5425  0.1574
  155SAPE   H8R17180   6.531   1.863   6.369  0.5936  1.4758  0.3625
  155SAPE   C2917181   6.488   1.872   6.171 -0.6325 -0.9416  0.6830
  155SAPE   H9R17182   6.383   1.864   6.203  0.4165  0.1295  5.0873
  155SAPE  C21017183   6.526   1.868   6.024  0.2628  0.0895 -0.1821
  155SAPE  H10R17184   6.552   1.760   6.017 -0.5759 -0.4820  3.3227
  155SAPE  H10S17185   6.612   1.935   6.005  1.4956 -0.6762  2.2250
  155SAPE  C21117186   6.416   1.893   5.928  0.4395  0.7169  0.0091
  155SAPE  H11R17187   6.321   1.925   5.972  1.2862  2.1276  0.8740
  155SAPE  C21217188   6.430   1.886   5.798  0.2647  0.4048  0.2871
  155SAPE  H12R17189   6.336   1.891   5.742 -0.2681 -0.7526  1.0141
  155SAPE  C21317190   6.556   1.842   5.715  0.3676  0.2343 -0.8130
  155SAPE  H13R17191   6.553   1.735   5.687  1.8126  0.0517 -0.3511
  155SAPE  H13S17192   6.642   1.842   5.785 -0.9997 -2.7865  1.0737
  155SAPE  C21417193   6.581   1.933   5.598  0.0382  0.3659 -0.8321
  155SAPE  H14R17194   6.651   2.017   5.609 -0.2276  0.7075 -1.6804
  155SAPE  C21517195   6.522   1.927   5.480 -0.3912  0.3040  0.3056
  155SAPE  H15R17196   6.558   1.996   5.402 -1.7931  1.3361  0.5414
  155SAPE  C21617197   6.432   1.821   5.433 -0.2510  0.3213 -0.1261
  155SAPE  H16R17198   6.338   1.878   5.415  0.5568  2.0442  0.8798
  155SAPE  H16S17199   6.414   1.735   5.501 -1.2387  2.0629  1.9131
  155SAPE  C21717200   6.484   1.758   5.305  0.3363  0.1415  0.0623
  155SAPE  H17R17201   6.491   1.834   5.224 -3.2106  2.0823  1.3753
  155SAPE  H17S17202   6.412   1.682   5.267 -1.4180  1.9877 -0.4536
  155SAPE  C21817203   6.621   1.681   5.315  0.4008  0.4495 -0.5159
  155SAPE  H18R17204   6.695   1.757   5.348  1.4129 -0.6625 -0.1584
  155SAPE  H18S17205   6.653   1.639   5.217 -0.5025  0.3275 -0.7681
  155SAPE  C21917206   6.635   1.576   5.428  0.2034 -0.1275  0.5125
  155SAPE  H19R17207   6.648   1.631   5.524  1.8746 -0.0911  0.2919
  155SAPE  H19S17208   6.732   1.524   5.414  0.5240  0.1273  1.6480
  155SAPE  C22017209   6.524   1.476   5.427  0.1988 -0.2428 -0.1274
  155SAPE  H20R17210   6.515   1.412   5.337 -2.7538 -0.3195  0.1249
  155SAPE  H20S17211   6.428   1.531   5.437 -0.1730 -0.3698 -2.4073
  155SAPE  H20T17212   6.519   1.402   5.511 -0.3978  1.4378  1.3805
  155SAPE   C3317213   6.226   1.568   6.521  0.9648  0.0373 -0.4767
  155SAPE   H3X17214   6.120   1.537   6.519  0.0869  2.8013 -0.9912
  155SAPE   H3Y17215   6.267   1.528   6.617 -0.6408 -1.4871 -0.3867
  155SAPE   C3417216   6.302   1.491   6.409 -0.2805 -0.8009 -0.1866
  155SAPE   H4X17217   6.298   1.383   6.436  2.2232 -1.0832 -0.7506
  155SAPE   H4Y17218   6.411   1.509   6.404  0.3461 -2.4017  3.9058
  155SAPE   C3517219   6.238   1.502   6.270 -0.5238 -0.6627 -0.6341
  155SAPE   H5X17220   6.258   1.603   6.226 -2.1726  0.3079  0.7100
  155SAPE   H5Y17221   6.128   1.505   6.288 -0.6399 -0.0189 -1.3654
  155SAPE   C3617222   6.273   1.390   6.171  0.0900 -0.1467  0.6506
  155SAPE   H6X17223   6.209   1.303   6.200  0.0669 -0.7264 -1.0301
  155SAPE   H6Y17224   6.380   1.362   6.185  0.3523 -0.2681 -1.2956
  155SAPE   C3717225   6.242   1.433   6.027 -0.3674  0.0378 -0.1809
  155SAPE   H7X17226   6.276   1.537   6.006 -0.7611 -0.0156 -1.1222
  155SAPE   H7Y17227   6.133   1.437   6.010 -0.1483  1.2362 -1.5473
  155SAPE   C3817228   6.290   1.324   5.926 -0.3616 -0.3809 -0.1972
  155SAPE   H8X17229   6.213   1.244   5.922 -1.0086  0.2570 -0.7541
  155SAPE   H8Y17230   6.386   1.275   5.953 -0.5527 -0.6030  0.0926
  155SAPE   C3917231   6.302   1.380   5.779 -0.1113  0.4197 -0.4713
  155SAPE   H9X17232   6.362   1.305   5.722  1.1839  1.0892 -0.0402
  155SAPE   H9Y17233   6.371   1.466   5.787 -0.7135  0.8480  0.2020
  155SAPE  C31017234   6.175   1.427   5.715 -0.2700  0.0328  0.1465
  155SAPE  H10X17235   6.117   1.498   5.778  0.1110 -0.6189  1.2567
  155SAPE  H10Y17236   6.113   1.340   5.684 -0.8534  0.6456 -0.4227
  155SAPE  C31117237   6.213   1.505   5.585 -0.2122  0.0299  0.5507
  155SAPE  H11X17238   6.271   1.432   5.524 -0.4519  0.9940 -0.8928
  155SAPE  H11Y17239   6.268   1.596   5.617 -0.9224  0.6115  0.1633
  155SAPE  C31217240   6.088   1.531   5.492  0.4999  1.0400  0.1533
  155SAPE  H12X17241   6.033   1.618   5.534 -1.2381  1.5316 -2.8948
  155SAPE  H12Y17242   6.027   1.439   5.497  1.9471  0.0854  1.2096
  155SAPE  C31317243   6.120   1.565   5.344 -0.0369 -0.1004 -0.0087
  155SAPE  H13X17244   6.200   1.642   5.345 -1.9135  1.9564 -0.9020
  155SAPE  H13Y17245   6.035   1.616   5.294 -1.6649 -0.7208  1.9831
  155SAPE  C31417246   6.155   1.440   5.261 -0.1943 -0.4490  0.1802
  155SAPE  H14X17247   6.082   1.356   5.264  0.3934 -0.9543  0.3902
  155SAPE  H14Y17248   6.255   1.408   5.297 -0.8457 -1.6350  0.9962
  155SAPE  C31517249   6.167   1.487   5.116 -0.4644 -0.8737 -0.8892
  155SAPE  H15X17250   6.226   1.581   5.124 -1.6461 -0.2378  1.1851
  155SAPE  H15Y17251   6.074   1.529   5.072 -0.1086  0.0177 -0.8234
  155SAPE  C31617252   6.250   1.388   5.026  0.2686 -0.1414 -0.0233
  155SAPE  H16X17253   6.212   1.284   5.033  1.4488 -0.4924  1.8099
  155SAPE  H16Y17254   6.351   1.385   5.071  1.1313 -4.4885 -1.7045
  155SAPE  C31717255   6.270   1.433   4.881  0.4612  0.4365  0.5065
  155SAPE  H17X17256   6.181   1.457   4.819  1.3044 -0.4165 -1.0960
  155SAPE  H17Y17257   6.305   1.347   4.821 -0.0486  1.1239 -0.8078
  155SAPE  C31817258   6.380   1.541   4.852 -0.1719  0.1835  0.5679
  155SAPE  H18X17259   6.350   1.637   4.898  2.0880  0.4415  1.6663
  155SAPE  H18Y17260   6.397   1.554   4.743  1.2578  0.4839  0.7957
  155SAPE  H18Z17261   6.474   1.508   4.903 -0.0075  0.2800  0.3295
  156SAPE     N17262   2.705   0.965   7.097  0.4303  0.1454 -0.5115
  156SAPE   HN117263   2.718   0.862   7.087 -2.5856 -0.3980  0.3545
  156SAPE   HN217264   2.772   0.993   7.171  1.3419  1.8307 -1.8983
  156SAPE   HN317265   2.607   0.988   7.124  1.1707  1.8776  0.9198
  156SAPE   C1217266   2.734   1.032   6.966 -0.4397 -0.4366  0.5003
  156SAPE  H12A17267   2.729   0.967   6.876  0.1926  1.3234 -0.8760
  156SAPE  H12B17268   2.829   1.088   6.980 -0.9793  0.4639  0.6311
  156SAPE   C1117269   2.622   1.139   6.949  0.3248  0.2027  0.8033
  156SAPE  H11A17270   2.522   1.092   6.938  0.9145 -0.5684 -2.4024
  156SAPE  H11B17271   2.636   1.190   6.851  1.4077 -3.1166 -0.9439
  156SAPE     P17272   2.705   1.355   7.092  0.1241  0.2388  0.1896
  156SAPE   O1317273   2.649   1.463   7.018  0.0483 -0.7790 -0.4973
  156SAPE   O1417274   2.698   1.366   7.237 -0.9477  0.2504 -0.0071
  156SAPE   O1217275   2.611   1.228   7.059  0.3347 -0.3284 -0.0638
  156SAPE   O1117276   2.846   1.308   7.045 -0.1145 -0.5849 -0.3398
  156SAPE    C117277   2.954   1.406   7.023  0.2721 -0.1905  0.5379
  156SAPE    HA17278   2.931   1.513   7.042 -3.9499 -0.4176 -1.9990
  156SAPE    HB17279   3.032   1.382   7.099 -0.5307  1.5923  2.0028
  156SAPE    C217280   3.003   1.389   6.879  0.2885  0.1197 -0.3171
  156SAPE    HS17281   3.076   1.469   6.855  1.9287 -0.8852  1.0556
  156SAPE   O2117282   2.888   1.378   6.786 -0.4442 -0.1330  0.1105
  156SAPE   C2117283   2.847   1.503   6.755 -0.6321 -0.8131 -0.7025
  156SAPE   O2217284   2.902   1.602   6.802 -0.0964 -0.0093  0.0597
  156SAPE   C2217285   2.752   1.499   6.634 -0.4815 -0.3354 -0.0653
  156SAPE   H2R17286   2.727   1.392   6.615 -0.6685 -0.3159  0.0733
  156SAPE   H2S17287   2.665   1.560   6.665  1.1721  1.4790  1.2564
  156SAPE    C317288   3.091   1.265   6.854  0.3860 -0.3442  0.2493
  156SAPE    HX17289   3.055   1.190   6.928 -1.8471 -0.3744 -0.7803
  156SAPE    HY17290   3.193   1.284   6.893 -0.1178  3.4936  0.0325
  156SAPE   O3117291   3.102   1.227   6.720 -0.1409 -0.2994  0.4337
  156SAPE   C3117292   3.036   1.118   6.684 -0.6284  0.4737  0.3927
  156SAPE   O3217293   2.957   1.056   6.755  0.3897  0.5320 -0.4272
  156SAPE   C3217294   3.073   1.078   6.541  0.2005  0.1293 -0.2529
  156SAPE   H2X17295   3.168   1.019   6.548  0.2292  0.1253 -0.6203
  156SAPE   H2Y17296   3.086   1.172   6.482  0.8908  0.2693  0.1050
  156SAPE   C2317297   2.817   1.573   6.519 -0.2143  0.2211 -0.1312
  156SAPE   H3R17298   2.859   1.674   6.538 -0.8053  0.4637 -0.0753
  156SAPE   H3S17299   2.744   1.578   6.435 -0.1161 -0.0593 -0.2303
  156SAPE   C2417300   2.936   1.491   6.477  0.6963 -0.0613  0.0172
  156SAPE   H4R17301   3.016   1.466   6.551  2.2350 -1.4682 -2.0088
  156SAPE   H4S17302   2.986   1.557   6.404 -2.8311  1.8058 -0.9004
  156SAPE   C2517303   2.896   1.370   6.394  0.2528 -0.1343  0.5656
  156SAPE   H5R17304   2.861   1.285   6.454  0.1015 -1.1203 -0.8550
  156SAPE   C2617305   2.916   1.345   6.260  0.8610 -0.7763 -0.1376
  156SAPE   H6R17306   2.878   1.249   6.223  1.2540 -0.5356 -1.2061
  156SAPE   C2717307   2.950   1.440   6.153  0.3169 -0.4407 -0.4265
  156SAPE   H7R17308   3.038   1.391   6.106 -0.4324  0.7344 -3.3016
  156SAPE   H7S17309   2.995   1.535   6.188  1.0902 -0.2086 -1.9593
  156SAPE   C2817310   2.839   1.463   6.054  0.6779  0.6274 -0.1736
  156SAPE   H8R17311   2.735   1.453   6.088  1.1301 -1.6103  0.7550
  156SAPE   C2917312   2.858   1.456   5.924 -0.3039 -0.3174  0.0003
  156SAPE   H9R17313   2.775   1.475   5.855  0.2894  1.5559 -0.2645
  156SAPE  C21017314   2.994   1.446   5.848 -0.1797 -0.3401 -0.0612
  156SAPE  H10R17315   3.023   1.340   5.832  3.3412  0.3871  0.6873
  156SAPE  H10S17316   3.079   1.485   5.907 -0.1105  0.3001 -0.5672
  156SAPE  C21117317   2.989   1.526   5.719 -0.1088 -0.7672 -0.2239
  156SAPE  H11R17318   3.032   1.627   5.732 -0.9106 -0.7053  2.6217
  156SAPE  C21217319   2.941   1.490   5.600 -0.6900  0.0369  0.1223
  156SAPE  H12R17320   2.949   1.551   5.509 -0.3372 -0.6814 -0.3437
  156SAPE  C21317321   2.866   1.360   5.575  0.2426 -0.7041 -0.4148
  156SAPE  H13R17322   2.846   1.296   5.664 -0.5055 -1.4805 -1.1191
  156SAPE  H13S17323   2.923   1.291   5.510  0.7452  1.4137 -2.3594
  156SAPE  C21417324   2.736   1.408   5.504 -0.1504 -0.1420  0.2093
  156SAPE  H14R17325   2.683   1.475   5.573  0.2606  0.8219 -0.4014
  156SAPE  C21517326   2.696   1.374   5.379 -0.0402 -0.2810 -0.3193
  156SAPE  H15R17327   2.606   1.422   5.339 -0.8512 -0.3595  1.3211
  156SAPE  C21617328   2.767   1.274   5.293 -0.2439  0.4365  0.0834
  156SAPE  H16R17329   2.705   1.191   5.251  2.3348 -0.6260 -1.9080
  156SAPE  H16S17330   2.855   1.226   5.340 -0.1596  1.0713  0.5733
  156SAPE  C21717331   2.832   1.336   5.166 -0.1338  0.0413  0.6369
  156SAPE  H17R17332   2.869   1.436   5.195  0.8351  0.0094 -0.3794
  156SAPE  H17S17333   2.758   1.368   5.090 -0.1708  0.4560  0.8505
  156SAPE  C21817334   2.958   1.261   5.109  0.0420  0.0849 -0.1013
  156SAPE  H18R17335   2.923   1.158   5.084 -0.5188  0.0401  0.8405
  156SAPE  H18S17336   3.036   1.250   5.187 -0.8877 -2.5986  0.5561
  156SAPE  C21917337   3.014   1.349   4.995 -0.0197  0.0686 -0.0662
  156SAPE  H19R17338   3.028   1.450   5.038 -1.7329 -0.3489  1.5952
  156SAPE  H19S17339   2.947   1.355   4.906 -1.4507  1.0573  1.0226
  156SAPE  C22017340   3.161   1.316   4.942  0.2926  0.2708  0.5697
  156SAPE  H20R17341   3.173   1.206   4.946 -2.7498 -0.3040 -2.1354
  156SAPE  H20S17342   3.243   1.365   4.999  1.9206 -1.4604 -0.2031
  156SAPE  H20T17343   3.173   1.343   4.835  1.7967  0.5028  0.7793
  156SAPE   C3317344   2.977   0.988   6.463  0.0206 -0.8157 -0.1616
  156SAPE   H3X17345   2.876   1.028   6.487  1.8985  2.1195  4.0362
  156SAPE   H3Y17346   2.996   0.886   6.502  1.7769 -0.3821  0.1855
  156SAPE   C3417347   3.007   0.999   6.309 -0.4349 -0.2815 -0.3952
  156SAPE   H4X17348   3.100   0.941   6.291  0.6458  0.5291  2.0806
  156SAPE   H4Y17349   3.039   1.100   6.276  0.1415 -0.3286  0.0057
  156SAPE   C3517350   2.888   0.963   6.219  0.0633 -0.3009 -0.3237
  156SAPE   H5X17351   2.792   1.002   6.259  0.4196 -0.8525  1.1216
  156SAPE   H5Y17352   2.878   0.853   6.213 -0.4823 -0.1683 -3.9688
  156SAPE   C3617353   2.913   0.997   6.073 -0.7422  0.0287 -0.4305
  156SAPE   H6X17354   2.995   0.935   6.032 -1.2654  0.8615 -2.8721
  156SAPE   H6Y17355   2.938   1.104   6.087  0.7451 -0.6434  3.2382
  156SAPE   C3717356   2.797   0.964   5.985 -0.1674  1.0701 -0.0637
  156SAPE   H7X17357   2.711   1.014   6.033 -1.2994 -3.0803  2.7951
  156SAPE   H7Y17358   2.776   0.855   5.990 -2.0978  1.4229  0.2644
  156SAPE   C3817359   2.801   1.000   5.839 -0.4739 -0.8456 -0.1911
  156SAPE   H8X17360   2.899   0.959   5.806 -0.3216  0.0253 -0.8876
  156SAPE   H8Y17361   2.803   1.111   5.835 -0.2410 -0.8412  0.0744
  156SAPE   C3917362   2.688   0.936   5.757 -0.9858 -0.1788 -0.7217
  156SAPE   H9X17363   2.589   0.969   5.796 -0.1276 -0.2303  1.6410
  156SAPE   H9Y17364   2.677   0.827   5.775 -3.0145  0.1872  0.6594
  156SAPE  C31017365   2.700   0.965   5.608 -0.3707 -0.4109  0.3834
  156SAPE  H10X17366   2.783   0.901   5.571 -0.2824 -0.8942  1.3896
  156SAPE  H10Y17367   2.728   1.069   5.584 -0.3607 -1.1127 -3.1711
  156SAPE  C31117368   2.570   0.925   5.539  0.1700 -0.7508 -0.9427
  156SAPE  H11X17369   2.495   0.983   5.597  2.0614  0.8528  0.0396
  156SAPE  H11Y17370   2.568   0.819   5.571  0.4310 -0.3222  0.5923
  156SAPE  C31217371   2.558   0.958   5.396 -0.7928  0.5168  0.1977
  156SAPE  H12X17372   2.560   1.069   5.390  2.6210  0.7806  2.8690
  156SAPE  H12Y17373   2.453   0.934   5.369 -1.2430  0.3024  2.0438
  156SAPE  C31317374   2.667   0.900   5.302  0.0261 -0.2704  0.3874
  156SAPE  H13X17375   2.687   0.792   5.321 -1.1454 -0.8411 -1.3339
  156SAPE  H13Y17376   2.746   0.977   5.305 -1.0282  0.8235  1.2721
  156SAPE  C31417377   2.632   0.911   5.151  0.0694  0.0610 -0.3317
  156SAPE  H14X17378   2.619   1.021   5.139  1.5706  0.0460 -2.6765
  156SAPE  H14Y17379   2.537   0.865   5.118 -0.5325 -0.4761  1.9697
  156SAPE  C31517380   2.753   0.870   5.053 -0.4084 -0.5647 -0.0565
  156SAPE  H15X17381   2.730   0.765   5.025 -0.5700 -0.7822  0.8459
  156SAPE  H15Y17382   2.850   0.885   5.105 -0.3144 -0.3062 -0.3038
  156SAPE  C31617383   2.751   0.957   4.924 -0.2029  0.2658  0.1209
  156SAPE  H16X17384   2.720   1.061   4.949 -1.7875  0.1621 -1.2673
  156SAPE  H16Y17385   2.676   0.916   4.853  2.8144  0.7078 -3.6718
  156SAPE  C31717386   2.880   0.963   4.841 -0.4535  0.1106 -0.3597
  156SAPE  H17X17387   2.904   0.864   4.796  1.0733 -0.2376  1.1104
  156SAPE  H17Y17388   2.961   0.975   4.916  0.1752 -0.2806 -0.9647
  156SAPE  C31817389   2.872   1.061   4.722 -0.5482  0.2797 -0.0196
  156SAPE  H18X17390   2.865   1.165   4.760  3.3555 -0.8581  5.0503
  156SAPE  H18Y17391   2.796   1.030   4.647 -0.2021  1.1374 -0.7356
  156SAPE  H18Z17392   2.966   1.048   4.665 -0.6162 -0.2934 -0.0041
  157SAPE     N17393   0.146   5.922   6.685 -0.4605  0.3274 -0.9009
  157SAPE   HN117394   0.246   5.923   6.655 -0.2651 -1.0837 -0.3880
  157SAPE   HN217395   0.109   5.824   6.684  1.5774 -0.5499  0.9359
  157SAPE   HN317396   0.075   5.982   6.639  0.3698 -0.0118 -2.6938
  157SAPE   C1217397   0.140   5.956   6.831 -0.2650 -0.4044 -0.1099
  157SAPE  H12A17398   0.124   6.066   6.829 -0.5939 -0.4572 -1.9627
  157SAPE  H12B17399   0.240   5.939   6.877  0.0600 -0.8446 -0.9571
  157SAPE   C1117400   0.021   5.897   6.901 -0.2118 -0.5806 -0.4139
  157SAPE  H11A17401  -0.058   5.860   6.833 -0.8804  2.1644 -1.2721
  157SAPE  H11B17402  -0.023   5.963   6.979  0.9280 -1.8573  1.3839
  157SAPE     P17403   0.105   5.641   6.913 -0.5181 -0.0786 -0.3119
  157SAPE   O1317404   0.238   5.589   6.954  0.1500  0.3585  0.4158
  157SAPE   O1417405  -0.011   5.554   6.949 -0.2044  0.0236 -0.2206
  157SAPE   O1217406   0.072   5.786   6.971  0.2781  0.1729 -0.1397
  157SAPE   O1117407   0.102   5.659   6.751  0.5730  0.2928  0.2034
  157SAPE    C117408   0.201   5.593   6.674 -0.2007  0.2215 -0.3401
  157SAPE    HA17409   0.299   5.641   6.689 -0.7048  1.1653  0.0343
  157SAPE    HB17410   0.200   5.485   6.701  0.3788  0.0943 -0.8271
  157SAPE    C217411   0.171   5.584   6.528 -0.0118 -0.4515  0.3354
  157SAPE    HS17412   0.236   5.504   6.486  0.6599 -1.7840  3.6090
  157SAPE   O2117413   0.181   5.715   6.470 -0.3853  0.0479  0.1826
  157SAPE   C2117414   0.224   5.719   6.351 -0.0872  0.1102  0.8831
  157SAPE   O2217415   0.251   5.621   6.279  0.5406 -0.0333  0.0829
  157SAPE   C2217416   0.219   5.865   6.298  0.1611 -0.3287  0.2942
  157SAPE   H2R17417   0.156   5.864   6.206 -0.5037 -3.4012  0.6786
  157SAPE   H2S17418   0.180   5.933   6.376 -1.1159  0.5671 -1.0720
  157SAPE    C317419   0.026   5.532   6.512 -0.9525  0.5916 -0.8795
  157SAPE    HX17420  -0.036   5.610   6.560 -1.1567  0.1150 -0.3486
  157SAPE    HY17421   0.020   5.440   6.575 -0.4759  1.2414  0.1546
  157SAPE   O3117422  -0.012   5.511   6.373  0.0567  0.6257 -0.4991
  157SAPE   C3117423   0.005   5.398   6.325  0.5750  0.1431  0.0031
  157SAPE   O3217424   0.036   5.294   6.381  0.4683  0.2895 -0.5946
  157SAPE   C3217425  -0.032   5.405   6.173 -0.0290  0.6202 -1.0249
  157SAPE   H2X17426  -0.069   5.507   6.149 -0.8138  0.8217  0.8815
  157SAPE   H2Y17427  -0.113   5.331   6.154 -0.2126  0.4870  0.2511
  157SAPE   C2317428   0.354   5.920   6.252  0.7339 -0.2683  0.1287
  157SAPE   H3R17429   0.395   5.858   6.169 -1.0814 -0.6705 -0.5214
  157SAPE   H3S17430   0.430   5.919   6.334  0.1318 -2.1589  0.7289
  157SAPE   C2417431   0.337   6.061   6.191 -0.5067  0.1097 -0.2860
  157SAPE   H4R17432   0.250   6.064   6.123 -1.3732 -3.6152  0.4515
  157SAPE   H4S17433   0.430   6.089   6.137 -0.1503 -0.8101 -0.1795
  157SAPE   C2517434   0.302   6.166   6.298 -0.0928  0.0187 -0.2622
  157SAPE   H5R17435   0.298   6.124   6.400  1.2206 -0.7232 -0.4996
  157SAPE   C2617436   0.293   6.299   6.281 -0.0618 -0.2124 -0.1527
  157SAPE   H6R17437   0.263   6.366   6.363 -0.6443 -0.7279  0.0574
  157SAPE   C2717438   0.309   6.358   6.138 -0.1221  0.5950 -0.3062
  157SAPE   H7R17439   0.357   6.283   6.073 -2.0044 -1.6707  0.7775
  157SAPE   H7S17440   0.374   6.448   6.141 -0.8280  1.0923  2.0350
  157SAPE   C2817441   0.178   6.394   6.081 -0.6125  0.3627 -0.1645
  157SAPE   H8R17442   0.096   6.408   6.152 -0.2273  1.5845  0.0607
  157SAPE   C2917443   0.161   6.426   5.949 -0.7800 -0.1647 -0.0172
  157SAPE   H9R17444   0.064   6.464   5.914 -1.0462 -0.1091  0.7768
  157SAPE  C21017445   0.264   6.425   5.841 -0.2298  0.9265 -0.1462
  157SAPE  H10R17446   0.368   6.435   5.880 -0.3818  4.5413 -0.3719
  157SAPE  H10S17447   0.267   6.519   5.782  2.4835  2.0394  1.5646
  157SAPE  C21117448   0.263   6.294   5.765 -0.8061 -0.3862 -0.0430
  157SAPE  H11R17449   0.222   6.210   5.824  0.0042 -0.3009  0.6473
  157SAPE  C21217450   0.302   6.278   5.639 -0.3549 -0.5476 -0.0650
  157SAPE  H12R17451   0.289   6.180   5.590 -0.4317 -0.7324  0.3185
  157SAPE  C21317452   0.349   6.392   5.547 -0.4649  0.3376  0.1663
  157SAPE  H13R17453   0.276   6.476   5.545 -2.3682 -1.2337  1.0904
  157SAPE  H13S17454   0.344   6.364   5.440  0.5526  0.0038  0.1988
  157SAPE  C21417455   0.498   6.425   5.555  0.4615  0.2432  0.4067
  157SAPE  H14R17456   0.553   6.364   5.628  2.8693  0.4894 -1.0899
  157SAPE  C21517457   0.571   6.517   5.491  0.1453  0.2463 -0.2198
  157SAPE  H15R17458   0.677   6.510   5.521 -0.2251 -0.6346  0.9203
  157SAPE  C21617459   0.525   6.619   5.388 -0.3555 -0.4184  0.9168
  157SAPE  H16R17460   0.557   6.718   5.429  0.1154  0.2381 -0.9411
  157SAPE  H16S17461   0.414   6.620   5.386 -0.3872  1.8930  0.3393
  157SAPE  C21717462   0.571   6.583   5.245  0.0082  0.2007 -0.0922
  157SAPE  H17R17463   0.520   6.491   5.209  2.3439 -1.2995  0.1487
  157SAPE  H17S17464   0.679   6.554   5.243 -0.6019 -2.4878  0.9888
  157SAPE  C21817465   0.537   6.697   5.148  0.3256  0.2549  0.2262
  157SAPE  H18R17466   0.438   6.741   5.169 -1.1893 -1.6448 -2.3062
  157SAPE  H18S17467   0.545   6.663   5.043  0.9640  0.3115  0.2510
  157SAPE  C21917468   0.645   6.806   5.151  0.5462  0.2186 -0.1340
  157SAPE  H19R17469   0.677   6.826   5.256 -0.0816  0.9123 -0.0606
  157SAPE  H19S17470   0.599   6.902   5.117 -1.2059 -0.3842  0.4237
  157SAPE  C22017471   0.765   6.784   5.068  0.1122  0.0982  0.0903
  157SAPE  H20R17472   0.834   6.870   5.084  0.7598 -0.5050  0.6322
  157SAPE  H20S17473   0.738   6.781   4.961 -2.0416  2.0610  0.5084
  157SAPE  H20T17474   0.817   6.691   5.103 -1.6587 -0.2862  1.9040
  157SAPE   C3317475   0.092   5.370   6.084 -0.1750 -0.3059  0.2460
  157SAPE   H3X17476   0.134   5.273   6.117  0.1539  0.5981  2.6918
  157SAPE   H3Y17477   0.165   5.453   6.082 -0.2141 -0.1819  2.2156
  157SAPE   C3417478   0.057   5.348   5.934  0.7763 -0.8292  0.6731
  157SAPE   H4X17479  -0.039   5.292   5.933  0.2879 -0.0193 -0.8044
  157SAPE   H4Y17480   0.138   5.284   5.894  1.1215  0.1071 -0.1684
  157SAPE   C3517481   0.041   5.472   5.853  0.2718  0.0086 -0.2537
  157SAPE   H5X17482   0.105   5.554   5.890  3.1194 -2.7613  1.4311
  157SAPE   H5Y17483  -0.065   5.505   5.853 -0.1558 -1.2297 -1.3196
  157SAPE   C3617484   0.088   5.456   5.706 -0.1463 -0.5786 -0.0601
  157SAPE   H6X17485   0.030   5.379   5.651 -0.7783 -0.4803  0.4567
  157SAPE   H6Y17486   0.196   5.432   5.713  0.2015  0.8788 -0.1489
  157SAPE   C3717487   0.079   5.584   5.619  0.1776 -0.6225  0.9306
  157SAPE   H7X17488   0.116   5.663   5.687  0.3071 -0.8359  1.1077
  157SAPE   H7Y17489  -0.023   5.620   5.593 -0.7440 -2.3115  1.9682
  157SAPE   C3817490   0.148   5.564   5.488  0.0584 -0.5933 -0.0821
  157SAPE   H8X17491   0.107   5.472   5.439 -2.9691  1.9189 -2.7597
  157SAPE   H8Y17492   0.258   5.554   5.496 -0.0683 -0.8918  1.7859
  157SAPE   C3917493   0.138   5.689   5.398  0.1793  0.3267 -0.3168
  157SAPE   H9X17494   0.174   5.781   5.449 -1.5473  0.1747  1.2961
  157SAPE   H9Y17495   0.032   5.706   5.373  0.4475  0.4789 -1.3923
  157SAPE  C31017496   0.210   5.684   5.260  0.1373  0.1063  0.3543
  157SAPE  H10X17497   0.180   5.592   5.205  3.3835 -0.0133 -1.4723
  157SAPE  H10Y17498   0.320   5.671   5.273 -0.0294 -0.8761  0.8601
  157SAPE  C31117499   0.170   5.805   5.168 -0.4149  0.1649 -0.3545
  157SAPE  H11X17500   0.189   5.885   5.243  0.7839 -0.3008 -0.1308
  157SAPE  H11Y17501   0.059   5.802   5.159 -0.2693 -0.6048 -2.4563
  157SAPE  C31217502   0.252   5.812   5.033  0.4107  0.0512 -0.0638
  157SAPE  H12X17503   0.237   5.712   4.987 -0.8520  0.2552 -0.1215
  157SAPE  H12Y17504   0.359   5.829   5.058  1.1892 -2.0980 -1.6670
  157SAPE  C31317505   0.199   5.917   4.936 -1.0752  0.5011  0.5651
  157SAPE  H13X17506   0.196   6.007   5.002 -1.0085  2.0692 -1.4939
  157SAPE  H13Y17507   0.091   5.904   4.915 -1.4487  1.1642  1.9321
  157SAPE  C31417508   0.295   5.951   4.822  0.3978  0.1967  0.0705
  157SAPE  H14X17509   0.319   5.861   4.762 -0.1467  0.8099 -1.1109
  157SAPE  H14Y17510   0.390   5.985   4.869  0.1991 -0.5265  1.0177
  157SAPE  C31517511   0.236   6.064   4.732  0.3229 -0.0802  0.4469
  157SAPE  H15X17512   0.129   6.043   4.712  0.1020  1.2733  0.1480
  157SAPE  H15Y17513   0.282   6.054   4.632 -1.5740 -0.6418 -0.4204
  157SAPE  C31617514   0.250   6.205   4.787  0.8829  0.4321 -0.1371
  157SAPE  H16X17515   0.200   6.199   4.886 -1.3552 -1.5914 -1.2963
  157SAPE  H16Y17516   0.198   6.283   4.727 -2.6673 -0.1857  1.8355
  157SAPE  C31717517   0.396   6.253   4.812 -0.2998  0.2084 -0.3501
  157SAPE  H17X17518   0.443   6.256   4.712  2.1595 -0.9187  0.6687
  157SAPE  H17Y17519   0.433   6.172   4.879 -2.2371 -0.7771 -0.4047
  157SAPE  C31817520   0.402   6.391   4.880 -0.6403 -0.4739 -0.3426
  157SAPE  H18X17521   0.376   6.466   4.801  0.6502  0.6403  0.2507
  157SAPE  H18Y17522   0.508   6.414   4.905 -0.3707 -2.6719  0.6994
  157SAPE  H18Z17523   0.344   6.410   4.973  5.3165  2.1443  3.4076
  158SAPE     N17524   3.145   5.895   7.115  0.5091  0.3501 -0.0561
  158SAPE   HN117525   3.113   5.906   7.214 -1.0555 -1.7923 -0.2663
  158SAPE   HN217526   3.205   5.811   7.123 -2.0911 -1.7365 -1.0776
  158SAPE   HN317527   3.197   5.980   7.084  0.2433  0.9565  1.0664
  158SAPE   C1217528   3.025   5.862   7.034 -0.5159 -0.3668  0.7968
  158SAPE  H12A17529   2.952   5.946   7.035 -0.0831  0.1433 -1.7189
  158SAPE  H12B17530   2.972   5.768   7.058  0.6089 -1.8598 -2.0595
  158SAPE   C1117531   3.052   5.855   6.880  0.1563 -0.0736 -0.0829
  158SAPE  H11A17532   3.128   5.927   6.842 -1.1675  0.2007 -2.3860
  158SAPE  H11B17533   2.954   5.891   6.841 -0.2726 -2.1617 -1.0627
  158SAPE     P17534   3.000   5.628   6.776 -0.1611  0.1356  0.1224
  158SAPE   O1317535   3.075   5.509   6.724 -0.1808 -0.3819  0.5506
  158SAPE   O1417536   2.890   5.598   6.873 -0.6148 -0.3347 -0.6893
  158SAPE   O1217537   3.094   5.732   6.837  0.4171 -0.1360  0.2099
  158SAPE   O1117538   2.942   5.714   6.656 -0.2681 -0.4588 -0.1788
  158SAPE    C117539   3.012   5.763   6.541  0.2430  0.0010 -0.5175
  158SAPE    HA17540   3.106   5.706   6.524  0.6562  0.1184  1.1717
  158SAPE    HB17541   2.950   5.754   6.450  1.1217 -2.8349 -0.9339
  158SAPE    C217542   3.044   5.921   6.546  0.1444  0.1662 -0.1744
  158SAPE    HS17543   3.137   5.937   6.605 -0.5224  1.0916  0.6594
  158SAPE   O2117544   2.925   5.989   6.602  0.4740 -0.2264 -0.6879
  158SAPE   C2117545   2.951   6.111   6.638  0.1221 -0.3088  0.2253
  158SAPE   O2217546   3.064   6.166   6.632  0.2386  0.0275  0.5880
  158SAPE   C2217547   2.826   6.185   6.688  0.2512 -0.0629  0.0218
  158SAPE   H2R17548   2.733   6.134   6.657  0.5550 -0.2132 -0.6709
  158SAPE   H2S17549   2.848   6.201   6.796 -0.2772 -3.0929  0.6606
  158SAPE    C317550   3.078   5.954   6.400  0.7040  0.1494 -0.0987
  158SAPE    HX17551   3.113   6.060   6.393  2.2705 -0.2196  1.4706
  158SAPE    HY17552   2.979   5.950   6.348 -0.0089 -0.2050  1.2576
  158SAPE   O3117553   3.173   5.868   6.335  0.5557  0.2568  0.2323
  158SAPE   C3117554   3.305   5.900   6.357  0.3550  0.4175  0.4497
  158SAPE   O3217555   3.338   5.984   6.433  0.3260 -0.3681  0.4461
  158SAPE   C3217556   3.386   5.781   6.310  0.2341 -0.2991  0.2487
  158SAPE   H2X17557   3.327   5.705   6.254  1.1011 -0.1660 -0.8960
  158SAPE   H2Y17558   3.422   5.729   6.402  0.5501 -0.0311  0.2787
  158SAPE   C2317559   2.819   6.323   6.613 -0.2371 -0.4613  0.0329
  158SAPE   H3R17560   2.913   6.382   6.621 -1.6839  2.2208 -1.3084
  158SAPE   H3S17561   2.732   6.384   6.646  0.4728  0.3202  0.5093
  158SAPE   C2417562   2.815   6.303   6.455 -0.1590 -0.2298 -0.5743
  158SAPE   H4R17563   2.747   6.215   6.451 -1.4780  0.6643  0.7293
  158SAPE   H4S17564   2.915   6.273   6.417 -0.2472 -0.0529 -0.9456
  158SAPE   C2517565   2.778   6.429   6.380  0.1983 -0.3352 -0.5163
  158SAPE   H5R17566   2.810   6.524   6.426 -0.4618 -0.3033 -0.1015
  158SAPE   C2617567   2.703   6.429   6.266 -0.7062 -0.3332 -0.5212
  158SAPE   H6R17568   2.685   6.525   6.217 -0.5589  0.1760  0.3917
  158SAPE   C2717569   2.643   6.307   6.204  0.5769 -0.0164  0.1005
  158SAPE   H7R17570   2.535   6.327   6.191  0.8703  1.3323 -0.3729
  158SAPE   H7S17571   2.629   6.225   6.278 -1.5738 -0.4157 -0.6921
  158SAPE   C2817572   2.718   6.265   6.077 -0.0733 -0.1188 -0.2620
  158SAPE   H8R17573   2.826   6.260   6.097 -0.2863  1.1429  1.4368
  158SAPE   C2917574   2.663   6.236   5.951 -0.9989  0.1830 -0.2966
  158SAPE   H9R17575   2.722   6.188   5.873 -2.3768 -2.6997  0.2863
  158SAPE  C21017576   2.514   6.251   5.926 -0.1485  0.4656  0.1841
  158SAPE  H10R17577   2.502   6.299   5.826 -1.5077 -0.8482 -0.3260
  158SAPE  H10S17578   2.474   6.331   5.991  2.0276  0.5319  1.5323
  158SAPE  C21117579   2.447   6.114   5.916  0.3987 -0.1122  0.8222
  158SAPE  H11R17580   2.382   6.083   5.999  1.1895 -0.6891  1.2299
  158SAPE  C21217581   2.460   6.029   5.818 -0.2630  0.2759 -0.5772
  158SAPE  H12R17582   2.413   5.929   5.817  3.0819 -1.4358  0.3328
  158SAPE  C21317583   2.545   6.042   5.699  0.5595 -0.5155 -0.4291
  158SAPE  H13R17584   2.628   5.968   5.696 -0.6655 -1.9290 -1.7971
  158SAPE  H13S17585   2.593   6.142   5.698  1.2194 -0.7651 -3.2118
  158SAPE  C21417586   2.463   6.038   5.572  0.1834 -0.0187  0.1964
  158SAPE  H14R17587   2.390   6.119   5.562 -0.0884 -0.4541 -2.0280
  158SAPE  C21517588   2.464   5.951   5.466  0.8205 -0.8448 -0.2618
  158SAPE  H15R17589   2.415   5.977   5.370  0.3771  1.3257  0.5031
  158SAPE  C21617590   2.550   5.832   5.467 -0.2817 -0.0979 -0.7921
  158SAPE  H16R17591   2.492   5.744   5.432 -0.9255  0.3120 -0.7626
  158SAPE  H16S17592   2.578   5.793   5.568  1.9336 -2.1028 -2.0794
  158SAPE  C21717593   2.676   5.836   5.385  0.3846  0.0622  0.5657
  158SAPE  H17R17594   2.729   5.741   5.406  2.2900  1.0234  0.2975
  158SAPE  H17S17595   2.742   5.917   5.423 -0.3258  1.1690 -0.4701
  158SAPE  C21817596   2.652   5.849   5.236  0.5035  0.0781  0.7730
  158SAPE  H18R17597   2.630   5.955   5.209  1.5693  0.8008  2.5936
  158SAPE  H18S17598   2.573   5.781   5.199  1.1825 -0.4929  0.3380
  158SAPE  C21917599   2.771   5.805   5.151  0.6709  0.6571 -0.1478
  158SAPE  H19R17600   2.791   5.696   5.161 -0.4754  0.4263 -0.2673
  158SAPE  H19S17601   2.869   5.844   5.185  2.0954 -2.3400 -0.4276
  158SAPE  C22017602   2.737   5.829   5.004 -0.3034 -0.0267 -0.4421
  158SAPE  H20R17603   2.812   5.785   4.935 -0.3029  0.4585 -0.7525
  158SAPE  H20S17604   2.736   5.939   4.992 -1.2094  0.1042  0.6252
  158SAPE  H20T17605   2.637   5.804   4.962 -0.5543 -0.6757  0.4974
  158SAPE   C3317606   3.508   5.830   6.230  0.1320  0.5450 -0.2874
  158SAPE   H3X17607   3.579   5.745   6.220 -1.3908 -0.8807  0.4491
  158SAPE   H3Y17608   3.566   5.896   6.297 -0.7924  0.5032  0.5750
  158SAPE   C3417609   3.465   5.882   6.096 -0.5862 -0.2231  0.2349
  158SAPE   H4X17610   3.411   5.978   6.108 -1.4879 -0.6209 -0.5243
  158SAPE   H4Y17611   3.386   5.817   6.054 -1.2310  0.7801 -0.1411
  158SAPE   C3517612   3.583   5.893   6.003 -0.6521 -0.2664  0.0462
  158SAPE   H5X17613   3.617   5.788   6.014  0.2480  0.0619  0.5869
  158SAPE   H5Y17614   3.661   5.962   6.043 -1.6416  2.1863 -1.9749
  158SAPE   C3617615   3.549   5.918   5.855  0.2907  0.6905  0.1903
  158SAPE   H6X17616   3.494   6.014   5.847  0.0499  0.3996 -2.5537
  158SAPE   H6Y17617   3.497   5.825   5.822 -2.0750  0.6110  3.5837
  158SAPE   C3717618   3.678   5.940   5.779 -0.5613  0.2247 -0.6424
  158SAPE   H7X17619   3.748   5.859   5.808  1.5740  1.6676 -1.5317
  158SAPE   H7Y17620   3.720   6.040   5.806 -0.7523  0.1664 -0.1210
  158SAPE   C3817621   3.659   5.953   5.628 -0.4363  0.3727  0.2016
  158SAPE   H8X17622   3.591   6.036   5.599 -2.5723 -1.4040 -0.1323
  158SAPE   H8Y17623   3.608   5.863   5.587 -0.8554  1.4654 -1.8028
  158SAPE   C3917624   3.790   5.954   5.547  0.4678 -0.6266 -0.2368
  158SAPE   H9X17625   3.846   5.859   5.563  0.4527 -0.5272  0.4602
  158SAPE   H9Y17626   3.857   6.026   5.599 -0.0512 -1.1669  1.2508
  158SAPE  C31017627   3.768   5.990   5.397 -0.2700  0.4929 -0.0308
  158SAPE  H10X17628   3.868   6.017   5.357 -1.7256  2.7838 -2.4081
  158SAPE  H10Y17629   3.706   6.081   5.384 -1.6072 -0.5039 -0.9028
  158SAPE  C31117630   3.710   5.871   5.308 -0.2214  0.2061 -0.0041
  158SAPE  H11X17631   3.617   5.838   5.359 -0.8004  2.4587  0.4820
  158SAPE  H11Y17632   3.782   5.787   5.302  1.8117  1.7694  1.3502
  158SAPE  C31217633   3.689   5.914   5.163  0.4370  0.0787 -0.4589
  158SAPE  H12X17634   3.780   5.965   5.125  1.1971 -0.4138  0.6557
  158SAPE  H12Y17635   3.609   5.992   5.160 -0.8640 -1.2058 -0.2666
  158SAPE  C31317636   3.640   5.799   5.079  0.8397  0.0108  1.2639
  158SAPE  H13X17637   3.570   5.738   5.141  0.9414 -0.2485  1.1233
  158SAPE  H13Y17638   3.728   5.735   5.060  1.9569  1.9763 -0.5926
  158SAPE  C31417639   3.582   5.839   4.945  0.3275  0.8034  0.3593
  158SAPE  H14X17640   3.487   5.892   4.964  0.7928  1.4043  1.0397
  158SAPE  H14Y17641   3.545   5.750   4.889  0.8129 -0.0321  1.3289
  158SAPE  C31517642   3.681   5.921   4.859 -0.1806  0.1182  0.0319
  158SAPE  H15X17643   3.774   5.869   4.827 -0.4841  0.0749 -0.7928
  158SAPE  H15Y17644   3.711   6.003   4.927 -0.4565 -0.7221  1.1992
  158SAPE  C31617645   3.633   5.974   4.726 -0.5235 -0.3863  0.8233
  158SAPE  H16X17646   3.678   6.074   4.709 -3.5799  0.7887 -1.2030
  158SAPE  H16Y17647   3.528   6.002   4.749  0.0521  1.1291  1.8017
  158SAPE  C31717648   3.636   5.880   4.608 -0.2112 -0.0559  0.2271
  158SAPE  H17X17649   3.582   5.784   4.624  0.6482 -0.6789 -0.5535
  158SAPE  H17Y17650   3.741   5.849   4.590 -0.2778  0.6863 -1.7712
  158SAPE  C31817651   3.579   5.940   4.478 -0.3722 -0.4957 -0.2109
  158SAPE  H18X17652   3.637   6.024   4.433  1.2999 -2.0253 -1.0742
  158SAPE  H18Y17653   3.475   5.964   4.507  0.0469 -1.1545  2.0314
  158SAPE  H18Z17654   3.577   5.869   4.393 -0.6299  1.0391 -1.5334
  159SAPE     N17655   4.490   2.128   2.548 -0.0872  0.5081 -0.3050
  159SAPE   HN117656   4.391   2.098   2.548  0.0613  0.0017 -0.9493
  159SAPE   HN217657   4.544   2.077   2.475  0.3122  0.0928  0.2744
  159SAPE   HN317658   4.522   2.095   2.641  0.7038 -0.2102 -0.8193
  159SAPE   C1217659   4.500   2.273   2.549 -1.0454 -0.8633  0.3198
  159SAPE  H12A17660   4.462   2.315   2.454 -0.0493  2.9616  1.4248
  159SAPE  H12B17661   4.607   2.297   2.567 -1.3476  0.4506  0.4849
  159SAPE   C1117662   4.424   2.330   2.671 -1.0197  0.4872  0.7393
  159SAPE  H11A17663   4.458   2.434   2.688  0.4744  0.2869 -0.7659
  159SAPE  H11B17664   4.459   2.272   2.759  1.6859  0.5555 -0.2309
  159SAPE     P17665   4.203   2.383   2.535 -0.2038  0.1227  0.2218
  159SAPE   O1317666   4.208   2.293   2.414  0.0514  0.3834 -0.0810
  159SAPE   O1417667   4.068   2.424   2.581  0.0810 -0.0514 -0.1019
  159SAPE   O1217668   4.282   2.320   2.656 -0.2191  0.5526 -0.8419
  159SAPE   O1117669   4.288   2.510   2.507  0.3394  0.1063 -0.1601
  159SAPE    C117670   4.228   2.643   2.467 -0.3018 -0.2354  0.8518
  159SAPE    HA17671   4.198   2.642   2.360  3.6970 -0.8846 -0.4459
  159SAPE    HB17672   4.148   2.675   2.537 -1.1988  0.8868 -0.6258
  159SAPE    C217673   4.340   2.750   2.469 -0.0857  0.0723  0.4061
  159SAPE    HS17674   4.413   2.710   2.396 -0.2120 -0.3422  0.5052
  159SAPE   O2117675   4.402   2.756   2.602 -0.0202 -0.0966 -0.2445
  159SAPE   C2117676   4.533   2.771   2.602 -0.2130  0.2534 -0.2136
  159SAPE   O2217677   4.603   2.790   2.502  0.8637  0.3501 -0.2721
  159SAPE   C2217678   4.580   2.796   2.744  0.4873 -0.1535 -0.3134
  159SAPE   H2R17679   4.530   2.886   2.784  1.5224  0.4870 -0.4197
  159SAPE   H2S17680   4.552   2.707   2.804 -0.1914 -0.2742 -0.8005
  159SAPE    C317681   4.302   2.895   2.411 -0.4847  0.3881  0.1586
  159SAPE    HX17682   4.206   2.926   2.458 -0.8641 -0.6713  0.1180
  159SAPE    HY17683   4.284   2.874   2.303  0.1800 -0.3440  0.1847
  159SAPE   O3117684   4.408   2.996   2.424  0.0156 -0.9011 -0.1951
  159SAPE   C3117685   4.412   3.079   2.523  0.3683 -0.6667  0.3940
  159SAPE   O3217686   4.330   3.084   2.613  0.1155 -0.8370  0.7630
  159SAPE   C3217687   4.540   3.167   2.507  0.4801  1.0965  0.4957
  159SAPE   H2X17688   4.518   3.239   2.424 -4.0890 -0.1483  0.3278
  159SAPE   H2Y17689   4.626   3.099   2.487 -0.1421  1.0115 -2.4552
  159SAPE   C2317690   4.736   2.810   2.766 -0.2650 -0.0719  0.5009
  159SAPE   H3R17691   4.777   2.885   2.694 -1.5578 -0.5255 -0.7379
  159SAPE   H3S17692   4.777   2.712   2.734  0.5763  0.3273  0.3196
  159SAPE   C2417693   4.781   2.856   2.906  0.3393 -0.5054  0.0037
  159SAPE   H4R17694   4.712   2.937   2.937 -1.2577 -1.8557  0.1221
  159SAPE   H4S17695   4.882   2.898   2.883  0.6535 -2.0828 -1.7790
  159SAPE   C2517696   4.811   2.748   3.003  0.1401  0.4643 -0.0932
  159SAPE   H5R17697   4.758   2.655   2.981 -2.1287  1.7208 -0.2058
  159SAPE   C2617698   4.908   2.751   3.096 -0.2375 -0.2589  0.5033
  159SAPE   H6R17699   4.913   2.669   3.170  1.4984 -1.9084 -1.2890
  159SAPE   C2717700   4.984   2.875   3.138  0.3232  0.2126 -0.2019
  159SAPE   H7R17701   4.960   2.890   3.246  2.0207 -2.0252  0.5973
  159SAPE   H7S17702   4.955   2.962   3.076 -1.1860 -0.0367  0.1126
  159SAPE   C2817703   5.131   2.858   3.117 -0.1852  0.2982 -0.2406
  159SAPE   H8R17704   5.169   2.882   3.017 -0.5946 -0.4936 -0.5971
  159SAPE   C2917705   5.216   2.820   3.219  0.0596 -0.3997 -0.0432
  159SAPE   H9R17706   5.325   2.820   3.206  0.3938 -0.3813  2.2812
  159SAPE  C21017707   5.175   2.804   3.365  0.2920  0.2018  0.5983
  159SAPE  H10R17708   5.245   2.736   3.418  1.4260 -0.0927 -1.1937
  159SAPE  H10S17709   5.083   2.742   3.370  1.1745 -1.0429  3.3790
  159SAPE  C21117710   5.153   2.928   3.454 -1.4900  0.3474  0.1543
  159SAPE  H11R17711   5.141   3.017   3.391  0.8986  1.1810  0.7857
  159SAPE  C21217712   5.140   2.933   3.596 -0.1811 -0.4075  0.3248
  159SAPE  H12R17713   5.146   3.031   3.644 -1.0926 -0.1361 -0.0894
  159SAPE  C21317714   5.153   2.806   3.681 -0.0593  0.3667 -0.0850
  159SAPE  H13R17715   5.241   2.823   3.747 -1.3783  0.9917  1.5672
  159SAPE  H13S17716   5.166   2.707   3.633  1.5797 -0.6135  2.1993
  159SAPE  C21417717   5.027   2.799   3.763 -0.5934 -0.7919 -0.4620
  159SAPE  H14R17718   4.932   2.774   3.714 -0.7218 -2.5619  0.5897
  159SAPE  C21517719   5.013   2.818   3.901 -0.2454 -0.0242  0.2089
  159SAPE  H15R17720   4.913   2.816   3.946 -0.9670 -1.7923 -1.3116
  159SAPE  C21617721   5.123   2.861   3.999 -0.0890  0.7922  0.5958
  159SAPE  H16R17722   5.098   2.961   4.040 -1.6009  0.9236 -0.5605
  159SAPE  H16S17723   5.223   2.878   3.954 -0.1286 -1.2469 -0.3743
  159SAPE  C21717724   5.144   2.769   4.124 -0.5795 -0.3143  0.1693
  159SAPE  H17R17725   5.235   2.794   4.184  1.0091 -2.1409 -1.3394
  159SAPE  H17S17726   5.157   2.664   4.091  1.3635 -0.4873  1.2891
  159SAPE  C21817727   5.022   2.761   4.219  0.6891 -0.6105 -0.2425
  159SAPE  H18R17728   4.926   2.740   4.168 -0.6289  0.7519  1.5327
  159SAPE  H18S17729   5.021   2.860   4.268 -1.3687 -1.5035  1.7217
  159SAPE  C21917730   5.031   2.659   4.329 -0.2850 -0.1679 -1.1652
  159SAPE  H19R17731   5.025   2.561   4.276 -1.1457  0.0994 -1.5997
  159SAPE  H19S17732   4.943   2.672   4.396  2.3211  0.8029  2.3047
  159SAPE  C22017733   5.152   2.668   4.423  0.7676  0.5910  0.0801
  159SAPE  H20R17734   5.132   2.615   4.518  0.7097 -2.1774 -1.3689
  159SAPE  H20S17735   5.171   2.777   4.435 -2.1389  1.3915 -1.5452
  159SAPE  H20T17736   5.234   2.611   4.375 -2.1154 -2.0848 -2.0912
  159SAPE   C3317737   4.558   3.255   2.637  0.1521 -0.7186 -0.7079
  159SAPE   H3X17738   4.461   3.305   2.654  1.1659  0.9901  0.2819
  159SAPE   H3Y17739   4.622   3.343   2.618 -1.5350  0.3225 -1.8809
  159SAPE   C3417740   4.590   3.186   2.770  0.2741  0.2050  0.0332
  159SAPE   H4X17741   4.690   3.140   2.759  0.2271 -0.3790  1.8584
  159SAPE   H4Y17742   4.513   3.108   2.786 -0.5703  1.1608  0.7915
  159SAPE   C3517743   4.599   3.263   2.900 -0.6910 -0.3037  0.6973
  159SAPE   H5X17744   4.496   3.298   2.925 -1.1653 -2.1764  1.6500
  159SAPE   H5Y17745   4.671   3.347   2.901 -0.4556 -0.4959  0.2600
  159SAPE   C3617746   4.638   3.164   3.005  0.0886  0.5609 -0.2281
  159SAPE   H6X17747   4.742   3.128   2.992 -0.1290 -1.0832  2.0178
  159SAPE   H6Y17748   4.573   3.074   3.009  0.6198  0.1477 -0.7433
  159SAPE   C3717749   4.636   3.218   3.152  0.3608 -0.4489  0.4071
  159SAPE   H7X17750   4.532   3.203   3.188  0.2207  1.9076  1.1756
  159SAPE   H7Y17751   4.660   3.326   3.146  1.9664 -0.7256  1.3908
  159SAPE   C3817752   4.730   3.138   3.237 -0.2361  0.1039  0.3863
  159SAPE   H8X17753   4.830   3.176   3.208 -0.5440  1.1626  0.6621
  159SAPE   H8Y17754   4.731   3.034   3.198  1.7430  0.3290 -0.3017
  159SAPE   C3917755   4.695   3.151   3.384 -0.0488  0.1248  0.8311
  159SAPE   H9X17756   4.591   3.115   3.390 -0.4813  1.3293  0.7959
  159SAPE   H9Y17757   4.713   3.259   3.403  1.0140  0.5525 -2.1150
  159SAPE  C31017758   4.797   3.067   3.474 -0.1351 -0.5693  0.2322
  159SAPE  H10X17759   4.899   3.111   3.463 -0.4252  1.3904  3.7635
  159SAPE  H10Y17760   4.796   2.963   3.434 -0.7994 -0.4324 -0.1038
  159SAPE  C31117761   4.748   3.060   3.624 -0.8307 -0.3335  0.2420
  159SAPE  H11X17762   4.788   2.972   3.680 -0.0943 -0.7473 -0.9019
  159SAPE  H11Y17763   4.639   3.049   3.647  0.0544 -4.4729  3.8456
  159SAPE  C31217764   4.802   3.187   3.695  0.5215  0.2960 -0.6488
  159SAPE  H12X17765   4.763   3.273   3.637 -1.6288 -0.7970 -0.9170
  159SAPE  H12Y17766   4.912   3.189   3.711  0.3221  0.2525  0.9459
  159SAPE  C31317767   4.742   3.192   3.832  0.8924  0.6322  0.6397
  159SAPE  H13X17768   4.632   3.178   3.824  0.8022 -0.1950  2.7283
  159SAPE  H13Y17769   4.763   3.295   3.869  1.9591  1.1863 -1.3774
  159SAPE  C31417770   4.810   3.102   3.938  0.3149 -0.1138  0.0226
  159SAPE  H14X17771   4.921   3.095   3.936  0.2928 -1.3266  1.4577
  159SAPE  H14Y17772   4.767   3.001   3.920 -0.7850  0.1593  1.0288
  159SAPE  C31517773   4.767   3.146   4.085 -0.1806  0.0110 -0.8672
  159SAPE  H15X17774   4.656   3.155   4.090 -0.3498 -2.1173  1.9524
  159SAPE  H15Y17775   4.812   3.245   4.106 -0.7252  0.1431 -0.3227
  159SAPE  C31617776   4.807   3.043   4.195  0.3035 -0.3955  0.2703
  159SAPE  H16X17777   4.917   3.032   4.186  0.4984 -0.6787  2.4631
  159SAPE  H16Y17778   4.769   2.938   4.189  0.6680 -0.6806  2.2404
  159SAPE  C31717779   4.772   3.096   4.332 -0.7650  0.1174 -0.2677
  159SAPE  H17X17780   4.675   3.150   4.333 -1.1808 -0.6071 -0.7433
  159SAPE  H17Y17781   4.844   3.177   4.356 -0.1118 -0.0171 -1.6698
  159SAPE  C31817782   4.773   2.991   4.442  0.4020  0.2051 -0.6642
  159SAPE  H18X17783   4.874   2.945   4.447 -0.1788 -1.2816 -1.9554
  159SAPE  H18Y17784   4.698   2.913   4.415  1.1972 -0.6486 -0.4529
  159SAPE  H18Z17785   4.749   3.020   4.547  1.3962 -0.2762 -0.2909
  160SAPE     N17786   3.979   0.792   2.399 -0.0586 -0.0185  0.2947
  160SAPE   HN117787   3.929   0.878   2.369 -0.9721 -0.6171  0.0816
  160SAPE   HN217788   3.910   0.714   2.399 -0.0568 -0.0554  1.6432
  160SAPE   HN317789   4.000   0.818   2.498  1.5389  0.5271 -0.1576
  160SAPE   C1217790   4.109   0.778   2.316 -0.4408  0.2823 -0.6647
  160SAPE  H12A17791   4.154   0.880   2.304  1.8001 -0.2925  1.8500
  160SAPE  H12B17792   4.082   0.750   2.212  0.8505 -1.2318 -0.6293
  160SAPE   C1117793   4.211   0.671   2.359 -0.1160  0.5833  0.4264
  160SAPE  H11A17794   4.283   0.706   2.435 -0.3367  0.5911  0.6319
  160SAPE  H11B17795   4.284   0.646   2.279 -0.1742 -3.2928  1.3900
  160SAPE     P17796   4.163   0.489   2.550 -0.3817 -0.1447 -0.4651
  160SAPE   O1317797   4.050   0.399   2.559 -0.1647  0.0794  0.4252
  160SAPE   O1417798   4.302   0.437   2.573  0.9578  0.0356  0.5175
  160SAPE   O1217799   4.151   0.556   2.410  0.1421 -0.7164 -0.4648
  160SAPE   O1117800   4.133   0.615   2.637 -1.3245 -0.3604  0.1104
  160SAPE    C117801   4.035   0.610   2.749 -0.1924 -0.4085  0.1607
  160SAPE    HA17802   4.000   0.714   2.765 -3.8340 -1.3124 -1.1624
  160SAPE    HB17803   3.938   0.563   2.724  0.1742 -1.8886  1.3535
  160SAPE    C217804   4.084   0.538   2.877  0.4973 -0.6784 -1.1110
  160SAPE    HS17805   4.077   0.427   2.873  0.4069 -0.6807 -0.8699
  160SAPE   O2117806   4.014   0.584   2.993 -0.1708 -0.1786 -0.3530
  160SAPE   C2117807   3.884   0.549   3.006  0.3162  0.4217  0.4647
  160SAPE   O2217808   3.837   0.458   2.936  0.3948 -0.7031  0.4569
  160SAPE   C2217809   3.822   0.600   3.131 -0.8955  0.2001  0.2844
  160SAPE   H2R17810   3.859   0.702   3.153  0.1886 -0.6764  3.0219
  160SAPE   H2S17811   3.715   0.622   3.114 -1.2649 -1.2131  0.6671
  160SAPE    C317812   4.236   0.562   2.906 -0.7350 -0.0366  0.1156
  160SAPE    HX17813   4.244   0.673   2.909 -0.3162 -0.0742  2.0010
  160SAPE    HY17814   4.305   0.533   2.824  1.7805  0.6652  1.8445
  160SAPE   O3117815   4.278   0.508   3.034 -0.4534 -0.1546 -0.1520
  160SAPE   C3117816   4.386   0.423   3.039  0.2035 -0.1992  0.2391
  160SAPE   O3217817   4.458   0.399   2.943  0.4287  0.0506  0.2338
  160SAPE   C3217818   4.401   0.377   3.178  0.0069  0.0172 -1.3081
  160SAPE   H2X17819   4.487   0.309   3.192 -0.2445 -0.5273 -2.2648
  160SAPE   H2Y17820   4.302   0.331   3.201 -1.1289  2.7402 -0.3200
  160SAPE   C2317821   3.826   0.517   3.268  0.0140 -0.0636  0.4769
  160SAPE   H3R17822   3.818   0.409   3.244  0.1000  0.1244 -0.4662
  160SAPE   H3S17823   3.739   0.554   3.327 -0.1724  2.5864 -1.2876
  160SAPE   C2417824   3.968   0.541   3.332  0.2713 -0.1018 -0.3319
  160SAPE   H4R17825   3.991   0.649   3.345  0.4601 -0.0602 -0.9538
  160SAPE   H4S17826   4.039   0.513   3.251  1.4942 -0.4020  0.8114
  160SAPE   C2517827   4.005   0.476   3.461  0.8715  0.1501 -0.0045
  160SAPE   H5R17828   4.058   0.380   3.457 -0.5701 -0.6934  0.2905
  160SAPE   C2617829   4.011   0.533   3.583 -0.0053  0.3758 -1.0753
  160SAPE   H6R17830   4.056   0.480   3.669 -1.3008 -0.6162 -0.9784
  160SAPE   C2717831   3.947   0.665   3.621  0.2656  0.3943 -0.2368
  160SAPE   H7R17832   3.867   0.645   3.695  1.5904 -0.2018  1.0794
  160SAPE   H7S17833   3.886   0.694   3.532 -1.4591  0.2877  0.8633
  160SAPE   C2817834   4.034   0.773   3.670 -0.6539  0.0149 -0.1609
  160SAPE   H8R17835   4.062   0.850   3.596 -1.7288  0.1242 -0.4646
  160SAPE   C2917836   4.110   0.768   3.783 -0.0516 -0.1072  0.7738
  160SAPE   H9R17837   4.181   0.851   3.799 -1.2984  1.1020  0.2266
  160SAPE  C21017838   4.102   0.662   3.889 -0.1965  0.0490 -0.2984
  160SAPE  H10R17839   4.203   0.634   3.925  0.2196 -0.6168 -1.9095
  160SAPE  H10S17840   4.052   0.569   3.855  0.2161 -1.0249  1.8553
  160SAPE  C21117841   4.006   0.704   3.996 -0.1319 -0.5629 -0.6627
  160SAPE  H11R17842   3.901   0.674   3.982 -0.5946  0.6064  0.2516
  160SAPE  C21217843   4.032   0.770   4.112 -0.1483  0.0665 -0.9637
  160SAPE  H12R17844   3.950   0.785   4.184  0.5248  0.6548 -0.3075
  160SAPE  C21317845   4.164   0.822   4.170  0.0473  0.0883 -0.5363
  160SAPE  H13R17846   4.145   0.908   4.238 -0.2836  0.0979 -0.6403
  160SAPE  H13S17847   4.220   0.870   4.086  0.2673  0.1303 -0.3678
  160SAPE  C21417848   4.269   0.727   4.226 -0.6543 -0.4433 -1.4004
  160SAPE  H14R17849   4.372   0.747   4.192  0.5621 -0.7718  1.7293
  160SAPE  C21517850   4.253   0.628   4.325 -0.2846  0.3480  0.1210
  160SAPE  H15R17851   4.341   0.562   4.334  0.0720  0.9676  1.4061
  160SAPE  C21617852   4.122   0.580   4.381  0.0812  0.0935 -0.0279
  160SAPE  H16R17853   4.056   0.663   4.350  0.9827  0.5100 -0.9061
  160SAPE  H16S17854   4.131   0.574   4.492  0.1954  0.3051 -0.0266
  160SAPE  C21717855   4.075   0.443   4.330 -0.2341 -0.2151  0.0326
  160SAPE  H17R17856   4.145   0.362   4.360 -1.3985 -1.5241 -0.6758
  160SAPE  H17S17857   4.060   0.445   4.220 -1.3472  0.1799  0.1762
  160SAPE  C21817858   3.942   0.405   4.400 -0.1022  0.3451 -0.7613
  160SAPE  H18R17859   3.892   0.318   4.349  1.3258 -1.1593  0.3082
  160SAPE  H18S17860   3.883   0.495   4.371 -1.2225 -0.4117 -0.9353
  160SAPE  C21917861   3.934   0.381   4.549  0.1491  0.0938 -0.8165
  160SAPE  H19R17862   3.827   0.363   4.569 -0.1278  0.8265 -1.5912
  160SAPE  H19S17863   3.963   0.473   4.605 -2.2176 -0.4531  1.5033
  160SAPE  C22017864   4.016   0.267   4.609  0.2043 -0.1326  0.5085
  160SAPE  H20R17865   3.997   0.256   4.717  0.6464  0.9063  0.7037
  160SAPE  H20S17866   4.126   0.280   4.593  0.2298 -1.6310 -0.7708
  160SAPE  H20T17867   3.982   0.168   4.571  0.2652  0.2714 -0.6413
  160SAPE   C3317868   4.408   0.487   3.288  0.0224  0.6284  0.0871
  160SAPE   H3X17869   4.329   0.562   3.267  1.2072  1.8013 -0.3334
  160SAPE   H3Y17870   4.504   0.542   3.272  0.4318 -0.2053 -0.4327
  160SAPE   C3417871   4.385   0.431   3.425  0.2356  0.3290 -0.7057
  160SAPE   H4X17872   4.428   0.329   3.430  0.6780  0.5971  2.4982
  160SAPE   H4Y17873   4.276   0.416   3.437  0.0391  1.1690 -1.3290
  160SAPE   C3517874   4.441   0.529   3.530  0.3631 -0.6728 -0.0453
  160SAPE   H5X17875   4.378   0.620   3.519  1.5194  0.0547 -0.8307
  160SAPE   H5Y17876   4.548   0.551   3.510  0.6184 -1.1223  0.7596
  160SAPE   C3617877   4.414   0.476   3.675 -0.4605 -0.2311 -0.2085
  160SAPE   H6X17878   4.305   0.470   3.696 -0.6677  0.8125 -0.9147
  160SAPE   H6Y17879   4.443   0.561   3.741 -1.6608 -0.0963  0.1547
  160SAPE   C3717880   4.494   0.357   3.707 -0.0790  0.5345 -0.1223
  160SAPE   H7X17881   4.597   0.381   3.674  0.7244 -1.4811  0.8123
  160SAPE   H7Y17882   4.447   0.270   3.657 -0.2292  0.6873 -0.2493
  160SAPE   C3817883   4.530   0.315   3.853 -0.4695 -0.2991  0.5006
  160SAPE   H8X17884   4.602   0.387   3.898 -0.7619  0.7270 -0.6116
  160SAPE   H8Y17885   4.578   0.215   3.858 -0.6352 -0.5401 -1.7596
  160SAPE   C3917886   4.400   0.306   3.926 -0.6894  0.1272  0.8530
  160SAPE   H9X17887   4.327   0.229   3.891 -0.8438  0.8472 -0.4537
  160SAPE   H9Y17888   4.357   0.408   3.922  1.3524  1.0045  0.0033
  160SAPE  C31017889   4.430   0.281   4.080  0.1562 -0.7966  0.4697
  160SAPE  H10X17890   4.333   0.294   4.132 -0.6887 -3.7463 -0.2382
  160SAPE  H10Y17891   4.513   0.351   4.107 -0.2452  0.2836 -0.9715
  160SAPE  C31117892   4.459   0.132   4.124 -0.1341 -0.2199  0.5809
  160SAPE  H11X17893   4.540   0.080   4.068  1.3910  1.8382  0.7845
  160SAPE  H11Y17894   4.369   0.072   4.097  0.3079 -0.4811 -0.3426
  160SAPE  C31217895   4.485   0.108   4.271 -0.4407 -0.1694 -0.2049
  160SAPE  H12X17896   4.428   0.020   4.307 -0.1108 -0.0072  0.7352
  160SAPE  H12Y17897   4.438   0.191   4.327 -2.1308 -0.6405 -0.8631
  160SAPE  C31317898   4.637   0.085   4.308  0.2479  0.7344  0.4788
  160SAPE  H13X17899   4.695   0.163   4.254 -0.8417  0.7036 -0.7760
  160SAPE  H13Y17900   4.667  -0.016   4.274 -0.0477  0.7466  0.1788
  160SAPE  C31417901   4.677   0.090   4.456 -0.1841  0.1524 -0.5685
  160SAPE  H14X17902   4.777   0.040   4.456 -0.4136 -0.4452  1.9079
  160SAPE  H14Y17903   4.615   0.027   4.523 -0.4120  0.5997 -0.3603
  160SAPE  C31517904   4.684   0.233   4.519 -0.8248  0.1473  0.1944
  160SAPE  H15X17905   4.720   0.239   4.625  0.2378  1.3514 -0.2100
  160SAPE  H15Y17906   4.579   0.265   4.507 -1.0302 -0.2608  0.8353
  160SAPE  C31617907   4.768   0.335   4.435 -0.3722  0.5927  0.2979
  160SAPE  H16X17908   4.738   0.327   4.328 -0.7545 -2.3518  0.5557
  160SAPE  H16Y17909   4.876   0.322   4.456 -0.1890  2.6970  0.8709
  160SAPE  C31717910   4.736   0.477   4.476 -0.2524 -0.5095  0.2686
  160SAPE  H17X17911   4.764   0.488   4.583 -3.3762  1.7084  1.0076
  160SAPE  H17Y17912   4.628   0.500   4.481  0.4519  3.2766  0.9694
  160SAPE  C31817913   4.810   0.583   4.390 -0.0795 -0.1571  0.1680
  160SAPE  H18X17914   4.919   0.585   4.409 -0.3265  2.6080  1.6891
  160SAPE  H18Y17915   4.765   0.682   4.411  1.4621  0.5189  0.3303
  160SAPE  H18Z17916   4.799   0.542   4.287  0.0410 -4.4127  1.6493
  161SAPE     N17917   1.470   6.580   2.783 -0.1749  0.2178  0.3261
  161SAPE   HN117918   1.449   6.642   2.864  2.9739  1.9340 -0.0477
  161SAPE   HN217919   1.563   6.541   2.809  0.3731  1.2217 -0.0921
  161SAPE   HN317920   1.487   6.647   2.706 -2.3587  0.3639 -0.0901
  161SAPE   C1217921   1.374   6.462   2.765  0.0385  0.0219 -0.4696
  161SAPE  H12A17922   1.424   6.396   2.690  2.4692  0.6074  0.5581
  161SAPE  H12B17923   1.270   6.498   2.752  0.3967  1.3932  0.3452
  161SAPE   C1117924   1.385   6.370   2.894  0.3615 -0.2051 -0.9738
  161SAPE  H11A17925   1.489   6.341   2.916  0.2585 -0.4575 -0.8167
  161SAPE  H11B17926   1.320   6.283   2.870  0.8812 -1.2534  1.1715
  161SAPE     P17927   1.228   6.399   3.105  0.3347  0.4107  0.0535
  161SAPE   O1317928   1.177   6.519   3.174  0.3535  0.4298  0.7855
  161SAPE   O1417929   1.119   6.328   3.029 -0.4187 -0.0056  0.0293
  161SAPE   O1217930   1.329   6.452   3.005  0.8771  0.1785 -0.1767
  161SAPE   O1117931   1.318   6.305   3.193  0.0456 -0.0559 -0.1713
  161SAPE    C117932   1.345   6.349   3.324 -0.0259 -0.6187  0.1576
  161SAPE    HA17933   1.417   6.271   3.358 -1.0818 -1.6191  0.1465
  161SAPE    HB17934   1.392   6.450   3.332 -1.0723 -0.0186 -1.0042
  161SAPE    C217935   1.223   6.348   3.426  0.3355  0.5069  0.5132
  161SAPE    HS17936   1.144   6.422   3.404 -0.1253  0.2394  1.2600
  161SAPE   O2117937   1.274   6.377   3.556  0.2659  0.5007  0.7275
  161SAPE   C2117938   1.178   6.407   3.642 -0.4237 -0.3072  0.3518
  161SAPE   O2217939   1.064   6.435   3.611  0.5531  0.6077 -0.8180
  161SAPE   C2217940   1.234   6.400   3.783  0.3129 -0.2952 -0.4673
  161SAPE   H2R17941   1.277   6.299   3.796  1.2320 -0.2800 -2.9617
  161SAPE   H2S17942   1.323   6.467   3.790 -0.6679  1.0382 -0.3874
  161SAPE    C317943   1.158   6.208   3.422 -0.1130 -0.6957 -0.1867
  161SAPE    HX17944   1.134   6.182   3.317 -0.3970 -4.9612  0.7204
  161SAPE    HY17945   1.071   6.227   3.488  0.3981  0.1441  0.2566
  161SAPE   O3117946   1.258   6.112   3.470 -0.8449 -0.9307 -0.0724
  161SAPE   C3117947   1.213   6.036   3.562  0.0829 -0.4766  0.5063
  161SAPE   O3217948   1.096   6.042   3.601  0.0332 -0.4054 -0.2687
  161SAPE   C3217949   1.319   5.940   3.614 -0.7252 -0.7938 -0.3813
  161SAPE   H2X17950   1.396   5.924   3.536 -0.9256 -1.5503 -0.4296
  161SAPE   H2Y17951   1.280   5.836   3.622 -0.3995 -0.7967  1.4225
  161SAPE   C2317952   1.127   6.421   3.893 -0.0285  0.1151 -0.4390
  161SAPE   H3R17953   1.082   6.520   3.872 -1.1301 -0.4713 -0.9185
  161SAPE   H3S17954   1.179   6.424   3.992 -1.1814 -0.7673  0.2128
  161SAPE   C2417955   1.019   6.306   3.904  0.5578  0.5843  0.9097
  161SAPE   H4R17956   0.962   6.311   3.809 -0.9407  1.5886  1.8263
  161SAPE   H4S17957   0.941   6.327   3.980 -0.1116  2.0249 -0.1413
  161SAPE   C2517958   1.063   6.163   3.907 -0.0407  0.8649 -0.7940
  161SAPE   H5R17959   1.109   6.127   3.813  2.4071  1.9501 -0.0936
  161SAPE   C2617960   1.035   6.077   4.001 -0.4676 -0.8399 -0.8639
  161SAPE   H6R17961   1.063   5.971   3.988  0.0382 -0.5595 -2.2459
  161SAPE   C2717962   0.968   6.116   4.134  0.0016  0.3947  0.4791
  161SAPE   H7R17963   0.995   6.217   4.172 -1.2040  0.2984  1.6938
  161SAPE   H7S17964   0.997   6.038   4.207 -2.9568 -2.7875 -1.4666
  161SAPE   C2817965   0.817   6.115   4.127 -0.2262 -0.0312  0.3904
  161SAPE   H8R17966   0.770   6.095   4.029 -0.3696  0.0441  0.4432
  161SAPE   C2917967   0.737   6.116   4.234 -0.3213 -0.3073  0.1400
  161SAPE   H9R17968   0.630   6.122   4.209 -0.5341 -2.7146  0.1800
  161SAPE  C21017969   0.777   6.121   4.382  0.7383  0.0177 -0.6611
  161SAPE  H10R17970   0.812   6.224   4.405 -0.2979  0.0925  0.7469
  161SAPE  H10S17971   0.872   6.067   4.403  1.1852  0.8395 -0.5152
  161SAPE  C21117972   0.665   6.073   4.473  0.9525  0.4094 -0.0187
  161SAPE  H11R17973   0.589   6.006   4.432  2.0837 -1.8242  1.3648
  161SAPE  C21217974   0.664   6.072   4.609  0.4337 -1.0306  0.2428
  161SAPE  H12R17975   0.575   6.031   4.659 -1.1737 -0.0149 -1.6237
  161SAPE  C21317976   0.762   6.137   4.704 -0.0389 -0.5710  0.5432
  161SAPE  H13R17977   0.720   6.221   4.764  0.4557 -0.1357  0.2902
  161SAPE  H13S17978   0.849   6.175   4.646 -0.7595 -3.0078 -2.3600
  161SAPE  C21417979   0.817   6.027   4.786 -0.1741  1.2252 -0.0538
  161SAPE  H14R17980   0.902   5.986   4.729 -0.3455  1.6095 -0.6039
  161SAPE  C21517981   0.781   5.982   4.910  0.4011  0.0055 -0.1879
  161SAPE  H15R17982   0.841   5.906   4.961  0.8209 -0.3714 -1.2110
  161SAPE  C21617983   0.671   6.039   4.991 -0.1630  0.3541 -0.1063
  161SAPE  H16R17984   0.610   5.949   5.015  1.2310 -0.6950 -0.3513
  161SAPE  H16S17985   0.611   6.112   4.933  0.1504  2.1225  1.6897
  161SAPE  C21717986   0.700   6.104   5.128  0.2081 -0.5996 -0.3610
  161SAPE  H17R17987   0.772   6.189   5.127  0.0815 -0.4908 -0.2182
  161SAPE  H17S17988   0.750   6.031   5.195 -0.8257 -0.9188  0.0824
  161SAPE  C21817989   0.583   6.164   5.208  1.1737  0.0405 -0.4662
  161SAPE  H18R17990   0.533   6.247   5.154  0.1697 -1.2936 -1.6408
  161SAPE  H18S17991   0.620   6.211   5.302 -0.7691  0.0994  0.3105
  161SAPE  C21917992   0.476   6.068   5.247 -0.2498  0.4887  1.1102
  161SAPE  H19R17993   0.434   6.016   5.159  2.3966 -1.6680  0.9760
  161SAPE  H19S17994   0.390   6.127   5.286 -1.2665 -0.1420 -0.1063
  161SAPE  C22017995   0.511   5.970   5.360  0.3201  0.3352 -0.2519
  161SAPE  H20R17996   0.607   5.916   5.344  0.0225 -1.0972  2.2268
  161SAPE  H20S17997   0.430   5.893   5.366  1.5172 -0.8586  1.5384
  161SAPE  H20T17998   0.500   6.025   5.455 -2.2913 -1.7198  0.7695
  161SAPE   C3317999   1.357   5.983   3.758 -0.7504 -0.6553 -0.5633
  161SAPE   H3X18000   1.275   5.964   3.830  0.2185 -2.0155  0.2297
  161SAPE   H3Y18001   1.392   6.088   3.762  0.2239 -0.9401 -1.3260
  161SAPE   C3418002   1.482   5.898   3.808  0.2536  0.4537  0.0441
  161SAPE   H4X18003   1.572   5.893   3.743 -0.5674 -0.3163 -1.0569
  161SAPE   H4Y18004   1.439   5.796   3.814  0.0154  0.5464 -0.0653
  161SAPE   C3518005   1.529   5.940   3.946 -0.1842 -0.1129  0.5709
  161SAPE   H5X18006   1.447   5.999   3.992 -0.8970 -0.6153 -0.0189
  161SAPE   H5Y18007   1.614   6.010   3.948 -0.5549  0.4667  5.0472
  161SAPE   C3618008   1.564   5.822   4.040  0.2161  0.4815  0.3311
  161SAPE   H6X18009   1.664   5.783   4.014  0.1342  0.6548 -0.2628
  161SAPE   H6Y18010   1.492   5.739   4.020  2.0399 -1.2063  0.4412
  161SAPE   C3718011   1.559   5.853   4.186  0.7018 -0.0775  0.6423
  161SAPE   H7X18012   1.584   5.760   4.242 -0.3458 -0.6664  0.1733
  161SAPE   H7Y18013   1.453   5.877   4.212  0.0772 -0.0577 -1.6936
  161SAPE   C3818014   1.642   5.970   4.236 -0.0333 -0.6082  0.5932
  161SAPE   H8X18015   1.600   6.070   4.210 -1.7075 -0.7664  2.4368
  161SAPE   H8Y18016   1.736   5.977   4.178  0.2558 -2.3518  0.8205
  161SAPE   C3918017   1.669   5.977   4.386 -0.3342 -0.4097  0.4784
  161SAPE   H9X18018   1.576   5.962   4.444 -0.4373  1.1950  0.7589
  161SAPE   H9Y18019   1.706   6.076   4.421 -0.0237 -0.7654  1.1867
  161SAPE  C31018020   1.787   5.887   4.421 -0.2286  0.7351 -0.2511
  161SAPE  H10X18021   1.874   5.915   4.358  0.4469 -0.6814 -0.0040
  161SAPE  H10Y18022   1.756   5.782   4.403 -0.4081  0.0541  3.2247
  161SAPE  C31118023   1.826   5.898   4.566  0.2165  1.2190 -0.6639
  161SAPE  H11X18024   1.746   5.886   4.643  0.8078  3.7631  0.4605
  161SAPE  H11Y18025   1.860   6.001   4.588  0.3949  1.1034 -0.3899
  161SAPE  C31218026   1.947   5.799   4.594 -0.0558 -0.9345 -0.1347
  161SAPE  H12X18027   2.018   5.839   4.519 -1.8207 -1.4509 -2.1566
  161SAPE  H12Y18028   1.926   5.693   4.569 -1.5160 -0.4757 -0.9537
  161SAPE  C31318029   1.984   5.806   4.746  0.1389 -0.4287 -0.1703
  161SAPE  H13X18030   1.916   5.757   4.818 -0.1472 -1.6139 -1.2130
  161SAPE  H13Y18031   2.005   5.913   4.769  2.1013 -0.6519 -0.7307
  161SAPE  C31418032   2.120   5.738   4.755 -0.5131  0.3803 -0.8518
  161SAPE  H14X18033   2.192   5.785   4.685 -1.1847  0.9226 -1.1994
  161SAPE  H14Y18034   2.124   5.630   4.728 -1.3920 -0.1180  0.9155
  161SAPE  C31518035   2.177   5.728   4.900 -0.0257 -0.5224 -0.2572
  161SAPE  H15X18036   2.265   5.662   4.908 -1.3804 -2.2997  0.7283
  161SAPE  H15Y18037   2.100   5.676   4.961  0.6235 -0.2668  0.8007
  161SAPE  C31618038   2.212   5.876   4.937 -0.1426 -0.8617 -0.3170
  161SAPE  H16X18039   2.118   5.931   4.958  1.6785  2.9233 -1.1589
  161SAPE  H16Y18040   2.264   5.927   4.853  0.8580  1.4268  1.5675
  161SAPE  C31718041   2.309   5.880   5.053 -0.8886 -0.0853  0.5063
  161SAPE  H17X18042   2.304   5.982   5.096 -2.5502 -1.1926  3.1663
  161SAPE  H17Y18043   2.414   5.855   5.025 -1.0913 -1.0189  0.5511
  161SAPE  C31818044   2.267   5.787   5.161 -0.2718 -0.0828  0.2074
  161SAPE  H18X18045   2.166   5.816   5.196 -1.0646  0.4951 -2.4007
  161SAPE  H18Y18046   2.334   5.792   5.250 -0.3356  0.7476  0.2196
  161SAPE  H18Z18047   2.278   5.679   5.136  2.1880  0.0183  0.5903
  162SAPE     N18048   1.081   1.473   2.737 -0.3721  0.0647 -0.4819
  162SAPE   HN118049   1.044   1.570   2.734  4.2114  2.0378 -0.9634
  162SAPE   HN218050   1.002   1.408   2.715 -0.4187  0.4206 -1.3808
  162SAPE   HN318051   1.115   1.453   2.833 -1.8540  0.7495  0.2177
  162SAPE   C1218052   1.189   1.467   2.626 -0.5006 -0.2150  0.0259
  162SAPE  H12A18053   1.139   1.460   2.528 -0.1156 -0.5766 -0.1435
  162SAPE  H12B18054   1.247   1.373   2.634  0.8060  0.5593  0.0259
  162SAPE   C1118055   1.284   1.588   2.620 -0.0191 -0.0315 -0.2451
  162SAPE  H11A18056   1.382   1.548   2.586 -0.2845 -1.8558  0.9785
  162SAPE  H11B18057   1.307   1.621   2.723 -3.1016  1.2324  0.1510
  162SAPE     P18058   1.138   1.810   2.583  0.5393 -0.1268 -0.2528
  162SAPE   O1318059   1.091   1.898   2.473  0.1800 -0.1963 -0.3626
  162SAPE   O1418060   1.027   1.743   2.654  0.8817  0.0550  0.1214
  162SAPE   O1218061   1.237   1.698   2.537 -0.0014  0.2281 -0.6667
  162SAPE   O1118062   1.223   1.909   2.668 -0.0443  0.4454 -0.3814
  162SAPE    C118063   1.253   1.899   2.812 -0.2018  0.0192  0.0957
  162SAPE    HA18064   1.235   1.799   2.856 -0.6293 -0.0737 -0.2799
  162SAPE    HB18065   1.361   1.923   2.825 -0.5445  1.2213  0.8929
  162SAPE    C218066   1.189   2.008   2.896  1.0279  0.2918 -0.4038
  162SAPE    HS18067   1.080   2.016   2.878  0.4974  1.6249  2.6436
  162SAPE   O2118068   1.257   2.126   2.862 -0.2291 -0.3719  1.2112
  162SAPE   C2118069   1.219   2.241   2.915  0.2204 -0.0090  0.7584
  162SAPE   O2218070   1.116   2.258   2.979  0.1067  0.2344 -0.0328
  162SAPE   C2218071   1.315   2.352   2.881  0.2087  1.2029  0.1922
  162SAPE   H2R18072   1.404   2.313   2.826  0.0849 -1.1792  1.5334
  162SAPE   H2S18073   1.275   2.428   2.811 -0.2822  0.0617 -0.7839
  162SAPE    C318074   1.198   1.977   3.049  0.0850  0.1366 -0.4857
  162SAPE    HX18075   1.156   1.874   3.057  0.2145  0.0025 -1.4329
  162SAPE    HY18076   1.137   2.049   3.108 -1.3122  0.1497 -1.8628
  162SAPE   O3118077   1.339   1.979   3.082  0.3185  0.0813  0.6231
  162SAPE   C3118078   1.368   1.940   3.204  0.2735 -0.4427  0.7994
  162SAPE   O3218079   1.282   1.918   3.285  0.3894  0.3723 -0.7403
  162SAPE   C3218080   1.515   1.940   3.227 -0.1618 -0.0276 -0.7821
  162SAPE   H2X18081   1.550   2.040   3.195 -2.4602  0.7987 -0.8582
  162SAPE   H2Y18082   1.570   1.861   3.171 -0.4360 -0.5847 -0.2852
  162SAPE   C2318083   1.375   2.412   3.013 -0.9811  0.0818 -0.1524
  162SAPE   H3R18084   1.299   2.459   3.079 -0.4654 -1.7551  1.8698
  162SAPE   H3S18085   1.443   2.492   2.977 -0.1565 -1.1532 -1.4387
  162SAPE   C2418086   1.450   2.307   3.104  0.1768 -0.0414  0.2691
  162SAPE   H4R18087   1.503   2.235   3.038  0.2134 -0.3303  0.6089
  162SAPE   H4S18088   1.380   2.250   3.168 -0.3742 -0.0226 -0.3008
  162SAPE   C2518089   1.552   2.364   3.196 -0.0346 -0.3149 -0.2387
  162SAPE   H5R18090   1.629   2.423   3.144 -1.3812  0.0592 -1.8834
  162SAPE   C2618091   1.549   2.383   3.335  0.0872  0.6260  1.3007
  162SAPE   H6R18092   1.641   2.431   3.374  4.1168 -4.5747 -0.6314
  162SAPE   C2718093   1.449   2.338   3.434 -0.1865 -0.5856 -0.0889
  162SAPE   H7R18094   1.484   2.362   3.536  0.0321 -1.7830  0.1348
  162SAPE   H7S18095   1.442   2.227   3.431 -0.8646 -0.5409 -0.4217
  162SAPE   C2818096   1.315   2.407   3.403 -0.2372  0.5866  0.7051
  162SAPE   H8R18097   1.260   2.391   3.310 -1.4301 -1.3962  1.6968
  162SAPE   C2918098   1.253   2.487   3.488 -0.2809 -0.6574 -0.3581
  162SAPE   H9R18099   1.164   2.538   3.448 -0.2670 -1.2663 -1.1878
  162SAPE  C21018100   1.291   2.520   3.632  0.7478  0.0208  0.5538
  162SAPE  H10R18101   1.379   2.587   3.642  0.3396  0.6104  0.2149
  162SAPE  H10S18102   1.334   2.429   3.681  2.4857  1.0584  1.0728
  162SAPE  C21118103   1.176   2.578   3.711  0.1874 -0.0384 -0.4907
  162SAPE  H11R18104   1.081   2.612   3.667 -0.4916  1.3688  1.9024
  162SAPE  C21218105   1.195   2.606   3.841  1.0700  0.0839  0.2950
  162SAPE  H12R18106   1.117   2.663   3.893  2.2905  1.7612  0.3777
  162SAPE  C21318107   1.323   2.575   3.923 -0.0256 -1.1949 -0.3860
  162SAPE  H13R18108   1.392   2.660   3.907  0.0089 -0.9679  0.8368
  162SAPE  H13S18109   1.368   2.479   3.892 -0.2627 -1.6775  0.6891
  162SAPE  C21418110   1.305   2.557   4.075 -0.0808 -1.2448 -0.2342
  162SAPE  H14R18111   1.203   2.560   4.117 -0.4607 -0.7201 -1.1696
  162SAPE  C21518112   1.405   2.575   4.164 -0.3893 -0.8795 -0.2526
  162SAPE  H15R18113   1.381   2.565   4.271 -0.8306  2.2704  0.0278
  162SAPE  C21618114   1.552   2.597   4.135  0.3632  0.0466  0.1950
  162SAPE  H16R18115   1.589   2.654   4.222  1.6521 -1.8841  0.9876
  162SAPE  H16S18116   1.579   2.653   4.043 -1.1311  0.2891 -0.1359
  162SAPE  C21718117   1.635   2.468   4.150  0.5133  0.5423 -0.0022
  162SAPE  H17R18118   1.622   2.419   4.249  2.3491 -1.0425 -0.4958
  162SAPE  H17S18119   1.740   2.502   4.145  1.0951 -1.3192 -1.6057
  162SAPE  C21818120   1.612   2.368   4.035 -0.1931  0.2636  0.2154
  162SAPE  H18R18121   1.501   2.357   4.037 -0.0599 -1.1888  0.8293
  162SAPE  H18S18122   1.646   2.265   4.060 -1.5553 -0.5453 -1.0825
  162SAPE  C21918123   1.677   2.425   3.908 -0.0631  0.7048 -0.3248
  162SAPE  H19R18124   1.782   2.462   3.918 -0.1143  0.4192  1.6125
  162SAPE  H19S18125   1.620   2.515   3.879  1.4419  1.5400 -0.7855
  162SAPE  C22018126   1.669   2.329   3.785 -0.1534  0.1814 -1.2129
  162SAPE  H20R18127   1.570   2.281   3.768  0.0356 -0.2457 -1.1215
  162SAPE  H20S18128   1.750   2.252   3.790  0.8183  1.0097 -3.2863
  162SAPE  H20T18129   1.716   2.390   3.705  2.5434  0.0805  0.1745
  162SAPE   C3318130   1.559   1.919   3.379  0.1811 -0.1677 -0.1446
  162SAPE   H3X18131   1.556   1.811   3.407 -1.6422 -0.4156 -1.1503
  162SAPE   H3Y18132   1.485   1.969   3.444  0.6086  0.2983 -0.0089
  162SAPE   C3418133   1.678   2.003   3.425 -0.1881  0.0869 -0.3332
  162SAPE   H4X18134   1.669   2.109   3.395  0.4139  0.3073  0.2481
  162SAPE   H4Y18135   1.768   1.964   3.374 -0.0562  0.1687 -0.1613
  162SAPE   C3518136   1.718   2.001   3.569 -0.2149 -0.2573 -0.1568
  162SAPE   H5X18137   1.634   2.046   3.627 -1.4460 -0.3202 -1.7878
  162SAPE   H5Y18138   1.810   2.058   3.593 -0.1996 -0.9259  1.5007
  162SAPE   C3618139   1.742   1.860   3.624 -0.2052 -0.0501 -0.0725
  162SAPE   H6X18140   1.844   1.857   3.667 -0.3830 -0.3620  0.3278
  162SAPE   H6Y18141   1.752   1.798   3.532  0.1761 -1.4768  0.8991
  162SAPE   C3718142   1.645   1.786   3.712  0.4062  0.6573 -0.6038
  162SAPE   H7X18143   1.679   1.682   3.732 -1.1203 -0.1839 -2.1490
  162SAPE   H7Y18144   1.547   1.770   3.661 -1.5922 -0.4681  3.1449
  162SAPE   C3818145   1.590   1.860   3.834  0.1004 -0.0509  0.4128
  162SAPE   H8X18146   1.484   1.833   3.856  0.2153 -1.3057 -0.4467
  162SAPE   H8Y18147   1.588   1.969   3.812  0.5355 -0.3241 -1.0887
  162SAPE   C3918148   1.686   1.847   3.955 -0.2300 -0.1798  0.3716
  162SAPE   H9X18149   1.790   1.855   3.918 -0.5136 -0.2067 -0.4451
  162SAPE   H9Y18150   1.683   1.743   3.994 -2.2478 -0.0723  0.5913
  162SAPE  C31018151   1.667   1.958   4.067  0.4743 -0.5120  0.3210
  162SAPE  H10X18152   1.574   1.940   4.126  0.5113  0.9969  0.8827
  162SAPE  H10Y18153   1.652   2.053   4.011  1.6313 -0.9110 -0.7205
  162SAPE  C31118154   1.789   1.965   4.163 -0.1661  0.6713 -0.3466
  162SAPE  H11X18155   1.877   1.972   4.097  1.6878 -0.5289  1.8492
  162SAPE  H11Y18156   1.796   1.865   4.212 -1.4295  1.4969  1.6592
  162SAPE  C31218157   1.795   2.073   4.273 -0.7403  0.4157  0.8738
  162SAPE  H12X18158   1.819   2.172   4.227 -0.5681  0.4374  1.0110
  162SAPE  H12Y18159   1.877   2.044   4.343 -0.0760 -1.7644 -0.7043
  162SAPE  C31318160   1.673   2.088   4.361  0.3181  0.3535 -0.2768
  162SAPE  H13X18161   1.584   2.096   4.295  0.4482  0.4271 -0.4459
  162SAPE  H13Y18162   1.676   2.189   4.407 -1.1981 -0.1176  0.9457
  162SAPE  C31418163   1.652   1.969   4.457 -0.4173  0.0981  0.2259
  162SAPE  H14X18164   1.732   1.968   4.533 -1.2383 -0.6503  1.1172
  162SAPE  H14Y18165   1.669   1.872   4.405  0.6659 -0.5968  1.8040
  162SAPE  C31518166   1.519   1.971   4.532  0.3425  0.4173  0.3727
  162SAPE  H15X18167   1.515   1.883   4.600 -0.4403 -0.3721 -0.6498
  162SAPE  H15Y18168   1.440   1.959   4.455  2.2024  3.0569 -2.1604
  162SAPE  C31618169   1.493   2.093   4.615 -0.0399 -0.5781  0.6545
  162SAPE  H16X18170   1.512   2.181   4.550  0.4724 -1.2679 -0.1639
  162SAPE  H16Y18171   1.560   2.113   4.702 -0.1435  1.0007  0.4007
  162SAPE  C31718172   1.351   2.079   4.678 -0.2956 -0.9217 -0.0726
  162SAPE  H17X18173   1.344   1.985   4.737 -2.3379 -0.6964  0.1126
  162SAPE  H17Y18174   1.284   2.087   4.589  1.2631 -0.4690 -1.2510
  162SAPE  C31818175   1.310   2.201   4.766  0.3424 -0.2263  0.5892
  162SAPE  H18X18176   1.312   2.291   4.701 -2.0688 -0.6197 -0.1627
  162SAPE  H18Y18177   1.380   2.221   4.850  0.8021 -1.6772  0.5738
  162SAPE  H18Z18178   1.205   2.196   4.803  0.1682  1.0505  0.3254
  163SAPE     N18179   0.923   6.608   3.123 -0.3016 -0.6542  0.6243
  163SAPE   HN118180   0.914   6.703   3.164  1.4415 -0.4249  0.5135
  163SAPE   HN218181   1.004   6.559   3.166  0.2371  1.4972  2.2547
  163SAPE   HN318182   0.942   6.634   3.025  0.2518  0.7536  1.0706
  163SAPE   C1218183   0.797   6.521   3.148  0.6223 -0.3285 -0.1547
  163SAPE  H12A18184   0.800   6.456   3.058  2.2101  1.2156 -1.2994
  163SAPE  H12B18185   0.711   6.591   3.152 -0.0036 -1.0562 -0.5822
  163SAPE   C1118186   0.810   6.432   3.276 -0.1110 -0.5366 -0.2392
  163SAPE  H11A18187   0.714   6.411   3.329  0.2739  0.0489  0.7120
  163SAPE  H11B18188   0.872   6.480   3.355  0.2072 -0.9756 -0.2219
  163SAPE     P18189   0.794   6.167   3.223 -0.2807  0.4607 -0.5283
  163SAPE   O1318190   0.704   6.165   3.108  0.2017  0.6400  0.3971
  163SAPE   O1418191   0.893   6.062   3.218  0.0489 -0.1678  0.0399
  163SAPE   O1218192   0.870   6.305   3.237 -0.5636 -0.2413  0.4531
  163SAPE   O1118193   0.713   6.152   3.359 -0.5626 -0.0786 -0.1053
  163SAPE    C118194   0.774   6.150   3.489  0.2367 -0.1510 -0.1615
  163SAPE    HA18195   0.866   6.087   3.487  1.1621  1.0087  2.0317
  163SAPE    HB18196   0.815   6.248   3.522 -0.3903 -0.2955  1.0897
  163SAPE    C218197   0.669   6.106   3.600  0.8121 -0.6714  0.3075
  163SAPE    HS18198   0.643   6.004   3.563 -0.6228  0.3889 -1.7916
  163SAPE   O2118199   0.551   6.195   3.600  0.4407 -0.3854 -0.7935
  163SAPE   C2118200   0.434   6.132   3.620 -0.3418  0.1039  0.2364
  163SAPE   O2218201   0.422   6.007   3.623 -0.1715  0.8748 -0.5901
  163SAPE   C2218202   0.323   6.229   3.624 -0.6292  0.1294 -0.2534
  163SAPE   H2R18203   0.355   6.335   3.614 -0.3617 -0.0082 -0.8865
  163SAPE   H2S18204   0.262   6.201   3.536  1.2100  0.1977 -1.5858
  163SAPE    C318205   0.734   6.087   3.738  0.2141  0.6686 -0.0044
  163SAPE    HX18206   0.749   6.189   3.780  1.0850  0.6029 -0.1536
  163SAPE    HY18207   0.831   6.034   3.728  0.8494  1.2500  2.4455
  163SAPE   O3118208   0.649   6.010   3.836 -0.1367 -0.7821  0.1926
  163SAPE   C3118209   0.646   5.876   3.816  0.1801 -0.9629  0.3220
  163SAPE   O3218210   0.720   5.823   3.733  0.4547 -0.0638 -0.4734
  163SAPE   C3218211   0.556   5.805   3.920  0.7218  0.0481 -0.2548
  163SAPE   H2X18212   0.477   5.750   3.865 -0.3353  0.6850  0.5812
  163SAPE   H2Y18213   0.504   5.880   3.984 -1.7269 -0.6952 -1.2534
  163SAPE   C2318214   0.238   6.217   3.755  0.2965 -0.2966 -0.0562
  163SAPE   H3R18215   0.231   6.112   3.789 -0.2227 -0.1075  0.4336
  163SAPE   H3S18216   0.134   6.251   3.734  0.6069  0.1711 -0.8844
  163SAPE   C2418217   0.278   6.315   3.869  0.2103 -0.7343  0.3732
  163SAPE   H4R18218   0.192   6.322   3.939 -2.5713 -1.3339 -2.6869
  163SAPE   H4S18219   0.284   6.420   3.835  0.7936 -0.9307 -0.1469
  163SAPE   C2518220   0.401   6.262   3.936  0.2854  0.5972  0.7097
  163SAPE   H5R18221   0.494   6.314   3.906  1.1774 -1.2251  0.1360
  163SAPE   C2618222   0.397   6.192   4.050 -0.1095  0.1045  0.0090
  163SAPE   H6R18223   0.491   6.167   4.100  0.5441  1.2851 -0.5965
  163SAPE   C2718224   0.281   6.125   4.120  0.0869 -0.2361 -0.0903
  163SAPE   H7R18225   0.183   6.161   4.082  0.5853  0.6336 -0.5912
  163SAPE   H7S18226   0.282   6.152   4.228  1.2645  1.7352 -0.5419
  163SAPE   C2818227   0.281   5.975   4.109 -0.1048 -0.1952 -0.1945
  163SAPE   H8R18228   0.295   5.943   4.005 -1.4194  1.9153 -1.0847
  163SAPE   C2918229   0.247   5.891   4.209 -0.0708  0.1772 -0.2626
  163SAPE   H9R18230   0.251   5.784   4.185 -0.7804  0.1846 -0.4332
  163SAPE  C21018231   0.217   5.917   4.356 -0.6509  0.1580 -0.2698
  163SAPE  H10R18232   0.266   6.004   4.404  0.2433 -0.8637  0.7168
  163SAPE  H10S18233   0.254   5.827   4.409 -2.6340 -0.5247  0.0353
  163SAPE  C21118234   0.071   5.939   4.379 -0.0920  0.0737  0.0203
  163SAPE  H11R18235   0.038   6.021   4.314  0.8485  0.3547 -0.1074
  163SAPE  C21218236  -0.004   5.865   4.459 -0.1714 -0.6075 -0.0707
  163SAPE  H12R18237  -0.112   5.885   4.468 -0.0466  0.1961 -0.2963
  163SAPE  C21318238   0.044   5.755   4.553  1.1103 -0.8014 -0.0160
  163SAPE  H13R18239   0.084   5.802   4.646 -1.8122 -1.3982  1.6661
  163SAPE  H13S18240   0.128   5.707   4.498  0.5598 -2.6440  0.6881
  163SAPE  C21418241  -0.075   5.660   4.585  0.7879 -0.1204 -0.0555
  163SAPE  H14R18242  -0.165   5.671   4.523 -0.3762 -0.1862  1.5663
  163SAPE  C21518243  -0.085   5.570   4.685 -0.0505 -0.6781 -0.5055
  163SAPE  H15R18244  -0.177   5.518   4.714  0.3573  0.0338  2.4740
  163SAPE  C21618245   0.011   5.554   4.801  0.0941  0.3328  1.1862
  163SAPE  H16R18246  -0.044   5.576   4.895 -1.0127  0.5967  0.4933
  163SAPE  H16S18247   0.091   5.630   4.793 -0.1504  0.5063  0.2082
  163SAPE  C21718248   0.074   5.417   4.811 -0.4290 -0.0346  0.2784
  163SAPE  H17R18249   0.107   5.383   4.711 -2.5475 -1.5199  0.0184
  163SAPE  H17S18250   0.002   5.343   4.852  0.1115 -0.2234  0.9207
  163SAPE  C21818251   0.195   5.423   4.909 -0.1785  0.3100 -0.3045
  163SAPE  H18R18252   0.165   5.483   4.998  0.2277  0.5784 -0.3461
  163SAPE  H18S18253   0.281   5.475   4.863  0.6816 -1.2160 -0.4934
  163SAPE  C21918254   0.239   5.286   4.951  0.3476  0.3528  0.3964
  163SAPE  H19R18255   0.154   5.234   5.000  0.7033 -0.5274  0.0963
  163SAPE  H19S18256   0.318   5.286   5.028 -0.5853 -0.4664  1.3861
  163SAPE  C22018257   0.276   5.196   4.835 -0.4383 -0.3754  0.2777
  163SAPE  H20R18258   0.189   5.185   4.767  1.0505  2.7004 -2.4243
  163SAPE  H20S18259   0.313   5.094   4.862 -3.0334 -2.2876 -2.7628
  163SAPE  H20T18260   0.357   5.250   4.781 -0.9002  0.7617  0.7007
  163SAPE   C3318261   0.637   5.704   4.013 -0.1593  0.2554 -0.3586
  163SAPE   H3X18262   0.730   5.673   3.961  0.1120 -1.8391  1.2282
  163SAPE   H3Y18263   0.571   5.615   4.024 -1.2643  1.0237 -0.6193
  163SAPE   C3418264   0.681   5.759   4.152  0.4976  0.1941 -0.0054
  163SAPE   H4X18265   0.600   5.788   4.223  0.2014  1.6007 -0.8706
  163SAPE   H4Y18266   0.741   5.852   4.143  2.9012 -1.2972 -0.1484
  163SAPE   C3518267   0.781   5.670   4.235  0.2221 -0.3964  0.1727
  163SAPE   H5X18268   0.861   5.636   4.166  1.0875  0.8442  0.5234
  163SAPE   H5Y18269   0.723   5.580   4.265  0.6675 -0.7430  0.0133
  163SAPE   C3618270   0.841   5.736   4.359  0.3123 -0.1646  0.2669
  163SAPE   H6X18271   0.756   5.777   4.417 -1.5730 -2.1054 -0.9478
  163SAPE   H6Y18272   0.897   5.821   4.314  2.0716 -0.7914  1.1892
  163SAPE   C3718273   0.937   5.648   4.448 -0.8063 -0.8912 -0.2155
  163SAPE   H7X18274   1.009   5.611   4.372 -0.6732  2.3261 -1.8647
  163SAPE   H7Y18275   0.877   5.566   4.493  0.1728 -1.3902  0.2050
  163SAPE   C3818276   1.003   5.737   4.562 -0.4404  0.1629  0.2418
  163SAPE   H8X18277   1.052   5.676   4.641  2.1556  0.5724 -0.9524
  163SAPE   H8Y18278   0.909   5.787   4.594 -1.4739 -0.7227 -1.2998
  163SAPE   C3918279   1.106   5.840   4.506 -0.1810  0.3309  0.0512
  163SAPE   H9X18280   1.042   5.914   4.453 -1.3455 -0.0864  0.8426
  163SAPE   H9Y18281   1.170   5.783   4.435  1.0143 -2.2372  2.9447
  163SAPE  C31018282   1.199   5.901   4.612  0.0372 -0.1920  0.9754
  163SAPE  H10X18283   1.239   5.816   4.671  0.8373 -1.2682 -1.0463
  163SAPE  H10Y18284   1.139   5.956   4.688  0.0568  0.4586  0.5228
  163SAPE  C31118285   1.307   5.983   4.538 -0.0413 -0.2696  0.0579
  163SAPE  H11X18286   1.244   6.046   4.471 -0.9679  1.3395  2.3040
  163SAPE  H11Y18287   1.377   5.923   4.477  2.1265  1.1457  1.0262
  163SAPE  C31218288   1.380   6.081   4.638 -0.5897  0.0677 -0.1733
  163SAPE  H12X18289   1.304   6.145   4.689 -0.2461  0.6343 -0.3599
  163SAPE  H12Y18290   1.436   6.153   4.574 -2.0458  1.2506 -0.1882
  163SAPE  C31318291   1.458   6.006   4.738 -0.1985  0.6685 -0.2596
  163SAPE  H13X18292   1.519   5.928   4.687 -0.0852  0.3009  0.4316
  163SAPE  H13Y18293   1.397   5.960   4.818  0.3767 -3.1462 -1.7492
  163SAPE  C31418294   1.559   6.100   4.815 -0.0991  0.6715 -0.4961
  163SAPE  H14X18295   1.489   6.178   4.851  0.0381 -0.0648  1.4725
  163SAPE  H14Y18296   1.640   6.145   4.753  1.2354 -1.6075 -0.5329
  163SAPE  C31518297   1.612   6.042   4.943 -0.1312  0.5315 -0.3869
  163SAPE  H15X18298   1.683   5.965   4.907 -1.0623 -0.6659  0.2587
  163SAPE  H15Y18299   1.532   5.990   4.999  1.6468  0.0256  1.8411
  163SAPE  C31618300   1.674   6.143   5.039 -0.4401  0.1209  0.1058
  163SAPE  H16X18301   1.707   6.096   5.135 -1.6681 -0.6638  0.1616
  163SAPE  H16Y18302   1.604   6.228   5.047  1.2962  1.7874 -1.4310
  163SAPE  C31718303   1.807   6.199   4.977  0.0699 -1.0803  0.6293
  163SAPE  H17X18304   1.797   6.234   4.872 -0.8050 -1.9122  0.4223
  163SAPE  H17Y18305   1.881   6.118   4.962  0.5994 -0.1539 -2.4772
  163SAPE  C31818306   1.863   6.308   5.060  0.0570  0.1816 -0.3623
  163SAPE  H18X18307   1.795   6.395   5.076 -0.3627 -0.3599  0.9752
  163SAPE  H18Y18308   1.960   6.354   5.031  0.3948 -0.2839  0.0307
  163SAPE  H18Z18309   1.872   6.270   5.164  1.6272  0.4651 -0.3756
  164SAPE     N18310   5.185   5.752   2.246 -0.0098  0.2346  0.2640
  164SAPE   HN118311   5.258   5.700   2.298 -0.5378 -3.1717 -2.0788
  164SAPE   HN218312   5.131   5.676   2.200 -0.1381 -0.4488  1.4811
  164SAPE   HN318313   5.229   5.808   2.171  1.3671 -0.3340  0.6223
  164SAPE   C1218314   5.093   5.824   2.336 -0.2776  0.2517  0.0793
  164SAPE  H12A18315   5.007   5.859   2.275  1.7834  3.2431 -1.3593
  164SAPE  H12B18316   5.149   5.908   2.384 -0.5196  1.5003 -1.7026
  164SAPE   C1118317   5.037   5.730   2.437  0.0105  0.8226 -0.4576
  164SAPE  H11A18318   4.962   5.791   2.492  0.3536  1.6639 -0.9050
  164SAPE  H11B18319   5.120   5.714   2.509  0.6014  0.8386 -1.1254
  164SAPE     P18320   4.883   5.527   2.475 -0.1915  0.5457  0.0095
  164SAPE   O1318321   4.750   5.572   2.446  0.4305 -0.6962 -0.1294
  164SAPE   O1418322   4.913   5.382   2.466  0.3103  0.4084 -0.1802
  164SAPE   O1218323   4.986   5.605   2.385  0.6918  0.1705  0.8705
  164SAPE   O1118324   4.903   5.576   2.620 -0.0572 -0.0193 -0.3378
  164SAPE    C118325   5.024   5.547   2.687 -0.4441  0.2702 -0.6702
  164SAPE    HA18326   5.083   5.467   2.638 -0.2169 -0.8721  1.3593
  164SAPE    HB18327   5.090   5.635   2.697  0.1911 -0.3566  1.1277
  164SAPE    C218328   4.991   5.490   2.830  0.3621 -0.5006  0.4067
  164SAPE    HS18329   5.080   5.453   2.884  1.3872  0.8107 -0.3206
  164SAPE   O2118330   4.881   5.394   2.822 -0.1165  0.0693  0.1321
  164SAPE   C2118331   4.921   5.270   2.779 -0.0856 -0.0255 -0.1757
  164SAPE   O2218332   5.034   5.232   2.768 -0.2787  0.6347  0.3614
  164SAPE   C2218333   4.794   5.198   2.731 -0.3664 -0.1407  0.7030
  164SAPE   H2R18334   4.702   5.255   2.755 -1.5314 -0.4554 -2.4847
  164SAPE   H2S18335   4.802   5.197   2.620 -3.8628  2.3282  0.2622
  164SAPE    C318336   4.940   5.613   2.909  0.1418  0.0135  0.5141
  164SAPE    HX18337   4.925   5.567   3.010  1.7280 -0.0571  0.7429
  164SAPE    HY18338   4.845   5.643   2.859  0.4625 -1.9768 -1.4460
  164SAPE   O3118339   5.029   5.725   2.911 -0.4274  0.3972  0.3467
  164SAPE   C3118340   4.977   5.822   2.993 -0.4733 -0.2652  0.7529
  164SAPE   O3218341   4.866   5.816   3.039  0.2080  0.4144  0.2357
  164SAPE   C3218342   5.087   5.929   3.025 -0.7372  1.0750 -0.5115
  164SAPE   H2X18343   5.104   6.010   2.950  2.3221  1.4839  0.4526
  164SAPE   H2Y18344   5.186   5.880   3.037 -1.0849  0.4656 -0.0733
  164SAPE   C2318345   4.770   5.056   2.792 -0.5556  0.7392 -0.3732
  164SAPE   H3R18346   4.857   4.990   2.770 -1.3474 -0.5127  0.1308
  164SAPE   H3S18347   4.682   5.008   2.745  0.6285 -2.0702  0.0521
  164SAPE   C2418348   4.744   5.062   2.945 -0.1464  0.1114  0.8570
  164SAPE   H4R18349   4.656   5.127   2.962  0.6235  1.5319 -0.3140
  164SAPE   H4S18350   4.831   5.122   2.980  0.4217  0.1672 -0.5553
  164SAPE   C2518351   4.745   4.921   3.005  0.2859 -1.0586 -0.7226
  164SAPE   H5R18352   4.674   4.844   2.973  0.6852 -2.3411  1.2889
  164SAPE   C2618353   4.823   4.891   3.114 -0.4217  0.3044  0.2500
  164SAPE   H6R18354   4.810   4.787   3.146  1.3389 -0.0024  0.0571
  164SAPE   C2718355   4.926   4.980   3.185 -0.4706  0.1857 -0.4780
  164SAPE   H7R18356   4.935   5.079   3.136  1.4095  0.1625 -0.2328
  164SAPE   H7S18357   5.023   4.927   3.177  0.4658  1.9292 -1.1525
  164SAPE   C2818358   4.902   4.991   3.331 -0.5384  0.6763  0.3539
  164SAPE   H8R18359   4.867   4.898   3.379  2.0601 -0.6864 -0.2447
  164SAPE   C2918360   4.913   5.100   3.405  0.3834 -0.4772  0.3290
  164SAPE   H9R18361   4.894   5.095   3.513  1.3698  0.0151  0.5332
  164SAPE  C21018362   4.956   5.230   3.348 -0.3697  0.1082  0.1011
  164SAPE  H10R18363   5.051   5.218   3.292 -0.4452 -0.2825  0.0538
  164SAPE  H10S18364   4.990   5.299   3.427 -0.6555 -0.5054  0.7714
  164SAPE  C21118365   4.856   5.312   3.267  0.3428 -0.1504 -0.2016
  164SAPE  H11R18366   4.764   5.254   3.249  0.4410  0.0349 -1.4267
  164SAPE  C21218367   4.869   5.441   3.233 -0.1623 -0.7187  0.1082
  164SAPE  H12R18368   4.780   5.487   3.187 -0.0428  2.1411  2.4670
  164SAPE  C21318369   4.976   5.543   3.273 -0.3972  0.4008  0.2294
  164SAPE  H13R18370   4.946   5.588   3.370 -2.3921 -2.5001  1.1120
  164SAPE  H13S18371   4.957   5.630   3.207  0.1932 -0.7976 -1.5803
  164SAPE  C21418372   5.118   5.499   3.260 -0.1737 -0.3005  0.5735
  164SAPE  H14R18373   5.152   5.479   3.157  1.7000  1.7478  0.7208
  164SAPE  C21518374   5.201   5.475   3.359  0.0868  0.4844  0.2226
  164SAPE  H15R18375   5.306   5.448   3.342 -0.1010 -0.3442  0.3350
  164SAPE  C21618376   5.172   5.496   3.507  0.2442  0.1049  0.0147
  164SAPE  H16R18377   5.064   5.505   3.533  0.3978  0.2061  0.6460
  164SAPE  H16S18378   5.211   5.596   3.538 -1.1488  1.0938 -1.2866
  164SAPE  C21718379   5.235   5.383   3.590  0.3014  0.3816 -0.0529
  164SAPE  H17R18380   5.339   5.361   3.559  0.0788  1.6834 -1.9257
  164SAPE  H17S18381   5.174   5.295   3.562 -1.2326  1.1736  0.6566
  164SAPE  C21818382   5.235   5.412   3.736  0.0191  0.5720 -0.3750
  164SAPE  H18R18383   5.136   5.450   3.768  0.2911  1.1662 -0.2338
  164SAPE  H18S18384   5.311   5.491   3.754 -0.6128  1.0536  0.2318
  164SAPE  C21918385   5.284   5.291   3.818 -0.1906  0.6454 -1.2240
  164SAPE  H19R18386   5.385   5.268   3.780 -0.1719 -0.0498 -0.7679
  164SAPE  H19S18387   5.218   5.205   3.793  0.7501 -1.1345  1.9058
  164SAPE  C22018388   5.282   5.311   3.971 -0.1032 -0.7221 -0.5856
  164SAPE  H20R18389   5.372   5.260   4.010  0.6349 -0.1614 -1.5098
  164SAPE  H20S18390   5.182   5.292   4.017 -0.4018 -0.4439 -1.1012
  164SAPE  H20T18391   5.288   5.422   3.977  0.2269 -0.7973  0.5188
  164SAPE   C3318392   5.057   6.022   3.153 -0.1554 -0.1957 -0.2253
  164SAPE   H3X18393   4.966   6.081   3.131 -1.4853 -2.0384  0.1285
  164SAPE   H3Y18394   5.144   6.085   3.180 -0.6872  0.0551  0.9889
  164SAPE   C3418395   5.017   5.936   3.279 -0.9342  0.2789  0.6448
  164SAPE   H4X18396   5.088   5.851   3.291 -1.1494 -0.3887 -2.0909
  164SAPE   H4Y18397   4.912   5.902   3.266 -0.1217 -2.0182 -0.3812
  164SAPE   C3518398   5.005   6.028   3.400 -0.1842  0.4187 -0.6708
  164SAPE   H5X18399   4.910   6.085   3.405  0.4439  1.4233  2.5944
  164SAPE   H5Y18400   5.087   6.103   3.391  1.5246 -1.2598  0.0638
  164SAPE   C3618401   5.018   5.968   3.539  0.2165  0.4524  0.0966
  164SAPE   H6X18402   4.936   5.893   3.539 -0.1764  0.8762  0.4431
  164SAPE   H6Y18403   5.006   6.047   3.616  0.3668  1.3001 -0.7221
  164SAPE   C3718404   5.149   5.891   3.574  0.5786 -0.4920  0.3437
  164SAPE   H7X18405   5.232   5.965   3.578 -0.4911  0.6957  0.9985
  164SAPE   H7Y18406   5.172   5.810   3.502  0.2950 -1.0076  0.8241
  164SAPE   C3818407   5.152   5.830   3.716  0.5003  0.4345 -0.3126
  164SAPE   H8X18408   5.098   5.733   3.716 -2.1704  1.8363  0.2224
  164SAPE   H8Y18409   5.095   5.891   3.789 -0.9182  0.0872 -1.0894
  164SAPE   C3918410   5.292   5.811   3.774 -0.0298 -0.6176  0.0521
  164SAPE   H9X18411   5.347   5.907   3.768  0.9632 -0.9955  2.0582
  164SAPE   H9Y18412   5.346   5.737   3.711  0.7627  0.6294 -0.7703
  164SAPE  C31018413   5.306   5.749   3.911 -0.0801 -0.6560 -0.4890
  164SAPE  H10X18414   5.403   5.699   3.931  0.0510  0.2113  1.2410
  164SAPE  H10Y18415   5.240   5.660   3.911 -1.5322  0.3727 -0.8925
  164SAPE  C31118416   5.266   5.837   4.028  0.0451  0.0987 -0.5854
  164SAPE  H11X18417   5.183   5.904   3.997  0.4076  1.6875  1.6080
  164SAPE  H11Y18418   5.353   5.899   4.058 -1.9472  2.3640  0.8181
  164SAPE  C31218419   5.219   5.748   4.144  0.2364  0.1088 -0.0842
  164SAPE  H12X18420   5.137   5.684   4.102  2.2501 -1.3043 -2.1089
  164SAPE  H12Y18421   5.183   5.813   4.226  1.0906  3.3544 -2.0898
  164SAPE  C31318422   5.329   5.668   4.213 -0.1056  0.4674 -0.4908
  164SAPE  H13X18423   5.389   5.740   4.273  1.1896 -1.4002  0.5890
  164SAPE  H13Y18424   5.400   5.637   4.134 -1.2288 -1.8048 -0.6978
  164SAPE  C31418425   5.274   5.546   4.282 -0.5357  0.2123 -0.6992
  164SAPE  H14X18426   5.353   5.469   4.279  1.4010  2.0285  0.5189
  164SAPE  H14Y18427   5.183   5.526   4.222 -0.6415  1.5499 -1.0200
  164SAPE  C31518428   5.237   5.577   4.429  0.6371 -0.1258 -0.3332
  164SAPE  H15X18429   5.175   5.494   4.469  0.5469 -0.9943 -2.1591
  164SAPE  H15Y18430   5.176   5.668   4.443 -2.6387 -2.2403  0.0744
  164SAPE  C31618431   5.355   5.576   4.519  0.2388  0.0834 -0.2061
  164SAPE  H16X18432   5.420   5.666   4.513 -1.6823  1.5208 -0.3788
  164SAPE  H16Y18433   5.416   5.488   4.488  0.9331  1.1061 -1.8155
  164SAPE  C31718434   5.320   5.558   4.676  0.3155  0.6185  0.4002
  164SAPE  H17X18435   5.419   5.544   4.726  1.4511  2.0554 -1.3097
  164SAPE  H17Y18436   5.264   5.463   4.690  2.9416 -1.3141 -1.2187
  164SAPE  C31818437   5.256   5.681   4.744  0.4797  0.0963  0.1050
  164SAPE  H18X18438   5.233   5.654   4.849  1.3614  0.2985  0.3532
  164SAPE  H18Y18439   5.163   5.705   4.687 -0.2034 -0.5317  0.9278
  164SAPE  H18Z18440   5.326   5.767   4.744 -0.5885  1.0343 -1.6983
  165SAPE     N18441   4.408   6.372   2.923  0.7749 -0.3205  0.0117
  165SAPE   HN118442   4.324   6.434   2.921  0.4612 -0.2010  4.9559
  165SAPE   HN218443   4.453   6.349   2.832 -1.5774 -0.7131 -1.1345
  165SAPE   HN318444   4.371   6.292   2.979 -0.8843  0.3213 -0.0945
  165SAPE   C1218445   4.501   6.441   3.018 -0.1161  0.0062 -0.0010
  165SAPE  H12A18446   4.597   6.385   3.009 -1.1523 -1.9913  0.8301
  165SAPE  H12B18447   4.459   6.441   3.120 -0.0593  3.1975  0.1349
  165SAPE   C1118448   4.525   6.582   2.951 -0.0532  0.4236  0.2839
  165SAPE  H11A18449   4.567   6.656   3.023  2.7619 -0.3823 -0.3790
  165SAPE  H11B18450   4.429   6.626   2.917  0.3520  1.7575  0.7727
  165SAPE     P18451   4.766   6.575   2.832  0.3166 -0.1787  0.1556
  165SAPE   O1318452   4.832   6.447   2.798 -0.3280 -0.5473  0.4156
  165SAPE   O1418453   4.814   6.694   2.764 -0.0712 -0.0187  0.0232
  165SAPE   O1218454   4.608   6.564   2.833 -0.7417 -0.7527  0.3201
  165SAPE   O1118455   4.795   6.601   2.984  0.8389 -0.4812 -0.4343
  165SAPE    C118456   4.877   6.694   3.057 -0.2531  0.1514 -0.5566
  165SAPE    HA18457   4.966   6.713   2.994  0.2267 -1.3987 -0.3950
  165SAPE    HB18458   4.816   6.786   3.064  0.9775  1.0643 -1.6538
  165SAPE    C218459   4.920   6.641   3.206  0.0726 -0.3892  0.3864
  165SAPE    HS18460   4.995   6.714   3.244  0.9920 -0.2025 -1.6416
  165SAPE   O2118461   4.971   6.507   3.187 -0.0241 -0.5301 -0.4374
  165SAPE   C2118462   5.077   6.497   3.115 -0.3339 -0.2842  0.2879
  165SAPE   O2218463   5.143   6.596   3.065  0.9074  0.7125 -0.2220
  165SAPE   C2218464   5.115   6.356   3.110  0.0802  0.6655 -1.4483
  165SAPE   H2R18465   5.095   6.304   3.206  1.7755 -0.1744 -1.5212
  165SAPE   H2S18466   5.061   6.307   3.026  0.5457  0.2648 -1.5165
  165SAPE    C318467   4.794   6.635   3.299 -0.4985  0.0255  0.3731
  165SAPE    HX18468   4.756   6.532   3.278  1.7729 -1.0575  1.1761
  165SAPE    HY18469   4.710   6.703   3.275  2.2188  2.1184 -4.8547
  165SAPE   O3118470   4.832   6.629   3.441 -0.2255 -0.1973 -0.0161
  165SAPE   C3118471   4.861   6.747   3.493 -0.4906 -0.2846 -0.1253
  165SAPE   O3218472   4.839   6.854   3.436 -0.2454 -0.2327  0.2994
  165SAPE   C3218473   4.928   6.741   3.628  0.1224 -0.0953  0.1446
  165SAPE   H2X18474   5.025   6.793   3.614 -1.1375  2.6529  0.9013
  165SAPE   H2Y18475   4.960   6.639   3.656  0.5219 -0.2819 -0.9184
  165SAPE   C2318476   5.269   6.324   3.082  0.0358  0.4660  0.1415
  165SAPE   H3R18477   5.302   6.387   2.996  0.9522  0.2505  0.3245
  165SAPE   H3S18478   5.285   6.217   3.056  0.5293  0.0131  2.1547
  165SAPE   C2418479   5.366   6.359   3.198 -0.1969 -0.6510  0.5100
  165SAPE   H4R18480   5.330   6.460   3.228  0.4624 -0.0812 -0.5544
  165SAPE   H4S18481   5.471   6.368   3.162 -1.2791 -0.7970 -3.0944
  165SAPE   C2518482   5.348   6.259   3.308 -0.3239 -0.0885 -0.3316
  165SAPE   H5R18483   5.368   6.157   3.273 -1.9489 -0.3267 -0.6454
  165SAPE   C2618484   5.310   6.290   3.435 -0.0418  0.6543  0.2820
  165SAPE   H6R18485   5.291   6.203   3.500  2.0919 -1.2657 -1.4952
  165SAPE   C2718486   5.281   6.430   3.483 -0.3880  0.1703 -0.5331
  165SAPE   H7R18487   5.207   6.480   3.417 -0.4402  0.2736 -0.3951
  165SAPE   H7S18488   5.376   6.479   3.453  2.0695 -3.6398  0.2209
  165SAPE   C2818489   5.260   6.469   3.628  0.0392 -0.0562  0.2153
  165SAPE   H8R18490   5.319   6.556   3.661 -1.4392  0.7034  0.9610
  165SAPE   C2918491   5.175   6.416   3.714 -1.1726 -0.9301 -0.5817
  165SAPE   H9R18492   5.166   6.456   3.816 -0.5868  0.2726 -0.9838
  165SAPE  C21018493   5.088   6.298   3.693 -0.0062  0.1898  0.5848
  165SAPE  H10R18494   5.151   6.206   3.693  1.8615  1.4110  0.4889
  165SAPE  H10S18495   5.056   6.295   3.587  0.6352 -1.1197  0.4104
  165SAPE  C21118496   4.971   6.294   3.779  1.0720  0.1932  0.1717
  165SAPE  H11R18497   4.884   6.340   3.731  0.0442 -2.7286 -0.9748
  165SAPE  C21218498   4.961   6.225   3.893 -0.2270  0.2924 -0.0925
  165SAPE  H12R18499   4.857   6.210   3.925 -0.5116 -0.8627 -1.4686
  165SAPE  C21318500   5.075   6.155   3.970  0.1789 -0.1820  0.7292
  165SAPE  H13R18501   5.157   6.154   3.895  0.6833  2.9959  1.1140
  165SAPE  H13S18502   5.043   6.050   3.989  1.9551 -0.7852  0.5944
  165SAPE  C21418503   5.118   6.226   4.098 -0.6963  0.0972 -0.8272
  165SAPE  H14R18504   5.033   6.262   4.158  0.2079 -0.4689  0.8731
  165SAPE  C21518505   5.244   6.264   4.122 -0.4184 -0.0360 -0.6419
  165SAPE  H15R18506   5.248   6.326   4.213  1.8547 -0.8377 -0.1225
  165SAPE  C21618507   5.374   6.242   4.048 -0.2038  0.1983 -0.2055
  165SAPE  H16R18508   5.346   6.169   3.969 -2.6196 -0.6796  1.3380
  165SAPE  H16S18509   5.453   6.197   4.112  1.9802  3.2975 -0.5030
  165SAPE  C21718510   5.431   6.376   3.999 -0.1059  0.1794  0.1368
  165SAPE  H17R18511   5.360   6.430   3.933  0.0632 -0.5545 -0.6622
  165SAPE  H17S18512   5.523   6.358   3.940  0.1536  0.4525  0.4541
  165SAPE  C21818513   5.472   6.471   4.112  0.4196  0.2872 -0.1447
  165SAPE  H18R18514   5.522   6.415   4.195  1.1924  0.6249 -0.3691
  165SAPE  H18S18515   5.386   6.532   4.147  1.0735  1.2201 -0.1211
  165SAPE  C21918516   5.594   6.551   4.072 -0.1631  0.0202 -0.6998
  165SAPE  H19R18517   5.576   6.612   3.981 -0.8727  1.5251  0.4035
  165SAPE  H19S18518   5.681   6.484   4.053 -2.0299 -2.3442 -1.4292
  165SAPE  C22018519   5.635   6.644   4.188 -0.2681  0.3134 -0.0240
  165SAPE  H20R18520   5.692   6.587   4.264  0.4768  0.7074 -0.2789
  165SAPE  H20S18521   5.542   6.679   4.238 -0.2161  1.0002 -0.4062
  165SAPE  H20T18522   5.702   6.724   4.151 -0.4831  0.4821 -0.0503
  165SAPE   C3318523   4.843   6.804   3.739 -0.0552  0.1525 -0.3506
  165SAPE   H3X18524   4.762   6.733   3.766 -0.8556  1.0900 -0.2476
  165SAPE   H3Y18525   4.793   6.898   3.707 -1.4883 -1.0790 -1.9719
  165SAPE   C3418526   4.910   6.828   3.877 -0.2115 -0.6110 -0.1252
  165SAPE   H4X18527   4.834   6.857   3.952 -0.9812 -0.7252 -0.8459
  165SAPE   H4Y18528   4.982   6.911   3.858 -0.6835 -0.4579 -1.3990
  165SAPE   C3518529   4.979   6.701   3.933  0.5378  0.5899 -0.1443
  165SAPE   H5X18530   5.067   6.665   3.874  0.0387  0.0585 -0.5684
  165SAPE   H5Y18531   4.908   6.617   3.946  1.9309 -0.3914  1.7036
  165SAPE   C3618532   5.027   6.728   4.070 -0.7421  0.6792 -0.3805
  165SAPE   H6X18533   4.943   6.751   4.138  0.4704  0.4280  1.2912
  165SAPE   H6Y18534   5.089   6.820   4.079  1.7582 -1.0723  2.9473
  165SAPE   C3718535   5.108   6.605   4.130  0.8389 -0.9195 -0.2698
  165SAPE   H7X18536   5.187   6.577   4.058  1.1668 -1.6128  0.3507
  165SAPE   H7Y18537   5.046   6.513   4.132  0.9789 -1.0206 -0.5558
  165SAPE   C3818538   5.166   6.641   4.267  0.4758  0.2125  0.7220
  165SAPE   H8X18539   5.243   6.719   4.254  2.6427 -1.5168  2.3027
  165SAPE   H8Y18540   5.227   6.553   4.299 -0.4203 -0.7684 -0.1743
  165SAPE   C3918541   5.072   6.672   4.382 -0.4867  0.0862  0.4077
  165SAPE   H9X18542   4.988   6.602   4.369  0.9002 -1.3446 -1.5002
  165SAPE   H9Y18543   5.033   6.775   4.366 -0.7103  0.0324  0.6153
  165SAPE  C31018544   5.142   6.644   4.516  1.0534  0.3613 -0.4405
  165SAPE  H10X18545   5.232   6.708   4.522  1.2043  0.2676 -1.5390
  165SAPE  H10Y18546   5.164   6.535   4.521 -0.0605  0.1394 -0.1272
  165SAPE  C31118547   5.051   6.691   4.634  0.2304  0.0679 -0.0211
  165SAPE  H11X18548   5.051   6.802   4.633 -0.3855  0.1492  2.2993
  165SAPE  H11Y18549   5.070   6.657   4.738 -2.9051 -2.1206 -0.0002
  165SAPE  C31218550   4.907   6.624   4.617  0.0622  0.3583 -0.0745
  165SAPE  H12X18551   4.922   6.519   4.583  1.9406 -0.1605  2.1092
  165SAPE  H12Y18552   4.867   6.687   4.535  0.9617  3.0898  1.4498
  165SAPE  C31318553   4.822   6.635   4.736  0.4998  0.2565 -0.1356
  165SAPE  H13X18554   4.851   6.571   4.822 -0.9546 -1.6959 -1.0087
  165SAPE  H13Y18555   4.717   6.609   4.711  0.4652 -0.9342  1.1514
  165SAPE  C31418556   4.807   6.787   4.766  0.5606  0.4396 -0.4518
  165SAPE  H14X18557   4.764   6.832   4.675  1.0533  1.5274 -0.1609
  165SAPE  H14Y18558   4.902   6.841   4.786 -0.4116  1.2743  2.3940
  165SAPE  C31518559   4.707   6.817   4.882  0.2566 -0.1212 -0.5599
  165SAPE  H15X18560   4.731   6.742   4.961  0.4842 -0.3771 -0.8696
  165SAPE  H15Y18561   4.609   6.778   4.847  1.2122 -2.3132 -0.9687
  165SAPE  C31618562   4.706   6.965   4.934 -1.0873 -0.2886  0.2596
  165SAPE  H16X18563   4.655   7.035   4.865 -1.4412  1.0700  1.8420
  165SAPE  H16Y18564   4.813   6.993   4.937 -1.1783  0.0325  0.5560
  165SAPE  C31718565   4.660   6.973   5.084 -0.7141 -1.0405  0.0700
  165SAPE  H17X18566   4.570   6.913   5.109 -1.1414 -0.2462  0.4763
  165SAPE  H17Y18567   4.630   7.080   5.094 -0.7468 -0.9697 -0.7597
  165SAPE  C31818568   4.776   6.952   5.179  0.3691  0.0657  0.5299
  165SAPE  H18X18569   4.795   7.052   5.223  0.4564  0.9382 -1.4061
  165SAPE  H18Y18570   4.865   6.911   5.128 -0.3297 -1.5549  0.5557
  165SAPE  H18Z18571   4.755   6.891   5.270  3.1046 -3.0950 -0.7626
  166SAPE     N18572   2.375   5.488   2.808  0.8406  0.2878 -0.5329
  166SAPE   HN118573   2.318   5.492   2.721 -2.0094 -1.3303  1.0979
  166SAPE   HN218574   2.472   5.458   2.787  0.9968  1.8866 -2.3650
  166SAPE   HN318575   2.318   5.410   2.847  1.6813 -0.3426 -0.5367
  166SAPE   C1218576   2.355   5.609   2.900  0.5515 -0.0997 -0.0153
  166SAPE  H12A18577   2.401   5.584   2.998 -0.1864  0.9586  0.6229
  166SAPE  H12B18578   2.249   5.633   2.925  0.9480  2.1481 -0.2492
  166SAPE   C1118579   2.414   5.741   2.856  0.2087  0.2341  0.1513
  166SAPE  H11A18580   2.370   5.825   2.914 -0.7001  1.9017 -2.7342
  166SAPE  H11B18581   2.379   5.757   2.751 -0.6473 -0.1616  0.3657
  166SAPE     P18582   2.652   5.744   2.989 -0.0560  0.1535  0.0696
  166SAPE   O1318583   2.682   5.599   2.998 -0.4019  0.5641 -0.0989
  166SAPE   O1418584   2.762   5.842   2.963  0.5393  0.1242 -0.2776
  166SAPE   O1218585   2.554   5.745   2.859 -0.8531  0.5707 -0.3208
  166SAPE   O1118586   2.558   5.788   3.111  0.1605  0.1773  0.0467
  166SAPE    C118587   2.525   5.924   3.152 -0.1586 -0.1758 -0.4893
  166SAPE    HA18588   2.519   5.978   3.055  2.7646 -0.6493 -1.0141
  166SAPE    HB18589   2.430   5.915   3.209 -0.2121  1.3360 -0.3203
  166SAPE    C218590   2.642   5.983   3.229  0.2867  0.1709  0.3600
  166SAPE    HS18591   2.735   5.946   3.182 -0.8642 -0.5142 -1.4696
  166SAPE   O2118592   2.636   5.950   3.368  1.3560 -0.6776 -0.7756
  166SAPE   C2118593   2.750   5.942   3.432 -0.8667 -0.0199 -0.1316
  166SAPE   O2218594   2.862   5.957   3.383  0.0186 -0.1647 -0.2082
  166SAPE   C2218595   2.731   5.907   3.579 -0.8861 -0.6394 -0.0177
  166SAPE   H2R18596   2.667   5.988   3.619 -0.0413  0.6804 -1.2529
  166SAPE   H2S18597   2.675   5.811   3.581  2.7541 -2.9211  1.3379
  166SAPE    C318598   2.652   6.139   3.228  0.0024 -0.7825  0.2005
  166SAPE    HX18599   2.676   6.179   3.127 -0.2158  0.2051  0.5334
  166SAPE    HY18600   2.740   6.176   3.286 -0.7024  1.2081  0.0522
  166SAPE   O3118601   2.525   6.193   3.281 -0.1256  0.6415 -0.2644
  166SAPE   C3118602   2.423   6.206   3.204 -0.1752  0.0677 -0.3936
  166SAPE   O3218603   2.413   6.187   3.082 -0.7070  0.1144 -0.0396
  166SAPE   C3218604   2.301   6.219   3.295 -0.3928  0.0560 -0.0705
  166SAPE   H2X18605   2.320   6.146   3.377  1.1234  0.8709  0.3383
  166SAPE   H2Y18606   2.213   6.201   3.230  0.0740  1.7022 -1.1992
  166SAPE   C2318607   2.862   5.902   3.664 -0.0838  0.9261  0.2081
  166SAPE   H3R18608   2.951   5.890   3.598  0.1105  1.6382  0.3353
  166SAPE   H3S18609   2.857   5.810   3.726  2.5902  1.5836  1.5385
  166SAPE   C2418610   2.875   6.021   3.754 -0.2484  0.5681  0.0940
  166SAPE   H4R18611   2.890   6.106   3.685 -2.8134 -1.2023 -2.9243
  166SAPE   H4S18612   2.970   5.997   3.806 -0.7467 -1.5502  0.1148
  166SAPE   C2518613   2.764   6.053   3.853  0.4127  0.3515  0.2077
  166SAPE   H5R18614   2.756   5.971   3.926  0.7581 -0.0856 -0.2389
  166SAPE   C2618615   2.678   6.157   3.857 -0.7132  0.0412 -0.1151
  166SAPE   H6R18616   2.606   6.174   3.938  0.4514  0.1219  0.9411
  166SAPE   C2718617   2.662   6.271   3.756 -0.0686 -0.6334  0.0790
  166SAPE   H7R18618   2.728   6.252   3.669  1.1943  1.0738  0.6029
  166SAPE   H7S18619   2.707   6.364   3.798 -2.0875  0.0547  0.8483
  166SAPE   C2818620   2.521   6.284   3.709  0.3555 -0.6360  0.6617
  166SAPE   H8R18621   2.491   6.214   3.629 -0.4580  1.0063 -0.5348
  166SAPE   C2918622   2.429   6.367   3.763 -0.0429 -0.1524  0.1901
  166SAPE   H9R18623   2.328   6.372   3.720  0.9660 -1.6038 -2.5673
  166SAPE  C21018624   2.455   6.462   3.883 -0.2589  0.3739 -0.4331
  166SAPE  H10R18625   2.415   6.561   3.852  0.5559  1.2285  1.1352
  166SAPE  H10S18626   2.564   6.471   3.904 -0.1383 -0.3912 -0.7085
  166SAPE  C21118627   2.403   6.408   4.013  0.3600  0.0650 -0.1504
  166SAPE  H11R18628   2.293   6.399   4.012  0.2543  0.7189  1.7274
  166SAPE  C21218629   2.471   6.371   4.122 -0.1468  0.3754 -0.3355
  166SAPE  H12R18630   2.408   6.331   4.202 -0.2254 -0.7732 -0.9568
  166SAPE  C21318631   2.619   6.371   4.158 -0.0094  0.7151 -0.2759
  166SAPE  H13R18632   2.636   6.455   4.228  1.2644  1.2277 -1.1754
  166SAPE  H13S18633   2.688   6.395   4.074 -0.4494 -2.5044 -1.7283
  166SAPE  C21418634   2.659   6.238   4.221  0.9130  0.9791 -0.0882
  166SAPE  H14R18635   2.632   6.148   4.164 -0.3951  0.9184  0.5989
  166SAPE  C21518636   2.713   6.215   4.343 -1.0369 -0.2238  0.1065
  166SAPE  H15R18637   2.733   6.112   4.377  2.2560  0.0233 -0.7403
  166SAPE  C21618638   2.756   6.323   4.440  0.1692 -0.2249 -0.3420
  166SAPE  H16R18639   2.734   6.427   4.408  2.1779  0.6819  0.9534
  166SAPE  H16S18640   2.867   6.319   4.449  0.3036 -1.2250 -2.1142
  166SAPE  C21718641   2.692   6.288   4.570 -0.2398 -0.1513  0.3037
  166SAPE  H17R18642   2.728   6.187   4.599  1.9675  0.5925  0.2946
  166SAPE  H17S18643   2.581   6.292   4.564 -0.2185  0.1574  0.0924
  166SAPE  C21818644   2.738   6.396   4.680  0.6266  0.6155 -0.2538
  166SAPE  H18R18645   2.678   6.489   4.678  0.6648  0.8035  2.7442
  166SAPE  H18S18646   2.837   6.428   4.642  0.3145  0.7289 -1.0089
  166SAPE  C21918647   2.739   6.344   4.825 -0.3486 -0.2842  0.6095
  166SAPE  H19R18648   2.645   6.294   4.856 -1.5084  1.7877  0.6315
  166SAPE  H19S18649   2.754   6.430   4.895  3.0305 -0.4700  0.2999
  166SAPE  C22018650   2.848   6.245   4.860 -0.2413  0.8231 -0.5129
  166SAPE  H20R18651   2.946   6.279   4.820  1.4753 -0.5008  2.2799
  166SAPE  H20S18652   2.823   6.155   4.799 -1.6194  1.7252 -1.3400
  166SAPE  H20T18653   2.839   6.216   4.967  0.0337  2.5411  0.0119
  166SAPE   C3318654   2.293   6.361   3.357  0.8187 -0.1008 -0.2359
  166SAPE   H3X18655   2.283   6.437   3.278  2.6268  1.1960  0.6933
  166SAPE   H3Y18656   2.381   6.374   3.424  2.6700 -2.5775 -1.9940
  166SAPE   C3418657   2.169   6.368   3.450  0.3657 -1.0177  0.2558
  166SAPE   H4X18658   2.163   6.294   3.532 -1.5335 -0.1841  0.9252
  166SAPE   H4Y18659   2.078   6.347   3.390 -1.0912  1.3272  1.4631
  166SAPE   C3518660   2.158   6.504   3.525 -0.4576 -0.5702  1.0173
  166SAPE   H5X18661   2.108   6.572   3.453 -2.0929 -1.9457  0.7920
  166SAPE   H5Y18662   2.261   6.539   3.548 -1.3652  1.8876  1.7573
  166SAPE   C3618663   2.062   6.505   3.636 -0.1785  0.0201 -0.1966
  166SAPE   H6X18664   2.083   6.430   3.715  0.0800  3.1216  2.9069
  166SAPE   H6Y18665   1.954   6.495   3.613 -0.3557 -2.0436  1.3058
  166SAPE   C3718666   2.074   6.639   3.702  0.6065 -0.0974  0.0359
  166SAPE   H7X18667   2.045   6.712   3.623  2.7158 -1.2456 -1.9204
  166SAPE   H7Y18668   2.181   6.659   3.727  0.6059 -3.7904  4.2195
  166SAPE   C3818669   1.996   6.646   3.831  0.2740 -0.0134  0.7417
  166SAPE   H8X18670   1.894   6.603   3.821 -0.1556  1.4370 -2.7223
  166SAPE   H8Y18671   1.977   6.753   3.856 -3.2902 -0.1884 -0.7013
  166SAPE   C3918672   2.068   6.589   3.948  0.0204  0.1170  0.0546
  166SAPE   H9X18673   2.170   6.635   3.952 -0.5355  1.6194 -1.7640
  166SAPE   H9Y18674   2.078   6.479   3.957  1.1002  0.0008 -1.9056
  166SAPE  C31018675   1.990   6.621   4.082  0.8056 -0.3042  0.0962
  166SAPE  H10X18676   1.907   6.549   4.094  2.1549 -1.6795  1.6710
  166SAPE  H10Y18677   1.945   6.722   4.067 -0.2717 -0.5529  1.4412
  166SAPE  C31118678   2.082   6.610   4.209  0.5764 -0.4984  0.3124
  166SAPE  H11X18679   2.115   6.712   4.237 -1.5892  0.4871 -0.4861
  166SAPE  H11Y18680   2.175   6.557   4.181  1.1512 -1.2402  3.2495
  166SAPE  C31218681   2.014   6.543   4.331 -0.1656 -0.5515 -0.8492
  166SAPE  H12X18682   2.086   6.542   4.416 -2.4200  2.0073  1.2666
  166SAPE  H12Y18683   1.966   6.448   4.297 -0.2297 -0.0136 -2.3316
  166SAPE  C31318684   1.897   6.622   4.394 -0.7312  0.1565  0.1159
  166SAPE  H13X18685   1.836   6.546   4.447 -0.4613 -1.0303 -1.1997
  166SAPE  H13Y18686   1.828   6.664   4.318  0.3370  0.6284 -0.6314
  166SAPE  C31418687   1.926   6.742   4.487  0.2918 -0.4016  0.0178
  166SAPE  H14X18688   2.003   6.802   4.434 -1.2501  1.2615 -0.4332
  166SAPE  H14Y18689   1.983   6.709   4.577  0.2451 -2.3670 -0.6271
  166SAPE  C31518690   1.802   6.832   4.517 -0.6500 -0.4099 -0.7270
  166SAPE  H15X18691   1.717   6.775   4.560 -2.2476  2.2593 -0.1294
  166SAPE  H15Y18692   1.755   6.871   4.424  1.1685  1.1614 -1.0600
  166SAPE  C31618693   1.849   6.942   4.613  0.5281  0.0174 -0.9842
  166SAPE  H16X18694   1.936   6.995   4.570 -1.7890  3.5479 -1.7909
  166SAPE  H16Y18695   1.875   6.887   4.706  0.5196  0.4680 -0.7127
  166SAPE  C31718696   1.745   7.052   4.654  1.3057  0.4397 -0.0963
  166SAPE  H17X18697   1.692   7.082   4.561  1.0739  0.3724  0.0127
  166SAPE  H17Y18698   1.796   7.137   4.703 -0.6755  1.0178  1.0407
  166SAPE  C31818699   1.625   7.015   4.748 -0.7021 -0.1026 -0.1912
  166SAPE  H18X18700   1.559   6.942   4.697  1.3679 -2.1816 -0.0325
  166SAPE  H18Y18701   1.576   7.100   4.801  2.4126  1.2859  0.6902
  166SAPE  H18Z18702   1.679   6.956   4.825  3.0654  2.9792 -0.1927
  167SAPE     N18703   4.596   3.397   2.034 -0.3415  0.3428  0.1711
  167SAPE   HN118704   4.669   3.457   1.990  0.2816 -2.3476 -2.8414
  167SAPE   HN218705   4.651   3.309   2.034  0.5172  0.8572 -0.1190
  167SAPE   HN318706   4.511   3.390   1.975 -1.3799  0.1779  1.6425
  167SAPE   C1218707   4.565   3.454   2.167  0.2299 -0.5426 -0.3342
  167SAPE  H12A18708   4.475   3.403   2.207 -0.4950 -1.1118 -2.5698
  167SAPE  H12B18709   4.544   3.560   2.140 -1.5481 -0.7207  0.2184
  167SAPE   C1118710   4.690   3.452   2.256 -1.3317 -0.2993  0.1261
  167SAPE  H11A18711   4.665   3.496   2.355 -1.9108 -1.8199  0.6906
  167SAPE  H11B18712   4.778   3.505   2.212  0.0130 -2.7036 -0.2884
  167SAPE     P18713   4.849   3.247   2.232 -0.0788  0.1269 -0.1820
  167SAPE   O1318714   4.885   3.122   2.300 -0.5100 -0.3199 -0.5677
  167SAPE   O1418715   4.824   3.234   2.090  0.4899  0.2846 -0.1400
  167SAPE   O1218716   4.720   3.317   2.295 -0.5628 -0.0838 -0.5555
  167SAPE   O1118717   4.970   3.344   2.261 -0.5011  0.5609  0.0675
  167SAPE    C118718   5.085   3.313   2.351  0.2651  0.1354  0.1394
  167SAPE    HA18719   5.054   3.240   2.429 -0.7692 -0.5512 -0.8849
  167SAPE    HB18720   5.155   3.252   2.290 -1.7508 -2.5837  0.3495
  167SAPE    C218721   5.132   3.437   2.424  0.5168 -0.5384 -0.8282
  167SAPE    HS18722   5.165   3.515   2.352  1.0153  0.4774  0.4500
  167SAPE   O2118723   5.240   3.407   2.516 -0.1173 -0.3591 -0.1583
  167SAPE   C2118724   5.343   3.488   2.534 -0.2756  0.0246 -0.6299
  167SAPE   O2218725   5.360   3.594   2.475  0.1097 -0.0748  0.2031
  167SAPE   C2218726   5.419   3.444   2.659  0.2505 -0.4338  0.3431
  167SAPE   H2R18727   5.431   3.334   2.654  0.0274 -0.4840  0.9493
  167SAPE   H2S18728   5.517   3.496   2.652 -0.5843  1.4454  1.8335
  167SAPE    C318729   5.003   3.491   2.501  0.4495  0.4261  0.2185
  167SAPE    HX18730   4.951   3.403   2.544  1.5334 -0.1804  0.3044
  167SAPE    HY18731   4.933   3.545   2.433  2.2322  3.0385  0.2945
  167SAPE   O3118732   5.044   3.574   2.610 -0.7872 -0.2359  0.4574
  167SAPE   C3118733   5.080   3.699   2.565 -0.2508  0.2925  0.5179
  167SAPE   O3218734   5.065   3.736   2.453  0.2972 -0.6530  0.1443
  167SAPE   C3218735   5.125   3.786   2.681  0.3292 -0.3964  0.4585
  167SAPE   H2X18736   5.227   3.752   2.709  0.3597 -0.2991  0.4653
  167SAPE   H2Y18737   5.055   3.774   2.767 -1.7896 -0.2047 -1.1602
  167SAPE   C2318738   5.350   3.489   2.796  0.2451  0.2774 -0.2979
  167SAPE   H3R18739   5.248   3.445   2.798 -0.1647  1.1285  2.1980
  167SAPE   H3S18740   5.334   3.598   2.806 -0.7984  0.2472 -1.5053
  167SAPE   C2418741   5.430   3.427   2.915  0.8200 -0.3231 -0.0602
  167SAPE   H4R18742   5.378   3.460   3.007 -0.6513 -0.7938 -0.6874
  167SAPE   H4S18743   5.524   3.486   2.914  1.0914 -0.7473 -1.6074
  167SAPE   C2518744   5.459   3.278   2.915 -0.0622  0.7087 -1.0425
  167SAPE   H5R18745   5.483   3.239   2.815  0.2260  0.4619 -0.8800
  167SAPE   C2618746   5.474   3.193   3.021  0.6034  0.0140 -0.4119
  167SAPE   H6R18747   5.492   3.088   2.994 -0.0523  0.4079 -2.5981
  167SAPE   C2718748   5.437   3.212   3.168  0.3572 -0.1303  0.5617
  167SAPE   H7R18749   5.415   3.113   3.212 -2.1230  0.2534  0.3205
  167SAPE   H7S18750   5.348   3.278   3.179  0.8271  0.3743  1.5308
  167SAPE   C2818751   5.543   3.270   3.258 -0.5028 -0.8615 -0.1895
  167SAPE   H8R18752   5.645   3.278   3.219 -0.1167 -2.1938  0.4920
  167SAPE   C2918753   5.519   3.308   3.385  0.8772  0.6902  0.2372
  167SAPE   H9R18754   5.598   3.362   3.439  0.2146  1.9588 -0.0155
  167SAPE  C21018755   5.392   3.316   3.468  0.4274  0.0458 -0.2859
  167SAPE  H10R18756   5.311   3.290   3.397 -1.2308 -0.6328  1.7818
  167SAPE  H10S18757   5.370   3.421   3.497 -0.4298 -0.3085  0.3373
  167SAPE  C21118758   5.408   3.210   3.570  0.3667 -0.5818 -0.3778
  167SAPE  H11R18759   5.384   3.108   3.538 -1.8130 -0.3098  0.2279
  167SAPE  C21218760   5.459   3.240   3.693 -0.8878  0.1906 -0.2407
  167SAPE  H12R18761   5.466   3.154   3.762 -1.4066 -0.9530 -1.5765
  167SAPE  C21318762   5.506   3.382   3.740  0.2622  0.2203 -0.1404
  167SAPE  H13R18763   5.431   3.427   3.808 -0.6718 -0.4156 -0.7243
  167SAPE  H13S18764   5.513   3.455   3.656  1.8111  1.0654  0.6685
  167SAPE  C21418765   5.640   3.362   3.814 -0.8839  0.2640  0.1150
  167SAPE  H14R18766   5.730   3.388   3.756 -1.1720 -1.7542 -1.3407
  167SAPE  C21518767   5.660   3.314   3.933  0.0532 -0.0520 -0.2310
  167SAPE  H15R18768   5.760   3.318   3.979 -0.1402  0.0893  0.1774
  167SAPE  C21618769   5.550   3.263   4.022  0.0915 -0.0431 -0.3202
  167SAPE  H16R18770   5.548   3.152   4.022  0.5790 -0.0765 -2.0184
  167SAPE  H16S18771   5.446   3.285   3.989 -0.3568 -0.0809  1.0220
  167SAPE  C21718772   5.558   3.302   4.175  0.5995  0.8024  0.6961
  167SAPE  H17R18773   5.459   3.306   4.225 -0.9293  0.5299 -2.1564
  167SAPE  H17S18774   5.596   3.406   4.181  1.4534  0.5223  0.3704
  167SAPE  C21818775   5.671   3.227   4.244 -0.4726 -0.5196 -0.1533
  167SAPE  H18R18776   5.757   3.229   4.175 -0.2944  1.1941  0.0614
  167SAPE  H18S18777   5.628   3.128   4.269 -0.6483 -0.3867  0.0837
  167SAPE  C21918778   5.716   3.290   4.375 -0.1982  0.2454  0.5740
  167SAPE  H19R18779   5.630   3.333   4.430 -0.7783  1.0783 -0.9277
  167SAPE  H19S18780   5.792   3.370   4.359 -0.9498  0.8638  0.0266
  167SAPE  C22018781   5.775   3.188   4.475 -0.1311 -0.1263  0.5561
  167SAPE  H20R18782   5.875   3.152   4.442  0.2124 -0.6039  2.0694
  167SAPE  H20S18783   5.713   3.096   4.479  1.8346 -1.7012 -2.0455
  167SAPE  H20T18784   5.782   3.226   4.579  2.1818  2.6966 -0.4975
  167SAPE   C3318785   5.115   3.931   2.643 -0.1495 -0.1620  0.5873
  167SAPE   H3X18786   5.016   3.972   2.615 -0.7570 -1.6104  0.5209
  167SAPE   H3Y18787   5.178   3.950   2.553 -0.7421  1.3108  0.4692
  167SAPE   C3418788   5.159   4.029   2.756  0.0151 -0.6955 -0.0996
  167SAPE   H4X18789   5.158   4.131   2.712  1.3099 -0.6822 -0.1593
  167SAPE   H4Y18790   5.268   4.018   2.774 -0.1848 -0.6147  1.2520
  167SAPE   C3518791   5.074   4.020   2.879  0.2669  0.0819 -0.1864
  167SAPE   H5X18792   5.077   3.917   2.920  1.9491 -0.2333 -1.0031
  167SAPE   H5Y18793   4.970   4.048   2.852  0.8758  0.3710 -2.4624
  167SAPE   C3618794   5.143   4.107   2.994  0.0835 -0.3223  0.8030
  167SAPE   H6X18795   5.155   4.214   2.964  0.0702  0.8878  4.5682
  167SAPE   H6Y18796   5.249   4.072   2.991  0.2472  0.2014 -0.8205
  167SAPE   C3718797   5.074   4.100   3.134 -0.2401 -0.2688 -0.0659
  167SAPE   H7X18798   4.971   4.138   3.119 -0.2805 -1.1044 -2.2705
  167SAPE   H7Y18799   5.133   4.161   3.206  0.1487 -0.6609 -0.0490
  167SAPE   C3818800   5.084   3.955   3.192 -0.0054 -0.1258  1.0100
  167SAPE   H8X18801   5.182   3.913   3.163 -0.3432  0.1008 -0.5837
  167SAPE   H8Y18802   5.009   3.896   3.135  0.0975 -0.2587  1.0128
  167SAPE   C3918803   5.065   3.942   3.341 -0.8210  0.4789  0.0810
  167SAPE   H9X18804   5.151   4.003   3.376 -0.9602  0.7627 -0.0649
  167SAPE   H9Y18805   5.079   3.838   3.376  1.1420  1.1773  1.4933
  167SAPE  C31018806   4.928   3.982   3.401  0.4922  0.0892 -0.0516
  167SAPE  H10X18807   4.846   3.924   3.353  1.3586  0.1379 -1.6686
  167SAPE  H10Y18808   4.923   4.090   3.375  1.1091  0.6184  1.9096
  167SAPE  C31118809   4.931   3.960   3.554  0.0865  0.1734  0.4186
  167SAPE  H11X18810   5.030   3.995   3.589 -0.1103 -1.1160  2.4169
  167SAPE  H11Y18811   4.937   3.852   3.582 -0.8058 -0.3087 -1.0773
  167SAPE  C31218812   4.821   4.033   3.620  0.1907  0.3190 -0.2442
  167SAPE  H12X18813   4.723   3.982   3.615  0.2151  0.1756  0.5560
  167SAPE  H12Y18814   4.811   4.135   3.576  0.0667  0.4344  0.0432
  167SAPE  C31318815   4.843   4.054   3.767  0.3573 -0.5043 -0.0436
  167SAPE  H13X18816   4.938   4.108   3.788  0.9022 -2.1361  2.0189
  167SAPE  H13Y18817   4.856   3.956   3.817 -0.1937 -0.6852 -0.2513
  167SAPE  C31418818   4.733   4.129   3.841  0.7940  0.3241  0.1860
  167SAPE  H14X18819   4.629   4.091   3.847 -0.2140  3.0377  1.9354
  167SAPE  H14Y18820   4.719   4.221   3.782  1.4620  0.1664 -0.2254
  167SAPE  C31518821   4.769   4.170   3.987 -0.2193 -0.3233 -0.0051
  167SAPE  H15X18822   4.695   4.244   4.023 -1.1532 -0.9612 -0.5530
  167SAPE  H15Y18823   4.860   4.232   3.995 -0.4802 -0.1426  2.2059
  167SAPE  C31618824   4.777   4.058   4.086  0.0574 -0.4861 -0.7146
  167SAPE  H16X18825   4.851   3.977   4.066  0.5520 -0.3748  0.5637
  167SAPE  H16Y18826   4.671   4.024   4.096 -1.0774  2.4155 -1.8821
  167SAPE  C31718827   4.810   4.107   4.228 -0.3070 -0.3922  0.0298
  167SAPE  H17X18828   4.744   4.190   4.260  0.9175  0.7863 -0.4266
  167SAPE  H17Y18829   4.909   4.157   4.227 -0.1648 -0.6616  0.2413
  167SAPE  C31818830   4.782   3.989   4.328 -0.9060  0.1676  0.0715
  167SAPE  H18X18831   4.832   3.895   4.297  0.2727 -0.1835  2.7740
  167SAPE  H18Y18832   4.671   3.982   4.340 -0.9345 -1.9076 -1.0548
  167SAPE  H18Z18833   4.827   4.017   4.425 -0.1155  1.2438 -0.5788
  168SAPE     N18834   1.800   1.064   2.661  0.5701 -0.0416  0.7317
  168SAPE   HN118835   1.884   1.099   2.711 -0.6447 -1.2873  3.8658
  168SAPE   HN218836   1.831   1.061   2.562  0.1596 -0.8271  0.6200
  168SAPE   HN318837   1.726   1.134   2.680 -1.0574 -1.4532 -0.1310
  168SAPE   C1218838   1.766   0.931   2.728  0.2208 -0.2897  0.3321
  168SAPE  H12A18839   1.862   0.876   2.732  1.3723  1.6187 -0.0653
  168SAPE  H12B18840   1.695   0.873   2.665  0.3796  0.7919 -0.8788
  168SAPE   C1118841   1.702   0.948   2.865  0.2634  0.1569 -0.2619
  168SAPE  H11A18842   1.762   1.013   2.932 -0.2269 -0.0653  0.3947
  168SAPE  H11B18843   1.703   0.846   2.909 -0.9167 -0.2949 -1.2287
  168SAPE     P18844   1.514   1.127   2.866  0.1684 -0.2941 -0.0740
  168SAPE   O1318845   1.609   1.209   2.786 -0.1156 -0.2980  0.1608
  168SAPE   O1418846   1.373   1.124   2.822  0.3107 -0.1342 -0.1195
  168SAPE   O1218847   1.570   0.987   2.855  0.4317 -0.6011  0.0906
  168SAPE   O1118848   1.521   1.150   3.021  0.0361 -0.2630 -0.2824
  168SAPE    C118849   1.395   1.174   3.087 -0.1540 -0.1603 -0.2744
  168SAPE    HA18850   1.337   1.256   3.040  1.2055  0.8031 -0.3336
  168SAPE    HB18851   1.335   1.083   3.066  0.6446 -1.3125  2.0684
  168SAPE    C218852   1.414   1.200   3.237  1.1292 -0.5475 -0.7005
  168SAPE    HS18853   1.327   1.159   3.292  1.1086  0.2828 -0.0854
  168SAPE   O2118854   1.441   1.339   3.263 -0.7908 -0.3570 -0.5497
  168SAPE   C2118855   1.333   1.404   3.288  0.6606  0.2905 -0.8016
  168SAPE   O2218856   1.218   1.359   3.289 -0.3667  0.4156  0.5782
  168SAPE   C2218857   1.370   1.536   3.353  0.4358 -0.0166  0.0236
  168SAPE   H2R18858   1.412   1.596   3.269 -0.9934 -0.5276 -1.0904
  168SAPE   H2S18859   1.279   1.584   3.394 -0.4273 -2.9533  1.8386
  168SAPE    C318860   1.532   1.115   3.296  0.2006  0.6965  0.6228
  168SAPE    HX18861   1.624   1.129   3.236  0.1536 -3.1568 -0.6748
  168SAPE    HY18862   1.503   1.010   3.272  1.2422  0.5712 -0.1522
  168SAPE   O3118863   1.546   1.132   3.431  0.5326  0.4791 -0.1610
  168SAPE   C3118864   1.641   1.065   3.494 -0.0702  0.2832  0.3403
  168SAPE   O3218865   1.715   0.985   3.437  0.4606 -0.4333  0.3289
  168SAPE   C3218866   1.665   1.120   3.639 -0.4102  1.2113 -0.1862
  168SAPE   H2X18867   1.568   1.154   3.683 -1.8162 -1.0810 -1.3204
  168SAPE   H2Y18868   1.737   1.203   3.628  0.3389  0.5359 -0.5259
  168SAPE   C2318869   1.476   1.528   3.465  0.3927 -0.0921  0.6239
  168SAPE   H3R18870   1.559   1.599   3.445 -0.0552  0.2479 -0.0607
  168SAPE   H3S18871   1.527   1.430   3.453  1.1949  0.5667 -2.0475
  168SAPE   C2418872   1.419   1.542   3.603  0.2241  0.4043 -0.1300
  168SAPE   H4R18873   1.350   1.629   3.609 -2.3704 -1.5337 -0.2180
  168SAPE   H4S18874   1.495   1.567   3.680  0.6400 -1.6218  0.1725
  168SAPE   C2518875   1.332   1.424   3.650 -0.1620 -0.4541 -0.2865
  168SAPE   H5R18876   1.237   1.412   3.596 -0.5469 -0.2252  0.3232
  168SAPE   C2618877   1.356   1.344   3.768  0.6061 -0.2336  0.2677
  168SAPE   H6R18878   1.281   1.269   3.797 -1.7573  1.1141 -1.8730
  168SAPE   C2718879   1.471   1.362   3.863 -0.5881  0.9522  0.4797
  168SAPE   H7R18880   1.489   1.468   3.891 -2.2516  0.6625  2.8400
  168SAPE   H7S18881   1.564   1.320   3.818 -1.4824  0.0632 -0.5943
  168SAPE   C2818882   1.444   1.298   3.998  0.1927 -0.2962  0.3967
  168SAPE   H8R18883   1.361   1.225   4.003  0.3930 -0.5377  0.2763
  168SAPE   C2918884   1.511   1.330   4.111  0.5799  0.1488  1.2827
  168SAPE   H9R18885   1.506   1.256   4.192 -0.7948  0.4023  1.4611
  168SAPE  C21018886   1.615   1.438   4.129 -0.1153  0.7440 -0.1568
  168SAPE  H10R18887   1.670   1.451   4.033 -2.5966  1.3338 -1.5875
  168SAPE  H10S18888   1.690   1.391   4.196  0.1266  1.2579 -0.0664
  168SAPE  C21118889   1.566   1.568   4.182 -0.2655  0.5718  0.0962
  168SAPE  H11R18890   1.550   1.652   4.114  2.5276  1.0237 -0.1000
  168SAPE  C21218891   1.542   1.598   4.306 -0.0030  0.3469 -0.4520
  168SAPE  H12R18892   1.501   1.696   4.335  0.5344  0.6481 -0.6955
  168SAPE  C21318893   1.553   1.508   4.425 -0.4899 -0.1956  0.5870
  168SAPE  H13R18894   1.640   1.534   4.489  1.2613 -2.8336 -0.5588
  168SAPE  H13S18895   1.568   1.402   4.395 -0.4924  0.2986 -1.2934
  168SAPE  C21418896   1.431   1.512   4.515 -0.2106 -0.6634 -0.4131
  168SAPE  H14R18897   1.335   1.547   4.473 -0.7672 -0.6215  0.8636
  168SAPE  C21518898   1.420   1.461   4.636  0.5308  0.7501  0.7322
  168SAPE  H15R18899   1.329   1.473   4.697  0.1537 -0.0934  0.3412
  168SAPE  C21618900   1.522   1.381   4.714  1.3367 -0.5279 -0.4939
  168SAPE  H16R18901   1.563   1.432   4.804 -0.4588  0.0538  0.0386
  168SAPE  H16S18902   1.602   1.357   4.640  1.6334  2.7026 -1.4015
  168SAPE  C21718903   1.457   1.256   4.761 -0.0770 -0.2923 -0.3183
  168SAPE  H17R18904   1.408   1.209   4.673 -0.1810  0.2058 -0.5307
  168SAPE  H17S18905   1.379   1.285   4.834  1.2021 -0.1183  1.0164
  168SAPE  C21818906   1.538   1.159   4.849  0.3852 -0.5250  0.0233
  168SAPE  H18R18907   1.565   1.210   4.944 -0.4238 -0.3041  0.1437
  168SAPE  H18S18908   1.634   1.132   4.799  0.5842  0.3179 -0.0745
  168SAPE  C21918909   1.464   1.026   4.881  0.1207 -0.8989  0.3637
  168SAPE  H19R18910   1.542   0.956   4.917 -0.0834 -0.5111  1.6084
  168SAPE  H19S18911   1.419   0.981   4.790 -0.1031 -1.5184  0.7772
  168SAPE  C22018912   1.354   1.052   4.976  0.1459 -0.0634  0.2704
  168SAPE  H20R18913   1.312   0.963   5.028 -0.9128  1.4494  2.1355
  168SAPE  H20S18914   1.267   1.104   4.930  0.5865  0.9052  0.5051
  168SAPE  H20T18915   1.390   1.107   5.066 -0.4861 -1.6256  1.5351
  168SAPE   C3318916   1.732   1.004   3.719 -0.0030  0.5454 -0.2091
  168SAPE   H3X18917   1.809   0.955   3.656  0.3451  1.3748 -0.4402
  168SAPE   H3Y18918   1.655   0.938   3.764 -1.8467  2.1758 -0.8139
  168SAPE   C3418919   1.811   1.069   3.833 -0.5236  0.2002 -0.0617
  168SAPE   H4X18920   1.742   1.137   3.887  0.1854 -0.9402  2.4378
  168SAPE   H4Y18921   1.898   1.123   3.789  0.4155 -1.8957 -0.9029
  168SAPE   C3518922   1.836   0.962   3.938 -0.4269  0.1094 -0.2256
  168SAPE   H5X18923   1.886   0.873   3.895  1.4541  1.2105 -0.4374
  168SAPE   H5Y18924   1.738   0.920   3.970 -0.0230  0.6977  1.9340
  168SAPE   C3618925   1.923   0.999   4.065 -0.5862  0.2219  0.2608
  168SAPE   H6X18926   2.015   1.055   4.036 -1.6561  1.2942 -1.1792
  168SAPE   H6Y18927   1.949   0.909   4.124  0.9661  0.5209  0.0846
  168SAPE   C3718928   1.839   1.094   4.153  0.5393  0.5349  0.1989
  168SAPE   H7X18929   1.738   1.049   4.168 -0.2804  2.6101  1.2130
  168SAPE   H7Y18930   1.805   1.180   4.092 -1.9960  0.8570  1.8923
  168SAPE   C3818931   1.904   1.125   4.285 -0.5704  0.1591  0.6307
  168SAPE   H8X18932   1.906   1.031   4.346  0.5936  0.1453  0.5965
  168SAPE   H8Y18933   1.835   1.198   4.333 -0.5851 -0.5447  1.7277
  168SAPE   C3918934   2.052   1.169   4.296 -0.1097  0.1024  0.2287
  168SAPE   H9X18935   2.084   1.266   4.253  4.2544 -0.2558  2.1270
  168SAPE   H9Y18936   2.121   1.094   4.251 -0.2470  0.0059  0.1789
  168SAPE  C31018937   2.103   1.197   4.441 -0.0767 -0.2152 -0.5546
  168SAPE  H10X18938   2.205   1.242   4.442  0.2543 -0.9260 -0.8976
  168SAPE  H10Y18939   2.116   1.103   4.499 -0.9172  1.5294  2.6662
  168SAPE  C31118940   1.992   1.268   4.530  0.0759  0.2876 -0.2932
  168SAPE  H11X18941   1.894   1.215   4.533  0.4064 -0.2849  1.1705
  168SAPE  H11Y18942   2.005   1.373   4.498  5.6338  0.2792  0.9862
  168SAPE  C31218943   2.020   1.261   4.679  0.0200 -0.1209  0.1500
  168SAPE  H12X18944   1.971   1.350   4.725 -1.4963  1.0316 -3.3191
  168SAPE  H12Y18945   2.128   1.284   4.695 -0.4752  1.4328  1.5971
  168SAPE  C31318946   1.984   1.123   4.739  0.6013  0.8703  0.2415
  168SAPE  H13X18947   2.061   1.045   4.717  0.9410  1.4402 -0.6244
  168SAPE  H13Y18948   1.886   1.087   4.700  0.9447  0.4690 -0.2684
  168SAPE  C31418949   1.981   1.115   4.896  0.6446 -0.8214  0.0194
  168SAPE  H14X18950   1.959   1.012   4.931 -0.7938 -0.0401  1.5575
  168SAPE  H14Y18951   1.900   1.182   4.932 -0.2432 -1.6063 -0.4704
  168SAPE  C31518952   2.110   1.171   4.949  0.4691 -0.4101 -0.1701
  168SAPE  H15X18953   2.110   1.281   4.937 -0.2364 -0.5884 -2.1143
  168SAPE  H15Y18954   2.204   1.148   4.896  1.5180  1.5224  0.7357
  168SAPE  C31618955   2.140   1.140   5.100  0.0505  0.2060  0.4153
  168SAPE  H16X18956   2.150   1.031   5.119 -2.5293 -0.4317 -1.3001
  168SAPE  H16Y18957   2.050   1.162   5.162  1.3481  2.2974  1.6366
  168SAPE  C31718958   2.256   1.226   5.161 -0.1108  0.6029  0.4071
  168SAPE  H17X18959   2.248   1.333   5.132  0.9204  0.2009 -1.5187
  168SAPE  H17Y18960   2.348   1.180   5.121 -0.6479 -0.9420  0.8846
  168SAPE  C31818961   2.276   1.226   5.313  0.3701 -0.0588  0.5385
  168SAPE  H18X18962   2.369   1.281   5.339  0.9859 -0.7004 -0.2569
  168SAPE  H18Y18963   2.273   1.122   5.354 -0.6316 -1.2900 -2.4099
  168SAPE  H18Z18964   2.200   1.290   5.363 -0.8592 -0.7786 -0.3596
  169SAPE     N18965   4.709   2.924   2.308  0.2743  0.4324 -0.4640
  169SAPE   HN118966   4.617   2.965   2.285 -0.6144 -2.6586 -3.2013
  169SAPE   HN218967   4.673   2.848   2.371 -2.9258  1.8772 -0.3529
  169SAPE   HN318968   4.792   2.977   2.342  0.6739  0.1258 -0.9392
  169SAPE   C1218969   4.740   2.841   2.191  0.2865  0.7406 -0.1036
  169SAPE  H12A18970   4.849   2.818   2.189  1.0091  3.7565  0.3104
  169SAPE  H12B18971   4.710   2.895   2.099 -0.5749  3.7977  1.8127
  169SAPE   C1118972   4.671   2.709   2.195 -0.4116 -0.4270 -0.4491
  169SAPE  H11A18973   4.683   2.646   2.104 -1.5827 -2.2251  0.5780
  169SAPE  H11B18974   4.561   2.714   2.208 -0.5196 -3.7391  0.8655
  169SAPE     P18975   4.758   2.475   2.302  0.2594 -0.2164 -0.1491
  169SAPE   O1318976   4.625   2.411   2.269 -0.3321 -0.4365 -0.3364
  169SAPE   O1418977   4.862   2.456   2.197  0.5609 -0.0531  0.6613
  169SAPE   O1218978   4.728   2.632   2.304 -0.1297 -0.4308 -0.1214
  169SAPE   O1118979   4.807   2.420   2.446 -0.3355  0.3897 -0.2800
  169SAPE    C118980   4.871   2.532   2.518  0.6029 -0.2714  0.5113
  169SAPE    HA18981   4.952   2.570   2.451 -2.2056  1.9071 -1.8922
  169SAPE    HB18982   4.804   2.612   2.554 -0.4498 -0.0695 -1.7042
  169SAPE    C218983   4.947   2.466   2.638 -0.1226  0.3288 -0.5755
  169SAPE    HS18984   5.004   2.379   2.597 -0.2523  0.1971 -0.4794
  169SAPE   O2118985   4.852   2.422   2.735 -0.4214  0.8509 -0.3402
  169SAPE   C2118986   4.883   2.314   2.806  0.6768 -0.9903  0.6248
  169SAPE   O2218987   4.986   2.248   2.795  0.7418 -0.4664 -0.2125
  169SAPE   C2218988   4.765   2.284   2.896  0.1798  0.0084 -0.2824
  169SAPE   H2R18989   4.673   2.321   2.845  1.3954  0.5410 -2.2101
  169SAPE   H2S18990   4.751   2.174   2.896 -0.6537  0.0337 -2.9763
  169SAPE    C318991   5.044   2.566   2.704  0.2526 -0.3204 -0.4019
  169SAPE    HX18992   5.109   2.497   2.761  0.2721 -1.6211 -1.9244
  169SAPE    HY18993   4.974   2.627   2.766  1.0063  0.5997 -0.4267
  169SAPE   O3118994   5.117   2.650   2.610  0.4179  0.3756 -0.1886
  169SAPE   C3118995   5.196   2.733   2.673 -0.0611  0.2884  0.7139
  169SAPE   O3218996   5.209   2.734   2.795 -0.0513 -0.0085  0.1035
  169SAPE   C3218997   5.252   2.844   2.578  0.7712 -0.0860  0.4940
  169SAPE   H2X18998   5.199   2.838   2.481 -1.2169  0.5033  1.4985
  169SAPE   H2Y18999   5.362   2.839   2.563  0.5904 -0.4503 -0.8383
  169SAPE   C2319000   4.780   2.335   3.043 -0.3638  0.2448 -0.4857
  169SAPE   H3R19001   4.677   2.322   3.082 -0.5566 -1.1823 -1.3850
  169SAPE   H3S19002   4.801   2.444   3.049  2.8365 -0.3144  1.2899
  169SAPE   C2419003   4.867   2.249   3.134 -0.0492 -0.5712 -0.3490
  169SAPE   H4R19004   4.828   2.145   3.123  0.0370 -0.5342 -1.0428
  169SAPE   H4S19005   4.833   2.264   3.238 -1.4518  0.5933 -0.9569
  169SAPE   C2519006   5.015   2.277   3.116  0.1487  0.3728 -0.0475
  169SAPE   H5R19007   5.056   2.277   3.013 -0.9039  0.4595 -0.4715
  169SAPE   C2619008   5.102   2.312   3.212 -0.2191  0.3254  0.9823
  169SAPE   H6R19009   5.202   2.335   3.172 -1.3821  1.3315 -1.5472
  169SAPE   C2719010   5.075   2.334   3.357  0.0298 -0.7904  0.5471
  169SAPE   H7R19011   4.971   2.307   3.385 -0.3139  0.2084  0.2704
  169SAPE   H7S19012   5.085   2.442   3.384  2.3074 -0.8338  0.0996
  169SAPE   C2819013   5.152   2.245   3.449  0.0966 -0.2550  0.6719
  169SAPE   H8R19014   5.241   2.196   3.408  0.8748  2.1502 -0.6850
  169SAPE   C2919015   5.139   2.234   3.583  0.0953 -0.5752 -0.4943
  169SAPE   H9R19016   5.184   2.151   3.639  1.7992 -1.1816 -2.6388
  169SAPE  C21019017   5.027   2.294   3.659 -0.3307  0.4596 -0.0025
  169SAPE  H10R19018   4.954   2.220   3.697  0.8982  0.5473  2.7440
  169SAPE  H10S19019   4.962   2.355   3.591  0.0624  0.2495 -0.5747
  169SAPE  C21119020   5.063   2.390   3.764 -0.7566 -0.0959  0.4343
  169SAPE  H11R19021   5.114   2.481   3.729  0.9511 -0.8489  0.8489
  169SAPE  C21219022   5.052   2.368   3.894 -0.1411  0.3064 -0.0591
  169SAPE  H12R19023   5.075   2.448   3.965 -1.0759  0.4432  0.1060
  169SAPE  C21319024   4.991   2.255   3.973  0.2063 -0.0206 -0.0984
  169SAPE  H13R19025   4.951   2.175   3.908 -2.1023  1.6147 -0.7824
  169SAPE  H13S19026   4.916   2.293   4.045  1.6267  1.8039  0.4963
  169SAPE  C21419027   5.110   2.200   4.053 -0.3186 -0.3522 -0.7170
  169SAPE  H14R19028   5.198   2.179   3.991  0.7647  2.3858 -0.2930
  169SAPE  C21519029   5.124   2.204   4.186  0.5272  0.0992 -0.3244
  169SAPE  H15R19030   5.216   2.166   4.231 -0.5419 -0.7147  1.2589
  169SAPE  C21619031   5.028   2.262   4.290  0.3229  0.0582 -0.6460
  169SAPE  H16R19032   4.932   2.298   4.246 -0.7070 -1.0263  0.6261
  169SAPE  H16S19033   5.080   2.341   4.348  1.0430 -0.3621 -0.7025
  169SAPE  C21719034   4.985   2.148   4.389 -0.5319 -0.0386 -0.0756
  169SAPE  H17R19035   4.955   2.066   4.320  2.7015 -0.1062 -1.6323
  169SAPE  H17S19036   4.905   2.201   4.445  0.4976  1.3398  0.1509
  169SAPE  C21819037   5.101   2.089   4.477  0.4875 -0.6372 -0.7850
  169SAPE  H18R19038   5.148   2.169   4.538 -1.2234 -0.2758  0.1109
  169SAPE  H18S19039   5.186   2.047   4.418  1.1114  0.7999 -0.9327
  169SAPE  C21919040   5.048   1.986   4.578  0.1771 -0.3287  0.0066
  169SAPE  H19R19041   5.033   1.885   4.535 -1.5808 -0.7383  1.4468
  169SAPE  H19S19042   4.944   2.013   4.605  0.0386 -0.3819 -0.4723
  169SAPE  C22019043   5.141   1.975   4.697 -0.0555 -0.2630 -0.2011
  169SAPE  H20R19044   5.104   1.911   4.780  2.0125  0.2287  1.1740
  169SAPE  H20S19045   5.151   2.078   4.737  0.4862 -0.9649  1.6139
  169SAPE  H20T19046   5.247   1.950   4.675 -0.4325 -1.5488 -0.6507
  169SAPE   C3319047   5.214   2.985   2.634  0.6772 -0.5681 -0.1522
  169SAPE   H3X19048   5.259   3.064   2.570 -1.0497  1.6349  1.1897
  169SAPE   H3Y19049   5.262   2.985   2.735 -0.2218 -0.5028  0.2882
  169SAPE   C3419050   5.065   3.009   2.645  0.0218 -0.1660  0.1762
  169SAPE   H4X19051   5.017   2.945   2.723  1.4790  0.9032  2.0279
  169SAPE   H4Y19052   5.013   2.989   2.549  1.0058 -0.3522 -0.3269
  169SAPE   C3519053   5.037   3.149   2.699 -0.2771  0.4979 -0.4454
  169SAPE   H5X19054   4.927   3.167   2.700 -0.5505 -1.0586 -0.2780
  169SAPE   H5Y19055   5.079   3.220   2.625 -0.9875  1.0208 -0.3640
  169SAPE   C3619056   5.095   3.191   2.830  1.0439 -0.6109  0.0213
  169SAPE   H6X19057   5.203   3.205   2.808  0.7222  0.7815 -0.7795
  169SAPE   H6Y19058   5.086   3.109   2.905 -1.5472  0.8093  1.4347
  169SAPE   C3719059   5.033   3.318   2.892  0.5165  0.1566  0.1610
  169SAPE   H7X19060   4.923   3.301   2.894  0.4461  0.6067  0.2187
  169SAPE   H7Y19061   5.039   3.413   2.835 -2.2942  0.7110  0.6435
  169SAPE   C3819062   5.069   3.345   3.041 -0.7889  0.3085  0.7948
  169SAPE   H8X19063   5.178   3.332   3.051 -0.9631 -2.9360 -0.5287
  169SAPE   H8Y19064   5.018   3.266   3.100 -1.4971 -0.1072 -0.3434
  169SAPE   C3919065   5.021   3.486   3.079  0.3604 -0.2144  0.1269
  169SAPE   H9X19066   4.913   3.485   3.056  0.4119  1.7646 -0.3674
  169SAPE   H9Y19067   5.074   3.549   3.004  0.4488  0.2858  0.6045
  169SAPE  C31019068   5.054   3.524   3.224 -0.5703  0.1446 -0.3770
  169SAPE  H10X19069   5.009   3.623   3.247  0.5057  0.1952  1.7973
  169SAPE  H10Y19070   5.163   3.530   3.247 -1.1173  0.4475  2.5202
  169SAPE  C31119071   4.988   3.419   3.324  0.7585  0.0670 -0.1909
  169SAPE  H11X19072   5.051   3.330   3.345  2.2125  1.3979  1.4476
  169SAPE  H11Y19073   4.895   3.396   3.268  0.8143  0.2497 -0.3601
  169SAPE  C31219074   4.942   3.476   3.464 -0.2174 -0.1056  0.1022
  169SAPE  H12X19075   4.884   3.395   3.513 -0.5841 -0.6525 -1.2052
  169SAPE  H12Y19076   4.878   3.566   3.456 -1.7111 -0.9545  1.8670
  169SAPE  C31319077   5.063   3.504   3.551  0.5918 -0.3965 -0.2287
  169SAPE  H13X19078   5.126   3.583   3.505  0.5495  0.1582  0.6389
  169SAPE  H13Y19079   5.133   3.418   3.557  0.8859 -0.2521 -1.4404
  169SAPE  C31419080   5.026   3.536   3.694  0.2834 -0.2851 -0.4459
  169SAPE  H14X19081   4.993   3.439   3.738  0.7800  0.3773  1.4929
  169SAPE  H14Y19082   4.945   3.611   3.705  1.4402  0.7603  1.5054
  169SAPE  C31519083   5.164   3.576   3.770  0.0801 -0.1884 -0.2417
  169SAPE  H15X19084   5.194   3.675   3.731 -0.9584  0.7941  1.3191
  169SAPE  H15Y19085   5.236   3.501   3.731  0.1763 -0.6311  0.7619
  169SAPE  C31619086   5.149   3.569   3.925  0.1055 -0.1389 -0.6921
  169SAPE  H16X19087   5.041   3.586   3.948 -0.4828 -2.3520 -1.5281
  169SAPE  H16Y19088   5.212   3.644   3.977  1.3405 -1.4711 -0.2010
  169SAPE  C31719089   5.188   3.434   3.986 -0.2335 -0.8839 -0.0703
  169SAPE  H17X19090   5.141   3.430   4.087  0.6651  1.4012  0.4909
  169SAPE  H17Y19091   5.297   3.437   4.005  0.0934  1.6205 -1.9010
  169SAPE  C31819092   5.147   3.303   3.916  0.6920 -0.5844  0.1207
  169SAPE  H18X19093   5.212   3.294   3.826  0.3151  1.3292 -0.3874
  169SAPE  H18Y19094   5.038   3.305   3.894  0.8850 -0.5252 -0.8551
  169SAPE  H18Z19095   5.156   3.211   3.978  0.7404  0.0763  1.1138
  170SAPE     N19096   6.537   5.401   2.696 -0.0709 -0.0498 -0.1758
  170SAPE   HN119097   6.535   5.457   2.609 -0.6695 -0.1854 -0.2506
  170SAPE   HN219098   6.622   5.341   2.691  0.7732  1.0279  0.6777
  170SAPE   HN319099   6.458   5.334   2.692  0.8215 -1.3870  2.2120
  170SAPE   C1219100   6.523   5.482   2.827  0.2464 -0.1824  0.9880
  170SAPE  H12A19101   6.597   5.565   2.819 -2.9379  2.7687 -0.6689
  170SAPE  H12B19102   6.538   5.413   2.913  2.0830 -0.7706  0.2443
  170SAPE   C1119103   6.382   5.538   2.848 -0.0393  0.1333  0.7497
  170SAPE  H11A19104   6.367   5.590   2.945 -2.0785  2.0770 -0.4823
  170SAPE  H11B19105   6.324   5.444   2.863  0.9149 -0.3652  1.4527
  170SAPE     P19106   6.364   5.749   2.702 -0.0740 -0.5812  0.3320
  170SAPE   O1319107   6.477   5.752   2.611 -0.0218  0.5429 -0.0776
  170SAPE   O1419108   6.244   5.829   2.669 -0.3748 -0.1371 -0.1433
  170SAPE   O1219109   6.321   5.607   2.742  0.2613 -0.7643  0.1837
  170SAPE   O1119110   6.403   5.808   2.842 -0.3139  0.1645 -0.0878
  170SAPE    C119111   6.526   5.875   2.862  0.2385 -0.3605 -0.4047
  170SAPE    HA19112   6.602   5.808   2.819  0.6383  1.2595 -2.4038
  170SAPE    HB19113   6.541   5.969   2.804  0.3583 -1.6078 -2.4983
  170SAPE    C219114   6.577   5.896   3.013 -0.2086  0.1301 -0.0818
  170SAPE    HS19115   6.681   5.934   2.999 -0.0167 -0.4323 -0.1967
  170SAPE   O2119116   6.580   5.774   3.086 -0.0612  0.2959 -0.2966
  170SAPE   C2119117   6.656   5.779   3.195  0.9118  0.3643 -0.3876
  170SAPE   O2219118   6.741   5.859   3.229  0.0543  0.1271  0.1244
  170SAPE   C2219119   6.628   5.649   3.281 -0.1482 -0.4673 -0.0175
  170SAPE   H2R19120   6.651   5.570   3.206  3.8102 -0.8537  1.3426
  170SAPE   H2S19121   6.699   5.635   3.366  0.8206 -3.3018 -1.1741
  170SAPE    C319122   6.488   6.017   3.075 -0.0579  0.2761 -0.1526
  170SAPE    HX19123   6.384   5.977   3.071 -0.2203  0.5667  1.0079
  170SAPE    HY19124   6.474   6.116   3.027 -0.9865  1.3213  2.1474
  170SAPE   O3119125   6.530   6.052   3.205  0.3731  0.5256  0.0516
  170SAPE   C3119126   6.629   6.138   3.225  0.1555 -0.0448  0.0471
  170SAPE   O3219127   6.701   6.185   3.141 -0.3021  0.4625 -0.0227
  170SAPE   C3219128   6.657   6.149   3.380  0.4670 -0.3701 -0.6622
  170SAPE   H2X19129   6.766   6.142   3.404  0.5644  0.9057 -0.6212
  170SAPE   H2Y19130   6.616   6.052   3.414  1.5066 -1.5405 -2.5719
  170SAPE   C2319131   6.486   5.650   3.334  0.3258 -0.1584 -0.2003
  170SAPE   H3R19132   6.457   5.543   3.344 -0.7787  0.0922 -0.6173
  170SAPE   H3S19133   6.413   5.679   3.255  1.1176  1.3208 -0.4225
  170SAPE   C2419134   6.459   5.734   3.459 -0.1741  0.0592  0.2576
  170SAPE   H4R19135   6.348   5.736   3.471 -0.2623  2.1195 -0.4886
  170SAPE   H4S19136   6.504   5.833   3.436 -2.1416  0.9441 -0.0370
  170SAPE   C2519137   6.528   5.659   3.575  0.3128 -0.4717  0.0434
  170SAPE   H5R19138   6.492   5.558   3.599 -2.4282  0.7955  1.7799
  170SAPE   C2619139   6.627   5.715   3.644  0.0270  0.4577 -0.1771
  170SAPE   H6R19140   6.675   5.656   3.724  0.3796  3.3402  1.9085
  170SAPE   C2719141   6.673   5.855   3.625 -0.0767 -0.2916  0.2046
  170SAPE   H7R19142   6.573   5.904   3.622 -0.4675 -1.1372 -1.1061
  170SAPE   H7S19143   6.726   5.871   3.529  0.1838  3.2013  0.7825
  170SAPE   C2819144   6.761   5.903   3.733  0.1879 -0.7622 -0.1907
  170SAPE   H8R19145   6.699   5.966   3.799  0.4372  1.9869 -2.3939
  170SAPE   C2919146   6.900   5.890   3.743  0.0194  0.5223  1.3420
  170SAPE   H9R19147   6.948   5.909   3.840  0.1999 -2.5825  1.9555
  170SAPE  C21019148   6.982   5.804   3.650 -0.5702 -0.1465  0.3259
  170SAPE  H10R19149   7.011   5.874   3.569 -2.3242 -0.7492 -0.8908
  170SAPE  H10S19150   6.927   5.723   3.598  3.0398 -0.8135 -2.8874
  170SAPE  C21119151   7.100   5.738   3.704 -0.1418 -0.0007 -0.4616
  170SAPE  H11R19152   7.150   5.813   3.766 -1.2887  2.3995 -2.3026
  170SAPE  C21219153   7.142   5.610   3.714 -0.6676 -0.5209  0.4292
  170SAPE  H12R19154   7.242   5.599   3.758 -0.7264  1.3183  1.1239
  170SAPE  C21319155   7.080   5.492   3.643 -0.2228  0.0935  0.2002
  170SAPE  H13R19156   7.122   5.481   3.541 -1.3409  2.8344 -0.6548
  170SAPE  H13S19157   6.971   5.509   3.627 -0.9309 -2.0964  2.1727
  170SAPE  C21419158   7.095   5.360   3.730 -0.5351 -0.3422 -0.1099
  170SAPE  H14R19159   7.191   5.308   3.717  1.0180  2.2949  0.1198
  170SAPE  C21519160   7.001   5.300   3.801  0.3529  0.7863 -0.0851
  170SAPE  H15R19161   7.020   5.202   3.848  1.4148  0.9238 -0.2068
  170SAPE  C21619162   6.857   5.351   3.822 -0.9221  0.1807 -0.2388
  170SAPE  H16R19163   6.861   5.462   3.816  0.6430  0.1214 -0.7841
  170SAPE  H16S19164   6.811   5.334   3.922 -1.2461  2.0991 -0.0372
  170SAPE  C21719165   6.764   5.306   3.710  0.2777  0.1374  0.0018
  170SAPE  H17R19166   6.775   5.202   3.672 -3.6718 -0.5557  0.3467
  170SAPE  H17S19167   6.789   5.371   3.623 -0.1974 -0.5544 -0.6621
  170SAPE  C21819168   6.617   5.339   3.746 -0.2749  0.0986  0.5782
  170SAPE  H18R19169   6.567   5.348   3.647  0.0361 -2.1199  0.1765
  170SAPE  H18S19170   6.615   5.434   3.803 -2.2952 -0.7022  1.9647
  170SAPE  C21919171   6.551   5.229   3.826  0.3177  1.2620  0.6449
  170SAPE  H19R19172   6.574   5.235   3.934 -0.4329  0.2868  0.8832
  170SAPE  H19S19173   6.587   5.129   3.793 -2.4217  0.5748 -0.5443
  170SAPE  C22019174   6.395   5.227   3.801 -0.6180 -0.0855  0.3476
  170SAPE  H20R19175   6.369   5.226   3.693 -2.1306 -0.2444  0.7016
  170SAPE  H20S19176   6.352   5.317   3.848  0.9666  1.1333 -0.4319
  170SAPE  H20T19177   6.348   5.142   3.855  0.1192 -0.6021  0.1983
  170SAPE   C3319178   6.582   6.276   3.444  0.5198  0.1901 -0.4329
  170SAPE   H3X19179   6.478   6.286   3.407  0.5216  0.7271 -0.3044
  170SAPE   H3Y19180   6.635   6.368   3.410  0.8973 -0.1503 -0.7713
  170SAPE   C3419181   6.562   6.269   3.594 -0.2726  0.5696 -0.1475
  170SAPE   H4X19182   6.523   6.165   3.606  0.7460  0.0878 -0.8514
  170SAPE   H4Y19183   6.496   6.354   3.623 -0.2993  0.6006 -0.2963
  170SAPE   C3519184   6.689   6.282   3.684  1.3898 -0.3556 -0.0538
  170SAPE   H5X19185   6.736   6.383   3.681 -0.6882  0.6656  0.4156
  170SAPE   H5Y19186   6.757   6.205   3.641  0.9863 -1.0137  0.4574
  170SAPE   C3619187   6.664   6.252   3.834 -0.5103 -0.1425  0.3242
  170SAPE   H6X19188   6.625   6.151   3.859 -0.9592 -0.2257 -0.6405
  170SAPE   H6Y19189   6.585   6.320   3.874  0.3781  1.5251 -0.6319
  170SAPE   C3719190   6.795   6.269   3.909 -1.5596 -0.3016  0.0125
  170SAPE   H7X19191   6.863   6.349   3.872  0.4733 -1.0650  1.9139
  170SAPE   H7Y19192   6.852   6.175   3.898  0.7870  0.9181  1.0436
  170SAPE   C3819193   6.768   6.300   4.062  0.2477 -1.0521 -0.3120
  170SAPE   H8X19194   6.689   6.378   4.066  1.4312  0.4062 -2.6380
  170SAPE   H8Y19195   6.849   6.346   4.123 -2.6080  0.7063  2.4760
  170SAPE   C3919196   6.717   6.178   4.129 -0.1690  0.2724 -0.1110
  170SAPE   H9X19197   6.795   6.099   4.128 -2.7366 -2.3885 -0.6939
  170SAPE   H9Y19198   6.632   6.130   4.078  1.5591 -0.2498 -2.6953
  170SAPE  C31019199   6.671   6.205   4.277  0.2565  0.4775  0.2242
  170SAPE  H10X19200   6.595   6.286   4.273 -0.6282 -0.3670 -0.5348
  170SAPE  H10Y19201   6.750   6.249   4.341 -0.5697 -1.1594  2.5088
  170SAPE  C31119202   6.607   6.077   4.341 -0.5057  0.3602 -0.0916
  170SAPE  H11X19203   6.681   5.996   4.325  1.0810  2.1604 -2.5666
  170SAPE  H11Y19204   6.520   6.045   4.278 -0.1116 -1.9531  0.4446
  170SAPE  C31219205   6.572   6.086   4.484  0.1442 -0.1308 -0.9277
  170SAPE  H12X19206   6.656   6.126   4.545 -0.8419 -0.1895  0.5307
  170SAPE  H12Y19207   6.559   5.982   4.521  3.3760 -0.1561  0.4107
  170SAPE  C31319208   6.445   6.178   4.517 -0.2629 -0.2295  0.8847
  170SAPE  H13X19209   6.370   6.163   4.437 -2.0307  2.1410  1.9702
  170SAPE  H13Y19210   6.482   6.282   4.501 -0.3510  0.2069  3.1956
  170SAPE  C31419211   6.386   6.178   4.660 -0.5786  0.1629  0.0711
  170SAPE  H14X19212   6.332   6.272   4.687 -1.1995 -0.3810  0.7681
  170SAPE  H14Y19213   6.472   6.159   4.727 -1.1645 -0.3822  0.6841
  170SAPE  C31519214   6.297   6.062   4.688  0.2853 -0.3201  0.4981
  170SAPE  H15X19215   6.297   6.059   4.799 -0.8567 -0.6672  0.4984
  170SAPE  H15Y19216   6.329   5.973   4.630 -0.9221  0.2991 -1.2027
  170SAPE  C31619217   6.146   6.090   4.647 -0.2300  0.2441  0.3789
  170SAPE  H16X19218   6.117   6.090   4.540  0.6034 -0.3317  0.1375
  170SAPE  H16Y19219   6.122   6.189   4.691 -1.9151 -0.0357  0.1646
  170SAPE  C31719220   6.046   6.002   4.715 -0.4787  0.8827 -0.1418
  170SAPE  H17X19221   5.945   6.048   4.702 -1.1215 -0.0828  1.3011
  170SAPE  H17Y19222   6.080   5.985   4.819 -3.1682 -1.5784  0.4796
  170SAPE  C31819223   6.043   5.869   4.646 -0.3950 -0.2130 -0.1269
  170SAPE  H18X19224   5.985   5.879   4.552  0.6897 -2.4853 -1.1149
  170SAPE  H18Y19225   6.002   5.791   4.714  0.5919  2.6284  4.1168
  170SAPE  H18Z19226   6.142   5.829   4.615 -1.7518 -2.6873 -1.5541
  171SAPE     N19227   3.071   5.746   2.972 -0.2089  0.3555  0.6377
  171SAPE   HN119228   3.059   5.747   2.868 -0.7722 -0.8200  0.6783
  171SAPE   HN219229   3.007   5.678   3.017  2.1451 -2.9695 -0.6702
  171SAPE   HN319230   3.048   5.838   3.016  0.4334  0.2929  1.1081
  171SAPE   C1219231   3.218   5.717   2.991  0.8594 -0.4523 -0.6998
  171SAPE  H12A19232   3.232   5.734   3.100  1.1732  3.7895 -1.2558
  171SAPE  H12B19233   3.273   5.799   2.940  1.2445 -1.0482 -1.2552
  171SAPE   C1119234   3.249   5.581   2.939 -0.3292 -0.5718 -0.5154
  171SAPE  H11A19235   3.211   5.503   3.010  2.0930 -1.4752 -0.1255
  171SAPE  H11B19236   3.359   5.569   2.943 -0.1461  1.0971  0.3186
  171SAPE     P19237   3.275   5.513   2.684  0.0299 -0.1709 -0.3646
  171SAPE   O1319238   3.189   5.533   2.566  0.0167  0.1741 -0.3422
  171SAPE   O1419239   3.407   5.578   2.684  0.0116  0.0066 -0.1517
  171SAPE   O1219240   3.198   5.564   2.807 -0.6392  0.7993 -0.0047
  171SAPE   O1119241   3.284   5.362   2.717  0.0052  0.0509 -0.7107
  171SAPE    C119242   3.194   5.259   2.660  0.1023  0.1383 -0.3210
  171SAPE    HA19243   3.138   5.295   2.572 -1.2205  0.2948  0.5531
  171SAPE    HB19244   3.260   5.175   2.630 -0.1208 -0.3783  0.5949
  171SAPE    C219245   3.093   5.207   2.772 -0.3413 -0.0209 -0.1138
  171SAPE    HS19246   3.004   5.274   2.777 -0.7047 -0.6098  2.6831
  171SAPE   O2119247   3.161   5.176   2.891 -0.1691 -0.0361 -0.1226
  171SAPE   C2119248   3.099   5.211   3.003 -0.0382 -0.1620 -0.0823
  171SAPE   O2219249   2.980   5.244   3.019 -0.5419 -0.2962 -0.1472
  171SAPE   C2219250   3.196   5.220   3.122 -0.1692 -0.1403  0.5144
  171SAPE   H2R19251   3.233   5.125   3.167  0.8041 -0.7761 -1.5004
  171SAPE   H2S19252   3.288   5.274   3.089  1.1711 -2.1900  0.7123
  171SAPE    C319253   3.035   5.074   2.721  0.2352 -0.2211 -0.3331
  171SAPE    HX19254   3.124   5.011   2.699  0.2306  0.3683 -2.2599
  171SAPE    HY19255   2.984   5.084   2.622  0.6069 -1.5388 -0.6852
  171SAPE   O3119256   2.949   5.001   2.819 -0.4016 -0.0769 -0.0085
  171SAPE   C3119257   2.940   4.873   2.781 -0.1813 -0.1525 -0.3672
  171SAPE   O3219258   3.006   4.822   2.690 -0.2700  0.0951  0.5350
  171SAPE   C3219259   2.843   4.806   2.871  0.3156  0.6235 -0.4818
  171SAPE   H2X19260   2.756   4.782   2.806  1.2308 -3.7337 -0.3715
  171SAPE   H2Y19261   2.804   4.870   2.953 -0.2246 -1.7842  1.2502
  171SAPE   C2319262   3.140   5.306   3.238  0.0860 -0.4400 -0.2863
  171SAPE   H3R19263   3.065   5.246   3.294 -2.0570  1.7093 -0.7187
  171SAPE   H3S19264   3.092   5.401   3.206  0.0444 -0.0865  0.7905
  171SAPE   C2419265   3.241   5.329   3.352  0.1243  0.3550 -0.0092
  171SAPE   H4R19266   3.277   5.227   3.375 -5.5116 -2.1083 -0.5405
  171SAPE   H4S19267   3.184   5.364   3.441  1.2710 -1.5208  1.5317
  171SAPE   C2519268   3.357   5.417   3.310 -0.6293  0.3974 -0.0474
  171SAPE   H5R19269   3.417   5.383   3.225  1.1950 -0.5778  1.5592
  171SAPE   C2619270   3.359   5.549   3.331 -0.7599  0.2668  0.0502
  171SAPE   H6R19271   3.434   5.617   3.287 -1.5284  1.3636  0.3952
  171SAPE   C2719272   3.279   5.617   3.443 -0.1647 -0.4497  0.5304
  171SAPE   H7R19273   3.317   5.582   3.541  1.7986  0.2744  0.0749
  171SAPE   H7S19274   3.171   5.593   3.432 -0.0116 -0.3183 -1.8313
  171SAPE   C2819275   3.289   5.771   3.435 -0.2961  0.4930  0.3532
  171SAPE   H8R19276   3.273   5.807   3.332  1.4856 -1.8000 -0.8267
  171SAPE   C2919277   3.319   5.855   3.528 -0.6330  0.0986 -0.5407
  171SAPE   H9R19278   3.303   5.964   3.516 -0.6266  0.2581  0.8058
  171SAPE  C21019279   3.343   5.820   3.668  0.0779 -0.3969 -1.1561
  171SAPE  H10R19280   3.444   5.845   3.706 -0.6216 -0.3292  0.8083
  171SAPE  H10S19281   3.329   5.712   3.689 -0.8180 -0.3372 -1.3921
  171SAPE  C21119282   3.257   5.896   3.767 -0.1664  0.0207 -0.0006
  171SAPE  H11R19283   3.239   6.002   3.747 -3.4143 -0.6160 -1.0490
  171SAPE  C21219284   3.235   5.849   3.893 -0.1470 -0.4535 -0.5923
  171SAPE  H12R19285   3.174   5.902   3.968  0.1275  0.2289 -0.8476
  171SAPE  C21319286   3.272   5.705   3.940  0.5535 -0.6619  0.7246
  171SAPE  H13R19287   3.378   5.681   3.920  0.2201 -3.2670  1.7932
  171SAPE  H13S19288   3.214   5.644   3.868  0.1539  1.2384 -0.6600
  171SAPE  C21419289   3.223   5.668   4.080 -0.1359  0.2640  0.3397
  171SAPE  H14R19290   3.136   5.719   4.124  0.7615  0.7330  1.6349
  171SAPE  C21519291   3.299   5.588   4.163  0.3383 -0.8821  0.8873
  171SAPE  H15R19292   3.256   5.562   4.260  0.8151  1.1747  1.7056
  171SAPE  C21619293   3.427   5.517   4.132  0.1677  0.3813  0.0494
  171SAPE  H16R19294   3.509   5.551   4.199  1.3952  1.9745 -2.1372
  171SAPE  H16S19295   3.471   5.540   4.032  1.8108  1.3002  0.9334
  171SAPE  C21719296   3.415   5.361   4.139 -0.1607 -0.5142 -0.1801
  171SAPE  H17R19297   3.365   5.325   4.232  0.3437  0.8919  0.6852
  171SAPE  H17S19298   3.518   5.320   4.143 -0.3995 -1.0602  1.0611
  171SAPE  C21819299   3.341   5.312   4.020  0.6692 -0.5600 -0.0595
  171SAPE  H18R19300   3.234   5.342   4.020  1.2730  1.7746 -0.2219
  171SAPE  H18S19301   3.338   5.201   4.028  1.8718 -0.5742  0.4196
  171SAPE  C21919302   3.391   5.344   3.880  0.1368 -0.0829 -0.0029
  171SAPE  H19R19303   3.494   5.304   3.870 -0.9730 -2.7708 -2.0193
  171SAPE  H19S19304   3.405   5.454   3.875  1.4372 -0.2113  0.5891
  171SAPE  C22019305   3.291   5.302   3.769 -0.0283  0.1504  0.3173
  171SAPE  H20R19306   3.332   5.329   3.669  2.3378 -1.9134  0.6144
  171SAPE  H20S19307   3.193   5.352   3.778 -0.2160 -0.1320 -0.1192
  171SAPE  H20T19308   3.267   5.193   3.776 -0.0938  0.2651  2.6602
  171SAPE   C3319309   2.911   4.676   2.926  0.3796 -0.7900  0.5372
  171SAPE   H3X19310   2.995   4.640   2.863 -0.6496 -3.0494  0.3799
  171SAPE   H3Y19311   2.841   4.591   2.940  0.5679 -1.0322  0.0118
  171SAPE   C3419312   2.956   4.700   3.070  0.7939 -0.4130 -0.4612
  171SAPE   H4X19313   2.999   4.601   3.099 -2.3362 -1.0059  2.8856
  171SAPE   H4Y19314   2.866   4.716   3.134  0.9056  2.1736 -0.8349
  171SAPE   C3519315   3.054   4.809   3.117  0.0465 -0.3903  0.4650
  171SAPE   H5X19316   3.014   4.909   3.090  0.6845  0.2418  1.7712
  171SAPE   H5Y19317   3.144   4.800   3.052 -0.6402 -1.0393 -0.4290
  171SAPE   C3619318   3.093   4.799   3.271  0.8529  0.4252 -0.2419
  171SAPE   H6X19319   3.184   4.860   3.289  0.8583  0.2088  0.4736
  171SAPE   H6Y19320   3.118   4.694   3.298 -1.5110 -0.4907 -1.3344
  171SAPE   C3719321   2.982   4.849   3.371  0.2137  0.0339  0.5121
  171SAPE   H7X19322   2.913   4.765   3.391 -0.5939  0.0761 -1.7423
  171SAPE   H7Y19323   2.933   4.935   3.321 -3.1857 -1.7727  0.4269
  171SAPE   C3819324   3.055   4.905   3.499 -0.4116 -0.0397  0.0927
  171SAPE   H8X19325   3.112   4.999   3.485 -1.7487  1.4907  3.7542
  171SAPE   H8Y19326   3.123   4.834   3.552  0.9257 -0.3274 -1.8663
  171SAPE   C3919327   2.951   4.937   3.603  0.5625  0.3618 -0.1193
  171SAPE   H9X19328   2.903   4.839   3.625 -1.6030  1.4641  0.2781
  171SAPE   H9Y19329   2.867   4.987   3.551 -0.9163 -2.3696 -0.5529
  171SAPE  C31019330   3.007   5.000   3.730 -0.1608 -0.0098  0.2305
  171SAPE  H10X19331   2.931   5.034   3.803 -0.2847  1.9425 -0.7470
  171SAPE  H10Y19332   3.067   5.090   3.703  0.7323 -0.9206 -0.9660
  171SAPE  C31119333   3.111   4.911   3.802  1.1621 -0.0872  0.0872
  171SAPE  H11X19334   3.211   4.911   3.755  1.2964 -2.1335  0.2661
  171SAPE  H11Y19335   3.072   4.808   3.787  2.0131 -0.1436 -2.0193
  171SAPE  C31219336   3.123   4.954   3.956  0.3319  0.2674 -0.1246
  171SAPE  H12X19337   3.020   4.968   3.995  0.6833 -0.3409  1.0879
  171SAPE  H12Y19338   3.185   5.046   3.963  0.3891  0.2552 -0.4693
  171SAPE  C31319339   3.200   4.836   4.030 -0.0121  0.3500 -1.2979
  171SAPE  H13X19340   3.266   4.778   3.962  0.2618 -0.1920 -0.5893
  171SAPE  H13Y19341   3.118   4.771   4.068  0.3944  1.6973  2.2347
  171SAPE  C31419342   3.292   4.883   4.141  0.1099 -0.1248 -0.5176
  171SAPE  H14X19343   3.374   4.941   4.093 -1.6426 -0.4055 -4.2253
  171SAPE  H14Y19344   3.329   4.794   4.197  0.4054 -0.0956 -0.6633
  171SAPE  C31519345   3.217   4.965   4.237  0.0764 -0.7852 -0.6657
  171SAPE  H15X19346   3.117   4.924   4.265 -0.5931  0.7139 -0.7725
  171SAPE  H15Y19347   3.199   5.067   4.198 -1.2028 -0.1588  1.3891
  171SAPE  C31619348   3.301   4.991   4.363 -0.2243 -0.2483 -0.0858
  171SAPE  H16X19349   3.387   5.062   4.356 -0.7660  0.4923  0.6080
  171SAPE  H16Y19350   3.337   4.901   4.418  0.7444 -0.2518 -0.7025
  171SAPE  C31719351   3.206   5.055   4.470  0.0078  0.2962 -0.1872
  171SAPE  H17X19352   3.125   4.983   4.495  0.5974 -0.2955  0.0701
  171SAPE  H17Y19353   3.161   5.149   4.433 -1.2730 -0.1806  0.0929
  171SAPE  C31819354   3.274   5.087   4.606 -0.6693  0.0741 -1.0839
  171SAPE  H18X19355   3.239   5.188   4.638 -0.1726 -0.3260  0.8733
  171SAPE  H18Y19356   3.383   5.102   4.591 -1.0294  4.0393 -0.8913
  171SAPE  H18Z19357   3.252   5.029   4.698 -1.6109  0.4659 -1.0545
  172SAPE     N19358   6.535   4.848   2.717 -0.2268 -0.4966 -0.6204
  172SAPE   HN119359   6.566   4.758   2.677 -2.5075 -1.4274 -0.4192
  172SAPE   HN219360   6.480   4.893   2.641  0.7041  2.3099  0.2401
  172SAPE   HN319361   6.616   4.909   2.739  0.3177 -1.7487  1.0788
  172SAPE   C1219362   6.455   4.830   2.844  0.0848 -0.0871  0.3860
  172SAPE  H12A19363   6.518   4.784   2.923  2.1408  0.5738 -0.7982
  172SAPE  H12B19364   6.369   4.763   2.820 -0.0658  0.4484 -0.5922
  172SAPE   C1119365   6.386   4.958   2.881 -0.2031  0.1495  0.2144
  172SAPE  H11A19366   6.460   5.037   2.906 -0.2673 -0.1663  1.4841
  172SAPE  H11B19367   6.325   4.952   2.974  1.5282 -0.8882  1.3306
  172SAPE     P19368   6.232   5.133   2.741 -0.3674 -0.4928 -0.2605
  172SAPE   O1319369   6.336   5.226   2.688  0.5573 -0.6192 -0.2370
  172SAPE   O1419370   6.118   5.110   2.650  0.0715 -0.1444  0.4279
  172SAPE   O1219371   6.310   4.997   2.771  0.0803 -0.0928  0.0086
  172SAPE   O1119372   6.187   5.177   2.881  0.1848 -0.3529  0.1622
  172SAPE    C119373   6.051   5.166   2.924 -0.4853  0.1874 -0.1567
  172SAPE    HA19374   6.001   5.074   2.887  1.8575 -1.5280  0.7515
  172SAPE    HB19375   6.056   5.158   3.035 -1.5171 -0.3585 -0.1335
  172SAPE    C219376   5.961   5.281   2.881 -0.4458 -1.0401 -0.6176
  172SAPE    HS19377   5.957   5.266   2.771 -1.5905 -0.4084 -0.6724
  172SAPE   O2119378   6.015   5.411   2.921 -0.5445 -0.2018  0.4171
  172SAPE   C2119379   5.948   5.513   2.872 -0.4621 -0.2016 -0.1003
  172SAPE   O2219380   5.859   5.504   2.790  0.0824  0.9669 -0.1882
  172SAPE   C2219381   6.005   5.640   2.933 -0.4871 -0.4599 -0.1602
  172SAPE   H2R19382   6.078   5.678   2.858  1.7667  0.1573  2.2252
  172SAPE   H2S19383   5.923   5.715   2.942  0.7636  0.9448  0.0319
  172SAPE    C319384   5.822   5.262   2.948  0.1986 -0.2034  0.2912
  172SAPE    HX19385   5.782   5.162   2.921  0.4702 -0.2906  0.2067
  172SAPE    HY19386   5.743   5.323   2.898 -1.0853 -2.0594 -0.0692
  172SAPE   O3119387   5.828   5.279   3.085  0.2649 -0.2298 -0.2837
  172SAPE   C3119388   5.758   5.379   3.144  0.3296 -0.6607  0.4902
  172SAPE   O3219389   5.685   5.463   3.084 -0.2550  0.2384 -0.0528
  172SAPE   C3219390   5.804   5.393   3.290  0.1186 -0.0367  0.4749
  172SAPE   H2X19391   5.880   5.474   3.292  1.3825 -1.1634 -0.4422
  172SAPE   H2Y19392   5.832   5.292   3.327 -1.0148 -0.9751 -1.1345
  172SAPE   C2319393   6.092   5.637   3.064 -0.9550 -0.7552 -0.1139
  172SAPE   H3R19394   6.188   5.587   3.037 -0.5788 -0.9496  1.4975
  172SAPE   H3S19395   6.052   5.565   3.139  2.2259 -1.1801  1.3438
  172SAPE   C2419396   6.136   5.776   3.121  0.0583 -0.0981 -0.1933
  172SAPE   H4R19397   6.176   5.847   3.045 -3.9812  0.7768 -1.7643
  172SAPE   H4S19398   6.215   5.759   3.197  0.3076 -1.1848 -0.6724
  172SAPE   C2519399   6.010   5.841   3.180 -0.0375  0.2775  0.2761
  172SAPE   H5R19400   5.943   5.867   3.098  1.2257  0.4513 -0.7309
  172SAPE   C2619401   5.994   5.886   3.305 -0.2326  0.1932 -0.6317
  172SAPE   H6R19402   5.896   5.923   3.339 -0.5513 -1.3079  0.1646
  172SAPE   C2719403   6.087   5.864   3.423 -0.1736 -0.1239  0.8575
  172SAPE   H7R19404   6.127   5.761   3.410  3.8542  1.4632 -0.9928
  172SAPE   H7S19405   6.021   5.864   3.512  1.2444 -2.2694  1.9838
  172SAPE   C2819406   6.195   5.965   3.423 -0.0784 -0.6480  0.2904
  172SAPE   H8R19407   6.260   5.948   3.337 -1.1557 -3.4884 -0.0631
  172SAPE   C2919408   6.223   6.061   3.510  0.4617 -0.5011  0.4325
  172SAPE   H9R19409   6.314   6.122   3.500 -0.9604  2.0038  1.8745
  172SAPE  C21019410   6.140   6.088   3.629 -0.0310  0.0250 -0.9117
  172SAPE  H10R19411   6.151   6.003   3.701 -0.2925 -2.0051 -3.1274
  172SAPE  H10S19412   6.036   6.088   3.590 -0.4874 -2.1283  0.1105
  172SAPE  C21119413   6.171   6.218   3.698  0.7627  0.2243  0.1433
  172SAPE  H11R19414   6.165   6.310   3.638  0.8019 -0.0268 -0.2489
  172SAPE  C21219415   6.200   6.232   3.831  0.1893 -0.6554 -0.0904
  172SAPE  H12R19416   6.205   6.337   3.866  2.3789  0.0426 -2.1740
  172SAPE  C21319417   6.218   6.127   3.935  0.4827 -0.1989 -0.1040
  172SAPE  H13R19418   6.263   6.038   3.887 -1.0726 -0.0546 -1.9863
  172SAPE  H13S19419   6.118   6.093   3.971 -0.6371  3.4492  0.7204
  172SAPE  C21419420   6.283   6.182   4.060  0.4025 -0.1042  0.2710
  172SAPE  H14R19421   6.387   6.149   4.073 -0.1002 -1.5963  0.6685
  172SAPE  C21519422   6.224   6.257   4.158  0.1609 -0.6286 -0.0648
  172SAPE  H15R19423   6.281   6.292   4.245 -1.5378  1.0941  0.4239
  172SAPE  C21619424   6.085   6.322   4.157 -0.3382  0.1748  0.4160
  172SAPE  H16R19425   6.026   6.259   4.087  0.0780  0.3582 -0.1052
  172SAPE  H16S19426   6.090   6.427   4.122 -0.6605 -0.0203 -0.2468
  172SAPE  C21719427   6.007   6.315   4.286 -0.0018  0.2434  0.6842
  172SAPE  H17R19428   5.980   6.208   4.301 -2.1289  0.3995 -1.4224
  172SAPE  H17S19429   5.907   6.362   4.274 -0.7556 -0.8563  2.2393
  172SAPE  C21819430   6.061   6.379   4.417 -0.7918  0.1780 -0.4627
  172SAPE  H18R19431   6.098   6.477   4.382 -0.5117 -0.2404 -1.3689
  172SAPE  H18S19432   6.157   6.337   4.455  0.2947  1.4179 -1.7518
  172SAPE  C21919433   5.955   6.416   4.529  0.2090  0.0058 -0.7416
  172SAPE  H19R19434   5.934   6.312   4.561 -0.0247 -0.4353 -2.2634
  172SAPE  H19S19435   5.864   6.463   4.487 -0.7008  0.8032  1.9071
  172SAPE  C22019436   6.018   6.498   4.647 -0.1495 -0.7372  0.7371
  172SAPE  H20R19437   6.096   6.449   4.709  0.5749  0.3863  0.7432
  172SAPE  H20S19438   5.942   6.553   4.707  0.5197  1.3688 -0.2381
  172SAPE  H20T19439   6.064   6.581   4.590  0.1706 -1.4815 -0.1101
  172SAPE   C3319440   5.689   5.445   3.379 -0.4528 -0.1653  0.6736
  172SAPE   H3X19441   5.599   5.380   3.389 -1.0219 -0.0580 -2.6123
  172SAPE   H3Y19442   5.647   5.530   3.322  2.1316  0.5680 -0.2804
  172SAPE   C3419443   5.731   5.495   3.520 -0.6366 -0.1079  0.0473
  172SAPE   H4X19444   5.803   5.580   3.522  1.0630 -1.4911  0.9394
  172SAPE   H4Y19445   5.794   5.416   3.567 -0.0839  0.2697 -0.0499
  172SAPE   C3519446   5.610   5.528   3.612  0.1798  0.1572 -0.6948
  172SAPE   H5X19447   5.532   5.450   3.627 -0.5719  1.0197  0.0255
  172SAPE   H5Y19448   5.555   5.599   3.547  1.3528  2.2416  0.4855
  172SAPE   C3619449   5.648   5.589   3.749 -0.5604  0.2054  0.5836
  172SAPE   H6X19450   5.576   5.673   3.756 -0.2886  0.8215 -2.6561
  172SAPE   H6Y19451   5.746   5.643   3.745 -0.6380  0.3394  0.5013
  172SAPE   C3719452   5.641   5.481   3.856  0.4585 -0.7170 -0.4428
  172SAPE   H7X19453   5.714   5.399   3.836  0.3659 -1.2678  1.2982
  172SAPE   H7Y19454   5.537   5.441   3.855 -0.1547  0.8211 -0.3103
  172SAPE   C3819455   5.678   5.536   3.994 -0.3434  0.3632 -1.0368
  172SAPE   H8X19456   5.593   5.602   4.020  0.0914  0.8652 -0.8479
  172SAPE   H8Y19457   5.764   5.606   3.988 -1.5099  1.8688 -0.7193
  172SAPE   C3919458   5.703   5.420   4.091  0.4458 -0.0573 -0.2923
  172SAPE   H9X19459   5.764   5.345   4.036 -1.0800 -0.4899 -1.4516
  172SAPE   H9Y19460   5.598   5.389   4.111 -0.3353  1.9336 -1.0938
  172SAPE  C31019461   5.770   5.455   4.224 -0.0236  0.0703 -0.2387
  172SAPE  H10X19462   5.706   5.539   4.258  0.8773  0.5680  0.2500
  172SAPE  H10Y19463   5.874   5.487   4.203 -0.4519  2.3064  0.7188
  172SAPE  C31119464   5.758   5.350   4.331  0.2993  0.9669 -0.0781
  172SAPE  H11X19465   5.780   5.246   4.302 -1.1699  0.4389  0.6133
  172SAPE  H11Y19466   5.648   5.338   4.339  0.3430 -0.3472 -1.2190
  172SAPE  C31219467   5.810   5.404   4.466  0.2966 -0.2429  0.0941
  172SAPE  H12X19468   5.799   5.335   4.552 -0.4236  0.7363  0.8112
  172SAPE  H12Y19469   5.751   5.495   4.489 -2.9980 -2.5592  1.5883
  172SAPE  C31319470   5.957   5.443   4.453 -0.2613  0.6414 -0.1267
  172SAPE  H13X19471   5.970   5.542   4.404  4.0984 -0.1929 -1.0601
  172SAPE  H13Y19472   6.019   5.370   4.395 -0.1990  0.5980 -0.0047
  172SAPE  C31419473   6.032   5.454   4.591  0.4300 -0.5175 -0.0885
  172SAPE  H14X19474   6.028   5.352   4.635 -1.9613 -0.2518  0.4393
  172SAPE  H14Y19475   5.967   5.515   4.656 -0.6538 -2.6578  0.9338
  172SAPE  C31519476   6.170   5.507   4.596 -0.5388  0.0211  0.1190
  172SAPE  H15X19477   6.185   5.615   4.572  2.4675 -0.5240 -0.9321
  172SAPE  H15Y19478   6.236   5.466   4.516 -3.0573 -0.3548 -1.9300
  172SAPE  C31619479   6.233   5.504   4.739 -0.3835  0.7456  0.0390
  172SAPE  H16X19480   6.174   5.569   4.808  0.7069 -0.0862  1.8331
  172SAPE  H16Y19481   6.331   5.557   4.735 -0.2668  0.4753 -0.7403
  172SAPE  C31719482   6.241   5.369   4.807 -0.1218 -0.6797  0.3556
  172SAPE  H17X19483   6.139   5.336   4.836  0.9099 -3.4782  1.0940
  172SAPE  H17Y19484   6.304   5.375   4.898  1.5412  1.4727 -0.8261
  172SAPE  C31819485   6.291   5.258   4.718 -1.0783  0.1737  0.2096
  172SAPE  H18X19486   6.393   5.281   4.681 -0.5718 -0.1108  1.3606
  172SAPE  H18Y19487   6.226   5.240   4.630 -0.0140  1.3108 -0.8469
  172SAPE  H18Z19488   6.296   5.164   4.778 -1.8936  0.7241  1.1855
  173SLPC     N19489   0.860   5.615   7.280  0.4681  0.4554  0.7222
  173SLPC   C1319490   0.799   5.667   7.401  0.4101 -0.3784  0.0644
  173SLPC  H13A19491   0.850   5.627   7.487 -0.5425 -2.3102 -0.2023
  173SLPC  H13B19492   0.797   5.775   7.405  0.4538 -0.3732 -0.0750
  173SLPC  H13C19493   0.699   5.626   7.409  1.1699 -2.0876  1.4362
  173SLPC   C1419494   0.990   5.678   7.273  0.6096  0.3335 -0.5275
  173SLPC  H14A19495   1.037   5.692   7.370  2.5883  4.2642 -1.8288
  173SLPC  H14B19496   1.061   5.644   7.200  0.0141 -2.1063 -0.0659
  173SLPC  H14C19497   0.965   5.780   7.246  1.3819  0.7798  0.3665
  173SLPC   C1519498   0.764   5.668   7.174  0.0388  0.0774 -0.2703
  173SLPC  H15A19499   0.806   5.659   7.075 -0.6587  0.2284 -0.5789
  173SLPC  H15B19500   0.676   5.606   7.172 -1.4779  2.1081  0.2421
  173SLPC  H15C19501   0.739   5.771   7.194  0.0509 -0.3587  2.3457
  173SLPC   C1219502   0.872   5.462   7.282 -0.5400  0.4572 -0.0456
  173SLPC  H12A19503   0.782   5.416   7.319  1.2464 -1.9304  1.6727
  173SLPC  H12B19504   0.947   5.428   7.352  0.3546 -0.3611 -1.3497
  173SLPC   C1119505   0.883   5.404   7.143 -0.2834  0.1150  0.1940
  173SLPC  H11A19506   0.932   5.304   7.146 -1.5621 -0.5394 -0.0182
  173SLPC  H11B19507   0.949   5.463   7.076 -0.6619  0.7840  0.3922
  173SLPC     P19508   0.660   5.261   7.115 -0.0202  0.6057  0.1172
  173SLPC   O1319509   0.691   5.202   7.242 -0.1263  0.7387 -0.2877
  173SLPC   O1419510   0.522   5.310   7.099  0.2735  0.3232 -0.0084
  173SLPC   O1219511   0.749   5.386   7.087 -0.4734 -0.1311  0.4911
  173SLPC   O1119512   0.702   5.151   7.003 -0.0655  0.2744  0.4464
  173SLPC    C119513   0.805   5.174   6.906  0.1687 -0.4271 -0.2125
  173SLPC    HA19514   0.801   5.280   6.875  1.5417 -0.2670  0.0914
  173SLPC    HB19515   0.904   5.164   6.957  0.4187  0.7228 -0.4447
  173SLPC    C219516   0.803   5.090   6.772 -0.2688 -0.3744 -0.7853
  173SLPC    HS19517   0.872   5.149   6.708  0.8746  0.1133  0.8381
  173SLPC   O2119518   0.676   5.081   6.700  0.5528 -1.3473  0.0655
  173SLPC   C2119519   0.612   5.197   6.680 -0.5434  0.2367  0.2503
  173SLPC   O2219520   0.662   5.306   6.691  0.8640 -0.1862  0.3077
  173SLPC   C2219521   0.476   5.169   6.617 -0.0825  0.1088  0.1648
  173SLPC   H2R19522   0.483   5.076   6.556  2.7629 -2.3258  3.7759
  173SLPC   H2S19523   0.408   5.131   6.696 -2.3802 -1.0836 -2.2615
  173SLPC    C319524   0.858   4.950   6.797 -0.1182 -0.0861 -0.2773
  173SLPC    HX19525   0.821   4.905   6.891 -1.2865 -0.9545 -1.1244
  173SLPC    HY19526   0.967   4.957   6.819 -0.1355  1.7205 -0.6077
  173SLPC   O3119527   0.837   4.874   6.682  0.6180  1.0655  0.3922
  173SLPC   C3119528   0.723   4.801   6.690  0.0389 -0.0129 -0.0298
  173SLPC   O3219529   0.640   4.807   6.780  0.1224 -0.3440 -0.3743
  173SLPC   C3219530   0.706   4.705   6.572 -0.0004  0.1900  0.4344
  173SLPC   H2X19531   0.607   4.656   6.577  0.9266 -1.7225  0.9760
  173SLPC   H2Y19532   0.771   4.618   6.595 -0.0900 -0.8126 -2.5896
  173SLPC   C2319533   0.409   5.297   6.557 -0.5273  0.4075  0.4240
  173SLPC   H3R19534   0.422   5.383   6.627 -0.4209  0.6557  0.0987
  173SLPC   H3S19535   0.300   5.275   6.552 -0.7250  1.5595 -0.8451
  173SLPC   C2419536   0.454   5.315   6.411  0.1659 -0.3449  0.5844
  173SLPC   H4R19537   0.561   5.342   6.402 -0.3752  1.6659 -0.5384
  173SLPC   H4S19538   0.414   5.413   6.376  1.4390  1.2907  3.3980
  173SLPC   C2519539   0.414   5.206   6.310  0.3365 -0.4053 -0.4274
  173SLPC   H5R19540   0.307   5.221   6.285  0.5539  2.5017  0.0803
  173SLPC   H5S19541   0.432   5.104   6.350 -0.6603 -0.0638  0.9885
  173SLPC   C2619542   0.501   5.210   6.184  0.1195 -0.2887  0.2681
  173SLPC   H6R19543   0.603   5.186   6.221 -0.5961 -0.5257  2.1925
  173SLPC   H6S19544   0.494   5.312   6.140 -0.3341 -0.8616 -1.0460
  173SLPC   C2719545   0.459   5.101   6.078 -0.1026  0.1560  0.8912
  173SLPC   H7R19546   0.355   5.125   6.046 -0.5482  1.5816  3.2189
  173SLPC   H7S19547   0.451   5.010   6.140  0.6463 -0.2344  0.4330
  173SLPC   C2819548   0.552   5.075   5.959 -0.1242  0.7181  0.6946
  173SLPC   H8R19549   0.520   4.998   5.886  1.7751  2.1113 -1.7446
  173SLPC   H8S19550   0.655   5.044   5.986 -0.2871 -0.7568 -0.2696
  173SLPC   C2919551   0.553   5.211   5.889  0.5956 -0.3680 -0.7130
  173SLPC   H9R19552   0.607   5.290   5.943  0.6776  0.7033 -2.3122
  173SLPC  C21019553   0.484   5.248   5.781  0.0128  0.1931 -0.4197
  173SLPC  H10R19554   0.481   5.350   5.741 -0.1992  0.2526 -0.2549
  173SLPC  C21119555   0.402   5.153   5.689 -0.1300 -0.0782  0.3518
  173SLPC  H11R19556   0.313   5.210   5.656 -0.0410  0.1956  0.5811
  173SLPC  H11S19557   0.365   5.061   5.738 -0.9915  0.2613  0.3597
  173SLPC  C21219558   0.473   5.098   5.572 -0.1295  0.0913  1.1166
  173SLPC  H12R19559   0.554   5.030   5.603 -1.3701 -1.4975  1.0250
  173SLPC  C21319560   0.447   5.116   5.439  0.0036 -0.5969  0.3361
  173SLPC  H13R19561   0.510   5.073   5.361  1.5382  2.1499 -0.0790
  173SLPC  C21419562   0.347   5.218   5.379 -0.1165 -0.2382  1.1793
  173SLPC  H14R19563   0.293   5.280   5.453  0.3123  0.7586  0.6776
  173SLPC  H14S19564   0.273   5.171   5.311  2.6498 -0.9934 -1.5337
  173SLPC  C21519565   0.411   5.327   5.286  0.4431  0.0942  0.0319
  173SLPC  H15R19566   0.338   5.394   5.237  1.3585  0.4173 -0.9507
  173SLPC  H15S19567   0.462   5.276   5.201  1.2034  0.4162  0.2804
  173SLPC  C21619568   0.517   5.425   5.353  0.2768  0.5881 -0.3008
  173SLPC  H16R19569   0.571   5.370   5.433 -0.6539  0.4584  0.2523
  173SLPC  H16S19570   0.472   5.505   5.416 -1.6759 -2.4639  2.5191
  173SLPC  C21719571   0.617   5.477   5.248  0.3068  0.4973 -1.0199
  173SLPC  H17R19572   0.556   5.512   5.161  0.1007 -1.2565 -1.6288
  173SLPC  H17S19573   0.684   5.396   5.211  0.1488 -0.1228  0.0286
  173SLPC  C21819574   0.706   5.592   5.297 -0.1968  0.5358 -0.0321
  173SLPC  H18R19575   0.646   5.680   5.328  0.4364  0.5831  1.1267
  173SLPC  H18S19576   0.774   5.615   5.213 -0.4446 -0.0679 -0.4042
  173SLPC  H18T19577   0.766   5.573   5.389  0.5952 -0.0242 -0.6572
  173SLPC   C3319578   0.747   4.776   6.439  0.5675  0.4785 -0.5159
  173SLPC   H3X19579   0.839   4.835   6.459  0.4684  0.6053 -0.4365
  173SLPC   H3Y19580   0.665   4.843   6.408 -1.9257 -1.2413  1.8882
  173SLPC   C3419581   0.779   4.684   6.324 -0.0633  0.5089 -0.4109
  173SLPC   H4X19582   0.689   4.619   6.319 -0.4378  1.0834 -1.2545
  173SLPC   H4Y19583   0.873   4.626   6.339  0.0756  0.4329 -1.4791
  173SLPC   C3519584   0.778   4.769   6.194 -0.6762  0.0001 -0.0930
  173SLPC   H5X19585   0.711   4.857   6.206 -0.0033  0.2139  3.0301
  173SLPC   H5Y19586   0.731   4.703   6.118  0.1096 -1.1513  0.3802
  173SLPC   C3619587   0.912   4.806   6.142  0.3810  0.0447  0.1932
  173SLPC   H6X19588   0.974   4.715   6.156  0.1329 -0.0693  0.5902
  173SLPC   H6Y19589   0.965   4.877   6.210  2.0008  0.3074 -1.2840
  173SLPC   C3719590   0.915   4.863   5.998 -0.0333 -0.6235  0.7481
  173SLPC   H7X19591   1.016   4.906   5.983 -0.6666  0.4555 -0.8674
  173SLPC   H7Y19592   0.846   4.949   5.977  1.7083  0.5776 -0.3625
  173SLPC   C3819593   0.888   4.753   5.901 -0.2429 -0.2646  0.1333
  173SLPC   H8X19594   0.789   4.705   5.915  0.6039 -2.2219 -0.2970
  173SLPC   H8Y19595   0.966   4.675   5.911 -1.2173 -1.1206  1.3111
  173SLPC   C3919596   0.904   4.797   5.757 -0.6699  0.1309 -0.0498
  173SLPC   H9X19597   1.006   4.837   5.737  0.0143 -1.2095  0.6648
  173SLPC   H9Y19598   0.830   4.879   5.741  0.6865  1.3952 -0.1344
  173SLPC  C31019599   0.870   4.686   5.655  0.2196  0.5637 -0.0023
  173SLPC  H10X19600   0.769   4.654   5.689 -1.0755  2.5169 -1.7563
  173SLPC  H10Y19601   0.948   4.610   5.675  0.5733  0.9015 -0.0930
  173SLPC  C31119602   0.853   4.733   5.511 -0.0132  0.1808 -0.4929
  173SLPC  H11X19603   0.838   4.843   5.516 -0.0748  0.1253  0.9586
  173SLPC  H11Y19604   0.768   4.680   5.462  0.1127 -0.2893 -0.2157
  173SLPC  C31219605   0.983   4.714   5.431 -0.5135  0.2715  0.5095
  173SLPC  H12X19606   1.066   4.758   5.491 -0.3117  0.0225  0.4144
  173SLPC  H12Y19607   0.981   4.779   5.341  0.6464 -1.7681 -1.0900
  173SLPC  C31319608   1.015   4.573   5.387  0.1569  0.6699 -0.7832
  173SLPC  H13X19609   0.922   4.517   5.360  1.2811 -1.3642 -0.6184
  173SLPC  H13Y19610   1.051   4.520   5.477  0.1202 -1.7377 -2.0957
  173SLPC  C31419611   1.103   4.565   5.265  0.0187  0.5676 -0.4725
  173SLPC  H14X19612   1.186   4.639   5.267  0.6250 -0.1137  0.3046
  173SLPC  H14Y19613   1.053   4.613   5.178  3.1134  0.1213 -2.6702
  173SLPC  C31519614   1.150   4.417   5.233  0.0438 -0.2680  0.6673
  173SLPC  H15X19615   1.221   4.379   5.309  0.0303 -1.4251  0.1310
  173SLPC  H15Y19616   1.210   4.429   5.141 -0.6664  0.2767  0.2599
  173SLPC  C31619617   1.026   4.328   5.215 -0.5628  0.0923  0.2249
  173SLPC  H16X19618   0.944   4.388   5.170  0.1724  0.9955  0.0641
  173SLPC  H16Y19619   0.987   4.279   5.307 -0.9709  0.2001  0.1083
  173SLPC  C31719620   1.054   4.203   5.116 -0.3080  0.6761  0.9041
  173SLPC  H17X19621   1.109   4.126   5.173 -2.2415 -0.2295  1.6289
  173SLPC  H17Y19622   1.133   4.239   5.046 -1.0632  1.3019  0.3453
  173SLPC  C31819623   0.931   4.143   5.052  0.3418 -0.1115  0.3008
  173SLPC  H18X19624   0.890   4.226   4.992  0.2969  0.4142  1.0411
  173SLPC  H18Y19625   0.859   4.125   5.135 -2.7591 -1.0158 -2.3968
  173SLPC  H18Z19626   0.937   4.053   4.988 -0.6641 -2.2145  2.9369
  174SLPC     N19627   3.514   1.057   7.570 -0.0128 -0.1783 -0.0435
  174SLPC   C1319628   3.627   1.154   7.583  0.0610 -0.2019  0.0378
  174SLPC  H13A19629   3.697   1.136   7.502  1.7955 -1.4698  1.7203
  174SLPC  H13B19630   3.590   1.254   7.568  0.4704 -0.2852 -1.8805
  174SLPC  H13C19631   3.670   1.152   7.682 -1.7288  2.3776  0.9844
  174SLPC   C1419632   3.400   1.088   7.666 -0.4301 -0.8050  1.1380
  174SLPC  H14A19633   3.372   1.191   7.650  2.7392  0.1513  1.0783
  174SLPC  H14B19634   3.317   1.021   7.653 -2.6744  1.9330  0.3599
  174SLPC  H14C19635   3.443   1.077   7.764 -0.0769 -1.6104  0.9026
  174SLPC   C1519636   3.575   0.920   7.602 -0.4072  0.0788  0.6311
  174SLPC  H15A19637   3.663   0.908   7.541 -1.8650 -0.7463 -1.4339
  174SLPC  H15B19638   3.597   0.920   7.708 -0.8543  3.2402  0.8171
  174SLPC  H15C19639   3.501   0.847   7.574 -4.2583  3.1452  1.9663
  174SLPC   C1219640   3.454   1.058   7.427 -0.2521  0.2436  0.3609
  174SLPC  H12A19641   3.471   1.161   7.400  0.7874  0.1404  0.5794
  174SLPC  H12B19642   3.348   1.040   7.441 -0.4619  1.6071  0.7250
  174SLPC   C1119643   3.517   0.982   7.313 -0.7009  0.1145 -0.4210
  174SLPC  H11A19644   3.452   1.001   7.225 -0.8694  3.2393  0.2658
  174SLPC  H11B19645   3.509   0.875   7.341  0.4239 -0.5770 -2.5219
  174SLPC     P19646   3.722   1.104   7.184 -0.2327 -0.5085 -0.4607
  174SLPC   O1319647   3.713   1.245   7.219 -0.4729 -0.0253 -0.0541
  174SLPC   O1419648   3.858   1.053   7.159  0.4413 -0.1452 -0.2548
  174SLPC   O1219649   3.654   1.024   7.299  0.4091  0.0970 -0.2866
  174SLPC   O1119650   3.636   1.093   7.056 -0.3538  0.2156 -0.3954
  174SLPC    C119651   3.619   0.965   6.993  0.1796  0.2067  0.3918
  174SLPC    HA19652   3.655   0.883   7.059 -0.1506  0.9011  1.4555
  174SLPC    HB19653   3.511   0.941   6.982  0.1006  0.3880  0.7818
  174SLPC    C219654   3.687   0.970   6.847  0.4593  0.0116  0.4313
  174SLPC    HS19655   3.760   1.053   6.850 -0.6515  1.1001 -1.2617
  174SLPC   O2119656   3.596   1.006   6.740  0.2859  0.0737 -0.3532
  174SLPC   C2119657   3.544   1.125   6.728  0.2476  0.7504  0.6614
  174SLPC   O2219658   3.574   1.228   6.793  0.0568  0.1462  0.3532
  174SLPC   C2219659   3.451   1.142   6.611 -0.2826 -0.3882 -0.2893
  174SLPC   H2R19660   3.516   1.121   6.524 -0.9267 -1.5461 -0.5150
  174SLPC   H2S19661   3.369   1.066   6.610 -0.8206  0.1590  0.6130
  174SLPC    C319662   3.759   0.834   6.824  0.0565 -0.8532 -1.0283
  174SLPC    HX19663   3.683   0.753   6.823  0.0883 -0.9289  0.1515
  174SLPC    HY19664   3.820   0.817   6.916  0.1269 -0.9357 -1.0895
  174SLPC   O3119665   3.820   0.825   6.700 -0.3422  0.0971  0.0241
  174SLPC   C3119666   3.949   0.860   6.699  0.7677  0.1622 -0.5149
  174SLPC   O3219667   4.007   0.917   6.791  0.2000  0.0200  0.2952
  174SLPC   C3219668   4.014   0.841   6.564  0.7079  0.1543 -0.0734
  174SLPC   H2X19669   3.931   0.874   6.498  0.7463  1.1015  0.3445
  174SLPC   H2Y19670   4.026   0.730   6.562  2.4792  0.0912  3.9987
  174SLPC   C2319671   3.419   1.291   6.608 -0.3477 -0.5279 -0.4446
  174SLPC   H3R19672   3.513   1.348   6.600 -1.3949  0.9884 -3.1442
  174SLPC   H3S19673   3.366   1.312   6.703 -1.2559 -1.1871 -0.7851
  174SLPC   C2419674   3.330   1.341   6.489  0.6499 -0.0789  0.1217
  174SLPC   H4R19675   3.299   1.446   6.508  1.4520  0.3029 -0.6122
  174SLPC   H4S19676   3.241   1.275   6.491  1.5181 -1.2827  0.4238
  174SLPC   C2519677   3.401   1.311   6.351 -0.0292  0.7985 -0.4103
  174SLPC   H5R19678   3.407   1.200   6.341  0.8468  0.8163 -0.1876
  174SLPC   H5S19679   3.498   1.362   6.335 -0.4112  1.0936 -1.9246
  174SLPC   C2619680   3.313   1.360   6.241 -0.0528 -0.3367 -0.5592
  174SLPC   H6R19681   3.287   1.466   6.258 -0.7915 -0.7021  0.7148
  174SLPC   H6S19682   3.208   1.324   6.239 -0.2310  0.1266  0.1708
  174SLPC   C2719683   3.382   1.338   6.094  0.5244  0.5616 -0.6044
  174SLPC   H7R19684   3.472   1.403   6.104 -1.1272  2.8953  0.0249
  174SLPC   H7S19685   3.313   1.390   6.025 -1.5542  1.3451  1.8913
  174SLPC   C2819686   3.409   1.193   6.055 -0.0850  0.3053 -0.4692
  174SLPC   H8R19687   3.459   1.132   6.133 -0.5054 -0.3023 -0.6674
  174SLPC   H8S19688   3.478   1.201   5.968 -0.1158 -0.4975 -0.5746
  174SLPC   C2919689   3.286   1.125   6.015  0.1408  0.2005  0.2703
  174SLPC   H9R19690   3.231   1.081   6.100  1.7078 -0.7956  0.8080
  174SLPC  C21019691   3.242   1.093   5.887 -0.2794  0.2130 -0.0292
  174SLPC  H10R19692   3.158   1.022   5.882 -0.4959  0.3582  1.3177
  174SLPC  C21119693   3.315   1.118   5.762  0.0074 -0.1671 -0.0683
  174SLPC  H11R19694   3.362   1.024   5.728  0.1099  0.2738 -1.1924
  174SLPC  H11S19695   3.396   1.194   5.770  0.7071 -0.8651 -0.4699
  174SLPC  C21219696   3.214   1.170   5.660 -1.3384  0.3950  0.3795
  174SLPC  H12R19697   3.174   1.272   5.665 -2.1402  0.1344 -0.2770
  174SLPC  C21319698   3.171   1.102   5.554 -0.3566  0.7006  0.7368
  174SLPC  H13R19699   3.100   1.138   5.478  1.9341  0.9448 -1.4475
  174SLPC  C21419700   3.215   0.963   5.496 -0.0794 -0.7320  0.7783
  174SLPC  H14R19701   3.135   0.907   5.443  0.0741  2.1163 -2.8368
  174SLPC  H14S19702   3.262   0.904   5.577 -0.6481 -1.4001  0.6324
  174SLPC  C21519703   3.316   1.007   5.386 -0.5743 -0.2219  0.0869
  174SLPC  H15R19704   3.367   0.915   5.349  2.4218  0.9580  0.9218
  174SLPC  H15S19705   3.398   1.072   5.426 -0.6427 -0.7386  1.1101
  174SLPC  C21619706   3.256   1.076   5.261 -0.2601 -0.7891  0.0001
  174SLPC  H16R19707   3.346   1.084   5.196 -0.3715 -2.2027 -0.3612
  174SLPC  H16S19708   3.235   1.183   5.279  0.6344 -0.9679  2.5847
  174SLPC  C21719709   3.156   0.992   5.180  0.0402  0.1508  0.2586
  174SLPC  H17R19710   3.144   1.055   5.089 -1.4872 -0.5578 -0.0637
  174SLPC  H17S19711   3.055   0.984   5.227  0.9852 -0.0351  2.3612
  174SLPC  C21819712   3.215   0.855   5.140  0.1538 -0.1885 -0.3814
  174SLPC  H18R19713   3.324   0.868   5.128 -0.0471  1.2501 -0.8341
  174SLPC  H18S19714   3.173   0.803   5.052  0.7111 -0.5123 -0.4611
  174SLPC  H18T19715   3.204   0.789   5.230 -0.7501  0.4856  0.0201
  174SLPC   C3319716   4.143   0.923   6.522  0.8884  0.3625 -0.0226
  174SLPC   H3X19717   4.224   0.918   6.598 -0.4427 -3.7004  1.4072
  174SLPC   H3Y19718   4.113   1.027   6.495 -0.2428 -0.0207 -0.2886
  174SLPC   C3419719   4.235   0.867   6.407 -0.6857  0.4892 -0.0474
  174SLPC   H4X19720   4.290   0.778   6.444  1.6229  0.9176 -2.1822
  174SLPC   H4Y19721   4.306   0.942   6.367  0.6295 -0.1807  0.9645
  174SLPC   C3519722   4.164   0.801   6.287  1.2471 -0.5341 -1.4232
  174SLPC   H5X19723   4.102   0.713   6.315  1.1988 -0.6008 -1.7363
  174SLPC   H5Y19724   4.238   0.756   6.218  2.7141  1.0616 -0.9519
  174SLPC   C3619725   4.070   0.899   6.214  0.6502 -0.0789 -0.4856
  174SLPC   H6X19726   4.119   0.997   6.194 -0.3258  0.4626 -0.2850
  174SLPC   H6Y19727   3.988   0.915   6.288 -0.0760 -0.6905 -1.1439
  174SLPC   C3719728   4.020   0.847   6.085 -0.1454  0.4507  0.4365
  174SLPC   H7X19729   3.953   0.760   6.095 -0.8662  0.7137 -1.6054
  174SLPC   H7Y19730   4.099   0.806   6.018 -1.4585  0.1107 -0.9488
  174SLPC   C3819731   3.950   0.958   5.999  0.7493 -0.2249  0.0357
  174SLPC   H8X19732   4.017   1.046   5.986 -0.0508  0.1222 -2.2853
  174SLPC   H8Y19733   3.857   0.989   6.051  0.1770 -0.6152 -0.7253
  174SLPC   C3919734   3.880   0.902   5.869 -0.2280 -1.0919  0.1488
  174SLPC   H9X19735   3.789   0.840   5.883 -1.8855  0.8572 -1.4087
  174SLPC   H9Y19736   3.964   0.840   5.830  0.4628 -0.0449 -0.0448
  174SLPC  C31019737   3.852   1.013   5.770 -0.1559  0.3753  0.1538
  174SLPC  H10X19738   3.947   1.066   5.747 -0.5866  0.5232 -1.3895
  174SLPC  H10Y19739   3.781   1.088   5.809 -0.4766 -0.9874  2.3535
  174SLPC  C31119740   3.795   0.971   5.634  0.5442  0.6128  0.4447
  174SLPC  H11X19741   3.735   1.056   5.595  0.2906  0.4918  0.5695
  174SLPC  H11Y19742   3.723   0.890   5.657 -0.0204  0.3365 -2.0632
  174SLPC  C31219743   3.905   0.919   5.542 -0.3519  0.4779  0.6933
  174SLPC  H12X19744   3.962   0.833   5.583 -0.3938  0.4491  0.6910
  174SLPC  H12Y19745   3.972   1.008   5.539 -0.6483  0.6884  0.0784
  174SLPC  C31319746   3.867   0.891   5.398 -0.2915 -0.2668 -1.2053
  174SLPC  H13X19747   3.872   0.985   5.340  0.4755  0.2031 -0.4093
  174SLPC  H13Y19748   3.762   0.856   5.404 -0.1080 -0.6664  0.1352
  174SLPC  C31419749   3.951   0.785   5.325  0.3340 -0.4145  0.4030
  174SLPC  H14X19750   3.927   0.683   5.363 -1.0097 -1.0520 -1.9846
  174SLPC  H14Y19751   4.061   0.791   5.337  0.3025 -1.1909  1.2364
  174SLPC  C31519752   3.916   0.789   5.178  0.3832  0.6463 -0.5708
  174SLPC  H15X19753   4.001   0.735   5.130 -0.4879  0.3466 -1.8347
  174SLPC  H15Y19754   3.926   0.892   5.137  1.0209  0.2813 -1.3682
  174SLPC  C31619755   3.774   0.731   5.143 -0.7743 -0.4494 -0.2948
  174SLPC  H16X19756   3.694   0.794   5.188  0.6627 -0.0184  1.7783
  174SLPC  H16Y19757   3.762   0.638   5.202 -0.6221 -0.1922  0.1385
  174SLPC  C31719758   3.764   0.702   4.991  0.1670  0.0892 -0.0673
  174SLPC  H17X19759   3.824   0.614   4.959 -1.4805 -0.7373 -1.0391
  174SLPC  H17Y19760   3.810   0.793   4.948  0.9387  0.8182  2.1835
  174SLPC  C31819761   3.615   0.696   4.944  0.4720 -0.0540  0.5210
  174SLPC  H18X19762   3.616   0.678   4.834 -2.3552 -1.5976  0.6638
  174SLPC  H18Y19763   3.556   0.789   4.962 -1.1881 -0.9497 -0.0347
  174SLPC  H18Z19764   3.557   0.615   4.993  0.3760 -0.4326 -0.2044
  175SLPC     N19765   6.715   4.297   7.239  0.0208  0.1816  0.3079
  175SLPC   C1319766   6.594   4.357   7.171  0.1448  0.2707 -0.2042
  175SLPC  H13A19767   6.507   4.297   7.194 -0.1283 -1.2469 -4.3746
  175SLPC  H13B19768   6.582   4.456   7.211  0.3357 -0.4516  1.7972
  175SLPC  H13C19769   6.597   4.357   7.063  2.5063  0.7564 -0.1906
  175SLPC   C1419770   6.692   4.310   7.383  0.0675 -0.1130 -0.4567
  175SLPC  H14A19771   6.604   4.252   7.408  1.3802 -1.6362  0.8070
  175SLPC  H14B19772   6.774   4.283   7.447  2.1982  2.7422 -1.7420
  175SLPC  H14C19773   6.678   4.412   7.418  1.1707 -0.0996 -0.0061
  175SLPC   C1519774   6.834   4.383   7.212  0.3955 -0.1880  0.2108
  175SLPC  H15A19775   6.843   4.407   7.107 -2.1339 -0.6509 -0.1842
  175SLPC  H15B19776   6.810   4.477   7.259 -2.5281 -1.0521  0.6194
  175SLPC  H15C19777   6.927   4.337   7.243  0.6015 -0.2019 -0.4033
  175SLPC   C1219778   6.734   4.152   7.206  0.8641 -0.6659 -0.8739
  175SLPC  H12A19779   6.644   4.097   7.231  0.2122  0.2107 -1.2332
  175SLPC  H12B19780   6.809   4.110   7.271 -0.7787 -0.4486  1.2892
  175SLPC   C1119781   6.769   4.121   7.055 -0.6851 -0.1124  0.6895
  175SLPC  H11A19782   6.807   4.016   7.053 -0.2227  0.0614 -0.0400
  175SLPC  H11B19783   6.847   4.193   7.022 -1.7832  1.1049  0.6944
  175SLPC     P19784   6.522   4.058   6.969  0.7046 -0.3583  0.0217
  175SLPC   O1319785   6.519   3.968   7.088 -0.2190  0.3252  0.2485
  175SLPC   O1419786   6.415   4.162   6.967  0.1110 -0.0232  0.3688
  175SLPC   O1219787   6.659   4.143   6.968  0.2260  0.7467 -0.1996
  175SLPC   O1119788   6.550   3.989   6.831 -0.4315  0.3966 -0.2338
  175SLPC    C119789   6.459   3.969   6.724 -0.0210 -0.6504 -0.3715
  175SLPC    HA19790   6.486   3.873   6.676 -1.2213 -1.7183  1.0046
  175SLPC    HB19791   6.354   3.964   6.759 -0.7290  1.0281 -2.0759
  175SLPC    C219792   6.481   4.090   6.630  0.3644  0.1720  0.7695
  175SLPC    HS19793   6.424   4.176   6.672  0.6739  0.5829  0.3574
  175SLPC   O2119794   6.444   4.049   6.493 -0.0220 -0.3560  0.1123
  175SLPC   C2119795   6.316   4.042   6.472  0.0664  0.3248  0.5892
  175SLPC   O2219796   6.230   4.059   6.558 -0.5414  0.2206 -0.0738
  175SLPC   C2219797   6.296   4.004   6.322 -0.1647  0.1565 -0.1122
  175SLPC   H2R19798   6.304   4.101   6.267 -0.9284 -0.6593 -1.7542
  175SLPC   H2S19799   6.371   3.928   6.293 -1.1808 -1.4434  1.3024
  175SLPC    C319800   6.627   4.153   6.600  0.6086  0.1250  0.1988
  175SLPC    HX19801   6.688   4.063   6.575 -0.1570 -0.6623  1.0986
  175SLPC    HY19802   6.657   4.210   6.690  0.5971  2.7435 -1.3636
  175SLPC   O3119803   6.618   4.242   6.488 -0.2198  0.1626 -0.4962
  175SLPC   C3119804   6.583   4.362   6.519 -0.1839 -0.0879 -0.2705
  175SLPC   O3219805   6.541   4.397   6.630  0.7085  0.0462  0.5957
  175SLPC   C3219806   6.568   4.453   6.407 -0.3314  0.1446 -0.0512
  175SLPC   H2X19807   6.666   4.500   6.385 -0.5794  1.9136  2.2868
  175SLPC   H2Y19808   6.496   4.533   6.436 -1.4437 -1.0382  0.5500
  175SLPC   C2319809   6.151   3.953   6.283 -0.0979 -0.2536 -0.2849
  175SLPC   H3R19810   6.066   3.980   6.350  0.5020 -1.0968  0.8671
  175SLPC   H3S19811   6.138   3.843   6.290 -0.5433 -0.3742 -2.5288
  175SLPC   C2419812   6.108   4.005   6.142 -0.3753  0.3433  0.1004
  175SLPC   H4R19813   6.087   4.112   6.160  1.4193  0.5085  1.5342
  175SLPC   H4S19814   6.018   3.944   6.117 -0.4168  0.6094 -0.4229
  175SLPC   C2519815   6.209   3.976   6.033  0.5415  0.1054  0.0189
  175SLPC   H5R19816   6.198   3.866   6.022  1.0004 -0.0192  0.7162
  175SLPC   H5S19817   6.314   3.992   6.068  0.7386 -0.7027 -0.1841
  175SLPC   C2619818   6.191   4.051   5.907 -0.7091  0.6917 -0.3767
  175SLPC   H6R19819   6.222   4.158   5.903  2.6017 -0.1727 -1.5247
  175SLPC   H6S19820   6.082   4.049   5.888 -1.0097  1.6116  1.0867
  175SLPC   C2719821   6.275   3.988   5.793  0.3912 -0.8113  0.1451
  175SLPC   H7R19822   6.234   3.889   5.767  1.0499 -0.5431 -2.1184
  175SLPC   H7S19823   6.383   3.974   5.815  0.0989 -2.2508  0.7060
  175SLPC   C2819824   6.261   4.084   5.669  0.1089  0.1970 -0.1689
  175SLPC   H8R19825   6.253   4.190   5.701 -0.9797  0.4502 -1.2123
  175SLPC   H8S19826   6.164   4.060   5.620  0.1544  1.2236 -0.7921
  175SLPC   C2919827   6.378   4.064   5.580  0.2143 -0.0782  0.4438
  175SLPC   H9R19828   6.472   4.092   5.629 -0.0008 -0.1817  0.9142
  175SLPC  C21019829   6.375   4.049   5.444  0.0346  0.4375  0.3517
  175SLPC  H10R19830   6.473   4.019   5.404  0.3168  0.9790  0.6332
  175SLPC  C21119831   6.265   4.028   5.343 -0.1074 -0.7757 -0.1863
  175SLPC  H11R19832   6.168   4.021   5.397 -1.1827 -0.4892 -2.0219
  175SLPC  H11S19833   6.281   3.929   5.294  0.5874 -0.6007 -0.3342
  175SLPC  C21219834   6.256   4.132   5.233 -0.2622 -0.0196  0.2264
  175SLPC  H12R19835   6.186   4.213   5.259 -0.9351 -0.9867  1.6208
  175SLPC  C21319836   6.323   4.144   5.118  0.0653  0.2008 -0.2321
  175SLPC  H13R19837   6.302   4.222   5.043  1.1656 -0.2889 -1.0771
  175SLPC  C21419838   6.424   4.038   5.072  0.3968  0.1747 -0.2938
  175SLPC  H14R19839   6.425   3.949   5.137 -1.4563  0.2490 -0.1112
  175SLPC  H14S19840   6.526   4.083   5.071  1.2724 -1.6634  0.9536
  175SLPC  C21519841   6.394   4.003   4.924 -0.0171  0.1321 -0.3064
  175SLPC  H15R19842   6.285   4.000   4.904 -0.1056 -0.8136  0.2281
  175SLPC  H15S19843   6.426   3.898   4.906 -2.9159 -1.0190  0.6196
  175SLPC  C21619844   6.448   4.102   4.823  0.1666 -0.3246  0.7576
  175SLPC  H16R19845   6.558   4.084   4.815 -0.1223 -1.9626  0.0522
  175SLPC  H16S19846   6.429   4.207   4.855 -0.7694 -0.4071  0.4788
  175SLPC  C21719847   6.396   4.087   4.679  0.5913  0.4268 -0.4030
  175SLPC  H17R19848   6.285   4.099   4.678  0.6202  0.6511 -1.1175
  175SLPC  H17S19849   6.419   3.981   4.652  1.0927  0.5607 -0.5051
  175SLPC  C21819850   6.470   4.189   4.590 -0.2173  0.0750  0.6835
  175SLPC  H18R19851   6.439   4.294   4.612 -1.0495  0.5484 -2.3095
  175SLPC  H18S19852   6.437   4.170   4.486 -0.3351 -1.0092  0.9062
  175SLPC  H18T19853   6.581   4.180   4.592 -0.1070  1.0639  0.0650
  175SLPC   C3319854   6.507   4.382   6.280  0.7323  0.1214 -0.5255
  175SLPC   H3X19855   6.398   4.362   6.284  0.8482 -0.3509  0.6912
  175SLPC   H3Y19856   6.548   4.280   6.266 -1.0971 -0.7988  0.4217
  175SLPC   C3419857   6.528   4.473   6.154  0.5811  0.5621 -0.2773
  175SLPC   H4X19858   6.637   4.494   6.156  0.3890  1.5911  0.8121
  175SLPC   H4Y19859   6.489   4.578   6.157  1.2401  0.8121 -0.2416
  175SLPC   C3519860   6.492   4.403   6.019  0.0384  0.0508 -0.3154
  175SLPC   H5X19861   6.381   4.401   6.018 -0.0620  2.6334 -1.0511
  175SLPC   H5Y19862   6.536   4.301   6.020  0.1829  0.1103  0.7799
  175SLPC   C3619863   6.541   4.477   5.898  0.0223 -0.4095 -0.0716
  175SLPC   H6X19864   6.652   4.476   5.894  0.0394 -2.1903 -0.2282
  175SLPC   H6Y19865   6.503   4.581   5.901  3.1463  0.7994  2.4126
  175SLPC   C3719866   6.493   4.408   5.766 -0.4198 -0.2295  0.4605
  175SLPC   H7X19867   6.392   4.363   5.774  0.4519 -2.0561  1.9352
  175SLPC   H7Y19868   6.560   4.324   5.738 -0.6579 -1.1671  2.4784
  175SLPC   C3819869   6.503   4.505   5.643 -0.3184  0.1067  0.0098
  175SLPC   H8X19870   6.603   4.554   5.635  0.5620 -1.6437 -0.2764
  175SLPC   H8Y19871   6.426   4.585   5.642 -1.5141 -0.9944 -2.1893
  175SLPC   C3919872   6.479   4.428   5.509  0.1709  0.2893 -0.4674
  175SLPC   H9X19873   6.372   4.404   5.488  0.4026  1.0216 -2.7104
  175SLPC   H9Y19874   6.530   4.330   5.511 -0.3409  0.0025 -1.1847
  175SLPC  C31019875   6.505   4.511   5.383  0.3742  0.5059 -0.7834
  175SLPC  H10X19876   6.609   4.550   5.377  0.3320  0.7411 -0.1281
  175SLPC  H10Y19877   6.446   4.605   5.383  1.4729  1.2398  0.4269
  175SLPC  C31119878   6.485   4.433   5.256 -0.5772 -0.1378 -0.1478
  175SLPC  H11X19879   6.383   4.390   5.246 -1.2193  0.5857  2.5090
  175SLPC  H11Y19880   6.547   4.341   5.250  0.0145  0.3478 -3.0569
  175SLPC  C31219881   6.523   4.509   5.131 -0.5533  0.2552 -0.0949
  175SLPC  H12X19882   6.586   4.600   5.144 -1.7450  0.7983  2.7946
  175SLPC  H12Y19883   6.421   4.544   5.102 -0.4158  1.0666  0.3622
  175SLPC  C31319884   6.570   4.412   5.018  0.0149  0.2080 -0.2435
  175SLPC  H13X19885   6.493   4.335   5.002  2.2769 -2.5626  1.3399
  175SLPC  H13Y19886   6.656   4.358   5.064 -0.2826  0.7517  0.9962
  175SLPC  C31419887   6.620   4.479   4.892  0.6963 -0.2606 -0.8127
  175SLPC  H14X19888   6.654   4.583   4.915 -0.0272 -0.4306  1.2687
  175SLPC  H14Y19889   6.533   4.481   4.823  1.7351  2.1175 -2.1972
  175SLPC  C31519890   6.731   4.405   4.810  0.5347 -0.5453  0.8315
  175SLPC  H15X19891   6.675   4.319   4.767 -1.0820  1.6318 -1.7505
  175SLPC  H15Y19892   6.814   4.362   4.870  0.8167  1.3920  1.8824
  175SLPC  C31619893   6.784   4.484   4.695 -0.4856 -0.3694 -0.1541
  175SLPC  H16X19894   6.846   4.416   4.631  0.7243  1.9309 -1.5477
  175SLPC  H16Y19895   6.855   4.563   4.726 -2.1316  0.9138  0.4795
  175SLPC  C31719896   6.677   4.548   4.612 -0.0477  0.6907 -0.2261
  175SLPC  H17X19897   6.619   4.628   4.662  0.1092  0.6202  0.0790
  175SLPC  H17Y19898   6.599   4.470   4.599  1.9377 -1.6393  0.9947
  175SLPC  C31819899   6.719   4.596   4.479  0.0331 -0.1915  1.0793
  175SLPC  H18X19900   6.811   4.658   4.488 -0.5502  0.4826  2.7893
  175SLPC  H18Y19901   6.639   4.662   4.440  0.6422  0.5860  1.1256
  175SLPC  H18Z19902   6.738   4.517   4.403  0.6140  0.9673 -0.0259
  176SLPC     N19903   6.108   3.411   6.952  0.2490  0.9033  0.2897
  176SLPC   C1319904   6.081   3.507   7.062 -0.6726 -0.0369  0.1039
  176SLPC  H13A19905   6.144   3.594   7.057  0.4265 -0.8443 -0.7641
  176SLPC  H13B19906   5.977   3.530   7.079 -0.5413 -0.1505  1.1651
  176SLPC  H13C19907   6.097   3.459   7.157 -0.3723  0.1796  0.1639
  176SLPC   C1419908   6.251   3.366   6.954  0.4349 -0.0031  0.5417
  176SLPC  H14A19909   6.281   3.303   6.872 -2.8573  1.2743 -1.8682
  176SLPC  H14B19910   6.308   3.456   6.939 -1.7671  1.4641  0.4820
  176SLPC  H14C19911   6.283   3.315   7.043  3.5593 -0.4757 -0.7367
  176SLPC   C1519912   6.094   3.498   6.827  0.2360 -0.0082  0.1914
  176SLPC  H15A19913   5.991   3.524   6.811  0.5992  2.1942  1.1928
  176SLPC  H15B19914   6.148   3.591   6.838 -0.1219  0.2655 -0.3135
  176SLPC  H15C19915   6.126   3.445   6.738  2.3748  1.7888 -0.1917
  176SLPC   C1219916   6.009   3.295   6.960 -0.5119  0.0255  0.3144
  176SLPC  H12A19917   6.033   3.230   6.877  0.0238 -1.8761  1.8784
  176SLPC  H12B19918   5.910   3.334   6.939 -0.3012  1.7180  2.1335
  176SLPC   C1119919   5.997   3.217   7.091 -0.6377 -0.2963 -0.5729
  176SLPC  H11A19920   5.911   3.147   7.089  0.2020 -1.4353  0.9985
  176SLPC  H11B19921   5.974   3.291   7.170 -2.3026 -1.8637  0.4923
  176SLPC     P19922   6.163   3.016   7.057 -0.6025  0.2058  0.0886
  176SLPC   O1319923   6.303   3.023   7.006 -0.7561 -0.0604  0.0498
  176SLPC   O1419924   6.123   2.906   7.147 -0.1470 -0.2412 -0.7136
  176SLPC   O1219925   6.123   3.149   7.121  0.0095 -0.1216 -0.4040
  176SLPC   O1119926   6.067   3.023   6.930 -0.1600  0.0158 -0.4139
  176SLPC    C119927   6.085   2.936   6.818 -0.4962 -0.7271 -0.2658
  176SLPC    HA19928   6.159   2.983   6.750 -1.5396 -1.8575 -2.2526
  176SLPC    HB19929   6.136   2.843   6.850 -0.6995 -0.4734  0.8362
  176SLPC    C219930   5.950   2.902   6.752  0.1575 -0.3026 -0.3793
  176SLPC    HS19931   5.963   2.814   6.686  0.1690 -1.8729  1.6070
  176SLPC   O2119932   5.889   3.015   6.684 -0.1764 -0.2980 -0.3604
  176SLPC   C2119933   5.961   3.044   6.576 -0.8871  0.8047  0.0839
  176SLPC   O2219934   6.047   2.969   6.532  0.1218  0.2215  0.3392
  176SLPC   C2219935   5.906   3.176   6.520 -0.0262  0.4121 -1.0330
  176SLPC   H2R19936   5.804   3.170   6.477  0.6368  0.2774 -2.6725
  176SLPC   H2S19937   5.918   3.242   6.608 -0.7407 -0.6412 -0.1180
  176SLPC    C319938   5.845   2.858   6.860  0.6737 -0.4643  0.2601
  176SLPC    HX19939   5.851   2.936   6.939  2.1795  0.3178 -0.5750
  176SLPC    HY19940   5.882   2.767   6.912 -1.9570 -2.5616 -1.2979
  176SLPC   O3119941   5.714   2.837   6.807  1.0123  0.8752 -0.6232
  176SLPC   C3119942   5.689   2.724   6.745 -0.6484 -0.0622  0.3462
  176SLPC   O3219943   5.766   2.632   6.735 -0.4000 -0.1733 -0.3625
  176SLPC   C3219944   5.548   2.727   6.684  0.5256  0.4721  0.4607
  176SLPC   H2X19945   5.502   2.826   6.706  0.7838  0.1780  2.5099
  176SLPC   H2Y19946   5.493   2.650   6.741  0.0553  0.7398  0.3764
  176SLPC   C2319947   5.991   3.235   6.406 -0.8480 -0.5568 -0.6676
  176SLPC   H3R19948   6.102   3.224   6.412 -0.5440  1.7197 -1.2950
  176SLPC   H3S19949   5.969   3.343   6.413 -1.9059 -0.8286  0.5555
  176SLPC   C2419950   5.947   3.176   6.271  0.1196  0.2244 -0.9872
  176SLPC   H4R19951   5.836   3.188   6.266  0.2637  3.5250  1.0229
  176SLPC   H4S19952   5.970   3.067   6.269  2.9575  0.6792  1.0531
  176SLPC   C2519953   6.021   3.237   6.153  0.1622  0.2779 -0.8515
  176SLPC   H5R19954   6.130   3.229   6.172  0.2903  0.8040 -1.3485
  176SLPC   H5S19955   5.991   3.344   6.151 -0.3259  0.2013  0.8702
  176SLPC   C2619956   5.989   3.163   6.023  0.2035  0.2051 -0.6422
  176SLPC   H6R19957   5.884   3.128   6.013  0.1072  0.7826 -1.8216
  176SLPC   H6S19958   6.051   3.071   6.026  1.2429  0.9011 -0.0988
  176SLPC   C2719959   6.017   3.249   5.903  0.3059 -0.8127  0.4982
  176SLPC   H7R19960   6.116   3.297   5.914 -0.3564  0.3745  1.4612
  176SLPC   H7S19961   5.936   3.325   5.900  0.3087 -0.7884  0.9275
  176SLPC   C2819962   6.038   3.170   5.773  0.7600 -0.4874  0.1067
  176SLPC   H8R19963   6.023   3.238   5.687  1.3367 -0.3399  0.1136
  176SLPC   H8S19964   5.952   3.100   5.764 -1.2324  1.7109  1.0977
  176SLPC   C2919965   6.173   3.093   5.766  0.1983  0.4180  0.7242
  176SLPC   H9R19966   6.214   3.051   5.859  0.8728 -0.7444 -0.0696
  176SLPC  C21019967   6.240   3.080   5.653  0.1141 -0.5011  0.0329
  176SLPC  H10R19968   6.315   3.000   5.659 -0.4327 -0.9383  1.7573
  176SLPC  C21119969   6.194   3.127   5.515 -0.7129 -0.7167 -0.8712
  176SLPC  H11R19970   6.194   3.238   5.505 -0.6670 -0.6809 -0.4902
  176SLPC  H11S19971   6.088   3.101   5.495 -1.1464  0.8376 -0.7721
  176SLPC  C21219972   6.282   3.071   5.403 -0.2655 -0.0948 -0.8177
  176SLPC  H12R19973   6.374   3.025   5.441 -0.1760  0.6477 -0.0924
  176SLPC  C21319974   6.247   3.047   5.277 -0.4912 -0.6256  0.3103
  176SLPC  H13R19975   6.328   3.026   5.205 -1.0317 -0.2212 -0.4365
  176SLPC  C21419976   6.114   3.067   5.209 -0.2667  0.4915 -0.0978
  176SLPC  H14R19977   6.033   3.053   5.284  2.1141 -0.8288  2.3792
  176SLPC  H14S19978   6.103   2.976   5.146  2.0114 -0.4680  0.7914
  176SLPC  C21519979   6.101   3.191   5.127  0.5620  0.2308 -0.6737
  176SLPC  H15R19980   6.113   3.279   5.193  0.5201  0.4848 -1.0021
  176SLPC  H15S19981   6.002   3.199   5.077 -0.0216  0.1864  0.4463
  176SLPC  C21619982   6.206   3.206   5.023 -0.9123  0.6253  0.4138
  176SLPC  H16R19983   6.195   3.130   4.943 -0.6434  0.9502  0.0640
  176SLPC  H16S19984   6.303   3.178   5.070 -2.3308 -0.8727  2.6731
  176SLPC  C21719985   6.218   3.346   4.956  0.9784 -0.4008 -0.3753
  176SLPC  H17R19986   6.295   3.348   4.876 -0.0710 -1.0839 -1.4344
  176SLPC  H17S19987   6.259   3.410   5.037 -0.7138 -0.9295  0.9547
  176SLPC  C21819988   6.088   3.392   4.898  0.4944 -0.0013  0.6187
  176SLPC  H18R19989   6.062   3.336   4.806  1.4621 -2.1682  1.5763
  176SLPC  H18S19990   6.102   3.497   4.863  2.9966 -0.5275 -0.1590
  176SLPC  H18T19991   6.003   3.398   4.969 -0.7639 -0.6776 -0.8024
  176SLPC   C3319992   5.548   2.697   6.529  0.3544 -0.2711  0.1995
  176SLPC   H3X19993   5.443   2.678   6.496 -0.0573  4.3247 -1.9127
  176SLPC   H3Y19994   5.613   2.608   6.515 -1.1990 -1.1752 -1.6414
  176SLPC   C3419995   5.597   2.813   6.446 -0.1353  0.1095 -0.1896
  176SLPC   H4X19996   5.706   2.830   6.464 -0.2578  2.3917 -1.2346
  176SLPC   H4Y19997   5.538   2.899   6.486 -0.4852  0.3861 -1.2676
  176SLPC   C3519998   5.585   2.792   6.295  0.0042  0.3855  0.0741
  176SLPC   H5X19999   5.480   2.765   6.268 -0.0946  0.7598  0.0874
  176SLPC   H5Y20000   5.647   2.704   6.267 -2.1052 -1.1857  0.0312
  176SLPC   C3620001   5.636   2.915   6.213  0.6403 -0.3821  0.4687
  176SLPC   H6X20002   5.727   2.950   6.267  0.8076 -1.6998  1.0867
  176SLPC   H6Y20003   5.567   2.998   6.240 -0.3895 -1.4843  1.3758
  176SLPC   C3720004   5.658   2.888   6.061 -0.2060 -0.6073 -0.0371
  176SLPC   H7X20005   5.675   2.991   6.021 -0.6016 -0.5399 -0.0348
  176SLPC   H7Y20006   5.561   2.849   6.023 -0.3885 -1.5134  1.2658
  176SLPC   C3820007   5.771   2.793   6.027  0.3696  0.5039  0.3053
  176SLPC   H8X20008   5.746   2.691   6.064  1.7801 -0.3897 -1.1026
  176SLPC   H8Y20009   5.861   2.818   6.087 -0.0585  2.3565  0.2481
  176SLPC   C3920010   5.822   2.787   5.879  0.6845  0.5410  0.4487
  176SLPC   H9X20011   5.901   2.710   5.867 -0.1468  0.0123 -2.5109
  176SLPC   H9Y20012   5.858   2.888   5.849  0.1033 -0.3022 -3.5642
  176SLPC  C31020013   5.700   2.760   5.787  0.5348  0.0438 -0.3813
  176SLPC  H10X20014   5.639   2.853   5.775 -0.1379 -0.4227 -0.6262
  176SLPC  H10Y20015   5.642   2.678   5.834 -0.8101 -0.7054 -3.1083
  176SLPC  C31120016   5.745   2.719   5.646  0.2629 -0.3559 -0.2194
  176SLPC  H11X20017   5.664   2.657   5.601  0.7417 -0.0414 -1.5644
  176SLPC  H11Y20018   5.834   2.653   5.654  0.3625 -0.2168 -0.1937
  176SLPC  C31220019   5.770   2.829   5.541 -0.1690  0.2670  0.1169
  176SLPC  H12X20020   5.870   2.875   5.554 -0.8031  1.5983  0.5078
  176SLPC  H12Y20021   5.696   2.911   5.555 -0.2505  0.7878 -2.8515
  176SLPC  C31320022   5.765   2.767   5.399  0.6953  0.6092  0.6635
  176SLPC  H13X20023   5.678   2.702   5.376  1.9603 -0.5180 -1.2558
  176SLPC  H13Y20024   5.857   2.706   5.388  0.0258 -0.1139 -1.2679
  176SLPC  C31420025   5.776   2.876   5.291  0.8523 -0.7274 -1.1505
  176SLPC  H14X20026   5.823   2.969   5.330  0.4670  0.0197 -2.4022
  176SLPC  H14Y20027   5.670   2.904   5.274 -0.3099 -4.2598 -0.5104
  176SLPC  C31520028   5.836   2.839   5.153 -0.3895 -0.0187 -0.2714
  176SLPC  H15X20029   5.807   2.738   5.119 -0.0544 -0.1720 -0.1068
  176SLPC  H15Y20030   5.947   2.833   5.154 -0.2939  1.2374 -0.7798
  176SLPC  C31620031   5.811   2.942   5.047 -0.4175 -0.0314 -0.2174
  176SLPC  H16X20032   5.858   3.037   5.082 -0.0937 -0.5277  0.7358
  176SLPC  H16Y20033   5.702   2.955   5.032 -0.4001  1.7846  0.9419
  176SLPC  C31720034   5.864   2.898   4.907  0.4202 -0.7813  0.1892
  176SLPC  H17X20035   5.823   2.800   4.873 -2.4016  0.7260 -1.1490
  176SLPC  H17Y20036   5.975   2.894   4.916  0.5945 -0.0833 -1.3462
  176SLPC  C31820037   5.835   2.998   4.801  0.6164  0.6197  0.0908
  176SLPC  H18X20038   5.873   3.100   4.825 -1.2239  0.8804  2.1045
  176SLPC  H18Y20039   5.724   3.007   4.800  0.5645 -0.0078 -0.4178
  176SLPC  H18Z20040   5.872   2.966   4.701  2.0389  3.8795 -0.5726
  177SLPC     N20041   1.865   2.177   7.242 -0.2438  0.2154 -0.2259
  177SLPC   C1320042   1.980   2.122   7.322  0.0362  0.4966  0.0388
  177SLPC  H13A20043   2.033   2.051   7.260  2.2509 -0.0495  2.4300
  177SLPC  H13B20044   2.046   2.206   7.336 -2.0537  2.2472 -0.0179
  177SLPC  H13C20045   1.942   2.090   7.417 -1.6042  1.4482 -0.2422
  177SLPC   C1420046   1.810   2.289   7.329 -0.8015  0.3046 -0.2556
  177SLPC  H14A20047   1.895   2.351   7.357 -1.0960 -0.1596  1.8138
  177SLPC  H14B20048   1.726   2.335   7.279 -0.8317 -1.0331 -1.5164
  177SLPC  H14C20049   1.785   2.243   7.423  1.4299 -1.0763 -0.2559
  177SLPC   C1520050   1.765   2.069   7.222 -0.7082  0.1976 -0.0463
  177SLPC  H15A20051   1.817   1.986   7.175  0.2427  0.7016  0.0860
  177SLPC  H15B20052   1.721   2.042   7.317 -3.7241 -0.8566 -1.6088
  177SLPC  H15C20053   1.694   2.106   7.150  1.2737  1.0563 -1.6833
  177SLPC   C1220054   1.906   2.228   7.103  0.2355  0.0468 -0.3333
  177SLPC  H12A20055   1.951   2.147   7.049 -2.0340 -1.0188 -0.7527
  177SLPC  H12B20056   1.984   2.303   7.104 -0.1206  0.4310 -0.5296
  177SLPC   C1120057   1.795   2.279   7.008 -0.2398 -0.4762  0.1712
  177SLPC  H11A20058   1.721   2.202   6.978  1.1068 -1.3327 -1.0279
  177SLPC  H11B20059   1.842   2.303   6.911 -1.0299  0.8229  0.0743
  177SLPC     P20060   1.796   2.529   7.093  0.2029 -0.1872  0.2179
  177SLPC   O1320061   1.728   2.576   7.218 -0.1097 -0.0212 -0.3585
  177SLPC   O1420062   1.948   2.511   7.106  0.5182 -0.0591  0.2978
  177SLPC   O1220063   1.729   2.393   7.058  0.1588  0.2927 -0.1792
  177SLPC   O1120064   1.761   2.624   6.971  0.4156 -0.1651  0.5931
  177SLPC    C120065   1.643   2.618   6.895 -0.4842  0.1472 -0.4152
  177SLPC    HA20066   1.562   2.554   6.937 -2.0526  1.8306 -0.7396
  177SLPC    HB20067   1.602   2.721   6.909 -0.8284 -0.0996  0.5041
  177SLPC    C220068   1.677   2.568   6.757  0.5590  0.1144 -0.4739
  177SLPC    HS20069   1.711   2.463   6.770 -2.2547 -0.6023  2.2916
  177SLPC   O2120070   1.778   2.657   6.702  0.1053 -0.3176 -0.2251
  177SLPC   C2120071   1.878   2.602   6.641  0.8384 -0.3044 -0.2850
  177SLPC   O2220072   1.884   2.483   6.627 -0.6660  0.2212  0.7337
  177SLPC   C2220073   1.977   2.713   6.604  0.1017  0.4415 -0.4996
  177SLPC   H2R20074   1.930   2.807   6.566  2.9773  0.7772 -3.7518
  177SLPC   H2S20075   2.025   2.742   6.700  0.3453  0.8799 -0.7501
  177SLPC    C320076   1.551   2.571   6.664  0.5944  0.5210 -0.8258
  177SLPC    HX20077   1.522   2.678   6.671  0.1421  0.3390  0.2175
  177SLPC    HY20078   1.469   2.503   6.697 -0.3023  0.2826 -3.2760
  177SLPC   O3120079   1.572   2.559   6.525 -0.6528 -0.2365 -0.2672
  177SLPC   C3120080   1.584   2.440   6.477  0.0100 -0.1212  0.1614
  177SLPC   O3220081   1.565   2.335   6.536  0.5877 -0.0121  0.4234
  177SLPC   C3220082   1.646   2.456   6.335  0.4671 -0.2675  0.1428
  177SLPC   H2X20083   1.738   2.395   6.327  0.4458 -0.1032 -2.0107
  177SLPC   H2Y20084   1.689   2.558   6.331  0.8116 -0.4109  0.2144
  177SLPC   C2320085   2.084   2.671   6.498  0.7319  0.3376  0.4069
  177SLPC   H3R20086   2.133   2.576   6.528  0.8876  1.1567  2.9131
  177SLPC   H3S20087   2.165   2.745   6.484 -0.3410  1.0987 -2.4821
  177SLPC   C2420088   2.006   2.664   6.365  0.5707  0.6691 -0.6955
  177SLPC   H4R20089   1.952   2.754   6.330 -1.2902  0.0670  0.5163
  177SLPC   H4S20090   1.933   2.583   6.380 -1.0140  2.4214  1.8562
  177SLPC   C2520091   2.100   2.616   6.255  0.4172  0.1523 -0.2250
  177SLPC   H5R20092   2.137   2.517   6.290  1.7303  1.0204  0.9326
  177SLPC   H5S20093   2.183   2.688   6.239 -1.2305  1.5911 -3.1976
  177SLPC   C2620094   2.041   2.597   6.112  0.0308 -0.0367 -0.1112
  177SLPC   H6R20095   1.981   2.686   6.080 -0.6607 -0.7182 -0.7756
  177SLPC   H6S20096   1.963   2.518   6.112  0.7945 -0.8043  0.5554
  177SLPC   C2720097   2.143   2.568   6.005  0.0261  0.1283 -0.6850
  177SLPC   H7R20098   2.191   2.473   6.038 -1.7126 -0.3995  0.5293
  177SLPC   H7S20099   2.217   2.650   6.009  0.7732 -0.5721  0.9146
  177SLPC   C2820100   2.083   2.559   5.861 -0.2471  0.1604 -0.3481
  177SLPC   H8R20101   2.030   2.655   5.845 -0.1122  0.2723 -0.1108
  177SLPC   H8S20102   2.008   2.478   5.875 -2.3808  1.8817 -1.1447
  177SLPC   C2920103   2.187   2.546   5.750 -0.0427 -0.4344 -1.0800
  177SLPC   H9R20104   2.195   2.632   5.683  0.1433 -2.0403 -3.2283
  177SLPC  C21020105   2.281   2.444   5.731  0.0820  0.0308  0.0247
  177SLPC  H10R20106   2.341   2.459   5.640 -1.1510  1.4510 -0.5990
  177SLPC  C21120107   2.297   2.314   5.800  0.0194 -0.4996 -0.2034
  177SLPC  H11R20108   2.201   2.267   5.830 -0.1054 -0.6459 -0.8230
  177SLPC  H11S20109   2.337   2.326   5.903 -1.9104  0.9353  0.4329
  177SLPC  C21220110   2.391   2.222   5.739 -0.3283 -0.5124 -0.6060
  177SLPC  H12R20111   2.464   2.265   5.669  2.3217 -0.4250  2.0368
  177SLPC  C21320112   2.392   2.093   5.756 -0.4955  0.8015 -0.6760
  177SLPC  H13R20113   2.461   2.032   5.696 -3.3733 -0.4119 -3.0238
  177SLPC  C21420114   2.303   2.007   5.839  0.1736  0.9783 -0.3762
  177SLPC  H14R20115   2.266   1.916   5.787  2.6911 -0.7723  0.7364
  177SLPC  H14S20116   2.218   2.065   5.880  0.0160 -1.1932  2.7191
  177SLPC  C21520117   2.382   1.938   5.949  0.0903 -1.0031 -0.0284
  177SLPC  H15R20118   2.435   2.019   6.004  0.8536 -1.3801 -0.1885
  177SLPC  H15S20119   2.467   1.890   5.896  2.1068  1.8846  0.3779
  177SLPC  C21620120   2.305   1.849   6.046  0.3568 -0.5891  0.6477
  177SLPC  H16R20121   2.282   1.753   5.995  1.3838 -0.5457  0.0782
  177SLPC  H16S20122   2.215   1.905   6.079  1.1820  1.7291 -0.8471
  177SLPC  C21720123   2.395   1.801   6.164 -0.5257  0.4266  0.2574
  177SLPC  H17R20124   2.451   1.885   6.211 -0.9133  0.8159  0.0321
  177SLPC  H17S20125   2.463   1.716   6.141 -3.1522 -0.9751 -3.1510
  177SLPC  C21820126   2.308   1.753   6.279 -0.1311 -0.2919 -0.5502
  177SLPC  H18R20127   2.252   1.660   6.257 -0.4528 -0.4983  1.0446
  177SLPC  H18S20128   2.229   1.828   6.303  1.8711  1.1036  2.3390
  177SLPC  H18T20129   2.370   1.738   6.370 -0.2673  0.0333 -0.4005
  177SLPC   C3320130   1.540   2.430   6.222 -0.4244 -0.1693 -1.0003
  177SLPC   H3X20131   1.462   2.505   6.244  1.0919  1.3076 -0.4684
  177SLPC   H3Y20132   1.495   2.329   6.226  2.0960 -1.3650  2.7191
  177SLPC   C3420133   1.611   2.441   6.089 -0.5566  0.0541  0.1063
  177SLPC   H4X20134   1.691   2.366   6.074  0.7470  1.9319 -3.2853
  177SLPC   H4Y20135   1.659   2.538   6.065 -0.6753 -0.4170 -2.2484
  177SLPC   C3520136   1.523   2.412   5.969 -0.1974  0.4790  0.7404
  177SLPC   H5X20137   1.487   2.498   5.908  0.6508  0.0584 -0.3969
  177SLPC   H5Y20138   1.427   2.372   6.007 -2.4731 -0.0444 -4.6846
  177SLPC   C3620139   1.584   2.297   5.883  0.1446  0.3750  0.0017
  177SLPC   H6X20140   1.500   2.269   5.815  1.0399 -0.6375 -0.7079
  177SLPC   H6Y20141   1.619   2.214   5.947 -1.1923  0.6249  1.1131
  177SLPC   C3720142   1.705   2.343   5.793 -0.2663 -0.3847 -0.4111
  177SLPC   H7X20143   1.778   2.398   5.856 -0.0628 -1.4619  0.3267
  177SLPC   H7Y20144   1.663   2.410   5.715  1.1932 -1.7523 -2.4589
  177SLPC   C3820145   1.770   2.220   5.740  0.2328 -0.6347  0.6363
  177SLPC   H8X20146   1.700   2.159   5.679  1.4264 -0.3377 -1.1195
  177SLPC   H8Y20147   1.796   2.157   5.828 -1.0057 -1.8891  0.1522
  177SLPC   C3920148   1.890   2.246   5.648  0.1799 -0.1976 -0.1515
  177SLPC   H9X20149   1.963   2.296   5.714 -0.2853 -1.4925  1.4109
  177SLPC   H9Y20150   1.860   2.316   5.567  0.9846 -0.7227 -0.9138
  177SLPC  C31020151   1.952   2.112   5.601 -0.1051  0.2842 -0.3485
  177SLPC  H10X20152   1.874   2.050   5.551  0.8340 -2.0801  0.9395
  177SLPC  H10Y20153   1.980   2.069   5.700  0.1888  3.2654  0.9626
  177SLPC  C31120154   2.072   2.116   5.507 -0.4171  0.0127  0.2177
  177SLPC  H11X20155   2.133   2.023   5.513  1.7916  1.4765  2.8776
  177SLPC  H11Y20156   2.140   2.200   5.531 -1.4667  1.7437 -2.3876
  177SLPC  C31220157   2.041   2.129   5.350 -0.1940 -0.6586 -0.2725
  177SLPC  H12X20158   2.012   2.236   5.338 -0.8700 -0.7073  0.7539
  177SLPC  H12Y20159   1.949   2.067   5.343  0.4854 -1.5936 -1.4307
  177SLPC  C31320160   2.151   2.079   5.256 -0.3727  0.4474 -0.6403
  177SLPC  H13X20161   2.116   2.062   5.152  0.9687 -0.5821 -0.9529
  177SLPC  H13Y20162   2.168   1.977   5.297 -1.1270  1.2125  1.7185
  177SLPC  C31420163   2.282   2.160   5.278  0.9068  0.0658 -0.4551
  177SLPC  H14X20164   2.326   2.125   5.373 -0.9605  1.3847  0.9674
  177SLPC  H14Y20165   2.277   2.270   5.292 -2.0912  0.2328 -1.9818
  177SLPC  C31520166   2.385   2.147   5.170 -0.1081 -0.2884  0.1232
  177SLPC  H15X20167   2.331   2.168   5.075 -0.8611 -0.5802  0.4771
  177SLPC  H15Y20168   2.422   2.042   5.176 -3.3636 -1.5285  0.6167
  177SLPC  C31620169   2.502   2.256   5.170  0.0998  0.1173 -0.0849
  177SLPC  H16X20170   2.518   2.299   5.271 -3.7172  1.4296  0.1149
  177SLPC  H16Y20171   2.471   2.337   5.102 -1.1243  0.3384  0.7148
  177SLPC  C31720172   2.624   2.182   5.115  0.2796  0.0236  0.0098
  177SLPC  H17X20173   2.655   2.106   5.190  0.0396 -0.1413 -0.0553
  177SLPC  H17Y20174   2.707   2.255   5.111  1.6265 -1.4878 -0.9403
  177SLPC  C31820175   2.603   2.123   4.971  0.4539 -0.1523 -0.1179
  177SLPC  H18X20176   2.546   2.028   4.965 -2.1251  1.3584 -1.2213
  177SLPC  H18Y20177   2.697   2.097   4.917  0.4587 -1.5468  0.5232
  177SLPC  H18Z20178   2.545   2.201   4.918 -3.0461 -1.7121  1.1297
  178SLPC     N20179   5.375   1.499   6.993  0.8020 -0.3643 -0.7231
  178SLPC   C1320180   5.485   1.577   6.933 -0.7086  0.1651  0.6023
  178SLPC  H13A20181   5.491   1.671   6.986 -0.2865 -0.6981  2.1433
  178SLPC  H13B20182   5.585   1.537   6.944 -0.8517 -0.8764 -1.4393
  178SLPC  H13C20183   5.467   1.601   6.829  0.0343  1.8070  0.8044
  178SLPC   C1420184   5.250   1.581   6.977  0.0174  0.0186  1.0884
  178SLPC  H14A20185   5.172   1.532   7.034 -0.0133  1.1287  2.0331
  178SLPC  H14B20186   5.259   1.681   7.017  0.4009  0.4303 -0.0016
  178SLPC  H14C20187   5.226   1.589   6.873 -2.0121 -0.5642  1.4682
  178SLPC   C1520188   5.404   1.478   7.138 -0.4314 -1.1541  0.2060
  178SLPC  H15A20189   5.405   1.575   7.187 -0.0837 -0.3525 -1.3334
  178SLPC  H15B20190   5.331   1.421   7.194  0.8875 -1.6435  1.5040
  178SLPC  H15C20191   5.498   1.425   7.151 -1.2983 -3.0133 -0.6843
  178SLPC   C1220192   5.357   1.368   6.919 -0.0074 -0.1376 -0.8724
  178SLPC  H12A20193   5.265   1.324   6.953 -0.4163  0.2193 -1.4835
  178SLPC  H12B20194   5.442   1.306   6.944  0.4517  1.3230  1.4852
  178SLPC   C1120195   5.339   1.385   6.764 -0.2671 -0.1652 -0.0518
  178SLPC  H11A20196   5.431   1.434   6.724 -0.0162  1.5287  2.3750
  178SLPC  H11B20197   5.248   1.441   6.735  0.0080  1.2529  1.6037
  178SLPC     P20198   5.426   1.156   6.687  0.6628  0.1549  0.0501
  178SLPC   O1320199   5.526   1.162   6.798 -0.0054 -0.2719  0.5268
  178SLPC   O1420200   5.366   1.022   6.672 -0.4949 -0.2369 -0.6562
  178SLPC   O1220201   5.310   1.253   6.715 -0.7093 -0.0261  0.4733
  178SLPC   O1120202   5.490   1.193   6.546  0.0204 -0.0610 -0.1199
  178SLPC    C120203   5.399   1.253   6.453  0.0560 -0.0024  0.1478
  178SLPC    HA20204   5.313   1.189   6.422  0.5976  0.1349 -1.7504
  178SLPC    HB20205   5.364   1.350   6.496 -0.9918  0.2185 -1.1094
  178SLPC    C220206   5.477   1.278   6.324  0.7673  0.5229  1.1984
  178SLPC    HS20207   5.413   1.326   6.247 -2.2244 -2.0017  1.8997
  178SLPC   O2120208   5.520   1.150   6.268  0.3366 -0.1748 -0.3012
  178SLPC   C2120209   5.426   1.096   6.188  0.0676  0.0193  0.1275
  178SLPC   O2220210   5.322   1.149   6.157  0.0020  0.2915  0.1657
  178SLPC   C2220211   5.472   0.945   6.154 -0.1319  0.0982  0.2580
  178SLPC   H2R20212   5.567   0.957   6.097 -0.3153 -0.1826 -0.1087
  178SLPC   H2S20213   5.503   0.882   6.240 -3.1833 -3.1161 -0.7509
  178SLPC    C320214   5.596   1.372   6.348  1.1372  0.2345 -0.5562
  178SLPC    HX20215   5.665   1.326   6.422  1.6937 -2.8023 -2.7286
  178SLPC    HY20216   5.544   1.459   6.391  0.6087 -0.0523 -0.6130
  178SLPC   O3120217   5.649   1.409   6.220  0.3378 -0.3446  0.0656
  178SLPC   C3120218   5.765   1.364   6.191  0.1627  0.0160 -0.0730
  178SLPC   O3220219   5.845   1.295   6.257  0.6394 -0.4446 -0.5986
  178SLPC   C3220220   5.803   1.409   6.055 -0.5562  0.5925  1.0856
  178SLPC   H2X20221   5.906   1.370   6.039 -0.2970  1.0052  1.7085
  178SLPC   H2Y20222   5.810   1.520   6.048 -0.7573  0.5559  0.1233
  178SLPC   C2320223   5.379   0.853   6.081 -0.1992 -0.3534  0.5512
  178SLPC   H3R20224   5.275   0.849   6.119  0.5159 -1.7397  2.5151
  178SLPC   H3S20225   5.427   0.754   6.093  0.9374 -0.0642 -1.1653
  178SLPC   C2420226   5.359   0.893   5.935  0.0860 -0.4161  0.6303
  178SLPC   H4R20227   5.317   0.995   5.925  0.4104 -0.2609  0.8315
  178SLPC   H4S20228   5.287   0.819   5.895  0.0772 -0.5657  0.9213
  178SLPC   C2520229   5.484   0.879   5.848 -0.2682 -0.1050 -0.4132
  178SLPC   H5R20230   5.525   0.777   5.861  0.4498  0.3929  1.4933
  178SLPC   H5S20231   5.566   0.939   5.894 -0.8354 -0.3695  0.9891
  178SLPC   C2620232   5.472   0.910   5.696  0.3467  0.5600 -0.1065
  178SLPC   H6R20233   5.436   0.816   5.647  0.8869  0.3654 -0.1352
  178SLPC   H6S20234   5.576   0.926   5.659  0.1613 -0.9497 -1.4507
  178SLPC   C2720235   5.384   1.029   5.666 -0.3263 -0.1347  0.0886
  178SLPC   H7R20236   5.411   1.114   5.733  0.8392  0.3322 -0.9172
  178SLPC   H7S20237   5.277   1.008   5.687 -0.1908  1.5566  2.8593
  178SLPC   C2820238   5.405   1.079   5.520 -0.5032 -0.0634 -0.1491
  178SLPC   H8R20239   5.508   1.112   5.496  0.1139 -1.6668  0.1972
  178SLPC   H8S20240   5.342   1.167   5.496  1.2227  0.7009 -2.2157
  178SLPC   C2920241   5.364   0.974   5.423  0.3746  0.1083  0.4746
  178SLPC   H9R20242   5.324   0.881   5.466  1.4233 -0.8906 -0.6195
  178SLPC  C21020243   5.391   0.975   5.293 -0.0073  0.3042  0.8417
  178SLPC  H10R20244   5.348   0.897   5.228  2.3894 -1.8506  1.6916
  178SLPC  C21120245   5.444   1.099   5.217 -0.6965  0.4657  0.2029
  178SLPC  H11R20246   5.555   1.096   5.214 -0.7294 -0.6455 -0.4139
  178SLPC  H11S20247   5.428   1.191   5.277  0.5420  1.2657 -0.6508
  178SLPC  C21220248   5.380   1.108   5.079  0.1252  0.3935 -0.4668
  178SLPC  H12R20249   5.305   1.188   5.067 -0.8749 -0.6614 -1.5671
  178SLPC  C21320250   5.422   1.044   4.967 -0.6808 -0.0715  0.1839
  178SLPC  H13R20251   5.352   1.045   4.882 -1.5941 -2.5086  0.8321
  178SLPC  C21420252   5.522   0.928   4.972 -0.1514 -0.8837 -0.0480
  178SLPC  H14R20253   5.468   0.848   4.917  0.3078 -1.3888  0.2447
  178SLPC  H14S20254   5.541   0.887   5.073 -0.2186  0.9562  0.7518
  178SLPC  C21520255   5.656   0.942   4.892 -0.3853 -0.3162 -0.3566
  178SLPC  H15R20256   5.641   0.997   4.797  2.8570  1.6694  0.1324
  178SLPC  H15S20257   5.709   0.845   4.888  0.6859  0.2893 -1.3898
  178SLPC  C21620258   5.748   1.039   4.981  0.2359 -0.2546  0.8336
  178SLPC  H16R20259   5.717   1.038   5.087  0.6737 -1.3298  0.9686
  178SLPC  H16S20260   5.744   1.144   4.945  1.1847 -0.4142  0.2287
  178SLPC  C21720261   5.891   0.984   4.978 -0.1707  0.3877  0.0161
  178SLPC  H17R20262   5.910   0.959   4.871  1.2084 -0.2198  0.3795
  178SLPC  H17S20263   5.881   0.888   5.034 -0.9156 -1.7954 -3.4956
  178SLPC  C21820264   5.992   1.073   5.044 -0.5049 -0.4259 -0.6109
  178SLPC  H18R20265   5.969   1.101   5.149  2.0837 -1.4707  0.2938
  178SLPC  H18S20266   5.986   1.165   4.982  2.5240  0.0213 -0.3874
  178SLPC  H18T20267   6.093   1.029   5.039  0.1275  1.0446 -1.7959
  178SLPC   C3320268   5.700   1.351   5.952  0.1417 -0.1329 -0.0969
  178SLPC   H3X20269   5.605   1.404   5.976 -1.0601 -1.1485 -2.3361
  178SLPC   H3Y20270   5.681   1.245   5.976  0.5332  0.2116  1.8619
  178SLPC   C3420271   5.752   1.385   5.809 -0.3434 -0.0408 -0.3541
  178SLPC   H4X20272   5.845   1.328   5.786 -1.2008 -0.8359 -1.9759
  178SLPC   H4Y20273   5.783   1.492   5.807  1.3726 -0.4490  1.1285
  178SLPC   C3520274   5.660   1.344   5.692  0.2404 -0.3884 -0.2359
  178SLPC   H5X20275   5.561   1.391   5.713  1.1109  0.8886  1.2118
  178SLPC   H5Y20276   5.647   1.234   5.677 -1.5566 -0.3752  0.8452
  178SLPC   C3620277   5.717   1.416   5.573  0.2954 -0.0222 -0.4986
  178SLPC   H6X20278   5.824   1.389   5.560  0.6653  0.9110  0.4897
  178SLPC   H6Y20279   5.720   1.525   5.595  0.5890  0.3599 -2.2381
  178SLPC   C3720280   5.650   1.375   5.439 -1.0006 -0.6184 -0.0157
  178SLPC   H7X20281   5.539   1.375   5.440 -1.0137 -0.8291  2.0052
  178SLPC   H7Y20282   5.674   1.268   5.420  1.9055 -0.1311  0.4296
  178SLPC   C3820283   5.692   1.469   5.327  0.0158  0.2070 -0.3546
  178SLPC   H8X20284   5.803   1.477   5.325  0.0684 -0.5471 -1.2608
  178SLPC   H8Y20285   5.665   1.573   5.355  1.6020  0.6310 -0.2850
  178SLPC   C3920286   5.650   1.421   5.184 -0.5285 -0.6917 -0.0004
  178SLPC   H9X20287   5.567   1.348   5.191  0.1548 -1.5492 -0.5905
  178SLPC   H9Y20288   5.745   1.379   5.144 -0.1204 -0.6952  0.9485
  178SLPC  C31020289   5.620   1.550   5.102 -0.0219 -0.2472 -0.6538
  178SLPC  H10X20290   5.698   1.629   5.117  0.5309 -1.1335  1.4487
  178SLPC  H10Y20291   5.527   1.593   5.144  0.6319  1.1126 -0.5424
  178SLPC  C31120292   5.585   1.517   4.952  0.1658  0.1946  0.1285
  178SLPC  H11X20293   5.514   1.598   4.924 -2.1077 -1.7174 -0.0031
  178SLPC  H11Y20294   5.520   1.428   4.941 -1.1800  1.1838 -0.2468
  178SLPC  C31220295   5.702   1.531   4.853  0.1703  0.0675 -0.5621
  178SLPC  H12X20296   5.675   1.495   4.752 -2.0226 -0.9408  0.3374
  178SLPC  H12Y20297   5.780   1.458   4.883 -0.4703 -0.9758 -1.3607
  178SLPC  C31320298   5.775   1.668   4.843  0.6278  0.5993 -0.1692
  178SLPC  H13X20299   5.820   1.692   4.942 -1.2228  2.5011  0.2887
  178SLPC  H13Y20300   5.702   1.750   4.830  0.2781  0.3622  0.2516
  178SLPC  C31420301   5.873   1.663   4.730 -0.9101  0.7063 -0.2092
  178SLPC  H14X20302   5.837   1.626   4.632 -2.0692 -0.0492  0.4876
  178SLPC  H14Y20303   5.942   1.584   4.765  0.5093  0.9967 -2.1495
  178SLPC  C31520304   5.960   1.786   4.708 -0.0699  0.0401 -0.1896
  178SLPC  H15X20305   6.023   1.811   4.796 -0.5681  0.4906  0.0504
  178SLPC  H15Y20306   5.883   1.865   4.689 -0.1204  0.4078  1.4172
  178SLPC  C31620307   6.054   1.774   4.584 -0.5910  0.8752 -0.6662
  178SLPC  H16X20308   6.079   1.878   4.553 -2.4288  2.1460  1.8378
  178SLPC  H16Y20309   5.995   1.725   4.503 -2.6987  1.5530  0.3892
  178SLPC  C31720310   6.181   1.687   4.605 -0.4210 -0.0155 -0.1228
  178SLPC  H17X20311   6.141   1.585   4.623 -2.0830  0.8843  1.6928
  178SLPC  H17Y20312   6.225   1.720   4.701  1.3959 -0.9213 -0.6042
  178SLPC  C31820313   6.286   1.698   4.496  0.3536  0.2904 -0.1536
  178SLPC  H18X20314   6.231   1.673   4.403 -1.7783 -2.0564  1.5827
  178SLPC  H18Y20315   6.372   1.627   4.496  0.0379 -0.1653 -2.5815
  178SLPC  H18Z20316   6.335   1.797   4.487  1.1952 -0.0131  0.8426
  179SLPC     N20317   0.626   3.713   2.496 -0.7062  0.1630 -0.3818
  179SLPC   C1320318   0.629   3.630   2.625  0.4745  0.6072  0.0434
  179SLPC  H13A20319   0.578   3.535   2.615 -2.0790  1.9710 -0.6891
  179SLPC  H13B20320   0.731   3.609   2.656 -0.0297 -1.7997  0.2730
  179SLPC  H13C20321   0.573   3.678   2.704  1.5004  0.6478  0.7708
  179SLPC   C1420322   0.720   3.831   2.512  0.0113 -0.2651  0.6496
  179SLPC  H14A20323   0.706   3.882   2.606 -2.5847  1.4597 -0.5436
  179SLPC  H14B20324   0.820   3.794   2.496 -0.9188 -1.8961 -2.1388
  179SLPC  H14C20325   0.702   3.904   2.434 -0.8068 -0.6990  0.4121
  179SLPC   C1520326   0.491   3.773   2.490 -0.2207 -0.4153  0.6598
  179SLPC  H15A20327   0.478   3.845   2.569  1.2636  1.7262 -0.9346
  179SLPC  H15B20328   0.490   3.839   2.405  3.2247  0.2283  0.9836
  179SLPC  H15C20329   0.412   3.700   2.477 -0.1276 -0.1868 -1.6482
  179SLPC   C1220330   0.652   3.627   2.376  0.6084  0.4275  0.0745
  179SLPC  H12A20331   0.636   3.681   2.284 -0.5075  1.6821  0.9767
  179SLPC  H12B20332   0.577   3.550   2.366  0.5421  0.3098  1.4089
  179SLPC   C1120333   0.790   3.566   2.374  0.8272  0.3098  0.0369
  179SLPC  H11A20334   0.786   3.514   2.276 -0.8594  0.0188  0.2273
  179SLPC  H11B20335   0.809   3.479   2.440 -1.9568 -1.1694 -0.9149
  179SLPC     P20336   1.016   3.658   2.470 -0.2098 -0.2984  0.1409
  179SLPC   O1320337   1.121   3.586   2.390  0.1008  0.4709 -0.2123
  179SLPC   O1420338   1.051   3.794   2.515 -0.1145 -0.0254  0.1453
  179SLPC   O1220339   0.894   3.663   2.377 -0.3593 -0.3642  0.5178
  179SLPC   O1120340   0.975   3.569   2.591  0.3277 -0.5271 -0.1419
  179SLPC    C120341   1.063   3.471   2.658  0.2715 -0.0961  0.3520
  179SLPC    HA20342   1.013   3.375   2.633  0.6018 -0.4390  1.0001
  179SLPC    HB20343   1.163   3.462   2.611  1.8538  0.7822  3.3188
  179SLPC    C220344   1.080   3.497   2.814 -0.1664  0.1073 -0.6459
  179SLPC    HS20345   1.155   3.425   2.853 -0.0893 -0.5107 -1.8800
  179SLPC   O2120346   0.953   3.499   2.882 -0.2870 -0.2449 -0.7265
  179SLPC   C2120347   0.900   3.381   2.896  0.1684 -0.9809 -0.0430
  179SLPC   O2220348   0.944   3.273   2.861 -0.0735  0.4577  0.7318
  179SLPC   C2220349   0.765   3.395   2.956  0.2837 -0.1229 -0.5964
  179SLPC   H2R20350   0.753   3.499   2.992  2.1198  0.2125 -0.8550
  179SLPC   H2S20351   0.687   3.376   2.879  0.9629  2.8619 -2.1727
  179SLPC    C320352   1.146   3.635   2.843  0.2380 -0.8927 -0.4462
  179SLPC    HX20353   1.079   3.713   2.803  1.4895  0.6508  0.3259
  179SLPC    HY20354   1.243   3.639   2.789  2.0405  0.8378  2.6341
  179SLPC   O3120355   1.173   3.647   2.986  0.0676 -0.1350 -0.2662
  179SLPC   C3120356   1.088   3.734   3.057 -0.1552 -0.1143  0.3507
  179SLPC   O3220357   0.990   3.781   3.009  0.5520  0.4194  0.3056
  179SLPC   C3220358   1.152   3.744   3.196 -0.0418 -1.1270  0.3177
  179SLPC   H2X20359   1.251   3.793   3.184 -0.8089  0.1965 -0.7856
  179SLPC   H2Y20360   1.182   3.642   3.228  1.5951 -0.0659  2.4859
  179SLPC   C2320361   0.750   3.294   3.075  0.7819 -0.3467  0.1934
  179SLPC   H3R20362   0.736   3.184   3.073  0.9976 -0.4430  1.9930
  179SLPC   H3S20363   0.653   3.327   3.118  0.1068  1.5226 -2.4988
  179SLPC   C2420364   0.853   3.312   3.188  0.3554 -0.9393  0.2148
  179SLPC   H4R20365   0.885   3.418   3.197 -0.4629 -0.3823 -2.5440
  179SLPC   H4S20366   0.946   3.256   3.163  1.4614 -0.1947  2.4417
  179SLPC   C2520367   0.783   3.266   3.326 -0.5705  0.2616  0.1308
  179SLPC   H5R20368   0.781   3.155   3.323 -0.6985  0.2354  0.8407
  179SLPC   H5S20369   0.685   3.316   3.340 -0.5792  0.4375 -0.5373
  179SLPC   C2620370   0.879   3.308   3.445 -0.4629 -0.7414 -0.0904
  179SLPC   H6R20371   0.893   3.418   3.452 -1.2740 -0.7380  2.2675
  179SLPC   H6S20372   0.978   3.259   3.434  0.2718  0.7238 -0.2603
  179SLPC   C2720373   0.831   3.265   3.580 -0.3255  0.2103 -0.3272
  179SLPC   H7R20374   0.826   3.156   3.596 -2.6992  0.3194 -0.0575
  179SLPC   H7S20375   0.723   3.288   3.586 -0.6654 -1.3438 -0.1289
  179SLPC   C2820376   0.905   3.338   3.698  0.3805  0.3837 -0.5831
  179SLPC   H8R20377   0.900   3.443   3.661 -0.7631 -0.5535 -3.3820
  179SLPC   H8S20378   1.006   3.294   3.698 -0.7848 -2.5100  0.5560
  179SLPC   C2920379   0.837   3.319   3.829 -0.6045 -0.1967 -0.1777
  179SLPC   H9R20380   0.734   3.280   3.825 -1.5575  2.1880 -0.8579
  179SLPC  C21020381   0.877   3.369   3.946  0.5267  0.2331 -0.5025
  179SLPC  H10R20382   0.825   3.331   4.035  1.9422 -3.1578 -0.9653
  179SLPC  C21120383   1.017   3.431   3.972 -0.1881  0.2731  0.2743
  179SLPC  H11R20384   1.014   3.490   4.066  0.5358 -1.1410  1.2145
  179SLPC  H11S20385   1.033   3.501   3.887  0.9624  0.6171  0.7495
  179SLPC  C21220386   1.128   3.325   3.965 -0.7777 -0.1415  0.0034
  179SLPC  H12R20387   1.102   3.223   3.935  1.5469 -0.1568 -2.3936
  179SLPC  C21320388   1.253   3.347   4.011  0.4014 -0.4289  0.7862
  179SLPC  H13R20389   1.330   3.269   4.015 -0.2125 -1.0902  0.1493
  179SLPC  C21420390   1.300   3.478   4.061 -1.1882 -0.2755 -0.1342
  179SLPC  H14R20391   1.216   3.550   4.075 -0.6294  0.5309 -0.8508
  179SLPC  H14S20392   1.367   3.542   4.000  0.2708  0.3049  1.9603
  179SLPC  C21520393   1.375   3.458   4.202  0.0326  0.2334 -0.4540
  179SLPC  H15R20394   1.412   3.558   4.231 -1.7462  1.0363 -0.7964
  179SLPC  H15S20395   1.462   3.391   4.184  0.5873  0.3930  1.4780
  179SLPC  C21620396   1.287   3.413   4.319 -0.5558 -0.1963 -0.3810
  179SLPC  H16R20397   1.270   3.304   4.309  0.6938 -0.4414 -0.0884
  179SLPC  H16S20398   1.194   3.473   4.318 -1.0586 -0.9721 -0.9500
  179SLPC  C21720399   1.352   3.424   4.461  0.2782  0.5987  0.4679
  179SLPC  H17R20400   1.363   3.534   4.475 -3.0080  1.3715 -1.7434
  179SLPC  H17S20401   1.452   3.379   4.449  0.1919 -0.4700  3.0871
  179SLPC  C21820402   1.282   3.363   4.575  0.2223  0.4631 -0.5087
  179SLPC  H18R20403   1.346   3.367   4.666 -0.8783  0.3283  0.2910
  179SLPC  H18S20404   1.268   3.254   4.559 -0.7255 -0.0802  3.1050
  179SLPC  H18T20405   1.182   3.406   4.594  1.1631  2.6465 -0.2100
  179SLPC   C3320406   1.071   3.826   3.296  0.1049 -0.6889  0.9674
  179SLPC   H3X20407   0.973   3.775   3.310 -0.5673 -0.0672 -1.0213
  179SLPC   H3Y20408   1.042   3.925   3.253 -1.5672 -0.4727  2.4770
  179SLPC   C3420409   1.144   3.842   3.431  0.6869 -0.3161 -0.0594
  179SLPC   H4X20410   1.109   3.935   3.480  0.5171 -0.8192  0.8025
  179SLPC   H4Y20411   1.252   3.846   3.407  1.0140 -4.0162  0.2484
  179SLPC   C3520412   1.122   3.723   3.525 -0.2774 -0.0074 -0.2294
  179SLPC   H5X20413   1.012   3.706   3.529  0.1250 -3.7945 -1.4965
  179SLPC   H5Y20414   1.152   3.631   3.470  0.6861  1.2553 -1.9038
  179SLPC   C3620415   1.185   3.727   3.669 -1.0161  0.0382 -0.3582
  179SLPC   H6X20416   1.295   3.714   3.662 -0.9507 -0.8386  1.7163
  179SLPC   H6Y20417   1.154   3.636   3.725 -0.2248 -0.4509 -0.7041
  179SLPC   C3720418   1.152   3.853   3.752  0.2714 -0.1800 -0.4322
  179SLPC   H7X20419   1.042   3.869   3.742  0.0627 -0.7681  0.7131
  179SLPC   H7Y20420   1.194   3.941   3.699 -0.7441 -0.2942 -1.4786
  179SLPC   C3820421   1.190   3.832   3.901 -0.8658  0.6170 -0.6365
  179SLPC   H8X20422   1.299   3.815   3.914 -0.9144  0.0690 -0.9158
  179SLPC   H8Y20423   1.129   3.751   3.945  0.5796  0.2321  0.7308
  179SLPC   C3920424   1.163   3.960   3.978 -0.6505  0.3019 -0.6363
  179SLPC   H9X20425   1.053   3.971   3.983 -0.8421 -1.4728 -0.4332
  179SLPC   H9Y20426   1.220   4.036   3.920  1.6331 -0.7759  0.0938
  179SLPC  C31020427   1.218   3.960   4.123 -0.0046 -0.1266 -0.1687
  179SLPC  H10X20428   1.231   4.067   4.152 -0.5097  1.0091 -3.6924
  179SLPC  H10Y20429   1.318   3.912   4.111  0.2060  0.5202 -1.1173
  179SLPC  C31120430   1.147   3.873   4.228  0.2029 -0.5681 -0.1881
  179SLPC  H11X20431   1.144   3.766   4.202 -1.1532 -1.2706  2.5259
  179SLPC  H11Y20432   1.045   3.916   4.223  0.1409 -0.8514 -1.6677
  179SLPC  C31220433   1.198   3.896   4.374 -0.8962 -0.2167 -0.2429
  179SLPC  H12X20434   1.211   4.005   4.390 -2.4782 -0.1675  1.0106
  179SLPC  H12Y20435   1.297   3.848   4.388 -1.0888 -1.0958 -1.6902
  179SLPC  C31320436   1.115   3.836   4.486  0.1171 -0.0428 -0.2038
  179SLPC  H13X20437   1.154   3.738   4.521 -2.8112 -2.0827 -2.1241
  179SLPC  H13Y20438   1.011   3.823   4.451  0.9081  0.2018 -2.8781
  179SLPC  C31420439   1.110   3.921   4.615  0.2441 -0.2716 -0.4821
  179SLPC  H14X20440   1.036   3.884   4.689 -0.1472  0.5516 -0.4511
  179SLPC  H14Y20441   1.073   4.022   4.588  2.7071  1.6343  2.5373
  179SLPC  C31520442   1.249   3.940   4.682 -0.1745 -0.5609  0.2619
  179SLPC  H15X20443   1.299   3.995   4.599 -0.5915 -1.7661 -0.8233
  179SLPC  H15Y20444   1.316   3.852   4.686  0.6152 -0.0528 -1.1866
  179SLPC  C31620445   1.236   4.013   4.815  0.0575  0.0246 -0.1745
  179SLPC  H16X20446   1.223   3.937   4.896 -2.5296  1.0966  0.4823
  179SLPC  H16Y20447   1.152   4.084   4.807  1.9228  2.3094 -0.3952
  179SLPC  C31720448   1.371   4.080   4.842  0.1438  0.1975 -0.6652
  179SLPC  H17X20449   1.373   4.159   4.765  0.9385  0.5519 -0.2873
  179SLPC  H17Y20450   1.459   4.015   4.822  0.5845  0.5113  0.2109
  179SLPC  C31820451   1.397   4.129   4.987  0.0070 -0.1124  0.7044
  179SLPC  H18X20452   1.425   4.043   5.052 -0.4029  0.5870  1.8559
  179SLPC  H18Y20453   1.327   4.205   5.028 -0.6553  0.8539 -2.0227
  179SLPC  H18Z20454   1.489   4.190   4.980 -0.0374 -0.0880  0.3269
  180SLPC     N20455   0.386   1.415   2.495 -0.4020  0.0678  0.2598
  180SLPC   C1320456   0.540   1.435   2.497 -0.6349  0.3616 -0.0924
  180SLPC  H13A20457   0.560   1.530   2.450 -1.0358  1.1288  1.2463
  180SLPC  H13B20458   0.569   1.446   2.601  0.5780 -1.3440 -0.2017
  180SLPC  H13C20459   0.589   1.344   2.464  0.2374  0.4808  0.8111
  180SLPC   C1420460   0.344   1.427   2.346  0.2223 -0.7939  0.2508
  180SLPC  H14A20461   0.369   1.524   2.305 -0.9199 -0.4016  0.4420
  180SLPC  H14B20462   0.404   1.353   2.295 -1.8238 -2.9336  0.7789
  180SLPC  H14C20463   0.240   1.408   2.323  0.1090 -0.1324  0.1693
  180SLPC   C1520464   0.318   1.523   2.567 -0.6382 -0.3991  0.0410
  180SLPC  H15A20465   0.213   1.503   2.582 -0.5448  0.5722  2.6271
  180SLPC  H15B20466   0.369   1.539   2.661  0.0229  1.3977 -0.5800
  180SLPC  H15C20467   0.333   1.609   2.502  0.7968 -0.7266 -0.0928
  180SLPC   C1220468   0.345   1.276   2.556  0.0075 -0.3526  0.0283
  180SLPC  H12A20469   0.241   1.256   2.538 -1.1270  3.0101  1.9311
  180SLPC  H12B20470   0.354   1.281   2.664 -2.9908  0.5512  0.3239
  180SLPC   C1120471   0.422   1.153   2.500 -0.4885 -0.0795 -0.0292
  180SLPC  H11A20472   0.420   1.164   2.389 -0.6172  4.0498  0.2184
  180SLPC  H11B20473   0.384   1.057   2.539  2.1680 -0.1306  2.8421
  180SLPC     P20474   0.620   1.083   2.659  0.1886  0.5398 -0.1024
  180SLPC   O1320475   0.591   0.935   2.647  0.0763  0.1721  0.2329
  180SLPC   O1420476   0.762   1.123   2.662 -0.3202 -0.2302 -0.6660
  180SLPC   O1220477   0.561   1.150   2.532  0.2604 -0.2407  0.0039
  180SLPC   O1120478   0.538   1.151   2.778 -0.0481  0.2343  0.0563
  180SLPC    C120479   0.586   1.267   2.845 -0.2611 -0.0451  0.4691
  180SLPC    HA20480   0.663   1.328   2.793 -1.6881  2.0918  0.7328
  180SLPC    HB20481   0.501   1.338   2.855 -1.2130 -1.2190  0.8706
  180SLPC    C220482   0.642   1.232   2.988 -0.2639 -0.0131  0.1170
  180SLPC    HS20483   0.724   1.159   2.974  0.2448  0.3864  0.9148
  180SLPC   O2120484   0.539   1.178   3.070  0.1258  0.1183 -0.1494
  180SLPC   C2120485   0.536   1.047   3.098  0.0281  0.0593  0.2790
  180SLPC   O2220486   0.626   0.967   3.076  0.3210  0.7925  0.1290
  180SLPC   C2220487   0.403   1.009   3.168 -0.1563 -0.3933 -0.4671
  180SLPC   H2R20488   0.332   1.094   3.164  1.7522  1.2289 -1.4924
  180SLPC   H2S20489   0.359   0.921   3.115  0.0841  0.9984 -3.1424
  180SLPC    C320490   0.701   1.362   3.048 -0.3930  0.2412 -0.7473
  180SLPC    HX20491   0.637   1.446   3.015 -1.0422  0.0827  0.0756
  180SLPC    HY20492   0.803   1.387   3.010  0.3649 -0.8596  0.4681
  180SLPC   O3120493   0.697   1.366   3.193  0.4132  0.6886 -0.3517
  180SLPC   C3120494   0.778   1.446   3.261 -0.1949  0.2110  0.1387
  180SLPC   O3220495   0.833   1.546   3.217 -0.6933  0.5473  0.1726
  180SLPC   C3220496   0.778   1.408   3.405  0.7900 -0.7196  0.0796
  180SLPC   H2X20497   0.784   1.298   3.414 -0.6771 -0.8152  0.1690
  180SLPC   H2Y20498   0.676   1.439   3.439  0.7407  0.1326 -0.8134
  180SLPC   C2320499   0.422   0.972   3.317 -1.0241  0.4723  0.0415
  180SLPC   H3R20500   0.481   0.878   3.324 -0.0473  1.1598  2.0178
  180SLPC   H3S20501   0.323   0.945   3.360 -1.1942 -0.1171 -0.7030
  180SLPC   C2420502   0.499   1.068   3.406 -0.6260 -0.7676 -0.3727
  180SLPC   H4R20503   0.421   1.147   3.416 -0.5957 -0.8846  0.9114
  180SLPC   H4S20504   0.599   1.090   3.364  0.3647  0.0847  2.2759
  180SLPC   C2520505   0.520   1.017   3.552  0.6181  0.0161 -0.5591
  180SLPC   H5R20506   0.577   0.921   3.553  0.1978 -0.2368  0.5187
  180SLPC   H5S20507   0.421   0.988   3.593  0.7529 -0.5606 -0.6331
  180SLPC   C2620508   0.611   1.106   3.636 -0.3887  0.5955  0.0002
  180SLPC   H6R20509   0.578   1.209   3.662  1.2546  1.5728 -1.5297
  180SLPC   H6S20510   0.707   1.119   3.582 -0.6122  0.6292 -0.3918
  180SLPC   C2720511   0.643   1.030   3.767  0.1106 -0.0760  0.0725
  180SLPC   H7R20512   0.751   1.044   3.787  0.1215  0.8013 -0.5849
  180SLPC   H7S20513   0.638   0.921   3.744  1.2326  0.0607 -0.8391
  180SLPC   C2820514   0.563   1.067   3.900  0.6938 -0.4087  0.4606
  180SLPC   H8R20515   0.582   0.984   3.971  1.8053 -2.8120 -2.4268
  180SLPC   H8S20516   0.452   1.065   3.896  0.7367 -1.2650 -1.0896
  180SLPC   C2920517   0.617   1.196   3.967  0.5359  0.4588  0.1372
  180SLPC   H9R20518   0.639   1.278   3.897 -0.4921 -0.6231 -1.5121
  180SLPC  C21020519   0.642   1.209   4.097  0.5619  0.1908  0.7852
  180SLPC  H10R20520   0.675   1.305   4.137 -0.7176  0.9396  0.1050
  180SLPC  C21120521   0.618   1.104   4.203  0.4176  0.0105  0.3173
  180SLPC  H11R20522   0.532   1.038   4.176  0.5591  0.8572 -2.5005
  180SLPC  H11S20523   0.578   1.160   4.290 -0.0964 -0.7087  0.5530
  180SLPC  C21220524   0.746   1.029   4.226 -0.0946  0.0683 -0.6890
  180SLPC  H12R20525   0.794   0.990   4.135 -0.5497 -1.1193 -0.4371
  180SLPC  C21320526   0.807   1.018   4.342 -1.0597 -0.1364  0.4055
  180SLPC  H13R20527   0.898   0.957   4.347 -0.8681  0.1301  0.1953
  180SLPC  C21420528   0.762   1.057   4.485 -1.1758 -0.1481  0.0235
  180SLPC  H14R20529   0.737   1.165   4.487 -0.4526  0.0249  2.0044
  180SLPC  H14S20530   0.845   1.048   4.558 -0.9578  0.8885 -0.0810
  180SLPC  C21520531   0.659   0.971   4.542  0.7601  0.3152  0.2029
  180SLPC  H15R20532   0.679   0.862   4.530  1.4985  0.6341 -1.6997
  180SLPC  H15S20533   0.563   0.981   4.486 -1.0201 -1.7169  2.6388
  180SLPC  C21620534   0.620   0.997   4.690 -0.1964 -0.3747  0.0361
  180SLPC  H16R20535   0.576   1.099   4.689 -0.8327 -0.6407 -1.0063
  180SLPC  H16S20536   0.713   1.002   4.750  1.6932 -0.0797 -2.7310
  180SLPC  C21720537   0.518   0.898   4.739  0.1312  0.7086 -0.2380
  180SLPC  H17R20538   0.464   0.873   4.645 -1.9629  0.3299  1.0243
  180SLPC  H17S20539   0.447   0.937   4.814  0.9777  1.4301  0.2170
  180SLPC  C21820540   0.576   0.770   4.810  0.2293 -0.2673 -0.1955
  180SLPC  H18R20541   0.606   0.781   4.916 -2.1151  0.4713  0.4480
  180SLPC  H18S20542   0.654   0.731   4.741 -0.2246 -0.7692 -0.4348
  180SLPC  H18T20543   0.493   0.696   4.809 -0.9716  1.0543 -0.3175
  180SLPC   C3320544   0.870   1.479   3.505 -0.0473  0.0281  0.3959
  180SLPC   H3X20545   0.857   1.588   3.491 -3.1061 -0.3757 -0.6723
  180SLPC   H3Y20546   0.976   1.453   3.486  0.2684  1.5093  0.0485
  180SLPC   C3420547   0.841   1.437   3.648 -0.3045  0.7095  0.7922
  180SLPC   H4X20548   0.821   1.328   3.644 -0.4829  0.7790 -1.2513
  180SLPC   H4Y20549   0.752   1.496   3.679 -0.7021  0.5495  0.0020
  180SLPC   C3520550   0.968   1.445   3.733  0.1161  0.5117 -0.1265
  180SLPC   H5X20551   1.012   1.547   3.731  0.1730  0.5522  1.6541
  180SLPC   H5Y20552   1.049   1.372   3.712  0.5757  1.0611 -0.3006
  180SLPC   C3620553   0.927   1.420   3.878  0.3627 -0.4830 -0.0737
  180SLPC   H6X20554   0.872   1.324   3.888  2.0382 -1.2676  3.1687
  180SLPC   H6Y20555   0.869   1.507   3.917 -0.0424 -0.3856 -0.8673
  180SLPC   C3720556   1.050   1.386   3.957  0.8819  0.0887 -0.6385
  180SLPC   H7X20557   1.117   1.473   3.937  0.4301  0.2329 -1.5666
  180SLPC   H7Y20558   1.102   1.295   3.921 -0.1034 -0.3461 -0.9924
  180SLPC   C3820559   1.033   1.372   4.108  1.0423 -0.3539 -0.3653
  180SLPC   H8X20560   0.945   1.305   4.117  0.9066 -0.2952 -1.1601
  180SLPC   H8Y20561   0.996   1.467   4.152 -0.8941 -1.0154 -0.4662
  180SLPC   C3920562   1.157   1.320   4.183 -0.1876  0.1862 -0.7345
  180SLPC   H9X20563   1.242   1.392   4.190  1.4228 -1.7206  0.5011
  180SLPC   H9Y20564   1.192   1.232   4.126  1.4927  0.6303 -0.4616
  180SLPC  C31020565   1.123   1.279   4.328 -0.1981 -0.0863  0.0909
  180SLPC  H10X20566   1.215   1.247   4.383  1.1005  0.1470 -1.8218
  180SLPC  H10Y20567   1.066   1.184   4.334  2.5840 -1.8351  0.8589
  180SLPC  C31120568   1.055   1.387   4.416  0.3059 -0.5257  0.2979
  180SLPC  H11X20569   0.972   1.429   4.356  2.4794  1.4195 -1.4856
  180SLPC  H11Y20570   1.127   1.469   4.433  1.2366 -0.6443 -2.5645
  180SLPC  C31220571   1.013   1.331   4.551 -0.2443  0.8531 -0.0712
  180SLPC  H12X20572   1.107   1.276   4.575 -0.6887 -0.3278 -0.9336
  180SLPC  H12Y20573   0.936   1.255   4.526 -0.3367  1.0495 -0.3809
  180SLPC  C31320574   0.972   1.434   4.656 -0.4811  0.0922 -0.6427
  180SLPC  H13X20575   0.875   1.479   4.626 -0.2358  1.0090 -0.0951
  180SLPC  H13Y20576   1.045   1.518   4.661 -0.9226  0.4959 -0.8159
  180SLPC  C31420577   0.951   1.364   4.788  0.2730  0.0386  0.0163
  180SLPC  H14X20578   1.044   1.317   4.827 -0.2412 -0.8170  0.2125
  180SLPC  H14Y20579   0.877   1.281   4.789  1.5433 -1.1263  0.9431
  180SLPC  C31520580   0.895   1.457   4.902  0.3144 -0.6082  0.3974
  180SLPC  H15X20581   0.856   1.388   4.980  0.6905  0.6456  1.7590
  180SLPC  H15Y20582   0.816   1.523   4.860  0.1959 -0.8892  0.1812
  180SLPC  C31620583   1.001   1.550   4.957  0.1236 -0.0984 -0.0878
  180SLPC  H16X20584   1.048   1.617   4.882  1.0326 -1.5242 -0.8305
  180SLPC  H16Y20585   1.081   1.489   5.004 -0.4874  0.2350  1.4739
  180SLPC  C31720586   0.945   1.645   5.065  0.2405 -0.2184 -0.1031
  180SLPC  H17X20587   1.020   1.665   5.144 -0.6119 -0.1673  0.7148
  180SLPC  H17Y20588   0.861   1.598   5.121  0.9702 -0.0261  1.1959
  180SLPC  C31820589   0.903   1.782   5.009  0.4223  0.3559  0.7836
  180SLPC  H18X20590   0.833   1.839   5.073 -2.0186 -0.4077 -1.0480
  180SLPC  H18Y20591   0.850   1.761   4.913  0.2750  2.2495  0.4154
  180SLPC  H18Z20592   0.990   1.846   4.984  0.0963 -0.3666 -2.8188
  181SLPC     N20593   3.453   1.676   2.178  0.0977 -0.3412  0.0412
  181SLPC   C1320594   3.414   1.782   2.276 -0.2107 -0.1713  0.3779
  181SLPC  H13A20595   3.394   1.879   2.232 -1.6890 -1.0303 -0.9423
  181SLPC  H13B20596   3.321   1.753   2.321  0.1541 -0.6578  0.8256
  181SLPC  H13C20597   3.485   1.787   2.357 -0.1954 -3.5060  0.6688
  181SLPC   C1420598   3.597   1.681   2.144 -0.6772  0.4039 -0.1324
  181SLPC  H14A20599   3.622   1.778   2.104  1.6906 -0.0748  0.0155
  181SLPC  H14B20600   3.659   1.661   2.230 -3.0905  0.2444  1.6759
  181SLPC  H14C20601   3.617   1.606   2.069  0.3264 -0.5737  1.0607
  181SLPC   C1520602   3.370   1.687   2.060 -0.3758 -0.3991 -0.0771
  181SLPC  H15A20603   3.413   1.763   1.996  0.0969 -1.9107 -1.6179
  181SLPC  H15B20604   3.369   1.597   2.002  2.2003  0.2478 -1.2274
  181SLPC  H15C20605   3.269   1.721   2.078 -1.1884 -1.2954 -2.5300
  181SLPC   C1220606   3.423   1.543   2.250  0.1215  0.0383 -0.3438
  181SLPC  H12A20607   3.438   1.465   2.177  0.5392 -0.9533  0.7791
  181SLPC  H12B20608   3.318   1.533   2.273  0.5600 -2.7804  0.8454
  181SLPC   C1120609   3.517   1.504   2.363 -0.2342 -0.8691  0.0714
  181SLPC  H11A20610   3.462   1.437   2.433 -1.7661  0.0136 -0.2535
  181SLPC  H11B20611   3.529   1.589   2.434 -1.6058 -0.0725 -0.6279
  181SLPC     P20612   3.667   1.301   2.315  0.2034 -0.2202 -0.5562
  181SLPC   O1320613   3.569   1.217   2.241 -0.5859  0.8863 -0.6864
  181SLPC   O1420614   3.812   1.282   2.276 -0.2319  0.0587 -0.9281
  181SLPC   O1220615   3.641   1.450   2.313 -0.5331  0.6384  0.5312
  181SLPC   O1120616   3.656   1.262   2.471 -0.5811  0.0699  1.0037
  181SLPC    C120617   3.718   1.358   2.564  0.5422 -0.0831 -0.4056
  181SLPC    HA20618   3.775   1.436   2.510  0.4993  1.2341  1.3616
  181SLPC    HB20619   3.640   1.414   2.619 -0.2389  0.8561 -2.3847
  181SLPC    C220620   3.811   1.295   2.669 -0.4533  0.6936  0.0853
  181SLPC    HS20621   3.876   1.221   2.618 -0.2009  1.8563 -1.3317
  181SLPC   O2120622   3.739   1.236   2.770  0.1861  0.0524  0.1286
  181SLPC   C2120623   3.790   1.119   2.822  0.9559  0.3010 -1.0009
  181SLPC   O2220624   3.906   1.088   2.810  0.4486 -0.4353 -0.1910
  181SLPC   C2220625   3.681   1.042   2.897 -0.3225 -0.5159 -0.0716
  181SLPC   H2R20626   3.592   1.106   2.911 -1.1544 -1.4044 -1.1294
  181SLPC   H2S20627   3.643   0.964   2.828 -1.1254 -0.0510 -0.1598
  181SLPC    C320628   3.894   1.407   2.724 -1.2882 -0.0767 -1.1893
  181SLPC    HX20629   3.832   1.487   2.771 -0.3533  0.2988 -0.5488
  181SLPC    HY20630   3.956   1.455   2.645  0.8729  1.4993  1.2887
  181SLPC   O3120631   3.984   1.352   2.832 -0.0591  0.4776 -0.3356
  181SLPC   C3120632   4.111   1.311   2.789  0.8231 -0.5083 -0.0123
  181SLPC   O3220633   4.142   1.310   2.671 -0.2089  0.3235  0.1732
  181SLPC   C3220634   4.190   1.258   2.908 -0.1732 -0.5937  0.3271
  181SLPC   H2X20635   4.143   1.160   2.929  1.8432 -1.6720 -0.0026
  181SLPC   H2Y20636   4.172   1.324   2.995  1.9269 -0.8781  1.0290
  181SLPC   C2320637   3.728   0.984   3.032  0.2142  0.0509  1.1450
  181SLPC   H3R20638   3.814   0.914   3.022  0.0426 -0.4265  2.6669
  181SLPC   H3S20639   3.646   0.914   3.058 -0.3413 -1.3915 -3.5559
  181SLPC   C2420640   3.758   1.095   3.132  0.0950  0.0880 -0.1987
  181SLPC   H4R20641   3.676   1.169   3.129 -1.1596 -1.2015  0.8561
  181SLPC   H4S20642   3.856   1.141   3.105  1.2696 -1.2900  1.4941
  181SLPC   C2520643   3.770   1.035   3.276 -0.3618  0.5132  0.0979
  181SLPC   H5R20644   3.837   0.947   3.289 -1.1764 -0.0291  0.7822
  181SLPC   H5S20645   3.667   0.996   3.295 -0.2622  0.2111  0.0274
  181SLPC   C2620646   3.808   1.131   3.387 -0.2267  0.1829  0.1034
  181SLPC   H6R20647   3.716   1.188   3.412 -0.9223 -0.6853 -0.3820
  181SLPC   H6S20648   3.886   1.203   3.355  0.5254 -1.5978 -2.3467
  181SLPC   C2720649   3.849   1.059   3.514  0.0579 -0.0683 -0.7178
  181SLPC   H7R20650   3.941   0.999   3.495  0.7997  0.5807  0.6519
  181SLPC   H7S20651   3.768   0.986   3.536  1.9837 -1.7290  1.2936
  181SLPC   C2820652   3.872   1.162   3.631  0.4554  0.2525 -0.4264
  181SLPC   H8R20653   3.776   1.214   3.647  0.9187  1.2170 -0.6687
  181SLPC   H8S20654   3.944   1.240   3.598 -0.4776  0.5939 -1.7182
  181SLPC   C2920655   3.919   1.099   3.760 -0.0029  0.1267  0.1973
  181SLPC   H9R20656   4.023   1.129   3.775 -0.2679  2.4884 -2.0257
  181SLPC  C21020657   3.844   1.037   3.856 -0.6044  0.7280  0.1511
  181SLPC  H10R20658   3.893   0.999   3.947 -0.8390 -1.8795 -0.7162
  181SLPC  C21120659   3.696   0.991   3.843 -0.4795  0.1673  0.0311
  181SLPC  H11R20660   3.698   0.926   3.752  1.9504 -2.2296  1.6115
  181SLPC  H11S20661   3.631   1.075   3.813  2.6827  2.5584 -0.6683
  181SLPC  C21220662   3.630   0.903   3.951 -0.1921  0.1186 -0.1700
  181SLPC  H12R20663   3.593   0.809   3.908 -1.9172  0.9195 -0.5091
  181SLPC  C21320664   3.610   0.922   4.085 -0.1039 -0.4821 -0.0077
  181SLPC  H13R20665   3.550   0.850   4.143  1.1894 -0.8384  0.9438
  181SLPC  C21420666   3.644   1.052   4.152  0.0985  0.6392  0.0358
  181SLPC  H14R20667   3.541   1.081   4.183  0.5905  1.4265  1.0097
  181SLPC  H14S20668   3.692   1.129   4.088  1.9864  0.1321  0.7631
  181SLPC  C21520669   3.735   1.027   4.275 -0.1854 -0.5052  0.0007
  181SLPC  H15R20670   3.734   1.119   4.338  0.8388  0.1376 -0.8773
  181SLPC  H15S20671   3.839   1.019   4.237 -0.8681 -1.3699 -1.7645
  181SLPC  C21620672   3.703   0.907   4.362 -0.0469 -1.0051  0.5255
  181SLPC  H16R20673   3.758   0.824   4.312 -1.5612 -1.8832  0.2570
  181SLPC  H16S20674   3.596   0.879   4.372  0.1815 -1.6930  1.1372
  181SLPC  C21720675   3.779   0.903   4.495 -0.4835  0.1357 -0.3740
  181SLPC  H17R20676   3.887   0.896   4.471 -0.2434 -1.4520  0.9720
  181SLPC  H17S20677   3.745   0.810   4.545 -2.8163  1.3927  0.5726
  181SLPC  C21820678   3.746   1.008   4.605  1.1963  0.0309 -0.2291
  181SLPC  H18R20679   3.773   1.114   4.583 -0.6344  0.6649  0.3478
  181SLPC  H18S20680   3.808   0.981   4.694  2.1277  2.6964  0.0266
  181SLPC  H18T20681   3.636   1.009   4.623  1.4800  0.5921  1.7135
  181SLPC   C3320682   4.346   1.242   2.887 -0.0239 -0.5610 -0.4153
  181SLPC   H3X20683   4.358   1.201   2.785 -1.4053  0.4426 -1.0028
  181SLPC   H3Y20684   4.388   1.177   2.967 -0.5493  1.4616  1.6140
  181SLPC   C3420685   4.421   1.370   2.907 -0.6090 -0.1923  0.1121
  181SLPC   H4X20686   4.376   1.430   2.825 -0.5223 -3.5013 -2.5638
  181SLPC   H4Y20687   4.527   1.356   2.878 -1.1949  2.6738 -4.3594
  181SLPC   C3520688   4.412   1.447   3.039 -0.3236 -0.3211 -0.0037
  181SLPC   H5X20689   4.471   1.389   3.114 -2.3264 -0.3511  1.6571
  181SLPC   H5Y20690   4.309   1.451   3.081  0.4676  0.6552  1.9672
  181SLPC   C3620691   4.480   1.586   3.022  0.8969  0.1155 -0.9156
  181SLPC   H6X20692   4.401   1.658   2.993  0.5194 -0.4987 -1.4201
  181SLPC   H6Y20693   4.543   1.587   2.931  0.9465 -0.2045 -0.8841
  181SLPC   C3720694   4.566   1.614   3.148  0.0491 -0.3144 -0.7331
  181SLPC   H7X20695   4.609   1.715   3.130  1.6736 -0.9361 -0.4956
  181SLPC   H7Y20696   4.629   1.524   3.164 -2.3504 -1.7023  1.7472
  181SLPC   C3820697   4.471   1.628   3.268 -0.0633  0.4664 -0.0518
  181SLPC   H8X20698   4.414   1.532   3.272 -0.2789  0.5598 -0.7109
  181SLPC   H8Y20699   4.399   1.711   3.249 -1.9422 -0.6510  1.7647
  181SLPC   C3920700   4.543   1.658   3.406  0.7566 -0.2996  0.3635
  181SLPC   H9X20701   4.575   1.764   3.409  1.7392 -0.5044 -1.5848
  181SLPC   H9Y20702   4.627   1.586   3.405 -0.3993 -1.7342  1.4002
  181SLPC  C31020703   4.470   1.621   3.527  0.2599 -0.0820 -0.3908
  181SLPC  H10X20704   4.470   1.511   3.535 -0.3007 -0.1776 -1.5311
  181SLPC  H10Y20705   4.365   1.655   3.517  1.1332  2.4591 -2.0659
  181SLPC  C31120706   4.524   1.686   3.658  0.2461  0.3720 -0.1099
  181SLPC  H11X20707   4.536   1.796   3.651  0.2479  0.2589 -2.3815
  181SLPC  H11Y20708   4.625   1.654   3.690 -0.2075 -2.7198 -1.4555
  181SLPC  C31220709   4.424   1.657   3.772 -0.1643  0.1718 -0.1150
  181SLPC  H12X20710   4.318   1.675   3.744  0.0701  2.4796  0.2456
  181SLPC  H12Y20711   4.447   1.729   3.854  1.2299 -1.4317  0.9788
  181SLPC  C31320712   4.447   1.511   3.819 -0.4330  0.4719  0.3595
  181SLPC  H13X20713   4.549   1.507   3.861  0.4852  0.2085 -1.7558
  181SLPC  H13Y20714   4.436   1.445   3.730  1.8032 -0.4340  0.7129
  181SLPC  C31420715   4.358   1.459   3.933 -0.1587  0.2953 -0.4002
  181SLPC  H14X20716   4.252   1.447   3.900 -0.0676  0.7630 -0.8633
  181SLPC  H14Y20717   4.368   1.524   4.023 -0.3194  0.1192 -0.2541
  181SLPC  C31520718   4.412   1.325   3.990 -0.5150  0.0285  0.4176
  181SLPC  H15X20719   4.522   1.325   4.007 -0.0615 -2.4475 -1.7474
  181SLPC  H15Y20720   4.408   1.261   3.899  1.0885  0.5825 -0.0878
  181SLPC  C31620721   4.329   1.262   4.094 -0.0179 -0.4370 -0.2502
  181SLPC  H16X20722   4.358   1.155   4.107  1.6709 -0.1187 -1.1218
  181SLPC  H16Y20723   4.223   1.284   4.071 -0.2215  0.5007  1.4248
  181SLPC  C31720724   4.356   1.332   4.227 -0.0592 -0.8239  0.2900
  181SLPC  H17X20725   4.264   1.344   4.290 -0.1455 -2.6735  0.5714
  181SLPC  H17Y20726   4.412   1.426   4.210 -2.2365  0.3379 -0.9876
  181SLPC  C31820727   4.439   1.245   4.316  0.0586 -0.5448  0.1176
  181SLPC  H18X20728   4.385   1.151   4.340 -3.0964  1.8039  3.2389
  181SLPC  H18Y20729   4.461   1.282   4.418  0.6284 -2.6034  0.7847
  181SLPC  H18Z20730   4.540   1.230   4.272 -0.3575  0.6430 -1.3138
  182SLPC     N20731   4.450   0.050   2.677 -0.4619  0.1244  0.6654
  182SLPC   C1320732   4.423  -0.083   2.730 -0.1951  0.1182 -0.3172
  182SLPC  H13A20733   4.365  -0.075   2.821 -2.2009 -0.3712 -1.4925
  182SLPC  H13B20734   4.366  -0.144   2.662 -0.4831 -1.7268  1.4792
  182SLPC  H13C20735   4.517  -0.134   2.749 -1.2556 -1.6020  0.5768
  182SLPC   C1420736   4.553   0.033   2.574  0.3439 -0.1756 -0.9147
  182SLPC  H14A20737   4.647   0.016   2.624  0.7327 -1.4397 -2.0131
  182SLPC  H14B20738   4.534  -0.052   2.510 -0.3495  0.4245 -1.5254
  182SLPC  H14C20739   4.563   0.122   2.513 -0.7777  0.1979 -0.5901
  182SLPC   C1520740   4.506   0.130   2.784  0.6618  0.1207  0.2389
  182SLPC  H15A20741   4.447   0.116   2.873 -0.6799 -0.2231 -0.6844
  182SLPC  H15B20742   4.610   0.112   2.808  0.0245 -1.8200  1.8259
  182SLPC  H15C20743   4.496   0.235   2.760  0.5895 -0.3548 -2.0616
  182SLPC   C1220744   4.311   0.115   2.624 -0.2292  0.1552 -0.0266
  182SLPC  H12A20745   4.275   0.054   2.542  1.4145  2.5699 -2.7841
  182SLPC  H12B20746   4.336   0.209   2.577  1.4770 -0.2832 -0.0666
  182SLPC   C1120747   4.195   0.135   2.735 -0.5910 -0.5518 -0.1557
  182SLPC  H11A20748   4.114   0.187   2.680 -1.4605 -0.1252  1.4635
  182SLPC  H11B20749   4.239   0.206   2.809 -1.0778 -0.5729  0.1561
  182SLPC     P20750   4.062  -0.080   2.707  0.1081  0.3435 -0.5437
  182SLPC   O1320751   4.057  -0.030   2.564  0.7186  0.3236  0.0766
  182SLPC   O1420752   4.097  -0.224   2.728  0.2146  0.2872 -0.0060
  182SLPC   O1220753   4.149   0.015   2.802 -0.1276 -0.4144 -0.3114
  182SLPC   O1120754   3.921  -0.064   2.766  1.0968 -0.2569  0.1543
  182SLPC    C120755   3.873   0.052   2.825  0.1599  0.1436  0.2332
  182SLPC    HA20756   3.931   0.140   2.790  0.9133 -0.3615  0.1893
  182SLPC    HB20757   3.765   0.068   2.804 -0.3749 -2.2203  0.7818
  182SLPC    C220758   3.889   0.038   2.976 -0.4017  0.5718  0.6400
  182SLPC    HS20759   3.994   0.013   3.001 -0.1439  0.7901 -0.1936
  182SLPC   O2120760   3.784  -0.055   3.022 -0.8911 -0.1572 -0.3798
  182SLPC   C2120761   3.837  -0.152   3.098  0.0798 -0.7662  0.3636
  182SLPC   O2220762   3.952  -0.151   3.142  0.2043 -0.1026 -0.2770
  182SLPC   C2220763   3.739  -0.267   3.119  0.1203 -0.1950 -0.0987
  182SLPC   H2R20764   3.637  -0.241   3.085 -1.3567 -1.7690  2.7792
  182SLPC   H2S20765   3.784  -0.350   3.061  1.0709 -0.1115  0.4857
  182SLPC    C320766   3.872   0.175   3.044  0.1151 -0.6362  0.2054
  182SLPC    HX20767   3.771   0.213   3.022  0.1999 -0.1046  0.7015
  182SLPC    HY20768   3.944   0.249   3.004  0.4447 -2.1559 -2.2460
  182SLPC   O3120769   3.877   0.155   3.187 -0.3287 -0.8528  0.2107
  182SLPC   C3120770   3.997   0.136   3.230 -0.2839  0.1659  0.1028
  182SLPC   O3220771   4.104   0.165   3.173 -0.2345 -0.1008  0.3596
  182SLPC   C3220772   3.979   0.068   3.364 -0.0703 -0.4913  0.2987
  182SLPC   H2X20773   3.924  -0.025   3.339 -2.0777  0.4446  1.0419
  182SLPC   H2Y20774   3.907   0.120   3.431  1.4418 -0.5386  2.0385
  182SLPC   C2320775   3.735  -0.308   3.266 -0.2339  0.6344  0.3120
  182SLPC   H3R20776   3.823  -0.337   3.328 -1.6162 -2.9377  0.8709
  182SLPC   H3S20777   3.658  -0.389   3.267 -0.4743  0.8633  0.3958
  182SLPC   C2420778   3.674  -0.194   3.350 -0.9166 -0.4387  0.2381
  182SLPC   H4R20779   3.575  -0.169   3.306 -1.8016 -0.3593  2.1981
  182SLPC   H4S20780   3.744  -0.108   3.359 -0.2833 -0.7407 -1.3794
  182SLPC   C2520781   3.656  -0.242   3.495  0.0368 -0.5785  0.5856
  182SLPC   H5R20782   3.750  -0.298   3.513  0.1109 -1.3495 -1.8751
  182SLPC   H5S20783   3.579  -0.321   3.508  1.6038 -2.1443  0.7139
  182SLPC   C2620784   3.650  -0.122   3.600 -0.5942 -0.0675 -0.1162
  182SLPC   H6R20785   3.544  -0.089   3.605 -0.9527 -1.2711  0.7536
  182SLPC   H6S20786   3.708  -0.036   3.563  0.9552 -0.1077  2.0395
  182SLPC   C2720787   3.696  -0.174   3.736 -0.2866 -0.0593 -0.0626
  182SLPC   H7R20788   3.807  -0.176   3.729 -0.2610 -1.7323  0.4021
  182SLPC   H7S20789   3.676  -0.283   3.750  0.3970 -0.4881 -2.0592
  182SLPC   C2820790   3.668  -0.084   3.851 -0.0847  0.1209  0.0263
  182SLPC   H8R20791   3.703   0.014   3.813 -1.1899  0.1159 -1.0731
  182SLPC   H8S20792   3.742  -0.103   3.932 -0.9692 -0.5125  0.7061
  182SLPC   C2920793   3.532  -0.082   3.909 -0.2248 -0.4354 -0.2137
  182SLPC   H9R20794   3.465   0.001   3.881 -1.7584 -0.2998  3.3316
  182SLPC  C21020795   3.493  -0.153   4.013 -0.3562  0.1494  0.1957
  182SLPC  H10R20796   3.390  -0.131   4.044 -0.6802 -1.0381 -0.0122
  182SLPC  C21120797   3.568  -0.257   4.088  0.2004 -0.4999  0.0823
  182SLPC  H11R20798   3.671  -0.222   4.109 -0.5787  1.0267  1.5715
  182SLPC  H11S20799   3.599  -0.344   4.026  1.5370  0.0651 -0.0646
  182SLPC  C21220800   3.506  -0.318   4.219  0.6394 -0.6342 -0.1512
  182SLPC  H12R20801   3.441  -0.246   4.272  0.8430 -1.4359  1.2251
  182SLPC  C21320802   3.520  -0.437   4.270 -0.3823 -0.3417 -0.9105
  182SLPC  H13R20803   3.469  -0.459   4.365  1.0066  0.5162  0.0676
  182SLPC  C21420804   3.599  -0.556   4.229  0.0090 -0.2659 -0.6092
  182SLPC  H14R20805   3.663  -0.602   4.308  0.0104 -0.4028 -0.6880
  182SLPC  H14S20806   3.678  -0.518   4.160 -0.8806  1.5389 -0.6659
  182SLPC  C21520807   3.517  -0.662   4.154  0.4304  0.0197  0.0852
  182SLPC  H15R20808   3.457  -0.610   4.076 -3.1366 -0.4977  2.2336
  182SLPC  H15S20809   3.439  -0.707   4.219 -1.5652  1.4175 -1.2198
  182SLPC  C21620810   3.606  -0.761   4.084  0.0857 -0.5244  0.0005
  182SLPC  H16R20811   3.657  -0.816   4.166 -2.2015 -1.4402  0.8864
  182SLPC  H16S20812   3.670  -0.701   4.015  0.4585  0.4563  1.1627
  182SLPC  C21720813   3.530  -0.860   4.002  0.6566 -0.2703  0.2650
  182SLPC  H17R20814   3.483  -0.818   3.911  0.0070  1.5180  1.3817
  182SLPC  H17S20815   3.442  -0.899   4.058  1.4341 -0.8603  1.1009
  182SLPC  C21820816   3.605  -0.989   3.965 -0.8128 -0.5930  0.8971
  182SLPC  H18R20817   3.543  -1.078   3.942 -0.0448 -0.9238  0.0466
  182SLPC  H18S20818   3.666  -1.011   4.055 -1.2804 -0.4648  1.2478
  182SLPC  H18T20819   3.679  -0.967   3.885 -0.3004  0.8322  1.7224
  182SLPC   C3320820   4.112   0.036   3.438  0.5615  0.2639  0.1250
  182SLPC   H3X20821   4.175   0.124   3.462 -0.1399  0.3659  1.7817
  182SLPC   H3Y20822   4.167  -0.039   3.377 -0.7367 -1.7611  1.3075
  182SLPC   C3420823   4.085  -0.038   3.570 -0.1455  0.8632  0.7594
  182SLPC   H4X20824   4.179  -0.071   3.619 -2.2205 -0.6412  4.1187
  182SLPC   H4Y20825   4.035  -0.134   3.545  1.5569  0.4089 -1.0888
  182SLPC   C3520826   4.009   0.037   3.679 -0.0133 -0.4877 -0.2335
  182SLPC   H5X20827   4.001  -0.042   3.757  0.0736 -0.5523 -0.2889
  182SLPC   H5Y20828   3.906   0.069   3.652 -0.5945 -0.9553  1.3360
  182SLPC   C3620829   4.085   0.161   3.737 -0.0853  0.5260 -0.3465
  182SLPC   H6X20830   4.101   0.241   3.661 -0.8354  1.2748  0.2667
  182SLPC   H6Y20831   4.182   0.131   3.782  0.8223  2.4431 -0.8792
  182SLPC   C3720832   4.021   0.234   3.860  0.0926 -0.3078  0.3315
  182SLPC   H7X20833   3.940   0.303   3.830  1.1466  1.5360  1.5475
  182SLPC   H7Y20834   4.106   0.291   3.903 -0.6856  0.9792  0.2178
  182SLPC   C3820835   3.954   0.144   3.971 -0.4370 -0.4547  0.7541
  182SLPC   H8X20836   3.876   0.077   3.928  0.4668 -1.0565  0.0168
  182SLPC   H8Y20837   3.919   0.218   4.047  0.3911  0.1960  0.5223
  182SLPC   C3920838   4.056   0.051   4.044 -0.5034  0.6659 -1.1045
  182SLPC   H9X20839   4.146   0.115   4.053  0.7507 -0.8628 -2.2373
  182SLPC   H9Y20840   4.090  -0.033   3.980 -0.4513 -2.6403  2.8493
  182SLPC  C31020841   4.004  -0.009   4.172 -0.0114 -0.9614 -0.3432
  182SLPC  H10X20842   3.928  -0.087   4.148  0.1882 -0.9539 -1.0232
  182SLPC  H10Y20843   3.952   0.072   4.227 -0.2627 -2.0722  1.1089
  182SLPC  C31120844   4.114  -0.048   4.271 -0.2654  0.0722  0.2065
  182SLPC  H11X20845   4.157   0.042   4.319 -0.3627 -0.2722  0.9517
  182SLPC  H11Y20846   4.195  -0.098   4.213 -0.3438 -0.2322  0.3581
  182SLPC  C31220847   4.064  -0.137   4.385 -0.8129 -0.0407  0.0967
  182SLPC  H12X20848   4.015  -0.230   4.347 -3.4732  0.6454  1.5993
  182SLPC  H12Y20849   4.000  -0.077   4.452 -3.4655 -0.9955 -1.4270
  182SLPC  C31320850   4.197  -0.187   4.465  0.4590 -0.1417 -0.7449
  182SLPC  H13X20851   4.254  -0.105   4.512 -1.0919 -0.3048  1.6150
  182SLPC  H13Y20852   4.264  -0.228   4.387  0.8967 -0.6320 -0.1252
  182SLPC  C31420853   4.164  -0.293   4.576 -0.8742 -0.1193  0.4899
  182SLPC  H14X20854   4.124  -0.387   4.532 -1.3401  0.1607  0.3010
  182SLPC  H14Y20855   4.088  -0.229   4.627 -0.4446 -1.1736  2.5106
  182SLPC  C31520856   4.291  -0.323   4.660  0.3960  0.4626  0.4924
  182SLPC  H15X20857   4.342  -0.224   4.660  2.9099 -0.7434  0.7722
  182SLPC  H15Y20858   4.356  -0.399   4.613 -0.2278  0.1527  0.1179
  182SLPC  C31620859   4.235  -0.363   4.794 -0.4120  0.3044 -0.1650
  182SLPC  H16X20860   4.207  -0.470   4.782  0.6165  0.0969 -0.8784
  182SLPC  H16Y20861   4.149  -0.296   4.815 -0.9453  0.3103 -2.1096
  182SLPC  C31720862   4.338  -0.356   4.908 -0.1702  0.0795 -0.2843
  182SLPC  H17X20863   4.290  -0.407   4.994  0.1986  1.5847  0.8511
  182SLPC  H17Y20864   4.358  -0.248   4.928  0.4163 -0.2664  1.1327
  182SLPC  C31820865   4.474  -0.423   4.877  0.3367  0.6377 -0.8448
  182SLPC  H18X20866   4.457  -0.532   4.872 -0.6634  0.7776 -0.8186
  182SLPC  H18Y20867   4.545  -0.398   4.959  1.8183  1.4834 -2.3269
  182SLPC  H18Z20868   4.522  -0.392   4.781  0.7590  1.6429 -0.3292
  183SLPC     N20869   6.460   2.692   2.351 -0.8626 -0.1991  0.2521
  183SLPC   C1320870   6.604   2.690   2.325  0.1763  0.5399  0.4604
  183SLPC  H13A20871   6.663   2.669   2.412 -0.6876  1.9359  1.4206
  183SLPC  H13B20872   6.624   2.636   2.234  1.2106  1.7938 -0.0916
  183SLPC  H13C20873   6.647   2.787   2.305  1.3210 -0.0169  0.1472
  183SLPC   C1420874   6.432   2.565   2.430 -0.7203  0.0886  0.4052
  183SLPC  H14A20875   6.464   2.479   2.372 -0.3410  1.3924 -1.4272
  183SLPC  H14B20876   6.477   2.568   2.528  0.4948 -1.8883 -0.0216
  183SLPC  H14C20877   6.327   2.551   2.449 -0.8860 -0.7744 -0.9793
  183SLPC   C1520878   6.374   2.695   2.221  0.7832  0.3620 -0.6328
  183SLPC  H15A20879   6.378   2.609   2.155  0.5680  0.2063 -0.4435
  183SLPC  H15B20880   6.271   2.713   2.249  0.9691  0.3546  0.0567
  183SLPC  H15C20881   6.404   2.773   2.152 -0.9622  2.3288  0.7114
  183SLPC   C1220882   6.423   2.801   2.445  0.2803 -0.7007 -0.2325
  183SLPC  H12A20883   6.449   2.894   2.397  0.1876 -0.8236 -0.5255
  183SLPC  H12B20884   6.487   2.795   2.532 -0.4507 -2.5841  0.2277
  183SLPC   C1120885   6.277   2.805   2.491  0.6897  0.0809  0.1424
  183SLPC  H11A20886   6.277   2.888   2.565 -2.9920 -1.0329  1.6489
  183SLPC  H11B20887   6.246   2.716   2.550  0.6924 -1.4039 -1.9945
  183SLPC     P20888   6.124   2.981   2.371  0.6357  0.0339 -0.2147
  183SLPC   O1320889   6.215   3.085   2.435  0.0017 -0.0119  0.4959
  183SLPC   O1420890   6.072   2.996   2.232 -0.2617 -0.4945 -0.2252
  183SLPC   O1220891   6.191   2.841   2.377 -0.5396 -0.4452 -0.8382
  183SLPC   O1120892   6.003   2.964   2.468  0.3460 -0.2475  0.1365
  183SLPC    C120893   5.917   2.856   2.481  0.2375  0.8996  0.5750
  183SLPC    HA20894   5.821   2.898   2.445  0.8977  0.1911 -2.2191
  183SLPC    HB20895   5.935   2.768   2.416  0.9201  1.6099 -0.2151
  183SLPC    C220896   5.890   2.813   2.633 -0.1060  0.8784  0.3010
  183SLPC    HS20897   5.781   2.819   2.648 -0.5678 -2.5687 -0.7017
  183SLPC   O2120898   5.970   2.892   2.724 -0.7469  0.0741 -0.4348
  183SLPC   C2120899   5.924   3.014   2.752  0.5166 -0.8275  0.1027
  183SLPC   O2220900   5.816   3.061   2.714 -0.1416 -0.1043  0.0220
  183SLPC   C2220901   6.025   3.104   2.819 -0.2870 -0.2256  0.2920
  183SLPC   H2R20902   6.121   3.053   2.800 -1.5054 -3.2383  1.5575
  183SLPC   H2S20903   6.021   3.193   2.754 -1.3947  1.7805  2.9128
  183SLPC    C320904   5.933   2.668   2.649  0.3753  0.3646 -0.2558
  183SLPC    HX20905   6.029   2.653   2.597 -0.5556 -1.4920 -1.5307
  183SLPC    HY20906   5.859   2.611   2.589 -0.4960  1.1842  0.0068
  183SLPC   O3120907   5.933   2.645   2.792 -0.1967 -0.0281 -0.0545
  183SLPC   C3120908   5.944   2.522   2.813  0.4721 -0.1409 -0.1025
  183SLPC   O3220909   5.908   2.430   2.732 -0.0984  0.0179  0.3632
  183SLPC   C3220910   5.982   2.506   2.959  0.0168  0.5061 -0.3459
  183SLPC   H2X20911   5.894   2.533   3.021  1.2862  2.8631  0.5756
  183SLPC   H2Y20912   6.067   2.573   2.986 -0.7989  1.9815 -1.2889
  183SLPC   C2320913   6.006   3.143   2.967 -0.6353  0.8041  0.2926
  183SLPC   H3R20914   5.921   3.212   2.987 -1.2726 -0.2317  1.2323
  183SLPC   H3S20915   6.098   3.184   3.012 -0.0956 -0.5852  0.4930
  183SLPC   C2420916   5.974   3.008   3.040 -0.5557  0.0831 -0.3367
  183SLPC   H4R20917   6.058   2.941   3.011 -0.0441  0.5778 -0.0028
  183SLPC   H4S20918   5.884   2.951   3.008 -0.1298 -1.8177  1.6107
  183SLPC   C2520919   5.971   3.025   3.191 -0.2696  0.2375 -0.7075
  183SLPC   H5R20920   5.891   3.095   3.222 -0.9071 -0.3061 -1.0999
  183SLPC   H5S20921   6.070   3.062   3.226 -0.5452 -0.9370  1.5445
  183SLPC   C2620922   5.944   2.893   3.254 -0.0751 -0.1028 -0.3857
  183SLPC   H6R20923   5.981   2.802   3.203 -1.6667 -1.7324  1.2142
  183SLPC   H6S20924   5.834   2.882   3.245 -0.0459 -1.4759  0.5207
  183SLPC   C2720925   5.992   2.887   3.396  0.4323 -0.2823  0.0092
  183SLPC   H7R20926   6.101   2.906   3.406  0.6713 -1.4329 -0.3033
  183SLPC   H7S20927   5.971   2.788   3.442 -0.0382 -1.0911 -1.8548
  183SLPC   C2820928   5.924   2.996   3.487  0.3814  1.0438 -0.3976
  183SLPC   H8R20929   5.951   3.092   3.438  0.5371  0.1157 -2.2189
  183SLPC   H8S20930   5.987   2.992   3.578  0.3381  0.8683 -0.3757
  183SLPC   C2920931   5.780   2.990   3.522  0.3925 -1.0335  0.4097
  183SLPC   H9R20932   5.725   3.010   3.429  1.0416  0.0110  0.2381
  183SLPC  C21020933   5.715   2.973   3.637 -0.0938  0.4193 -0.3191
  183SLPC  H10R20934   5.605   2.968   3.632 -0.0500 -4.5287 -0.8018
  183SLPC  C21120935   5.778   2.957   3.771 -0.1190 -0.4582  0.3545
  183SLPC  H11R20936   5.709   2.958   3.858 -0.1679 -2.5754  0.3905
  183SLPC  H11S20937   5.843   3.043   3.796 -0.6460 -0.4939  1.9739
  183SLPC  C21220938   5.869   2.836   3.785 -0.6536 -0.4330 -0.3187
  183SLPC  H12R20939   5.898   2.792   3.689  1.5322 -0.6453  0.3776
  183SLPC  C21320940   5.924   2.780   3.895 -0.0122 -0.3605 -0.1041
  183SLPC  H13R20941   5.971   2.681   3.896  0.4701 -0.1438  1.2896
  183SLPC  C21420942   5.904   2.832   4.032  0.1722  0.3439  0.2609
  183SLPC  H14R20943   5.830   2.914   4.023 -0.4307 -0.1642  0.5326
  183SLPC  H14S20944   6.000   2.880   4.064  0.1924 -1.1683  2.7268
  183SLPC  C21520945   5.862   2.735   4.149 -0.0835 -0.2672 -0.0402
  183SLPC  H15R20946   5.945   2.679   4.197 -0.1479 -0.1524  0.2059
  183SLPC  H15S20947   5.790   2.658   4.113 -0.1015 -0.0431 -0.4918
  183SLPC  C21620948   5.769   2.822   4.247 -0.2964  1.0213  0.2246
  183SLPC  H16R20949   5.700   2.886   4.188 -1.5706 -1.0374 -0.6388
  183SLPC  H16S20950   5.840   2.887   4.302  0.4557  1.1439 -0.8607
  183SLPC  C21720951   5.696   2.733   4.349 -0.4454 -0.7010 -0.3148
  183SLPC  H17R20952   5.654   2.649   4.290 -0.3560  0.5207 -2.1875
  183SLPC  H17S20953   5.618   2.800   4.391  0.7097  0.0578  0.7200
  183SLPC  C21820954   5.783   2.681   4.462 -0.4731 -0.1720 -0.9557
  183SLPC  H18R20955   5.722   2.617   4.529  0.6081  0.0161  0.2519
  183SLPC  H18S20956   5.818   2.759   4.533 -0.3792  1.6385 -2.8778
  183SLPC  H18T20957   5.870   2.621   4.429  0.8466  1.2275 -0.2054
  183SLPC   C3320958   6.023   2.358   2.991 -0.3666 -0.6554 -1.0897
  183SLPC   H3X20959   6.110   2.333   2.926 -0.1739 -2.3960 -0.2314
  183SLPC   H3Y20960   5.938   2.298   2.950 -1.0808  0.1246 -0.7832
  183SLPC   C3420961   6.049   2.326   3.140 -0.0790  0.2382  0.4586
  183SLPC   H4X20962   6.139   2.381   3.176  0.4103  1.9269 -2.9475
  183SLPC   H4Y20963   6.067   2.217   3.144 -1.0074  0.0772  0.5292
  183SLPC   C3520964   5.943   2.367   3.243  0.2102 -0.0061  0.1627
  183SLPC   H5X20965   5.850   2.324   3.200  1.2144 -2.7083  0.5135
  183SLPC   H5Y20966   5.923   2.476   3.235 -0.4391 -0.0998  0.3976
  183SLPC   C3620967   5.970   2.325   3.389 -0.0145 -0.2934  0.2945
  183SLPC   H6X20968   6.075   2.341   3.418 -0.3992  1.2232  0.9763
  183SLPC   H6Y20969   5.954   2.216   3.398  1.1365 -0.3217  2.3778
  183SLPC   C3720970   5.887   2.391   3.508 -0.2321 -0.1002  1.2942
  183SLPC   H7X20971   5.779   2.368   3.499 -0.0008 -0.4919 -1.0445
  183SLPC   H7Y20972   5.905   2.500   3.507 -2.1460  0.2773  2.2714
  183SLPC   C3820973   5.947   2.346   3.640  0.3367 -0.4040  0.8778
  183SLPC   H8X20974   6.058   2.356   3.633  0.4365 -1.6151  0.4466
  183SLPC   H8Y20975   5.926   2.237   3.642  0.2030 -0.3833  0.5408
  183SLPC   C3920976   5.884   2.411   3.759  0.4041  0.5738  0.5031
  183SLPC   H9X20977   5.777   2.382   3.765  0.7028 -0.4180  1.1939
  183SLPC   H9Y20978   5.888   2.522   3.755 -1.8280  0.6619 -0.8625
  183SLPC  C31020979   5.956   2.371   3.892 -0.5091 -0.1037  0.8445
  183SLPC  H10X20980   6.046   2.433   3.910 -0.3153  0.1635 -0.8635
  183SLPC  H10Y20981   5.984   2.264   3.897 -1.1086 -0.3317 -0.3020
  183SLPC  C31120982   5.851   2.386   4.008  0.1336 -0.3213 -0.5976
  183SLPC  H11X20983   5.776   2.310   3.977  1.4112 -1.9448  0.1534
  183SLPC  H11Y20984   5.807   2.488   4.016  4.3020  1.6188  0.4798
  183SLPC  C31220985   5.910   2.342   4.144  0.6672 -0.0221 -0.0387
  183SLPC  H12X20986   5.999   2.404   4.168  0.2380  0.8275 -0.5731
  183SLPC  H12Y20987   5.948   2.239   4.130 -1.1032 -0.9315  1.3329
  183SLPC  C31320988   5.805   2.329   4.262 -0.5561  0.4555 -0.1443
  183SLPC  H13X20989   5.715   2.282   4.217  0.3105 -1.6259  0.1691
  183SLPC  H13Y20990   5.783   2.431   4.299 -0.8052 -0.2389  1.7631
  183SLPC  C31420991   5.843   2.228   4.378 -0.3012 -0.0354 -0.0079
  183SLPC  H14X20992   5.773   2.255   4.459 -0.7897 -2.0524  0.2900
  183SLPC  H14Y20993   5.947   2.253   4.409 -1.1267  3.2719  0.5444
  183SLPC  C31520994   5.830   2.077   4.353 -0.2687 -0.0438 -0.4739
  183SLPC  H15X20995   5.851   2.024   4.449 -0.7089  2.3958  1.0567
  183SLPC  H15Y20996   5.915   2.050   4.286 -0.4884 -1.1794 -0.3153
  183SLPC  C31620997   5.693   2.030   4.297 -0.1440  0.4841 -0.0947
  183SLPC  H16X20998   5.712   1.930   4.253  1.0310 -0.0235  1.4576
  183SLPC  H16Y20999   5.669   2.094   4.210 -1.1101  1.5058  0.8939
  183SLPC  C31721000   5.583   2.011   4.406  0.1526 -0.0303  0.3739
  183SLPC  H17X21001   5.488   1.995   4.353 -0.4317 -1.3864  1.7698
  183SLPC  H17Y21002   5.571   2.093   4.481  0.8025  1.0561 -0.6797
  183SLPC  C31821003   5.612   1.896   4.495 -0.8053  0.0311  0.2272
  183SLPC  H18X21004   5.642   1.805   4.437  0.2507  0.8566 -0.5685
  183SLPC  H18Y21005   5.524   1.878   4.560  0.0278  0.0476  1.3866
  183SLPC  H18Z21006   5.697   1.920   4.562  0.1785 -1.0207 -0.5928
  184SLPC     N21007   3.269   2.222   2.718 -0.3472 -0.7185  0.6745
  184SLPC   C1321008   3.286   2.292   2.851 -0.5252  0.6225 -0.1333
  184SLPC  H13A21009   3.288   2.221   2.931  0.7488  0.3294 -0.3984
  184SLPC  H13B21010   3.372   2.356   2.864  0.2178 -0.5587  0.9370
  184SLPC  H13C21011   3.198   2.348   2.881 -1.3081 -1.2795  1.3232
  184SLPC   C1421012   3.250   2.326   2.614  0.9367 -0.4404 -0.0521
  184SLPC  H14A21013   3.338   2.377   2.577 -1.0830  2.3773 -1.2974
  184SLPC  H14B21014   3.219   2.286   2.519 -3.6256 -1.3446  1.5682
  184SLPC  H14C21015   3.176   2.401   2.636  0.6396 -0.6678 -0.2719
  184SLPC   C1521016   3.149   2.142   2.729  0.0861  0.7870  0.5376
  184SLPC  H15A21017   3.078   2.179   2.801  0.5392 -1.7113  2.4273
  184SLPC  H15B21018   3.096   2.105   2.643 -2.8710 -0.6620  2.8016
  184SLPC  H15C21019   3.182   2.059   2.790  0.1605  1.8932  2.0559
  184SLPC   C1221020   3.392   2.132   2.688  0.2824  0.1915  0.4194
  184SLPC  H12A21021   3.471   2.195   2.649 -0.1483 -0.4148 -1.4977
  184SLPC  H12B21022   3.366   2.071   2.604 -1.0965  2.6625 -1.0686
  184SLPC   C1121023   3.434   2.041   2.809  0.1626  0.0076  0.0800
  184SLPC  H11A21024   3.470   2.099   2.896  1.1366 -0.7418  0.1950
  184SLPC  H11B21025   3.525   1.984   2.782  0.4342 -0.3518  1.6751
  184SLPC     P21026   3.302   1.818   2.769  0.1077 -0.1154  0.1646
  184SLPC   O1321027   3.160   1.779   2.779 -0.2075  1.1345  0.2980
  184SLPC   O1421028   3.355   1.832   2.633 -0.3810 -0.0757 -0.2102
  184SLPC   O1221029   3.329   1.954   2.857  0.1741 -0.0272 -0.0274
  184SLPC   O1121030   3.391   1.717   2.854 -0.7284 -0.1230 -0.7396
  184SLPC    C121031   3.344   1.657   2.967 -0.0427 -0.1291 -0.4106
  184SLPC    HA21032   3.235   1.637   2.960  0.2643 -1.4938 -2.0911
  184SLPC    HB21033   3.385   1.553   2.968 -0.0438 -0.1579 -1.6911
  184SLPC    C221034   3.372   1.741   3.092 -0.7049 -0.4056 -0.9777
  184SLPC    HS21035   3.317   1.836   3.073 -1.3810 -0.5449  0.2014
  184SLPC   O2121036   3.512   1.765   3.121  0.3975  0.3191  0.5391
  184SLPC   C2121037   3.541   1.854   3.216 -0.3552 -0.1966 -0.0238
  184SLPC   O2221038   3.473   1.951   3.243 -0.3084  0.7282  0.1290
  184SLPC   C2221039   3.670   1.818   3.291  0.9419  0.9074 -0.1849
  184SLPC   H2R21040   3.665   1.707   3.290 -2.4837  0.8907  1.5443
  184SLPC   H2S21041   3.751   1.854   3.224  2.0314 -0.2081  0.4791
  184SLPC    C321042   3.296   1.679   3.212  0.2062 -0.5958  0.1506
  184SLPC    HX21043   3.352   1.587   3.241 -1.5156 -2.2955 -1.5877
  184SLPC    HY21044   3.194   1.642   3.185 -0.0535  0.4641 -0.3764
  184SLPC   O3121045   3.276   1.766   3.325 -0.0943  1.2691 -0.1176
  184SLPC   C3121046   3.175   1.846   3.317  0.3121  0.9874 -0.4023
  184SLPC   O3221047   3.089   1.843   3.230  0.1337 -0.2311  0.1408
  184SLPC   C3221048   3.163   1.922   3.445  0.2529  0.8209  0.0874
  184SLPC   H2X21049   3.257   1.935   3.505 -0.2738 -0.1896  1.1716
  184SLPC   H2Y21050   3.094   1.858   3.503  0.6522 -0.6126 -0.9890
  184SLPC   C2321051   3.670   1.880   3.437  0.1257  0.4768 -0.3080
  184SLPC   H3R21052   3.638   1.986   3.439 -0.3479  0.3309  0.5878
  184SLPC   H3S21053   3.774   1.888   3.473 -0.1002 -3.0524  1.6149
  184SLPC   C2421054   3.578   1.805   3.534 -0.1330 -0.0529  0.7251
  184SLPC   H4R21055   3.606   1.698   3.542  1.0438  0.0551 -1.3515
  184SLPC   H4S21056   3.473   1.819   3.503 -0.2455 -0.5397  0.8871
  184SLPC   C2521057   3.590   1.866   3.674  0.1101 -0.4296 -0.1125
  184SLPC   H5R21058   3.595   1.977   3.680  1.8675 -0.5404  1.3010
  184SLPC   H5S21059   3.680   1.836   3.731 -1.7507  1.9867  4.6904
  184SLPC   C2621060   3.474   1.820   3.761  0.6251  0.1676  0.2360
  184SLPC   H6R21061   3.485   1.710   3.776  1.9015  0.5297  2.2515
  184SLPC   H6S21062   3.375   1.832   3.711 -0.2038  0.9876  1.9892
  184SLPC   C2721063   3.478   1.860   3.908  0.0714  0.2928 -0.0160
  184SLPC   H7R21064   3.496   1.969   3.923 -1.2749  1.1059 -3.3218
  184SLPC   H7S21065   3.568   1.808   3.947 -0.3527  0.5379  1.3189
  184SLPC   C2821066   3.358   1.799   3.983 -0.0428 -0.1780 -0.5182
  184SLPC   H8R21067   3.374   1.768   4.089 -0.7888 -1.3592 -0.7414
  184SLPC   H8S21068   3.315   1.714   3.926 -1.5435  1.0357 -1.2669
  184SLPC   C2921069   3.240   1.897   3.983 -0.1901 -0.2500 -0.2589
  184SLPC   H9R21070   3.205   1.923   3.882 -0.9870  1.4355  0.4116
  184SLPC  C21021071   3.172   1.957   4.091 -0.3825  0.0618 -0.1600
  184SLPC  H10R21072   3.084   2.019   4.071 -1.3101 -0.4689  1.9894
  184SLPC  C21121073   3.198   1.933   4.237  0.1549 -0.5556 -0.4277
  184SLPC  H11R21074   3.175   2.024   4.297 -0.5474 -0.0415 -1.4556
  184SLPC  H11S21075   3.309   1.935   4.237  0.2622 -2.6723  1.1328
  184SLPC  C21221076   3.169   1.799   4.291 -0.6755 -0.0399 -0.6202
  184SLPC  H12R21077   3.154   1.716   4.221 -0.2859  0.2787 -1.0830
  184SLPC  C21321078   3.170   1.755   4.422  0.7254 -0.3688 -0.7502
  184SLPC  H13R21079   3.133   1.655   4.448 -1.5828  0.6642  0.2628
  184SLPC  C21421080   3.193   1.846   4.547  0.2307  0.8589 -0.1056
  184SLPC  H14R21081   3.126   1.934   4.547 -0.1111  0.6005  0.2461
  184SLPC  H14S21082   3.297   1.884   4.539  1.4534 -1.3881  3.0776
  184SLPC  C21521083   3.164   1.782   4.688 -1.6168 -0.0195  0.6916
  184SLPC  H15R21084   3.213   1.682   4.689  0.8209  1.0893  1.3327
  184SLPC  H15S21085   3.057   1.763   4.710 -0.9227 -2.2804  2.5962
  184SLPC  C21621086   3.223   1.858   4.810 -0.8774 -0.1478 -0.0269
  184SLPC  H16R21087   3.322   1.906   4.799 -0.4081 -1.3119 -1.2022
  184SLPC  H16S21088   3.238   1.793   4.899  0.8905  1.0150  0.5728
  184SLPC  C21721089   3.127   1.967   4.856  0.6579 -0.5948  0.1463
  184SLPC  H17R21090   3.027   1.919   4.856 -1.0582  2.5413 -3.1200
  184SLPC  H17S21091   3.128   2.046   4.778  0.6188 -0.0279  0.7215
  184SLPC  C21821092   3.151   2.024   4.999  0.3408  0.4376  0.4734
  184SLPC  H18R21093   3.238   2.092   4.990  0.2408  0.3994 -0.9610
  184SLPC  H18S21094   3.163   1.953   5.084  0.4816 -0.5746 -0.3761
  184SLPC  H18T21095   3.070   2.093   5.030 -0.4795 -0.5148  0.4904
  184SLPC   C3321096   3.102   2.061   3.434 -0.2529 -0.6718 -0.3129
  184SLPC   H3X21097   3.011   2.063   3.370  0.5058 -1.3367 -1.4448
  184SLPC   H3Y21098   3.175   2.132   3.388 -0.4003 -0.1890  0.1789
  184SLPC   C3421099   3.067   2.120   3.574 -0.3242  0.7093  0.1141
  184SLPC   H4X21100   3.153   2.107   3.643 -0.4331 -2.1600 -0.1565
  184SLPC   H4Y21101   2.982   2.073   3.629  1.4731 -2.7384  0.2299
  184SLPC   C3521102   3.034   2.271   3.563  0.7682 -0.1790 -0.3330
  184SLPC   H5X21103   2.960   2.279   3.481 -1.2487  0.1577  1.4243
  184SLPC   H5Y21104   3.124   2.326   3.528  0.1229  2.4591  1.8367
  184SLPC   C3621105   2.985   2.330   3.689 -0.6388 -0.3513 -0.6351
  184SLPC   H6X21106   2.991   2.260   3.776 -1.3581  0.6474  0.2456
  184SLPC   H6Y21107   2.878   2.358   3.675 -0.3355  0.6563 -0.9663
  184SLPC   C3721108   3.056   2.466   3.708 -0.1932 -0.3274  0.5680
  184SLPC   H7X21109   3.016   2.531   3.627 -1.3249  0.5860  1.8073
  184SLPC   H7Y21110   3.166   2.465   3.697 -0.2491  0.3506 -0.1991
  184SLPC   C3821111   3.020   2.529   3.843 -0.6354  0.5185  0.4585
  184SLPC   H8X21112   2.910   2.539   3.849 -0.5041  1.6813  1.4491
  184SLPC   H8Y21113   3.064   2.630   3.834 -0.4158  0.3085 -1.1807
  184SLPC   C3921114   3.071   2.437   3.958  0.5304 -1.0528 -0.0584
  184SLPC   H9X21115   3.174   2.399   3.944  0.7392 -0.2841 -0.6468
  184SLPC   H9Y21116   3.002   2.351   3.978 -0.0848 -0.2429  1.5503
  184SLPC  C31021117   3.084   2.511   4.092  0.3322 -0.3761  0.2973
  184SLPC  H10X21118   3.004   2.589   4.094  1.1685  0.4818  1.2692
  184SLPC  H10Y21119   3.173   2.576   4.081 -0.2596  0.5040  0.5833
  184SLPC  C31121120   3.093   2.415   4.214 -0.2086 -0.6464  0.3067
  184SLPC  H11X21121   3.177   2.344   4.197 -0.2256 -1.3923  2.8792
  184SLPC  H11Y21122   2.990   2.374   4.226 -0.3518 -1.3131 -2.4991
  184SLPC  C31221123   3.124   2.504   4.341 -0.1286  1.1338  0.7519
  184SLPC  H12X21124   3.038   2.574   4.336 -2.1137 -1.2674 -1.4690
  184SLPC  H12Y21125   3.215   2.563   4.318 -0.0044  0.6159 -0.1493
  184SLPC  C31321126   3.123   2.423   4.472  0.7200 -1.0193  0.2659
  184SLPC  H13X21127   3.053   2.339   4.454  0.7619 -0.8820 -0.5499
  184SLPC  H13Y21128   3.090   2.490   4.555  0.7248 -0.6449 -0.0335
  184SLPC  C31421129   3.261   2.373   4.517  0.8271 -0.3121 -0.1928
  184SLPC  H14X21130   3.328   2.460   4.504  1.4232 -0.8642 -0.9660
  184SLPC  H14Y21131   3.292   2.288   4.451 -3.0947 -3.7670  1.9176
  184SLPC  C31521132   3.257   2.323   4.661 -0.1716  0.0706  0.3143
  184SLPC  H15X21133   3.191   2.233   4.663 -0.9134  0.5957 -0.2724
  184SLPC  H15Y21134   3.202   2.405   4.712 -1.8707 -1.3038  0.7851
  184SLPC  C31621135   3.393   2.295   4.727 -0.4348  0.2842  0.4204
  184SLPC  H16X21136   3.462   2.254   4.651  1.2480  3.3871  0.1292
  184SLPC  H16Y21137   3.387   2.219   4.808  0.4394 -0.0757  0.1532
  184SLPC  C31721138   3.470   2.423   4.761 -0.2328 -0.3988  0.0095
  184SLPC  H17X21139   3.413   2.478   4.838  0.9561  2.6207 -1.1193
  184SLPC  H17Y21140   3.473   2.487   4.670 -2.5540 -3.3227 -2.3598
  184SLPC  C31821141   3.614   2.412   4.817 -0.1563  0.1673 -0.0644
  184SLPC  H18X21142   3.680   2.358   4.744  1.6870  1.2747  0.7091
  184SLPC  H18Y21143   3.617   2.353   4.911  1.3544 -0.2570 -0.3373
  184SLPC  H18Z21144   3.653   2.515   4.831 -2.5700  1.2488 -0.8514
  185POPC     N21145   0.568   4.803   7.213 -0.8332 -0.0955  0.2785
  185POPC   C1221146   0.704   4.876   7.203  1.2874 -0.9765  0.0842
  185POPC  H12A21147   0.745   4.897   7.301 -0.1767 -0.6759  0.6674
  185POPC  H12B21148   0.698   4.976   7.164  1.1041 -0.5374  1.1900
  185POPC   C1321149   0.579   4.691   7.316  0.0843  0.3087 -0.7611
  185POPC  H13A21150   0.565   4.719   7.420  1.6671 -1.5868  0.0316
  185POPC  H13B21151   0.521   4.608   7.281  0.3502 -0.3420  0.2973
  185POPC  H13C21152   0.676   4.644   7.315  0.0357  0.2130 -0.8800
  185POPC   C1421153   0.458   4.893   7.257 -0.9010  0.2662 -0.3231
  185POPC  H14A21154   0.496   4.968   7.325  0.4080 -0.9256  0.3068
  185POPC  H14B21155   0.405   4.946   7.179 -0.4283  2.8938  1.0201
  185POPC  H14C21156   0.385   4.842   7.318 -1.4877 -0.0801 -1.2938
  185POPC   C1521157   0.520   4.737   7.092 -0.2361  0.6802  0.0277
  185POPC  H15A21158   0.422   4.703   7.121 -0.5045  1.6862  0.3293
  185POPC  H15B21159   0.588   4.657   7.067 -0.2855  0.6726 -0.0829
  185POPC  H15C21160   0.525   4.809   7.012  1.7342  1.1796  0.5230
  185POPC   C1121161   0.814   4.803   7.129  0.2472  0.8778  0.0756
  185POPC  H11A21162   0.892   4.876   7.100  0.1838  1.0332  0.2908
  185POPC  H11B21163   0.782   4.754   7.035 -0.9685 -2.6771  2.1114
  185POPC     P21164   0.901   4.561   7.188  0.3129  0.0666  0.2896
  185POPC   O1321165   0.876   4.489   7.315  0.1745  0.6383  0.4295
  185POPC   O1421166   1.031   4.538   7.118  0.2487 -0.2805 -0.5587
  185POPC   O1221167   0.887   4.720   7.216 -0.0653  0.6513 -0.4142
  185POPC   O1121168   0.779   4.534   7.092 -0.1876  0.4348  0.2336
  185POPC    C121169   0.739   4.405   7.062 -0.6006  0.8691 -0.7510
  185POPC    HA21170   0.643   4.369   7.104  0.4425 -1.7241 -0.3477
  185POPC    HB21171   0.819   4.334   7.092 -0.2298  0.3680 -2.7816
  185POPC    C221172   0.726   4.384   6.909 -0.3126 -0.0436 -0.2325
  185POPC    HS21173   0.723   4.273   6.910  0.9803 -0.1380  2.1403
  185POPC   O2121174   0.823   4.447   6.825  0.7660  0.3448  0.1651
  185POPC   C2121175   0.934   4.376   6.826  0.5618  0.6420  0.6432
  185POPC   O2221176   0.948   4.266   6.877  0.7993  0.2418  0.4880
  185POPC   C2221177   1.043   4.448   6.755  0.4116  0.0080  0.0415
  185POPC   H2R21178   1.122   4.473   6.830 -0.2028  1.6469  0.1752
  185POPC   H2S21179   1.012   4.546   6.715  0.9625  2.0674  4.1083
  185POPC    C321180   0.592   4.431   6.847 -1.0378  0.0848 -0.2446
  185POPC    HX21181   0.608   4.541   6.850  0.4587 -0.1212  0.6901
  185POPC    HY21182   0.504   4.412   6.912 -1.3983  0.1002 -0.7302
  185POPC   O3121183   0.565   4.385   6.710 -0.1568 -0.0867  0.0782
  185POPC   C3121184   0.502   4.268   6.701  1.2220  0.2886  0.2691
  185POPC   O3221185   0.490   4.189   6.793  0.4069 -0.6046  0.0045
  185POPC   C3221186   0.448   4.246   6.559 -0.1312  0.6949  0.2975
  185POPC   H2X21187   0.353   4.302   6.544 -1.8232 -2.1555 -0.4996
  185POPC   H2Y21188   0.433   4.136   6.556  0.5387  0.5126  2.2512
  185POPC   C2321189   1.105   4.356   6.642  0.0038 -0.3775 -0.1971
  185POPC   H3R21190   1.113   4.249   6.670  0.7933 -0.4207 -0.5442
  185POPC   H3S21191   1.211   4.390   6.636 -0.2356  0.7085  1.2420
  185POPC   C2421192   1.023   4.366   6.517  0.5997 -0.2665  0.3631
  185POPC   H4R21193   1.007   4.472   6.489 -0.2264 -1.3727 -4.0657
  185POPC   H4S21194   0.921   4.324   6.533 -0.9168  2.7354 -0.5465
  185POPC   C2521195   1.088   4.306   6.394 -0.0942  1.1959 -0.3131
  185POPC   H5R21196   1.118   4.199   6.406 -0.5261  1.0454 -0.5481
  185POPC   H5S21197   1.185   4.358   6.378  0.7772 -0.7968 -2.1181
  185POPC   C2621198   0.987   4.319   6.276  0.6394  0.2579  1.0000
  185POPC   H6R21199   0.965   4.427   6.269 -2.2818 -0.3638 -1.7131
  185POPC   H6S21200   0.891   4.267   6.295  0.3884  0.2939 -0.0949
  185POPC   C2721201   1.044   4.270   6.144 -0.3647  0.2150  0.2186
  185POPC   H7R21202   0.970   4.280   6.062 -2.8349 -3.3697  1.7678
  185POPC   H7S21203   1.058   4.160   6.147  0.2537  0.2770 -0.2773
  185POPC   C2821204   1.180   4.328   6.080 -0.0408 -0.9127 -0.1140
  185POPC   H8R21205   1.213   4.246   6.012  2.5505  0.0814 -0.1355
  185POPC   H8S21206   1.252   4.332   6.164  0.2003 -0.0393 -0.3591
  185POPC   C2921207   1.166   4.463   6.009  0.1904  0.3738  0.2973
  185POPC   H9121208   1.163   4.551   6.074  0.3812  2.1880 -2.0325
  185POPC  C21021209   1.162   4.490   5.884 -0.2337  0.0675  0.9373
  185POPC  H10121210   1.155   4.594   5.849  2.4628 -0.5487 -1.9460
  185POPC  C21121211   1.152   4.390   5.770  0.4919 -0.0786 -0.4993
  185POPC  H11R21212   1.086   4.415   5.684  0.2138  2.9423  0.4724
  185POPC  H11S21213   1.113   4.291   5.802 -1.2116  0.4075 -0.9588
  185POPC  C21221214   1.281   4.358   5.693  0.2487  0.4798  0.1394
  185POPC  H12R21215   1.351   4.313   5.766  0.0657  1.8519  1.1905
  185POPC  H12S21216   1.320   4.451   5.647 -0.8012  0.6274 -0.5014
  185POPC  C21321217   1.262   4.246   5.580  0.2897 -0.8079 -0.5832
  185POPC  H13R21218   1.201   4.286   5.497  0.8960  0.2242 -0.5464
  185POPC  H13S21219   1.203   4.168   5.632  2.0073 -3.0179 -1.7840
  185POPC  C21421220   1.392   4.193   5.534 -0.0689  0.3829  0.4216
  185POPC  H14R21221   1.443   4.186   5.633 -2.2257  0.1468  1.6001
  185POPC  H14S21222   1.445   4.259   5.462 -0.4918  0.6299  0.3345
  185POPC  C21521223   1.397   4.040   5.481  0.2088  0.2080  0.3380
  185POPC  H15R21224   1.388   3.966   5.563  1.3238 -2.7017 -1.9954
  185POPC  H15S21225   1.504   4.021   5.457  0.4841  2.0173 -0.0080
  185POPC  C21621226   1.317   4.003   5.358 -0.1823 -0.7194 -0.4558
  185POPC  H16R21227   1.359   4.056   5.270 -1.0394  0.5023 -0.1412
  185POPC  H16S21228   1.213   4.039   5.369  0.1414  0.4178 -0.9668
  185POPC  C21721229   1.318   3.854   5.336 -0.3536 -0.5145  0.0665
  185POPC  H17R21230   1.227   3.815   5.286 -0.3958 -0.5989  0.2067
  185POPC  H17S21231   1.331   3.809   5.437  0.3423  0.4274  0.4088
  185POPC  C21821232   1.440   3.787   5.266 -0.1467 -0.3045 -0.0662
  185POPC  H18R21233   1.531   3.802   5.328  0.9316 -0.5975 -1.5375
  185POPC  H18S21234   1.450   3.836   5.167 -0.7143 -0.1461 -0.0528
  185POPC  H18T21235   1.410   3.683   5.244 -0.3654 -0.2272 -0.1458
  185POPC   C3321236   0.550   4.293   6.457  0.0716  0.0327 -0.3669
  185POPC   H3X21237   0.641   4.231   6.466  1.3787  1.6061 -2.0981
  185POPC   H3Y21238   0.579   4.399   6.470  3.0264 -0.6398 -0.8329
  185POPC   C3421239   0.497   4.281   6.317  0.1152 -0.2788  0.7835
  185POPC   H4X21240   0.415   4.354   6.305  0.6330  0.0062 -1.2873
  185POPC   H4Y21241   0.455   4.177   6.317 -0.6562  0.0051 -0.7126
  185POPC   C3521242   0.600   4.289   6.203 -0.5019  0.2839 -0.8557
  185POPC   H5X21243   0.688   4.226   6.227  0.0807  1.7089  1.0053
  185POPC   H5Y21244   0.630   4.395   6.218  3.0250 -0.9230  2.1071
  185POPC   C3621245   0.550   4.255   6.068 -0.5057 -0.3824  0.2998
  185POPC   H6X21246   0.456   4.311   6.049  0.1270  0.8340  0.6344
  185POPC   H6Y21247   0.519   4.149   6.065 -0.6238 -0.3432  0.1563
  185POPC   C3721248   0.658   4.293   5.965  0.2324  0.4512  0.0124
  185POPC   H7X21249   0.763   4.267   5.991  0.0154 -0.8316 -0.3360
  185POPC   H7Y21250   0.654   4.403   5.955 -0.4661  0.3417 -1.1960
  185POPC   C3821251   0.630   4.241   5.827  0.7921  0.2673 -0.2031
  185POPC   H8X21252   0.520   4.249   5.813  0.8421 -2.1003 -3.1768
  185POPC   H8Y21253   0.646   4.131   5.827 -2.9406 -0.3993 -0.0170
  185POPC   C3921254   0.696   4.312   5.705 -0.1763  0.7697  0.1952
  185POPC   H9X21255   0.807   4.303   5.703 -0.2923 -0.8936 -0.2137
  185POPC   H9Y21256   0.681   4.422   5.701 -2.1958  0.5552  0.6812
  185POPC  C31021257   0.640   4.247   5.565 -0.5572  0.8398 -0.4001
  185POPC  H10X21258   0.530   4.246   5.575 -0.6151 -1.2798 -0.9250
  185POPC  H10Y21259   0.694   4.151   5.572  0.3976  1.4597  2.0097
  185POPC  C31121260   0.676   4.326   5.444 -0.7672  0.0106  0.0223
  185POPC  H11X21261   0.783   4.309   5.419 -0.6112  0.2652  0.5004
  185POPC  H11Y21262   0.660   4.435   5.456 -0.8211  0.0109 -0.0537
  185POPC  C31221263   0.594   4.276   5.319 -0.1190 -0.3679  0.1446
  185POPC  H12X21264   0.489   4.303   5.342  0.0893 -0.4946  1.3516
  185POPC  H12Y21265   0.613   4.167   5.313  0.1511 -0.2387 -3.7646
  185POPC  C31321266   0.627   4.346   5.187  0.0850  0.8827  0.3224
  185POPC  H13X21267   0.734   4.320   5.171 -0.3778 -2.2616  1.7248
  185POPC  H13Y21268   0.618   4.456   5.201  1.7987  1.3744 -1.7565
  185POPC  C31421269   0.529   4.295   5.076 -0.4124 -0.0678 -0.2046
  185POPC  H14X21270   0.430   4.337   5.103  0.5329  1.4735  1.0490
  185POPC  H14Y21271   0.522   4.184   5.077  2.0826 -0.2924  1.5758
  185POPC  C31521272   0.565   4.345   4.939  0.0015  0.7590  0.6123
  185POPC  H15X21273   0.489   4.307   4.868  1.2145  1.7401 -1.2894
  185POPC  H15Y21274   0.659   4.289   4.923  1.0138  2.2274  1.2197
  185POPC  C31621275   0.583   4.495   4.934 -0.1169 -0.5198 -0.1366
  185POPC  H16X21276   0.640   4.514   4.841 -0.2679 -1.0190 -0.3402
  185POPC  H16Y21277   0.636   4.537   5.022 -1.5010 -0.8714  0.9176
  185POPC  H16Z21278   0.481   4.535   4.913 -1.5621 -4.0041 -0.4782
  186POPC     N21279   4.552   6.841   6.891 -0.5251  0.3827 -0.8202
  186POPC   C1221280   4.409   6.854   6.837 -0.2975 -0.0439  0.3825
  186POPC  H12A21281   4.396   6.946   6.781  0.1336 -0.1762  0.0694
  186POPC  H12B21282   4.346   6.867   6.924 -0.8075 -1.7159  0.2891
  186POPC   C1321283   4.567   6.718   6.980 -0.1332 -0.6477  0.0600
  186POPC  H13A21284   4.541   6.631   6.921  1.4683 -0.6333 -0.7367
  186POPC  H13B21285   4.670   6.711   7.012  0.3491 -0.5565 -1.3833
  186POPC  H13C21286   4.505   6.728   7.068 -0.3384  1.1146 -0.2540
  186POPC   C1421287   4.649   6.826   6.777  0.8027 -1.4257  0.6515
  186POPC  H14A21288   4.744   6.782   6.803  2.9634  1.3994 -1.8533
  186POPC  H14B21289   4.596   6.776   6.698 -1.0262  1.3349 -0.0180
  186POPC  H14C21290   4.676   6.924   6.742 -1.0996 -0.7322  0.9717
  186POPC   C1521291   4.579   6.959   6.966  0.4276 -0.4591 -0.5227
  186POPC  H15A21292   4.533   6.955   7.064  1.0926  0.3973 -0.1561
  186POPC  H15B21293   4.526   7.041   6.920 -1.7646 -0.8208  1.2070
  186POPC  H15C21294   4.683   6.990   6.966  1.0030 -2.1198 -3.1211
  186POPC   C1121295   4.353   6.740   6.757  0.0854 -0.1120  0.0378
  186POPC  H11A21296   4.423   6.702   6.680  0.1469  2.0063 -0.9988
  186POPC  H11B21297   4.262   6.773   6.703  1.4560  0.7043 -1.8540
  186POPC     P21298   4.200   6.654   6.949  0.2104 -0.0226  0.1202
  186POPC   O1321299   4.170   6.799   6.953 -0.3635  0.5573  0.1500
  186POPC   O1421300   4.234   6.594   7.079  0.5041 -0.6157 -0.3702
  186POPC   O1221301   4.321   6.635   6.849 -0.0868 -0.4388 -0.6982
  186POPC   O1121302   4.073   6.575   6.896 -0.4100 -0.6788 -0.8638
  186POPC    C121303   4.075   6.503   6.773 -0.0647 -0.2854 -0.1981
  186POPC    HA21304   4.041   6.400   6.797  1.6814 -1.2393 -1.5415
  186POPC    HB21305   4.179   6.489   6.737  0.5062 -1.1996  1.6740
  186POPC    C221306   3.970   6.557   6.672 -0.0884  0.5226  1.1578
  186POPC    HS21307   3.930   6.468   6.618  0.3681  0.3122  1.1633
  186POPC   O2121308   4.032   6.656   6.585 -0.0254  0.4164 -0.1799
  186POPC   C2121309   4.093   6.614   6.476  0.0040 -0.0303  0.2731
  186POPC   O2221310   4.105   6.498   6.444  0.6317 -0.3545  0.4538
  186POPC   C2221311   4.153   6.737   6.406 -0.4286 -0.1014  0.1094
  186POPC   H2R21312   4.260   6.717   6.387 -0.0830  0.7154  1.1014
  186POPC   H2S21313   4.140   6.820   6.480 -0.9842 -0.3019  0.2460
  186POPC    C321314   3.860   6.623   6.752  0.8505  0.3342  0.5884
  186POPC    HX21315   3.893   6.726   6.778 -1.9502  0.9053  2.2065
  186POPC    HY21316   3.847   6.564   6.845 -3.2852 -2.9352 -1.7377
  186POPC   O3121317   3.730   6.625   6.690 -0.2699  0.0100  0.8974
  186POPC   C3121318   3.706   6.728   6.628  0.4945 -0.1505  0.5144
  186POPC   O3221319   3.769   6.831   6.616 -0.4415 -0.3127 -0.0369
  186POPC   C3221320   3.565   6.712   6.576  0.7044  0.0459 -0.2751
  186POPC   H2X21321   3.487   6.735   6.652  1.3700  2.6011 -0.2537
  186POPC   H2Y21322   3.559   6.610   6.534 -0.9083 -0.2481  0.5799
  186POPC   C2321323   4.094   6.769   6.270  0.7083  0.7365 -0.0197
  186POPC   H3R21324   4.100   6.675   6.211  1.3655  0.0842  1.0476
  186POPC   H3S21325   4.149   6.855   6.227 -0.7820  0.9600 -1.5978
  186POPC   C2421326   3.946   6.821   6.277  0.4764 -0.3288  0.2949
  186POPC   H4R21327   3.942   6.893   6.361  1.9540 -0.1941  0.2815
  186POPC   H4S21328   3.878   6.736   6.298 -1.0329  0.7567 -0.1148
  186POPC   C2521329   3.895   6.903   6.155 -0.3756  0.6562 -0.6640
  186POPC   H5R21330   3.971   6.980   6.128  1.5328 -0.4705  1.1879
  186POPC   H5S21331   3.800   6.953   6.180  0.0359  0.8062  0.6528
  186POPC   C2621332   3.872   6.811   6.035 -0.7347 -1.0438  0.4700
  186POPC   H6R21333   3.782   6.749   6.057 -2.1733  1.8411  3.4536
  186POPC   H6S21334   3.959   6.751   6.000 -0.7695 -0.9615  0.2365
  186POPC   C2721335   3.831   6.896   5.913  0.8884 -0.4632 -0.3949
  186POPC   H7R21336   3.909   6.973   5.892  0.9068 -0.4475 -0.2722
  186POPC   H7S21337   3.736   6.947   5.938  0.3325 -0.7047 -1.9247
  186POPC   C2821338   3.794   6.804   5.793 -0.4038  0.4655 -1.2711
  186POPC   H8R21339   3.713   6.832   5.723 -0.9197 -2.7248 -2.0998
  186POPC   H8S21340   3.761   6.708   5.837  0.4755  0.2228 -1.1083
  186POPC   C2921341   3.926   6.780   5.722  0.3447  0.1601 -0.0371
  186POPC   H9121342   3.993   6.711   5.775 -2.2358 -2.2216  0.3806
  186POPC  C21021343   3.958   6.806   5.592 -0.6976  0.4140 -0.4867
  186POPC  H10121344   4.058   6.779   5.557  0.5065 -0.0164  2.8574
  186POPC  C21121345   3.878   6.883   5.489  0.3163 -0.3272  0.0661
  186POPC  H11R21346   3.948   6.955   5.441  1.4617 -1.8381 -0.6360
  186POPC  H11S21347   3.789   6.931   5.534 -1.8006 -1.4484 -2.6140
  186POPC  C21221348   3.827   6.798   5.371 -0.5226  0.3497  0.5600
  186POPC  H12R21349   3.774   6.861   5.296 -1.5650  1.4896  2.1658
  186POPC  H12S21350   3.767   6.709   5.399  2.2109 -1.4425  1.0615
  186POPC  C21321351   3.942   6.731   5.289 -0.2085  0.6124 -0.0523
  186POPC  H13R21352   3.974   6.635   5.333 -1.1590  0.6026  0.6606
  186POPC  H13S21353   4.036   6.790   5.293  2.3715 -3.1934 -0.5859
  186POPC  C21421354   3.911   6.701   5.139 -0.2825 -0.0688  0.0694
  186POPC  H14R21355   3.997   6.645   5.097  1.1066  1.4239  0.8310
  186POPC  H14S21356   3.900   6.797   5.084 -3.0273 -0.4545 -0.2075
  186POPC  C21521357   3.785   6.618   5.113  0.1657  0.2838 -0.0326
  186POPC  H15R21358   3.704   6.692   5.097 -1.2037 -1.3363 -1.0524
  186POPC  H15S21359   3.760   6.556   5.202  0.9554  0.8808  0.6194
  186POPC  C21621360   3.796   6.530   4.991  0.3733  0.0213  1.1028
  186POPC  H16R21361   3.720   6.449   4.998 -1.6997  1.4884 -1.9200
  186POPC  H16S21362   3.894   6.478   4.988  0.2867 -0.1552 -1.4261
  186POPC  C21721363   3.767   6.611   4.859 -0.2186  0.3675 -0.0126
  186POPC  H17R21364   3.852   6.680   4.842  0.0837  0.9868  3.3068
  186POPC  H17S21365   3.677   6.665   4.894 -0.4808 -0.9489  1.4355
  186POPC  C21821366   3.733   6.529   4.734 -0.4380 -0.0081  0.2083
  186POPC  H18R21367   3.690   6.595   4.655 -0.9759  0.0850  0.5780
  186POPC  H18S21368   3.649   6.460   4.756  0.4685 -0.8337  1.2378
  186POPC  H18T21369   3.809   6.458   4.695  0.5825  1.3040 -0.2851
  186POPC   C3321370   3.526   6.806   6.457 -0.3283  0.0389  0.5467
  186POPC   H3X21371   3.571   6.907   6.466  0.5209 -0.0921 -1.5649
  186POPC   H3Y21372   3.416   6.819   6.453 -0.7880 -2.8804  1.0957
  186POPC   C3421373   3.570   6.746   6.323 -0.1546  0.0404  0.5802
  186POPC   H4X21374   3.668   6.697   6.336 -0.5394 -1.4909 -1.6691
  186POPC   H4Y21375   3.585   6.831   6.252 -0.7320 -1.8713 -2.0029
  186POPC   C3521376   3.483   6.645   6.250  0.1379  0.3029  0.3736
  186POPC   H5X21377   3.376   6.649   6.279  0.4091  1.4726  1.2932
  186POPC   H5Y21378   3.506   6.540   6.275 -1.8604 -0.3988 -0.5160
  186POPC   C3621379   3.476   6.673   6.098  0.1171  0.5291 -0.2215
  186POPC   H6X21380   3.577   6.671   6.051 -0.1578 -2.9257 -0.8752
  186POPC   H6Y21381   3.433   6.774   6.084  1.4713  1.9109  3.8441
  186POPC   C3721382   3.390   6.566   6.023 -0.6549  0.2709 -0.1068
  186POPC   H7X21383   3.283   6.592   6.027 -1.1491 -1.6920  0.8742
  186POPC   H7Y21384   3.405   6.470   6.078  0.2668 -0.9686 -2.3704
  186POPC   C3821385   3.425   6.530   5.882  0.6070  0.5354  0.2638
  186POPC   H8X21386   3.420   6.420   5.874 -0.9413  0.4208  2.0066
  186POPC   H8Y21387   3.524   6.578   5.869  0.0305  1.5794 -0.3925
  186POPC   C3921388   3.336   6.595   5.770  0.0933 -0.0962 -0.1972
  186POPC   H9X21389   3.392   6.612   5.676 -1.3748 -0.0203 -1.0787
  186POPC   H9Y21390   3.308   6.696   5.806  0.0105  0.6779 -2.3078
  186POPC  C31021391   3.219   6.507   5.730 -0.4489 -0.4546 -0.4011
  186POPC  H10X21392   3.147   6.571   5.675  2.4303  1.6388 -1.9790
  186POPC  H10Y21393   3.177   6.479   5.829  0.1932  0.0536  0.0198
  186POPC  C31121394   3.246   6.381   5.649  0.1671 -0.2781 -0.5910
  186POPC  H11X21395   3.323   6.323   5.705 -0.1678  0.1996  0.3907
  186POPC  H11Y21396   3.284   6.413   5.550 -0.0337  0.5811 -0.3994
  186POPC  C31221397   3.131   6.275   5.627 -0.3329  0.0950 -0.0427
  186POPC  H12X21398   3.082   6.265   5.726  0.8868  0.4646  0.6293
  186POPC  H12Y21399   3.183   6.183   5.592  0.3078  0.1188  0.8166
  186POPC  C31321400   3.013   6.325   5.538  0.5539  0.4567 -0.4714
  186POPC  H13X21401   3.039   6.379   5.444  0.1299 -0.7086 -1.2834
  186POPC  H13Y21402   2.941   6.388   5.594 -0.9042 -1.7548  0.2639
  186POPC  C31421403   2.939   6.205   5.465  0.0316  0.2575  0.1754
  186POPC  H14X21404   2.917   6.117   5.530  0.7140  0.0698  0.1524
  186POPC  H14Y21405   3.000   6.167   5.380 -1.0550 -1.8983  0.2918
  186POPC  C31521406   2.801   6.255   5.395 -0.1473  0.6169  1.1538
  186POPC  H15X21407   2.736   6.299   5.473  1.1250  1.1028  1.9761
  186POPC  H15Y21408   2.740   6.171   5.354 -0.0759  0.3992  1.4983
  186POPC  C31621409   2.829   6.330   5.262 -0.5246 -0.3931 -0.7070
  186POPC  H16X21410   2.893   6.270   5.195  2.7642  1.7017  0.3324
  186POPC  H16Y21411   2.886   6.421   5.292  1.1913 -1.1924 -1.4478
  186POPC  H16Z21412   2.735   6.363   5.211 -1.3235  0.9685  1.5031
  187POPC     N21413   3.986   5.298   2.529 -0.0175  0.7989  0.1898
  187POPC   C1221414   3.926   5.420   2.598 -0.0734 -0.3997  0.2761
  187POPC  H12A21415   3.857   5.376   2.669 -1.2843 -0.2452 -0.7724
  187POPC  H12B21416   3.874   5.471   2.518 -0.1647 -0.7475  0.1136
  187POPC   C1321417   4.053   5.321   2.402  0.2232 -0.2592 -0.0741
  187POPC  H13A21418   4.125   5.400   2.417 -0.0968  0.4184 -1.8858
  187POPC  H13B21419   4.102   5.238   2.353 -1.0858 -0.9221 -0.3034
  187POPC  H13C21420   3.987   5.374   2.335  1.4543 -0.5821 -1.6067
  187POPC   C1421421   4.070   5.234   2.628  0.1011  0.4467 -0.0974
  187POPC  H14A21422   4.085   5.131   2.602 -0.5798 -0.0167  1.2685
  187POPC  H14B21423   4.162   5.289   2.646  0.4481 -0.2205  0.2057
  187POPC  H14C21424   4.013   5.238   2.719 -0.7268  3.7043 -0.6078
  187POPC   C1521425   3.865   5.211   2.484 -0.7736  0.9312 -0.8015
  187POPC  H15A21426   3.907   5.134   2.422  1.1310  1.1703  0.1230
  187POPC  H15B21427   3.794   5.267   2.426 -3.9638  0.1786  2.0712
  187POPC  H15C21428   3.818   5.162   2.568 -0.9033 -3.5111 -3.1546
  187POPC   C1121429   4.031   5.522   2.661 -0.3959  0.0605  0.2213
  187POPC  H11A21430   3.973   5.612   2.692  0.2931  1.1533 -1.5337
  187POPC  H11B21431   4.101   5.562   2.585 -1.0285  3.3360  1.1966
  187POPC     P21432   4.023   5.463   2.906  0.2188  0.5486 -0.0465
  187POPC   O1321433   3.953   5.336   2.903  0.4667 -0.3171  0.4837
  187POPC   O1421434   3.946   5.586   2.933 -0.1239  0.2741 -0.4961
  187POPC   O1221435   4.108   5.470   2.772 -0.2010  0.0154  0.2353
  187POPC   O1121436   4.128   5.447   3.024 -0.2985  0.3099 -0.2882
  187POPC    C121437   4.249   5.516   3.013  0.7395 -0.3270  0.0542
  187POPC    HA21438   4.233   5.623   2.989 -0.2461 -0.2313  1.0854
  187POPC    HB21439   4.315   5.466   2.938  1.4298 -0.3552  0.6642
  187POPC    C221440   4.332   5.514   3.152 -0.2117 -0.4909 -0.0982
  187POPC    HS21441   4.433   5.545   3.118  0.8413 -1.7684  1.6722
  187POPC   O2121442   4.339   5.377   3.200 -0.2102 -0.3138  0.2406
  187POPC   C2121443   4.433   5.305   3.144 -0.1501 -0.5437 -0.4547
  187POPC   O2221444   4.512   5.334   3.054 -0.1717  0.1392  0.0467
  187POPC   C2221445   4.434   5.168   3.221  0.4718  0.4962 -0.1167
  187POPC   H2R21446   4.520   5.118   3.172  0.3017  2.7490 -3.0235
  187POPC   H2S21447   4.351   5.099   3.194  1.1949 -0.9654  1.2336
  187POPC    C321448   4.274   5.619   3.252 -0.3043 -0.1190 -0.6412
  187POPC    HX21449   4.166   5.602   3.268 -0.6632  3.0682  1.3664
  187POPC    HY21450   4.273   5.726   3.219  1.1392  0.7625  1.9262
  187POPC   O3121451   4.336   5.599   3.379  0.3218  0.1281 -0.7498
  187POPC   C3121452   4.466   5.613   3.395 -0.0840  0.3580 -0.1472
  187POPC   O3221453   4.544   5.662   3.314  0.4521  0.1480  0.2826
  187POPC   C3221454   4.497   5.556   3.537  0.0115 -1.0665 -0.1953
  187POPC   H2X21455   4.438   5.464   3.560 -0.1769 -1.0046 -0.4270
  187POPC   H2Y21456   4.469   5.633   3.613  0.9658 -0.3509 -0.5530
  187POPC   C2321457   4.463   5.172   3.371  0.2974 -0.1935 -0.7128
  187POPC   H3R21458   4.377   5.199   3.434  1.5529  4.5492 -0.6858
  187POPC   H3S21459   4.535   5.254   3.393  2.2460 -2.0174  0.1792
  187POPC   C2421460   4.537   5.045   3.415 -0.2918 -0.8130 -0.8223
  187POPC   H4R21461   4.614   5.015   3.341 -0.1932  1.5830 -1.8018
  187POPC   H4S21462   4.453   4.973   3.426  0.2317 -1.1090  1.7629
  187POPC   C2521463   4.604   5.071   3.553  0.0264 -0.0592  0.1555
  187POPC   H5R21464   4.524   5.104   3.622 -0.1784 -3.7211  1.9016
  187POPC   H5S21465   4.689   5.144   3.552 -1.1257  1.3231 -0.3430
  187POPC   C2621466   4.660   4.949   3.636  0.2741  0.1806 -0.5925
  187POPC   H6R21467   4.723   4.889   3.567 -1.1424 -1.3528 -0.6096
  187POPC   H6S21468   4.577   4.881   3.664  1.9431 -1.8777 -0.3457
  187POPC   C2721469   4.717   4.986   3.778  0.2316  0.7766  0.3792
  187POPC   H7R21470   4.716   4.896   3.843  0.4174  0.2560 -0.3200
  187POPC   H7S21471   4.645   5.056   3.825  1.3159  0.3897  2.7425
  187POPC   C2821472   4.864   5.037   3.761  0.0700  0.3986  0.2291
  187POPC   H8R21473   4.871   5.127   3.695  0.2881 -1.8116 -2.9922
  187POPC   H8S21474   4.927   4.954   3.723 -0.8988  0.3993 -1.5146
  187POPC   C2921475   4.912   5.073   3.900  0.4347 -1.1617 -0.2037
  187POPC   H9121476   4.888   5.178   3.922 -1.3928 -1.7867  0.9909
  187POPC  C21021477   4.977   4.993   3.984 -0.5592  0.2359 -0.2189
  187POPC  H10121478   5.011   5.027   4.083  2.2044 -2.1987 -0.2033
  187POPC  C21121479   5.009   4.859   3.963  0.0547  0.8151  0.7091
  187POPC  H11R21480   5.115   4.848   3.932 -0.6994 -2.2645 -1.3709
  187POPC  H11S21481   4.959   4.806   3.878 -0.5672  0.3407  1.3637
  187POPC  C21221482   4.975   4.774   4.087 -0.2149  0.0214 -0.4631
  187POPC  H12R21483   4.868   4.796   4.111  0.5840  2.7819  1.0953
  187POPC  H12S21484   5.031   4.813   4.175 -0.1949  0.4456 -0.6607
  187POPC  C21321485   4.998   4.618   4.065 -0.5581  0.1970 -0.6447
  187POPC  H13R21486   5.101   4.617   4.024 -0.2697  1.5339 -0.0160
  187POPC  H13S21487   4.925   4.571   3.996  0.4955 -2.1751 -0.2526
  187POPC  C21421488   4.989   4.527   4.190 -0.2752 -0.9704 -0.5614
  187POPC  H14R21489   5.074   4.556   4.255 -0.3265 -1.1692 -0.4063
  187POPC  H14S21490   5.017   4.425   4.155 -0.6634 -0.6966 -1.7238
  187POPC  C21521491   4.860   4.512   4.272  0.2056  0.3588  0.2535
  187POPC  H15R21492   4.787   4.460   4.206  0.5338  0.2650 -0.0370
  187POPC  H15S21493   4.809   4.609   4.289  0.8629  0.8701 -0.6221
  187POPC  C21621494   4.863   4.458   4.416 -0.0638  0.2133  0.4444
  187POPC  H16R21495   4.930   4.534   4.463  2.3025  0.3689 -2.8418
  187POPC  H16S21496   4.914   4.360   4.410  0.4273  0.5373 -1.2516
  187POPC  C21721497   4.724   4.451   4.475 -0.0567  0.2181 -0.2600
  187POPC  H17R21498   4.659   4.389   4.409 -0.0050 -1.0156  0.8114
  187POPC  H17S21499   4.696   4.558   4.478  1.5030  0.7591 -2.4875
  187POPC  C21821500   4.717   4.400   4.619 -0.0749  0.0741 -0.1670
  187POPC  H18R21501   4.693   4.291   4.621 -0.3824  0.1371 -0.3319
  187POPC  H18S21502   4.643   4.456   4.679  0.8257  0.9233  0.1760
  187POPC  H18T21503   4.813   4.416   4.672  1.1411 -1.6350 -1.7356
  187POPC   C3321504   4.650   5.531   3.550  0.2583  0.7252 -0.1727
  187POPC   H3X21505   4.710   5.612   3.502 -0.1101  0.3716 -1.2540
  187POPC   H3Y21506   4.675   5.435   3.500  0.6320  0.0325  1.2974
  187POPC   C3421507   4.679   5.519   3.699  0.0160  0.3910 -0.2622
  187POPC   H4X21508   4.623   5.433   3.741  0.4510 -0.9292 -2.2447
  187POPC   H4Y21509   4.653   5.611   3.756 -1.7238 -0.4935  0.4404
  187POPC   C3521510   4.825   5.467   3.722 -0.3118 -0.6971 -0.3555
  187POPC   H5X21511   4.900   5.512   3.653  0.9789 -1.3495  0.5863
  187POPC   H5Y21512   4.820   5.356   3.720 -0.1034 -0.7016 -2.4848
  187POPC   C3621513   4.879   5.499   3.860 -0.3928 -0.3399 -0.5633
  187POPC   H6X21514   4.915   5.604   3.854  0.4068 -0.5911 -0.2482
  187POPC   H6Y21515   4.968   5.435   3.871 -0.4516 -0.8944 -2.8673
  187POPC   C3721516   4.785   5.495   3.985 -0.1789  0.2289  0.0885
  187POPC   H7X21517   4.737   5.395   3.983  2.2061 -1.0017 -2.1724
  187POPC   H7Y21518   4.697   5.563   3.988 -1.0020 -0.7773  3.8999
  187POPC   C3821519   4.866   5.501   4.110 -1.6554 -0.0894  0.1401
  187POPC   H8X21520   4.911   5.602   4.112  1.0995 -1.2170 -0.2516
  187POPC   H8Y21521   4.953   5.432   4.110  0.8976  2.9192 -0.3796
  187POPC   C3921522   4.777   5.489   4.237 -1.4122  0.3943 -0.2651
  187POPC   H9X21523   4.734   5.387   4.248  0.6331 -0.4546  0.3254
  187POPC   H9Y21524   4.691   5.556   4.217 -0.5881  1.0246 -1.9055
  187POPC  C31021525   4.858   5.516   4.363 -0.0632 -0.0515  0.1187
  187POPC  H10X21526   4.905   5.617   4.363  0.1621 -0.1500 -0.6443
  187POPC  H10Y21527   4.946   5.449   4.358  0.3067  0.2699  1.7979
  187POPC  C31121528   4.756   5.492   4.476  0.5030  0.0209 -0.3034
  187POPC  H11X21529   4.719   5.388   4.475 -0.6887  0.4281 -0.1499
  187POPC  H11Y21530   4.660   5.548   4.471 -0.2066 -0.9753  1.2272
  187POPC  C31221531   4.816   5.524   4.616  0.9590 -0.4420  0.1770
  187POPC  H12X21532   4.852   5.629   4.619 -1.0553  0.3054  4.0517
  187POPC  H12Y21533   4.906   5.461   4.631  1.8667  0.5185 -0.9372
  187POPC  C31321534   4.715   5.522   4.732  0.1940  0.0717 -0.1677
  187POPC  H13X21535   4.652   5.431   4.721  2.5132 -1.8048  1.0413
  187POPC  H13Y21536   4.651   5.610   4.710 -1.4025 -1.1406 -0.5982
  187POPC  C31421537   4.779   5.532   4.871 -0.8028 -0.1463  0.1662
  187POPC  H14X21538   4.843   5.623   4.876 -2.0934  0.7352  1.4107
  187POPC  H14Y21539   4.852   5.448   4.879  0.5011  0.9967  0.6294
  187POPC  C31521540   4.663   5.533   4.972  0.6182  0.3121  0.0291
  187POPC  H15X21541   4.593   5.449   4.952  0.3974  0.3314  0.7287
  187POPC  H15Y21542   4.604   5.626   4.956  2.2366  1.3676 -0.0521
  187POPC  C31621543   4.693   5.537   5.121 -0.0255 -0.1472 -0.2737
  187POPC  H16X21544   4.604   5.556   5.185  0.8825  1.5859  0.5551
  187POPC  H16Y21545   4.755   5.628   5.136 -0.1429 -0.0437 -0.4145
  187POPC  H16Z21546   4.735   5.450   5.175 -0.6189  0.5095  1.3061
  188POPC     N21547   5.924   4.731   2.128 -0.0704  0.1763 -0.2543
  188POPC   C1221548   5.849   4.733   2.257 -0.5958 -0.3352  0.5934
  188POPC  H12A21549   5.746   4.710   2.234 -1.0533  2.1558 -0.2061
  188POPC  H12B21550   5.854   4.836   2.290  2.5322  0.6077 -2.2042
  188POPC   C1321551   5.954   4.586   2.086 -0.1742 -0.3791  0.3568
  188POPC  H13A21552   6.013   4.531   2.157 -1.1517 -0.9663  0.7224
  188POPC  H13B21553   5.868   4.525   2.064  1.0689 -1.5250 -1.7604
  188POPC  H13C21554   6.014   4.588   1.995 -0.5597 -1.2297  0.0737
  188POPC   C1421555   5.857   4.813   2.022 -0.0674  0.2331  0.0605
  188POPC  H14A21556   5.929   4.818   1.941 -0.5505 -1.3489 -0.5027
  188POPC  H14B21557   5.775   4.755   1.982 -0.5156  0.1384  1.0847
  188POPC  H14C21558   5.837   4.916   2.048  3.2551  0.5223  2.0245
  188POPC   C1521559   6.052   4.802   2.148 -0.2391 -0.1725  0.2174
  188POPC  H15A21560   6.049   4.910   2.156  0.1068  0.0215 -1.6802
  188POPC  H15B21561   6.118   4.781   2.064 -0.2947 -0.8572  0.3427
  188POPC  H15C21562   6.101   4.765   2.237  0.3730 -0.8937 -0.4085
  188POPC   C1121563   5.904   4.636   2.359 -0.3155 -0.5162 -0.1005
  188POPC  H11A21564   5.900   4.531   2.323  1.2036 -0.6006 -0.0610
  188POPC  H11B21565   5.834   4.634   2.446 -0.5522 -0.4464 -0.2908
  188POPC     P21566   6.079   4.670   2.552 -0.2088  0.0949  0.1829
  188POPC   O1321567   5.979   4.754   2.621  0.1079  0.1729 -0.5876
  188POPC   O1421568   6.220   4.709   2.570 -0.1323  0.3657 -0.0606
  188POPC   O1221569   6.038   4.663   2.399  0.7657  0.6479 -0.2125
  188POPC   O1121570   6.059   4.520   2.600  0.5673  0.2563  0.6915
  188POPC    C121571   6.164   4.435   2.642 -0.5727 -0.1127  0.1383
  188POPC    HA21572   6.266   4.468   2.614 -1.4998  1.0089 -2.2047
  188POPC    HB21573   6.158   4.338   2.589  0.6968 -0.6965  1.0147
  188POPC    C221574   6.161   4.417   2.796 -0.3113  0.6105 -0.7696
  188POPC    HS21575   6.224   4.327   2.811  2.1027  2.5413  1.8810
  188POPC   O2121576   6.037   4.408   2.859  0.3408  0.0348  0.1220
  188POPC   C2121577   5.977   4.289   2.845 -0.4652  0.2500 -0.3048
  188POPC   O2221578   6.006   4.199   2.764  0.0085 -0.6168 -0.7538
  188POPC   C2221579   5.867   4.289   2.945  0.8979  0.1374  0.6355
  188POPC   H2R21580   5.774   4.254   2.895  2.5277 -1.9385 -1.1746
  188POPC   H2S21581   5.855   4.387   2.995 -0.8949  0.2219  0.1160
  188POPC    C321582   6.257   4.524   2.868 -0.0256 -0.8085 -0.7800
  188POPC    HX21583   6.210   4.624   2.856  1.4410 -0.1072 -0.9745
  188POPC    HY21584   6.348   4.522   2.804 -1.1342  1.4986 -2.5811
  188POPC   O3121585   6.279   4.481   3.007 -0.3771  0.4873 -0.1195
  188POPC   C3121586   6.288   4.571   3.103  0.4180  0.2800  0.2100
  188POPC   O3221587   6.303   4.690   3.098  0.0988 -0.4641  0.2913
  188POPC   C3221588   6.289   4.482   3.232  0.4507 -0.3603 -0.6261
  188POPC   H2X21589   6.340   4.388   3.203  0.2497 -1.0890  1.2166
  188POPC   H2Y21590   6.180   4.467   3.248  0.5665 -0.3234  0.2377
  188POPC   C2321591   5.899   4.175   3.042  0.1637  0.3103 -0.5234
  188POPC   H3R21592   5.915   4.080   2.989 -1.0170 -0.5093  0.5241
  188POPC   H3S21593   5.814   4.160   3.113 -0.1113 -0.1483 -0.9467
  188POPC   C2421594   6.026   4.202   3.122  0.5433  0.1415  0.0774
  188POPC   H4R21595   6.023   4.300   3.175 -1.3918  0.4760 -0.6042
  188POPC   H4S21596   6.113   4.203   3.053 -0.3013  0.2160 -0.9916
  188POPC   C2521597   6.057   4.083   3.218 -0.2340 -0.2122  0.0355
  188POPC   H5R21598   6.165   4.099   3.238 -0.7605  1.9654  1.4776
  188POPC   H5S21599   6.036   3.985   3.170  1.4773 -0.8393  0.5028
  188POPC   C2621600   5.979   4.086   3.350 -0.6011 -0.2627  0.5360
  188POPC   H6R21601   5.888   4.023   3.340 -0.0585 -0.8463 -1.1290
  188POPC   H6S21602   5.953   4.190   3.380 -1.5860  0.2861 -1.9582
  188POPC   C2721603   6.073   4.028   3.455  0.1560  0.2216  0.2819
  188POPC   H7R21604   6.148   4.104   3.485  1.0535 -0.8949  0.9574
  188POPC   H7S21605   6.124   3.951   3.394  0.2642  1.4663 -1.2487
  188POPC   C2821606   5.998   3.971   3.581 -0.1547 -0.8266  0.0972
  188POPC   H8R21607   5.925   3.897   3.543 -0.8322 -1.4327  2.4670
  188POPC   H8S21608   5.939   4.053   3.626  0.3439  0.0078 -0.7165
  188POPC   C2921609   6.091   3.916   3.680 -0.5097  0.3333  0.3059
  188POPC   H9121610   6.186   3.873   3.644 -0.4038  1.6537 -1.0812
  188POPC  C21021611   6.071   3.921   3.809  0.1934 -0.1255  0.1064
  188POPC  H10121612   6.150   3.886   3.877 -0.9047  0.0713  1.5437
  188POPC  C21121613   5.953   3.974   3.886 -1.0794  0.3038 -0.0313
  188POPC  H11R21614   5.866   3.906   3.899 -2.0208  1.4671 -0.1472
  188POPC  H11S21615   5.896   4.058   3.841 -0.2151  1.3819  0.8306
  188POPC  C21221616   5.980   4.009   4.036  0.3197 -0.4292  0.2546
  188POPC  H12R21617   5.887   4.055   4.075  0.8857  0.0657  1.0344
  188POPC  H12S21618   6.060   4.086   4.032  0.9457 -1.0188  1.1787
  188POPC  C21321619   6.033   3.896   4.131  0.7179 -0.3344  0.8095
  188POPC  H13R21620   6.115   3.839   4.082 -0.0689 -1.2319  0.5006
  188POPC  H13S21621   5.952   3.821   4.146 -1.4156  1.7352  0.3192
  188POPC  C21421622   6.099   3.953   4.255  0.0490 -0.1961 -0.0051
  188POPC  H14R21623   6.033   4.029   4.301  0.0302  0.5171 -1.1814
  188POPC  H14S21624   6.191   4.013   4.239 -0.1332 -0.1981 -1.1105
  188POPC  C21521625   6.128   3.840   4.360  0.7403 -0.0527  0.5126
  188POPC  H15R21626   6.194   3.775   4.298 -1.0376 -0.6805 -0.8267
  188POPC  H15S21627   6.033   3.782   4.363 -0.4415  1.7221 -0.5787
  188POPC  C21621628   6.191   3.883   4.490  0.0804 -0.2122 -0.4625
  188POPC  H16R21629   6.127   3.962   4.535  0.5378 -1.1101  1.8755
  188POPC  H16S21630   6.287   3.932   4.463 -0.6085  0.4101 -1.8893
  188POPC  C21721631   6.194   3.772   4.597 -0.0712  0.8074 -0.9114
  188POPC  H17R21632   6.104   3.707   4.585 -0.8297  1.6228  0.1135
  188POPC  H17S21633   6.191   3.819   4.698  0.4718 -0.3512 -0.3332
  188POPC  C21821634   6.326   3.682   4.593 -0.6509 -0.3041  0.5132
  188POPC  H18R21635   6.399   3.712   4.671 -0.8540 -1.8929  1.3432
  188POPC  H18S21636   6.378   3.679   4.494 -2.4172 -1.4841 -0.4223
  188POPC  H18T21637   6.305   3.574   4.606 -0.3179 -0.3692  0.5171
  188POPC   C3321638   6.355   4.563   3.350  0.1860 -0.0009 -0.0317
  188POPC   H3X21639   6.289   4.650   3.367 -0.2050 -0.3948  0.5167
  188POPC   H3Y21640   6.456   4.598   3.320  0.1339  2.2515  2.1312
  188POPC   C3421641   6.349   4.477   3.477 -0.0986  0.2686  0.2458
  188POPC   H4X21642   6.427   4.508   3.550 -0.7603 -0.5874  1.3321
  188POPC   H4Y21643   6.362   4.370   3.450 -1.7341  0.5057 -1.6480
  188POPC   C3521644   6.224   4.486   3.564 -0.0868  0.1969 -0.3262
  188POPC   H5X21645   6.134   4.454   3.507 -0.6672  1.7439 -0.3422
  188POPC   H5Y21646   6.208   4.594   3.584 -0.2550  0.1335 -0.1105
  188POPC   C3621647   6.243   4.409   3.696 -0.6678 -0.1030  0.0763
  188POPC   H6X21648   6.331   4.455   3.745  1.3913 -1.2166 -2.3031
  188POPC   H6Y21649   6.257   4.299   3.685 -0.6345 -0.0118 -0.8779
  188POPC   C3721650   6.132   4.435   3.792  0.9535  0.5694  0.8706
  188POPC   H7X21651   6.037   4.403   3.744  0.0463  2.6917  1.1631
  188POPC   H7Y21652   6.123   4.545   3.796  0.8707  0.7371 -2.0439
  188POPC   C3821653   6.135   4.357   3.924  0.1498 -0.8139 -0.2496
  188POPC   H8X21654   6.218   4.401   3.983 -1.5975  0.7908  1.1816
  188POPC   H8Y21655   6.145   4.248   3.908 -0.1340 -1.7817  4.5405
  188POPC   C3921656   5.993   4.372   3.992  0.1924 -0.6858 -0.4847
  188POPC   H9X21657   6.008   4.339   4.097 -1.9451 -0.1880  0.0119
  188POPC   H9Y21658   5.925   4.299   3.943 -2.5688  0.3500  1.6148
  188POPC  C31021659   5.941   4.515   3.982  0.0241 -0.1709 -0.1068
  188POPC  H10X21660   5.937   4.559   3.880  0.4079  1.1119  0.4173
  188POPC  H10Y21661   6.008   4.588   4.032  0.1115  0.7547 -1.5207
  188POPC  C31121662   5.804   4.523   4.046 -0.0540 -0.0594 -0.2332
  188POPC  H11X21663   5.824   4.473   4.143  2.7048  2.2309  0.5217
  188POPC  H11Y21664   5.736   4.470   3.976  1.6585 -1.3918 -0.9808
  188POPC  C31221665   5.763   4.668   4.073  0.7083 -0.0803  0.3723
  188POPC  H12X21666   5.785   4.726   3.980  1.1374 -0.3801  0.2845
  188POPC  H12Y21667   5.827   4.695   4.160  2.9383  1.9170 -1.7340
  188POPC  C31321668   5.616   4.679   4.092 -0.0294 -0.9827 -0.2497
  188POPC  H13X21669   5.557   4.634   4.010 -0.0652 -1.0091 -0.2092
  188POPC  H13Y21670   5.585   4.786   4.100 -0.2495 -0.9762 -1.1094
  188POPC  C31421671   5.575   4.616   4.224 -0.3466  0.6382 -1.0023
  188POPC  H14X21672   5.624   4.665   4.311  0.8147 -0.5970 -0.9173
  188POPC  H14Y21673   5.605   4.508   4.221 -0.5106  0.5132  0.7024
  188POPC  C31521674   5.420   4.615   4.245 -0.7528 -0.0357 -0.5709
  188POPC  H15X21675   5.404   4.540   4.325 -0.7458 -0.4813 -0.9839
  188POPC  H15Y21676   5.373   4.575   4.152  0.1672 -1.8737 -0.2748
  188POPC  C31621677   5.361   4.755   4.283  0.7346 -0.0305  0.8615
  188POPC  H16X21678   5.413   4.785   4.376  1.2671  0.0069  0.5537
  188POPC  H16Y21679   5.252   4.750   4.301  0.0820 -0.4730 -2.5282
  188POPC  H16Z21680   5.375   4.823   4.196  1.2037  0.0216  0.9766
  189SAPI   C1221681   1.777   6.465   6.918  0.2241 -0.0871  0.0912
  189SAPI    H221682   1.736   6.477   6.815  1.5052 -0.4530 -0.4766
  189SAPI    O221683   1.909   6.427   6.893  0.3453  0.0099 -0.2032
  189SAPI   HO221684   1.902   6.358   6.827 -0.6619  0.4538 -0.5758
  189SAPI   C1321685   1.764   6.606   6.980 -0.0267  0.4267 -0.2667
  189SAPI    H321686   1.657   6.619   7.005  0.0991  0.0054  0.5298
  189SAPI    O321687   1.798   6.705   6.892 -0.7703  0.0074  0.0004
  189SAPI   HO321688   1.846   6.777   6.933 -0.1700  1.9494 -3.6528
  189SAPI   C1421689   1.841   6.615   7.106 -0.5230  0.9293 -0.2969
  189SAPI    H421690   1.945   6.598   7.072 -0.4715 -2.5610  1.2518
  189SAPI    O421691   1.824   6.743   7.168  0.3896  0.5439 -0.0362
  189SAPI   HO421692   1.908   6.780   7.195  1.4947 -0.3339 -2.0374
  189SAPI   C1521693   1.823   6.492   7.200 -0.8345  0.1082  0.0409
  189SAPI    H521694   1.744   6.529   7.269  0.2359  1.0027  0.8311
  189SAPI    O521695   1.937   6.469   7.280 -0.3974 -0.2168 -0.2689
  189SAPI   HO521696   1.951   6.552   7.327 -1.8558  0.9880 -1.8187
  189SAPI   C1621697   1.771   6.366   7.137  0.1443 -0.3273 -0.5398
  189SAPI    H621698   1.859   6.299   7.124 -0.3901 -0.9726 -0.8608
  189SAPI    O621699   1.696   6.292   7.235  0.8712 -0.6405  0.2488
  189SAPI   HO621700   1.605   6.321   7.242  0.9283 -0.6121  0.8910
  189SAPI   C1121701   1.700   6.373   7.003  0.0468  0.0963 -0.0256
  189SAPI    H121702   1.603   6.423   7.019 -0.0185  1.0768 -2.8179
  189SAPI     P21703   1.570   6.211   6.833 -0.1299  0.4649 -0.0460
  189SAPI   O1321704   1.452   6.295   6.867  0.4439  0.6113  0.4530
  189SAPI   O1421705   1.553   6.065   6.843  0.1803  0.1519 -0.0597
  189SAPI   O1221706   1.685   6.249   6.939 -1.0215  0.0355  0.3666
  189SAPI   O1121707   1.625   6.255   6.691 -0.5051  0.2155  0.4069
  189SAPI    C121708   1.620   6.164   6.573  0.0265  0.2326 -0.0182
  189SAPI    HA21709   1.553   6.076   6.585  0.5566  0.0110  1.4367
  189SAPI    HB21710   1.572   6.218   6.488 -2.1917  1.1278  1.7190
  189SAPI    C221711   1.760   6.107   6.522  0.2000 -0.1473 -0.3903
  189SAPI    HS21712   1.811   6.063   6.610  2.5889  1.1919 -1.0243
  189SAPI   O2121713   1.839   6.213   6.463 -0.6304  0.2157  0.4324
  189SAPI   C2121714   1.903   6.291   6.541  0.0360 -0.2388 -0.9341
  189SAPI   O2221715   1.940   6.267   6.656 -0.4530 -0.3938 -0.0937
  189SAPI   C2221716   1.936   6.422   6.471  0.2797  0.9070 -0.4479
  189SAPI   H2R21717   1.933   6.488   6.560 -0.4597 -0.5043  0.6194
  189SAPI   H2S21718   2.040   6.417   6.430  0.1894 -1.5707 -0.5427
  189SAPI    C321719   1.752   5.994   6.418 -0.0275 -0.0023 -0.4331
  189SAPI    HX21720   1.704   5.908   6.470  0.9367 -0.9392 -1.0443
  189SAPI    HY21721   1.853   5.952   6.395 -0.5801  0.0489 -3.3177
  189SAPI   O3121722   1.672   6.022   6.309 -0.3675  0.0918 -0.1348
  189SAPI   C3121723   1.717   5.970   6.198 -0.4393  0.9260  0.2091
  189SAPI   O3221724   1.790   5.871   6.189  0.1174  0.1266  0.9338
  189SAPI   C3221725   1.635   6.031   6.086 -0.0285  1.1814 -0.4466
  189SAPI   H2X21726   1.698   6.082   6.010 -0.7775 -1.7480 -3.2737
  189SAPI   H2Y21727   1.561   6.102   6.130 -2.4269  0.3793 -2.8967
  189SAPI   C2321728   1.833   6.463   6.367  0.5622 -0.0074 -0.3425
  189SAPI   H3R21729   1.739   6.474   6.424  0.6884 -0.2920 -0.0754
  189SAPI   H3S21730   1.836   6.403   6.274  0.0774 -1.2599  0.4353
  189SAPI   C2421731   1.867   6.603   6.320 -0.0205  0.1014 -0.2925
  189SAPI   H4R21732   1.968   6.599   6.273 -0.4635  0.8528 -1.3363
  189SAPI   H4S21733   1.879   6.657   6.417 -0.2081  0.5634 -0.5262
  189SAPI   C2521734   1.756   6.661   6.245  1.1803 -0.9441  0.4268
  189SAPI   H5R21735   1.655   6.631   6.278  0.3235 -0.2656 -1.4464
  189SAPI   C2621736   1.759   6.748   6.137  0.5376 -0.0713 -0.5093
  189SAPI   H6R21737   1.666   6.781   6.087  1.9068  4.3945 -0.5294
  189SAPI   C2721738   1.880   6.810   6.081 -0.4687 -0.0389  0.0914
  189SAPI   H7R21739   1.860   6.862   5.985 -0.7220  1.2684  0.8292
  189SAPI   H7S21740   1.953   6.728   6.063  0.0735  0.6494 -0.9097
  189SAPI   C2821741   1.940   6.912   6.175 -0.0354 -0.8963  0.2005
  189SAPI   H8R21742   1.955   6.872   6.277 -1.2540 -1.0856  0.3251
  189SAPI   C2921743   1.964   7.043   6.155 -0.5650  0.0917  0.3175
  189SAPI   H9R21744   1.989   7.105   6.243 -1.0039  0.2686  0.3236
  189SAPI  C21021745   1.959   7.122   6.025  0.0578 -0.0563 -0.3516
  189SAPI  H10R21746   1.893   7.209   6.041  0.4140  0.0575  0.5385
  189SAPI  H10S21747   1.906   7.060   5.949 -0.5868 -0.6154  0.5415
  189SAPI  C21121748   2.102   7.158   5.983 -0.1518  0.8493 -1.0556
  189SAPI  H11R21749   2.166   7.199   6.063 -1.9175 -0.9203  1.4346
  189SAPI  C21221750   2.153   7.153   5.860  0.2540  0.2379 -0.3984
  189SAPI  H12R21751   2.260   7.178   5.851  0.6878 -1.2724  0.2126
  189SAPI  C21321752   2.071   7.112   5.731 -0.6541 -0.3086 -0.2900
  189SAPI  H13R21753   1.962   7.123   5.749 -0.7579  1.9434 -1.8676
  189SAPI  H13S21754   2.079   7.004   5.708 -1.6641 -0.4211 -0.1437
  189SAPI  C21421755   2.099   7.183   5.599 -0.8412  0.2285  0.1048
  189SAPI  H14R21756   2.080   7.291   5.606 -0.4481  0.3921 -1.0456
  189SAPI  C21521757   2.143   7.127   5.485 -0.3233  0.1097 -0.2933
  189SAPI  H15R21758   2.154   7.199   5.403  2.7783  1.7868  1.4055
  189SAPI  C21621759   2.185   6.984   5.453 -0.0342  0.1919  0.4181
  189SAPI  H16R21760   2.235   6.957   5.549 -0.3108 -1.2398  0.1851
  189SAPI  H16S21761   2.261   6.973   5.372  1.8441  0.7171  2.0287
  189SAPI  C21721762   2.060   6.884   5.439  0.1939  0.0073  0.4121
  189SAPI  H17R21763   1.986   6.906   5.520  2.0458 -0.8286  2.4451
  189SAPI  H17S21764   2.096   6.782   5.462  0.4825  0.0460  0.1395
  189SAPI  C21821765   1.991   6.882   5.303  1.3174 -1.1097  0.1167
  189SAPI  H18R21766   2.052   6.827   5.228  0.4610 -1.4661 -0.3344
  189SAPI  H18S21767   1.995   6.990   5.278  1.7460 -1.4280 -1.2849
  189SAPI  C21921768   1.844   6.839   5.307  0.6854 -0.3263 -0.6332
  189SAPI  H19R21769   1.791   6.909   5.375  0.4779 -0.9308 -0.1673
  189SAPI  H19S21770   1.836   6.737   5.350  0.4793 -0.6022 -1.3105
  189SAPI  C22021771   1.788   6.833   5.167  0.2596 -0.3617  0.0469
  189SAPI  H20R21772   1.815   6.923   5.108  0.7220 -1.8250 -2.0818
  189SAPI  H20S21773   1.677   6.827   5.172  0.2344  0.8039  2.4697
  189SAPI  H20T21774   1.826   6.748   5.107  0.1819 -0.3962  0.0464
  189SAPI   C3321775   1.565   5.911   6.009  0.9398 -0.2800  0.4561
  189SAPI   H3X21776   1.494   5.858   6.076 -3.1454  1.7818 -1.8871
  189SAPI   H3Y21777   1.634   5.832   5.974 -0.2119 -1.4465  0.7509
  189SAPI   C3421778   1.470   5.951   5.904 -0.3013 -0.4096  0.3111
  189SAPI   H4X21779   1.422   6.048   5.928 -0.0224 -0.7451  2.4225
  189SAPI   H4Y21780   1.389   5.877   5.886 -0.7754  0.0297  0.5908
  189SAPI   C3521781   1.553   5.951   5.768 -0.0037  0.0735 -0.0132
  189SAPI   H5X21782   1.602   5.851   5.760 -0.1294 -0.0095  0.2418
  189SAPI   H5Y21783   1.620   6.038   5.780  1.7338 -1.4695  2.3067
  189SAPI   C3621784   1.462   5.976   5.651  0.2638  0.4628  0.3467
  189SAPI   H6X21785   1.410   6.074   5.659  3.1770  2.3154 -1.3844
  189SAPI   H6Y21786   1.375   5.908   5.658  0.5764  0.1135  0.9424
  189SAPI   C3721787   1.527   5.957   5.509 -0.3417  0.1695 -0.8007
  189SAPI   H7X21788   1.584   5.862   5.511  0.0263  0.4003 -0.0655
  189SAPI   H7Y21789   1.606   6.029   5.479  0.4113  0.8253  2.3683
  189SAPI   C3821790   1.415   5.942   5.399 -0.0950  0.0274 -0.3023
  189SAPI   H8X21791   1.335   5.879   5.443 -1.5161  0.2591 -2.4188
  189SAPI   H8Y21792   1.463   5.893   5.312  3.1847  1.5175  0.5198
  189SAPI   C3921793   1.362   6.073   5.342 -0.5244 -0.2279  0.2958
  189SAPI   H9X21794   1.453   6.121   5.299  0.5273 -0.9619  1.6109
  189SAPI   H9Y21795   1.333   6.139   5.426 -0.1737 -2.3369  2.1515
  189SAPI  C31021796   1.260   6.056   5.230 -0.2361  0.0072 -0.1442
  189SAPI  H10X21797   1.166   6.018   5.276  0.9332  0.2237  2.5970
  189SAPI  H10Y21798   1.294   5.981   5.155  0.4887 -0.1643  0.3514
  189SAPI  C31121799   1.235   6.193   5.162  0.0278  0.2087 -0.6038
  189SAPI  H11X21800   1.330   6.242   5.130  1.2726 -2.7293 -1.7984
  189SAPI  H11Y21801   1.200   6.256   5.247  0.2596  0.8139 -0.9479
  189SAPI  C31221802   1.124   6.197   5.055 -0.2561 -0.4845 -0.2194
  189SAPI  H12X21803   1.033   6.146   5.092 -0.0700 -0.0146  0.9071
  189SAPI  H12Y21804   1.171   6.149   4.965  2.4199  1.2244  0.1459
  189SAPI  C31321805   1.084   6.339   5.012  0.4194  0.4942  0.6763
  189SAPI  H13X21806   1.181   6.387   4.988  0.2902  0.7839  0.7377
  189SAPI  H13Y21807   1.030   6.395   5.091  0.0878  1.9272 -0.5333
  189SAPI  C31421808   0.999   6.354   4.881 -0.1526  0.0207 -0.1910
  189SAPI  H14X21809   0.895   6.325   4.909  0.2825 -1.1732  0.2532
  189SAPI  H14Y21810   1.028   6.283   4.800 -0.5863 -2.1555  1.4539
  189SAPI  C31521811   0.997   6.501   4.840  0.7792  0.0515  0.2362
  189SAPI  H15X21812   1.099   6.533   4.809  0.1730  2.1592  0.2659
  189SAPI  H15Y21813   0.956   6.554   4.929 -2.9764  0.1130 -1.3825
  189SAPI  C31621814   0.906   6.541   4.721 -0.0704  0.8669 -0.5061
  189SAPI  H16X21815   0.891   6.651   4.714  1.4489  1.1468  0.2233
  189SAPI  H16Y21816   0.804   6.503   4.742 -0.3185  1.8594  0.1396
  189SAPI  C31721817   0.950   6.482   4.587 -0.0675 -0.2414  0.1294
  189SAPI  H17X21818   0.939   6.371   4.586  2.7118 -0.5828 -0.0140
  189SAPI  H17Y21819   1.058   6.504   4.576 -0.3137  0.3390 -1.2285
  189SAPI  C31821820   0.879   6.544   4.471 -0.4443  0.0223  1.2211
  189SAPI  H18X21821   0.780   6.493   4.467 -0.0847 -0.8721  2.6539
  189SAPI  H18Y21822   0.923   6.527   4.371  0.8122  1.7241  1.4553
  189SAPI  H18Z21823   0.868   6.654   4.476  2.9674  0.5699 -0.8083
  190SAPI   C1221824   3.210   0.764   7.443  0.2928  0.7177 -0.4197
  190SAPI    H221825   3.244   0.867   7.417  1.1857  0.5351 -0.0120
  190SAPI    O221826   3.321   0.679   7.472 -0.2071 -0.7872 -0.0597
  190SAPI   HO221827   3.374   0.681   7.391  1.6195  1.1006  1.0669
  190SAPI   C1321828   3.121   0.782   7.567 -0.2965  0.3085  0.1748
  190SAPI    H321829   3.044   0.857   7.540  0.0474  0.6979  0.2798
  190SAPI    O321830   3.193   0.844   7.665 -0.5607 -0.7660 -0.0898
  190SAPI   HO321831   3.259   0.789   7.710 -0.6372  0.2460  1.3058
  190SAPI   C1421832   3.055   0.647   7.614  0.1171 -0.0677 -0.8103
  190SAPI    H421833   3.140   0.590   7.658 -0.9570 -0.1541  1.2957
  190SAPI    O421834   2.965   0.668   7.724  0.3281 -0.5186 -0.7339
  190SAPI   HO421835   2.974   0.614   7.803 -1.6857  1.0843  0.6957
  190SAPI   C1521836   2.991   0.567   7.494 -0.4629  0.5063  0.2318
  190SAPI    H521837   2.896   0.622   7.481 -0.0548  1.8026  2.1980
  190SAPI    O521838   2.961   0.434   7.536 -0.1031 -0.2506 -0.0075
  190SAPI   HO521839   2.927   0.388   7.458  2.1903 -0.3006 -1.0588
  190SAPI   C1621840   3.070   0.573   7.368 -0.0140  0.0391 -0.3946
  190SAPI    H621841   3.155   0.506   7.392 -0.8936 -0.3941  1.8238
  190SAPI    O621842   2.985   0.525   7.260 -0.3058 -0.0328  0.2908
  190SAPI   HO621843   3.026   0.454   7.211 -0.5312  0.5262 -0.7543
  190SAPI   C1121844   3.132   0.710   7.332 -0.0341  1.1654  0.5500
  190SAPI    H121845   3.044   0.777   7.318 -1.2774 -1.0012 -3.4970
  190SAPI     P21846   3.191   0.796   7.071  0.2940  0.0578  0.0083
  190SAPI   O1321847   3.313   0.750   6.995  0.3404  0.1873  0.1318
  190SAPI   O1421848   3.179   0.940   7.103  0.5120  0.0942 -0.0074
  190SAPI   O1221849   3.206   0.702   7.211  0.6631  0.5725  0.8201
  190SAPI   O1121850   3.059   0.739   7.008  0.5015  0.0963 -0.0405
  190SAPI    C121851   3.057   0.612   6.945  0.1711 -1.0870 -0.7172
  190SAPI    HA21852   3.152   0.555   6.958  0.8507  0.2657  0.6613
  190SAPI    HB21853   2.975   0.551   6.989  0.4082 -1.7053 -1.1109
  190SAPI    C221854   3.031   0.622   6.795 -0.4367 -0.1536 -0.2036
  190SAPI    HS21855   3.024   0.520   6.752  0.6543  0.1448 -1.1140
  190SAPI   O2121856   3.138   0.686   6.727 -0.6243  0.4823  0.1013
  190SAPI   C2121857   3.249   0.623   6.709  0.4301  0.5600 -1.1859
  190SAPI   O2221858   3.270   0.504   6.729 -0.3434 -0.3828  0.2794
  190SAPI   C2221859   3.356   0.717   6.652  0.0954  0.5805 -0.5953
  190SAPI   H2R21860   3.376   0.799   6.724 -2.1076  1.8628 -1.3540
  190SAPI   H2S21861   3.445   0.652   6.635 -1.7179 -1.8747 -1.4269
  190SAPI    C321862   2.900   0.692   6.769 -0.0049 -0.1540  0.8081
  190SAPI    HX21863   2.924   0.797   6.794  1.0354 -0.5936  1.7282
  190SAPI    HY21864   2.827   0.653   6.842  1.7239 -1.6268  1.8135
  190SAPI   O3121865   2.866   0.666   6.631  0.4714 -0.6124  0.3944
  190SAPI   C3121866   2.744   0.710   6.596 -0.0030 -0.5601  0.3849
  190SAPI   O3221867   2.673   0.773   6.667  0.3922 -0.5751  0.0962
  190SAPI   C3221868   2.720   0.653   6.454  0.1060  0.7680  0.6067
  190SAPI   H2X21869   2.681   0.549   6.461  0.7654  0.1839 -2.8269
  190SAPI   H2Y21870   2.813   0.653   6.394 -0.3936  0.8822 -0.1813
  190SAPI   C2321871   3.312   0.757   6.510  0.4208 -0.0551 -0.2278
  190SAPI   H3R21872   3.211   0.803   6.521  1.0371  1.5296 -0.9433
  190SAPI   H3S21873   3.286   0.664   6.454 -0.3333 -1.3376  2.1293
  190SAPI   C2421874   3.403   0.839   6.427 -0.1335 -0.9330  0.5927
  190SAPI   H4R21875   3.379   0.946   6.448 -0.5167 -0.3691 -2.2205
  190SAPI   H4S21876   3.360   0.830   6.325  0.2543  0.9645  0.2165
  190SAPI   C2521877   3.543   0.794   6.454  0.3701  0.5314 -0.5679
  190SAPI   H5R21878   3.582   0.826   6.552 -1.3489 -2.8995  1.3987
  190SAPI   C2621879   3.626   0.736   6.366  0.0645  0.1869 -0.2050
  190SAPI   H6R21880   3.728   0.716   6.402 -0.7363  0.9165  2.6769
  190SAPI   C2721881   3.607   0.701   6.220 -0.1813  0.4128  0.7848
  190SAPI   H7R21882   3.523   0.628   6.211 -0.5150  0.8648  0.1521
  190SAPI   H7S21883   3.704   0.671   6.176 -1.5451 -0.9981 -1.5107
  190SAPI   C2821884   3.569   0.819   6.127 -0.2616 -0.9673 -0.4884
  190SAPI   H8R21885   3.586   0.925   6.151 -1.4738 -0.8138 -0.2388
  190SAPI   C2921886   3.547   0.813   5.995 -0.2590  0.0475  0.7941
  190SAPI   H9R21887   3.518   0.907   5.945  0.0327 -0.0811  0.3827
  190SAPI  C21021888   3.537   0.681   5.923 -0.6098 -0.3035 -0.3199
  190SAPI  H10R21889   3.532   0.588   5.983 -0.0006 -0.0802  0.0977
  190SAPI  H10S21890   3.637   0.666   5.878 -0.6606 -0.1301 -0.4914
  190SAPI  C21121891   3.425   0.695   5.821 -0.1097 -0.2817 -0.1110
  190SAPI  H11R21892   3.323   0.714   5.856 -0.4344 -1.9679 -0.0443
  190SAPI  C21221893   3.424   0.647   5.698 -0.0768  0.0844  0.6630
  190SAPI  H12R21894   3.339   0.664   5.629  1.6977 -4.6306 -3.3424
  190SAPI  C21321895   3.542   0.590   5.621 -0.8613  0.3486  0.8455
  190SAPI  H13R21896   3.539   0.480   5.632  1.4159  0.0549 -0.6797
  190SAPI  H13S21897   3.638   0.612   5.673  0.0722 -2.3767  0.4490
  190SAPI  C21421898   3.568   0.627   5.476  0.1273  0.6735 -0.3646
  190SAPI  H14R21899   3.633   0.715   5.461 -1.7177  2.1347 -0.1160
  190SAPI  C21521900   3.526   0.555   5.373  0.1125 -1.1412  0.5565
  190SAPI  H15R21901   3.543   0.592   5.270 -1.5490 -0.8919  0.3458
  190SAPI  C21621902   3.437   0.427   5.378 -0.2475  0.2136 -0.1248
  190SAPI  H16R21903   3.355   0.448   5.451  0.8802  0.0552  1.2190
  190SAPI  H16S21904   3.494   0.339   5.414 -2.4142 -1.0511  0.4223
  190SAPI  C21721905   3.384   0.390   5.238  0.0811 -0.7733 -0.0917
  190SAPI  H17R21906   3.311   0.309   5.256 -2.0014  1.5314  2.8789
  190SAPI  H17S21907   3.474   0.343   5.192  0.9890  1.1970 -0.4444
  190SAPI  C21821908   3.321   0.510   5.148  0.1378  0.1808  0.7478
  190SAPI  H18R21909   3.399   0.584   5.120 -0.6305  0.4920 -0.6702
  190SAPI  H18S21910   3.245   0.561   5.210 -0.8509 -1.6703  1.1278
  190SAPI  C21921911   3.271   0.444   5.014 -0.0232 -0.6658 -0.3076
  190SAPI  H19R21912   3.342   0.360   4.998 -0.0541 -0.4131 -1.9704
  190SAPI  H19S21913   3.272   0.519   4.932 -1.1480 -2.5756 -2.1604
  190SAPI  C22021914   3.132   0.383   5.022  0.6653 -0.1469 -0.0959
  190SAPI  H20R21915   3.122   0.306   4.943 -2.2212 -0.0138  0.0490
  190SAPI  H20S21916   3.057   0.464   5.012  0.6035  0.1221  2.0582
  190SAPI  H20T21917   3.106   0.334   5.118 -0.9425 -0.2856 -0.5727
  190SAPI   C3321918   2.609   0.729   6.379 -0.5332 -0.0282 -0.4064
  190SAPI   H3X21919   2.652   0.831   6.373 -0.1627 -0.2857 -3.0686
  190SAPI   H3Y21920   2.524   0.725   6.451 -0.5876  2.2137 -0.2846
  190SAPI   C3421921   2.584   0.687   6.238 -0.3200 -0.0392 -0.4571
  190SAPI   H4X21922   2.532   0.589   6.232 -0.1092 -0.3211  1.4289
  190SAPI   H4Y21923   2.679   0.689   6.182  0.4588  0.5099  0.8262
  190SAPI   C3521924   2.501   0.786   6.159 -0.0543  0.4062  0.4254
  190SAPI   H5X21925   2.549   0.884   6.140 -0.1045  0.8108  2.2428
  190SAPI   H5Y21926   2.403   0.788   6.211  0.1920  0.1769  0.9118
  190SAPI   C3621927   2.484   0.728   6.024  0.0981 -0.6540  0.6388
  190SAPI   H6X21928   2.466   0.619   6.032 -0.4390 -0.4727  2.2292
  190SAPI   H6Y21929   2.581   0.736   5.971 -0.4332 -1.3126 -0.4633
  190SAPI   C3721930   2.382   0.804   5.944  0.0761  0.1223  0.4007
  190SAPI   H7X21931   2.419   0.908   5.939  1.6198 -0.4503 -0.9727
  190SAPI   H7Y21932   2.280   0.792   5.987 -0.3729 -0.9139 -0.8684
  190SAPI   C3821933   2.363   0.743   5.798 -0.6705 -0.0533  0.4390
  190SAPI   H8X21934   2.328   0.641   5.825  0.1844 -0.0518  1.5975
  190SAPI   H8Y21935   2.464   0.739   5.752 -0.6656  0.3810  0.4013
  190SAPI   C3921936   2.255   0.832   5.718  0.8460  1.1391  0.7180
  190SAPI   H9X21937   2.289   0.937   5.705 -2.2759  2.0711 -0.8866
  190SAPI   H9Y21938   2.166   0.829   5.784  0.9832  0.4317  0.8823
  190SAPI  C31021939   2.209   0.775   5.578  0.1075 -0.4506 -1.0824
  190SAPI  H10X21940   2.168   0.672   5.583  1.4041 -0.9337  0.0101
  190SAPI  H10Y21941   2.300   0.772   5.514  0.6822  2.6959 -0.5916
  190SAPI  C31121942   2.101   0.866   5.515 -0.5070  0.3272 -0.2665
  190SAPI  H11X21943   2.154   0.922   5.436  1.0335 -0.7524 -0.0432
  190SAPI  H11Y21944   2.061   0.941   5.586 -4.2282 -2.2100  0.6547
  190SAPI  C31221945   1.977   0.798   5.455 -0.3607  0.0304  0.0007
  190SAPI  H12X21946   1.906   0.872   5.411 -0.9229 -1.9281 -2.5671
  190SAPI  H12Y21947   1.923   0.753   5.541  2.0439 -0.6863  1.1975
  190SAPI  C31321948   2.015   0.700   5.343  0.4227 -0.2178  0.0285
  190SAPI  H13X21949   1.921   0.667   5.294 -1.3067  0.5702  2.6122
  190SAPI  H13Y21950   2.082   0.618   5.377  1.1002 -0.4946 -1.8597
  190SAPI  C31421951   2.079   0.785   5.231  0.0136 -0.4060  0.7368
  190SAPI  H14X21952   2.176   0.823   5.269  1.0129 -2.5422  0.4944
  190SAPI  H14Y21953   2.007   0.864   5.203  0.0365 -0.5914  0.1443
  190SAPI  C31521954   2.104   0.699   5.109  0.8961  0.3560 -0.2039
  190SAPI  H15X21955   2.006   0.659   5.075  0.4155 -0.2254  1.7086
  190SAPI  H15Y21956   2.168   0.614   5.140  0.7034  0.9002  1.8784
  190SAPI  C31621957   2.176   0.773   4.991  0.7878  0.7033 -0.3504
  190SAPI  H16X21958   2.268   0.801   5.046 -0.3598  0.1512  1.9766
  190SAPI  H16Y21959   2.118   0.859   4.951 -0.8632 -0.3383 -0.2871
  190SAPI  C31721960   2.206   0.684   4.869 -0.2873 -0.5261 -0.1063
  190SAPI  H17X21961   2.108   0.642   4.837 -1.4683  1.3161  0.9352
  190SAPI  H17Y21962   2.265   0.596   4.903 -1.0357 -0.9796  0.0442
  190SAPI  C31821963   2.274   0.765   4.761 -0.3124 -0.4840  0.2552
  190SAPI  H18X21964   2.205   0.836   4.713  0.9087  0.6293  0.0868
  190SAPI  H18Y21965   2.295   0.686   4.685  2.3311 -0.0749  0.4488
  190SAPI  H18Z21966   2.354   0.826   4.808  0.4430 -0.5182 -0.9247
  191SAPI   C1221967   2.811   1.829   2.679  0.3755 -0.3061 -0.7522
  191SAPI    H221968   2.823   1.882   2.776 -0.1779  3.3657 -2.5395
  191SAPI    O221969   2.941   1.825   2.620  0.2046  0.0735  0.3483
  191SAPI   HO221970   3.001   1.801   2.691  1.4970  1.3807 -0.2614
  191SAPI   C1321971   2.764   1.687   2.714  0.3153  0.5914 -0.4691
  191SAPI    H321972   2.667   1.698   2.766 -0.3434  0.3541 -1.6143
  191SAPI    O321973   2.851   1.629   2.813  0.0972 -0.0827 -0.4055
  191SAPI   HO321974   2.813   1.558   2.866 -1.6417  2.0388  1.3766
  191SAPI   C1421975   2.755   1.598   2.591 -0.8119 -0.3163 -0.8040
  191SAPI    H421976   2.850   1.609   2.535 -0.4829  4.3772  0.2749
  191SAPI    O421977   2.733   1.460   2.623  0.1577  0.4477 -0.5603
  191SAPI   HO421978   2.688   1.463   2.708 -0.2354 -0.7829 -0.7097
  191SAPI   C1521979   2.661   1.668   2.498 -0.3889 -0.3500 -0.3224
  191SAPI    H521980   2.566   1.633   2.543 -0.4448  1.8460  1.4373
  191SAPI    O521981   2.659   1.616   2.367 -0.0763  0.5496  0.4840
  191SAPI   HO521982   2.587   1.553   2.368 -0.7909  1.3507  0.2596
  191SAPI   C1621983   2.634   1.815   2.501  0.3305  0.5348  0.3810
  191SAPI    H621984   2.698   1.849   2.417  1.2349 -0.3137  0.6927
  191SAPI    O621985   2.504   1.848   2.475  0.7435 -0.7005  0.2565
  191SAPI   HO621986   2.458   1.812   2.551 -0.7084 -0.6460 -0.5452
  191SAPI   C1121987   2.689   1.889   2.617  0.2638 -0.8312 -0.1473
  191SAPI    H121988   2.612   1.883   2.696  2.7026 -1.3508  2.3678
  191SAPI     P21989   2.677   2.158   2.655  0.0632 -0.3060  0.3257
  191SAPI   O1321990   2.530   2.149   2.676  0.1795 -0.7498 -0.4392
  191SAPI   O1421991   2.719   2.275   2.569  0.5385  0.4623  0.1687
  191SAPI   O1221992   2.726   2.018   2.587  0.2919 -0.5153  0.1784
  191SAPI   O1121993   2.748   2.163   2.797 -0.0408  0.5520 -0.2913
  191SAPI    C121994   2.702   2.091   2.916  0.1015 -0.2877  0.2402
  191SAPI    HA21995   2.635   2.011   2.879  3.0062 -2.0017 -1.7806
  191SAPI    HB21996   2.794   2.058   2.970  0.5256  1.7878  0.9053
  191SAPI    C221997   2.621   2.189   3.006 -0.4433  0.5449 -0.1692
  191SAPI    HS21998   2.554   2.252   2.943 -1.8173 -1.6654 -1.0444
  191SAPI   O2121999   2.718   2.279   3.067  0.4120  0.4885  0.0968
  191SAPI   C2122000   2.674   2.362   3.159  0.0201  0.4020 -0.2030
  191SAPI   O2222001   2.555   2.394   3.171  0.0902 -0.3157  0.3971
  191SAPI   C2222002   2.793   2.422   3.237  0.5590 -0.0533 -0.0174
  191SAPI   H2R22003   2.814   2.359   3.326  3.4327 -0.8450 -1.1544
  191SAPI   H2S22004   2.882   2.414   3.172 -0.6087 -1.1218 -1.5456
  191SAPI    C322005   2.527   2.105   3.105  0.7418 -1.4073  0.0839
  191SAPI    HX22006   2.497   2.025   3.034  0.9329 -1.4056  0.0002
  191SAPI    HY22007   2.443   2.173   3.129  0.0946 -0.8930 -3.1505
  191SAPI   O3122008   2.588   2.055   3.222  0.1402 -0.3447  0.1731
  191SAPI   C3122009   2.607   1.925   3.222  0.8488 -0.5892  0.9093
  191SAPI   O3222010   2.558   1.844   3.145  0.1544 -0.0766 -0.2015
  191SAPI   C3222011   2.707   1.885   3.332  0.7967  0.3136 -0.4352
  191SAPI   H2X22012   2.800   1.842   3.288  0.4164 -0.8413 -0.1593
  191SAPI   H2Y22013   2.663   1.801   3.391 -0.2781  0.9195 -0.3475
  191SAPI   C2322014   2.756   2.567   3.285 -0.3010 -0.1259 -0.1336
  191SAPI   H3R22015   2.653   2.569   3.326 -0.5332  0.5945 -0.7222
  191SAPI   H3S22016   2.768   2.643   3.205 -0.7000 -0.5819 -0.6322
  191SAPI   C2422017   2.843   2.610   3.412  0.1801 -0.0450 -0.3982
  191SAPI   H4R22018   2.943   2.586   3.372  0.5330  2.0310 -0.8895
  191SAPI   H4S22019   2.821   2.554   3.506  0.3490  2.5160  1.2868
  191SAPI   C2522020   2.851   2.759   3.441  0.0322 -0.3974  0.3052
  191SAPI   H5R22021   2.887   2.826   3.361 -1.5719  0.5009  0.2926
  191SAPI   C2622022   2.816   2.808   3.557  0.1456  0.4024 -0.0387
  191SAPI   H6R22023   2.818   2.916   3.573 -1.8724  0.3432  1.0592
  191SAPI   C2722024   2.748   2.739   3.667  1.1191 -0.5897 -0.2554
  191SAPI   H7R22025   2.754   2.797   3.762  0.8564 -1.3086  0.2101
  191SAPI   H7S22026   2.801   2.646   3.698  0.3652 -0.9712 -0.1020
  191SAPI   C2822027   2.597   2.707   3.651 -0.5920 -0.0618 -0.7294
  191SAPI   H8R22028   2.550   2.737   3.556 -1.2086 -0.9999 -0.7358
  191SAPI   C2922029   2.511   2.668   3.748  0.7196 -0.5079  0.4352
  191SAPI   H9R22030   2.408   2.651   3.714  0.4096 -0.3738  1.2846
  191SAPI  C21022031   2.538   2.655   3.894  0.1232  0.2300 -0.4161
  191SAPI  H10R22032   2.638   2.607   3.898  1.5138  2.9126 -0.8962
  191SAPI  H10S22033   2.452   2.593   3.929  1.0084 -2.5358 -2.8201
  191SAPI  C21122034   2.541   2.789   3.966  0.1671  0.0336  0.9721
  191SAPI  H11R22035   2.453   2.855   3.954 -0.6523 -1.3361 -0.9646
  191SAPI  C21222036   2.621   2.822   4.063 -0.5407 -0.1838  0.1971
  191SAPI  H12R22037   2.626   2.926   4.098 -0.6670 -0.4675  1.0626
  191SAPI  C21322038   2.744   2.751   4.111 -0.1599  0.2734 -0.6521
  191SAPI  H13R22039   2.762   2.657   4.055 -0.5167  1.2954 -2.5560
  191SAPI  H13S22040   2.729   2.743   4.221 -1.0881 -1.7580 -0.8829
  191SAPI  C21422041   2.859   2.846   4.081  0.3511 -0.0230  0.1831
  191SAPI  H14R22042   2.893   2.836   3.977  0.3656 -0.7519  0.2537
  191SAPI  C21522043   2.912   2.937   4.165 -0.1466  0.3150  0.7264
  191SAPI  H15R22044   3.000   2.998   4.140 -1.9239  3.1760  0.9906
  191SAPI  C21622045   2.882   2.958   4.314 -0.5604 -0.3993  0.6276
  191SAPI  H16R22046   2.773   2.971   4.329 -0.8271 -2.9941  1.5567
  191SAPI  H16S22047   2.936   3.043   4.361 -1.8338  0.6065  0.3268
  191SAPI  C21722048   2.935   2.839   4.392  0.6553 -0.1515  0.2958
  191SAPI  H17R22049   3.045   2.824   4.383  0.6836 -0.0482  0.4744
  191SAPI  H17S22050   2.880   2.747   4.363 -2.0183  0.5822  2.5968
  191SAPI  C21822051   2.902   2.872   4.538 -0.1279  0.1552  0.4075
  191SAPI  H18R22052   2.796   2.904   4.546 -0.6444 -1.8262  2.3980
  191SAPI  H18S22053   2.967   2.956   4.571 -0.8784  0.0587  2.2573
  191SAPI  C21922054   2.899   2.745   4.627 -0.0136 -0.1640 -0.2363
  191SAPI  H19R22055   3.002   2.703   4.624 -0.3709 -1.0657 -0.4569
  191SAPI  H19S22056   2.830   2.672   4.579  0.6679  0.1766 -1.7956
  191SAPI  C22022057   2.851   2.760   4.774  0.4784 -0.1760  0.4776
  191SAPI  H20R22058   2.877   2.860   4.814 -0.8217  0.5138 -0.3371
  191SAPI  H20S22059   2.904   2.684   4.835  1.4654  1.2731  1.4880
  191SAPI  H20T22060   2.741   2.748   4.766  0.5451  0.5019 -2.6408
  191SAPI   C3322061   2.757   1.992   3.424 -0.0650 -1.1181 -0.3170
  191SAPI   H3X22062   2.807   2.072   3.366  0.3460 -1.6521 -0.7147
  191SAPI   H3Y22063   2.843   1.955   3.484  1.3992  1.3298 -0.7914
  191SAPI   C3422064   2.651   2.041   3.528  0.7132  0.5332 -0.0719
  191SAPI   H4X22065   2.603   1.952   3.574 -0.4818  1.1962 -0.0143
  191SAPI   H4Y22066   2.572   2.093   3.469  1.6518  0.7282 -1.2081
  191SAPI   C3522067   2.707   2.119   3.648 -0.0701 -0.5694 -0.2799
  191SAPI   H5X22068   2.758   2.202   3.595  2.1867 -1.6812  0.0347
  191SAPI   H5Y22069   2.784   2.067   3.708  1.2286 -0.3025 -1.6484
  191SAPI   C3622070   2.601   2.166   3.748  0.0547  0.3514  0.2905
  191SAPI   H6X22071   2.559   2.083   3.810  0.0367 -1.8363 -2.4531
  191SAPI   H6Y22072   2.516   2.215   3.697  1.9388  1.0322 -2.4184
  191SAPI   C3722073   2.654   2.263   3.856  0.4628 -1.0038  0.3169
  191SAPI   H7X22074   2.661   2.362   3.805  0.0560 -1.3170 -0.3737
  191SAPI   H7Y22075   2.756   2.231   3.886 -0.4445 -2.3259  2.1772
  191SAPI   C3822076   2.561   2.266   3.976  0.5311 -0.1082 -0.4950
  191SAPI   H8X22077   2.517   2.166   3.991 -1.8623  0.9991  0.4785
  191SAPI   H8Y22078   2.479   2.329   3.935  0.9078 -0.8163 -2.4548
  191SAPI   C3922079   2.620   2.332   4.101 -0.2720 -0.6813 -0.1352
  191SAPI   H9X22080   2.651   2.433   4.068 -0.6818  0.2162  2.0839
  191SAPI   H9Y22081   2.706   2.273   4.140 -2.0942 -3.1553  0.4593
  191SAPI  C31022082   2.515   2.356   4.197  0.7067 -0.0232  0.2674
  191SAPI  H10X22083   2.477   2.260   4.236 -1.9342  0.7734 -0.1715
  191SAPI  H10Y22084   2.429   2.402   4.145  0.1992 -1.6506 -0.3929
  191SAPI  C31122085   2.551   2.456   4.310 -0.1259  0.3747  0.3256
  191SAPI  H11X22086   2.589   2.546   4.257  0.4113  0.3347  0.6329
  191SAPI  H11Y22087   2.646   2.418   4.355  0.0792  0.1227 -0.3127
  191SAPI  C31222088   2.444   2.504   4.410  0.1216  0.6941 -0.0034
  191SAPI  H12X22089   2.396   2.420   4.465  3.0054  0.1437  1.8670
  191SAPI  H12Y22090   2.367   2.554   4.348  0.2892  0.2669 -0.5645
  191SAPI  C31322091   2.510   2.604   4.514 -0.2174  0.8221  0.2806
  191SAPI  H13X22092   2.569   2.680   4.458  0.4365 -0.7604 -1.2847
  191SAPI  H13Y22093   2.577   2.538   4.574  0.8424 -0.2296 -1.9466
  191SAPI  C31422094   2.417   2.670   4.613  0.1753  0.1417 -0.1345
  191SAPI  H14X22095   2.323   2.699   4.561 -0.1778  1.3532  1.1218
  191SAPI  H14Y22096   2.462   2.761   4.658 -2.8936 -0.0492  3.8379
  191SAPI  C31522097   2.382   2.571   4.727  0.1472 -0.0653  0.0704
  191SAPI  H15X22098   2.468   2.561   4.796  0.0543  0.2415  0.2349
  191SAPI  H15Y22099   2.355   2.472   4.686  1.3351 -0.8086  1.0403
  191SAPI  C31622100   2.260   2.616   4.810  0.0679  0.4132  0.3632
  191SAPI  H16X22101   2.223   2.535   4.877  1.1341 -0.5637 -0.1920
  191SAPI  H16Y22102   2.182   2.646   4.737  0.6128 -3.5318 -2.1200
  191SAPI  C31722103   2.283   2.730   4.911  0.7881 -0.1358 -0.1973
  191SAPI  H17X22104   2.389   2.763   4.920  0.0362  2.2935  0.4393
  191SAPI  H17Y22105   2.264   2.699   5.016 -0.0891 -2.9597 -1.0807
  191SAPI  C31822106   2.192   2.849   4.899 -0.6804  0.4802 -0.4170
  191SAPI  H18X22107   2.229   2.899   4.808 -1.7768  0.6096 -0.8082
  191SAPI  H18Y22108   2.209   2.908   4.992 -2.7466  1.4374 -0.5818
  191SAPI  H18Z22109   2.085   2.827   4.882 -0.8265  1.6399 -1.0775
  192SAPI   C1222110   4.365   6.228   2.580 -0.0346 -0.5321  0.4657
  192SAPI    H222111   4.374   6.120   2.605  0.7028 -0.6537 -0.2650
  192SAPI    O222112   4.461   6.296   2.657 -0.1508  0.1700 -0.7317
  192SAPI   HO222113   4.499   6.227   2.713  0.2008  2.6842  2.3805
  192SAPI   C1322114   4.417   6.238   2.436  0.1743  0.4559  0.7873
  192SAPI    H322115   4.338   6.182   2.383  1.1115 -0.6081  0.4828
  192SAPI    O322116   4.531   6.157   2.416 -0.7777  0.6331 -0.2627
  192SAPI   HO322117   4.608   6.200   2.455 -1.0792 -0.8901  2.2805
  192SAPI   C1422118   4.420   6.385   2.388  0.0515 -0.1714 -0.1835
  192SAPI    H422119   4.507   6.416   2.448 -1.1882 -2.2731  2.9350
  192SAPI    O422120   4.462   6.393   2.253  0.1063 -0.6770 -0.4423
  192SAPI   HO422121   4.557   6.405   2.257  0.1872 -1.3848 -0.0541
  192SAPI   C1522122   4.310   6.471   2.433  1.2000  0.2084 -0.2522
  192SAPI    H522123   4.244   6.449   2.345  2.5358 -0.8487 -1.0425
  192SAPI    O522124   4.340   6.609   2.409  0.5860  0.0864 -1.3402
  192SAPI   HO522125   4.252   6.645   2.392 -0.3619 -0.8135  1.1524
  192SAPI   C1622126   4.228   6.438   2.555  0.3919 -0.3410  0.5247
  192SAPI    H622127   4.270   6.506   2.632 -2.1092  2.6563 -0.5697
  192SAPI    O622128   4.101   6.499   2.540  0.0438  0.3852 -0.0811
  192SAPI   HO622129   4.091   6.555   2.617 -0.7896 -0.3410  0.3610
  192SAPI   C1122130   4.227   6.290   2.595  0.1735  0.2270 -0.0573
  192SAPI    H122131   4.157   6.243   2.522  0.7468 -0.5216 -0.1370
  192SAPI     P22132   4.039   6.211   2.770  0.3573 -0.2423 -0.0296
  192SAPI   O1322133   3.948   6.223   2.653 -0.2065  0.6203  0.2640
  192SAPI   O1422134   3.998   6.272   2.899 -0.1292  0.1246  0.5408
  192SAPI   O1222135   4.182   6.271   2.728  0.0678 -0.4802 -0.6812
  192SAPI   O1122136   4.059   6.054   2.785  0.4212 -0.2047 -0.5942
  192SAPI    C122137   4.164   5.997   2.866 -0.4273  0.0132  0.0732
  192SAPI    HA22138   4.191   5.899   2.821 -1.4975  0.5478 -1.8619
  192SAPI    HB22139   4.265   6.042   2.858 -1.2008  1.6245 -1.2037
  192SAPI    C222140   4.115   5.978   3.010  0.2868  0.0941 -0.6348
  192SAPI    HS22141   4.066   6.069   3.049  1.2822  0.8269 -1.0442
  192SAPI   O2122142   4.234   5.931   3.090  0.1793 -0.2695 -0.2566
  192SAPI   C2122143   4.323   6.021   3.121 -0.2731 -0.4302  0.3457
  192SAPI   O2222144   4.329   6.137   3.081  0.1977  0.6073 -0.5324
  192SAPI   C2222145   4.420   5.958   3.226  0.1234 -0.3033 -0.0984
  192SAPI   H2R22146   4.372   5.953   3.326  2.1009  0.1956  0.9234
  192SAPI   H2S22147   4.436   5.856   3.185  0.6548  0.5649 -2.1786
  192SAPI    C322148   3.998   5.869   3.016 -0.3263  0.3675  0.3504
  192SAPI    HX22149   4.045   5.773   2.987 -0.1177  0.5329  0.1331
  192SAPI    HY22150   3.922   5.895   2.938 -0.9337 -2.6592 -0.1686
  192SAPI   O3122151   3.952   5.850   3.150  1.0625 -0.2493 -0.4040
  192SAPI   C3122152   3.822   5.888   3.171  0.2721  0.4959  0.4523
  192SAPI   O3222153   3.739   5.928   3.088  0.3764  0.0003 -0.6450
  192SAPI   C3222154   3.796   5.864   3.316 -0.3309 -0.2420  0.6864
  192SAPI   H2X22155   3.758   5.960   3.357 -0.7447 -0.3910  0.6528
  192SAPI   H2Y22156   3.895   5.847   3.363  1.8025  3.1908 -2.0234
  192SAPI   C2322157   4.555   6.031   3.221 -1.1224 -0.9554 -0.1390
  192SAPI   H3R22158   4.528   6.138   3.208 -2.4368 -1.2370  0.1596
  192SAPI   H3S22159   4.621   6.012   3.133  3.4642  0.1729  2.7162
  192SAPI   C2422160   4.644   6.010   3.342 -0.1232  0.1581 -0.7922
  192SAPI   H4R22161   4.748   6.021   3.304  0.5839  1.3649  1.2874
  192SAPI   H4S22162   4.632   5.903   3.372  0.1686  0.3182 -0.0860
  192SAPI   C2522163   4.609   6.098   3.459  0.3342  0.7012 -0.3871
  192SAPI   H5R22164   4.579   6.201   3.434  1.9208  1.2752 -0.0271
  192SAPI   C2622165   4.604   6.062   3.587 -0.2985  0.5981 -0.5755
  192SAPI   H6R22166   4.580   6.143   3.658  0.9686  1.2019 -0.8172
  192SAPI   C2722167   4.618   5.917   3.642 -0.1841  0.1660  0.2286
  192SAPI   H7R22168   4.714   5.873   3.608 -0.2432 -0.4189  0.8068
  192SAPI   H7S22169   4.537   5.860   3.592 -1.1086  0.5362  1.2681
  192SAPI   C2822170   4.614   5.902   3.794  0.3975  1.3730 -0.1860
  192SAPI   H8R22171   4.703   5.908   3.858  0.6915  0.0025 -0.4408
  192SAPI   C2922172   4.501   5.878   3.867  0.0710 -0.7898 -0.3696
  192SAPI   H9R22173   4.502   5.881   3.977 -0.8396 -0.7736 -0.3533
  192SAPI  C21022174   4.361   5.867   3.821  0.0886  0.1156 -0.0318
  192SAPI  H10R22175   4.341   5.895   3.715  2.7220 -3.9401 -1.8531
  192SAPI  H10S22176   4.291   5.939   3.869 -0.5758  0.4185 -1.4037
  192SAPI  C21122177   4.307   5.725   3.833 -0.5231 -0.0079  0.5049
  192SAPI  H11R22178   4.379   5.645   3.854  1.5080  0.6134 -3.1471
  192SAPI  C21222179   4.177   5.697   3.797 -0.6095  0.2746 -0.3485
  192SAPI  H12R22180   4.143   5.593   3.802 -0.2926  0.1819 -0.1312
  192SAPI  C21322181   4.072   5.794   3.745  0.9553 -0.4169 -1.2122
  192SAPI  H13R22182   4.076   5.896   3.790 -0.4072  0.7770 -3.5754
  192SAPI  H13S22183   3.972   5.755   3.771  0.6847 -0.2128 -1.9077
  192SAPI  C21422184   4.095   5.800   3.594 -0.1618 -0.1752 -0.1161
  192SAPI  H14R22185   4.072   5.704   3.545 -0.6291 -0.2286  0.1929
  192SAPI  C21522186   4.120   5.910   3.526 -0.6652 -0.0882  0.3558
  192SAPI  H15R22187   4.120   5.898   3.417 -0.1103 -0.6555  0.4121
  192SAPI  C21622188   4.133   6.055   3.575  0.7520 -0.2135  0.6451
  192SAPI  H16R22189   4.239   6.089   3.573  0.7703  0.1336  3.2099
  192SAPI  H16S22190   4.100   6.053   3.682  0.7404 -1.4325  0.6372
  192SAPI  C21722191   4.053   6.167   3.498  0.1589  1.2663 -0.3607
  192SAPI  H17R22192   4.067   6.263   3.552 -0.6474  0.2627  1.7468
  192SAPI  H17S22193   3.944   6.150   3.514 -0.3409  2.5502 -2.0904
  192SAPI  C21822194   4.088   6.177   3.349  0.1317  0.3480 -0.5268
  192SAPI  H18R22195   4.066   6.087   3.287  0.4028  0.5373 -0.9033
  192SAPI  H18S22196   4.199   6.186   3.342 -0.0311  1.5691 -2.2034
  192SAPI  C21922197   4.039   6.302   3.280  0.2886  0.7347 -0.4583
  192SAPI  H19R22198   4.098   6.323   3.188  0.8459 -0.9670 -0.5310
  192SAPI  H19S22199   4.060   6.386   3.349  1.4775 -1.1346  1.5894
  192SAPI  C22022200   3.890   6.301   3.254  0.3851  0.1772  0.1493
  192SAPI  H20R22201   3.821   6.304   3.341 -0.2289 -1.0224 -0.2672
  192SAPI  H20S22202   3.869   6.214   3.189 -1.4879  0.0378  0.8810
  192SAPI  H20T22203   3.863   6.393   3.197 -0.9317  0.0013  0.4682
  192SAPI   C3322204   3.718   5.736   3.347  0.3275 -0.5966  0.1034
  192SAPI   H3X22205   3.757   5.657   3.279  0.3634  1.5593 -2.5545
  192SAPI   H3Y22206   3.612   5.747   3.316  0.2405 -1.8641 -0.0854
  192SAPI   C3422207   3.739   5.682   3.487  1.1987 -0.0459  0.2239
  192SAPI   H4X22208   3.714   5.770   3.550  2.2185 -0.2128  0.8728
  192SAPI   H4Y22209   3.848   5.673   3.503  1.1218  1.0451  1.5985
  192SAPI   C3522210   3.653   5.565   3.522  0.5007  0.5347 -0.7823
  192SAPI   H5X22211   3.667   5.472   3.463 -0.3061 -0.7088  0.8946
  192SAPI   H5Y22212   3.545   5.582   3.501 -0.3373 -1.4384  1.4617
  192SAPI   C3622213   3.668   5.516   3.666 -0.2525 -0.1242 -0.2152
  192SAPI   H6X22214   3.589   5.438   3.662 -2.7978  2.3278 -0.8887
  192SAPI   H6Y22215   3.629   5.607   3.716  0.8399 -0.1637  0.7400
  192SAPI   C3722216   3.802   5.469   3.712 -0.1699  1.2846 -0.1462
  192SAPI   H7X22217   3.880   5.548   3.716  0.0065  1.0619  0.9018
  192SAPI   H7Y22218   3.835   5.382   3.651 -0.3405  0.3694  1.0461
  192SAPI   C3822219   3.820   5.400   3.848  0.6657  0.1251  0.3565
  192SAPI   H8X22220   3.925   5.366   3.862  0.2315 -1.5100 -0.1475
  192SAPI   H8Y22221   3.766   5.303   3.838  3.0082 -1.2147 -0.0394
  192SAPI   C3922222   3.777   5.486   3.970 -0.2245  0.4710  0.0817
  192SAPI   H9X22223   3.667   5.474   3.981 -0.5678  4.0429  2.4759
  192SAPI   H9Y22224   3.787   5.597   3.967  0.4596  0.4026 -0.3062
  192SAPI  C31022225   3.851   5.435   4.093  0.5568 -0.2736  0.3672
  192SAPI  H10X22226   3.832   5.326   4.094 -0.9950 -0.0613 -0.7743
  192SAPI  H10Y22227   3.795   5.481   4.178 -1.3891  0.8496 -1.4156
  192SAPI  C31122228   4.003   5.453   4.103  0.3966  0.2822  0.0151
  192SAPI  H11X22229   4.056   5.407   4.017  0.5265  0.0833  0.2006
  192SAPI  H11Y22230   4.025   5.400   4.199 -0.4316 -0.2463 -0.0725
  192SAPI  C31222231   4.048   5.597   4.136  0.3800 -0.3463  0.4958
  192SAPI  H12X22232   3.988   5.626   4.225 -1.4094 -1.9964 -0.0992
  192SAPI  H12Y22233   4.020   5.660   4.048  1.9461 -0.2927  0.0192
  192SAPI  C31322234   4.199   5.601   4.164  0.3364  0.2684  0.3799
  192SAPI  H13X22235   4.244   5.565   4.069  0.3290  1.8092 -0.2326
  192SAPI  H13Y22236   4.226   5.534   4.248  2.4554  1.8891  1.0843
  192SAPI  C31422237   4.254   5.738   4.193 -0.4381  0.2825  0.2226
  192SAPI  H14X22238   4.187   5.798   4.258 -2.1884  2.2978 -3.1377
  192SAPI  H14Y22239   4.267   5.789   4.095  2.8855 -0.2272  0.2894
  192SAPI  C31522240   4.399   5.727   4.238  0.1375 -0.1490  0.4483
  192SAPI  H15X22241   4.460   5.676   4.160 -0.0436 -0.3669  0.4483
  192SAPI  H15Y22242   4.400   5.668   4.332 -1.6934  1.0864  1.3019
  192SAPI  C31622243   4.456   5.869   4.274 -0.0646 -0.4273 -0.0466
  192SAPI  H16X22244   4.404   5.909   4.364  2.8957  2.0292  0.7489
  192SAPI  H16Y22245   4.443   5.941   4.190 -2.0327  2.4792  2.5384
  192SAPI  C31722246   4.605   5.874   4.322 -0.2650 -0.1264  0.3625
  192SAPI  H17X22247   4.616   5.790   4.394  0.6482 -1.6854 -1.4991
  192SAPI  H17Y22248   4.618   5.972   4.373 -2.5643  0.0156  0.7438
  192SAPI  C31822249   4.713   5.852   4.221  0.3117  0.6277  0.3789
  192SAPI  H18X22250   4.692   5.766   4.153 -0.5143  0.9832  0.1813
  192SAPI  H18Y22251   4.814   5.823   4.259  1.4078  2.4016 -0.9939
  192SAPI  H18Z22252   4.733   5.948   4.168 -1.4640  0.8396  0.0527
  193SOD    SOD22253   3.711   4.107   2.132  0.0709 -0.1347  0.0740
  194SOD    SOD22254   3.256   1.093   1.722  0.0278  0.2179 -0.2024
  195SOD    SOD22255   4.156   3.022   7.054 -0.0502 -0.0329  0.2843
  196SOD    SOD22256   3.412   3.100   7.753 -0.0978 -0.7692  0.1808
  197SOD    SOD22257   6.529   3.804   7.222  0.0949 -0.0932  0.4071
  198SOD    SOD22258   2.216   4.827   2.265 -0.4234  0.3171 -0.8353
  199SOD    SOD22259   3.495   5.786   2.780 -0.5635  0.1691 -0.0319
  200SOD    SOD22260   1.760   3.233   1.877  0.3769 -0.5036  0.3086
  201SOD    SOD22261   0.578   0.541   8.355  0.6653 -0.0083 -0.1650
  202SOD    SOD22262   1.890   1.963   0.453  0.1424 -0.2777 -1.0529
  203SOD    SOD22263   4.071   1.424   7.373 -0.0120  0.2750  0.1554
  204SOD    SOD22264   3.303   4.868   7.060  0.5143 -0.0836  0.1271
  205SOD    SOD22265   4.333   3.779   8.139 -0.1708 -0.3347  0.6942
  206SOD    SOD22266   6.577   4.541   6.801 -0.2052  0.0011  0.0322
  207SOD    SOD22267   4.456   4.976   6.859 -0.4868  0.2504 -0.0963
  208SOD    SOD22268   5.791   6.816   6.972  0.4477  0.1517  0.0958
  209SOD    SOD22269   3.576   6.430   2.835 -0.1555  0.1532 -0.0876
  210SOD    SOD22270   1.886   6.304   1.426 -0.1438  0.3612 -0.3336
  211SOD    SOD22271   0.543   4.096   0.984  0.1372  0.0402 -0.4263
  212SOD    SOD22272   1.916   3.999   1.485 -0.2404  0.2025 -0.3819
  213SOD    SOD22273   1.203   6.839   8.479  0.0675 -0.2887 -0.3117
  214SOD    SOD22274   2.670   6.194   2.012  0.4586  0.0296  0.2231
  215SOD    SOD22275   6.013   5.242   7.533  0.0900  0.1110 -0.2123
  216SOD    SOD22276   3.335   6.843   2.075 -0.1149  0.3914 -0.4527
  217SOD    SOD22277   0.417   1.813   7.888 -0.2182  0.5645 -0.2500
  218SOD    SOD22278   5.483   6.893   0.644  0.1111 -0.3837  0.2223
  219SOD    SOD22279   2.492   1.454   7.714  0.3627 -0.0835  0.6196
  220SOD    SOD22280   4.486   6.215   7.137  0.0457  0.4771 -0.2556
  221SOD    SOD22281   4.630   4.604   7.530  0.0735 -0.4978  0.0484
  222SOD    SOD22282   3.626   0.160   7.564  0.2476 -0.5025  0.4407
  223SOD    SOD22283   6.276   5.819   1.512 -0.8284  0.1279 -0.7628
  224SOD    SOD22284   1.119   3.067   2.487  0.2018 -0.1407  0.1333
  225SOD    SOD22285   5.422   0.069   7.982  0.2312  0.2006  0.4497
  226SOD    SOD22286   0.482   5.728   7.653 -0.5002  0.2057 -0.6269
  227SOD    SOD22287   2.763   6.766   1.055 -0.2257  0.2371  0.1685
  228SOD    SOD22288   4.632   5.981   2.268  0.0753  0.4047  0.1413
  229SOD    SOD22289   2.296   2.295   7.132 -0.0189 -0.1748  0.3037
  230SOD    SOD22290   2.027   2.903   2.850 -0.0870 -0.4623 -0.1306
  231SOD    SOD22291   0.162   2.857   1.363  0.1780 -0.3794 -0.3510
  232SOD    SOD22292   6.003   5.537   2.123  0.6443 -0.2176  0.5535
  233SOD    SOD22293   5.273   2.520   1.112 -0.0356 -0.2854 -0.4408
  234CLA    CLA22294   6.712   1.444   2.124 -0.1010  0.3025  0.1161
  235CLA    CLA22295   0.908   4.762   0.025  0.5305 -0.0160  0.1943
  236CLA    CLA22296   4.660   3.675   8.501  0.3309  0.3497 -0.0512
  237CLA    CLA22297   2.921   3.325   0.053 -0.3452 -0.0322  0.1355
  238CLA    CLA22298   6.518   6.859   8.065  0.2973  0.0788 -0.1165
  239CLA    CLA22299   0.365   3.256   2.125  0.1108 -0.0786 -0.1088
  240CLA    CLA22300   3.331   3.582   7.442  0.0952 -0.2325  0.2367
  241CLA    CLA22301   2.093   6.166   0.096  0.1034 -0.2043  0.5251
  242CLA    CLA22302   3.067   6.089   1.395 -0.5737  0.0759 -0.0212
  243CLA    CLA22303   4.254   5.734   7.809  0.0238  0.4757  0.2957
  244CLA    CLA22304   0.054   5.264   1.989 -0.3129 -0.1716  0.3432
  245CLA    CLA22305   0.904   4.017   8.396  0.1140 -0.2113 -0.0902
  246CLA    CLA22306   4.953   2.006   7.566  0.1157  0.2528  0.0067
  247CLA    CLA22307   6.289   6.096   1.136 -0.0633 -0.0981 -0.3083
  248CLA    CLA22308   1.766   6.809   0.528 -0.0275 -0.2328  0.1498
  249CLA    CLA22309   6.147   1.948   1.783  0.3198  0.1351 -0.1878
  250CLA    CLA22310   2.921   5.404   2.351  0.1091 -0.2605 -0.1579
  251TIP3   OH222311   0.824   4.466   8.464  0.7043  0.8724  0.0126
  251TIP3    H122312   0.872   4.545   8.490  1.8955 -0.3456  1.7066
  251TIP3    H222313   0.733   4.485   8.487  0.9240  1.8579  0.1228
  252TIP3   OH222314   3.278   5.353   0.819 -0.6194  0.0083 -0.3601
  252TIP3    H122315   3.242   5.373   0.733 -1.2229  1.5302  0.2113
  252TIP3    H222316   3.219   5.286   0.855  0.1629 -1.3119 -1.4545
  253TIP3   OH222317   5.099   1.978   1.474 -0.0374  0.0344 -0.1666
  253TIP3    H122318   5.084   1.946   1.384  0.9864 -1.1467  0.0471
  253TIP3    H222319   5.194   1.972   1.485  0.3945  3.8971 -0.3058
  254TIP3   OH222320   2.473   0.263   2.635 -0.0593  0.2711 -0.4346
  254TIP3    H122321   2.541   0.316   2.677 -1.2800  1.4041  0.1632
  254TIP3    H222322   2.501   0.173   2.650  0.3928  0.6681  1.4075
  255TIP3   OH222323   4.000   1.379   7.131 -0.1033 -0.0355 -0.1919
  255TIP3    H122324   4.002   1.310   7.065 -3.1064 -0.8569  0.3940
  255TIP3    H222325   3.938   1.443   7.096  2.4687  2.3935 -0.6284
  256TIP3   OH222326   5.284   2.573   1.559  0.4755 -0.2982 -0.6431
  256TIP3    H122327   5.211   2.623   1.524  0.6696  0.0988 -0.4937
  256TIP3    H222328   5.272   2.574   1.654  1.7502  1.5207 -0.4492
  257TIP3   OH222329   6.892   2.481   1.686  0.0907 -0.1002  0.3679
  257TIP3    H122330   6.983   2.494   1.659  0.3760 -2.2147  0.0988
  257TIP3    H222331   6.871   2.558   1.739  1.4776  1.2163 -0.9172
  258TIP3   OH222332   2.462   6.122   2.437 -0.1080 -0.4215 -0.1888
  258TIP3    H122333   2.403   6.197   2.449  1.4182  0.9402 -0.7071
  258TIP3    H222334   2.525   6.130   2.509 -0.7299 -2.0532  0.5652
  259TIP3   OH222335   1.048   3.391   7.947 -0.3428 -0.4844  0.2231
  259TIP3    H122336   0.955   3.371   7.940 -0.5353  0.6772 -0.7229
  259TIP3    H222337   1.052   3.486   7.957  0.7226 -0.5714  0.8186
  260TIP3   OH222338   1.464   1.130   2.129 -0.4102 -0.3113  0.1269
  260TIP3    H122339   1.448   1.061   2.194  0.0446 -1.0243 -0.5087
  260TIP3    H222340   1.556   1.121   2.106 -0.9463 -1.1789 -1.8767
  261TIP3   OH222341   2.804   6.592   7.905 -0.1269  0.6449  0.5695
  261TIP3    H122342   2.896   6.588   7.881 -0.4565 -0.8851 -0.5521
  261TIP3    H222343   2.762   6.522   7.855 -1.9119  1.3172  1.0306
  262TIP3   OH222344   4.900   0.368   7.925  0.1094  0.4979  0.3778
  262TIP3    H122345   4.916   0.343   7.834 -0.3174  1.6533 -0.0289
  262TIP3    H222346   4.984   0.404   7.954  0.2798  0.0237  0.4900
  263TIP3   OH222347   2.337   5.375   7.118  0.0699 -0.2744  0.3087
  263TIP3    H122348   2.249   5.388   7.081  0.4592 -1.3902 -1.1196
  263TIP3    H222349   2.396   5.387   7.043  1.4134  2.8339  1.6610
  264TIP3   OH222350   3.818   2.626   8.336 -0.4153  0.0124 -0.8730
  264TIP3    H122351   3.901   2.584   8.358  0.1001  0.9638 -0.9493
  264TIP3    H222352   3.792   2.672   8.416 -0.5839  0.1746 -1.0192
  265TIP3   OH222353   2.181   4.977   8.561 -0.5379 -0.0825  0.1526
  265TIP3    H122354   2.204   5.069   8.576  0.3361 -0.1950 -0.4041
  265TIP3    H222355   2.152   4.975   8.470 -0.1395 -0.4215  0.0268
  266TIP3   OH222356   4.512   1.832   1.804  0.3978  0.0255  0.3471
  266TIP3    H122357   4.443   1.823   1.869  1.6279  0.1529  1.7315
  266TIP3    H222358   4.469   1.867   1.726 -1.3252 -1.2172  0.6924
  267TIP3   OH222359   0.109   6.076   0.981 -0.7109 -0.4521  0.0570
  267TIP3    H122360   0.150   6.124   0.909  0.9489 -2.1900 -0.2369
  267TIP3    H222361   0.016   6.079   0.961 -0.6219  1.9666 -0.3215
  268TIP3   OH222362   6.778   5.977   8.401  0.3090  0.6196  0.0720
  268TIP3    H122363   6.686   5.982   8.378  0.1881  2.5181  0.7556
  268TIP3    H222364   6.780   5.931   8.485  0.1737 -0.8589 -0.7026
  269TIP3   OH222365   5.855   3.406   1.743 -0.1560  0.2585  0.0621
  269TIP3    H122366   5.929   3.344   1.746  0.8614  1.2149 -2.5299
  269TIP3    H222367   5.890   3.487   1.779  0.1180  0.7495 -1.2861
  270TIP3   OH222368   0.509   4.124   7.199  0.1363  0.1177 -0.2388
  270TIP3    H122369   0.496   4.042   7.151 -1.8334 -0.5445  1.2916
  270TIP3    H222370   0.489   4.102   7.290 -1.2418  2.4632  0.0971
  271TIP3   OH222371   6.127   2.081   7.663 -0.3384  0.0848 -1.1562
  271TIP3    H122372   6.213   2.119   7.681 -1.0941  1.6762 -0.6711
  271TIP3    H222373   6.074   2.103   7.740 -0.7070 -2.5104 -0.5678
  272TIP3   OH222374   0.204   1.888   2.593  0.0102 -0.4860 -0.0225
  272TIP3    H122375   0.135   1.840   2.547 -0.7612 -0.6106  1.2398
  272TIP3    H222376   0.165   1.915   2.676  1.0924  0.5278  0.1933
  273TIP3   OH222377   3.707   3.381   1.099 -0.2141 -0.3028 -0.4025
  273TIP3    H122378   3.668   3.295   1.085 -0.9748 -0.7053  3.2998
  273TIP3    H222379   3.637   3.433   1.139  0.5818  1.7084 -1.4839
  274TIP3   OH222380   1.138   1.651   0.602 -0.1691 -0.1820  0.4439
  274TIP3    H122381   1.093   1.649   0.518  1.0998  0.9663 -0.3049
  274TIP3    H222382   1.215   1.705   0.587  2.2094 -3.0467  1.2903
  275TIP3   OH222383   4.007   5.480   8.247 -1.1031 -0.9549  0.2857
  275TIP3    H122384   3.997   5.562   8.200 -1.1907 -0.6697  0.7915
  275TIP3    H222385   4.081   5.437   8.205  0.1607  0.2301  1.1976
  276TIP3   OH222386   0.564   6.898   2.340 -0.4157  0.7416  0.1061
  276TIP3    H122387   0.589   6.929   2.427 -1.8475  2.0401  0.0924
  276TIP3    H222388   0.475   6.865   2.352  0.5563 -2.2557 -0.1784
  277TIP3   OH222389   0.851   1.472   0.560  0.0478 -0.2911 -0.1987
  277TIP3    H122390   0.896   1.475   0.475  0.8651 -0.2685  0.2301
  277TIP3    H222391   0.831   1.564   0.578  1.6470 -0.0506  0.5473
  278TIP3   OH222392   6.285   0.386   7.718 -0.2328  1.1857 -0.3621
  278TIP3    H122393   6.342   0.427   7.783 -0.9845 -0.0441  1.1384
  278TIP3    H222394   6.304   0.292   7.725 -1.2913  0.9096 -0.9683
  279TIP3   OH222395   3.523   5.279   7.758 -0.4540  0.0127  0.0181
  279TIP3    H122396   3.487   5.338   7.691  0.0334 -0.1593 -0.4054
  279TIP3    H222397   3.511   5.326   7.840  0.0103  0.7524 -0.3220
  280TIP3   OH222398   4.544   5.280   7.574 -0.3873 -0.0053  0.3227
  280TIP3    H122399   4.493   5.334   7.634  0.1162  1.9653 -0.9405
  280TIP3    H222400   4.479   5.239   7.517 -0.6847  1.3229 -0.3328
  281TIP3   OH222401   3.831   5.180   1.893 -0.1828  0.2316 -0.2844
  281TIP3    H122402   3.855   5.267   1.864 -0.2015 -0.0816 -1.2825
  281TIP3    H222403   3.894   5.158   1.961  0.0434  0.8747 -0.2864
  282TIP3   OH222404   4.014   0.121   0.461  0.0917 -0.4722  0.0921
  282TIP3    H122405   4.105   0.141   0.482 -0.0183  0.4780 -0.2798
  282TIP3    H222406   3.970   0.113   0.546  0.4648 -0.6910  0.2664
  283TIP3   OH222407   2.480   4.497   1.184 -0.5076  0.1222 -0.0150
  283TIP3    H122408   2.568   4.517   1.217 -0.6198 -1.0032  1.0136
  283TIP3    H222409   2.420   4.536   1.247 -0.7359 -0.4083  0.1035
  284TIP3   OH222410   6.296   2.362   0.179 -0.6390  0.0602 -0.2902
  284TIP3    H122411   6.260   2.314   0.104 -0.7694  0.3209 -0.3965
  284TIP3    H222412   6.261   2.316   0.256 -1.0540  0.1999 -0.3922
  285TIP3   OH222413   3.103   1.053   0.892 -1.1394 -0.0714  0.2017
  285TIP3    H122414   3.099   1.041   0.797 -1.4049  0.8900  0.0819
  285TIP3    H222415   3.113   1.148   0.904  1.0431 -0.3383  1.0791
  286TIP3   OH222416   5.003   5.829   0.259 -0.5763  0.0946  0.2593
  286TIP3    H122417   5.038   5.827   0.348  0.6197  0.9867 -0.1556
  286TIP3    H222418   4.925   5.774   0.262 -0.0141 -0.6752  1.6267
  287TIP3   OH222419   3.195   4.448   8.124  0.9092  0.8172  0.0467
  287TIP3    H122420   3.126   4.399   8.079  1.0270 -0.8918  1.6089
  287TIP3    H222421   3.148   4.511   8.178  0.5845  0.2657  0.4232
  288TIP3   OH222422   0.407   5.038   0.504 -0.1467  0.4688  0.5029
  288TIP3    H122423   0.473   5.040   0.573  0.2939  0.8666  0.0718
  288TIP3    H222424   0.364   4.953   0.515  0.2387  0.3279  0.9635
  289TIP3   OH222425   2.547   3.972   0.678  0.3797 -0.0756  0.1008
  289TIP3    H122426   2.637   3.989   0.651  0.0996  2.4373  0.4687
  289TIP3    H222427   2.530   3.882   0.650  2.8458 -0.4806 -0.3354
  290TIP3   OH222428   5.242   4.523   0.861 -0.2589 -0.1834  0.5330
  290TIP3    H122429   5.188   4.496   0.935  1.3095 -1.3654  1.2954
  290TIP3    H222430   5.332   4.513   0.891  0.4290 -0.2550 -1.3793
  291TIP3   OH222431   4.744   4.587   7.016 -0.0596  0.5398 -0.0185
  291TIP3    H122432   4.770   4.645   6.944  0.0745 -1.1064 -1.3454
  291TIP3    H222433   4.820   4.533   7.033 -0.7640 -0.4940 -0.0702
  292TIP3   OH222434   4.187   5.462   0.768  0.1352  0.2146  0.2707
  292TIP3    H122435   4.200   5.518   0.691 -0.5491 -0.2125 -0.1601
  292TIP3    H222436   4.211   5.518   0.842  1.3797  0.4454 -0.2792
  293TIP3   OH222437   0.713   2.841   1.186 -0.3039 -0.1325 -0.5977
  293TIP3    H122438   0.651   2.912   1.204  0.4118  0.1036  1.2192
  293TIP3    H222439   0.795   2.871   1.227  0.5157 -1.2168 -1.3946
  294TIP3   OH222440   4.080   6.191   7.019  0.7123 -0.4114  0.4204
  294TIP3    H122441   4.064   6.098   7.031  2.7717 -0.7021  1.2186
  294TIP3    H222442   4.148   6.195   6.952 -0.4902  0.6232 -0.7948
  295TIP3   OH222443   0.347   0.950   7.075  0.2051  0.1714 -0.0135
  295TIP3    H122444   0.328   0.856   7.063 -0.5296  0.4753 -1.5579
  295TIP3    H222445   0.268   0.985   7.116 -0.0841  0.3455 -0.7076
  296TIP3   OH222446   5.699   4.819   1.515 -0.3212  0.0097 -0.4203
  296TIP3    H122447   5.652   4.800   1.434  0.0219  0.7841 -0.8112
  296TIP3    H222448   5.635   4.864   1.570  0.6022  3.5104 -1.9640
  297TIP3   OH222449   6.160   4.903   0.580  0.6544 -0.6752  0.5636
  297TIP3    H122450   6.240   4.878   0.625  0.1048  0.9808  2.6474
  297TIP3    H222451   6.090   4.865   0.634 -0.0339 -2.8199 -1.6749
  298TIP3   OH222452   1.576   2.811   1.919  0.0677  0.1431  0.7682
  298TIP3    H122453   1.542   2.887   1.966 -0.6288  0.5751 -0.4026
  298TIP3    H222454   1.666   2.835   1.897  0.4137 -0.0751  1.8627
  299TIP3   OH222455   1.337   1.965   8.014 -0.4676 -1.1065 -0.0850
  299TIP3    H122456   1.264   2.022   7.986  1.4514  1.5218 -0.1304
  299TIP3    H222457   1.399   1.969   7.941  0.1460 -2.5990  0.3236
  300TIP3   OH222458   5.106   2.252   7.177  0.0051 -0.1619 -0.4102
  300TIP3    H122459   5.087   2.169   7.133  3.2069 -2.4213  2.0198
  300TIP3    H222460   5.079   2.238   7.267  0.7023  1.4588  0.0796
  301TIP3   OH222461   2.779   6.082   0.777 -0.5468  0.3368 -0.1106
  301TIP3    H122462   2.819   6.157   0.734 -0.0619  0.2168  0.1269
  301TIP3    H222463   2.701   6.118   0.820 -0.9270  0.4952 -0.9090
  302TIP3   OH222464   1.216   5.600   2.159  0.3670  0.5757 -0.6687
  302TIP3    H122465   1.158   5.545   2.212 -0.5716  1.8884 -0.3003
  302TIP3    H222466   1.304   5.578   2.190 -0.0729  0.2315  0.3866
  303TIP3   OH222467   2.738   3.005   8.170 -0.2690 -0.1941  0.5021
  303TIP3    H122468   2.807   2.970   8.114 -0.5591 -0.7054  0.4501
  303TIP3    H222469   2.764   3.095   8.188 -0.6922  0.3451 -1.3230
  304TIP3   OH222470   2.820   0.719   7.120 -0.1051  0.0432  0.3920
  304TIP3    H122471   2.798   0.628   7.142  0.9279 -0.1381  0.7303
  304TIP3    H222472   2.910   0.714   7.089 -0.3624  0.8240 -0.5083
  305TIP3   OH222473   3.574   0.423   0.790 -0.7315  0.1079  0.0388
  305TIP3    H122474   3.669   0.416   0.778 -0.5639  0.7204  0.9538
  305TIP3    H222475   3.554   0.513   0.764 -0.9038  0.2983  0.8168
  306TIP3   OH222476   2.412   5.333   1.793 -0.0806  0.1616  1.0142
  306TIP3    H122477   2.502   5.359   1.814 -0.6478  2.1124  1.3010
  306TIP3    H222478   2.412   5.323   1.698  0.6516 -0.8477  1.1046
  307TIP3   OH222479   4.045   0.272   0.770 -0.2231 -0.1068 -0.1237
  307TIP3    H122480   4.086   0.185   0.769  0.6877  0.2783  1.1282
  307TIP3    H222481   4.119   0.333   0.779 -1.0045  0.5857  2.9593
  308TIP3   OH222482   3.077   6.234   7.665  0.3244  0.7859  0.1821
  308TIP3    H122483   3.112   6.158   7.618 -0.1300 -0.9258  2.4416
  308TIP3    H222484   3.131   6.239   7.744 -0.7243  1.7833  0.8555
  309TIP3   OH222485   4.406   6.216   0.604  0.2890 -1.1111  0.1392
  309TIP3    H122486   4.489   6.188   0.566 -0.3168 -0.8661 -1.4939
  309TIP3    H222487   4.355   6.248   0.528 -1.0320 -0.6378  1.1794
  310TIP3   OH222488   0.426   4.227   1.934  0.0769  0.3806 -0.1101
  310TIP3    H122489   0.389   4.315   1.947  1.5148  1.1809 -1.1221
  310TIP3    H222490   0.350   4.169   1.937 -1.1184  1.8194 -0.9276
  311TIP3   OH222491   0.929   1.699   0.789 -0.1986  0.0012 -0.5981
  311TIP3    H122492   1.001   1.669   0.733  0.8461 -1.5386  1.4337
  311TIP3    H222493   0.972   1.725   0.871 -1.7687  1.0997 -0.0872
  312TIP3   OH222494   3.368   3.694   7.739 -0.2026  0.4770 -0.4445
  312TIP3    H122495   3.348   3.647   7.658  0.8355 -0.0917 -0.3903
  312TIP3    H222496   3.309   3.656   7.803  0.7330 -0.9302 -0.3615
  313TIP3   OH222497   3.666   6.497   0.693 -0.1065  0.0905 -0.2178
  313TIP3    H122498   3.701   6.528   0.609  1.5392 -0.9686  0.0368
  313TIP3    H222499   3.611   6.422   0.669  0.1348 -0.0405 -0.3596
  314TIP3   OH222500   6.857   6.275   0.401  0.2915 -0.4293 -0.2605
  314TIP3    H122501   6.781   6.219   0.416 -0.1210 -0.5285 -2.4594
  314TIP3    H222502   6.825   6.364   0.416  0.1810 -0.5796  0.4060
  315TIP3   OH222503   2.790   0.905   0.060 -0.8388  0.1335  0.2868
  315TIP3    H122504   2.796   0.814   0.031  1.0294 -0.1069  1.2466
  315TIP3    H222505   2.710   0.938   0.019 -1.0768 -1.6608 -0.8241
  316TIP3   OH222506   4.772   0.885   1.522 -0.5541 -0.1978 -0.1638
  316TIP3    H122507   4.763   0.952   1.454 -2.3549  0.7571  0.9395
  316TIP3    H222508   4.823   0.926   1.591 -1.3221 -0.0780  0.3460
  317TIP3   OH222509   1.410   1.469   1.307 -0.0834 -0.5612 -0.0845
  317TIP3    H122510   1.501   1.443   1.294  0.4467 -0.4969  2.8688
  317TIP3    H222511   1.399   1.474   1.402 -2.7772  0.8867 -0.3619
  318TIP3   OH222512   5.986   3.653   1.866 -0.1000 -0.0065  0.3655
  318TIP3    H122513   6.035   3.723   1.908 -1.8001  0.7400  1.1755
  318TIP3    H222514   6.025   3.646   1.778  1.7439  0.2017  1.1147
  319TIP3   OH222515   2.574   1.711   7.075 -0.2552 -0.1794  0.6465
  319TIP3    H122516   2.652   1.755   7.040 -0.7503  1.4155  1.4553
  319TIP3    H222517   2.578   1.623   7.037  0.6585  0.6106 -1.2598
  320TIP3   OH222518   1.625   6.041   3.265  0.3107 -0.1402 -0.7283
  320TIP3    H122519   1.531   6.031   3.252  0.3647  1.0462 -2.3784
  320TIP3    H222520   1.650   5.965   3.317 -1.3089 -1.2911 -1.5289
  321TIP3   OH222521   4.773   1.847   1.355  0.5761 -0.7797  0.1704
  321TIP3    H122522   4.740   1.904   1.286  2.6479  0.8995  0.4552
  321TIP3    H222523   4.703   1.784   1.371 -0.7379  0.0356 -2.0370
  322TIP3   OH222524   0.824   1.237   1.064 -0.3631  0.1583  0.1371
  322TIP3    H122525   0.832   1.278   0.978  0.3822 -2.4751 -1.1601
  322TIP3    H222526   0.771   1.159   1.049 -1.2168  0.2213  2.3539
  323TIP3   OH222527   1.235   3.004   1.294  0.1080 -0.3421  0.9809
  323TIP3    H122528   1.195   2.917   1.286 -0.1072 -0.0838 -1.1987
  323TIP3    H222529   1.167   3.065   1.264  1.1526  0.3480 -0.0507
  324TIP3   OH222530   2.082   3.015   3.055  0.6913 -0.3495  0.0215
  324TIP3    H122531   1.996   3.030   3.096 -0.2749 -2.0640 -1.2358
  324TIP3    H222532   2.145   3.036   3.124 -0.7328  0.6824  1.0815
  325TIP3   OH222533   0.960   4.011   2.796 -0.6121 -0.2743 -0.1477
  325TIP3    H122534   0.930   3.923   2.772 -1.6658  0.2808 -0.9584
  325TIP3    H222535   1.055   4.002   2.807 -0.5653 -1.3131 -1.1932
  326TIP3   OH222536   2.802   5.673   0.645 -0.1946 -0.6251 -0.1741
  326TIP3    H122537   2.765   5.746   0.596  0.5939 -0.4670 -0.5560
  326TIP3    H222538   2.733   5.647   0.706  0.3175  1.9351  1.6198
  327TIP3   OH222539   2.165   2.865   8.478  0.1901 -0.2982 -0.3957
  327TIP3    H122540   2.152   2.837   8.387  1.8407 -0.8750 -0.4856
  327TIP3    H222541   2.170   2.961   8.473  2.1660 -0.3881 -1.2445
  328TIP3   OH222542   6.377   0.463   8.176  0.0732  0.4613 -0.2483
  328TIP3    H122543   6.370   0.418   8.261  1.3170  0.5494 -0.0917
  328TIP3    H222544   6.355   0.396   8.112 -2.2248  0.7262  0.1698
  329TIP3   OH222545   1.506   3.022   1.149 -0.5946 -0.1734 -0.0399
  329TIP3    H122546   1.493   2.970   1.070  1.0297 -1.7487  0.6542
  329TIP3    H222547   1.430   3.003   1.204 -1.0898 -0.0768 -0.6752
  330TIP3   OH222548   4.537   4.071   1.937  0.1947 -0.0405 -0.9074
  330TIP3    H122549   4.453   4.116   1.930  0.1634  0.2486  0.9056
  330TIP3    H222550   4.598   4.139   1.964  0.5838 -0.6553 -0.2025
  331TIP3   OH222551   4.116   1.147   0.452 -0.3964 -0.5326  0.3551
  331TIP3    H122552   4.097   1.218   0.391 -0.7158  0.5737  1.6865
  331TIP3    H222553   4.100   1.067   0.403  0.3157  0.3014 -1.2992
  332TIP3   OH222554   3.319   6.678   2.251 -0.1013 -0.4203  0.2845
  332TIP3    H122555   3.324   6.714   2.340  0.9909  1.1403 -0.3534
  332TIP3    H222556   3.229   6.648   2.243 -1.1874  2.3429  0.8974
  333TIP3   OH222557   1.601   1.867   2.875 -0.2911  0.6849  0.2925
  333TIP3    H122558   1.682   1.866   2.926  0.4076  0.4567 -0.7974
  333TIP3    H222559   1.629   1.880   2.785 -1.4832  0.6999 -0.0963
  334TIP3   OH222560   2.431   3.632   1.825 -0.8228  0.1887  0.0505
  334TIP3    H122561   2.478   3.573   1.884 -1.5006 -1.1100 -0.6567
  334TIP3    H222562   2.372   3.681   1.881  0.7019  1.2130  0.8381
  335TIP3   OH222563   6.736   1.706   1.271 -0.0866 -0.1267 -0.1734
  335TIP3    H122564   6.647   1.731   1.294 -0.5627 -1.3430 -0.6416
  335TIP3    H222565   6.726   1.637   1.206  1.0889 -2.7611  2.2252
  336TIP3   OH222566   3.644   2.250   1.547 -0.0758  0.0157 -0.0690
  336TIP3    H122567   3.666   2.279   1.458 -1.6080 -0.7437 -0.7175
  336TIP3    H222568   3.549   2.245   1.548 -0.0499 -0.6016  1.4394
  337TIP3   OH222569   3.842   1.827   8.534 -0.0148 -0.2539 -0.0508
  337TIP3    H122570   3.897   1.773   8.478 -1.1878 -0.9108 -0.5986
  337TIP3    H222571   3.848   1.915   8.497  0.8999 -0.2408  0.0949
  338TIP3   OH222572   5.023   2.887   8.144  0.1545 -0.8809 -0.5302
  338TIP3    H122573   5.062   2.943   8.211  1.4499  0.5712 -2.3804
  338TIP3    H222574   4.942   2.854   8.184  0.1191  1.0918  1.1939
  339TIP3   OH222575   0.426   5.957   6.602  0.1088 -0.1492  0.4437
  339TIP3    H122576   0.503   5.911   6.635  0.6344  1.5628  1.7422
  339TIP3    H222577   0.437   6.047   6.631 -2.0547  0.3112  0.0431
  340TIP3   OH222578   6.767   5.400   8.049  0.4558 -0.1374 -0.8632
  340TIP3    H122579   6.850   5.447   8.056  0.1460  0.3716 -0.5393
  340TIP3    H222580   6.739   5.387   8.139  0.4018 -0.7065 -0.9609
  341TIP3   OH222581   1.474   2.692   7.599 -0.6629  0.5990 -0.1435
  341TIP3    H122582   1.479   2.634   7.522 -1.5290  0.9207 -0.4614
  341TIP3    H222583   1.563   2.691   7.635 -0.4295 -0.1803 -0.6884
  342TIP3   OH222584   2.315   1.591   0.604 -0.0990 -0.8482  0.2967
  342TIP3    H122585   2.231   1.633   0.617 -1.1120 -2.6066 -0.2008
  342TIP3    H222586   2.317   1.521   0.669  0.8978 -0.9562  0.1728
  343TIP3   OH222587   1.453   5.695   1.851  0.0483  0.0675  0.0216
  343TIP3    H122588   1.372   5.742   1.830 -0.5365 -2.2624 -3.9854
  343TIP3    H222589   1.523   5.751   1.817 -0.3015 -0.0628 -0.9363
  344TIP3   OH222590   2.837   4.142   8.173 -0.5264  0.2655 -0.3826
  344TIP3    H122591   2.809   4.175   8.258 -0.8019  1.2000 -0.8288
  344TIP3    H222592   2.899   4.207   8.140 -1.7454  0.8249 -1.6620
  345TIP3   OH222593   1.708   1.472   0.272 -0.3518 -0.5002  0.4264
  345TIP3    H122594   1.638   1.407   0.264  0.0031 -0.9192  0.7230
  345TIP3    H222595   1.682   1.525   0.347 -0.1061 -0.9544  0.8308
  346TIP3   OH222596   2.141   4.939   8.296  0.2794 -0.0995  0.2422
  346TIP3    H122597   2.200   4.865   8.307  0.9412  0.5977  1.7837
  346TIP3    H222598   2.187   4.999   8.237  0.5857 -0.0916  0.4883
  347TIP3   OH222599   2.357   4.330   1.000  1.0093 -0.0624  0.2441
  347TIP3    H122600   2.440   4.289   0.974  2.3235  0.9010  2.6198
  347TIP3    H222601   2.378   4.378   1.081 -1.7720  0.5971  0.6735
  348TIP3   OH222602   3.209   3.702   8.008 -0.8601  0.6021  0.1095
  348TIP3    H122603   3.170   3.615   8.007 -1.5993  0.8897  1.4460
  348TIP3    H222604   3.249   3.709   8.095  0.1558  1.1961 -0.3832
  349TIP3   OH222605   4.118   2.966   0.749 -0.4486 -0.5635  0.5751
  349TIP3    H122606   4.041   2.993   0.799 -0.5418 -2.6834  1.6732
  349TIP3    H222607   4.093   2.979   0.658 -0.2349  3.5378  0.8751
  350TIP3   OH222608   2.661   6.495   0.263  0.3124 -0.3123 -0.4213
  350TIP3    H122609   2.685   6.583   0.290 -0.9303 -0.3372  0.9036
  350TIP3    H222610   2.664   6.497   0.167  0.8282  0.9962 -0.3940
  351TIP3   OH222611   3.786   5.470   6.097 -0.2354 -0.4275 -0.0417
  351TIP3    H122612   3.728   5.545   6.112  0.8967  0.7561 -1.1995
  351TIP3    H222613   3.850   5.474   6.168 -0.9197 -1.0862  0.6244
  352TIP3   OH222614   5.299   5.605   0.649  0.2441  0.2446 -0.2251
  352TIP3    H122615   5.344   5.521   0.641 -0.1140  0.1238 -1.0404
  352TIP3    H222616   5.270   5.609   0.741  2.0021  0.3811  0.3626
  353TIP3   OH222617   5.795   3.632   0.815  0.0004 -0.3659  0.3124
  353TIP3    H122618   5.753   3.594   0.738  0.7996  0.0187 -0.3222
  353TIP3    H222619   5.854   3.564   0.847  2.4729  0.7224 -1.6320
  354TIP3   OH222620   0.826   1.773   0.192 -0.2383  0.0629  0.3120
  354TIP3    H122621   0.733   1.775   0.173  0.1508 -1.8901 -2.3520
  354TIP3    H222622   0.833   1.804   0.282 -3.6257 -1.3092  1.1847
  355TIP3   OH222623   6.037   5.773   2.457 -0.1157  0.5020 -0.2367
  355TIP3    H122624   6.063   5.812   2.540  0.1409  1.7731 -0.8858
  355TIP3    H222625   5.956   5.726   2.476  1.4865 -1.8596  1.3867
  356TIP3   OH222626   1.709   1.494   8.500 -0.1414  0.0856  0.7076
  356TIP3    H122627   1.703   1.458   8.411 -0.8782  0.3506  0.6416
  356TIP3    H222628   1.772   1.566   8.492 -0.9528  0.7589  0.1652
  357TIP3   OH222629   0.774   6.208   8.543  0.3576 -0.0587  0.2470
  357TIP3    H122630   0.742   6.120   8.521  1.0259 -0.4174  0.7125
  357TIP3    H222631   0.697   6.264   8.531  0.2874 -0.4727 -1.4878
  358TIP3   OH222632   5.570   0.388   0.642 -0.3356 -0.3755 -0.1476
  358TIP3    H122633   5.661   0.379   0.614 -0.1844 -1.0156  0.5135
  358TIP3    H222634   5.571   0.459   0.706 -0.4877  0.3083 -0.8810
  359TIP3   OH222635   6.172   4.395   1.369  0.4703  0.7925 -0.0553
  359TIP3    H122636   6.100   4.336   1.346 -0.3055  1.9361 -0.6279
  359TIP3    H222637   6.171   4.398   1.464 -0.0452  0.5736 -0.0536
  360TIP3   OH222638   5.105   4.002   8.318  0.1990  0.0227 -0.5622
  360TIP3    H122639   5.196   4.013   8.292  0.4838 -0.6065  0.1470
  360TIP3    H222640   5.102   4.032   8.409  0.1611 -1.9136  0.1116
  361TIP3   OH222641   1.660   4.099   8.183  0.0316 -0.1781 -0.3615
  361TIP3    H122642   1.644   4.014   8.224  1.9322 -0.7558 -0.7154
  361TIP3    H222643   1.747   4.091   8.144  0.9176  2.4361  0.8549
  362TIP3   OH222644   3.641   3.821   0.464 -0.4127  0.2279 -0.0864
  362TIP3    H122645   3.640   3.749   0.526 -0.6757  0.4869  0.2146
  362TIP3    H222646   3.549   3.835   0.442 -0.6475  2.0002  1.6675
  363TIP3   OH222647   1.737   5.749   0.758  0.5847 -0.4361 -0.6374
  363TIP3    H122648   1.670   5.682   0.747  0.0882  0.2135 -1.7843
  363TIP3    H222649   1.772   5.763   0.669  3.5877 -2.0613  0.1271
  364TIP3   OH222650   1.466   5.706   7.013  0.6994  0.8991 -0.5874
  364TIP3    H122651   1.462   5.611   7.004  0.6519  0.9701 -1.3536
  364TIP3    H222652   1.521   5.735   6.941  0.6745  1.4600 -0.3879
  365TIP3   OH222653   2.842   1.115   7.574 -0.0313  0.4512 -0.2093
  365TIP3    H122654   2.746   1.109   7.576 -0.1166  1.6278 -0.3252
  365TIP3    H222655   2.862   1.164   7.495  0.6755  0.1652 -0.2141
  366TIP3   OH222656   0.382   2.717   1.682 -0.2591 -0.0989  0.5109
  366TIP3    H122657   0.343   2.630   1.693  2.0155 -1.1621  0.6435
  366TIP3    H222658   0.462   2.714   1.734  1.0910  1.2420 -1.3912
  367TIP3   OH222659   4.351   3.848   0.831  0.0356  0.0852  0.2383
  367TIP3    H122660   4.289   3.916   0.806  1.8240  1.5320 -0.5390
  367TIP3    H222661   4.433   3.875   0.789  1.4190 -1.2289  1.9773
  368TIP3   OH222662   6.236   2.083   0.844 -0.1540  0.2378  0.7086
  368TIP3    H122663   6.283   2.130   0.912 -0.0850  0.9766  0.1619
  368TIP3    H222664   6.144   2.099   0.863 -0.1635 -0.4653  1.2599
  369TIP3   OH222665   5.312   6.632   1.983 -0.4679  0.1933 -0.2438
  369TIP3    H122666   5.366   6.589   2.050 -0.8468  0.2583  0.1052
  369TIP3    H222667   5.374   6.656   1.914 -0.1819 -0.5082 -0.2387
  370TIP3   OH222668   4.436   5.625   1.349 -0.5310  0.5012  0.1199
  370TIP3    H122669   4.459   5.673   1.429  0.7088 -0.4723  0.3620
  370TIP3    H222670   4.509   5.641   1.289 -1.5741  1.4556 -0.9679
  371TIP3   OH222671   0.810   5.863   3.013 -0.1758 -0.1897  0.5123
  371TIP3    H122672   0.853   5.936   3.057 -0.1183 -0.0998  0.3056
  371TIP3    H222673   0.716   5.878   3.027 -0.2444  0.6981 -0.7473
  372TIP3   OH222674   3.091   2.325   1.667  0.7444  0.3107 -0.1042
  372TIP3    H122675   3.148   2.314   1.742  1.6337 -1.2791 -0.9456
  372TIP3    H222676   3.064   2.235   1.644  1.5071  0.6032 -2.4080
  373TIP3   OH222677   1.376   0.991   1.746 -0.3930 -0.1699  0.4607
  373TIP3    H122678   1.447   1.009   1.808  0.1731  0.2928 -0.3116
  373TIP3    H222679   1.302   1.040   1.780  0.5332  1.9573 -0.4331
  374TIP3   OH222680   4.105   6.046   7.595  0.0456 -0.3824  0.4257
  374TIP3    H122681   4.164   6.046   7.670  2.7594 -2.5017 -1.4874
  374TIP3    H222682   4.159   6.015   7.522 -3.0020 -0.6352 -1.9411
  375TIP3   OH222683   6.232   5.503   2.066 -0.0456 -0.0833 -0.2803
  375TIP3    H122684   6.301   5.493   2.132 -0.2695  0.3875  0.0290
  375TIP3    H222685   6.268   5.567   2.004 -0.8280  1.4434  0.7605
  376TIP3   OH222686   3.841   2.511   0.241  0.7499  0.2754  0.2740
  376TIP3    H122687   3.794   2.588   0.207 -0.0565 -0.3297 -0.0204
  376TIP3    H222688   3.807   2.500   0.330  1.7120  0.9264  0.7430
  377TIP3   OH222689   2.273   5.167   1.608 -0.0042  0.3069 -0.7582
  377TIP3    H122690   2.302   5.078   1.631  0.3258  1.2192  2.9999
  377TIP3    H222691   2.330   5.192   1.535  2.3936 -1.3203  0.4133
  378TIP3   OH222692   4.970   6.268   1.673 -0.7400 -0.1770  0.1173
  378TIP3    H122693   4.888   6.223   1.692 -0.3679 -0.6071  0.7357
  378TIP3    H222694   4.949   6.326   1.600 -1.5110 -0.5203  0.0564
  379TIP3   OH222695   3.903   6.383   7.014  0.3348  0.8097 -0.2916
  379TIP3    H122696   3.965   6.455   7.001  0.7893  0.1786 -1.8490
  379TIP3    H222697   3.958   6.305   7.020 -0.1345  0.5799  1.6856
  380TIP3   OH222698   5.168   6.284   1.936  0.3844  0.2157 -0.5715
  380TIP3    H122699   5.107   6.347   1.974 -0.5421 -1.0397  0.1078
  380TIP3    H222700   5.183   6.316   1.847 -0.7565  0.9234 -0.5312
  381TIP3   OH222701   2.563   0.651   1.705 -0.4025  0.0911  0.2794
  381TIP3    H122702   2.620   0.589   1.659  0.5323  0.7874  0.4590
  381TIP3    H222703   2.516   0.697   1.635 -1.2329 -0.9193  0.1513
  382TIP3   OH222704   3.293   4.724   6.699 -0.0452 -0.4502 -0.7259
  382TIP3    H122705   3.387   4.717   6.716 -0.2012 -0.5965  0.1196
  382TIP3    H222706   3.284   4.806   6.651  0.4278  0.0248 -0.0354
  383TIP3   OH222707   5.132   6.642   7.617  0.4181  0.1715 -0.4280
  383TIP3    H122708   5.061   6.693   7.579  0.0958 -1.0928 -1.6081
  383TIP3    H222709   5.209   6.667   7.566  0.3100 -0.2959 -0.8333
  384TIP3   OH222710   4.681   2.642   0.464  0.9248 -0.2821  0.5162
  384TIP3    H122711   4.636   2.722   0.493  0.4116 -0.7064  0.9086
  384TIP3    H222712   4.704   2.597   0.546  3.7736  0.8109  0.4536
  385TIP3   OH222713   3.857   4.190   0.166 -0.2327 -0.6348  0.1513
  385TIP3    H122714   3.946   4.212   0.194  0.1535 -0.6598 -0.9885
  385TIP3    H222715   3.806   4.187   0.247  1.0419 -1.7730  0.9568
  386TIP3   OH222716   4.261   0.925   7.998  0.4546 -0.1779  0.0711
  386TIP3    H122717   4.316   0.897   7.924  0.2728  0.2610 -0.2356
  386TIP3    H222718   4.314   0.989   8.044 -0.3185  1.3163 -1.0430
  387TIP3   OH222719   3.694   3.865   2.072 -0.4055 -0.7361  0.0938
  387TIP3    H122720   3.778   3.830   2.101  0.0212 -0.2487 -0.5232
  387TIP3    H222721   3.632   3.795   2.090 -0.2890 -0.2635  2.6694
  388TIP3   OH222722   5.083   1.229   1.239 -0.1581 -0.2663 -0.6932
  388TIP3    H122723   5.093   1.240   1.333  1.3808 -1.7557 -0.6400
  388TIP3    H222724   5.020   1.297   1.214  3.3127  3.8584  0.5466
  389TIP3   OH222725   5.878   2.023   1.099 -0.1778  0.6519  0.0208
  389TIP3    H122726   5.963   1.988   1.124 -0.1255  0.3396 -0.5549
  389TIP3    H222727   5.848   2.073   1.175  0.2831  0.3313  0.4173
  390TIP3   OH222728   6.416   6.473   1.694  0.1037  0.1690 -0.0842
  390TIP3    H122729   6.436   6.522   1.615 -0.1034  0.2261 -0.1016
  390TIP3    H222730   6.371   6.394   1.662  0.4043 -0.0151 -0.0548
  391TIP3   OH222731   6.149   2.141   1.546  0.2249  0.2368 -0.2917
  391TIP3    H122732   6.191   2.088   1.478  0.7066 -0.0195  0.1972
  391TIP3    H222733   6.154   2.087   1.625 -0.1696  0.6046 -0.0077
  392TIP3   OH222734   3.317   4.970   0.786  0.0080  0.2066 -0.1755
  392TIP3    H122735   3.285   4.918   0.713  0.8548 -1.2078  0.4348
  392TIP3    H222736   3.397   5.012   0.752  0.4703 -0.5483 -0.0299
  393TIP3   OH222737   4.934   2.302   7.929 -0.2859  0.2557  0.0524
  393TIP3    H122738   4.960   2.392   7.911  0.8875 -0.6873 -3.8913
  393TIP3    H222739   5.012   2.262   7.968  0.0697  0.3673 -0.5274
  394TIP3   OH222740   4.377   1.749   2.463 -0.5428 -0.0608 -0.2553
  394TIP3    H122741   4.298   1.705   2.435 -1.1814 -0.1876  1.6187
  394TIP3    H222742   4.347   1.826   2.511  0.4620 -0.0776  0.4444
  395TIP3   OH222743   5.475   0.911   8.077  0.4328 -0.2827  0.2767
  395TIP3    H122744   5.474   0.994   8.123  1.6528  0.1062 -0.3490
  395TIP3    H222745   5.410   0.922   8.007  1.0138  0.3843 -0.1763
  396TIP3   OH222746   3.326   4.680   8.276  0.4183  0.1959 -0.2303
  396TIP3    H122747   3.306   4.699   8.368 -0.8551  0.1485 -0.4869
  396TIP3    H222748   3.422   4.670   8.274  0.2750 -2.5412  1.6062
  397TIP3   OH222749   4.435   5.965   2.166 -0.0656 -0.0426  0.2145
  397TIP3    H122750   4.345   5.970   2.199 -0.7079 -0.1530 -1.4000
  397TIP3    H222751   4.433   6.018   2.085  1.7508  1.3376  1.0072
  398TIP3   OH222752   1.140   2.221   2.048  0.2802 -0.0324  0.2059
  398TIP3    H122753   1.143   2.242   1.954 -1.9914 -0.8714 -0.1191
  398TIP3    H222754   1.164   2.303   2.091  0.6417  0.5811 -1.0988
  399TIP3   OH222755   1.309   0.112   7.975  0.4558  0.3279 -0.2062
  399TIP3    H122756   1.341   0.203   7.981  0.3279  0.3060  0.8315
  399TIP3    H222757   1.385   0.059   7.998  0.7992  0.1084 -1.6984
  400TIP3   OH222758   4.775   1.269   1.158 -0.2408 -0.0698  0.5322
  400TIP3    H122759   4.747   1.209   1.228 -0.9525  0.1803  0.4662
  400TIP3    H222760   4.786   1.353   1.202  0.8781 -0.2664  0.6483
  401TIP3   OH222761   4.007   5.029   2.946 -0.6704 -0.1834 -0.2558
  401TIP3    H122762   3.951   5.055   3.019 -0.8742 -2.0987  0.3095
  401TIP3    H222763   3.945   5.002   2.877 -0.4574 -0.0477 -0.5019
  402TIP3   OH222764   1.543   3.342   0.446 -0.5657  0.1656  0.5031
  402TIP3    H122765   1.594   3.407   0.399 -2.0435  0.0869 -1.3278
  402TIP3    H222766   1.581   3.340   0.534  0.6664  2.1683  0.0731
  403TIP3   OH222767   0.352   0.900   2.226  0.7131  0.3485  0.0796
  403TIP3    H122768   0.306   0.901   2.309  1.4066  2.7295  0.5284
  403TIP3    H222769   0.285   0.924   2.161 -0.2013 -3.0103 -0.3965
  404TIP3   OH222770   5.011   5.607   2.082 -0.1780  0.0789  0.6620
  404TIP3    H122771   4.927   5.623   2.126 -0.1595  2.6647 -0.1066
  404TIP3    H222772   4.987   5.563   2.001 -0.5235 -1.4080  1.5267
  405TIP3   OH222773   4.676   1.220   2.177 -0.5162  0.0929  0.0159
  405TIP3    H122774   4.628   1.142   2.150  0.3295 -1.4380  2.5739
  405TIP3    H222775   4.610   1.277   2.217 -0.7362 -0.5884  0.6459
  406TIP3   OH222776   0.973   6.259   1.959  0.0703  0.4870  0.3185
  406TIP3    H122777   0.985   6.237   2.051 -1.1717 -1.8368 -0.0075
  406TIP3    H222778   1.062   6.274   1.926  0.7363 -0.8857  1.3879
  407TIP3   OH222779   2.310   2.372   1.354  0.1617 -0.2197 -1.0207
  407TIP3    H122780   2.288   2.448   1.408  1.1490 -1.0613  0.6520
  407TIP3    H222781   2.254   2.303   1.387  1.5588 -1.0345 -0.2448
  408TIP3   OH222782   4.432   0.737   0.563 -0.0516  0.0458 -0.7098
  408TIP3    H122783   4.498   0.683   0.608 -1.2154 -1.0293 -0.2217
  408TIP3    H222784   4.383   0.675   0.510 -1.9081  0.4494  0.4411
  409TIP3   OH222785   3.813   6.423   7.278 -0.2630  0.0234  0.4012
  409TIP3    H122786   3.832   6.386   7.192 -0.1716 -3.4669  1.7572
  409TIP3    H222787   3.721   6.401   7.293 -0.6423  1.7115  0.7446
  410TIP3   OH222788   3.717   4.868   1.800  0.0258  0.7388  0.4438
  410TIP3    H122789   3.678   4.907   1.878  0.5178  4.2073 -0.8690
  410TIP3    H222790   3.657   4.892   1.729  1.0401  0.1308 -0.6471
  411TIP3   OH222791   5.504   4.620   2.267  0.4599  0.4648 -0.1575
  411TIP3    H122792   5.442   4.608   2.339 -0.1768  1.2580 -0.5565
  411TIP3    H222793   5.588   4.591   2.302 -0.2413 -1.2906  0.1876
  412TIP3   OH222794   2.472   4.044   6.959 -0.3683 -0.4002  0.4372
  412TIP3    H122795   2.484   3.949   6.956  0.5364 -0.2946  0.1446
  412TIP3    H222796   2.418   4.063   6.883 -1.2068 -0.7596  0.9342
  413TIP3   OH222797   1.150   4.655   7.450  0.1585 -0.2760 -0.1194
  413TIP3    H122798   1.165   4.611   7.534 -2.0791 -1.4363 -0.2430
  413TIP3    H222799   1.163   4.587   7.384 -0.0026  0.1309 -0.5802
  414TIP3   OH222800   0.239   4.788   0.538 -0.5645 -0.3364  0.0022
  414TIP3    H122801   0.197   4.707   0.566 -0.2092 -0.5355 -0.0319
  414TIP3    H222802   0.226   4.849   0.611 -0.6011 -0.5087  0.1383
  415TIP3   OH222803   4.830   4.114   1.828  0.6685 -0.2853  0.4056
  415TIP3    H122804   4.858   4.127   1.918 -0.0533 -1.0849  0.7518
  415TIP3    H222805   4.791   4.198   1.803 -2.4160 -1.1023  2.0501
  416TIP3   OH222806   2.436   0.132   0.622  0.1885  0.4343  1.0735
  416TIP3    H122807   2.356   0.106   0.577  0.7803 -0.7029  0.6569
  416TIP3    H222808   2.448   0.224   0.599 -0.3907  0.3036  0.2240
  417TIP3   OH222809   6.158   5.094   6.885  0.0008  0.3734 -0.4610
  417TIP3    H122810   6.096   5.155   6.927 -0.9991  0.3721 -1.8615
  417TIP3    H222811   6.104   5.043   6.825  1.0740 -0.9371 -0.3565
  418TIP3   OH222812   1.563   2.414   2.609  0.9027  0.0017  0.5223
  418TIP3    H122813   1.495   2.430   2.543  1.2761  0.4560  0.2388
  418TIP3    H222814   1.564   2.319   2.620  0.7336 -0.0696 -0.0252
  419TIP3   OH222815   5.399   5.433   2.100 -0.4548 -0.2275 -0.0209
  419TIP3    H122816   5.428   5.488   2.027  0.9828 -0.3241  0.4268
  419TIP3    H222817   5.385   5.495   2.172  0.6470 -0.3459  0.3292
  420TIP3   OH222818   0.971   2.366   0.298  1.0154 -0.1812 -0.0715
  420TIP3    H122819   0.887   2.347   0.338  1.0559  0.3935  0.2974
  420TIP3    H222820   0.996   2.285   0.254  0.6312 -0.5909  0.4595
  421TIP3   OH222821   4.020   6.449   0.435 -0.6217 -0.2337  0.2334
  421TIP3    H122822   4.051   6.511   0.369 -0.3165 -1.8497 -1.2112
  421TIP3    H222823   3.927   6.468   0.444 -0.6078  0.2002 -0.4436
  422TIP3   OH222824   0.833   0.565   1.397 -1.0113  0.3526 -0.6621
  422TIP3    H122825   0.861   0.490   1.343  1.3517  1.0213 -0.4836
  422TIP3    H222826   0.757   0.600   1.351 -1.4935 -1.4653 -1.3665
  423TIP3   OH222827   0.733   4.828   1.043 -0.3105  0.6657 -0.7062
  423TIP3    H122828   0.815   4.838   0.995 -0.5070  1.0547 -0.9712
  423TIP3    H222829   0.680   4.903   1.015 -0.0816  1.4489  0.8430
  424TIP3   OH222830   4.089   6.783   1.952  0.1350  0.1228  0.0451
  424TIP3    H122831   4.002   6.775   1.913 -0.7335 -1.0449  2.0776
  424TIP3    H222832   4.114   6.874   1.936  0.2991 -0.4703 -3.9425
  425TIP3   OH222833   5.718   2.695   7.987  0.2657 -0.0344  0.1926
  425TIP3    H122834   5.736   2.688   8.081 -0.2142  0.4766  0.3304
  425TIP3    H222835   5.686   2.608   7.962 -0.6916  0.1469  0.7519
  426TIP3   OH222836   4.104   6.763   7.442  0.5066 -0.2582 -0.1626
  426TIP3    H122837   4.182   6.770   7.387 -0.6163 -1.1366 -1.9562
  426TIP3    H222838   4.104   6.672   7.473  0.7446  0.0358  0.7499
  427TIP3   OH222839   5.148   3.702   1.377  0.0793  0.5054 -0.6769
  427TIP3    H122840   5.199   3.643   1.321  0.9166  2.1993 -1.7949
  427TIP3    H222841   5.067   3.717   1.328  0.3492  1.1430 -0.9377
  428TIP3   OH222842   3.903   0.180   0.001  0.6495 -0.1356 -0.2753
  428TIP3    H122843   3.992   0.150   0.018  1.0874  1.0371 -0.4402
  428TIP3    H222844   3.913   0.259  -0.051 -0.4953  0.0202 -0.2954
  429TIP3   OH222845   6.392   1.359   2.157 -0.8006  0.2378 -0.8145
  429TIP3    H122846   6.344   1.325   2.082 -0.0441 -0.9710 -0.7876
  429TIP3    H222847   6.470   1.400   2.120 -0.5768 -0.0936 -0.7173
  430TIP3   OH222848   3.531   3.629   2.519 -0.0640 -0.1347  0.6158
  430TIP3    H122849   3.496   3.696   2.577 -0.3146 -0.6242  1.0460
  430TIP3    H222850   3.615   3.663   2.490  0.3693 -0.1706  1.8017
  431TIP3   OH222851   1.718   3.386   1.696 -0.5818  0.2809  0.2688
  431TIP3    H122852   1.630   3.367   1.664 -0.8246  0.7331  0.6538
  431TIP3    H222853   1.709   3.469   1.744  0.2379  0.8148 -0.4672
  432TIP3   OH222854   5.000   3.494   1.201 -0.0370  0.9745  0.0042
  432TIP3    H122855   5.060   3.465   1.132  1.6864  2.6441  0.7063
  432TIP3    H222856   4.923   3.527   1.154 -0.0250 -0.3032 -0.9682
  433TIP3   OH222857   0.402   0.550   8.506 -0.1470 -0.3583 -0.0048
  433TIP3    H122858   0.341   0.484   8.472 -0.5720 -0.0559  0.1697
  433TIP3    H222859   0.346   0.618   8.543  0.2980 -0.1041  0.2083
  434TIP3   OH222860   4.263   3.741   7.891  0.4988 -0.0665 -0.7434
  434TIP3    H122861   4.188   3.797   7.873  0.1110 -0.5796 -0.7349
  434TIP3    H222862   4.298   3.719   7.805  0.8271  0.4184 -0.7376
  435TIP3   OH222863   6.866   0.728   2.067  0.0388  0.3465 -0.0086
  435TIP3    H122864   6.944   0.676   2.089  1.2031  0.9557 -2.3452
  435TIP3    H222865   6.832   0.757   2.151  2.7102  0.5567  1.1078
  436TIP3   OH222866   1.173   2.449   7.106 -0.3438  0.4302 -0.1817
  436TIP3    H122867   1.194   2.480   7.019 -1.0911  0.5655 -0.3247
  436TIP3    H222868   1.086   2.486   7.124 -2.2998 -3.1654 -1.1956
  437TIP3   OH222869   0.323   5.307   0.565  0.0657 -0.2037  0.1711
  437TIP3    H122870   0.235   5.329   0.536 -0.2924 -0.8251  0.7502
  437TIP3    H222871   0.332   5.213   0.547  0.6180 -0.1338  0.0753
  438TIP3   OH222872   3.114   5.144   0.844  0.1202  0.2310  0.1546
  438TIP3    H122873   3.182   5.081   0.817  0.0384  0.6602 -1.0943
  438TIP3    H222874   3.059   5.095   0.905  1.0623 -0.3804  0.5330
  439TIP3   OH222875   5.924   0.627   1.050  0.5549  0.0456  0.4924
  439TIP3    H122876   5.995   0.665   1.102  1.3053  0.0342 -0.4866
  439TIP3    H222877   5.866   0.701   1.031 -0.3532 -0.1536  2.2670
  440TIP3   OH222878   5.599   3.372   1.627  0.5218 -0.6645  0.0738
  440TIP3    H122879   5.692   3.376   1.649  0.6015 -0.6259 -0.2669
  440TIP3    H222880   5.583   3.449   1.572  0.4421 -1.0273 -0.4223
  441TIP3   OH222881   0.583   4.928   8.007 -0.5246 -0.0321 -0.1298
  441TIP3    H122882   0.489   4.943   8.006 -0.5078  0.2100 -1.8285
  441TIP3    H222883   0.612   4.960   8.092 -2.3406 -2.7571  1.6489
  442TIP3   OH222884   3.338   1.235   7.928 -0.4590 -0.0619  0.4833
  442TIP3    H122885   3.331   1.304   7.861 -0.6972 -0.8782 -0.3540
  442TIP3    H222886   3.267   1.175   7.908 -0.3640 -0.4646  1.3198
  443TIP3   OH222887   5.980   2.555   2.297 -0.5463  0.2613  0.1735
  443TIP3    H122888   6.040   2.503   2.351  0.0762  0.7876  0.0120
  443TIP3    H222889   5.994   2.523   2.208  0.0268  0.8609  0.0379
  444TIP3   OH222890   4.176   1.821   0.084 -0.4495  0.1797  0.0375
  444TIP3    H122891   4.244   1.768   0.126 -0.0542  2.1500  2.1627
  444TIP3    H222892   4.096   1.799   0.132 -0.2334  1.5814  1.1083
  445TIP3   OH222893   5.483   1.329   1.932  0.1706  0.0973  0.0015
  445TIP3    H122894   5.406   1.300   1.982  0.0578 -0.9787 -0.7667
  445TIP3    H222895   5.542   1.367   1.998 -0.7339  0.3370  0.6858
  446TIP3   OH222896   6.862   4.697   1.800  0.1557  0.1960  0.2232
  446TIP3    H122897   6.909   4.780   1.792  0.6719  0.0160  1.1712
  446TIP3    H222898   6.930   4.633   1.819 -0.3396 -0.2775  0.4224
  447TIP3   OH222899   2.340   2.982   1.553  0.0570  0.1692 -0.1801
  447TIP3    H122900   2.390   3.063   1.566  1.2175 -0.5279 -0.0880
  447TIP3    H222901   2.261   3.009   1.507  0.3398  1.3763  0.0190
  448TIP3   OH222902   6.355   2.195   8.183 -0.1569 -0.2011 -0.3129
  448TIP3    H122903   6.346   2.138   8.107 -2.6279  0.3868 -0.5471
  448TIP3    H222904   6.386   2.137   8.253  3.2541 -0.5472 -1.8971
  449TIP3   OH222905   6.228   1.643   1.852  0.1296  0.6065  0.8495
  449TIP3    H122906   6.194   1.726   1.819 -1.3282  0.2034  1.2865
  449TIP3    H222907   6.302   1.668   1.908  1.7397  1.3854 -1.4693
  450TIP3   OH222908   5.339   3.772   8.042  0.0954 -0.3648 -0.0899
  450TIP3    H122909   5.250   3.806   8.048  0.3835  0.3557  0.1755
  450TIP3    H222910   5.328   3.679   8.020 -0.6823  0.3953 -3.5158
  451TIP3   OH222911   2.063   1.094   7.443 -0.5760  0.5356 -0.7453
  451TIP3    H122912   2.007   1.155   7.491 -0.9930 -1.5899  1.7190
  451TIP3    H222913   2.070   1.018   7.501 -0.1813 -1.8389 -3.6632
  452TIP3   OH222914   5.670   2.670   7.424  0.2393  0.0909 -0.0304
  452TIP3    H122915   5.580   2.636   7.424  0.2383  0.0860  0.3300
  452TIP3    H222916   5.678   2.716   7.341  0.3425 -1.0779 -0.6853
  453TIP3   OH222917   5.564   5.122   0.540 -0.2125  0.3969  0.4281
  453TIP3    H122918   5.589   5.038   0.502 -1.6247  0.2413 -0.2191
  453TIP3    H222919   5.642   5.177   0.531 -0.1546  0.0393 -1.7747
  454TIP3   OH222920   3.686   6.815   8.298  0.2026 -0.2387 -0.0485
  454TIP3    H122921   3.761   6.760   8.275 -1.0249 -1.4276 -1.3614
  454TIP3    H222922   3.614   6.781   8.245 -0.9060  1.8762  0.0069
  455TIP3   OH222923   2.333   5.184   7.593  0.0684  0.3617  0.1043
  455TIP3    H122924   2.397   5.255   7.591 -0.4454  0.8863  1.3258
  455TIP3    H222925   2.269   5.210   7.660 -0.1861 -1.2024  0.5296
  456TIP3   OH222926   0.220   0.026   2.294  0.3785 -0.0070  0.1996
  456TIP3    H122927   0.157   0.006   2.225  0.8612  1.0090 -0.5689
  456TIP3    H222928   0.263   0.106   2.264 -0.2181  1.1563  2.2318
  457TIP3   OH222929   1.650   5.250   1.342  0.1992  0.0833  0.0385
  457TIP3    H122930   1.678   5.337   1.370 -1.4716  0.1771  1.5897
  457TIP3    H222931   1.565   5.264   1.302 -1.7912 -1.1336  3.4592
  458TIP3   OH222932   3.370   6.736   1.644 -0.3355 -0.6157  0.4694
  458TIP3    H122933   3.349   6.826   1.621 -2.8790 -0.3652  3.1711
  458TIP3    H222934   3.315   6.682   1.587  0.1184 -0.4265 -0.1555
  459TIP3   OH222935   4.810   3.546   1.932 -0.0392  0.2722  0.4371
  459TIP3    H122936   4.899   3.537   1.967 -0.2261 -1.2082  0.5833
  459TIP3    H222937   4.800   3.640   1.916  1.1160  0.6147  1.5563
  460TIP3   OH222938   5.989   6.231   7.423  0.4403 -0.0799  0.0841
  460TIP3    H122939   5.929   6.159   7.445 -0.8951  0.5096 -1.4536
  460TIP3    H222940   5.936   6.292   7.372  1.3940  2.2815  1.7226
  461TIP3   OH222941   5.938   5.244   0.336  0.2889 -0.0181 -0.2140
  461TIP3    H122942   6.010   5.241   0.273 -0.6614 -1.2499 -1.3048
  461TIP3    H222943   5.981   5.247   0.421  1.6492 -1.1702 -0.8195
  462TIP3   OH222944   2.659   0.029   1.872  0.4276  0.0782  0.1716
  462TIP3    H122945   2.569   0.039   1.905  0.2216 -1.6405  0.2295
  462TIP3    H222946   2.665   0.092   1.800 -0.8072  0.2765  0.2125
  463TIP3   OH222947   0.646   3.435   7.517  0.1211  0.5582  0.2721
  463TIP3    H122948   0.557   3.456   7.487 -0.0604  1.6016  1.4810
  463TIP3    H222949   0.667   3.354   7.471 -1.6799 -0.0359  0.3833
  464TIP3   OH222950   2.036   0.329   2.231 -0.1026  0.1297  0.3960
  464TIP3    H122951   2.036   0.246   2.184  1.2433  0.0122  0.5601
  464TIP3    H222952   1.988   0.389   2.175  1.3178 -0.0483 -1.0986
  465TIP3   OH222953   5.203   1.508   7.806  0.6077 -0.2669 -0.2544
  465TIP3    H122954   5.288   1.535   7.839 -0.0546  1.5591  0.0774
  465TIP3    H222955   5.186   1.567   7.733 -0.5140 -0.3837 -0.1056
  466TIP3   OH222956   0.378   3.956   0.885 -0.2856  0.0652 -0.2254
  466TIP3    H122957   0.284   3.968   0.866 -0.3792 -1.3494 -0.8137
  466TIP3    H222958   0.393   3.863   0.869  0.7438 -0.2101  2.1020
  467TIP3   OH222959   6.710   2.882   0.096  0.8676  0.0013 -0.5787
  467TIP3    H122960   6.743   2.972   0.093 -1.2422  0.9165  1.2347
  467TIP3    H222961   6.655   2.878   0.174 -1.1364 -2.1477 -1.9308
  468TIP3   OH222962   1.067   3.008   2.262 -0.0305 -0.0126  0.5412
  468TIP3    H122963   1.152   3.023   2.221 -0.8147  0.2831 -1.0727
  468TIP3    H222964   1.019   2.954   2.199 -0.2561 -2.2258  2.4687
  469TIP3   OH222965   6.131   0.025   7.412 -0.6793 -0.4696  0.8178
  469TIP3    H122966   6.215   0.046   7.454  0.3288  1.5282 -1.8775
  469TIP3    H222967   6.155  -0.024   7.334 -1.7363  1.7722 -1.0357
  470TIP3   OH222968   6.362   4.547   1.673  0.4155 -0.5377  0.0056
  470TIP3    H122969   6.373   4.465   1.624  0.5624 -0.1619 -0.6079
  470TIP3    H222970   6.443   4.556   1.723  0.7040 -0.4208 -0.4682
  471TIP3   OH222971   5.116   4.668   0.492 -0.2523 -0.1350 -0.8743
  471TIP3    H122972   5.209   4.644   0.491 -0.9009 -3.0813 -0.0953
  471TIP3    H222973   5.111   4.742   0.554  1.5975  0.4059 -1.3203
  472TIP3   OH222974   1.518   3.702   3.322  0.5191 -0.4181 -0.1996
  472TIP3    H122975   1.514   3.797   3.330  0.7833 -0.5079  1.2335
  472TIP3    H222976   1.469   3.682   3.242 -0.4077  0.8401  0.0359
  473TIP3   OH222977   1.253   4.189   8.161 -0.7966 -0.0659 -0.2633
  473TIP3    H122978   1.328   4.246   8.146 -1.0749  1.2528  2.5470
  473TIP3    H222979   1.177   4.248   8.157 -1.2290 -0.4623  1.2892
  474TIP3   OH222980   4.884   3.255   0.221 -0.2956  0.0019  0.4029
  474TIP3    H122981   4.814   3.292   0.168 -0.5220  0.0124  0.7054
  474TIP3    H222982   4.948   3.222   0.158  0.6474  2.2486  0.0716
  475TIP3   OH222983   6.707   6.492   1.764 -0.0310  0.3785  0.3952
  475TIP3    H122984   6.647   6.553   1.721  0.9097  1.2613  0.2934
  475TIP3    H222985   6.736   6.433   1.695 -0.0177  0.5682  0.2407
  476TIP3   OH222986   3.320   2.304   2.251 -0.2473 -0.2550  0.0236
  476TIP3    H122987   3.342   2.292   2.159 -0.0356  1.0293 -0.1174
  476TIP3    H222988   3.248   2.367   2.250  0.3757  0.4906  0.7658
  477TIP3   OH222989   6.209   5.831   1.745  0.1482 -0.2892  0.0196
  477TIP3    H122990   6.227   5.777   1.822  1.3951  0.5688  0.3448
  477TIP3    H222991   6.235   5.919   1.770  0.8189 -0.0327 -1.4488
  478TIP3   OH222992   3.095   6.733   8.010 -0.6330  0.8132 -0.2317
  478TIP3    H122993   3.124   6.669   7.945  0.4820  1.0952 -0.0261
  478TIP3    H222994   3.113   6.818   7.970  1.1481  1.0047  0.8782
  479TIP3   OH222995   3.517   5.011   8.454 -0.3366 -0.0976 -0.8068
  479TIP3    H122996   3.457   5.072   8.411  0.1606  0.2941 -0.9616
  479TIP3    H222997   3.596   5.013   8.400  0.0403 -0.1328 -0.2664
  480TIP3   OH222998   3.630   3.210   7.764  0.4087 -0.6127  0.1223
  480TIP3    H122999   3.707   3.199   7.819  0.4418  0.4049  0.3002
  480TIP3    H223000   3.626   3.304   7.746 -0.1224 -0.8107 -0.8587
  481TIP3   OH223001   4.053   0.529   8.110  0.1757 -0.1679  0.0362
  481TIP3    H123002   4.147   0.521   8.093  0.3795  2.1725 -0.3310
  481TIP3    H223003   4.019   0.440   8.102  2.3066 -1.0347 -0.0671
  482TIP3   OH223004   2.445   0.254   7.527  0.2124  0.4070 -0.7429
  482TIP3    H123005   2.484   0.299   7.452  0.5531  2.1672  0.4207
  482TIP3    H223006   2.381   0.316   7.562 -2.8979 -1.9094 -1.8741
  483TIP3   OH223007   0.759   5.315   0.588  0.2001 -0.0287  0.6639
  483TIP3    H123008   0.824   5.266   0.538 -0.4420 -1.0058  0.7536
  483TIP3    H223009   0.715   5.370   0.523  0.4572 -0.0922  0.4351
  484TIP3   OH223010   5.408   1.630   0.394 -0.3626  0.1332  0.2368
  484TIP3    H123011   5.462   1.566   0.440  0.0733  1.2995  1.4062
  484TIP3    H223012   5.419   1.711   0.444 -2.3902  0.6605 -0.0948
  485TIP3   OH223013   2.805   2.467   8.262  0.0325  0.6070 -0.1510
  485TIP3    H123014   2.751   2.394   8.233 -1.4918  2.0209 -1.0955
  485TIP3    H223015   2.894   2.432   8.266 -0.6918 -1.3514 -0.2341
  486TIP3   OH223016   1.209   3.288   7.764 -0.3687 -0.2356  0.1352
  486TIP3    H123017   1.154   3.321   7.835 -0.5747  2.1594 -1.0487
  486TIP3    H223018   1.149   3.278   7.690  0.4135  0.6653 -0.6541
  487TIP3   OH223019   3.053   3.336   7.851 -0.2306  0.1226  0.8377
  487TIP3    H123020   3.080   3.409   7.797 -2.4286  0.3957  0.0166
  487TIP3    H223021   3.104   3.345   7.931  2.0013  0.5633 -0.5548
  488TIP3   OH223022   5.603   4.352   6.367 -0.4736  0.1375 -0.1177
  488TIP3    H123023   5.611   4.261   6.338  0.4089 -0.1276  0.8966
  488TIP3    H223024   5.517   4.357   6.409  0.0323 -0.6117  1.0626
  489TIP3   OH223025   0.248   0.040   0.024 -0.1315 -0.0544 -0.2693
  489TIP3    H123026   0.229  -0.049  -0.004  0.0582 -0.0538 -0.4068
  489TIP3    H223027   0.207   0.048   0.110 -0.5382 -0.1253 -0.4561
  490TIP3   OH223028   2.054   5.060   2.964  0.5194  0.0426 -0.3145
  490TIP3    H123029   2.146   5.060   2.991  0.1426 -0.3781  1.0540
  490TIP3    H223030   2.023   4.972   2.982 -1.2990  1.2476  3.5906
  491TIP3   OH223031   0.189   5.086   1.275  0.5775 -0.2833 -0.0984
  491TIP3    H123032   0.121   5.029   1.238 -1.6475  1.1213  1.5304
  491TIP3    H223033   0.170   5.087   1.369  3.2814 -0.2893  0.5175
  492TIP3   OH223034   5.535   0.567   8.222 -0.1114 -0.0526 -0.1232
  492TIP3    H123035   5.542   0.483   8.178  0.6927 -0.8792  1.4843
  492TIP3    H223036   5.563   0.549   8.312 -2.2325  1.4248  0.9019
  493TIP3   OH223037   2.748   0.596   7.937 -0.2002 -0.3336  0.3546
  493TIP3    H123038   2.739   0.560   7.848  0.0289 -1.2765  0.7039
  493TIP3    H223039   2.721   0.688   7.928 -2.5050 -1.0066 -0.2131
  494TIP3   OH223040   3.032   4.909   7.629  0.2064  0.1273  0.0402
  494TIP3    H123041   3.044   4.990   7.579  0.2327  0.9739  1.3750
  494TIP3    H223042   2.991   4.848   7.567 -0.1020  1.2629 -0.8957
  495TIP3   OH223043   3.838   6.777   7.367 -0.0621  0.3476 -0.1433
  495TIP3    H123044   3.928   6.797   7.392  0.0957  0.2967 -0.6563
  495TIP3    H223045   3.845   6.698   7.314 -0.4295  0.2547 -0.0552
  496TIP3   OH223046   1.261   5.990   1.268 -0.8880 -0.4883  0.3169
  496TIP3    H123047   1.206   6.046   1.323  1.4358  0.1970  2.0740
  496TIP3    H223048   1.334   6.046   1.241 -1.0863 -1.2962 -2.1826
  497TIP3   OH223049   1.477   1.365   8.313 -0.3268  0.3533 -0.5131
  497TIP3    H123050   1.418   1.403   8.249  0.7367 -0.3952 -1.9874
  497TIP3    H223051   1.564   1.371   8.274  0.2703 -0.7680  0.5423
  498TIP3   OH223052   3.327   0.813   2.694  0.7568 -0.1892  0.1228
  498TIP3    H123053   3.309   0.846   2.606 -0.8307  0.1218  0.5424
  498TIP3    H223054   3.289   0.878   2.753  1.2807 -0.6864  1.0492
  499TIP3   OH223055   5.748   5.013   1.777 -0.2223  0.1651  0.1259
  499TIP3    H123056   5.737   5.107   1.795 -0.1169  0.3926 -0.9189
  499TIP3    H223057   5.697   4.969   1.845 -0.7881  0.9969  0.2548
  500TIP3   OH223058   3.780   0.182   1.656  0.0943 -0.2556 -0.6057
  500TIP3    H123059   3.710   0.143   1.709  0.1962  0.6485  0.2214
  500TIP3    H223060   3.853   0.122   1.665  0.5853  0.5581  1.4771
  501TIP3   OH223061   0.118   5.354   1.175 -0.1947 -0.5492 -0.2458
  501TIP3    H123062   0.142   5.271   1.217 -2.5282 -0.9072  0.5239
  501TIP3    H223063   0.084   5.329   1.089  0.7860 -0.1901 -0.7527
  502TIP3   OH223064   4.755   2.258   0.912 -0.1313  0.6742 -0.9870
  502TIP3    H123065   4.743   2.348   0.943  1.2944  0.1933  1.2330
  502TIP3    H223066   4.666   2.223   0.905 -0.6456  1.4338  0.9399
  503TIP3   OH223067   0.957   2.132   7.466 -0.0976  0.2453  0.7853
  503TIP3    H123068   1.030   2.162   7.412 -0.1783  0.6400  0.8977
  503TIP3    H223069   0.894   2.203   7.464 -0.5365 -0.1409  0.5954
  504TIP3   OH223070   3.102   1.098   1.902 -0.1780  0.7466 -0.3949
  504TIP3    H123071   3.020   1.052   1.882 -0.7961  1.3738  0.5800
  504TIP3    H223072   3.096   1.117   1.996  1.9942 -0.9635  0.1936
  505TIP3   OH223073   6.588   0.634   8.138  0.1820 -0.3622  0.0545
  505TIP3    H123074   6.636   0.563   8.181 -0.3094 -0.3313  0.6582
  505TIP3    H223075   6.518   0.590   8.090  0.0541 -0.3081  0.1923
  506TIP3   OH223076   6.848   4.962   0.315 -0.1344 -0.4473  0.0079
  506TIP3    H123077   6.814   5.047   0.289 -2.0561 -1.7294 -2.0243
  506TIP3    H223078   6.830   4.957   0.409 -0.9779  0.9258 -0.0519
  507TIP3   OH223079   4.765   0.882   7.438 -0.1772 -0.4735  0.1939
  507TIP3    H123080   4.851   0.848   7.466  1.3832  1.4323 -1.8799
  507TIP3    H223081   4.762   0.971   7.472 -2.6400 -1.3427  2.5466
  508TIP3   OH223082   5.668   4.381   7.457  0.8581 -0.2221 -0.3081
  508TIP3    H123083   5.655   4.359   7.365  0.3151 -0.2496 -0.2321
  508TIP3    H223084   5.762   4.398   7.466  0.7011  1.2263 -1.1676
  509TIP3   OH223085   1.629   0.086   1.141 -0.3620 -0.2046  0.5502
  509TIP3    H123086   1.686   0.060   1.068  0.4766  0.3182  0.9923
  509TIP3    H223087   1.543   0.100   1.101 -0.4131 -1.8519  0.0039
  510TIP3   OH223088   5.940   1.287   2.222  0.0688  0.1602 -0.2365
  510TIP3    H123089   5.943   1.346   2.297 -2.6055 -1.3041  1.1575
  510TIP3    H223090   5.963   1.202   2.257 -0.5006 -0.4276 -1.2292
  511TIP3   OH223091   6.094   1.307   0.349  0.5415 -0.3093 -0.2140
  511TIP3    H123092   6.106   1.252   0.271  2.0308  0.9950 -0.9515
  511TIP3    H223093   6.012   1.354   0.333 -0.4901 -1.8650  0.1992
  512TIP3   OH223094   4.085   2.078   7.879 -0.1384  0.1088 -0.1164
  512TIP3    H123095   4.069   1.984   7.884 -0.4407  0.0466 -1.7474
  512TIP3    H223096   4.165   2.091   7.928  1.3324 -1.4139 -1.9589
  513TIP3   OH223097   0.169   6.717   8.102  0.8007  0.2021  0.4344
  513TIP3    H123098   0.210   6.733   8.018  1.6633  0.9387  0.9821
  513TIP3    H223099   0.154   6.622   8.104  0.0070  0.2768 -0.8694
  514TIP3   OH223100   5.370   4.869   2.505 -0.6064  0.1308 -0.0828
  514TIP3    H123101   5.313   4.927   2.556 -0.9761 -0.4639  0.1818
  514TIP3    H223102   5.319   4.789   2.493  0.3561 -0.6005  0.5775
  515TIP3   OH223103   6.401   2.057   0.110 -0.1640  0.4495 -0.2166
  515TIP3    H123104   6.337   2.059   0.181 -1.1395 -0.5739 -1.0260
  515TIP3    H223105   6.393   1.969   0.072  2.0168  0.1451 -0.1028
  516TIP3   OH223106   0.025   1.599   7.883 -0.5134 -0.0758 -0.1148
  516TIP3    H123107   0.085   1.537   7.842  1.1492  1.3035  0.0979
  516TIP3    H223108  -0.021   1.641   7.810  1.0217  0.9814 -0.5343
  517TIP3   OH223109   0.121   3.377   1.908  0.7197  0.1420  0.8473
  517TIP3    H123110   0.035   3.354   1.942  0.4127  0.1312  0.0910
  517TIP3    H223111   0.183   3.341   1.972  0.1560  1.0517  1.9503
  518TIP3   OH223112   5.771   2.306   0.971 -0.3701 -0.4651  0.0071
  518TIP3    H123113   5.797   2.355   1.050  2.0701 -0.8021 -0.4990
  518TIP3    H223114   5.708   2.242   1.003 -1.0743  0.8032  1.2861
  519TIP3   OH223115   5.243   3.799   2.231  0.3455  0.3456  0.4060
  519TIP3    H123116   5.232   3.758   2.317  2.5558  1.8225  1.4846
  519TIP3    H223117   5.260   3.726   2.172 -1.7693 -0.7610  1.0348
  520TIP3   OH223118   0.961   5.805   8.350 -0.2857 -0.0033 -0.5287
  520TIP3    H123119   0.943   5.761   8.433 -0.0916 -0.3023 -0.6404
  520TIP3    H223120   0.929   5.743   8.283 -0.1758  0.1068 -0.6831
  521TIP3   OH223121   3.836   5.525   7.132  0.0196 -0.0692  0.2281
  521TIP3    H123122   3.888   5.592   7.088  0.6713 -0.0709  0.9704
  521TIP3    H223123   3.751   5.566   7.147 -0.5124 -0.3321 -1.7176
  522TIP3   OH223124   4.215   6.825   0.501  0.2118  0.3644  0.4489
  522TIP3    H123125   4.131   6.805   0.460 -0.0223  1.3612  0.4171
  522TIP3    H223126   4.276   6.835   0.428  0.4207 -0.5532  0.4791
  523TIP3   OH223127   6.156   3.831   6.987 -0.3329 -0.0468 -0.2422
  523TIP3    H123128   6.062   3.843   6.991 -0.1554  2.8345 -1.9613
  523TIP3    H223129   6.182   3.867   6.902  2.2059 -1.9086 -0.3988
  524TIP3   OH223130   2.059   0.297   1.399 -0.4061 -0.1123  0.0052
  524TIP3    H123131   2.155   0.294   1.403 -0.4345 -2.8369  0.0947
  524TIP3    H223132   2.035   0.238   1.328 -2.0374  0.9345 -0.3769
  525TIP3   OH223133   4.126   5.381   7.796  0.0210  0.0456 -0.2815
  525TIP3    H123134   4.055   5.422   7.845  1.9687  1.8561  1.2067
  525TIP3    H223135   4.089   5.363   7.710 -2.4088  0.2699  0.6616
  526TIP3   OH223136   0.005   3.883   8.177 -0.1150 -0.0032  0.0565
  526TIP3    H123137  -0.061   3.819   8.153 -0.1337  1.1158 -3.3459
  526TIP3    H223138  -0.028   3.966   8.144  2.6834  0.6792 -1.3333
  527TIP3   OH223139   4.416   3.247   8.408  0.1059 -0.1167  0.0907
  527TIP3    H123140   4.355   3.221   8.339  0.6947 -1.0606 -0.0948
  527TIP3    H223141   4.364   3.245   8.488 -0.2172 -0.4809 -0.1242
  528TIP3   OH223142   6.903   2.989   8.316  0.2605 -0.1509 -0.5098
  528TIP3    H123143   6.914   2.926   8.245  1.1463  0.1132 -0.6164
  528TIP3    H223144   6.808   2.999   8.325  0.0815 -1.6742 -0.3322
  529TIP3   OH223145   5.323   1.357   1.129 -0.1566 -0.2663 -0.3660
  529TIP3    H123146   5.331   1.446   1.162  1.1913 -0.6105  0.2858
  529TIP3    H223147   5.233   1.331   1.152 -0.1889  0.5156  0.4585
  530TIP3   OH223148   6.718   2.337   0.036  0.4973  0.3053 -0.2976
  530TIP3    H123149   6.689   2.423   0.068  0.5819 -0.2498  1.3346
  530TIP3    H223150   6.810   2.332   0.059  0.6786  0.0439 -1.0329
  531TIP3   OH223151   4.770   4.596   0.763 -0.0442  0.0591  0.3003
  531TIP3    H123152   4.698   4.534   0.747 -0.1134 -0.1856  1.4291
  531TIP3    H223153   4.726   4.676   0.791  0.0103  0.9078 -1.9124
  532TIP3   OH223154   1.464   6.783   7.689  1.1031 -0.0823 -0.0055
  532TIP3    H123155   1.508   6.754   7.769 -0.7194  0.2598  1.1808
  532TIP3    H223156   1.516   6.857   7.658  2.4214 -0.8633  0.2575
  533TIP3   OH223157   6.737   1.816   0.187 -0.1278 -0.1924  0.0648
  533TIP3    H123158   6.826   1.835   0.159 -1.1216  1.9980 -1.9027
  533TIP3    H223159   6.726   1.722   0.170  1.6374 -0.4043 -0.0500
  534TIP3   OH223160   4.886   5.617   7.287  0.4408  0.5357  0.2068
  534TIP3    H123161   4.852   5.531   7.311 -1.4551  1.6597  1.8509
  534TIP3    H223162   4.969   5.623   7.334  0.7221 -0.4628 -0.1312
  535TIP3   OH223163   1.555   2.164   6.730 -0.2770  0.4129 -0.1502
  535TIP3    H123164   1.545   2.219   6.653 -4.6070 -0.7298 -0.6466
  535TIP3    H223165   1.521   2.216   6.802  2.4658  0.9536  0.8755
  536TIP3   OH223166   6.073   0.841   2.460 -0.6103  0.8270 -0.4100
  536TIP3    H123167   6.065   0.746   2.462  0.0916  0.7595 -0.6760
  536TIP3    H223168   5.996   0.873   2.509 -2.0563  0.1971 -2.1464
  537TIP3   OH223169   1.447   2.395   1.243  0.2396 -0.1170  0.4345
  537TIP3    H123170   1.425   2.384   1.336  0.1197 -1.8367  0.2206
  537TIP3    H223171   1.383   2.342   1.196 -1.1136  2.4585 -0.8285
  538TIP3   OH223172   0.952   0.171   2.559 -0.3116  0.5492 -0.7319
  538TIP3    H123173   0.978   0.146   2.648  0.7497  3.4550 -0.1184
  538TIP3    H223174   1.018   0.130   2.503  0.5839  0.8370  0.0746
  539TIP3   OH223175   6.327   3.711   7.632 -0.0668 -0.6121  0.3059
  539TIP3    H123176   6.235   3.736   7.641  0.2649  0.5158  0.6911
  539TIP3    H223177   6.367   3.739   7.715  0.0576 -3.7992  1.4525
  540TIP3   OH223178   3.830   6.752   7.775  0.4218  0.2360  0.1977
  540TIP3    H123179   3.786   6.778   7.694 -0.1490 -0.0886  0.3981
  540TIP3    H223180   3.919   6.729   7.747 -0.2338 -1.4573 -0.6067
  541TIP3   OH223181   6.409   1.153   8.398  0.0779 -0.8140 -0.1322
  541TIP3    H123182   6.360   1.089   8.451  0.5876 -0.0211  1.3774
  541TIP3    H223183   6.416   1.230   8.455  1.9383 -0.4336 -0.8100
  542TIP3   OH223184   0.342   0.310   7.670 -0.3034 -0.0158 -0.1140
  542TIP3    H123185   0.344   0.405   7.669  1.8532 -0.0050  0.4222
  542TIP3    H223186   0.388   0.284   7.590 -0.7558 -0.6124 -0.1882
  543TIP3   OH223187   6.910   3.291   0.707 -0.6493 -0.1680 -0.6333
  543TIP3    H123188   6.995   3.289   0.663 -0.2504 -2.0845  0.1133
  543TIP3    H223189   6.931   3.280   0.799 -1.6866 -0.0592 -0.3747
  544TIP3   OH223190   2.936   1.459   7.676 -0.5115  0.3223  0.1646
  544TIP3    H123191   2.895   1.523   7.617 -0.2752  0.8671  0.5814
  544TIP3    H223192   2.890   1.471   7.759 -1.9120 -1.5187 -0.2930
  545TIP3   OH223193   2.488   1.624   2.999 -0.1745 -0.3482  0.8003
  545TIP3    H123194   2.397   1.634   2.969  0.2882 -0.7761 -0.8220
  545TIP3    H223195   2.508   1.707   3.041 -0.9540  0.1761  0.1651
  546TIP3   OH223196   6.818   0.843   8.029 -0.3785 -0.1538  0.4632
  546TIP3    H123197   6.794   0.935   8.039 -1.4634 -0.0298 -2.4181
  546TIP3    H223198   6.785   0.802   8.109 -0.1020  1.8766  1.7087
  547TIP3   OH223199   3.026   5.971   3.148 -0.1315  0.5904  0.2603
  547TIP3    H123200   3.014   6.050   3.095  0.4866  0.9099  0.5896
  547TIP3    H223201   2.975   5.987   3.227  1.5014  1.4890  1.1784
  548TIP3   OH223202   4.172   4.548   8.059 -0.1690  0.0574  0.1253
  548TIP3    H123203   4.177   4.628   8.110  1.6398  0.2935 -0.3387
  548TIP3    H223204   4.107   4.566   7.991  0.5715  1.3511 -0.2840
  549TIP3   OH223205   3.574   0.698   2.652 -0.3012  0.4916  0.1307
  549TIP3    H123206   3.549   0.607   2.668 -1.1953  0.0860 -2.9862
  549TIP3    H223207   3.491   0.745   2.650  0.1360  1.3776  1.3936
  550TIP3   OH223208   4.701   5.645   7.554 -0.6049  0.4449 -0.2065
  550TIP3    H123209   4.739   5.566   7.514  0.5760  0.0125  1.6513
  550TIP3    H223210   4.713   5.713   7.488 -0.0852 -0.5376 -1.1682
  551TIP3   OH223211   3.179   4.703   0.712  0.0496  0.4731 -0.3042
  551TIP3    H123212   3.251   4.655   0.753 -0.2987  0.6412  0.5158
  551TIP3    H223213   3.187   4.682   0.619  0.3198 -0.6275 -0.0542
  552TIP3   OH223214   3.184   6.865   0.052 -0.0815  0.2540  0.0505
  552TIP3    H123215   3.251   6.885  -0.013  0.4980 -0.8137  0.2920
  552TIP3    H223216   3.133   6.794   0.013  0.3570 -0.4911  0.7996
  553TIP3   OH223217   2.063   3.616   1.786  0.0013 -0.1754 -0.1027
  553TIP3    H123218   2.043   3.568   1.706  0.5306 -2.3592  1.0041
  553TIP3    H223219   2.153   3.646   1.775  0.6251 -1.8284  0.2695
  554TIP3   OH223220   3.464   0.835   1.260  0.0919 -0.0958  0.6682
  554TIP3    H123221   3.474   0.929   1.274 -2.7396  0.9830 -2.9854
  554TIP3    H223222   3.373   0.816   1.286  0.3565 -1.6548  0.5753
  555TIP3   OH223223   3.732   4.601   2.343 -0.2838  0.4494 -0.2807
  555TIP3    H123224   3.695   4.592   2.430  0.6484 -1.8127 -0.0370
  555TIP3    H223225   3.664   4.570   2.284 -0.3938  0.6137 -0.2414
  556TIP3   OH223226   0.226   5.825   0.203  0.1132  0.0590 -0.1799
  556TIP3    H123227   0.224   5.730   0.193  1.7994  0.0811 -0.9377
  556TIP3    H223228   0.317   5.849   0.189 -0.2772  1.7978  0.0529
  557TIP3   OH223229   1.304   4.386   2.087 -0.1355 -0.5251  0.6815
  557TIP3    H123230   1.344   4.422   2.167  2.5463 -1.1371 -0.2741
  557TIP3    H223231   1.347   4.301   2.075  0.5878  0.1253 -2.1115
  558TIP3   OH223232   5.023   2.026   8.111  0.2685  0.1669 -0.0012
  558TIP3    H123233   5.016   1.992   8.022  0.1300  1.6891 -0.6111
  558TIP3    H223234   4.940   2.003   8.152  0.7145 -1.3983  0.0727
  559TIP3   OH223235   2.818   1.827   1.634  0.0277  0.0913 -0.1320
  559TIP3    H123236   2.829   1.737   1.666 -0.5296  0.5548  1.4826
  559TIP3    H223237   2.821   1.819   1.539  2.6394 -1.2926 -0.0350
  560TIP3   OH223238   1.737   1.648   0.773  0.1096 -0.5710 -0.4570
  560TIP3    H123239   1.715   1.555   0.776  0.9118 -0.7462  0.3883
  560TIP3    H223240   1.653   1.693   0.777 -0.2175 -1.2385  0.4806
  561TIP3   OH223241   3.546   1.305   8.106 -0.2402 -0.1486  0.0157
  561TIP3    H123242   3.505   1.390   8.124 -1.6570 -0.6129 -0.8009
  561TIP3    H223243   3.499   1.272   8.029  1.2329 -1.0507 -0.5454
  562TIP3   OH223244   5.479   6.284   0.096  0.2105  0.0353  0.1418
  562TIP3    H123245   5.496   6.351   0.163  0.4098  0.1870 -0.0597
  562TIP3    H223246   5.528   6.208   0.125 -1.4302 -0.6417  1.3370
  563TIP3   OH223247   4.279   3.314   6.764 -0.0284 -0.2810  0.7145
  563TIP3    H123248   4.215   3.248   6.788 -1.1007  0.9264  1.3194
  563TIP3    H223249   4.303   3.356   6.846  1.5527 -0.6950  0.4975
  564TIP3   OH223250   5.782   6.486   0.159  0.3965 -0.3238 -0.0479
  564TIP3    H123251   5.795   6.576   0.131 -0.7944 -0.0520  0.2220
  564TIP3    H223252   5.700   6.487   0.207  0.0326 -1.6730 -0.5802
  565TIP3   OH223253   5.636   6.202   2.950  0.2019  0.4971 -0.0356
  565TIP3    H123254   5.724   6.167   2.935 -0.6795 -1.4078 -1.0980
  565TIP3    H223255   5.644   6.295   2.929  1.9756  0.3937 -0.0145
  566TIP3   OH223256   0.272   4.182   1.432  0.9115 -0.3080  0.1807
  566TIP3    H123257   0.351   4.142   1.468  2.0196 -0.3231 -2.1075
  566TIP3    H223258   0.299   4.271   1.408 -0.6316  0.7762  2.1439
  567TIP3   OH223259   1.450   5.719   7.823  0.2304 -0.7081  0.9221
  567TIP3    H123260   1.446   5.651   7.755  3.3732  1.2190 -1.5303
  567TIP3    H223261   1.516   5.687   7.885  0.5747 -0.5820  0.6242
  568TIP3   OH223262   1.164   0.372   2.421  0.5632  0.2239  0.4018
  568TIP3    H123263   1.100   0.443   2.417  1.4140  1.0461  0.8993
  568TIP3    H223264   1.249   0.415   2.413  1.0670 -0.8512 -0.3493
  569TIP3   OH223265   3.335   3.971   8.560 -0.6369 -0.4841 -0.2538
  569TIP3    H123266   3.319   3.877   8.563 -2.4772 -0.2374 -1.0172
  569TIP3    H223267   3.357   3.988   8.468  0.8801 -0.3016  0.1099
  570TIP3   OH223268   4.078   1.388   1.101 -0.4674 -0.2396  0.2471
  570TIP3    H123269   4.023   1.374   1.178 -1.8983  0.0038 -0.6950
  570TIP3    H223270   4.115   1.302   1.082  0.9837 -0.0487  1.9615
  571TIP3   OH223271   2.344   4.780   8.224  0.2979  0.3481  0.6464
  571TIP3    H123272   2.327   4.814   8.136 -2.3472 -1.2838  0.4198
  571TIP3    H223273   2.336   4.685   8.216 -0.4812  0.1823  2.7101
  572TIP3   OH223274   1.717   4.666   8.303  0.4764 -0.0169 -0.0461
  572TIP3    H123275   1.787   4.693   8.243  1.8333 -0.6540  1.1927
  572TIP3    H223276   1.693   4.746   8.349 -0.5255  0.4635 -1.3494
  573TIP3   OH223277   2.671   4.330   7.604 -0.4784 -0.0990  0.4219
  573TIP3    H123278   2.678   4.289   7.518  0.6519 -2.1718  1.4244
  573TIP3    H223279   2.761   4.336   7.636 -0.9215  0.0555  1.7133
  574TIP3   OH223280   3.435   1.849   8.310 -0.3215 -0.1011  0.5050
  574TIP3    H123281   3.442   1.924   8.369 -1.0658  0.1014  0.3442
  574TIP3    H223282   3.447   1.887   8.223 -0.0368 -0.2741  0.4684
  575TIP3   OH223283   2.741   0.371   2.118 -0.4031  0.0939  0.1894
  575TIP3    H123284   2.743   0.458   2.159 -1.7966  0.5270 -0.5728
  575TIP3    H223285   2.817   0.370   2.061  0.0672  0.5157  0.7961
  576TIP3   OH223286   4.525   6.904   1.073 -0.0183 -0.3136  0.2523
  576TIP3    H123287   4.531   6.836   1.140  0.4511 -0.0485  0.4857
  576TIP3    H223288   4.432   6.929   1.073 -0.0341 -0.3572  0.7653
  577TIP3   OH223289   2.332   5.087   6.987  0.2062 -0.3485  0.8656
  577TIP3    H123290   2.248   5.051   6.960 -1.2806  2.5063  1.2399
  577TIP3    H223291   2.309   5.153   7.052  2.3982  2.4932 -0.9842
  578TIP3   OH223292   5.353   5.429   1.365  0.0825  0.2592  0.3371
  578TIP3    H123293   5.269   5.386   1.381  0.0315  0.4232  0.5105
  578TIP3    H223294   5.349   5.457   1.274 -0.0367  0.2312  0.3340
  579TIP3   OH223295   4.995   0.841   1.914  0.2884 -0.0055  0.3000
  579TIP3    H123296   4.968   0.753   1.887  1.6936 -0.2544 -0.4363
  579TIP3    H223297   5.089   0.833   1.929  0.1610  1.0021  1.8620
  580TIP3   OH223298   2.211   5.659   6.945 -0.1189 -0.9055 -0.5006
  580TIP3    H123299   2.274   5.588   6.944  1.1669  0.2115 -1.3674
  580TIP3    H223300   2.196   5.677   7.038  1.7465 -0.4354 -0.2600
  581TIP3   OH223301   6.493   1.945   2.049 -0.2577  0.0559  0.0321
  581TIP3    H123302   6.574   1.996   2.050 -1.2081  1.6497  1.4652
  581TIP3    H223303   6.456   1.957   2.137 -2.6428  0.3985 -0.9406
  582TIP3   OH223304   1.938   0.542   8.277  0.0387 -0.2665  0.5611
  582TIP3    H123305   1.934   0.529   8.182  2.7013 -2.3836  0.6197
  582TIP3    H223306   1.852   0.513   8.308 -0.4195 -0.8160 -1.0800
  583TIP3   OH223307   1.578   0.669   0.360 -0.7325  0.0599  0.4659
  583TIP3    H123308   1.623   0.752   0.376 -2.1428  0.9867 -0.2689
  583TIP3    H223309   1.531   0.651   0.442 -1.0718  0.3822  0.3369
  584TIP3   OH223310   6.904   5.912   7.202 -0.5354 -0.2421  0.5380
  584TIP3    H123311   6.830   5.973   7.191 -0.4571 -0.2376 -0.0070
  584TIP3    H223312   6.926   5.886   7.112  0.3313 -0.0007  0.6692
  585TIP3   OH223313   2.747   4.215   8.464 -0.1467  0.0883 -0.3426
  585TIP3    H123314   2.652   4.215   8.474 -0.0520  0.7367  0.6920
  585TIP3    H223315   2.774   4.302   8.493  0.9822 -0.8719  1.6603
  586TIP3   OH223316   0.198   5.288   0.277  0.1728 -0.0586 -0.4733
  586TIP3    H123317   0.150   5.214   0.239  0.3681  0.8982 -2.7518
  586TIP3    H223318   0.289   5.258   0.280 -0.1188 -0.9309  1.4351
  587TIP3   OH223319   5.229   5.576   7.646 -0.0993  0.0544  0.1383
  587TIP3    H123320   5.157   5.542   7.593  0.4008  0.9342 -1.1606
  587TIP3    H223321   5.215   5.539   7.733 -1.3388 -0.8801 -0.4365
  588TIP3   OH223322   5.289   5.126   0.442  0.0285 -0.4534  0.4544
  588TIP3    H123323   5.382   5.122   0.462  0.0468 -1.9764  0.1305
  588TIP3    H223324   5.259   5.208   0.483  1.5605  0.2360  0.2438
  589TIP3   OH223325   5.366   1.338   2.436 -0.0507 -0.1357 -0.0005
  589TIP3    H123326   5.337   1.428   2.420  0.1223  0.3842  2.3223
  589TIP3    H223327   5.461   1.343   2.436  0.0037  0.3052  2.8415
  590TIP3   OH223328   4.845   6.094   0.831 -0.0323 -0.2377  0.0161
  590TIP3    H123329   4.775   6.159   0.843 -1.6566 -1.9957  0.7085
  590TIP3    H223330   4.891   6.092   0.915 -1.9756 -2.0665  1.1611
  591TIP3   OH223331   4.513   3.825   2.196  0.0450  0.0103  0.1610
  591TIP3    H123332   4.422   3.796   2.188  0.8022 -2.0130 -2.3460
  591TIP3    H223333   4.550   3.768   2.263 -0.6185  1.2776  1.6713
  592TIP3   OH223334   1.293   5.749   7.234  0.6263  0.1863 -0.2357
  592TIP3    H123335   1.355   5.771   7.165 -0.9191 -0.0199 -1.7521
  592TIP3    H223336   1.251   5.668   7.204 -0.7669  0.6176  0.4677
  593TIP3   OH223337   0.108   2.269   2.434 -0.4856  0.3815  0.2311
  593TIP3    H123338   0.020   2.293   2.406 -1.2876 -2.4522  0.0704
  593TIP3    H223339   0.166   2.310   2.369 -1.8403  0.3062 -1.0699
  594TIP3   OH223340   3.587   3.136   1.266  0.2350  0.3272 -0.6727
  594TIP3    H123341   3.548   3.215   1.303 -1.8003 -0.9875  0.2498
  594TIP3    H223342   3.656   3.111   1.328  0.3555  0.9570 -0.5551
  595TIP3   OH223343   0.868   0.791   8.495 -0.0802  0.4204 -0.1857
  595TIP3    H123344   0.952   0.799   8.541 -0.0678  1.7866 -0.3876
  595TIP3    H223345   0.831   0.709   8.526  1.0824  0.0701  0.3326
  596TIP3   OH223346   4.651   2.318   8.364 -0.2227 -0.5597 -0.2031
  596TIP3    H123347   4.610   2.339   8.281  1.2834  1.2526 -0.5511
  596TIP3    H223348   4.701   2.397   8.387  2.6935 -2.4008  0.3695
  597TIP3   OH223349   0.080   1.049   8.207 -0.2638  0.6123  0.0129
  597TIP3    H123350   0.075   0.968   8.259  0.7437  1.4769  1.5258
  597TIP3    H223351  -0.004   1.053   8.162 -1.1178 -0.3095  1.4289
  598TIP3   OH223352   3.017   0.387   0.182  0.3293  0.5455  0.1652
  598TIP3    H123353   3.090   0.327   0.162  0.3049  1.1645 -2.1337
  598TIP3    H223354   3.004   0.379   0.276  2.2896 -0.8208  0.3849
  599TIP3   OH223355   2.293   2.399   2.162 -0.3369 -0.2211  0.5688
  599TIP3    H123356   2.281   2.358   2.076 -0.9247  0.9913  0.0433
  599TIP3    H223357   2.245   2.343   2.223 -1.8745  0.1408 -0.2652
  600TIP3   OH223358   2.809   2.248   2.007 -0.8347  0.2442 -0.9367
  600TIP3    H123359   2.735   2.283   2.055 -0.0004 -1.0133  1.3886
  600TIP3    H223360   2.881   2.308   2.028 -0.3015 -0.7005  0.0067
  601TIP3   OH223361   1.654   1.421   0.981  0.3097 -0.1553  0.0258
  601TIP3    H123362   1.634   1.379   0.898  1.8564  0.4728 -0.6833
  601TIP3    H223363   1.578   1.477   0.999 -0.1384 -0.4802 -0.8355
  602TIP3   OH223364   5.683   2.570   1.096 -0.4109 -0.5080 -0.8057
  602TIP3    H123365   5.717   2.542   1.181 -2.3343 -0.2149  0.1028
  602TIP3    H223366   5.615   2.633   1.117 -0.6599 -0.1301 -2.5999
  603TIP3   OH223367   5.883   3.849   6.965 -0.3278 -0.0780  0.1167
  603TIP3    H123368   5.868   3.791   6.890  0.2395 -0.7011  0.4785
  603TIP3    H223369   5.861   3.937   6.933  0.6679 -0.2264 -1.0127
  604TIP3   OH223370   2.303   5.863   1.434 -0.6778 -0.1966 -0.0534
  604TIP3    H123371   2.363   5.789   1.429 -0.3523  0.0591  0.0331
  604TIP3    H223372   2.286   5.886   1.343 -3.2067 -2.3009 -0.2266
  605TIP3   OH223373   2.016   4.343   0.583 -0.5052 -0.2617 -0.0049
  605TIP3    H123374   2.112   4.348   0.583 -0.5413  0.7656 -0.6728
  605TIP3    H223375   1.988   4.432   0.605 -1.3020 -0.2667 -0.9486
  606TIP3   OH223376   0.475   1.533   0.616 -0.1508  0.5603 -0.9712
  606TIP3    H123377   0.499   1.617   0.655  0.4284  0.6308 -1.4728
  606TIP3    H223378   0.482   1.470   0.688  1.7367  0.5478 -1.1263
  607TIP3   OH223379   2.450   4.215   1.450 -0.3120 -0.2339 -0.0981
  607TIP3    H123380   2.471   4.191   1.360 -1.1513 -1.3390 -0.0273
  607TIP3    H223381   2.505   4.291   1.469 -0.0207 -0.0754 -1.4894
  608TIP3   OH223382   0.281   6.458   6.871  0.7402 -0.0246 -0.0389
  608TIP3    H123383   0.199   6.507   6.869  0.4595 -0.4850  0.0707
  608TIP3    H223384   0.347   6.522   6.901  0.5842  0.5712 -0.9333
  609TIP3   OH223385   2.639   1.409   2.123  0.7758  0.2903  0.1682
  609TIP3    H123386   2.580   1.342   2.089  2.4344 -0.2178 -1.8999
  609TIP3    H223387   2.581   1.480   2.153 -0.8886 -0.0582 -2.0086
  610TIP3   OH223388   4.199   2.166   1.374 -0.1162  0.1000  0.2153
  610TIP3    H123389   4.231   2.256   1.366 -0.7755  0.2583 -0.8229
  610TIP3    H223390   4.134   2.169   1.444 -0.5051  0.5395 -0.1643
  611TIP3   OH223391   2.094   1.226   8.512 -0.0243 -0.0491  0.0401
  611TIP3    H123392   2.082   1.282   8.589 -1.3630 -1.6723  1.0806
  611TIP3    H223393   2.185   1.239   8.487 -0.1956  2.3101  0.4159
  612TIP3   OH223394   4.804   2.622   1.227 -0.1319  0.5664  0.2756
  612TIP3    H123395   4.763   2.699   1.188 -3.2731 -1.0750  0.0916
  612TIP3    H223396   4.772   2.621   1.317 -0.7802 -0.9269  0.0466
  613TIP3   OH223397   5.182   5.752   0.042  0.1791 -0.1301  0.6564
  613TIP3    H123398   5.183   5.663   0.007  0.5711  0.1323 -0.0152
  613TIP3    H223399   5.120   5.748   0.116 -1.1931 -0.5418 -0.4629
  614TIP3   OH223400   0.388   2.819   0.987 -0.0724  0.0825 -0.5982
  614TIP3    H123401   0.482   2.814   0.970 -0.1281  1.0369 -1.2758
  614TIP3    H223402   0.352   2.860   0.908 -1.4176 -2.5206 -1.4516
  615TIP3   OH223403   0.023   6.904   2.042 -0.0760  0.4201 -0.2772
  615TIP3    H123404  -0.072   6.916   2.047 -0.2183 -0.3201 -0.9663
  615TIP3    H223405   0.059   6.992   2.053 -0.8531  0.7638 -0.3807
  616TIP3   OH223406   5.357   6.163   8.082  0.0215 -0.8569  0.3564
  616TIP3    H123407   5.384   6.254   8.090 -1.9332 -0.1522 -0.5203
  616TIP3    H223408   5.439   6.113   8.089  1.0437  0.8801  1.6450
  617TIP3   OH223409   5.954   2.970   1.779  0.0287 -0.2266  0.0856
  617TIP3    H123410   6.007   3.045   1.805  0.6729 -0.6250 -0.0333
  617TIP3    H223411   5.892   2.957   1.851 -0.6931  0.9644 -0.3051
  618TIP3   OH223412   1.214   0.339   8.526 -0.0830  0.0343  0.4584
  618TIP3    H123413   1.160   0.262   8.545 -0.9272 -0.0914 -1.9958
  618TIP3    H223414   1.303   0.305   8.523 -0.5585 -1.2374 -1.8881
  619TIP3   OH223415   5.553   4.499   7.844  0.5561  0.7210  0.3439
  619TIP3    H123416   5.543   4.427   7.781 -0.1010  0.7756  0.3781
  619TIP3    H223417   5.647   4.516   7.846  0.5050  1.4665 -1.4548
  620TIP3   OH223418   4.843   0.655   2.643  0.3188 -0.0288 -0.0859
  620TIP3    H123419   4.796   0.578   2.674  0.4838  1.0847  3.2511
  620TIP3    H223420   4.775   0.723   2.636  0.6773  0.3687  0.2190
  621TIP3   OH223421   1.438   1.690   2.985  0.0447 -0.1501 -0.4281
  621TIP3    H123422   1.498   1.618   3.003  0.6112  0.3154 -0.4246
  621TIP3    H223423   1.493   1.759   2.949 -0.4385  0.4002 -0.1426
  622TIP3   OH223424   2.637   1.902   8.035 -0.7247  0.0300 -0.8362
  622TIP3    H123425   2.594   1.817   8.047 -2.3193  1.0258  1.0296
  622TIP3    H223426   2.636   1.942   8.122  0.6673  1.6765 -1.5166
  623TIP3   OH223427   4.438   4.556   1.490  0.0056 -0.4392 -0.6346
  623TIP3    H123428   4.467   4.584   1.577  0.8829 -3.0630  0.0109
  623TIP3    H223429   4.344   4.539   1.501 -0.2774  0.9592 -0.7229
  624TIP3   OH223430   6.096   0.259   2.049  0.6208  0.7435  0.4520
  624TIP3    H123431   6.134   0.337   2.009  0.7626  0.1845 -0.5274
  624TIP3    H223432   6.154   0.188   2.023  1.8149  0.5788  3.2226
  625TIP3   OH223433   4.658   2.828   0.100  0.5630  0.3646  0.3752
  625TIP3    H123434   4.708   2.867   0.027  0.2412 -0.0389 -0.0675
  625TIP3    H223435   4.581   2.885   0.109  0.4573  0.2481  0.2088
  626TIP3   OH223436   6.124   6.029   7.210 -0.5865  0.0727 -0.5385
  626TIP3    H123437   6.087   6.102   7.161 -0.9248 -0.9681 -1.8979
  626TIP3    H223438   6.049   5.975   7.234 -0.1979 -0.7681 -1.1502
  627TIP3   OH223439   6.567   5.818   0.519 -0.2651  0.1800  0.0731
  627TIP3    H123440   6.651   5.782   0.548  0.8480  2.5796  0.0913
  627TIP3    H223441   6.546   5.768   0.440  1.7932  0.2285 -0.5767
  628TIP3   OH223442   2.641   1.304   1.343  0.0238  0.1552 -0.2459
  628TIP3    H123443   2.594   1.318   1.260 -0.4451  0.1831  0.0195
  628TIP3    H223444   2.623   1.382   1.394  0.2139  0.0841 -0.0719
  629TIP3   OH223445   0.342   2.185   2.612  0.7634 -0.0428 -0.4350
  629TIP3    H123446   0.297   2.266   2.634  0.2457 -0.6674  0.9279
  629TIP3    H223447   0.276   2.132   2.567  0.8806 -0.0167 -0.6419
  630TIP3   OH223448   5.971   5.743   0.033 -0.1970 -0.3263 -0.6922
  630TIP3    H123449   5.919   5.823   0.031 -1.4671 -1.0871 -0.1408
  630TIP3    H223450   5.908   5.673   0.013 -0.2582 -1.6542  3.2541
  631TIP3   OH223451   0.565   3.019   2.118 -0.3666 -0.0980 -0.6595
  631TIP3    H123452   0.632   3.056   2.175 -0.9381 -2.4199  1.7339
  631TIP3    H223453   0.492   3.080   2.125  0.2961  0.7065 -0.5689
  632TIP3   OH223454   5.990   6.078   7.724 -0.4925 -0.2997  0.1804
  632TIP3    H123455   6.073   6.062   7.679 -0.7546  0.6102 -0.6576
  632TIP3    H223456   6.016   6.116   7.808 -0.0336 -1.0584  0.3934
  633TIP3   OH223457   6.599   5.605   6.691 -0.0337  0.5922  0.0593
  633TIP3    H123458   6.520   5.565   6.727 -0.2351 -0.0514 -1.0438
  633TIP3    H223459   6.665   5.536   6.696 -0.3745  0.0536 -1.8273
  634TIP3   OH223460   6.343   6.055   1.859  0.4677  0.1887  0.1435
  634TIP3    H123461   6.323   6.027   1.948  0.9834 -0.5039  0.0546
  634TIP3    H223462   6.393   6.136   1.869  1.4297 -0.4284  0.5415
  635TIP3   OH223463   2.820   6.386   2.005  0.4712 -0.1682 -0.1868
  635TIP3    H123464   2.762   6.462   2.000  0.6555  0.0730  0.8894
  635TIP3    H223465   2.908   6.424   2.005  0.7103 -0.5740 -2.6496
  636TIP3   OH223466   4.190   0.196   1.787  0.0262  0.6832  0.0725
  636TIP3    H123467   4.144   0.193   1.870  0.3123  0.6960  0.2345
  636TIP3    H223468   4.210   0.289   1.773  0.8695  0.5806  0.4957
  637TIP3   OH223469   2.477   2.357   3.485  0.1999 -0.2026  0.0352
  637TIP3    H123470   2.569   2.345   3.505  0.9761  2.6109 -1.3472
  637TIP3    H223471   2.469   2.334   3.393  0.0685  1.7359 -0.4722
  638TIP3   OH223472   2.932   5.204   8.239  0.2015  0.2309 -0.0198
  638TIP3    H123473   2.960   5.133   8.296 -1.6263  1.2027  2.2612
  638TIP3    H223474   2.860   5.167   8.188  0.1633  0.0647  0.1539
  639TIP3   OH223475   6.585   0.400   7.806  0.1945  0.7551  0.0105
  639TIP3    H123476   6.588   0.495   7.818  0.9544  0.9308 -1.3437
  639TIP3    H223477   6.628   0.385   7.721  0.3164 -0.8205  0.3147
  640TIP3   OH223478   5.721   5.947   2.116  0.1167  0.1386  0.6697
  640TIP3    H123479   5.674   5.912   2.040 -0.2344 -0.1587  1.0229
  640TIP3    H223480   5.680   6.032   2.133  1.6033  1.2182 -0.7880
  641TIP3   OH223481   5.686   6.225   7.870  0.3844  0.4676 -0.0744
  641TIP3    H123482   5.724   6.139   7.853 -1.9070 -1.0626  1.7674
  641TIP3    H223483   5.624   6.239   7.799 -1.5093 -0.9887  1.1593
  642TIP3   OH223484   3.930   6.167   2.050 -0.4172  0.0930  0.7720
  642TIP3    H123485   3.931   6.089   2.104  0.2140 -0.2161  0.3282
  642TIP3    H223486   3.895   6.236   2.107 -0.5862 -0.4199  1.2893
  643TIP3   OH223487   6.188   4.913   0.302  0.1309  0.1027  0.6337
  643TIP3    H123488   6.119   4.858   0.266  1.4441 -1.7430  0.8081
  643TIP3    H223489   6.158   4.935   0.390 -1.5781  1.8930 -0.3119
  644TIP3   OH223490   4.865   4.993   8.032  0.0683 -0.4692 -0.3186
  644TIP3    H123491   4.884   4.927   7.965 -0.1111 -3.1308  2.0184
  644TIP3    H223492   4.937   4.983   8.095 -0.7543  0.5754  0.8272
  645TIP3   OH223493   5.648   4.929   0.336 -0.3843 -0.4128 -0.4047
  645TIP3    H123494   5.702   4.938   0.257  0.9110 -1.8149  0.2505
  645TIP3    H223495   5.605   4.844   0.325 -0.6595 -0.3414  0.1210
  646TIP3   OH223496   3.391   3.436   6.646  0.0604  0.4978 -0.6461
  646TIP3    H123497   3.428   3.493   6.713  0.9223 -1.1502  0.3590
  646TIP3    H223498   3.305   3.412   6.680  0.5614 -0.4663  0.0062
  647TIP3   OH223499   1.630   5.700   0.020  0.3743 -0.0197  0.2241
  647TIP3    H123500   1.696   5.644  -0.020  0.8245 -0.2613  1.2819
  647TIP3    H223501   1.672   5.786   0.028  0.3207  0.0045  0.2530
  648TIP3   OH223502   6.109   3.768   6.554  0.2555 -0.0992  0.0389
  648TIP3    H123503   6.093   3.844   6.611  0.8676 -0.2560  0.4261
  648TIP3    H223504   6.031   3.713   6.565 -0.1145  0.3885 -0.1103
  649TIP3   OH223505   5.765   0.087   1.457 -0.1326  0.0969  0.1450
  649TIP3    H123506   5.808   0.060   1.376 -1.6369 -0.3231 -0.5509
  649TIP3    H223507   5.740   0.178   1.442 -3.4441 -0.8906 -1.3293
  650TIP3   OH223508   5.712   4.763   0.665  0.0176  0.2594  0.0266
  650TIP3    H123509   5.684   4.683   0.709 -0.8984  0.0575 -0.8780
  650TIP3    H223510   5.712   4.740   0.572  2.9648  0.3404 -0.0804
  651TIP3   OH223511   3.187   2.503   7.602 -0.6150 -0.3892  0.1618
  651TIP3    H123512   3.115   2.558   7.632  0.2373  0.9254 -0.1087
  651TIP3    H223513   3.160   2.414   7.624 -2.6916 -0.0287 -0.6836
  652TIP3   OH223514   2.653   1.616   0.440  0.1171  0.4879  0.3834
  652TIP3    H123515   2.595   1.691   0.457 -0.2882 -0.2070  2.3106
  652TIP3    H223516   2.709   1.646   0.369 -2.2493  1.3748 -1.2436
  653TIP3   OH223517   1.685   3.823   0.653 -0.3374  0.1243  0.0174
  653TIP3    H123518   1.747   3.775   0.598 -0.7118 -0.7359  0.3272
  653TIP3    H223519   1.718   3.913   0.653  0.0128  0.0147 -1.1104
  654TIP3   OH223520   4.428   0.171   8.546 -0.2393 -0.1252 -0.5024
  654TIP3    H123521   4.510   0.162   8.595  0.2167 -0.0492 -1.2439
  654TIP3    H223522   4.453   0.214   8.465 -0.6958 -1.7462 -1.5540
  655TIP3   OH223523   3.679   3.635   1.645  0.7917  0.3600 -0.3893
  655TIP3    H123524   3.589   3.660   1.669  0.5858 -0.2445 -0.4988
  655TIP3    H223525   3.686   3.656   1.552  1.6903  2.9925  0.1722
  656TIP3   OH223526   6.317   2.446   7.893 -0.2396 -0.2090 -0.2537
  656TIP3    H123527   6.300   2.519   7.953  0.3591  1.2203 -1.7601
  656TIP3    H223528   6.281   2.474   7.809 -0.2506 -1.7817 -0.8138
  657TIP3   OH223529   5.974   1.452   7.646 -0.1422 -0.0752 -0.3086
  657TIP3    H123530   5.966   1.454   7.741  1.4044  0.1107 -0.1681
  657TIP3    H223531   5.883   1.443   7.615 -1.2490  3.9620  1.0678
  658TIP3   OH223532   1.112   1.184   2.828  0.0440 -0.0320 -0.9581
  658TIP3    H123533   1.208   1.180   2.832 -0.0174 -0.9496  0.6127
  658TIP3    H223534   1.085   1.092   2.823 -0.7704  0.1122  0.3661
  659TIP3   OH223535   2.478   0.504   1.236 -0.8655 -0.0514  0.2345
  659TIP3    H123536   2.422   0.566   1.190 -0.3241 -0.1994 -0.6391
  659TIP3    H223537   2.421   0.466   1.303 -1.2377  1.3132  0.7425
  660TIP3   OH223538   4.528   6.407   6.515  0.3643 -0.0023 -0.8157
  660TIP3    H123539   4.457   6.390   6.452 -0.1584  1.3646 -0.6173
  660TIP3    H223540   4.568   6.321   6.528 -0.0906 -0.4841 -2.3197
  661TIP3   OH223541   0.301   1.036   1.418  0.0955 -0.2482 -0.2035
  661TIP3    H123542   0.387   1.073   1.400  0.3591 -0.6287  0.2449
  661TIP3    H223543   0.241   1.110   1.411  0.8315  0.7439  2.6368
  662TIP3   OH223544   4.910   0.555   7.297 -0.2070 -0.5238  0.6815
  662TIP3    H123545   4.819   0.561   7.269 -0.9625  0.8845  3.1083
  662TIP3    H223546   4.923   0.633   7.351  1.7492 -1.8378  2.2317
  663TIP3   OH223547   5.810   1.244   8.449  0.1980 -0.5489  0.2987
  663TIP3    H123548   5.726   1.220   8.487 -0.7624 -0.3923 -1.5923
  663TIP3    H223549   5.850   1.302   8.514 -1.6340  0.2442  0.7917
  664TIP3   OH223550   4.291   2.753   0.792  0.6409 -0.1458  0.5285
  664TIP3    H123551   4.292   2.694   0.717  1.1507  0.1274  0.3153
  664TIP3    H223552   4.265   2.838   0.755 -0.6998 -0.3517  0.9314
  665TIP3   OH223553   0.062   5.912   3.135 -0.0981 -0.0306  0.6334
  665TIP3    H123554   0.098   5.840   3.084  0.3342  1.4176 -1.2199
  665TIP3    H223555  -0.019   5.877   3.172 -0.8278 -0.9550 -1.6788
  666TIP3   OH223556   3.994   2.116   0.866 -0.3828  0.0379 -0.4765
  666TIP3    H123557   3.923   2.181   0.858  0.5623  1.2179  0.3156
  666TIP3    H223558   4.071   2.161   0.830  0.4546 -0.3551  0.7732
  667TIP3   OH223559   0.394   6.086   8.407 -0.5580 -0.6294 -0.2161
  667TIP3    H123560   0.318   6.091   8.464 -0.7818  0.5097 -0.5880
  667TIP3    H223561   0.369   6.025   8.338 -0.4183 -1.7323  0.6823
  668TIP3   OH223562   2.029   1.919   2.069 -0.0107  0.5953  0.1352
  668TIP3    H123563   2.016   2.013   2.055 -1.8517  0.4473  0.5760
  668TIP3    H223564   2.000   1.878   1.988 -1.2140  0.3134  0.6830
  669TIP3   OH223565   3.283   6.668   1.928  0.3165 -0.2537 -0.0332
  669TIP3    H123566   3.310   6.576   1.936 -2.3609 -1.2623 -1.3479
  669TIP3    H223567   3.282   6.685   1.834 -0.3034  0.7794  0.1474
  670TIP3   OH223568   6.130   0.181   2.981  0.1072 -0.2745  0.8974
  670TIP3    H123569   6.042   0.214   2.961  0.4744 -0.6579 -1.6965
  670TIP3    H223570   6.117   0.088   2.999 -0.0849 -0.2269  1.0026
  671TIP3   OH223571   1.457   1.972   7.475 -0.0462 -0.8183 -0.4889
  671TIP3    H123572   1.419   1.945   7.391 -0.1845 -0.0178 -0.6963
  671TIP3    H223573   1.468   2.067   7.466 -2.0282 -0.3690  1.1772
  672TIP3   OH223574   6.518   5.487   7.251 -0.6589  0.2721 -0.1157
  672TIP3    H123575   6.601   5.519   7.214  0.8282 -0.3260  2.4368
  672TIP3    H223576   6.451   5.544   7.214  1.3986  3.8378  1.1549
  673TIP3   OH223577   3.594   6.890   0.432 -0.2695  0.5012 -0.5663
  673TIP3    H123578   3.507   6.855   0.413  0.0190  0.2734 -1.5140
  673TIP3    H223579   3.577   6.966   0.488 -1.0154 -0.0535 -0.0172
  674TIP3   OH223580   2.727   2.006   0.342  0.3715  0.3113 -0.1564
  674TIP3    H123581   2.800   2.013   0.281 -0.4218  1.1906 -1.0383
  674TIP3    H223582   2.698   2.096   0.354 -0.0774  0.0462  0.7944
  675TIP3   OH223583   0.956   2.131   0.911 -0.2978  0.0507  0.3523
  675TIP3    H123584   1.021   2.198   0.893  0.6873 -0.8636  0.3803
  675TIP3    H223585   0.944   2.133   1.006  2.7887 -2.4217  0.9882
  676TIP3   OH223586   5.135   2.610   7.352  0.0510 -0.3647 -0.0557
  676TIP3    H123587   5.116   2.564   7.433 -0.6715 -1.7485 -0.9828
  676TIP3    H223588   5.067   2.582   7.291  0.1022  1.2648 -0.9319
  677TIP3   OH223589   3.368   4.498   0.124 -0.6875  0.6433 -0.2625
  677TIP3    H123590   3.420   4.436   0.174 -0.8840 -0.8381 -1.8097
  677TIP3    H223591   3.422   4.518   0.047 -2.3517 -1.0093 -1.9641
  678TIP3   OH223592   0.246   5.324   1.716  0.4022 -0.5108  0.2349
  678TIP3    H123593   0.329   5.361   1.747 -0.0498  1.3393 -0.6513
  678TIP3    H223594   0.191   5.320   1.794  1.1470 -1.3337  0.7437
  679TIP3   OH223595   2.588   6.681   0.478 -0.5766 -0.1005 -0.3988
  679TIP3    H123596   2.497   6.674   0.507 -0.4100  0.8064  0.4399
  679TIP3    H223597   2.598   6.773   0.454  0.0129 -0.2804 -0.8515
  680TIP3   OH223598   2.579   5.108   1.649  0.0253 -0.2999 -0.3341
  680TIP3    H123599   2.549   5.029   1.606 -1.5816 -0.0820  0.3159
  680TIP3    H223600   2.584   5.173   1.579  1.0994 -0.8732 -0.8205
  681TIP3   OH223601   3.526   3.191   6.623  0.0969  0.1514  0.0846
  681TIP3    H123602   3.600   3.210   6.564 -0.0371  3.1819  0.7051
  681TIP3    H223603   3.486   3.277   6.639 -2.4243 -1.1402  1.2983
  682TIP3   OH223604   3.591   0.346   1.837 -0.4150 -0.8033  0.3824
  682TIP3    H123605   3.672   0.397   1.840 -0.5506 -0.5139 -0.5187
  682TIP3    H223606   3.602   0.278   1.903 -0.1174  0.2261  1.4157
  683TIP3   OH223607   2.472   2.899   2.874 -0.6432  0.4083  0.0154
  683TIP3    H123608   2.537   2.917   2.806  0.4864  2.4451  1.5101
  683TIP3    H223609   2.524   2.872   2.950 -1.7566 -0.3432  0.5309
  684TIP3   OH223610   6.895   2.433   1.027 -0.1659  0.3385 -0.0562
  684TIP3    H123611   6.897   2.339   1.041  0.2628  0.2879 -0.4485
  684TIP3    H223612   6.962   2.467   1.087 -0.4176  0.4072  0.1862
  685TIP3   OH223613   2.572   0.180   2.308 -0.1318  0.9460 -0.3892
  685TIP3    H123614   2.523   0.254   2.343 -1.0309  0.0483  0.3069
  685TIP3    H223615   2.610   0.213   2.226  2.1123  3.1562  1.3864
  686TIP3   OH223616   3.765   2.340   7.268 -0.1396 -0.9437  0.0408
  686TIP3    H123617   3.780   2.310   7.178  0.6673 -0.7633  0.1025
  686TIP3    H223618   3.722   2.425   7.258  1.6078 -0.0379 -0.2408
  687TIP3   OH223619   6.529   1.318   8.085  0.2913  0.2601  0.3098
  687TIP3    H123620   6.460   1.259   8.053  0.1361  0.0351  1.0407
  687TIP3    H223621   6.508   1.402   8.045 -0.4162  0.1923  0.5071
  688TIP3   OH223622   3.592   4.625   8.219 -0.0076 -0.1873 -0.4861
  688TIP3    H123623   3.670   4.569   8.210  0.7661  0.9054 -0.8089
  688TIP3    H223624   3.559   4.635   8.130  0.2785  0.4405 -0.5246
  689TIP3   OH223625   5.452   1.170   1.687 -0.8244  0.2766 -0.6375
  689TIP3    H123626   5.443   1.237   1.620  0.4855 -1.1332 -2.2985
  689TIP3    H223627   5.479   1.218   1.765 -0.3734  1.7321 -1.6457
  690TIP3   OH223628   2.635   2.826   3.068  0.0688  0.3927  0.3664
  690TIP3    H123629   2.690   2.778   3.005  1.1443  2.3659 -0.2759
  690TIP3    H223630   2.687   2.902   3.093 -1.4162  1.0492  1.6489
  691TIP3   OH223631   4.884   5.130   8.523  0.1844  0.2747 -0.4302
  691TIP3    H123632   4.964   5.092   8.561 -1.0318  0.7328  2.8606
  691TIP3    H223633   4.845   5.058   8.473  1.2160 -0.8145  0.2827
  692TIP3   OH223634   5.201   4.901   1.101  0.2599  0.0304 -0.6580
  692TIP3    H123635   5.258   4.825   1.106 -2.1239 -1.7964  0.9597
  692TIP3    H223636   5.122   4.876   1.148 -1.4236  2.8595 -1.6626
  693TIP3   OH223637   3.439   6.020   0.589 -1.5324  0.3044  0.1239
  693TIP3    H123638   3.481   5.952   0.641 -0.0132  1.8283  0.9698
  693TIP3    H223639   3.476   6.010   0.501 -1.6144 -0.1927  0.1433
  694TIP3   OH223640   3.263   5.647   8.021 -0.3630 -0.0867 -0.0305
  694TIP3    H123641   3.181   5.656   7.972 -0.0797  0.0093 -0.4968
  694TIP3    H223642   3.243   5.681   8.108 -0.6373  0.5701 -0.3394
  695TIP3   OH223643   5.185   0.128   2.242  0.2475 -0.8086 -0.5625
  695TIP3    H123644   5.209   0.038   2.263  0.7307 -0.9182 -1.5218
  695TIP3    H223645   5.256   0.181   2.279  0.0907 -0.8298 -0.2201
  696TIP3   OH223646   2.837   5.553   2.712  0.6789 -0.3023  0.0853
  696TIP3    H123647   2.835   5.458   2.718  1.4254 -0.4143 -1.1382
  696TIP3    H223648   2.749   5.577   2.684  1.0114 -0.8040 -1.4645
  697TIP3   OH223649   2.862   5.915   0.254  0.5021 -0.0947 -0.3326
  697TIP3    H123650   2.886   5.937   0.164  0.2107  2.7856  0.1789
  697TIP3    H223651   2.766   5.918   0.255  0.5211  1.3360  0.3104
  698TIP3   OH223652   2.441   0.869   7.782 -0.1412 -0.0181 -0.3305
  698TIP3    H123653   2.433   0.880   7.687 -0.1320  1.1051 -0.2148
  698TIP3    H223654   2.533   0.890   7.800  0.1615 -1.3515 -0.1985
  699TIP3   OH223655   6.553   3.866   0.349  0.0245 -0.6266 -0.0242
  699TIP3    H123656   6.617   3.923   0.306  0.4201 -1.2660 -0.2899
  699TIP3    H223657   6.593   3.846   0.434 -0.4784  0.1357  0.4052
  700TIP3   OH223658   3.102   4.691   7.847 -0.2530  0.0414  0.1340
  700TIP3    H123659   3.080   4.746   7.772 -0.2927 -0.4166 -0.1961
  700TIP3    H223660   3.196   4.703   7.860 -0.1619 -0.2232 -0.2742
  701TIP3   OH223661   3.437   5.045   7.502  0.4164 -0.0134  0.2393
  701TIP3    H123662   3.396   4.992   7.571  0.6323 -1.9190 -1.0202
  701TIP3    H223663   3.531   5.038   7.519  0.4821 -0.6643 -0.3311
  702TIP3   OH223664   5.539   5.909   7.146 -0.3792  0.1831 -0.4501
  702TIP3    H123665   5.573   5.945   7.063  1.2947  1.1850  0.6150
  702TIP3    H223666   5.511   5.820   7.123  1.0120  0.0575 -1.8923
  703TIP3   OH223667   4.241   6.709   1.665 -0.3016  0.2907 -0.2264
  703TIP3    H123668   4.172   6.648   1.692  0.0961 -1.4192 -2.7129
  703TIP3    H223669   4.320   6.656   1.660 -0.1316  0.6442 -3.4018
  704TIP3   OH223670   2.114   2.186   0.748  0.2800 -0.9578  0.5302
  704TIP3    H123671   2.037   2.237   0.776  0.7230 -0.7835  1.4918
  704TIP3    H223672   2.183   2.252   0.735  0.7766 -1.2693  1.5030
  705TIP3   OH223673   5.796   0.993   0.153  0.5669 -0.0654  0.4352
  705TIP3    H123674   5.723   0.933   0.170 -1.2351  2.0827  0.6664
  705TIP3    H223675   5.821   0.974   0.062 -2.1156  0.9083 -0.6131
  706TIP3   OH223676   3.584   1.041   2.586 -0.2110 -0.2271 -0.2244
  706TIP3    H123677   3.617   1.123   2.550  2.6979 -1.3974 -0.4882
  706TIP3    H223678   3.491   1.057   2.602  0.0447  2.7517 -1.2107
  707TIP3   OH223679   5.198   1.230   2.712  0.0011  0.8316 -0.1529
  707TIP3    H123680   5.230   1.229   2.622 -2.7015 -0.4578 -1.2114
  707TIP3    H223681   5.191   1.137   2.736  1.1130  1.1493  1.6106
  708TIP3   OH223682   1.673   1.362   1.354 -0.3631 -0.2941 -0.2595
  708TIP3    H123683   1.754   1.364   1.303  0.9346  0.7403  1.6674
  708TIP3    H223684   1.703   1.375   1.445 -2.5006 -2.1221  0.7985
  709TIP3   OH223685   0.396   3.835   7.696  0.1762 -0.3197  0.1423
  709TIP3    H123686   0.422   3.894   7.625  0.6470 -1.5256 -0.7290
  709TIP3    H223687   0.451   3.860   7.770 -0.0852  0.7394 -0.0119
  710TIP3   OH223688   1.664   0.786   7.682 -0.6810  0.0195 -0.6816
  710TIP3    H123689   1.668   0.746   7.595  1.2242  0.1206 -0.6731
  710TIP3    H223690   1.755   0.790   7.711 -0.7244  3.9987 -0.5144
  711TIP3   OH223691   4.626   3.390   0.171 -0.1455  0.0693  0.1121
  711TIP3    H123692   4.557   3.332   0.202  0.5204 -1.1099 -0.5178
  711TIP3    H223693   4.582   3.472   0.150 -1.9241 -1.5032 -2.9758
  712TIP3   OH223694   3.748   5.610   2.037 -0.1997 -0.1306 -0.1675
  712TIP3    H123695   3.665   5.635   2.078 -1.5130  0.8862 -3.0866
  712TIP3    H223696   3.733   5.521   2.004  0.1588 -0.2526 -0.0047
  713TIP3   OH223697   4.109   4.318   0.242  0.1764  0.3111  0.0258
  713TIP3    H123698   4.200   4.293   0.260 -0.1886 -0.7950  0.4373
  713TIP3    H223699   4.069   4.330   0.328 -0.4322 -0.6744 -0.0911
  714TIP3   OH223700   4.288   6.344   7.147 -0.9431 -0.0106  0.1261
  714TIP3    H123701   4.259   6.433   7.128  0.1256  0.5282  0.9136
  714TIP3    H223702   4.219   6.288   7.111 -1.0905  1.0800 -1.3803
  715TIP3   OH223703   0.857   2.829   0.431  0.2469  0.2525 -0.0100
  715TIP3    H123704   0.796   2.892   0.394 -0.0639 -0.2725 -0.4102
  715TIP3    H223705   0.885   2.776   0.356  1.2985  0.5651  0.1385
  716TIP3   OH223706   3.425   6.494   2.630 -0.7653  0.9991  0.4944
  716TIP3    H123707   3.345   6.545   2.640  0.0640  2.3363  0.6688
  716TIP3    H223708   3.411   6.442   2.551 -2.3469  0.1023  1.3267
  717TIP3   OH223709   0.831   0.124   8.459  0.0671 -0.2049  0.4674
  717TIP3    H123710   0.755   0.111   8.516 -0.1547 -1.5771 -0.1086
  717TIP3    H223711   0.815   0.067   8.384  1.5415 -0.2970  0.1909
  718TIP3   OH223712   3.511   3.249   1.700  0.4725  0.7358  0.2087
  718TIP3    H123713   3.490   3.177   1.641 -1.0771  0.3426  1.2021
  718TIP3    H223714   3.426   3.282   1.731  1.2107  1.1775  1.9172
  719TIP3   OH223715   5.758   6.769   2.282 -0.2268  0.0884 -0.4425
  719TIP3    H123716   5.763   6.759   2.187 -2.8749 -0.1031 -0.6328
  719TIP3    H223717   5.815   6.844   2.301  2.1828 -1.2499 -1.8141
  720TIP3   OH223718   3.725   5.662   8.107  0.8823 -0.3807  0.7575
  720TIP3    H123719   3.813   5.696   8.093  0.6965 -0.0903  0.2776
  720TIP3    H223720   3.692   5.711   8.183  1.1978 -0.6199  1.0534
  721TIP3   OH223721   0.028   5.465   3.241 -0.4563 -0.0414 -0.4644
  721TIP3    H123722   0.090   5.527   3.279 -1.1714  0.0706  0.5515
  721TIP3    H223723   0.069   5.379   3.254  0.9086  0.2206 -2.5827
  722TIP3   OH223724   0.760   5.062   0.372  0.3867 -0.8268 -0.0201
  722TIP3    H123725   0.775   4.974   0.337 -1.5679 -1.0876 -0.3126
  722TIP3    H223726   0.822   5.117   0.325 -0.7573 -1.4998 -2.4674
  723TIP3   OH223727   3.383   6.380   2.382  0.2099 -0.0573 -0.2066
  723TIP3    H123728   3.439   6.355   2.309 -0.7134 -4.2353  0.2846
  723TIP3    H223729   3.316   6.312   2.385 -2.4376  2.4024  1.8482
  724TIP3   OH223730   6.532   3.768   7.803  0.2428  0.0317  0.3936
  724TIP3    H123731   6.552   3.861   7.806 -3.0742  0.9013 -0.5280
  724TIP3    H223732   6.615   3.726   7.783  1.8725  2.7437  1.0209
  725TIP3   OH223733   5.729   1.484   8.241  0.4417 -0.5091 -0.6317
  725TIP3    H123734   5.754   1.413   8.181  0.4333 -0.8085 -0.2821
  725TIP3    H223735   5.812   1.524   8.266  0.5073 -0.8767 -0.2432
  726TIP3   OH223736   0.498   6.567   2.536 -0.1530 -0.1181 -0.3664
  726TIP3    H123737   0.530   6.578   2.446  0.5239  1.3299  0.0292
  726TIP3    H223738   0.445   6.645   2.552  3.2590  2.0160  1.9076
  727TIP3   OH223739   2.266   5.055   2.200  0.1520 -0.1610  0.0479
  727TIP3    H123740   2.215   5.134   2.220  0.4012 -0.1541  0.6639
  727TIP3    H223741   2.269   5.053   2.104 -1.0281 -0.1723 -0.0036
  728TIP3   OH223742   6.205   4.710   1.861 -0.1512 -0.0994  0.0517
  728TIP3    H123743   6.162   4.771   1.800  0.5962 -0.3595 -0.7483
  728TIP3    H223744   6.262   4.657   1.806  0.6918 -0.2174  1.0122
  729TIP3   OH223745   1.462   0.931   7.754  0.0436  0.1140 -0.1366
  729TIP3    H123746   1.523   0.874   7.707 -0.2013  0.6043 -1.0663
  729TIP3    H223747   1.517   0.974   7.820  0.4705 -0.2790 -0.2272
  730TIP3   OH223748   3.834   2.347   0.796  0.2697  0.2549  0.1629
  730TIP3    H123749   3.768   2.280   0.814 -1.4071  1.0558 -2.3901
  730TIP3    H223750   3.783   2.428   0.787  1.8794  1.3221  0.2392
  731TIP3   OH223751   4.591   1.917   0.073  0.0070 -0.3229 -0.1270
  731TIP3    H123752   4.671   1.889   0.118  0.6899 -0.1517 -1.1814
  731TIP3    H223753   4.575   2.006   0.107 -0.7609 -1.0032  1.3834
  732TIP3   OH223754   2.000   4.848   2.429  0.0225 -0.3374  0.1932
  732TIP3    H123755   1.950   4.804   2.498  1.9510 -2.3111  0.4126
  732TIP3    H223756   1.956   4.933   2.419 -1.8833 -1.0206  2.0081
  733TIP3   OH223757   5.835   4.893   8.218  0.0506  0.0992  0.0918
  733TIP3    H123758   5.760   4.881   8.277 -1.3254  0.4945 -1.5004
  733TIP3    H223759   5.864   4.982   8.235 -0.9897  0.5734 -0.4943
  734TIP3   OH223760   0.738   2.553   3.089 -0.5278 -0.5271 -0.2819
  734TIP3    H123761   0.698   2.489   3.147 -0.9464  0.2845  0.3511
  734TIP3    H223762   0.790   2.501   3.028 -0.7800 -1.4559  0.2715
  735TIP3   OH223763   0.885   2.278   1.630  0.4272  0.1944  0.2933
  735TIP3    H123764   0.790   2.288   1.625  0.5244  1.7775  0.9560
  735TIP3    H223765   0.898   2.192   1.668 -0.8367  0.8850  2.4779
  736TIP3   OH223766   3.092   6.837   0.835  0.3222  0.8565 -0.6138
  736TIP3    H123767   3.096   6.776   0.762  0.9249 -0.8982  0.7987
  736TIP3    H223768   3.020   6.805   0.889  1.9910  0.0109  1.2401
  737TIP3   OH223769   5.509   1.026   2.103 -0.5345 -0.2274  0.0720
  737TIP3    H123770   5.520   0.967   2.177 -0.8547  1.7447  1.7814
  737TIP3    H223771   5.580   1.090   2.112 -1.0735  0.5290 -0.8501
  738TIP3   OH223772   5.846   6.612   1.330  0.2479  0.2963 -0.5496
  738TIP3    H123773   5.917   6.569   1.281 -1.3950 -1.1181 -1.7885
  738TIP3    H223774   5.844   6.701   1.294  0.9539  0.1514 -0.9842
  739TIP3   OH223775   0.218   6.627   1.034 -0.3139  0.0944 -0.5116
  739TIP3    H123776   0.191   6.584   1.115  0.6259 -1.1850 -0.8391
  739TIP3    H223777   0.151   6.603   0.970 -0.2746 -0.1199 -0.4719
  740TIP3   OH223778   3.260   6.711   1.015  0.6095  0.3358  0.7262
  740TIP3    H123779   3.307   6.675   0.940 -0.7503  1.3830 -0.6874
  740TIP3    H223780   3.173   6.733   0.981 -0.2896  0.2142  2.7911
  741TIP3   OH223781   5.246   2.469   1.983 -0.1891  0.0952 -0.1865
  741TIP3    H123782   5.198   2.510   2.055  0.3093 -0.1792  0.3113
  741TIP3    H223783   5.215   2.514   1.905 -0.5650  0.5618  0.2229
  742TIP3   OH223784   2.106   1.736   0.674 -0.5860 -0.0208 -0.2395
  742TIP3    H123785   2.074   1.826   0.681  0.7316  0.5676 -1.3197
  742TIP3    H223786   2.050   1.696   0.608 -0.5423  0.3172 -0.4840
  743TIP3   OH223787   3.656   3.229   8.166 -0.3987 -0.1387 -0.4508
  743TIP3    H123788   3.714   3.230   8.243 -1.8563  1.0301  0.6947
  743TIP3    H223789   3.705   3.276   8.099 -0.1790  1.2258  0.6289
  744TIP3   OH223790   3.705   2.734   6.945  0.0608  0.4324  0.3034
  744TIP3    H123791   3.756   2.729   6.864  0.1714 -0.6373  0.4205
  744TIP3    H223792   3.764   2.700   7.012 -0.6087 -0.3134  0.5306
  745TIP3   OH223793   0.532   3.502   7.991  0.7020 -0.0111  0.1466
  745TIP3    H123794   0.580   3.533   7.915  0.3721  0.2927  0.0623
  745TIP3    H223795   0.542   3.572   8.056  0.7527 -0.1491  0.2888
  746TIP3   OH223796   6.158   3.993   7.928  0.3522  0.0158  0.0287
  746TIP3    H123797   6.143   3.909   7.971  1.4191 -0.6392 -0.8186
  746TIP3    H223798   6.117   3.984   7.842  0.9980  0.1290 -0.2975
  747TIP3   OH223799   5.458   3.081   6.989  0.6264 -1.1397 -0.2369
  747TIP3    H123800   5.450   3.173   7.014 -0.0090 -1.4909  0.9497
  747TIP3    H223801   5.445   3.080   6.894  1.6554  0.0963 -0.4141
  748TIP3   OH223802   1.068   1.983   0.349  0.5796 -0.4159  0.5952
  748TIP3    H123803   1.093   1.896   0.321 -0.6943 -1.2969  2.0205
  748TIP3    H223804   0.978   1.973   0.381 -0.2946  1.7990 -0.8802
  749TIP3   OH223805   6.436   4.880   8.340 -0.5647  0.0143  0.2787
  749TIP3    H123806   6.409   4.843   8.424 -2.8660  0.5017 -0.1822
  749TIP3    H223807   6.473   4.966   8.363  0.3212 -0.5192  0.9048
  750TIP3   OH223808   4.833   0.420   1.207  0.7202 -0.4051 -0.3871
  750TIP3    H123809   4.874   0.479   1.143  0.4853  0.5166  0.2874
  750TIP3    H223810   4.807   0.478   1.279  1.0168 -1.4238  0.5602
  751TIP3   OH223811   3.841   4.694   8.375  0.2368 -0.1112 -0.3991
  751TIP3    H123812   3.877   4.771   8.419 -1.7528  1.4070 -1.3016
  751TIP3    H223813   3.842   4.717   8.282 -0.3637 -1.1877 -0.6803
  752TIP3   OH223814   4.449   1.851   8.399 -0.1112 -0.5331  0.3794
  752TIP3    H123815   4.474   1.912   8.330 -1.2604 -0.2379  0.2101
  752TIP3    H223816   4.500   1.878   8.475  0.7388 -0.5072 -0.1933
  753TIP3   OH223817   1.649   0.779   8.048  0.0725  0.0752  0.0072
  753TIP3    H123818   1.631   0.758   8.139  0.6744 -0.2768  0.0470
  753TIP3    H223819   1.720   0.721   8.023 -1.4724 -1.3404 -1.3240
  754TIP3   OH223820   6.604   0.333   7.310 -0.1642 -0.7180 -0.4983
  754TIP3    H123821   6.515   0.303   7.288  0.0284 -1.2571 -0.5518
  754TIP3    H223822   6.643   0.355   7.225 -0.8042  1.1406 -0.3534
  755TIP3   OH223823   6.257   2.813   0.310  0.4023  0.3155 -0.3547
  755TIP3    H123824   6.324   2.878   0.291  1.7819 -0.7765  0.5168
  755TIP3    H223825   6.260   2.803   0.405 -1.6885  0.9125 -0.1925
  756TIP3   OH223826   0.295   3.083   8.111 -0.0704 -0.0901 -0.5433
  756TIP3    H123827   0.342   3.007   8.077 -1.2395 -1.5213  0.8438
  756TIP3    H223828   0.221   3.045   8.160 -1.1384  1.9742 -0.4463
  757TIP3   OH223829   3.457   2.546   2.108  0.6304  0.1362  0.1963
  757TIP3    H123830   3.481   2.505   2.192  1.7166 -0.0920 -0.2050
  757TIP3    H223831   3.365   2.522   2.096  0.2246  0.8073  1.6779
  758TIP3   OH223832   0.150   2.740   8.547  0.5514 -0.1100  0.2632
  758TIP3    H123833   0.150   2.773   8.457  0.0965 -0.0411  0.2856
  758TIP3    H223834   0.224   2.679   8.550  0.5829 -0.0988 -0.1505
  759TIP3   OH223835   0.939   2.528   1.182 -0.5155  0.5791 -0.5938
  759TIP3    H123836   1.010   2.582   1.218 -0.7152  1.7834 -1.9118
  759TIP3    H223837   0.883   2.507   1.257 -0.1827  1.8330  0.0220
  760TIP3   OH223838   3.130   6.664   0.628 -0.1711  0.1586  0.4021
  760TIP3    H123839   3.209   6.612   0.640  0.0260  0.2992 -0.2592
  760TIP3    H223840   3.102   6.647   0.538 -0.5528  0.5754  0.4342
  761TIP3   OH223841   4.948   0.056   7.020  0.5802  0.4284  0.7536
  761TIP3    H123842   4.941   0.009   6.937 -1.8827 -0.5496  1.4145
  761TIP3    H223843   4.964   0.147   6.995  2.1235 -0.1835 -0.6723
  762TIP3   OH223844   5.467   3.193   0.797 -0.3064  0.5193  0.3861
  762TIP3    H123845   5.458   3.187   0.702 -2.2124  0.2253  0.5466
  762TIP3    H223846   5.548   3.146   0.817  1.3936  2.5744 -1.2634
  763TIP3   OH223847   6.671   4.860   2.348  0.3920 -0.4706 -0.2932
  763TIP3    H123848   6.747   4.834   2.400 -0.4974 -0.5065  1.0405
  763TIP3    H223849   6.627   4.778   2.326 -0.2317 -0.3561  0.4888
  764TIP3   OH223850   2.684   5.863   1.741 -0.3882  0.3785 -0.0305
  764TIP3    H123851   2.592   5.840   1.753 -0.2675  0.1153  0.3998
  764TIP3    H223852   2.690   5.890   1.650 -1.0589  1.1615  0.1455
  765TIP3   OH223853   4.797   1.800   1.849 -0.2033 -0.3726  0.0632
  765TIP3    H123854   4.707   1.782   1.822 -0.2270 -1.2893  0.7274
  765TIP3    H223855   4.839   1.833   1.769 -0.9599 -0.5184 -0.4095
  766TIP3   OH223856   1.269   4.899   7.370 -0.1859 -0.2552 -0.2918
  766TIP3    H123857   1.235   4.964   7.308 -0.0804 -0.7584 -0.8884
  766TIP3    H223858   1.205   4.828   7.366  0.6708 -1.0097 -1.0741
  767TIP3   OH223859   6.192   5.433   8.372  0.8551  0.2598  0.1864
  767TIP3    H123860   6.280   5.435   8.336  0.3439  0.2290 -1.1509
  767TIP3    H223861   6.155   5.519   8.350  0.1549 -0.1701 -0.3811
  768TIP3   OH223862   3.253   5.240   0.345 -0.0439  0.4024 -0.3837
  768TIP3    H123863   3.268   5.298   0.420 -0.3335  0.0526 -0.0550
  768TIP3    H223864   3.158   5.241   0.333  0.1027  2.1415 -2.0818
  769TIP3   OH223865   0.856   1.015   2.222  0.4013  0.2004  0.3195
  769TIP3    H123866   0.887   0.961   2.295 -1.1275 -0.6606  0.3610
  769TIP3    H223867   0.761   1.009   2.226  0.2715  0.2141 -1.6868
  770TIP3   OH223868   4.337   3.710   1.732 -0.1590 -0.3798 -0.2640
  770TIP3    H123869   4.416   3.709   1.785  1.6150  0.7838 -2.6635
  770TIP3    H223870   4.273   3.757   1.785  1.7238  1.3953  0.6150
  771TIP3   OH223871   0.777   3.838   1.245  0.8284 -1.3572 -0.1114
  771TIP3    H123872   0.872   3.855   1.244  0.8749 -1.4397  1.1307
  771TIP3    H223873   0.758   3.816   1.336 -0.9298  1.8536  0.4646
  772TIP3   OH223874   2.756   2.524   1.916 -0.2023  0.4942  0.4622
  772TIP3    H123875   2.678   2.493   1.963  0.9654 -2.0133  0.8972
  772TIP3    H223876   2.769   2.460   1.846  0.0873  2.2709 -1.2318
  773TIP3   OH223877   1.400   2.283   1.475 -0.0654  0.0097  0.0215
  773TIP3    H123878   1.314   2.296   1.514 -0.4352 -1.7577 -0.1574
  773TIP3    H223879   1.461   2.285   1.549 -0.4047 -0.0506  0.3017
  774TIP3   OH223880   1.727   3.917   1.393  0.4344  0.1299 -0.1758
  774TIP3    H123881   1.681   3.925   1.309 -0.7568  2.3630  0.6033
  774TIP3    H223882   1.695   3.834   1.429 -1.3943  0.5846 -0.6232
  775TIP3   OH223883   2.068   3.561   0.309  0.0135 -0.3226  0.6402
  775TIP3    H123884   2.073   3.526   0.397  0.5146 -0.0589  0.7207
  775TIP3    H223885   2.053   3.655   0.321 -1.0551 -0.4504  0.4305
  776TIP3   OH223886   2.046   5.633   2.235  0.0728 -0.2120 -0.0634
  776TIP3    H123887   2.101   5.583   2.174  1.0748 -2.1130  2.2448
  776TIP3    H223888   2.077   5.723   2.225 -0.4888 -0.2586 -3.0051
  777TIP3   OH223889   3.923   0.669   0.260  0.0179  0.4853  0.2487
  777TIP3    H123890   3.931   0.764   0.273 -3.0288  0.9768 -0.5888
  777TIP3    H223891   3.853   0.660   0.195 -0.3401 -2.3467  0.9049
  778TIP3   OH223892   6.233   6.107   0.605 -0.0765  0.0378 -0.1870
  778TIP3    H123893   6.161   6.113   0.667 -1.7786 -0.4760 -2.0093
  778TIP3    H223894   6.278   6.027   0.629 -0.3087  0.1711  0.7550
  779TIP3   OH223895   2.361   1.246   8.450 -0.1681  0.3214  0.4380
  779TIP3    H123896   2.383   1.207   8.365  0.0341  0.4243  0.4437
  779TIP3    H223897   2.401   1.333   8.448 -0.7386  0.5847  0.3696
  780TIP3   OH223898   4.240   2.564   7.695  0.0546 -0.2767 -0.0724
  780TIP3    H123899   4.289   2.515   7.761  0.2042 -1.2201 -0.8458
  780TIP3    H223900   4.151   2.567   7.729  0.1925 -0.4876  0.3184
  781TIP3   OH223901   5.119   1.348   8.019  0.1161  0.4391  0.4625
  781TIP3    H123902   5.119   1.406   7.943 -2.5138  0.7230  0.5927
  781TIP3    H223903   5.191   1.381   8.073  0.3139  1.9704 -0.6536
  782TIP3   OH223904   6.724   5.147   2.353 -0.6250 -0.1961 -0.0452
  782TIP3    H123905   6.711   5.053   2.363  1.2383 -0.3915  0.8572
  782TIP3    H223906   6.694   5.184   2.435 -2.1488  0.1283 -0.7119
  783TIP3   OH223907   0.943   6.157   0.194 -0.3540  0.1178  0.2550
  783TIP3    H123908   0.894   6.195   0.120  1.2372 -0.2075 -1.0203
  783TIP3    H223909   0.882   6.162   0.267 -1.2494  2.4888 -0.5379
  784TIP3   OH223910   4.585   2.293   7.537 -0.0922  0.7421 -0.7910
  784TIP3    H123911   4.534   2.223   7.496 -0.5261  0.6031 -0.0327
  784TIP3    H223912   4.607   2.259   7.624 -1.3112  1.9863  0.0426
  785TIP3   OH223913   2.408   3.583   0.584 -1.0755 -0.0350  0.1524
  785TIP3    H123914   2.501   3.570   0.602 -1.5860 -1.2602  2.2370
  785TIP3    H223915   2.405   3.657   0.524  1.2050  0.3953  0.4989
  786TIP3   OH223916   5.005   5.985   7.372  0.3548  0.7559  0.0031
  786TIP3    H123917   4.974   6.024   7.454  1.3714  1.9387 -0.1508
  786TIP3    H223918   5.077   5.928   7.399 -0.5061 -0.2998  0.1197
  787TIP3   OH223919   1.438   0.070   1.938  0.4475 -0.3554 -0.3605
  787TIP3    H123920   1.361   0.033   1.895  0.8298 -2.3057  0.5214
  787TIP3    H223921   1.476  -0.003   1.988  1.4662  1.1598  1.2215
  788TIP3   OH223922   5.042   0.047   7.481 -0.4312  0.3748 -0.1721
  788TIP3    H123923   4.977   0.117   7.471 -1.1292  0.1306  2.0321
  788TIP3    H223924   5.012  -0.003   7.557  2.0923 -0.0228  0.6724
  789TIP3   OH223925   6.462   2.284   1.472  0.2208  0.3446 -0.1347
  789TIP3    H123926   6.497   2.357   1.422  0.5690  0.7337  0.6693
  789TIP3    H223927   6.395   2.246   1.415 -0.3708  1.6396 -0.3130
  790TIP3   OH223928   4.415   4.525   1.102  0.0645 -0.5324  0.5683
  790TIP3    H123929   4.414   4.450   1.163 -2.7272 -2.0772 -1.1536
  790TIP3    H223930   4.395   4.486   1.017  0.6497  1.9701 -0.7908
  791TIP3   OH223931   4.891   0.640   7.014  0.5157  0.6160  0.3030
  791TIP3    H123932   4.802   0.618   7.039  0.7609  0.5282  1.1193
  791TIP3    H223933   4.894   0.736   7.014  0.8881  0.6384  2.0560
  792TIP3   OH223934   4.500   5.320   1.235 -0.1789  0.2917 -0.1803
  792TIP3    H123935   4.433   5.353   1.294  1.0781  1.8974  0.4489
  792TIP3    H223936   4.520   5.232   1.267 -0.5205  0.6045  0.9210
  793TIP3   OH223937   2.645   2.360   0.057 -0.2167  0.2093  0.7317
  793TIP3    H123938   2.636   2.388  -0.034 -0.0409 -0.6924  0.4272
  793TIP3    H223939   2.594   2.279   0.063  1.3201 -0.7971  0.9225
  794TIP3   OH223940   3.270   0.291   2.741  0.0668  0.1129 -0.4798
  794TIP3    H123941   3.303   0.204   2.717 -0.0564  0.3840 -1.6786
  794TIP3    H223942   3.349   0.340   2.764  0.2816  0.0582 -1.0633
  795TIP3   OH223943   1.544   5.819   8.302  0.2378  0.0669  0.2988
  795TIP3    H123944   1.544   5.770   8.384  1.1999 -0.8573 -0.2106
  795TIP3    H223945   1.612   5.886   8.314 -0.3516  0.6063  0.6270
  796TIP3   OH223946   2.778   0.158   0.507  0.0993  0.3777 -0.3515
  796TIP3    H123947   2.872   0.150   0.494  0.3355  0.3707  1.1152
  796TIP3    H223948   2.745   0.068   0.504  0.1173  0.3890 -0.9633
  797TIP3   OH223949   5.544   6.537   2.096 -0.1936  0.3479  0.6984
  797TIP3    H123950   5.518   6.534   2.189  0.4217  0.2744  0.8709
  797TIP3    H223951   5.594   6.619   2.089  1.1635 -0.4365  0.8126
  798TIP3   OH223952   1.208   4.812   1.358  0.4963 -0.1039  0.1622
  798TIP3    H123953   1.201   4.878   1.426  0.7532 -1.1007  1.1843
  798TIP3    H223954   1.287   4.762   1.381  0.7000 -0.3421 -0.9724
  799TIP3   OH223955   3.364   6.909   0.666 -0.6125 -0.3559 -0.0728
  799TIP3    H123956   3.419   6.983   0.691  1.5666 -2.1296  0.7480
  799TIP3    H223957   3.337   6.927   0.576 -0.6476  1.6741  0.3089
  800TIP3   OH223958   1.755   6.673   0.230 -0.1887  0.2856  0.5006
  800TIP3    H123959   1.744   6.579   0.246  0.8314  0.1752  0.6198
  800TIP3    H223960   1.752   6.713   0.317  1.5045  0.1082  0.6794
  801TIP3   OH223961   0.129   0.500   2.202  0.2116 -0.7610 -0.1497
  801TIP3    H123962   0.223   0.496   2.220 -0.1445 -2.1496  1.6902
  801TIP3    H223963   0.088   0.497   2.288 -1.5442 -1.4786 -0.9577
  802TIP3   OH223964   4.486   2.330   0.908 -0.3075  0.0471  0.2766
  802TIP3    H123965   4.520   2.314   0.996 -0.3978  0.3703  0.3730
  802TIP3    H223966   4.468   2.425   0.906  0.1694  0.1330 -0.2543
  803TIP3   OH223967   2.420   2.806   7.679  0.4858  0.2832 -0.1946
  803TIP3    H123968   2.485   2.875   7.665  0.3289  0.9273  1.8060
  803TIP3    H223969   2.341   2.853   7.708  0.1786 -0.6775  0.6070
  804TIP3   OH223970   4.939   5.052   1.702  0.1805 -0.1149  0.2333
  804TIP3    H123971   4.992   4.983   1.661 -1.0293 -0.4310 -0.8601
  804TIP3    H223972   4.901   5.100   1.628  0.4970  1.3414  0.9816
  805TIP3   OH223973   4.566   4.251   7.262 -0.5013  0.8243  0.2774
  805TIP3    H123974   4.589   4.228   7.172  0.0835 -1.3139  0.9186
  805TIP3    H223975   4.609   4.335   7.277 -1.4036  1.7122 -1.7090
  806TIP3   OH223976   4.939   5.409   6.492 -0.3939  0.4677  0.3641
  806TIP3    H123977   4.973   5.468   6.425  0.3191  0.5894  0.8296
  806TIP3    H223978   5.012   5.351   6.513 -1.0333 -0.5016  0.0153
  807TIP3   OH223979   4.493   6.721   1.913  0.2006  0.6260 -0.3833
  807TIP3    H123980   4.428   6.667   1.958 -0.5016  1.8217  0.0647
  807TIP3    H223981   4.488   6.692   1.821 -3.0013  2.5008 -0.9717
  808TIP3   OH223982   4.986   3.474   7.363  0.1856  0.5603 -0.0009
  808TIP3    H123983   5.008   3.453   7.454 -0.4363  1.7957  0.4521
  808TIP3    H223984   5.057   3.435   7.312  1.0914  0.7234  1.0895
  809TIP3   OH223985   5.518   3.404   0.959 -0.4232  0.0039  0.4560
  809TIP3    H123986   5.481   3.341   0.897 -1.1023  0.7588  0.0862
  809TIP3    H223987   5.467   3.484   0.946  1.6618  1.2545 -0.4334
  810TIP3   OH223988   3.530   5.626   2.424  0.4114  0.2084 -0.7737
  810TIP3    H123989   3.447   5.609   2.379  0.4975  0.3247 -0.9826
  810TIP3    H223990   3.505   5.663   2.509  0.2300 -0.9037 -0.3371
  811TIP3   OH223991   1.836   3.089   2.059  0.1999 -0.2086  0.0216
  811TIP3    H123992   1.866   2.998   2.054 -0.6845 -0.7097  2.4285
  811TIP3    H223993   1.892   3.129   2.126 -0.6816  0.4582  0.3882
  812TIP3   OH223994   6.632   6.005   8.038  0.1552  0.3011  0.4430
  812TIP3    H123995   6.681   5.968   7.964 -0.6020 -1.9903  0.9944
  812TIP3    H223996   6.652   6.098   8.036 -0.8416  0.6230 -3.4753
  813TIP3   OH223997   0.458   3.926   8.259  0.1410  0.6024 -0.9992
  813TIP3    H123998   0.488   3.853   8.204 -0.2781  0.6360 -1.2784
  813TIP3    H223999   0.435   3.995   8.196  0.2891  0.8802 -0.7485
  814TIP3   OH224000   3.206   4.045   7.631 -0.0339 -0.3465 -0.4427
  814TIP3    H124001   3.283   4.002   7.593  0.1539 -0.8546  0.4763
  814TIP3    H224002   3.235   4.074   7.717 -0.9853 -0.9284  0.0974
  815TIP3   OH224003   3.785   5.384   0.294 -0.1263  0.6124  0.5335
  815TIP3    H124004   3.721   5.432   0.346  0.0188  0.6757  0.6538
  815TIP3    H224005   3.741   5.367   0.210 -0.8612 -0.6695  1.1518
  816TIP3   OH224006   0.587   2.636   1.300  0.2795 -0.5783 -0.5878
  816TIP3    H124007   0.645   2.570   1.338 -1.2827 -0.6809  1.8753
  816TIP3    H224008   0.645   2.697   1.255  2.0232 -2.0480 -0.4505
  817TIP3   OH224009   3.900   5.437   1.796 -0.2379 -0.5222 -0.4880
  817TIP3    H124010   3.908   5.520   1.749  0.7587 -0.5654 -0.4152
  817TIP3    H224011   3.948   5.450   1.877  0.6807 -1.4355 -0.8538
  818TIP3   OH224012   5.179   6.631   1.073 -0.4285  0.0966  0.1833
  818TIP3    H124013   5.089   6.649   1.101 -0.5353  0.2741 -0.2695
  818TIP3    H224014   5.218   6.717   1.060  0.2029  0.0548  1.5764
  819TIP3   OH224015   3.005   1.455   2.265  0.3304 -0.0221  0.3049
  819TIP3    H124016   2.925   1.405   2.277  0.6947 -0.5547  0.6045
  819TIP3    H224017   2.980   1.546   2.281 -0.6304  0.0841 -1.5440
  820TIP3   OH224018   1.710   6.692   8.252  0.0826  0.0472  0.3382
  820TIP3    H124019   1.749   6.761   8.305  1.4281 -0.2676 -0.2133
  820TIP3    H224020   1.631   6.666   8.300 -0.4408  1.9396  0.5647
  821TIP3   OH224021   1.503   5.950   0.782 -0.6404  0.3637 -0.7364
  821TIP3    H124022   1.427   5.937   0.724  0.2400  1.4355 -2.1982
  821TIP3    H224023   1.577   5.914   0.733 -0.2601 -1.4462  1.0263
  822TIP3   OH224024   1.263   3.669   1.974  0.3282 -0.1746  0.1489
  822TIP3    H124025   1.275   3.711   2.059  0.8598 -0.2093  0.0902
  822TIP3    H224026   1.184   3.710   1.938  0.6123  0.4831  0.2620
  823TIP3   OH224027   6.566   0.633   7.489 -0.2453 -0.1379 -0.3391
  823TIP3    H124028   6.534   0.638   7.580  1.4285 -0.9480  0.3347
  823TIP3    H224029   6.611   0.549   7.484 -0.5205 -0.2206 -2.0263
  824TIP3   OH224030   4.511   0.323   0.841 -0.1848 -0.3750 -0.4463
  824TIP3    H124031   4.537   0.314   0.933 -1.1090 -1.5959 -0.2814
  824TIP3    H224032   4.503   0.233   0.809 -3.7796 -0.1334 -0.5923
  825TIP3   OH224033   4.857   5.694   1.271  0.6466  0.1512  0.8724
  825TIP3    H124034   4.952   5.681   1.276  0.8959  1.1045 -0.6770
  825TIP3    H224035   4.820   5.608   1.287  1.8761 -0.7135 -0.6621
  826TIP3   OH224036   1.043   4.714   1.167 -0.8580 -0.0836 -0.2037
  826TIP3    H124037   0.983   4.787   1.149  0.0142  0.9252  0.8635
  826TIP3    H224038   1.102   4.747   1.235 -0.1696 -1.6477  0.0009
  827TIP3   OH224039   0.278   6.627   7.618 -0.5353  0.3893 -0.2237
  827TIP3    H124040   0.192   6.613   7.578 -1.4057  1.3363  1.2355
  827TIP3    H224041   0.339   6.625   7.544 -1.4354 -2.8967 -1.0705
  828TIP3   OH224042   2.694   1.963   1.843  0.0074  0.0014  0.4661
  828TIP3    H124043   2.729   1.950   1.755 -2.3354 -0.9018 -0.4283
  828TIP3    H224044   2.684   2.058   1.851  0.1438  0.0857 -0.2900
  829TIP3   OH224045   5.749   0.725   7.679  0.5115 -0.2757  0.0388
  829TIP3    H124046   5.820   0.668   7.648  2.1745  1.2923  0.7542
  829TIP3    H224047   5.733   0.696   7.769 -1.5571 -2.2343 -0.8669
  830TIP3   OH224048   4.699   5.211   7.053  0.5462  0.1960  0.3654
  830TIP3    H124049   4.684   5.199   6.959 -0.2013 -0.3252  0.5427
  830TIP3    H224050   4.672   5.302   7.070  1.5325  0.5927 -0.0710
  831TIP3   OH224051   6.679   0.885   1.574 -0.4880  0.0220  0.1453
  831TIP3    H124052   6.691   0.853   1.664 -1.9232 -2.2775 -0.3979
  831TIP3    H224053   6.748   0.950   1.563  0.7670 -0.8053  2.3652
  832TIP3   OH224054   5.439   6.206   0.481 -0.1033 -0.3425  0.1800
  832TIP3    H124055   5.368   6.175   0.426  0.2878 -0.1460 -0.4552
  832TIP3    H224056   5.512   6.219   0.421 -0.0130  1.0176  0.5389
  833TIP3   OH224057   1.794   5.977   7.394 -0.9508 -0.7122  0.5846
  833TIP3    H124058   1.843   6.057   7.409  3.1348 -2.2820 -2.5002
  833TIP3    H224059   1.821   5.918   7.465  0.5591 -1.0348 -0.2072
  834TIP3   OH224060   0.956   2.633   0.266  0.3945  0.0524  0.2998
  834TIP3    H124061   0.965   2.539   0.278 -0.0947 -0.4073 -2.4746
  834TIP3    H224062   1.046   2.664   0.251  0.2859 -0.4473 -1.5461
  835TIP3   OH224063   3.818   0.277   2.252 -0.5633 -0.0993  0.1256
  835TIP3    H124064   3.879   0.247   2.319  0.3483  0.3879 -0.4794
  835TIP3    H224065   3.762   0.340   2.297  0.5304  0.8032  0.2507
  836TIP3   OH224066   5.217   1.087   1.890  1.1058  0.1928 -0.1175
  836TIP3    H124067   5.296   1.058   1.844  0.7906 -0.4214 -0.2821
  836TIP3    H224068   5.145   1.048   1.841  0.6754  1.0858 -0.2073
  837TIP3   OH224069   1.538   4.288   7.089  0.2474 -0.3859  0.1604
  837TIP3    H124070   1.583   4.263   7.169  0.6343 -1.8155 -0.4666
  837TIP3    H224071   1.501   4.374   7.108  0.4675 -0.6198  1.8095
  838TIP3   OH224072   2.459   6.075   1.501 -0.2503 -0.0176  0.7956
  838TIP3    H124073   2.395   6.009   1.477  1.4648 -0.9493 -1.5750
  838TIP3    H224074   2.544   6.034   1.484  0.9141  2.9388 -1.5221
  839TIP3   OH224075   3.536   6.033   8.220 -0.6100  0.2045 -0.0374
  839TIP3    H124076   3.446   6.026   8.189 -0.5397  0.0749 -0.2090
  839TIP3    H224077   3.557   5.946   8.253 -0.8390  0.4531  0.7923
  840TIP3   OH224078   4.876   2.758   0.244 -0.4681  0.7204  0.3131
  840TIP3    H124079   4.829   2.790   0.320 -0.5690 -0.8479  0.9492
  840TIP3    H224080   4.825   2.789   0.169 -0.8879  1.4828  0.9050
  841TIP3   OH224081   1.110   6.672   1.195 -0.0368  0.1635 -0.2125
  841TIP3    H124082   1.132   6.608   1.263  0.6173  1.5114  0.8707
  841TIP3    H224083   1.015   6.682   1.203  0.0127  0.2012  0.4063
  842TIP3   OH224084   3.375   3.964   8.023  0.4195 -0.0347 -0.3169
  842TIP3    H124085   3.392   4.028   7.954  2.2452 -1.9230 -1.7759
  842TIP3    H224086   3.293   3.922   7.997  1.1588 -0.8215 -1.4856
  843TIP3   OH224087   0.920   0.374   0.012 -0.2679  0.2214 -0.0243
  843TIP3    H124088   0.899   0.310  -0.056 -0.1535 -1.7733  1.6983
  843TIP3    H224089   1.002   0.413  -0.016 -0.3012 -0.4322 -1.0896
  844TIP3   OH224090   5.687   3.425   7.156 -0.1095  0.3390  0.4645
  844TIP3    H124091   5.593   3.405   7.157  0.3485 -2.1738  0.0523
  844TIP3    H224092   5.713   3.420   7.248 -0.1854 -0.0773  0.4653
  845TIP3   OH224093   6.171   4.738   7.945  0.3214 -0.4515 -0.3999
  845TIP3    H124094   6.091   4.792   7.946 -0.5408 -1.6497 -1.7983
  845TIP3    H224095   6.224   4.774   8.016 -1.5497  0.2508  0.7233
  846TIP3   OH224096   2.771   5.092   1.080 -0.6892  0.0884 -0.2765
  846TIP3    H124097   2.729   5.040   1.012  2.1101 -1.7419 -0.7709
  846TIP3    H224098   2.748   5.048   1.162 -1.7921  0.6592 -0.2579
  847TIP3   OH224099   6.519   0.925   7.758 -0.5054  0.3907 -0.6055
  847TIP3    H124100   6.424   0.922   7.746 -0.8165  0.3809  1.4848
  847TIP3    H224101   6.541   1.018   7.748 -1.1159  0.7603  1.1598
  848TIP3   OH224102   6.260   6.161   7.445  0.0591  0.3470  0.2094
  848TIP3    H124103   6.170   6.184   7.470 -0.6868 -0.7027 -1.3032
  848TIP3    H224104   6.249   6.086   7.386  1.8149  1.0812 -1.1448
  849TIP3   OH224105   6.115   0.752   1.194  0.1328  0.0168 -0.4762
  849TIP3    H124106   6.175   0.716   1.259 -1.4242 -1.5888  0.1748
  849TIP3    H224107   6.073   0.825   1.239  1.1107  0.7348 -0.7089
  850TIP3   OH224108   0.878   4.654   2.300  1.3097 -0.0349 -0.1306
  850TIP3    H124109   0.936   4.719   2.260  1.6608  0.0476  0.5003
  850TIP3    H224110   0.937   4.585   2.330  0.8639 -1.1304 -1.6519
  851TIP3   OH224111   0.720   1.748   1.240 -0.3297 -0.7989  0.2634
  851TIP3    H124112   0.738   1.726   1.149  1.2773 -1.0150  0.5964
  851TIP3    H224113   0.806   1.769   1.277 -0.6035 -2.8076  2.2709
  852TIP3   OH224114   3.942   2.647   7.067  0.0502  0.1115 -0.0606
  852TIP3    H124115   3.926   2.576   7.005 -1.8688  1.7511 -1.5994
  852TIP3    H224116   4.023   2.688   7.037 -1.0395  1.1076 -1.8204
  853TIP3   OH224117   5.305   6.880   2.522  0.4990 -0.1037  0.0107
  853TIP3    H124118   5.285   6.928   2.603 -1.4834 -0.3920 -0.2488
  853TIP3    H224119   5.338   6.796   2.552  0.2063 -0.0402  0.5318
  854TIP3   OH224120   1.489   2.947   0.763 -0.3237  0.0039  0.2438
  854TIP3    H124121   1.441   2.916   0.685  1.9176 -0.2704 -1.0993
  854TIP3    H224122   1.580   2.926   0.745  0.3443  0.5057  2.7223
  855TIP3   OH224123   2.026   1.396   8.286  0.9665 -0.4422  0.7216
  855TIP3    H124124   2.058   1.352   8.365  0.7553  1.0077  1.6625
  855TIP3    H224125   2.105   1.428   8.243  1.1230 -1.7785  0.0003
  856TIP3   OH224126   3.043   1.262   0.488 -0.5059 -0.2933 -0.2983
  856TIP3    H124127   3.037   1.320   0.413  1.1098 -0.8253 -0.8829
  856TIP3    H224128   3.134   1.234   0.490 -0.7279 -1.0522  1.2988
  857TIP3   OH224129   6.801   2.995   2.583 -0.5204 -0.1749 -0.0659
  857TIP3    H124130   6.791   3.045   2.664 -1.6817 -1.0591  0.3744
  857TIP3    H224131   6.765   2.908   2.604 -0.0540 -0.6877 -1.2752
  858TIP3   OH224132   3.623   1.496   7.688  0.2890  0.4772  0.4194
  858TIP3    H124133   3.535   1.485   7.652 -1.3058 -0.0290  4.0169
  858TIP3    H224134   3.640   1.590   7.680 -0.5315  0.5790 -0.3645
  859TIP3   OH224135   6.111   5.668   7.695 -0.2751  0.0758 -0.1471
  859TIP3    H124136   6.143   5.661   7.785 -0.2295 -0.1526 -0.1815
  859TIP3    H224137   6.102   5.577   7.665 -2.5232  0.0294  0.4257
  860TIP3   OH224138   4.556   6.701   1.280  0.2128  0.2103 -0.1162
  860TIP3    H124139   4.469   6.684   1.318  0.4600 -2.1108 -0.4715
  860TIP3    H224140   4.616   6.695   1.354  0.3266 -0.8021 -0.2818
  861TIP3   OH224141   5.948   5.701   0.684  0.1727  0.0876  0.2974
  861TIP3    H124142   5.943   5.665   0.773  0.9219 -1.2024 -0.1389
  861TIP3    H224143   6.020   5.652   0.643  1.2088  2.0791 -0.3976
  862TIP3   OH224144   1.146   1.373   0.627 -0.2344  0.3517  0.1407
  862TIP3    H124145   1.145   1.458   0.670  1.3381  1.2983 -1.5815
  862TIP3    H224146   1.123   1.391   0.536 -0.5801 -1.1702 -0.1002
  863TIP3   OH224147   3.038   2.814   8.419  0.3301 -0.1492  0.9474
  863TIP3    H124148   3.042   2.894   8.366  0.9988 -0.5111  0.4279
  863TIP3    H224149   3.106   2.758   8.382  0.1998 -0.7685  1.6235
  864TIP3   OH224150   1.906   1.338   7.107 -0.4768  0.4467 -0.5470
  864TIP3    H124151   1.873   1.289   7.032 -0.6122  0.1091 -0.2748
  864TIP3    H224152   1.896   1.277   7.181  2.1804 -0.2515 -0.6899
  865TIP3   OH224153   1.431   0.371   2.926  0.0884  0.2102 -0.5027
  865TIP3    H124154   1.507   0.314   2.919 -0.0574 -0.6889  3.0024
  865TIP3    H224155   1.357   0.316   2.901  0.2158 -0.3633  0.3267
  866TIP3   OH224156   2.689   1.460   0.183  0.4806 -0.3692  0.0674
  866TIP3    H124157   2.777   1.423   0.185 -0.2875 -2.5014 -1.4279
  866TIP3    H224158   2.632   1.387   0.210 -0.9149  0.5570 -0.2827
  867TIP3   OH224159   4.240   0.625   6.803  0.0136 -0.0049 -0.4054
  867TIP3    H124160   4.264   0.606   6.713 -0.1466  1.0803 -0.6941
  867TIP3    H224161   4.196   0.546   6.834  1.2827 -0.9050 -0.8271
  868TIP3   OH224162   1.271   6.644   7.558 -0.3686  0.2982  0.0299
  868TIP3    H124163   1.294   6.652   7.465 -0.9040  0.1167 -0.1213
  868TIP3    H224164   1.343   6.688   7.604  0.8362 -1.1459 -0.3746
  869TIP3   OH224165   6.589   5.463   0.572  0.3964 -0.2568 -0.0559
  869TIP3    H124166   6.624   5.426   0.654  2.3786 -3.1167 -1.9925
  869TIP3    H224167   6.659   5.521   0.541 -0.9394  1.9597  0.8508
  870TIP3   OH224168   0.440   5.811   3.453  0.2901  0.4261  0.5504
  870TIP3    H124169   0.399   5.881   3.504 -3.9448 -0.7822 -0.7388
  870TIP3    H224170   0.445   5.847   3.364 -0.9367 -0.4800  0.0908
  871TIP3   OH224171   1.430   5.184   7.356 -0.0913 -0.1695 -0.6255
  871TIP3    H124172   1.391   5.163   7.441 -0.9432  1.0722 -0.6953
  871TIP3    H224173   1.362   5.164   7.292  0.1985 -0.1464 -0.9464
  872TIP3   OH224174   4.487   3.837   8.289  0.2411 -0.0026 -0.1225
  872TIP3    H124175   4.533   3.920   8.273  0.6219 -0.1575  0.1402
  872TIP3    H224176   4.532   3.799   8.365  1.0860 -1.1734 -1.1529
  873TIP3   OH224177   5.048   0.263   7.678 -0.2818  0.0202 -0.4302
  873TIP3    H124178   5.072   0.331   7.615 -0.7529 -1.8726 -2.8071
  873TIP3    H224179   4.966   0.227   7.644 -0.2083 -1.5133  0.9004
  874TIP3   OH224180   1.296   0.925   8.437  0.1810  0.0563 -0.0983
  874TIP3    H124181   1.230   0.921   8.507 -0.4757  0.8646 -0.6466
  874TIP3    H224182   1.379   0.906   8.481  0.0393  2.2043  1.2954
  875TIP3   OH224183   5.138   0.601   0.302 -0.5896 -0.4773  0.2127
  875TIP3    H124184   5.186   0.683   0.315  0.1515 -0.7068 -0.9554
  875TIP3    H224185   5.105   0.580   0.389 -1.3650  1.3941  0.4349
  876TIP3   OH224186   5.207   2.208   1.684  0.2147  0.2105  0.5169
  876TIP3    H124187   5.286   2.257   1.707  0.5636 -0.5219  0.9378
  876TIP3    H224188   5.234   2.155   1.609 -0.1633  0.6683  0.0545
  877TIP3   OH224189   5.763   6.591   0.528 -0.0408 -0.1094  0.0461
  877TIP3    H124190   5.697   6.621   0.466  1.2744  3.4109  0.1338
  877TIP3    H224191   5.736   6.629   0.612  1.3542  0.3054  0.3349
  878TIP3   OH224192   4.418   2.073   7.425 -0.5411 -0.2422  0.1584
  878TIP3    H124193   4.340   2.066   7.481 -0.1974  0.0907  0.6877
  878TIP3    H224194   4.456   1.985   7.425  0.5138  0.1598  2.0123
  879TIP3   OH224195   3.053   4.126   2.010 -0.1055  0.4171  0.6566
  879TIP3    H124196   3.080   4.209   1.970 -0.5731  2.3197  3.9351
  879TIP3    H224197   2.957   4.125   2.000 -0.1195  0.3903  0.7917
  880TIP3   OH224198   5.426   5.224   7.801  0.3552 -0.4372 -0.4454
  880TIP3    H124199   5.515   5.194   7.822  0.0641 -0.9512  0.0855
  880TIP3    H224200   5.385   5.240   7.886 -0.7510 -2.2505 -0.5887
  881TIP3   OH224201   3.691   6.619   2.747  0.2996 -0.0432 -0.2760
  881TIP3    H124202   3.640   6.667   2.681  0.9339 -0.7511 -1.3028
  881TIP3    H224203   3.755   6.683   2.779  1.4490 -0.2702 -1.9736
  882TIP3   OH224204   2.970   3.718   1.350 -0.4499 -0.1940  0.1406
  882TIP3    H124205   2.974   3.662   1.273  1.7943 -1.1601  0.8920
  882TIP3    H224206   2.936   3.662   1.419 -0.3854  0.0419  0.3652
  883TIP3   OH224207   0.066   3.249   2.252 -0.0967  0.3627  0.4769
  883TIP3    H124208   0.132   3.184   2.230 -1.8625 -1.4700  0.3025
  883TIP3    H224209   0.110   3.333   2.240  1.0915 -0.6331 -3.3694
  884TIP3   OH224210   4.789   5.251   0.191  0.2131  0.2890  0.6057
  884TIP3    H124211   4.816   5.203   0.113 -0.8492  0.4754  0.1087
  884TIP3    H224212   4.866   5.303   0.215  0.7009 -0.1301 -0.0397
  885TIP3   OH224213   3.550   4.597   8.492 -0.0260 -0.6078  0.6665
  885TIP3    H124214   3.580   4.674   8.541 -1.8046 -0.1426  1.1032
  885TIP3    H224215   3.565   4.620   8.400 -1.6889  0.8296  0.7072
  886TIP3   OH224216   4.808   1.975   8.277  0.3899 -0.0665 -0.3691
  886TIP3    H124217   4.721   2.009   8.298  0.3473 -1.1507  1.3523
  886TIP3    H224218   4.798   1.880   8.277  1.2800 -0.1861 -1.5887
  887TIP3   OH224219   2.437   3.841   0.432 -0.4511  0.5353 -0.0853
  887TIP3    H124220   2.411   3.932   0.417 -1.0553  0.3262 -0.3501
  887TIP3    H224221   2.481   3.816   0.351 -1.7948  0.0757 -0.6995
  888TIP3   OH224222   2.118   6.559   8.378  0.3287  0.3864 -0.2483
  888TIP3    H124223   2.061   6.516   8.315  1.1890 -1.9248  0.4442
  888TIP3    H224224   2.084   6.532   8.463  2.1079 -0.6781  0.1763
  889TIP3   OH224225   1.421   2.386   7.209  0.0025 -0.8661 -0.3149
  889TIP3    H124226   1.406   2.291   7.212 -0.4832 -0.7962 -0.3878
  889TIP3    H224227   1.339   2.422   7.174 -0.2041 -0.3355  0.6578
  890TIP3   OH224228   0.286   3.250   7.889 -0.1807  0.0710 -1.0060
  890TIP3    H124229   0.326   3.192   7.954  0.4901  0.6900 -0.8509
  890TIP3    H224230   0.347   3.250   7.816  0.2023  1.1267 -0.7168
  891TIP3   OH224231   3.211   0.152   1.290 -0.3769  0.2486  0.7982
  891TIP3    H124232   3.211   0.226   1.230 -0.9162 -0.2171  0.2128
  891TIP3    H224233   3.271   0.089   1.251 -2.2383 -0.8942 -0.3401
  892TIP3   OH224234   5.524   2.290   2.301 -0.0840 -0.4492  0.2341
  892TIP3    H124235   5.548   2.297   2.209 -0.3768  0.5618  0.2208
  892TIP3    H224236   5.558   2.371   2.341 -0.8682 -0.3772  0.7954
  893TIP3   OH224237   5.956   4.795   0.209  0.0318 -0.1709  0.2241
  893TIP3    H124238   5.893   4.864   0.188 -1.0049 -0.6946  1.4853
  893TIP3    H224239   5.958   4.740   0.130  0.0561  0.6902 -0.3861
  894TIP3   OH224240   6.575   3.913   1.816 -0.0006 -0.2267 -0.2906
  894TIP3    H124241   6.646   3.975   1.833 -0.4842  0.1565  0.3520
  894TIP3    H224242   6.538   3.942   1.732  0.7572 -0.5834 -0.7581
  895TIP3   OH224243   0.295   2.209   7.810  0.0764 -0.1836  0.1275
  895TIP3    H124244   0.358   2.269   7.851  1.2186 -0.1069 -1.6466
  895TIP3    H224245   0.256   2.261   7.740  0.5047 -1.2413 -0.9244
  896TIP3   OH224246   6.108   1.940   1.184 -0.3530  0.4644  0.4650
  896TIP3    H124247   6.112   1.859   1.235  0.9652  0.6759  0.7375
  896TIP3    H224248   6.175   1.996   1.223 -0.4511  1.2540 -0.4619
  897TIP3   OH224249   5.433   2.591   7.945 -0.0959 -0.1048 -0.4311
  897TIP3    H124250   5.421   2.638   8.028 -1.0307  0.6833 -0.9922
  897TIP3    H224251   5.424   2.499   7.969 -1.7475  0.1725  0.1461
  898TIP3   OH224252   1.469   0.333   2.041  0.0098 -0.4760  0.1298
  898TIP3    H124253   1.435   0.391   1.973 -0.6533  0.2314  1.0344
  898TIP3    H224254   1.419   0.252   2.031 -0.1639 -0.3356 -0.1603
  899TIP3   OH224255   4.481   3.106   7.696 -0.0051 -0.0152  0.1667
  899TIP3    H124256   4.469   3.142   7.784  0.9132 -0.9396  0.7086
  899TIP3    H224257   4.464   3.012   7.707 -1.5342  0.0935 -1.0175
  900TIP3   OH224258   5.867   0.422   0.628  0.2709 -0.5081  0.5467
  900TIP3    H124259   5.944   0.398   0.577  0.4391 -1.2022  1.1130
  900TIP3    H224260   5.829   0.496   0.581 -0.4434 -2.0588 -1.4358
  901TIP3   OH224261   3.105   1.136   1.247 -0.4901 -0.0820  0.1291
  901TIP3    H124262   3.127   1.209   1.305 -1.3869  0.3863 -0.1005
  901TIP3    H224263   3.010   1.136   1.243 -0.4739 -0.7372 -0.5572
  902TIP3   OH224264   6.305   3.594   7.922  0.0850  0.0943  0.1466
  902TIP3    H124265   6.351   3.667   7.962  0.0756 -0.6010  1.4857
  902TIP3    H224266   6.227   3.633   7.882  1.4015  1.1594 -1.4681
  903TIP3   OH224267   3.296   0.369   0.769 -0.2269  0.1891  0.6478
  903TIP3    H124268   3.391   0.381   0.763  0.0848 -0.9106  2.6246
  903TIP3    H224269   3.265   0.445   0.820 -0.3357  0.2566  0.4825
  904TIP3   OH224270   6.692   3.149   8.558 -0.3095  0.6079  0.4568
  904TIP3    H124271   6.598   3.134   8.558 -0.0679 -1.1573 -0.6103
  904TIP3    H224272   6.714   3.168   8.467  0.6188 -0.9493  0.3236
  905TIP3   OH224273   2.470   5.470   8.449  0.2446 -0.1193  0.2193
  905TIP3    H124274   2.507   5.541   8.502 -1.6212  0.4853  0.7775
  905TIP3    H224275   2.375   5.483   8.455 -0.0633 -1.0345 -1.9216
  906TIP3   OH224276   5.230   6.888   2.787 -0.4480 -0.1794 -0.0302
  906TIP3    H124277   5.313   6.933   2.776 -0.3160 -0.5718 -0.6756
  906TIP3    H224278   5.186   6.935   2.858 -0.1087  0.6516 -0.3684
  907TIP3   OH224279   3.278   3.406   1.785  0.4635  0.1930  0.5090
  907TIP3    H124280   3.192   3.388   1.823  1.1319 -0.1228  1.9262
  907TIP3    H224281   3.275   3.498   1.761  0.2551  0.6026  2.0282
  908TIP3   OH224282   2.615   2.321   7.887  0.0668 -0.1072  0.1596
  908TIP3    H124283   2.681   2.269   7.933  0.7065 -0.4108 -1.0872
  908TIP3    H224284   2.659   2.352   7.808 -1.1090  0.1850 -0.3962
  909TIP3   OH224285   2.416   4.550   1.638  0.0572 -0.6428  0.2872
  909TIP3    H124286   2.324   4.537   1.661  0.1093 -1.7120 -0.0304
  909TIP3    H224287   2.465   4.513   1.711  0.2903  2.0069  1.5649
  910TIP3   OH224288   0.093   6.064   8.280 -0.1502  0.0622  0.0052
  910TIP3    H124289   0.018   6.044   8.336 -0.5257  1.9943  0.2559
  910TIP3    H224290   0.107   5.984   8.230 -1.4703 -0.8209  0.9804
  911TIP3   OH224291   3.278   5.792   2.286 -0.4811 -0.2737 -0.0287
  911TIP3    H124292   3.267   5.832   2.372  0.3828 -1.4430  0.6556
  911TIP3    H224293   3.317   5.860   2.232  1.1133 -0.2134  1.1462
  912TIP3   OH224294   6.244   4.158   0.055 -0.0491 -0.1911 -0.3267
  912TIP3    H124295   6.318   4.160  -0.005 -0.5053  1.1297 -0.8988
  912TIP3    H224296   6.197   4.078   0.033  1.3945 -1.2392  0.3009
  913TIP3   OH224297   5.169   2.128   6.786 -0.1328  0.3363  0.4358
  913TIP3    H124298   5.114   2.079   6.847  1.8117 -0.4007  1.6742
  913TIP3    H224299   5.238   2.166   6.840  1.7208 -0.4168 -1.2686
  914TIP3   OH224300   0.414   2.294   0.180 -0.3940 -0.5326 -0.3308
  914TIP3    H124301   0.368   2.375   0.199 -0.2179 -0.8322  1.6036
  914TIP3    H224302   0.461   2.273   0.261  0.3498 -2.0534 -1.0980
  915TIP3   OH224303   2.600   1.079   2.368  0.3813 -0.6570 -0.4369
  915TIP3    H124304   2.651   1.001   2.388 -1.0541 -1.6127 -0.3874
  915TIP3    H224305   2.661   1.152   2.382  1.3037 -1.6634  1.0241
  916TIP3   OH224306   4.707   3.522   6.975 -0.1234 -0.2533 -0.1007
  916TIP3    H124307   4.703   3.428   6.957  1.2425 -0.4214  0.3388
  916TIP3    H224308   4.640   3.560   6.919 -0.3011 -1.4329 -0.7281
  917TIP3   OH224309   1.076   0.985   1.506  0.9681  0.2276  0.0688
  917TIP3    H124310   1.065   1.041   1.429  0.3791  0.2120  0.1376
  917TIP3    H224311   1.005   1.010   1.565  1.1000 -0.1259  0.3861
  918TIP3   OH224312   0.456   0.526   1.352 -0.5548  0.1163 -0.0137
  918TIP3    H124313   0.443   0.533   1.446 -1.6948  0.0109 -0.1471
  918TIP3    H224314   0.536   0.575   1.335 -0.4748  0.3467  0.9742
  919TIP3   OH224315   3.628   2.170   8.140  0.2242  0.5004  0.0964
  919TIP3    H124316   3.705   2.124   8.105 -0.3675 -1.1407  0.8565
  919TIP3    H224317   3.660   2.258   8.160  2.3998 -0.5845  1.9231
  920TIP3   OH224318   1.647   4.424   1.595  0.5216 -0.3799  0.1815
  920TIP3    H124319   1.686   4.492   1.650  0.5706  0.6843 -1.1159
  920TIP3    H224320   1.567   4.398   1.640 -1.0043  2.5556 -0.6070
  921TIP3   OH224321   5.653   2.064   1.608  0.1845 -0.9101  0.1240
  921TIP3    H124322   5.639   2.046   1.701 -0.0667  0.3366  0.3453
  921TIP3    H224323   5.707   2.143   1.607 -2.0324  0.7032 -0.7517
  922TIP3   OH224324   3.393   6.316   1.715 -0.0860 -0.8240  0.2007
  922TIP3    H124325   3.305   6.342   1.687  0.2657 -0.7369 -0.8774
  922TIP3    H224326   3.404   6.227   1.679 -0.3875 -1.5534  1.8424
  923TIP3   OH224327   2.996   3.737   7.785 -0.5331 -0.3094 -0.2826
  923TIP3    H124328   3.073   3.680   7.786  0.3242  0.7086 -2.6163
  923TIP3    H224329   2.980   3.754   7.693 -0.7469  3.1718  0.2712
  924TIP3   OH224330   3.053   3.112   7.321  0.0666 -0.6555 -0.0995
  924TIP3    H124331   3.045   3.177   7.391 -2.7962  0.8505 -1.6210
  924TIP3    H224332   3.074   3.030   7.365 -1.5111  0.2484  2.5278
  925TIP3   OH224333   3.824   2.236   1.223 -0.4788  0.4113 -0.0716
  925TIP3    H124334   3.859   2.150   1.244 -2.0665 -0.3064 -0.3111
  925TIP3    H224335   3.758   2.220   1.156 -0.8205  1.8150 -0.1016
  926TIP3   OH224336   2.043   2.270   6.765 -0.1745 -0.3853  0.1083
  926TIP3    H124337   2.011   2.349   6.721 -0.1527  0.2333  1.1953
  926TIP3    H224338   1.974   2.205   6.749 -1.1409  0.4228  0.8848
  927TIP3   OH224339   2.602   0.200   8.410  0.5333 -0.2461  0.4074
  927TIP3    H124340   2.638   0.217   8.497  0.4179  0.6217  0.2889
  927TIP3    H224341   2.553   0.279   8.388  0.0317 -0.7137 -0.1818
  928TIP3   OH224342   4.789   4.404   6.478  0.1280  0.4987 -0.3546
  928TIP3    H124343   4.806   4.311   6.460 -0.3098  0.3296  0.0825
  928TIP3    H224344   4.850   4.451   6.421 -1.1116 -0.0050 -2.1630
  929TIP3   OH224345   6.725   4.642   6.630 -0.2280  0.3586  0.5279
  929TIP3    H124346   6.750   4.705   6.563  1.0868  1.1997  1.7549
  929TIP3    H224347   6.788   4.655   6.701 -0.3788 -1.8150  1.1550
  930TIP3   OH224348   5.499   3.081   1.969  0.3956  0.2016  0.0200
  930TIP3    H124349   5.435   3.149   1.950  3.0460  2.6401 -0.9455
  930TIP3    H224350   5.460   3.029   2.038 -2.8692  1.0717 -1.0047
  931TIP3   OH224351   3.926   3.007   0.491  0.4392  0.4202  0.2457
  931TIP3    H124352   3.866   3.028   0.563 -0.6428 -0.4102 -0.3694
  931TIP3    H224353   3.932   2.911   0.493  1.5077  0.4793  0.0973
  932TIP3   OH224354   4.408   5.598   8.222  0.7709 -0.2102 -0.1984
  932TIP3    H124355   4.389   5.538   8.150  0.2456 -0.2821 -0.0046
  932TIP3    H224356   4.392   5.685   8.186 -0.6531 -0.2999  0.1624
  933TIP3   OH224357   4.283   3.438   7.942  0.5665 -0.5658 -0.7397
  933TIP3    H124358   4.286   3.420   7.848  0.5011 -0.2526 -0.8042
  933TIP3    H224359   4.250   3.527   7.947 -0.7107 -1.0479 -0.3649
  934TIP3   OH224360   1.186   5.447   2.844 -1.4619 -0.2418 -0.2770
  934TIP3    H124361   1.161   5.533   2.877  0.2477  1.3427 -2.7296
  934TIP3    H224362   1.210   5.397   2.922  0.3205  2.5330  1.1307
  935TIP3   OH224363   3.625   3.716   0.940 -0.6170 -0.3339  0.4515
  935TIP3    H124364   3.706   3.761   0.915 -0.5564 -0.8140 -0.2445
  935TIP3    H224365   3.648   3.664   1.016 -0.1867 -0.7030  0.0737
  936TIP3   OH224366   3.374   3.357   8.198  0.2913  0.4885 -0.1236
  936TIP3    H124367   3.455   3.408   8.200  0.2578  0.5346  0.5368
  936TIP3    H224368   3.318   3.400   8.263  0.1206 -0.1559  0.1596
  937TIP3   OH224369   2.555   1.693   1.772 -0.3805  0.3523  0.1100
  937TIP3    H124370   2.580   1.758   1.837  0.4261 -1.5623  1.8552
  937TIP3    H224371   2.635   1.675   1.724  0.4474 -1.8524  2.0776
  938TIP3   OH224372   1.976   3.063   0.721  0.1265  0.6069 -0.1400
  938TIP3    H124373   1.906   3.008   0.685  1.9717 -0.1852 -2.7565
  938TIP3    H224374   1.929   3.131   0.770 -2.4084 -0.6392 -0.6429
  939TIP3   OH224375   5.729   1.085   0.732  0.3397 -0.0032 -0.1622
  939TIP3    H124376   5.680   1.149   0.784 -1.7719 -1.6115 -0.0614
  939TIP3    H224377   5.785   1.039   0.795 -0.6782 -0.5477  0.3550
  940TIP3   OH224378   5.462   2.944   0.585 -0.6005 -0.1903  0.0915
  940TIP3    H124379   5.400   2.998   0.536 -1.3557 -1.4641 -0.3856
  940TIP3    H224380   5.539   2.940   0.529 -0.7255 -0.0287 -0.0949
  941TIP3   OH224381   1.097   0.683   0.525  0.4004 -0.1844 -0.0922
  941TIP3    H124382   1.122   0.596   0.494  1.3767  0.0853 -0.0841
  941TIP3    H224383   1.142   0.693   0.609 -0.8457 -0.2236  0.5963
  942TIP3   OH224384   4.070   1.061   8.338  0.4437 -0.4271 -0.8242
  942TIP3    H124385   4.079   1.125   8.409 -0.0506 -0.9849 -0.2439
  942TIP3    H224386   4.147   1.076   8.283  0.1391  0.9191 -0.9191
  943TIP3   OH224387   1.804   6.763   2.356  0.6228 -0.1793 -0.3468
  943TIP3    H124388   1.806   6.859   2.363 -1.1814 -0.1523  0.3519
  943TIP3    H224389   1.833   6.745   2.267 -0.1001  1.0997 -0.8705
  944TIP3   OH224390   6.307   0.566   0.410 -0.7637  0.3289 -0.3682
  944TIP3    H124391   6.334   0.474   0.405 -1.2304 -0.0535  2.3844
  944TIP3    H224392   6.389   0.614   0.427 -0.9075 -0.1097  1.9505
  945TIP3   OH224393   6.745   6.517   0.483 -0.3501 -0.3829 -0.0757
  945TIP3    H124394   6.720   6.516   0.575 -1.1162 -0.7339 -0.2791
  945TIP3    H224395   6.681   6.575   0.441  0.4781  0.4282 -0.2658
  946TIP3   OH224396   3.756   1.795   7.770  0.1462 -0.2084  0.1089
  946TIP3    H124397   3.785   1.717   7.817  0.8627  0.0640  0.1261
  946TIP3    H224398   3.803   1.791   7.687 -0.7547 -0.4411 -0.4148
  947TIP3   OH224399   5.169   2.590   7.847 -0.4789 -0.2096  0.0209
  947TIP3    H124400   5.259   2.568   7.870 -0.5626 -2.2513 -1.3187
  947TIP3    H224401   5.156   2.549   7.762 -1.7991  2.4813 -1.2071
  948TIP3   OH224402   6.560   1.247   2.402 -0.1037 -0.2864  0.0942
  948TIP3    H124403   6.528   1.291   2.323 -1.3938 -1.1302  0.1089
  948TIP3    H224404   6.494   1.266   2.469  0.4273 -0.4547  0.6815
  949TIP3   OH224405   0.564   6.678   1.597  0.1233 -0.3709 -0.9914
  949TIP3    H124406   0.595   6.589   1.616  0.6856  0.2061  1.0617
  949TIP3    H224407   0.531   6.673   1.507  2.3663 -2.0680 -1.8313
  950TIP3   OH224408   5.509   6.705   2.331 -0.0372 -0.4313  0.2825
  950TIP3    H124409   5.598   6.740   2.326 -0.2349  0.2896  1.4187
  950TIP3    H224410   5.506   6.658   2.415 -0.3545 -1.5520 -0.3368
  951TIP3   OH224411   6.230   4.493   2.289  0.0890 -0.1443  0.1734
  951TIP3    H124412   6.304   4.495   2.350  1.1824 -0.7857 -1.0856
  951TIP3    H224413   6.155   4.522   2.342  1.1026 -0.0853  1.6507
  952TIP3   OH224414   1.393   5.152   0.068 -0.5724  0.0565 -0.1923
  952TIP3    H124415   1.398   5.191  -0.019 -0.0053  1.0956  0.2861
  952TIP3    H224416   1.474   5.180   0.111 -2.0312  1.8593  1.5854
  953TIP3   OH224417   5.574   0.986   2.695 -0.3511  0.4787  0.3168
  953TIP3    H124418   5.561   0.893   2.714 -0.6340  0.5270  0.3641
  953TIP3    H224419   5.491   1.014   2.656  0.5638  0.1308 -2.0085
  954TIP3   OH224420   3.768   1.169   0.772  0.0569  0.5341  0.2132
  954TIP3    H124421   3.810   1.104   0.716  0.1685  0.7427  0.0553
  954TIP3    H224422   3.833   1.239   0.781  0.2240  0.2932  0.9821
  955TIP3   OH224423   5.522   4.815   1.272 -0.0732  0.5896  0.0120
  955TIP3    H124424   5.511   4.739   1.214 -0.3543  1.4307 -1.0750
  955TIP3    H224425   5.435   4.829   1.310  0.0321  0.2337  0.3851
  956TIP3   OH224426   4.221   1.396   8.092 -0.6447 -0.1705  0.5022
  956TIP3    H124427   4.281   1.456   8.137  0.4728 -1.4094  0.7401
  956TIP3    H224428   4.196   1.333   8.159 -0.6130 -0.8319 -0.0999
  957TIP3   OH224429   1.396   4.010   1.803 -0.4130  0.8085 -0.0851
  957TIP3    H124430   1.360   3.933   1.760 -2.7754  1.8198 -0.0482
  957TIP3    H224431   1.386   4.080   1.740  2.0513  1.1091 -0.2623
  958TIP3   OH224432   5.910   5.351   6.787 -0.5230 -0.1365 -0.7219
  958TIP3    H124433   5.826   5.307   6.771  0.4965 -2.2662 -0.6643
  958TIP3    H224434   5.938   5.317   6.872 -0.5823  2.2486  0.3179
  959TIP3   OH224435   4.147   1.728   0.554  0.3588  0.3396 -0.4086
  959TIP3    H124436   4.096   1.702   0.477  1.0951 -1.2652 -0.3955
  959TIP3    H224437   4.173   1.818   0.536 -1.0643  0.6398 -1.1564
  960TIP3   OH224438   4.272   6.585   2.059  0.2878  0.4607 -0.2053
  960TIP3    H124439   4.263   6.602   2.152  2.3838 -0.5957  0.2483
  960TIP3    H224440   4.216   6.650   2.016 -0.4791  1.1417  1.7529
  961TIP3   OH224441   1.394   1.513   0.294 -0.4618 -0.0732 -0.1068
  961TIP3    H124442   1.400   1.548   0.205  0.3693  2.1890  0.7571
  961TIP3    H224443   1.312   1.464   0.295 -1.2082  1.0522 -1.7196
  962TIP3   OH224444   3.836   6.254   1.082 -0.1535 -0.1225 -0.0012
  962TIP3    H124445   3.858   6.163   1.104  0.8689  0.5812  2.0761
  962TIP3    H224446   3.867   6.265   0.992  0.8680 -1.4687  0.1529
  963TIP3   OH224447   3.118   5.913   7.692 -0.1321  0.5423 -0.3823
  963TIP3    H124448   3.065   5.863   7.630 -1.7597  0.7908  0.7540
  963TIP3    H224449   3.081   5.893   7.778  0.7904  1.7498  0.3342
  964TIP3   OH224450   0.914   1.612   7.496  0.0917  0.5053  0.0412
  964TIP3    H124451   0.906   1.560   7.417  0.6722 -0.8341  0.8244
  964TIP3    H224452   0.995   1.661   7.485  0.4618 -0.1075  0.0547
  965TIP3   OH224453   1.199   6.758   8.101 -0.4383 -0.5606  0.1373
  965TIP3    H124454   1.189   6.746   8.007 -1.4384 -0.3346  0.2092
  965TIP3    H224455   1.165   6.677   8.139 -0.0106 -0.6631  0.3024
  966TIP3   OH224456   4.168   5.318   8.094  0.3725 -0.4376 -0.6481
  966TIP3    H124457   4.099   5.281   8.040 -1.0353  0.4758  0.4403
  966TIP3    H224458   4.214   5.378   8.036 -0.2203 -0.5159 -1.2084
  967TIP3   OH224459   3.735   4.101   1.600 -0.1395  0.1307 -0.4749
  967TIP3    H124460   3.672   4.045   1.644  0.5791  0.9020  1.6444
  967TIP3    H224461   3.701   4.190   1.613  1.0535  0.5046  0.1798
  968TIP3   OH224462   2.289   0.113   1.165  0.0224  0.1123  0.0068
  968TIP3    H124463   2.343   0.097   1.088  2.8446  2.4061  1.3176
  968TIP3    H224464   2.241   0.193   1.145  0.7285  0.6889  0.5694
  969TIP3   OH224465   3.404   5.875   8.498  0.2712 -0.1184  0.4698
  969TIP3    H124466   3.366   5.944   8.552 -0.2018 -0.0077  0.0026
  969TIP3    H224467   3.441   5.813   8.561 -1.1516 -0.5040  0.9647
  970TIP3   OH224468   5.473   2.578   6.981  0.0197  0.0023 -0.1735
  970TIP3    H124469   5.471   2.524   7.060 -0.2711  0.3005  0.0272
  970TIP3    H224470   5.412   2.650   7.000 -0.1466  0.0078 -0.7178
  971TIP3   OH224471   1.371   0.049   7.231 -0.7061  0.4926 -0.4773
  971TIP3    H124472   1.449   0.048   7.175 -0.0814  1.0297  0.3647
  971TIP3    H224473   1.372   0.135   7.271 -0.5972 -0.2170  1.1077
  972TIP3   OH224474   5.075   2.621   2.185  0.6388 -0.7499  0.0739
  972TIP3    H124475   5.009   2.552   2.173  0.2700 -0.6978  1.5965
  972TIP3    H224476   5.028   2.690   2.232  1.1968  0.2606 -0.8212
  973TIP3   OH224477   1.806   4.818   2.172 -0.0473  0.6534  0.0188
  973TIP3    H124478   1.858   4.897   2.176 -0.8041  1.1694 -0.1192
  973TIP3    H224479   1.783   4.799   2.263 -0.3766  0.9395 -0.0046
  974TIP3   OH224480   6.322   6.912   8.300  0.0034 -0.7600 -0.2860
  974TIP3    H124481   6.392   6.901   8.236 -0.0318  0.0344 -0.4618
  974TIP3    H224482   6.246   6.870   8.259 -0.6957  1.8888 -1.9020
  975TIP3   OH224483   5.350   1.230   7.718 -0.2439  0.3589  0.0529
  975TIP3    H124484   5.379   1.160   7.659  2.2487 -1.6723  3.3218
  975TIP3    H224485   5.264   1.201   7.749 -0.3347  0.0313 -0.4923
  976TIP3   OH224486   0.865   5.910   2.670  0.5718  0.0631 -0.9811
  976TIP3    H124487   0.932   5.979   2.673 -0.9798  1.5853 -0.1066
  976TIP3    H224488   0.864   5.873   2.758  1.0162 -0.7625 -1.3021
  977TIP3   OH224489   2.225   2.117   0.152 -0.0770  0.1661 -0.0701
  977TIP3    H124490   2.186   2.178   0.214 -0.4685  0.6009 -0.7373
  977TIP3    H224491   2.225   2.033   0.198  0.9437  0.7533  1.0487
  978TIP3   OH224492   2.437   1.022   7.197  0.1319 -0.3903 -0.3086
  978TIP3    H124493   2.399   1.091   7.251 -0.8896  0.5053 -2.0612
  978TIP3    H224494   2.381   0.946   7.212 -0.0539 -0.1954 -0.0077
  979TIP3   OH224495   3.570   3.893   7.695  0.0362  0.0732 -0.9294
  979TIP3    H124496   3.515   3.820   7.722  1.7562  0.2079  3.6526
  979TIP3    H224497   3.517   3.971   7.714 -0.0629  0.1240 -1.3975
  980TIP3   OH224498   3.843   5.860   8.359 -0.4307  0.2124 -0.7282
  980TIP3    H124499   3.880   5.935   8.406 -1.6854 -0.8658  2.2988
  980TIP3    H224500   3.883   5.784   8.401 -0.7235 -0.8400 -2.2995
  981TIP3   OH224501   1.429   0.610   8.210 -0.1923 -0.2639  0.4711
  981TIP3    H124502   1.439   0.601   8.304  0.5256  0.6899  0.4973
  981TIP3    H224503   1.452   0.524   8.175  1.4271 -0.0905  1.0383
  982TIP3   OH224504   3.992   5.496   6.289  0.0267  0.7872  0.1206
  982TIP3    H124505   4.056   5.559   6.320 -2.0823  1.4290  3.7657
  982TIP3    H224506   4.014   5.414   6.333 -0.8750  0.6841  0.4096
  983TIP3   OH224507   2.769   3.898   0.201  0.0359 -0.2160 -0.1967
  983TIP3    H124508   2.702   3.911   0.134 -0.3257 -1.4085 -0.0891
  983TIP3    H224509   2.807   3.985   0.214 -0.8714  0.3059 -0.9107
  984TIP3   OH224510   1.538   6.309   8.089  0.0613 -0.0368  0.1385
  984TIP3    H124511   1.539   6.391   8.040  0.1577 -0.2809 -0.2819
  984TIP3    H224512   1.522   6.334   8.179  1.0277  0.5182  0.1640
  985TIP3   OH224513   3.025   2.722   7.671  0.0677 -0.8159 -0.1620
  985TIP3    H124514   2.948   2.667   7.685 -0.1407 -0.5741 -0.3261
  985TIP3    H224515   3.020   2.789   7.739 -0.3242 -0.3140 -0.6682
  986TIP3   OH224516   0.061   4.061   1.328 -0.0980  0.8143 -0.2433
  986TIP3    H124517   0.140   4.108   1.356 -1.1689  3.0925 -0.7619
  986TIP3    H224518   0.001   4.131   1.300 -2.5103 -0.7831  0.6159
  987TIP3   OH224519   3.010   5.456   8.221  0.4799  0.1045  0.4425
  987TIP3    H124520   2.982   5.366   8.240  1.8401  0.0187  2.3686
  987TIP3    H224521   3.061   5.448   8.140  1.0445 -0.9895  0.8715
  988TIP3   OH224522   0.326   4.978   8.105  0.3523  0.1277 -0.7390
  988TIP3    H124523   0.304   4.885   8.106  0.6577  0.0542 -0.7355
  988TIP3    H224524   0.279   5.014   8.181 -0.2091  0.0863 -1.0585
  989TIP3   OH224525   3.501   5.501   2.107  0.2922 -0.0457 -0.1526
  989TIP3    H124526   3.450   5.558   2.048 -2.0092 -1.1412  0.6853
  989TIP3    H224527   3.438   5.472   2.172  2.3916 -0.2562  1.8927
  990TIP3   OH224528   2.105   4.570   1.390  0.0182 -0.0634  0.5169
  990TIP3    H124529   2.199   4.585   1.385  0.4106 -2.4587 -1.3085
  990TIP3    H224530   2.067   4.657   1.400  2.3275  1.1988 -0.8365
  991TIP3   OH224531   1.552   4.596   8.066  0.4314  0.3635 -0.4830
  991TIP3    H124532   1.639   4.617   8.032 -0.1083  2.0772 -0.9350
  991TIP3    H224533   1.558   4.617   8.159  1.0221 -1.3394 -0.1181
  992TIP3   OH224534   3.746   6.493   1.216 -0.5459  0.0734 -0.0025
  992TIP3    H124535   3.822   6.535   1.256 -1.4748  0.9681  0.9102
  992TIP3    H224536   3.781   6.415   1.173  0.7979  0.1363  0.9067
  993TIP3   OH224537   3.862   1.528   1.581 -0.3960  0.5912 -0.0331
  993TIP3    H124538   3.870   1.520   1.486 -0.6293  0.7424 -0.0643
  993TIP3    H224539   3.932   1.589   1.606  0.7624 -0.7461  0.0932
  994TIP3   OH224540   6.475   2.320   0.618  0.3016  0.1817 -0.2854
  994TIP3    H124541   6.528   2.244   0.645  0.5490  0.4417 -0.0278
  994TIP3    H224542   6.471   2.313   0.523 -0.5897 -0.7607 -0.1965
  995TIP3   OH224543   0.917   5.176   0.847 -0.4742  0.5023 -0.7797
  995TIP3    H124544   0.972   5.241   0.891 -1.7744  1.9129 -1.1508
  995TIP3    H224545   0.904   5.210   0.759 -1.3279 -0.1619 -0.9271
  996TIP3   OH224546   3.448   3.562   6.910  0.1796 -0.6061 -0.1254
  996TIP3    H124547   3.532   3.608   6.908  1.2211 -2.0119  3.2692
  996TIP3    H224548   3.433   3.544   7.003 -2.2244 -3.3473 -0.8898
  997TIP3   OH224549   0.676   0.880   0.288  0.3461  0.0782  0.3616
  997TIP3    H124550   0.761   0.835   0.289  0.0238 -0.5356  0.3179
  997TIP3    H224551   0.631   0.848   0.366 -0.3100 -0.5091 -0.2467
  998TIP3   OH224552   3.393   6.855   1.214 -0.7535  0.1169  0.1581
  998TIP3    H124553   3.332   6.820   1.150  0.9454 -0.0419 -1.4258
  998TIP3    H224554   3.479   6.832   1.182  0.2339  1.4757  1.6401
  999TIP3   OH224555   0.365   2.243   1.728  0.0950 -0.3177 -0.2993
  999TIP3    H124556   0.316   2.169   1.691 -0.2080  0.0114 -0.5599
  999TIP3    H224557   0.456   2.227   1.702  0.1814 -1.0682  0.4063
 1000TIP3   OH224558   0.398   5.527   7.175  0.2487  0.0083  0.4577
 1000TIP3    H124559   0.321   5.549   7.123 -0.1004  0.7118  1.2368
 1000TIP3    H224560   0.436   5.451   7.132 -0.9803 -0.4511  0.1474
 1001TIP3   OH224561   1.207   0.609   8.471 -0.2541  0.2391  0.2091
 1001TIP3    H124562   1.191   0.522   8.508 -2.0052  0.9046  1.1141
 1001TIP3    H224563   1.302   0.613   8.460  0.0925 -0.9410  2.2900
 1002TIP3   OH224564   1.065   6.508   8.299  0.1644 -0.1430 -0.0323
 1002TIP3    H124565   1.047   6.437   8.360 -0.7130 -0.1879 -0.3355
 1002TIP3    H224566   1.023   6.481   8.217  0.4436  0.3916 -0.3619
 1003TIP3   OH224567   6.373   5.250   1.214 -0.1294 -0.5376  0.4849
 1003TIP3    H124568   6.344   5.166   1.251 -1.0756 -0.9504 -1.1262
 1003TIP3    H224569   6.326   5.316   1.265 -3.9296 -1.1554 -1.7978
 1004TIP3   OH224570   1.806   3.255   2.954 -0.2721  0.2154  0.5904
 1004TIP3    H124571   1.882   3.304   2.923  0.5660  0.5071  2.8801
 1004TIP3    H224572   1.743   3.323   2.981 -0.8752 -0.0154 -0.2239
 1005TIP3   OH224573   5.296   2.068   0.840  0.0876  0.4802 -0.2439
 1005TIP3    H124574   5.305   1.981   0.803  0.9255  0.6054 -0.3633
 1005TIP3    H224575   5.377   2.081   0.890 -0.5433  0.7333  0.7391
 1006TIP3   OH224576   4.349   6.725   7.270  0.7704 -0.0355  0.0399
 1006TIP3    H124577   4.408   6.659   7.308  0.1584 -0.0479  0.9953
 1006TIP3    H224578   4.307   6.679   7.197  0.6302 -0.5998  0.4629
 1007TIP3   OH224579   0.236   6.501   7.155 -0.8256 -0.2203 -0.2991
 1007TIP3    H124580   0.251   6.578   7.209 -0.4077 -0.4982 -0.0070
 1007TIP3    H224581   0.278   6.521   7.072 -0.0612 -0.4276  0.0314
 1008TIP3   OH224582   3.351   5.313   7.550  0.0054  0.6993  0.4599
 1008TIP3    H124583   3.355   5.256   7.474 -1.4901 -0.3977  1.1457
 1008TIP3    H224584   3.320   5.257   7.621 -0.1497  2.0464  1.5192
 1009TIP3   OH224585   0.939   0.834   1.273 -0.1686 -0.5526  0.4015
 1009TIP3    H124586   0.914   0.924   1.295 -0.4316 -0.6660  0.5832
 1009TIP3    H224587   0.915   0.784   1.351  0.0546 -0.7666  0.3327
 1010TIP3   OH224588   0.567   2.932   1.866 -0.4090 -0.5080  0.0726
 1010TIP3    H124589   0.475   2.953   1.850 -0.7367 -0.9973  1.2232
 1010TIP3    H224590   0.584   2.966   1.954  0.3945 -0.7966  0.0321
 1011TIP3   OH224591   1.260   2.160   0.382 -0.7940 -0.4005 -0.0665
 1011TIP3    H124592   1.190   2.097   0.364 -1.8281  0.8271 -0.5052
 1011TIP3    H224593   1.217   2.232   0.428  0.3386  0.0448  0.3448
 1012TIP3   OH224594   5.950   0.108   7.579 -0.3949  0.2407 -0.7581
 1012TIP3    H124595   5.994   0.075   7.501 -0.3901 -1.7661  0.0361
 1012TIP3    H224596   6.020   0.121   7.643 -0.7329 -1.6146  0.0496
 1013TIP3   OH224597   2.542   1.650   0.734  0.2465  0.3541  0.4422
 1013TIP3    H124598   2.463   1.649   0.680  0.1125  2.1478  0.5226
 1013TIP3    H224599   2.614   1.643   0.672  0.0447 -1.3714  0.3748
 1014TIP3   OH224600   1.952   2.652   0.352  0.1652 -0.4177 -0.5480
 1014TIP3    H124601   1.970   2.662   0.446 -0.6652  0.1290 -0.4328
 1014TIP3    H224602   1.992   2.727   0.311 -1.5388  0.6839 -0.3163
 1015TIP3   OH224603   1.722   1.191   0.555  0.0860  0.2849 -0.1659
 1015TIP3    H124604   1.774   1.113   0.535 -0.2910 -0.6685  2.1582
 1015TIP3    H224605   1.642   1.181   0.504  0.7402  0.0406 -1.1806
 1016TIP3   OH224606   3.644   5.386   2.690  0.1224 -0.0053 -0.1614
 1016TIP3    H124607   3.588   5.359   2.763  0.0397 -0.4771 -0.3949
 1016TIP3    H224608   3.591   5.370   2.612  0.8495 -1.1721 -0.4333
 1017TIP3   OH224609   4.648   5.010   8.431  0.6466 -0.5148  0.0871
 1017TIP3    H124610   4.557   4.995   8.407  0.4811 -0.0591  0.4094
 1017TIP3    H224611   4.644   5.052   8.517  1.1712 -0.7816  0.2478
 1018TIP3   OH224612   6.718   1.388   7.894 -0.1876  0.7046  0.2203
 1018TIP3    H124613   6.765   1.417   7.973  2.0591  0.3948 -0.9335
 1018TIP3    H224614   6.727   1.462   7.833  1.1503 -0.3647 -0.9385
 1019TIP3   OH224615   4.412   1.066   0.103 -0.2472  0.1291  0.0093
 1019TIP3    H124616   4.505   1.086   0.095 -0.4449  0.4792 -1.5832
 1019TIP3    H224617   4.380   1.126   0.170  0.6958 -0.1127  0.6974
 1020TIP3   OH224618   3.800   4.540   0.408 -0.2931  0.1421 -0.6699
 1020TIP3    H124619   3.896   4.543   0.414 -0.2111 -0.9303 -1.1834
 1020TIP3    H224620   3.781   4.574   0.320 -0.5505  2.4010  0.2035
 1021TIP3   OH224621   6.445   6.357   2.183 -0.2108 -0.1319 -0.4163
 1021TIP3    H124622   6.492   6.347   2.099 -1.7126  0.2117 -1.3327
 1021TIP3    H224623   6.487   6.433   2.224 -0.8733  1.1128 -1.9105
 1022TIP3   OH224624   3.813   5.728   1.740 -0.2042 -0.2235  0.1000
 1022TIP3    H124625   3.892   5.768   1.777 -0.3997  0.7634 -0.4876
 1022TIP3    H224626   3.741   5.777   1.780 -0.5643 -1.4211  0.9861
 1023TIP3   OH224627   0.828   4.092   7.873 -0.1023  0.4371 -0.1275
 1023TIP3    H124628   0.899   4.142   7.913  0.3095 -0.2072 -0.0391
 1023TIP3    H224629   0.850   4.088   7.780 -0.2258  0.5703 -0.1627
 1024TIP3   OH224630   6.844   5.137   8.471  0.4196 -0.6374  0.5815
 1024TIP3    H124631   6.812   5.150   8.560  1.6431  1.0961  0.8202
 1024TIP3    H224632   6.844   5.042   8.459  0.2271 -0.9080  2.4097
 1025TIP3   OH224633   0.333   6.565   0.377 -0.0829 -0.2877  0.3873
 1025TIP3    H124634   0.260   6.510   0.346 -2.0793  1.9792  0.8091
 1025TIP3    H224635   0.382   6.587   0.297 -0.9979 -0.2688 -0.1828
 1026TIP3   OH224636   0.455   2.826   8.361  0.9274 -0.1999 -0.2995
 1026TIP3    H124637   0.475   2.902   8.305 -0.5071 -1.7751 -3.1952
 1026TIP3    H224638   0.368   2.798   8.332 -0.2739 -0.7732  3.3248
 1027TIP3   OH224639   4.746   2.484   0.696 -0.0020  0.8323  0.0163
 1027TIP3    H124640   4.722   2.401   0.656 -0.2582  0.8637  0.1055
 1027TIP3    H224641   4.750   2.466   0.790  1.2493  0.5962 -0.0683
 1028TIP3   OH224642   3.235   1.457   1.075 -0.6464 -0.0408 -0.0943
 1028TIP3    H124643   3.321   1.418   1.089  0.0849  1.3091 -0.6114
 1028TIP3    H224644   3.225   1.460   0.980 -0.1418  2.0321 -0.1332
 1029TIP3   OH224645   2.034   6.206   1.566 -0.2792 -0.4711  0.0893
 1029TIP3    H124646   2.064   6.117   1.584  0.5879 -0.1143  0.4162
 1029TIP3    H224647   2.001   6.238   1.650 -1.5268 -0.8184 -0.2358
 1030TIP3   OH224648   1.473   1.136   8.137 -0.7085  0.0319  0.4130
 1030TIP3    H124649   1.452   1.213   8.191  0.7764  0.3351  0.6140
 1030TIP3    H224650   1.490   1.067   8.201 -0.3323  0.0107  0.2898
 1031TIP3   OH224651   3.693   1.690   0.373  0.3049 -0.4863  0.5156
 1031TIP3    H124652   3.749   1.766   0.357 -0.7618  0.2173 -0.0339
 1031TIP3    H224653   3.720   1.626   0.307  0.6979 -0.2907  0.4846
 1032TIP3   OH224654   5.394   0.418   0.280  0.0146  0.0766  0.2279
 1032TIP3    H124655   5.363   0.427   0.370 -1.7090 -1.2317 -0.1942
 1032TIP3    H224656   5.461   0.486   0.271 -0.0578  0.4818  2.3665
 1033TIP3   OH224657   1.519   2.241   7.503 -0.5170  0.2431 -0.3758
 1033TIP3    H124658   1.599   2.293   7.514  0.8445 -1.9932  1.1869
 1033TIP3    H224659   1.453   2.304   7.475  1.3764  2.5003 -0.0799
 1034TIP3   OH224660   5.728   1.680   1.089 -0.0556 -0.5692 -0.5140
 1034TIP3    H124661   5.748   1.710   1.177  0.3646  0.1300 -0.8333
 1034TIP3    H224662   5.803   1.625   1.065 -0.7722 -1.7985  0.0295
 1035TIP3   OH224663   6.121   6.691   2.054 -0.4422  0.3957  0.1279
 1035TIP3    H124664   6.191   6.648   2.004 -1.9327 -1.0688 -0.8094
 1035TIP3    H224665   6.107   6.633   2.129  1.0484  2.0270  1.7480
 1036TIP3   OH224666   0.529   6.312   8.463  0.1942  0.4197 -0.2471
 1036TIP3    H124667   0.475   6.376   8.508 -1.0156  0.8868 -2.2208
 1036TIP3    H224668   0.471   6.236   8.452  0.1401  0.6495 -1.7412
 1037TIP3   OH224669   5.224   0.838   0.403 -0.3076  0.2893 -0.1777
 1037TIP3    H124670   5.276   0.918   0.408  1.6036 -0.7698 -1.6001
 1037TIP3    H224671   5.234   0.797   0.489 -0.8500  1.2958  0.3710
 1038TIP3   OH224672   0.485   0.236   7.439 -0.2939 -0.0937 -0.1342
 1038TIP3    H124673   0.454   0.211   7.352 -0.8956  1.1265 -0.2897
 1038TIP3    H224674   0.571   0.276   7.424 -0.1755 -0.3333 -0.1033
 1039TIP3   OH224675   0.766   5.834   2.432  0.3477 -0.7181  0.0767
 1039TIP3    H124676   0.823   5.843   2.509 -0.3857  1.0034  0.4563
 1039TIP3    H224677   0.678   5.847   2.467 -0.2615 -2.6163 -0.6335
 1040TIP3   OH224678   0.085   2.513   2.110  0.1416  0.0191  0.4016
 1040TIP3    H124679   0.165   2.467   2.138 -1.0384 -2.0680  0.5409
 1040TIP3    H224680   0.026   2.443   2.083 -0.7938  1.6147 -2.0875
 1041TIP3   OH224681   4.416   0.452   0.095 -0.5091 -0.2614 -0.2248
 1041TIP3    H124682   4.353   0.426   0.028 -1.0062 -1.0031  0.4957
 1041TIP3    H224683   4.407   0.547   0.101 -0.4491 -0.1881 -1.1990
 1042TIP3   OH224684   4.839   0.092   8.016  0.4665  0.8650  0.7781
 1042TIP3    H124685   4.830   0.182   7.983 -0.3217  0.1950 -0.9661
 1042TIP3    H224686   4.925   0.064   7.983  0.5906  0.8828  1.0869
 1043TIP3   OH224687   2.750   4.945   7.119  0.2308 -0.9871 -0.7281
 1043TIP3    H124688   2.773   4.858   7.153 -1.3992 -0.4941  1.9391
 1043TIP3    H224689   2.661   4.935   7.087  0.0462 -0.3214 -0.4328
 1044TIP3   OH224690   3.693   6.053   1.953 -0.2047 -0.0044 -0.2917
 1044TIP3    H124691   3.787   6.045   1.967  0.1379  0.4692 -2.0128
 1044TIP3    H224692   3.686   6.107   1.874 -1.8634 -1.8036 -1.4638
 1045TIP3   OH224693   0.209   4.439   1.342 -0.1066 -0.4707  0.2260
 1045TIP3    H124694   0.115   4.425   1.346  0.0017 -1.1047  1.0350
 1045TIP3    H224695   0.225   4.473   1.255 -1.3558  1.8777  0.8457
 1046TIP3   OH224696   0.477   1.117   0.935  0.0893  0.3709  0.4597
 1046TIP3    H124697   0.535   1.053   0.975 -0.2449  0.7314  1.5731
 1046TIP3    H224698   0.436   1.071   0.861 -1.4180 -1.2923  2.2163
 1047TIP3   OH224699   5.515   6.115   1.452 -0.0060  0.7381 -0.6538
 1047TIP3    H124700   5.529   6.204   1.418  2.3001  1.5153  1.9264
 1047TIP3    H224701   5.572   6.110   1.529  0.7079 -3.3544 -1.2384
 1048TIP3   OH224702   0.131   5.804   8.442 -0.2548  0.4948  0.4526
 1048TIP3    H124703   0.043   5.774   8.420 -0.4755  1.6540 -0.3142
 1048TIP3    H224704   0.122   5.843   8.528 -1.0263  2.6461 -0.5284
 1049TIP3   OH224705   5.003   4.925   7.463  0.6929 -0.6629 -0.6974
 1049TIP3    H124706   5.095   4.948   7.452  1.6698 -3.1899  1.2600
 1049TIP3    H224707   4.955   4.993   7.415  3.5264  0.9247 -1.4803
 1050TIP3   OH224708   0.025   5.229   0.951  0.5026 -0.3382 -0.4228
 1050TIP3    H124709   0.023   5.136   0.971 -0.1930 -0.0789  0.8399
 1050TIP3    H224710   0.109   5.243   0.907 -0.0579 -1.8082 -2.0485
 1051TIP3   OH224711   5.835   3.372   1.014  0.1027  0.2650 -0.3535
 1051TIP3    H124712   5.831   3.310   0.941 -1.8213 -1.9045  1.4169
 1051TIP3    H224713   5.748   3.412   1.016 -0.7744 -1.4965  2.0365
 1052TIP3   OH224714   0.983   6.078   7.641 -0.2405  0.4232  0.1652
 1052TIP3    H124715   1.046   6.006   7.635  1.0416  1.5504 -0.1334
 1052TIP3    H224716   0.933   6.073   7.559  0.5615  0.5223 -0.3385
 1053TIP3   OH224717   0.211   1.898   7.972 -0.2429  0.2175 -0.3981
 1053TIP3    H124718   0.118   1.885   7.955 -0.4880  1.0396  0.2414
 1053TIP3    H224719   0.214   1.945   8.056  0.7400  0.2753 -0.4508
 1054TIP3   OH224720   1.636   2.209   1.360 -0.1698 -0.3335  0.1583
 1054TIP3    H124721   1.589   2.288   1.332  0.4937 -0.1660 -0.5184
 1054TIP3    H224722   1.575   2.137   1.344 -0.5137 -0.0308  0.1014
 1055TIP3   OH224723   2.911   2.534   2.625  0.1374  0.1947 -1.1705
 1055TIP3    H124724   2.906   2.468   2.555  0.2238  0.7817 -1.7336
 1055TIP3    H224725   2.915   2.482   2.706 -3.1056 -0.5299 -1.3395
 1056TIP3   OH224726   1.595   6.381   2.271 -0.8067 -0.0284  0.7172
 1056TIP3    H124727   1.532   6.320   2.311 -1.3707 -0.0322 -0.1529
 1056TIP3    H224728   1.552   6.467   2.277 -0.9912 -0.0627 -0.0719
 1057TIP3   OH224729   3.232   5.458   6.937  0.4827  0.2067  0.0317
 1057TIP3    H124730   3.169   5.453   6.865  0.8185 -1.8048 -0.2029
 1057TIP3    H224731   3.312   5.419   6.901  1.9054  2.6417  0.3419
 1058TIP3   OH224732   4.484   5.905   8.348  0.8607  0.5459 -0.3416
 1058TIP3    H124733   4.465   5.865   8.262  0.4214  0.5820 -0.2627
 1058TIP3    H224734   4.563   5.957   8.333  0.9587  0.3133 -0.6534
 1059TIP3   OH224735   4.294   1.854   1.980 -0.4600 -0.3963  0.4272
 1059TIP3    H124736   4.204   1.885   1.969 -0.2764  0.3502  0.9738
 1059TIP3    H224737   4.324   1.896   2.061  0.2641 -0.9182  0.4364
 1060TIP3   OH224738   3.543   3.342   2.226 -0.4401 -0.7823 -0.2079
 1060TIP3    H124739   3.459   3.352   2.270 -0.6446  0.8486 -0.9192
 1060TIP3    H224740   3.524   3.362   2.134  0.6902 -0.6097 -0.4143
 1061TIP3   OH224741   5.715   6.191   0.397  0.2068  0.2914  0.4789
 1061TIP3    H124742   5.728   6.231   0.483 -1.6785  3.5539 -0.5541
 1061TIP3    H224743   5.776   6.238   0.340  0.7124 -1.1280 -0.1790
 1062TIP3   OH224744   0.384   1.265   7.724  0.7635  0.0689  0.1498
 1062TIP3    H124745   0.389   1.185   7.673  1.4265 -0.0110  0.3416
 1062TIP3    H224746   0.357   1.236   7.811 -1.4355  0.3041 -0.3781
 1063TIP3   OH224747   5.592   4.998   7.528  0.2907  0.0351 -0.9306
 1063TIP3    H124748   5.552   5.067   7.475  0.0659  0.3378 -0.3760
 1063TIP3    H224749   5.523   4.970   7.588  0.6115 -0.1337 -0.6310
 1064TIP3   OH224750   5.976   4.853   1.662  0.1900  0.6242  0.0146
 1064TIP3    H124751   5.947   4.762   1.661  0.8615  0.3394  1.9599
 1064TIP3    H224752   5.898   4.903   1.686  0.0711  0.4328  0.0244
 1065TIP3   OH224753   6.042   4.561   0.733  0.0580  0.0952  0.5263
 1065TIP3    H124754   6.083   4.475   0.744  0.2672  0.3012  1.4470
 1065TIP3    H224755   6.034   4.572   0.638 -1.0634 -1.4449  0.4142
 1066TIP3   OH224756   3.417   5.042   2.516  0.4215  0.2365  0.4289
 1066TIP3    H124757   3.456   5.018   2.601  2.6214 -0.3534 -0.6732
 1066TIP3    H224758   3.434   5.135   2.507  0.6199  0.2006  0.4283
 1067TIP3   OH224759   2.614   2.448   2.408 -0.6548  0.1940  0.0778
 1067TIP3    H124760   2.656   2.394   2.475 -0.6020 -1.0536 -0.9191
 1067TIP3    H224761   2.522   2.448   2.433 -0.3819  1.3428  1.1979
 1068TIP3   OH224762   5.417   5.127   8.559 -0.0780 -0.1950 -0.6050
 1068TIP3    H124763   5.367   5.048   8.537  0.9797 -0.7270 -1.1740
 1068TIP3    H224764   5.357   5.179   8.612 -0.2190 -2.1933  1.3461
 1069TIP3   OH224765   1.820   0.281   7.023 -0.7148 -0.1344  0.7386
 1069TIP3    H124766   1.864   0.282   7.108  0.4978  1.5913  0.1655
 1069TIP3    H224767   1.862   0.210   6.975 -1.6464 -1.3439  1.6642
 1070TIP3   OH224768   6.664   5.779   7.571 -0.0922 -0.3195  0.5559
 1070TIP3    H124769   6.570   5.769   7.557 -0.1127 -2.4552  1.7890
 1070TIP3    H224770   6.671   5.850   7.634 -0.7833  0.6055 -0.3839
 1071TIP3   OH224771   4.457   5.035   0.928 -0.0014 -0.0753 -0.4086
 1071TIP3    H124772   4.370   5.059   0.959  0.9340  1.6163  1.1065
 1071TIP3    H224773   4.466   5.079   0.844  0.3066  1.9607  0.6367
 1072TIP3   OH224774   3.104   4.124   7.069  0.4055  0.5411 -0.2195
 1072TIP3    H124775   3.196   4.120   7.093  0.0553 -1.7190  1.0779
 1072TIP3    H224776   3.084   4.217   7.060  2.6379  1.0828  0.0710
 1073TIP3   OH224777   4.639   6.388   7.196 -0.3812  0.3381  0.6778
 1073TIP3    H124778   4.616   6.446   7.269  1.4022 -0.3587  1.8466
 1073TIP3    H224779   4.729   6.412   7.174 -0.4887 -0.2789 -0.5228
 1074TIP3   OH224780   6.702   0.395   7.567 -0.0711  0.2463  0.0651
 1074TIP3    H124781   6.676   0.358   7.483  1.0963 -0.8226  0.1436
 1074TIP3    H224782   6.796   0.414   7.557 -0.0441  0.6241  0.9420
 1075TIP3   OH224783   1.411   2.108   2.043 -0.3151 -0.5540  0.4191
 1075TIP3    H124784   1.325   2.148   2.028 -0.1633 -0.5864 -0.5446
 1075TIP3    H224785   1.470   2.157   1.987 -0.0790 -1.9479 -0.5966
 1076TIP3   OH224786   2.793   2.613   1.243  0.8860  0.2791 -0.3423
 1076TIP3    H124787   2.760   2.597   1.331 -0.0750  1.1566 -0.5218
 1076TIP3    H224788   2.813   2.706   1.241 -0.5521  0.6078 -1.4863
 1077TIP3   OH224789   6.759   1.013   0.021  0.1602  0.4530  0.0151
 1077TIP3    H124790   6.683   1.009   0.080 -1.4761 -1.5345 -2.0611
 1077TIP3    H224791   6.725   1.053  -0.059  1.5086  0.1694 -0.7323
 1078TIP3   OH224792   1.935   1.850   6.885  0.8179 -0.0019 -0.2481
 1078TIP3    H124793   1.976   1.775   6.841  0.1105 -0.5767  0.0447
 1078TIP3    H224794   1.973   1.850   6.972 -1.1842 -1.7726  0.7237
 1079TIP3   OH224795   2.460   5.855   0.966  0.7143 -0.1479 -0.2433
 1079TIP3    H124796   2.392   5.789   0.973  0.5117  0.0600 -0.2587
 1079TIP3    H224797   2.525   5.817   0.906  1.9897 -1.5451  1.8744
 1080TIP3   OH224798   1.024   4.178   7.106  0.5230  0.7621 -0.0933
 1080TIP3    H124799   0.987   4.174   7.018 -0.4838  1.6077  0.2748
 1080TIP3    H224800   1.117   4.198   7.092  0.8681 -1.1595 -1.0260
 1081TIP3   OH224801   5.551   3.246   7.662 -0.2837 -1.0501 -0.0842
 1081TIP3    H124802   5.527   3.154   7.654  2.1374 -1.7181 -0.4346
 1081TIP3    H224803   5.619   3.259   7.595  0.4509  0.6121  0.9180
 1082TIP3   OH224804   3.101   6.554   0.376 -0.2205  0.6644  0.0573
 1082TIP3    H124805   3.180   6.564   0.324  0.1686  0.8419  0.6794
 1082TIP3    H224806   3.076   6.462   0.365  0.6210  0.3581  0.6444
 1083TIP3   OH224807   4.613   5.936   0.148 -0.0995  0.4357 -0.7110
 1083TIP3    H124808   4.660   5.927   0.065  1.1688  2.0954 -0.2350
 1083TIP3    H224809   4.545   5.869   0.145  0.7639 -0.4207 -2.5045
 1084TIP3   OH224810   3.174   2.817   0.854 -0.2158 -0.0659  0.1105
 1084TIP3    H124811   3.222   2.779   0.927 -1.7686 -0.1028  1.1488
 1084TIP3    H224812   3.156   2.907   0.882  2.8336  1.3879 -2.0326
 1085TIP3   OH224813   1.871   0.040   1.855  0.4901  0.0856  0.5061
 1085TIP3    H124814   1.930   0.092   1.910 -0.1431  0.6878  0.6373
 1085TIP3    H224815   1.799   0.100   1.834  0.4693 -0.2847 -0.5697
 1086TIP3   OH224816   2.503   6.671   1.846  0.4759  0.5531  0.0256
 1086TIP3    H124817   2.490   6.722   1.926 -0.9868 -0.2776  0.3461
 1086TIP3    H224818   2.472   6.729   1.776 -1.8308 -0.0632  0.4498
 1087TIP3   OH224819   0.244   1.875   6.852  0.1067  0.1233  0.0142
 1087TIP3    H124820   0.198   1.791   6.853  0.9615 -0.3506 -0.6619
 1087TIP3    H224821   0.204   1.924   6.925 -1.8255 -0.0756 -0.8420
 1088TIP3   OH224822   1.737   1.161   2.107  0.3639  0.8392  0.5898
 1088TIP3    H124823   1.803   1.093   2.093 -0.3675  0.0144  1.0486
 1088TIP3    H224824   1.771   1.213   2.180 -0.2212 -0.5819  1.9371
 1089TIP3   OH224825   1.994   4.029   1.264 -0.2522 -0.3183  0.2800
 1089TIP3    H124826   2.030   4.116   1.279 -1.9472  0.5231 -0.2624
 1089TIP3    H224827   1.956   4.033   1.176 -1.1663 -1.3071  0.6067
 1090TIP3   OH224828   6.579   0.679   2.838 -0.0326 -0.1366  0.3320
 1090TIP3    H124829   6.538   0.739   2.899  1.9747  0.5923  1.0140
 1090TIP3    H224830   6.580   0.595   2.884  1.1727  0.3354  1.2214
 1091TIP3   OH224831   1.632   2.597   0.626  0.1666  0.1849  0.0411
 1091TIP3    H124832   1.602   2.610   0.716  1.3434 -0.9033  0.6139
 1091TIP3    H224833   1.680   2.515   0.628  2.1979  1.2564 -1.0676
 1092TIP3   OH224834   5.114   3.475   8.561  0.4809  0.0702 -0.9660
 1092TIP3    H124835   5.150   3.416   8.495 -0.5489  0.2740 -1.7336
 1092TIP3    H224836   5.059   3.419   8.617  0.1807  0.1465 -1.1811
 1093TIP3   OH224837   5.960   4.032   7.677  0.2578 -0.2602  0.0101
 1093TIP3    H124838   5.871   4.061   7.657 -0.0261 -1.8745 -1.2419
 1093TIP3    H224839   5.986   3.980   7.601  1.8664 -0.7463  0.8525
 1094TIP3   OH224840   0.542   2.152   0.889  0.1150 -0.9663  0.1932
 1094TIP3    H124841   0.564   2.108   0.971  2.4124  2.1589  1.4984
 1094TIP3    H224842   0.464   2.204   0.910  0.6329 -0.2602  0.4407
 1095TIP3   OH224843   5.135   3.014   7.002 -0.5429 -0.1355  0.6405
 1095TIP3    H124844   5.063   3.037   6.944 -0.9966 -2.2198  0.3084
 1095TIP3    H224845   5.111   3.051   7.087 -2.3320 -1.2987  0.6926
 1096TIP3   OH224846   5.646   5.854   1.293  0.1315  0.3429  0.5255
 1096TIP3    H124847   5.587   5.911   1.341 -0.2604 -0.8427  1.5224
 1096TIP3    H224848   5.684   5.797   1.360 -1.2097 -2.0646 -0.5821
 1097TIP3   OH224849   4.046   0.253   2.024 -0.1490 -0.4659  0.4236
 1097TIP3    H124850   4.082   0.329   2.070  1.4340 -2.0807  2.0548
 1097TIP3    H224851   3.966   0.231   2.072 -0.4079 -0.0754  0.1784
 1098TIP3   OH224852   0.139   6.678   8.533 -0.6852 -0.2864 -0.8247
 1098TIP3    H124853   0.057   6.633   8.512 -0.2592 -1.5067  0.0315
 1098TIP3    H224854   0.206   6.611   8.523  0.0021  0.2271  0.2139
 1099TIP3   OH224855   0.594   3.402   0.441 -0.2125  0.0679  0.6421
 1099TIP3    H124856   0.568   3.330   0.384  0.9133  0.8653 -0.9401
 1099TIP3    H224857   0.586   3.481   0.387 -1.0869  1.1337  2.2129
 1100TIP3   OH224858   3.010   6.294   0.300 -0.1971 -0.2477 -1.1503
 1100TIP3    H124859   3.037   6.317   0.211 -0.6570 -2.9200 -2.0660
 1100TIP3    H224860   2.922   6.259   0.290 -0.4078 -0.2316  0.4165
 1101TIP3   OH224861   6.806   3.922   6.767 -0.4183 -0.1096  0.4253
 1101TIP3    H124862   6.834   3.874   6.845 -1.1888  1.0206  1.4587
 1101TIP3    H224863   6.710   3.916   6.769 -0.4629  0.3166 -0.1654
 1102TIP3   OH224864   2.564   0.178   1.249 -0.1644 -0.2158 -0.1758
 1102TIP3    H124865   2.563   0.265   1.210 -2.1480 -1.1433 -2.4842
 1102TIP3    H224866   2.476   0.167   1.287 -0.4366 -1.6403 -1.1138
 1103TIP3   OH224867   2.412   2.737   1.659  0.0158 -0.8219 -0.3463
 1103TIP3    H124868   2.395   2.827   1.631 -0.0449 -0.4301  0.9161
 1103TIP3    H224869   2.507   2.733   1.670  0.0501 -1.0063 -0.6874
 1104TIP3   OH224870   2.670   3.564   2.452  0.1300  0.1459 -0.2592
 1104TIP3    H124871   2.667   3.658   2.437  0.4150 -0.1047 -2.1284
 1104TIP3    H224872   2.761   3.539   2.436 -0.0508 -0.5166 -0.3099
 1105TIP3   OH224873   1.305   4.065   1.527  0.2069 -0.1667  0.1788
 1105TIP3    H124874   1.365   4.074   1.453 -1.5034 -0.4049 -1.2780
 1105TIP3    H224875   1.257   4.147   1.531  0.1853 -0.2048  0.9523
 1106TIP3   OH224876   0.074   2.643   0.272  0.0414  0.0423 -0.1651
 1106TIP3    H124877   0.122   2.595   0.205 -0.7730 -0.7007 -0.2455
 1106TIP3    H224878  -0.017   2.613   0.262  0.0161 -0.6563  1.7428
 1107TIP3   OH224879   2.932   4.392   0.750 -0.6433 -0.6653  0.0975
 1107TIP3    H124880   2.944   4.423   0.660 -1.4191 -1.8356 -0.4387
 1107TIP3    H224881   2.847   4.428   0.776  0.5415  1.5150  1.2100
 1108TIP3   OH224882   3.044   0.521   1.351  0.3305 -0.4151  0.3379
 1108TIP3    H124883   3.032   0.450   1.288 -1.4509 -1.0197  1.2698
 1108TIP3    H224884   3.116   0.492   1.407 -0.4376 -1.5712  0.7680
 1109TIP3   OH224885   4.125   3.080   2.774 -0.9682 -0.0091  0.2725
 1109TIP3    H124886   4.197   3.078   2.711 -2.0641  1.3021 -1.1104
 1109TIP3    H224887   4.164   3.112   2.855  0.0929  0.2600 -0.3319
 1110TIP3   OH224888   0.431   4.404   7.263 -0.0747 -0.1160 -0.4478
 1110TIP3    H124889   0.394   4.462   7.196 -1.5904 -0.6263 -0.0916
 1110TIP3    H224890   0.467   4.330   7.214 -1.9728 -0.9217 -0.6915
 1111TIP3   OH224891   1.770   1.450   7.948 -0.4390 -0.2872 -0.1202
 1111TIP3    H124892   1.727   1.408   7.874 -0.1953  0.7715 -0.8904
 1111TIP3    H224893   1.863   1.445   7.927 -0.2584 -1.3396  0.8693
 1112TIP3   OH224894   1.981   2.439   1.325 -0.0439 -0.5151 -0.0055
 1112TIP3    H124895   1.910   2.432   1.390  2.2571  0.4648  2.8611
 1112TIP3    H224896   2.030   2.357   1.336  1.2298  0.3105  0.6544
 1113TIP3   OH224897   1.702   3.776   2.552  0.4927 -0.0522  0.3868
 1113TIP3    H124898   1.621   3.730   2.573  0.7433 -1.4159 -1.4099
 1113TIP3    H224899   1.758   3.761   2.629 -0.3857 -0.4334  0.9704
 1114TIP3   OH224900   1.190   6.031   0.137 -0.6139  0.1319 -0.0918
 1114TIP3    H124901   1.106   6.076   0.133 -1.3673 -1.2586 -0.8410
 1114TIP3    H224902   1.223   6.032   0.047 -1.6149 -2.4593 -0.5726
 1115TIP3   OH224903   4.683   4.650   1.385  0.0033 -0.1076  0.4845
 1115TIP3    H124904   4.726   4.594   1.450  3.1630  2.9077  1.3654
 1115TIP3    H224905   4.627   4.708   1.437 -0.5815 -0.2630  0.0290
 1116TIP3   OH224906   5.884   0.895   2.693 -0.3968  1.0879  0.1824
 1116TIP3    H124907   5.895   0.912   2.787  0.5758  0.1193  0.2666
 1116TIP3    H224908   5.802   0.845   2.687  0.2270 -0.0285  0.6864
 1117TIP3   OH224909   4.733   1.964   0.308 -0.0436  0.3343 -1.0071
 1117TIP3    H124910   4.789   2.026   0.261  0.2759 -0.4010 -1.6199
 1117TIP3    H224911   4.790   1.892   0.331 -0.1695  0.7319  0.6798
 1118TIP3   OH224912   3.677   5.456   6.436  0.0506  0.0531 -0.1389
 1118TIP3    H124913   3.644   5.416   6.516  0.7203 -1.1838 -0.4444
 1118TIP3    H224914   3.751   5.401   6.411  0.7567  1.2750 -0.8272
 1119TIP3   OH224915   6.400   1.666   0.784  0.8203  0.6016 -0.2043
 1119TIP3    H124916   6.437   1.622   0.707  1.8743  0.7206  0.2083
 1119TIP3    H224917   6.358   1.597   0.833  0.7591  0.3996 -0.5364
 1120TIP3   OH224918   1.957   4.666   2.000 -0.1332 -0.1754  0.8001
 1120TIP3    H124919   1.884   4.696   2.053 -0.1397  1.6603 -0.1640
 1120TIP3    H224920   1.916   4.637   1.918  0.1693  0.3273  0.4707
 1121TIP3   OH224921   4.613   0.830   7.207 -0.0124 -0.7011 -0.2008
 1121TIP3    H124922   4.622   0.736   7.193  1.9926 -0.5723 -0.0675
 1121TIP3    H224923   4.679   0.851   7.273 -1.0636  0.6670  0.4812
 1122TIP3   OH224924   5.728   1.428   7.515  0.6557 -0.3779  0.0266
 1122TIP3    H124925   5.701   1.348   7.471  0.9059  0.1443 -1.1223
 1122TIP3    H224926   5.651   1.454   7.566  0.3018 -0.9258 -0.2123
 1123TIP3   OH224927   0.025   2.172   7.813  0.9242 -0.1988 -0.0426
 1123TIP3    H124928   0.120   2.163   7.819  0.9023 -0.1147  0.4697
 1123TIP3    H224929   0.008   2.265   7.827  0.6256 -0.5107  2.0493
 1124TIP3   OH224930   6.357   2.285   1.054 -0.1876  0.7066  0.3056
 1124TIP3    H124931   6.426   2.349   1.072 -0.9724  1.2853  1.2916
 1124TIP3    H224932   6.279   2.337   1.035 -0.4602  0.0534 -0.4463
 1125TIP3   OH224933   2.947   1.040   7.192 -0.0710  0.1308 -0.0777
 1125TIP3    H124934   2.976   1.124   7.227  1.7909 -1.5156  2.8129
 1125TIP3    H224935   3.025   1.004   7.149 -0.4001 -0.7436  0.0375
 1126TIP3   OH224936   0.664   1.953   1.428 -0.2385 -0.5743 -0.0815
 1126TIP3    H124937   0.728   1.922   1.492 -1.2087  0.0263  1.2233
 1126TIP3    H224938   0.603   1.880   1.419  0.1417 -0.8305 -0.6992
 1127TIP3   OH224939   4.778   1.497   1.288  0.3821 -0.4073  0.4218
 1127TIP3    H124940   4.703   1.553   1.268 -0.4558 -0.6947  2.4308
 1127TIP3    H224941   4.813   1.532   1.370 -1.8973 -4.2244  3.3809
 1128TIP3   OH224942   3.407   6.323   8.113 -0.2503 -0.7513  0.1580
 1128TIP3    H124943   3.350   6.247   8.125 -0.4061 -0.6486  0.0583
 1128TIP3    H224944   3.407   6.367   8.197 -0.2070 -0.8278  0.1993
 1129TIP3   OH224945   6.610   3.760   8.354  0.0096  0.1303 -0.1342
 1129TIP3    H124946   6.682   3.806   8.396  0.3789  0.3296 -0.9656
 1129TIP3    H224947   6.642   3.741   8.266 -0.3881 -1.1196 -0.0326
 1130TIP3   OH224948   3.785   0.103   0.306  0.3894  0.0293  0.2053
 1130TIP3    H124949   3.846   0.124   0.376 -1.0738  0.0904  1.5205
 1130TIP3    H224950   3.722   0.043   0.346 -0.1043 -0.4671 -1.2576
 1131TIP3   OH224951   2.793   0.241   0.784 -0.3010  0.1080  0.4111
 1131TIP3    H124952   2.778   0.225   0.691  0.6480 -0.1551  0.2891
 1131TIP3    H224953   2.807   0.335   0.791  0.3961  0.0263  0.1652
 1132TIP3   OH224954   3.653   6.100   1.273  0.1411  0.3889  0.0959
 1132TIP3    H124955   3.573   6.139   1.239  0.5899  0.9786 -0.2994
 1132TIP3    H224956   3.680   6.038   1.205 -0.7452 -0.8789  0.8643
 1133TIP3   OH224957   6.439   1.075   7.444 -0.6747  0.5330  0.3768
 1133TIP3    H124958   6.426   1.025   7.364  0.5268 -3.3835  2.3611
 1133TIP3    H224959   6.520   1.124   7.430  1.1200 -2.3061  0.0034
 1134TIP3   OH224960   3.014   3.705   0.747  0.0578 -0.1227 -0.2030
 1134TIP3    H124961   2.957   3.636   0.710 -0.8721 -0.7338  2.1962
 1134TIP3    H224962   3.099   3.663   0.756  0.5213  0.2677 -2.2164
 1135TIP3   OH224963   5.582   4.233   1.143 -0.2153  0.5328  0.0448
 1135TIP3    H124964   5.505   4.213   1.197  1.6484 -0.8104  2.3610
 1135TIP3    H224965   5.567   4.185   1.062 -0.6122 -2.0422  1.5410
 1136TIP3   OH224966   6.649   6.372   8.560  0.3160  0.1338  0.3787
 1136TIP3    H124967   6.730   6.420   8.542 -0.4095  1.3362  0.2456
 1136TIP3    H224968   6.592   6.436   8.601 -1.4270 -0.0193 -1.6373
 1137TIP3   OH224969   3.608   3.475   0.398 -0.4538  0.1870  0.4169
 1137TIP3    H124970   3.610   3.405   0.463  0.9809  0.8109  1.0735
 1137TIP3    H224971   3.523   3.517   0.411 -0.4005 -0.0225  1.5391
 1138TIP3   OH224972   4.334   5.754   2.494  0.0540  0.2716 -0.2210
 1138TIP3    H124973   4.346   5.711   2.579  1.1529  2.0031  0.5504
 1138TIP3    H224974   4.258   5.810   2.506 -0.2196 -0.0199 -0.6065
 1139TIP3   OH224975   1.845   6.042   7.108  0.0576 -0.2205 -0.0504
 1139TIP3    H124976   1.841   6.039   7.204  0.0819 -0.4857 -0.0559
 1139TIP3    H224977   1.799   6.122   7.084 -0.5657 -0.5187  0.1460
 1140TIP3   OH224978   5.662   2.007   0.674  0.7524 -0.4459 -0.6873
 1140TIP3    H124979   5.695   1.955   0.747 -0.2574 -1.0589 -0.6598
 1140TIP3    H224980   5.741   2.036   0.628  1.3988 -0.2547  0.4926
 1141TIP3   OH224981   1.152   2.401   7.500  0.1119  0.4558 -0.3634
 1141TIP3    H124982   1.067   2.428   7.465  0.6546  2.2688 -0.3956
 1141TIP3    H224983   1.179   2.327   7.445 -1.9167 -0.9175  0.3657
 1142TIP3   OH224984   4.732   0.984   6.389 -0.2417 -0.3246  0.6003
 1142TIP3    H124985   4.702   0.913   6.332  4.1114 -0.8381 -1.3862
 1142TIP3    H224986   4.780   0.940   6.459 -1.8662  0.5480  2.3565
 1143TIP3   OH224987   0.505   5.581   7.450  0.1894 -0.2693 -0.3931
 1143TIP3    H124988   0.463   5.541   7.375  0.6255 -0.7586 -0.3804
 1143TIP3    H224989   0.561   5.513   7.486  1.0417  0.3801 -0.4497
 1144TIP3   OH224990   3.141   2.629   6.781  0.2559 -0.1213 -0.3700
 1144TIP3    H124991   3.088   2.668   6.711  2.8130  2.0587 -1.2687
 1144TIP3    H224992   3.202   2.571   6.737  0.9356  0.1318  0.2167
 1145TIP3   OH224993   3.639   5.224   6.616 -0.2814  0.1111  0.1210
 1145TIP3    H124994   3.635   5.274   6.697  2.5234  1.2406 -0.3341
 1145TIP3    H224995   3.552   5.236   6.576 -0.6693  2.1714  1.4377
 1146TIP3   OH224996   2.528   5.378   0.778 -0.0202 -1.1611 -1.0164
 1146TIP3    H124997   2.545   5.322   0.701 -0.2397 -3.1073  0.2836
 1146TIP3    H224998   2.522   5.317   0.851 -2.4754  0.3821  0.1805
 1147TIP3   OH224999   5.044   4.166   7.507  0.2590 -0.3160 -0.3934
 1147TIP3    H125000   5.045   4.192   7.415  0.7615 -0.2921 -0.3866
 1147TIP3    H225001   4.963   4.203   7.542 -2.1827 -3.7973 -1.8145
 1148TIP3   OH225002   0.811   6.172   7.371  0.7756 -0.5115 -0.2627
 1148TIP3    H125003   0.854   6.109   7.313  0.8852  0.7721 -1.6023
 1148TIP3    H225004   0.858   6.254   7.358 -0.1352  0.1692  0.5585
 1149TIP3   OH225005   4.685   2.172   7.998  0.4723 -0.0610 -0.0384
 1149TIP3    H125006   4.771   2.212   8.008 -0.2933  1.8135 -0.4807
 1149TIP3    H225007   4.682   2.142   7.907  0.6999 -0.2372  0.0128
 1150TIP3   OH225008   6.650   3.260   2.290 -0.3006 -0.0944 -0.0906
 1150TIP3    H125009   6.554   3.258   2.294 -0.3748  0.1348 -1.5170
 1150TIP3    H225010   6.672   3.348   2.322 -0.5770 -0.0511 -0.0111
 1151TIP3   OH225011   0.356   0.193   0.513  0.0031  0.0832 -0.2162
 1151TIP3    H125012   0.264   0.169   0.513  0.3766 -1.5231 -1.3110
 1151TIP3    H225013   0.402   0.115   0.481  1.9270  0.2600  1.8672
 1152TIP3   OH225014   1.821   6.340   7.738 -0.2164 -1.1557  0.0807
 1152TIP3    H125015   1.896   6.384   7.698 -1.0117 -0.3771 -0.6154
 1152TIP3    H225016   1.765   6.315   7.664 -1.5394 -0.0316  0.6432
 1153TIP3   OH225017   1.269   3.903   2.597  0.7668 -0.4991  1.0811
 1153TIP3    H125018   1.240   3.947   2.677  1.5984  0.7665  0.7111
 1153TIP3    H225019   1.191   3.859   2.564 -0.6031  2.0907  0.5759
 1154TIP3   OH225020   1.321   3.363   2.016 -0.0802 -0.3650 -0.0275
 1154TIP3    H125021   1.280   3.366   1.930  0.4515  0.8093 -0.2506
 1154TIP3    H225022   1.282   3.436   2.064  1.3847  0.4815 -0.0856
 1155TIP3   OH225023   3.044   6.467   6.971  0.5597 -0.5182 -0.0893
 1155TIP3    H125024   3.073   6.377   6.959 -0.3747 -0.7373 -0.7474
 1155TIP3    H225025   2.949   6.462   6.980  0.4827  0.4061 -0.2407
 1156TIP3   OH225026   5.034   5.653   1.683 -0.8152 -0.0704  0.2922
 1156TIP3    H125027   4.994   5.718   1.625  1.9819  0.6692 -1.0202
 1156TIP3    H225028   5.018   5.569   1.640  0.7229  0.4218 -1.3773
 1157TIP3   OH225029   1.375   6.375   7.772 -0.1178  0.7266 -0.0288
 1157TIP3    H125030   1.321   6.351   7.696  1.0643  0.8650 -0.9308
 1157TIP3    H225031   1.448   6.314   7.770 -0.7578 -0.1737  1.8334
 1158TIP3   OH225032   6.677   1.146   2.176 -0.9460  0.0253  0.2020
 1158TIP3    H125033   6.681   1.236   2.144  1.2485 -0.0550  0.1183
 1158TIP3    H225034   6.626   1.151   2.257 -1.4811  1.1992 -0.1908
 1159TIP3   OH225035   5.575   3.890   0.515 -0.2297 -0.0507  0.1040
 1159TIP3    H125036   5.496   3.927   0.476 -0.4690 -1.0435 -0.3752
 1159TIP3    H225037   5.615   3.838   0.445 -0.2453 -1.2108  0.9240
 1160TIP3   OH225038   2.334   2.063   7.807  0.4324  0.3119  0.0975
 1160TIP3    H125039   2.367   2.108   7.885 -0.9690  0.5827  0.5817
 1160TIP3    H225040   2.243   2.041   7.830  0.5535 -1.2419 -0.7799
 1161TIP3   OH225041   4.228   5.612   0.985 -0.1270 -0.5324  0.6070
 1161TIP3    H125042   4.144   5.577   1.014 -0.6430  0.8391  0.8721
 1161TIP3    H225043   4.225   5.705   1.009  1.0980 -0.2549 -0.1951
 1162TIP3   OH225044   2.264   6.598   2.098  0.1007 -0.0695 -0.1280
 1162TIP3    H125045   2.210   6.667   2.059 -0.3250 -0.1203  0.3673
 1162TIP3    H225046   2.238   6.597   2.190 -0.1560 -1.1383 -0.2069
 1163TIP3   OH225047   0.181   5.432   7.822  0.4209  0.1318  0.0786
 1163TIP3    H125048   0.117   5.385   7.767 -0.7081  0.6449  0.9032
 1163TIP3    H225049   0.216   5.364   7.880 -0.4932  0.0879  0.6148
 1164TIP3   OH225050   2.764   5.527   8.316 -0.0063 -0.0270 -0.1921
 1164TIP3    H125051   2.772   5.534   8.411 -1.2066 -0.8069 -0.0174
 1164TIP3    H225052   2.852   5.508   8.286  0.0339 -1.9391  0.9836
 1165TIP3   OH225053   6.118   3.538   7.355  0.3535 -0.5187 -0.3391
 1165TIP3    H125054   6.135   3.618   7.306 -0.8731  0.2319  0.4219
 1165TIP3    H225055   6.179   3.542   7.429 -0.6756  0.4616  0.4948
 1166TIP3   OH225056   0.723   4.665   7.903  0.7734 -0.0994  0.0523
 1166TIP3    H125057   0.676   4.715   7.970  0.3905  0.0423 -0.3137
 1166TIP3    H225058   0.770   4.597   7.951  2.7645  1.6765  0.7862
 1167TIP3   OH225059   0.422   2.147   1.993  0.1162 -0.0906 -0.1402
 1167TIP3    H125060   0.411   2.230   1.947  3.5249 -0.2082 -1.4702
 1167TIP3    H225061   0.457   2.088   1.927 -0.1488 -1.9525  1.3116
 1168TIP3   OH225062   4.043   3.690   1.906  0.2096 -0.3439  0.2191
 1168TIP3    H125063   4.053   3.711   1.999 -0.1400 -0.2233  0.2312
 1168TIP3    H225064   3.976   3.623   1.903  0.3802 -0.5103  0.0684
 1169TIP3   OH225065   1.497   2.124   0.047 -0.1020  0.0136  0.3894
 1169TIP3    H125066   1.578   2.130  -0.003 -0.4406 -0.9740 -0.3215
 1169TIP3    H225067   1.428   2.140  -0.017 -0.5076 -0.1650  0.7741
 1170TIP3   OH225068   5.531   0.478   7.032  0.2225 -0.3393  0.1400
 1170TIP3    H125069   5.538   0.483   7.127  3.0295 -2.9997  0.2462
 1170TIP3    H225070   5.460   0.416   7.016 -0.1250 -0.0392  0.5100
 1171TIP3   OH225071   3.836   3.327   7.996  0.0580  0.6580  0.3549
 1171TIP3    H125072   3.847   3.413   7.955 -0.4650  1.3530  1.5852
 1171TIP3    H225073   3.922   3.307   8.033  0.6113 -0.1072 -1.2616
 1172TIP3   OH225074   4.962   3.709   8.497 -0.3088  0.1067 -0.6415
 1172TIP3    H125075   4.872   3.683   8.480 -0.5044  0.4061 -0.1065
 1172TIP3    H225076   5.013   3.629   8.487 -0.7689 -0.2780  0.0232
 1173TIP3   OH225077   0.861   2.535   2.060 -0.4852 -0.8695 -0.5961
 1173TIP3    H125078   0.804   2.494   1.995 -1.0388 -0.3840 -0.4233
 1173TIP3    H225079   0.815   2.615   2.086 -0.1052 -0.8804  0.1356
 1174TIP3   OH225080   5.717   5.551   8.163 -0.0006  0.5265 -0.4042
 1174TIP3    H125081   5.750   5.603   8.090 -1.0840  2.9270  0.6984
 1174TIP3    H225082   5.700   5.615   8.232 -0.8251 -1.4072  1.2893
 1175TIP3   OH225083   6.145   0.338   1.775 -0.4075 -0.3459  0.4517
 1175TIP3    H125084   6.096   0.408   1.819 -0.0919  0.6497 -0.7101
 1175TIP3    H225085   6.099   0.325   1.692 -0.0418 -1.0340  0.3496
 1176TIP3   OH225086   6.098   5.894   0.968  0.0021  0.5274  0.4185
 1176TIP3    H125087   6.104   5.917   0.875  0.3082 -1.0231  0.0263
 1176TIP3    H225088   6.139   5.968   1.013 -0.9149  1.7117 -0.5961
 1177TIP3   OH225089   4.942   5.870   1.546  0.3251  0.6773  0.3755
 1177TIP3    H125090   4.981   5.957   1.534  0.0336  0.7280 -0.2271
 1177TIP3    H225091   4.956   5.825   1.463 -0.7151  0.6288  0.2123
 1178TIP3   OH225092   2.200   6.474   2.961  0.2432  0.4355 -0.4321
 1178TIP3    H125093   2.272   6.519   3.005 -0.5206  0.5970  0.6797
 1178TIP3    H225094   2.126   6.482   3.021 -0.5260 -0.3223 -1.2508
 1179TIP3   OH225095   3.960   0.872   2.044  0.2569 -0.0645  0.2967
 1179TIP3    H125096   4.029   0.938   2.037  2.0612 -1.8610  0.1147
 1179TIP3    H225097   3.977   0.812   1.971  0.7184 -2.4619  2.2081
 1180TIP3   OH225098   1.484   4.837   7.815  0.6984  0.4925 -0.5181
 1180TIP3    H125099   1.446   4.836   7.727  1.3672  1.0007 -0.8148
 1180TIP3    H225100   1.424   4.783   7.867  0.5080 -0.1312 -1.3680
 1181TIP3   OH225101   3.309   1.900   1.673 -0.1528 -0.2185 -0.1664
 1181TIP3    H125102   3.239   1.860   1.724  0.9093 -1.0941  0.6558
 1181TIP3    H225103   3.330   1.836   1.606 -0.3165  0.1650 -0.5917
 1182TIP3   OH225104   2.321   5.514   7.339 -0.3534  0.2305 -0.0080
 1182TIP3    H125105   2.340   5.459   7.264  0.4824  1.7133 -0.9371
 1182TIP3    H225106   2.401   5.564   7.353 -0.9993  1.0567  0.9217
 1183TIP3   OH225107   0.958   2.575   7.704  0.1644 -0.3208 -0.1384
 1183TIP3    H125108   0.895   2.641   7.677 -0.8338 -1.4521 -0.6338
 1183TIP3    H225109   0.980   2.528   7.624  1.0396 -0.4526  0.1666
 1184TIP3   OH225110   3.471   5.207   2.839  0.5442  0.4799  0.3763
 1184TIP3    H125111   3.451   5.115   2.852 -0.0918  0.3045 -1.5548
 1184TIP3    H225112   3.387   5.246   2.815  1.0238  1.3400  0.0511
 1185TIP3   OH225113   0.643   5.634   2.229  0.0173  0.3130 -0.1447
 1185TIP3    H125114   0.650   5.541   2.209  1.1966  0.8022 -2.2627
 1185TIP3    H225115   0.729   5.670   2.207 -0.8810  2.1313 -0.8830
 1186TIP3   OH225116   3.376   3.684   0.014 -0.1397  0.1247 -0.2552
 1186TIP3    H125117   3.442   3.618   0.036  0.6827  1.0749  0.1609
 1186TIP3    H225118   3.293   3.635   0.015  0.4172 -0.8437  0.3262
 1187TIP3   OH225119   1.251   6.460   8.047 -0.2585 -0.3904 -0.2551
 1187TIP3    H125120   1.272   6.403   8.121 -0.6081 -1.9380 -1.3047
 1187TIP3    H225121   1.251   6.402   7.972 -1.1158  0.9354 -1.3117
 1188TIP3   OH225122   4.518   0.342   2.249 -0.3029  0.0007 -0.3689
 1188TIP3    H125123   4.473   0.258   2.240 -0.0180 -0.3855  1.4119
 1188TIP3    H225124   4.520   0.358   2.344  1.5431  0.9692 -0.5315
 1189TIP3   OH225125   3.353   4.156   7.835  0.2811  0.3733 -0.5441
 1189TIP3    H125126   3.422   4.215   7.806  0.7014  0.9527  1.4890
 1189TIP3    H225127   3.310   4.203   7.907 -1.8253 -0.2459 -1.3085
 1190TIP3   OH225128   4.761   6.291   3.163  0.3091  0.0356  0.1253
 1190TIP3    H125129   4.807   6.373   3.150 -1.5423  1.1965  0.4852
 1190TIP3    H225130   4.782   6.238   3.086 -0.6138  1.9345 -1.5199
 1191TIP3   OH225131   3.030   1.989   1.391  0.1459  0.4759  0.0124
 1191TIP3    H125132   2.952   2.044   1.382 -1.4489 -1.1900  2.5857
 1191TIP3    H225133   3.090   2.023   1.324 -2.3701  2.4510 -1.4441
 1192TIP3   OH225134   3.130   1.735   1.316  0.5274 -0.0867  0.2716
 1192TIP3    H125135   3.103   1.816   1.358  1.1714  0.8294 -1.0129
 1192TIP3    H225136   3.077   1.729   1.237  2.1727  0.4076 -0.9314
 1193TIP3   OH225137   1.418   0.308   7.309 -0.2141 -0.0813  0.2137
 1193TIP3    H125138   1.472   0.337   7.236 -2.1693  1.0126 -0.8597
 1193TIP3    H225139   1.406   0.387   7.362  0.6080 -0.7095  1.3956
 1194TIP3   OH225140   5.998   4.734   7.681  1.0492  0.1262 -0.7205
 1194TIP3    H125141   6.062   4.683   7.730  1.0155 -0.1237 -0.9333
 1194TIP3    H225142   6.039   4.750   7.596  0.6093 -0.5143 -1.0580
 1195TIP3   OH225143   5.922   2.191   1.857 -0.3798 -0.2096  0.3456
 1195TIP3    H125144   5.906   2.153   1.943 -1.2776  1.6457  1.0471
 1195TIP3    H225145   5.986   2.132   1.816 -1.2612 -2.1062  1.5605
 1196TIP3   OH225146   3.442   6.799   8.174  0.2868  0.2466 -0.3872
 1196TIP3    H125147   3.391   6.742   8.232  1.7851 -1.5644 -0.7591
 1196TIP3    H225148   3.376   6.853   8.130 -1.1223 -0.5476  0.6512
 1197TIP3   OH225149   6.021   3.795   1.225 -0.0741 -0.1179 -0.4203
 1197TIP3    H125150   5.935   3.831   1.245  0.3653  0.4411  0.5142
 1197TIP3    H225151   6.002   3.716   1.173 -1.1127  0.3539 -0.7823
 1198TIP3   OH225152   5.795   2.467   0.335  0.5248 -0.0663 -0.0461
 1198TIP3    H125153   5.766   2.401   0.399 -0.0460  1.3843  1.2493
 1198TIP3    H225154   5.755   2.548   0.365 -0.8607  0.4598 -3.0542
 1199TIP3   OH225155   2.574   6.723   2.787 -0.0520  0.4385  0.0558
 1199TIP3    H125156   2.638   6.732   2.858  0.9466  0.0518 -0.7831
 1199TIP3    H225157   2.597   6.641   2.744 -0.3800  0.8912 -0.9985
 1200TIP3   OH225158   0.024   3.132   1.475  0.2940 -0.0262 -0.3035
 1200TIP3    H125159  -0.034   3.092   1.540  0.2338 -0.7860 -0.8080
 1200TIP3    H225160   0.095   3.169   1.526 -0.1125  0.0116  0.2489
 1201TIP3   OH225161   5.293   4.889   1.364  0.0592  0.6394  0.2890
 1201TIP3    H125162   5.262   4.948   1.296 -2.0915 -1.0527 -0.3144
 1201TIP3    H225163   5.216   4.837   1.388  1.1401  0.0499  2.8523
 1202TIP3   OH225164   4.619   4.567   7.301 -0.3776  0.2812 -0.2385
 1202TIP3    H125165   4.684   4.584   7.233 -0.5320  1.0050 -0.2185
 1202TIP3    H225166   4.538   4.603   7.265 -0.7421 -0.5166 -0.2169
 1203TIP3   OH225167   2.398   2.348   2.566  0.1979  0.4669 -0.3670
 1203TIP3    H125168   2.411   2.256   2.588  0.9528  0.6874  0.1277
 1203TIP3    H225169   2.356   2.385   2.644 -0.0092  0.5725 -0.5259
 1204TIP3   OH225170   3.802   6.416   8.293  0.3105  0.5677 -0.0258
 1204TIP3    H125171   3.744   6.348   8.326 -1.3447  1.8276 -0.2343
 1204TIP3    H225172   3.862   6.369   8.234 -1.0034 -0.6815 -0.4330
 1205TIP3   OH225173   2.996   1.297   2.834 -0.1020 -0.2741 -0.1633
 1205TIP3    H125174   3.069   1.263   2.887  0.7449  1.6921 -0.0037
 1205TIP3    H225175   3.018   1.388   2.818 -1.3530 -0.2772 -2.2318
 1206TIP3   OH225176   2.704   0.280   1.763  0.2380  0.2224  0.6313
 1206TIP3    H125177   2.771   0.212   1.752 -0.6791 -0.8858  1.5665
 1206TIP3    H225178   2.733   0.331   1.838 -0.0117 -0.3444  1.1239
 1207TIP3   OH225179   5.495   1.455   7.651 -0.5028  0.4395  0.1187
 1207TIP3    H125180   5.537   1.476   7.735 -0.4250 -0.1833  0.2419
 1207TIP3    H225181   5.432   1.386   7.673 -1.1261  0.9079 -0.1812
 1208TIP3   OH225182   1.624   6.069   8.013 -0.6754  0.1894 -0.1950
 1208TIP3    H125183   1.574   6.141   8.051 -0.3940  0.0622  0.4145
 1208TIP3    H225184   1.557   6.007   7.984 -0.8837 -0.0835  0.8243
 1209TIP3   OH225185   1.692   0.601   2.365  0.4427  0.0171  0.4047
 1209TIP3    H125186   1.615   0.584   2.419 -0.2928 -1.5589 -1.0469
 1209TIP3    H225187   1.740   0.668   2.413 -2.9225  2.8087  0.3277
 1210TIP3   OH225188   4.823   1.500   0.391 -0.1710 -0.1161  0.0239
 1210TIP3    H125189   4.889   1.434   0.412 -0.3791 -0.3343  0.0045
 1210TIP3    H225190   4.762   1.455   0.333 -0.8922 -0.2298  0.8479
 1211TIP3   OH225191   0.768   0.957   8.266  0.3678  0.2718 -0.1035
 1211TIP3    H125192   0.787   0.963   8.359  3.4520  1.6121 -0.6796
 1211TIP3    H225193   0.847   0.917   8.228  0.5666  2.6247 -2.4467
 1212TIP3   OH225194   1.516   4.789   7.399  0.0652 -0.3773 -0.3094
 1212TIP3    H125195   1.427   4.824   7.387 -0.4549 -1.1755  0.9923
 1212TIP3    H225196   1.567   4.862   7.431 -0.0636  0.1394 -1.2465
 1213TIP3   OH225197   1.365   6.863   2.934  0.2830  0.7491 -0.7734
 1213TIP3    H125198   1.310   6.829   2.864 -0.2417 -1.3296  0.5525
 1213TIP3    H225199   1.332   6.822   3.013  2.2075  1.3331  0.4175
 1214TIP3   OH225200   1.893   5.906   6.876 -0.2698 -0.0274  0.6725
 1214TIP3    H125201   1.903   5.954   6.958 -2.4272 -0.5199  1.3018
 1214TIP3    H225202   1.836   5.832   6.898 -1.2435  0.0445 -1.3188
 1215TIP3   OH225203   4.822   1.404   6.441  0.1489 -0.0522  0.2444
 1215TIP3    H125204   4.856   1.333   6.387 -2.1855 -0.6254 -0.5862
 1215TIP3    H225205   4.855   1.386   6.529  2.1559 -0.3656 -0.5224
 1216TIP3   OH225206   2.939   2.575   0.224  0.4584  0.0753  0.1434
 1216TIP3    H125207   2.880   2.573   0.299  1.4896 -2.0446  0.9803
 1216TIP3    H225208   3.023   2.605   0.259  0.5038  0.8313 -0.5637
 1217TIP3   OH225209   4.789   6.014   2.445  0.0810 -0.0974 -0.1658
 1217TIP3    H125210   4.769   6.103   2.474 -4.3160 -0.3360 -1.7702
 1217TIP3    H225211   4.758   5.959   2.517  2.3454 -0.4466  0.6111
 1218TIP3   OH225212   3.414   4.560   0.740 -0.2499  0.0174 -0.3666
 1218TIP3    H125213   3.486   4.619   0.715 -0.0508 -0.0252  0.1042
 1218TIP3    H225214   3.417   4.490   0.675  2.7488 -2.2076  1.8691
 1219TIP3   OH225215   5.831   2.351   7.968  0.3373 -0.2092  0.2332
 1219TIP3    H125216   5.884   2.337   8.047 -1.5003 -0.1305  1.5331
 1219TIP3    H225217   5.877   2.421   7.921  2.7492 -1.8370 -0.0039
 1220TIP3   OH225218   0.853   4.620   3.096  0.7153 -0.1240  0.0166
 1220TIP3    H125219   0.858   4.707   3.057 -1.3046 -0.5914 -1.4755
 1220TIP3    H225220   0.911   4.566   3.042  1.7306  0.1925  0.7557
 1221TIP3   OH225221   2.231   4.917   2.811 -0.0618  0.4682  0.0969
 1221TIP3    H125222   2.255   4.946   2.723  1.4303 -1.2467 -0.1163
 1221TIP3    H225223   2.164   4.851   2.797  1.1596 -0.8159  0.1086
 1222TIP3   OH225224   6.558   1.996   1.198  0.2908  0.0679 -0.3078
 1222TIP3    H125225   6.585   1.949   1.119 -0.3671  1.3037 -1.2912
 1222TIP3    H225226   6.541   1.927   1.262 -2.4131 -1.2164 -2.2263
 1223TIP3   OH225227   0.488   6.570   8.252 -0.0192 -0.2341 -0.2756
 1223TIP3    H125228   0.517   6.520   8.176  0.6185  1.0735 -0.9392
 1223TIP3    H225229   0.569   6.603   8.291 -0.4236  0.4985 -0.0324
 1224TIP3   OH225230   6.506   6.693   0.412 -0.3370 -0.2605 -0.4326
 1224TIP3    H125231   6.431   6.634   0.416 -0.6634  0.0411 -1.7246
 1224TIP3    H225232   6.494   6.753   0.486 -1.3336 -0.2501 -0.5954
 1225TIP3   OH225233   4.182   0.077   0.023 -0.3708 -0.1877  0.3654
 1225TIP3    H125234   4.183  -0.002  -0.031  0.2031 -0.0987  0.2298
 1225TIP3    H225235   4.266   0.120   0.004 -0.9585  0.8113 -0.0847
 1226TIP3   OH225236   6.062   6.135   8.417 -0.0477 -0.2493 -0.1385
 1226TIP3    H125237   5.997   6.192   8.458 -0.5786 -1.2228  0.4086
 1226TIP3    H225238   6.103   6.090   8.490 -1.4419 -2.4818 -0.6384
 1227TIP3   OH225239   4.341   2.863   8.008  0.7049 -0.5629  0.1839
 1227TIP3    H125240   4.354   2.862   7.914  0.6519 -0.3840  0.1740
 1227TIP3    H225241   4.282   2.790   8.026  0.2657 -0.2541  0.0137
 1228TIP3   OH225242   3.219   3.183   8.040  0.0981  0.2606 -0.2916
 1228TIP3    H125243   3.235   3.254   8.102 -0.3992 -0.1664  0.3430
 1228TIP3    H225244   3.288   3.119   8.058  0.7450  0.7123 -1.0863
 1229TIP3   OH225245   5.287   6.731   0.309  0.0848 -0.4124 -0.0560
 1229TIP3    H125246   5.226   6.781   0.255 -0.0128 -0.5429 -0.0667
 1229TIP3    H225247   5.374   6.752   0.273 -0.0914 -2.0605 -1.5838
 1230TIP3   OH225248   1.239   0.791   7.642  0.1881  0.2337  0.6305
 1230TIP3    H125249   1.287   0.789   7.559 -0.0675  1.1893  0.4466
 1230TIP3    H225250   1.304   0.821   7.706 -0.3353  2.3721  0.2273
 1231TIP3   OH225251   4.156   0.452   1.543  0.1372 -0.3212  0.5634
 1231TIP3    H125252   4.206   0.453   1.625  4.3710 -1.3831 -1.7098
 1231TIP3    H225253   4.148   0.544   1.518  0.4114 -0.0920  1.2987
 1232TIP3   OH225254   0.666   3.865   1.943 -0.1009  0.3292 -0.0366
 1232TIP3    H125255   0.711   3.947   1.961 -0.4679  0.8221 -1.2725
 1232TIP3    H225256   0.602   3.856   2.014 -0.5529  1.4803 -0.2911
 1233TIP3   OH225257   6.142   0.182   7.894 -0.1741 -0.1024  0.2791
 1233TIP3    H125258   6.235   0.178   7.918  0.4950 -0.9818 -2.1175
 1233TIP3    H225259   6.130   0.270   7.859  0.0241 -0.2725 -0.2380
 1234TIP3   OH225260   6.185   2.702   1.830 -0.1055 -0.1921 -0.0391
 1234TIP3    H125261   6.121   2.771   1.844  0.2881 -0.2208  2.2643
 1234TIP3    H225262   6.138   2.621   1.849  0.6194 -0.1923  2.0267
 1235TIP3   OH225263   0.583   4.903   3.337  0.1251  0.4282  0.3992
 1235TIP3    H125264   0.628   4.922   3.254  0.7612 -0.6834  0.4654
 1235TIP3    H225265   0.598   4.809   3.351  0.6885  0.7465  2.1614
 1236TIP3   OH225266   2.714   2.905   7.878 -0.2366  0.4780 -0.2043
 1236TIP3    H125267   2.700   2.833   7.816  1.1976  0.2012 -0.2445
 1236TIP3    H225268   2.735   2.862   7.960 -0.5387  0.8576  0.0771
 1237TIP3   OH225269   3.012   6.191   7.968 -0.0137 -0.1894  0.1078
 1237TIP3    H125270   2.970   6.237   7.895 -1.2154 -1.4912 -0.0512
 1237TIP3    H225271   3.092   6.241   7.985  0.2017  0.2407 -1.9826
 1238TIP3   OH225272   4.960   5.997   2.754 -0.3076 -0.2942 -0.0488
 1238TIP3    H125273   4.895   5.926   2.757 -0.2866 -0.2958  1.7672
 1238TIP3    H225274   5.013   5.978   2.677 -0.2591 -2.3042  0.4221
 1239TIP3   OH225275   0.004   5.153   7.128 -0.4572  0.6710  0.2925
 1239TIP3    H125276   0.099   5.145   7.137 -0.5016  0.5720  0.7146
 1239TIP3    H225277  -0.020   5.090   7.060 -0.4549 -0.8003  1.5914
 1240TIP3   OH225278   6.130   1.135   1.753 -0.1030 -0.5712  0.2395
 1240TIP3    H125279   6.127   1.159   1.846  0.2362  0.2500  0.0400
 1240TIP3    H225280   6.055   1.180   1.714  0.4808  0.1047 -0.1180
 1241TIP3   OH225281   2.796   6.142   1.579  0.8208 -1.1692  0.3396
 1241TIP3    H125282   2.884   6.171   1.554  1.2837 -2.2836  0.6208
 1241TIP3    H225283   2.777   6.069   1.520  0.0611 -0.8891  0.2376
 1242TIP3   OH225284   2.927   5.521   3.022  0.1534  0.3844  0.0593
 1242TIP3    H125285   2.930   5.428   3.045  0.2518  0.1320 -0.9202
 1242TIP3    H225286   2.834   5.538   3.006  0.2401  0.2132 -0.6650
 1243TIP3   OH225287   4.242   6.538   1.103 -0.7884  0.0865 -0.9966
 1243TIP3    H125288   4.198   6.484   1.169  3.3522 -1.0272  1.2375
 1243TIP3    H225289   4.199   6.516   1.021 -0.7316 -5.2093  0.0712
 1244TIP3   OH225290   3.107   5.241   8.542 -0.0124 -0.1536  0.0941
 1244TIP3    H125291   3.119   5.332   8.570  1.2120 -0.5669  0.9652
 1244TIP3    H225292   3.130   5.189   8.619 -1.1647 -1.2098 -0.2371
 1245TIP3   OH225293   0.571   1.500   0.353 -0.0918  0.3720 -0.0397
 1245TIP3    H125294   0.518   1.426   0.324 -0.2507  0.7787 -0.8030
 1245TIP3    H225295   0.584   1.485   0.447 -1.4614  0.2004  0.1388
 1246TIP3   OH225296   5.854   0.204   2.893  0.2913 -0.3779 -0.0206
 1246TIP3    H125297   5.794   0.174   2.961  0.4706  1.3871  0.9818
 1246TIP3    H225298   5.801   0.266   2.842  0.6537 -0.4201 -0.4489
 1247TIP3   OH225299   1.896   2.527   1.951  0.7026  0.1290 -0.2097
 1247TIP3    H125300   1.848   2.446   1.968  1.3435  0.1104  1.6950
 1247TIP3    H225301   1.983   2.512   1.987  0.7627  1.7386  0.4015
 1248TIP3   OH225302   2.243   1.556   8.242 -0.2785  0.3546  0.3247
 1248TIP3    H125303   2.213   1.645   8.258  1.5780  1.2545 -0.9275
 1248TIP3    H225304   2.329   1.552   8.284 -1.0159 -1.4202  1.8263
 1249TIP3   OH225305   5.257   1.996   7.430  0.4137  0.3480 -0.0172
 1249TIP3    H125306   5.288   1.946   7.506  0.7617 -1.4504 -1.2741
 1249TIP3    H225307   5.164   2.009   7.446  0.6046  0.5151  0.9961
 1250TIP3   OH225308   5.850   2.161   6.659  0.0158 -0.2232 -0.2740
 1250TIP3    H125309   5.757   2.182   6.653 -0.4809 -1.7700  1.3182
 1250TIP3    H225310   5.894   2.246   6.652 -1.6873  0.9592  2.0910
 1251TIP3   OH225311   3.174   2.493   1.010 -0.2434 -0.1789  0.3286
 1251TIP3    H125312   3.114   2.441   1.063  0.8026 -1.1597  0.5896
 1251TIP3    H225313   3.184   2.444   0.928  0.0909  0.0512  0.2253
 1252TIP3   OH225314   1.490   4.314   8.139  1.1077  0.0732  0.3716
 1252TIP3    H125315   1.557   4.249   8.162  1.2288 -0.0414 -0.2600
 1252TIP3    H225316   1.537   4.397   8.136  0.8582  0.2788  1.6407
 1253TIP3   OH225317   6.600   4.621   8.539  0.4296  0.0842  0.3376
 1253TIP3    H125318   6.537   4.552   8.516  1.3322 -0.3673 -0.9664
 1253TIP3    H225319   6.629   4.599   8.627 -0.3736 -0.3795  0.4920
 1254TIP3   OH225320   5.088   5.968   1.053 -0.0343 -0.1873  0.4807
 1254TIP3    H125321   5.130   5.907   1.113  0.3748  1.1168  1.5627
 1254TIP3    H225322   5.006   5.992   1.096 -0.4312 -0.3464 -0.1720
 1255TIP3   OH225323   3.629   6.292   7.939 -1.1158  0.0173 -0.0603
 1255TIP3    H125324   3.695   6.246   7.990 -1.6886  1.2077  1.8745
 1255TIP3    H225325   3.557   6.308   8.001 -2.3630  0.5010 -1.5637
 1256TIP3   OH225326   1.404   4.276   2.455  0.3182 -0.5166 -0.4617
 1256TIP3    H125327   1.398   4.291   2.549 -0.6267  2.4771 -0.8877
 1256TIP3    H225328   1.491   4.310   2.431 -0.0466  0.1513 -0.8598
 1257TIP3   OH225329   2.466   5.653   1.407  0.4775 -0.1355 -0.2184
 1257TIP3    H125330   2.460   5.623   1.316 -0.2101 -1.7528  0.3281
 1257TIP3    H225331   2.522   5.589   1.450  0.3805  0.3283  0.6272
 1258TIP3   OH225332   6.799   5.462   1.604  0.4281 -0.1934  0.5323
 1258TIP3    H125333   6.782   5.372   1.634 -1.3693  0.2830  1.0710
 1258TIP3    H225334   6.777   5.517   1.679  0.0952  0.7856 -0.2620
 1259TIP3   OH225335   3.055   3.941   1.066 -0.2523  0.1141 -0.1444
 1259TIP3    H125336   3.147   3.935   1.042 -0.1747  0.5783  0.0246
 1259TIP3    H225337   3.019   3.854   1.046 -0.5578  0.8774 -3.4366
 1260TIP3   OH225338   0.280   4.537   0.044 -0.3333  0.2604  0.2970
 1260TIP3    H125339   0.202   4.484   0.059  0.0162 -0.9092 -1.6519
 1260TIP3    H225340   0.288   4.592   0.122 -1.7607 -1.2605  1.5736
 1261TIP3   OH225341   1.215   1.749   8.505 -0.0812 -0.0763  0.0455
 1261TIP3    H125342   1.302   1.733   8.543 -0.1191 -1.9943 -0.5916
 1261TIP3    H225343   1.215   1.700   8.422 -2.0344 -0.7497  0.3937
 1262TIP3   OH225344   0.784   3.748   0.785 -0.1304  0.7666 -0.7993
 1262TIP3    H125345   0.798   3.659   0.815 -0.6959  0.9245 -0.0439
 1262TIP3    H225346   0.736   3.790   0.856  2.1631  2.3575 -0.0639
 1263TIP3   OH225347   2.541   1.890   0.505 -0.1107 -0.0062 -0.5848
 1263TIP3    H125348   2.611   1.928   0.452 -0.2386  2.4043  0.8526
 1263TIP3    H225349   2.566   1.909   0.596 -3.4123  2.6792 -0.0321
 1264TIP3   OH225350   2.954   5.820   1.732  0.2826  0.0314  0.1902
 1264TIP3    H125351   2.861   5.834   1.752  0.1262 -0.9394  0.1602
 1264TIP3    H225352   3.000   5.873   1.798 -0.2815  0.6601  0.0986
 1265TIP3   OH225353   1.627   2.425   7.822  0.3287  0.3492  0.0549
 1265TIP3    H125354   1.648   2.340   7.861  0.9526  0.4405 -0.0752
 1265TIP3    H225355   1.535   2.419   7.799  0.4851 -0.4523 -0.3645
 1266TIP3   OH225356   1.040   6.690   1.923  0.0742 -0.5235  0.0215
 1266TIP3    H125357   1.093   6.749   1.869 -0.5542 -1.4238 -1.6733
 1266TIP3    H225358   0.950   6.721   1.912 -0.0469 -0.6033  0.7284
 1267TIP3   OH225359   4.190   4.305   8.177 -0.4199 -0.0760 -0.3846
 1267TIP3    H125360   4.151   4.371   8.236  0.0762 -0.2949  0.1993
 1267TIP3    H225361   4.220   4.355   8.102 -0.5922  0.2847 -0.2194
 1268TIP3   OH225362   6.898   4.544   1.572 -0.2516  0.7639  0.1843
 1268TIP3    H125363   6.902   4.604   1.497 -0.1851  0.9285  0.3194
 1268TIP3    H225364   6.874   4.600   1.646 -0.5311  0.5636  0.2458
 1269TIP3   OH225365   5.233   6.256   0.016 -0.1216  0.0566  0.0232
 1269TIP3    H125366   5.197   6.177   0.057 -1.2563  0.9854  0.8986
 1269TIP3    H225367   5.324   6.259   0.046 -0.1831 -0.6923  0.3088
 1270TIP3   OH225368   3.383   2.595   2.381 -0.3381  0.5657  0.0457
 1270TIP3    H125369   3.450   2.561   2.439  1.8074  1.3740 -1.8138
 1270TIP3    H225370   3.304   2.598   2.435  0.6979 -1.8613  1.8875
 1271TIP3   OH225371   2.401   6.880   8.394  0.3546  0.2015  0.3699
 1271TIP3    H125372   2.452   6.817   8.444  0.7027  0.6037  0.5271
 1271TIP3    H225373   2.450   6.962   8.402  0.7218  0.1519 -1.0857
 1272TIP3   OH225374   5.816   3.850   8.041 -0.4677  0.0055 -0.9111
 1272TIP3    H125375   5.763   3.922   8.005  0.2794  1.5705  0.9379
 1272TIP3    H225376   5.753   3.781   8.059 -1.6520  1.1603 -0.4259
 1273TIP3   OH225377   4.557   6.798   2.309  0.1101 -0.3823  0.4348
 1273TIP3    H125378   4.643   6.761   2.329 -0.3168 -1.4486  0.4030
 1273TIP3    H225379   4.495   6.734   2.344 -0.6634 -0.0479 -0.2829
 1274TIP3   OH225380   1.861   1.737   7.403 -0.1121  0.6266 -0.5842
 1274TIP3    H125381   1.769   1.748   7.426 -0.0884  1.3048 -0.8088
 1274TIP3    H225382   1.908   1.788   7.468  0.2684 -1.5718  0.9724
 1275TIP3   OH225383   3.914   1.005   7.643 -0.2430 -0.2025 -0.3421
 1275TIP3    H125384   3.900   1.099   7.657 -0.0967  0.0255 -1.6212
 1275TIP3    H225385   4.003   0.999   7.610 -0.5880 -0.6755 -1.2159
 1276TIP3   OH225386   3.075   5.536   7.379 -0.0533 -0.0879 -0.6036
 1276TIP3    H125387   3.118   5.523   7.463 -0.0608  1.0295 -0.4103
 1276TIP3    H225388   3.071   5.448   7.340  0.3076 -0.5563  0.3770
 1277TIP3   OH225389   2.275   4.373   0.727 -0.1218  0.5397 -0.9393
 1277TIP3    H125390   2.296   4.396   0.818 -0.1255  1.3082 -1.1298
 1277TIP3    H225391   2.312   4.285   0.716  2.2247  1.4453 -0.9681
 1278TIP3   OH225392   3.634   0.173   2.072  0.3002  0.4773  0.7098
 1278TIP3    H125393   3.713   0.197   2.122  1.3493  2.3570 -1.6554
 1278TIP3    H225394   3.564   0.225   2.112  0.0413 -1.5132  3.0973
 1279TIP3   OH225395   0.008   0.831   8.379 -0.2976  0.4225 -0.1579
 1279TIP3    H125396   0.008   0.737   8.400 -1.8853  0.2324 -0.8845
 1279TIP3    H225397  -0.063   0.867   8.433 -0.4939  0.9846 -0.7845
 1280TIP3   OH225398   3.376   4.064   0.514 -0.6235  0.0245  0.0488
 1280TIP3    H125399   3.390   4.038   0.423 -1.8241  1.2332 -0.5055
 1280TIP3    H225400   3.329   3.990   0.553  0.7803 -0.9374  0.0029
 1281TIP3   OH225401   4.938   5.401   6.812  0.2859 -0.3559  0.3296
 1281TIP3    H125402   5.014   5.342   6.819  0.0298 -0.8515 -0.8356
 1281TIP3    H225403   4.904   5.386   6.724 -0.6720  0.4807  0.5381
 1282TIP3   OH225404   4.271   5.185   7.292  0.2953 -0.5960  0.1854
 1282TIP3    H125405   4.188   5.158   7.251 -0.4320  0.6615  0.7585
 1282TIP3    H225406   4.338   5.160   7.229 -0.6742 -0.0269 -1.1209
 1283TIP3   OH225407   3.334   0.089   1.601 -0.5973  0.2111  0.0772
 1283TIP3    H125408   3.400   0.146   1.562  0.8161 -0.3375  1.5107
 1283TIP3    H225409   3.257   0.144   1.612 -0.4513  0.8265 -1.7942
 1284TIP3   OH225410   3.567   1.003   8.370 -0.0496  0.1420  0.5912
 1284TIP3    H125411   3.587   1.030   8.280 -0.7043 -2.5690 -0.4863
 1284TIP3    H225412   3.578   1.082   8.422  1.1901  1.6259 -1.7372
 1285TIP3   OH225413   0.220   2.696   7.059 -0.1358 -0.6944  0.9402
 1285TIP3    H125414   0.213   2.623   6.998 -0.5688  0.1980 -0.1274
 1285TIP3    H225415   0.134   2.700   7.102 -0.1349 -0.7700  0.9487
 1286TIP3   OH225416   2.280   5.714   7.771  0.2241  0.4287  0.3482
 1286TIP3    H125417   2.274   5.756   7.685  0.9556 -2.6905 -1.4035
 1286TIP3    H225418   2.373   5.718   7.793  1.1151 -3.4788 -1.8264
 1287TIP3   OH225419   4.217   1.686   8.423  0.1544 -0.8027 -0.2037
 1287TIP3    H125420   4.182   1.715   8.507 -1.3857  1.4627 -1.5130
 1287TIP3    H225421   4.290   1.746   8.405  0.3277 -1.1253 -0.6010
 1288TIP3   OH225422   2.799   6.010   1.946  0.2387  0.1784 -0.0613
 1288TIP3    H125423   2.740   5.981   1.877  0.0455 -0.7721  0.4759
 1288TIP3    H225424   2.805   5.935   2.006 -0.0965  1.1828  1.2910
 1289TIP3   OH225425   5.211   1.102   2.434  0.0378  0.0595 -0.0273
 1289TIP3    H125426   5.202   1.073   2.343 -0.6335  1.4322 -0.4327
 1289TIP3    H225427   5.281   1.167   2.431  0.1674 -0.0519  0.4902
 1290TIP3   OH225428   3.555   2.785   8.099 -0.1089 -0.1759 -0.0254
 1290TIP3    H125429   3.496   2.713   8.121 -0.2597 -0.7217 -1.9743
 1290TIP3    H225430   3.602   2.754   8.021  4.0347 -0.4724  2.2881
 1291TIP3   OH225431   5.560   3.354   1.220 -0.4926 -0.0020  0.7868
 1291TIP3    H125432   5.634   3.405   1.253 -1.8668  1.1292  2.2608
 1291TIP3    H225433   5.547   3.385   1.130  0.7280 -0.1418  0.5451
 1292TIP3   OH225434   3.053   0.623   1.716 -0.0126 -0.8853  0.2228
 1292TIP3    H125435   3.099   0.673   1.784 -0.9254 -0.8188  0.8045
 1292TIP3    H225436   3.123   0.585   1.664  0.7039  0.2576  0.3154
 1293TIP3   OH225437   4.697   4.521   1.808  0.2969  0.8721 -0.1535
 1293TIP3    H125438   4.608   4.557   1.815 -0.0878  0.4688 -2.3371
 1293TIP3    H225439   4.745   4.561   1.881 -1.6285  1.1851  1.0017
 1294TIP3   OH225440   0.042   1.199   0.557 -0.2914 -0.8584 -0.6229
 1294TIP3    H125441   0.043   1.109   0.524 -0.3249 -1.1320  0.0944
 1294TIP3    H225442   0.123   1.206   0.607 -1.5088 -1.3479  1.5193
 1295TIP3   OH225443   0.211   3.899   1.987  0.7002 -0.3268 -0.6427
 1295TIP3    H125444   0.136   3.841   1.997  1.7217 -1.7482 -0.8115
 1295TIP3    H225445   0.190   3.953   1.911  0.1535 -1.2048 -1.1304
 1296TIP3   OH225446   0.492   2.393   7.879  0.0389  0.5373  0.3941
 1296TIP3    H125447   0.569   2.407   7.824 -0.5613  0.3404 -0.5061
 1296TIP3    H225448   0.521   2.418   7.967  1.0726  0.6422  0.0341
 1297TIP3   OH225449   4.719   1.403   1.939 -0.4939  0.4726  0.1544
 1297TIP3    H125450   4.707   1.396   2.033  2.0588  0.1110  0.5129
 1297TIP3    H225451   4.680   1.324   1.903  0.1823 -0.3122  1.1106
 1298TIP3   OH225452   1.348   6.442   0.591 -0.8735  0.5479  0.2108
 1298TIP3    H125453   1.435   6.472   0.565 -0.1899  0.1803  1.9353
 1298TIP3    H225454   1.330   6.368   0.533  0.2635  0.1978  0.2787
 1299TIP3   OH225455   6.440   5.672   1.562 -0.0760 -0.0914 -0.0382
 1299TIP3    H125456   6.509   5.683   1.627  0.3057  1.0890 -0.6173
 1299TIP3    H225457   6.474   5.605   1.502  0.2239 -0.0808  0.1180
 1300TIP3   OH225458   5.288   3.916   7.772  0.3930  0.3159  0.5041
 1300TIP3    H125459   5.242   3.996   7.797 -2.4601 -1.0422  0.1282
 1300TIP3    H225460   5.367   3.914   7.826  0.0023  2.8246  1.2665
 1301TIP3   OH225461   5.802   3.186   8.201  0.3614 -0.3009 -0.0334
 1301TIP3    H125462   5.882   3.238   8.197  0.2739 -0.1471  0.1690
 1301TIP3    H225463   5.747   3.222   8.132 -0.5037  1.2479  1.3903
 1302TIP3   OH225464   6.728   6.508   7.579 -0.6739  0.0319 -0.5745
 1302TIP3    H125465   6.746   6.425   7.534  2.4417  0.8551 -1.0245
 1302TIP3    H225466   6.809   6.558   7.573 -2.1547  2.8023  0.4841
 1303TIP3   OH225467   1.705   4.736   1.482  0.2826  0.3108 -1.1053
 1303TIP3    H125468   1.665   4.821   1.501 -0.4666 -0.6748  2.5671
 1303TIP3    H225469   1.797   4.747   1.505 -0.0405 -0.1210  0.4671
 1304TIP3   OH225470   4.295   0.448   1.798 -0.4614  0.0558 -0.9223
 1304TIP3    H125471   4.291   0.447   1.893 -2.6195 -0.7311 -0.9642
 1304TIP3    H225472   4.387   0.434   1.777  0.4767  2.6991  1.0128
 1305TIP3   OH225473   6.265   4.146   0.592 -0.2692 -0.3600  0.3527
 1305TIP3    H125474   6.256   4.099   0.509 -1.2716  0.3459  0.0406
 1305TIP3    H225475   6.328   4.215   0.573 -0.7399  0.0021  0.0727
 1306TIP3   OH225476   4.751   5.841   7.359  0.5758  0.3356  0.4755
 1306TIP3    H125477   4.810   5.915   7.371 -0.0765  0.7518  1.2958
 1306TIP3    H225478   4.799   5.779   7.305  1.1797  1.3115 -0.1281
 1307TIP3   OH225479   1.860   3.261   0.467 -0.6574  0.1085  0.3154
 1307TIP3    H125480   1.855   3.167   0.484 -2.3065  0.0542 -0.2968
 1307TIP3    H225481   1.951   3.284   0.487 -0.4589 -1.4259  1.3590
 1308TIP3   OH225482   2.592   0.016   7.998 -0.1932  0.0599 -0.4192
 1308TIP3    H125483   2.682   0.018   7.967  0.3292 -0.2855  0.9946
 1308TIP3    H225484   2.540   0.051   7.926  1.1756  1.1348 -0.9087
 1309TIP3   OH225485   0.640   5.111   2.558 -0.4396 -0.6085  0.1541
 1309TIP3    H125486   0.702   5.065   2.501  0.1499 -2.1653  1.9330
 1309TIP3    H225487   0.576   5.045   2.582 -1.5181  0.4080  0.1305
 1310TIP3   OH225488   0.712   2.463   7.719 -0.4946  0.1289  0.5723
 1310TIP3    H125489   0.804   2.487   7.712 -0.3305 -0.7284 -0.4902
 1310TIP3    H225490   0.671   2.500   7.640 -0.5009 -1.7711 -0.3786
 1311TIP3   OH225491   5.133   6.399   0.898  0.3917  0.4619 -0.1486
 1311TIP3    H125492   5.150   6.486   0.936 -2.4148  0.0288  2.4906
 1311TIP3    H225493   5.171   6.338   0.961  0.0580 -0.2506 -0.6314
 1312TIP3   OH225494   4.890   0.258   7.368  0.1892 -0.1164  0.2480
 1312TIP3    H125495   4.898   0.353   7.370  1.9315 -0.2073 -0.4815
 1312TIP3    H225496   4.802   0.242   7.334 -0.6319  1.1929  1.6114
 1313TIP3   OH225497   0.434   6.639   1.344  0.3400 -0.2618  0.2863
 1313TIP3    H125498   0.363   6.575   1.338 -1.4055  1.6453 -0.8043
 1313TIP3    H225499   0.504   6.602   1.290  0.4604 -2.4280  1.7752
 1314TIP3   OH225500   3.394   1.015   0.859 -0.3056 -0.4629 -0.2098
 1314TIP3    H125501   3.350   0.956   0.798 -2.7019 -0.5000  1.4146
 1314TIP3    H225502   3.372   1.103   0.826 -0.2212 -0.4825 -0.3183
 1315TIP3   OH225503   4.115   6.740   2.351  0.5038 -0.2513  0.4037
 1315TIP3    H125504   4.142   6.815   2.297  4.0367 -1.3779  0.3783
 1315TIP3    H225505   4.075   6.780   2.429  0.4402  1.5772 -0.5176
 1316TIP3   OH225506   4.875   3.703   7.951  0.2894 -0.0766 -0.3798
 1316TIP3    H125507   4.808   3.739   7.893 -0.0903  3.7209  2.0305
 1316TIP3    H225508   4.956   3.708   7.901 -0.5607 -0.6164 -1.8503
 1317TIP3   OH225509   6.658   6.531   7.926  0.3795  0.0733 -0.0379
 1317TIP3    H125510   6.732   6.519   7.867  0.1977  0.4629 -0.3537
 1317TIP3    H225511   6.691   6.588   7.995  0.1333  1.0057 -0.6641
 1318TIP3   OH225512   2.638   5.270   8.391 -0.1474  0.3975 -0.2642
 1318TIP3    H125513   2.594   5.352   8.418  1.1113  1.3154 -0.9099
 1318TIP3    H225514   2.646   5.277   8.296 -0.8543 -0.9286 -0.4446
 1319TIP3   OH225515   0.242   5.614   3.260  0.0854 -0.4781  0.5824
 1319TIP3    H125516   0.288   5.671   3.322  0.1780  2.3747 -1.8773
 1319TIP3    H225517   0.304   5.602   3.188 -1.0411 -1.2539 -0.2993
 1320TIP3   OH225518   0.262   5.712   1.826 -0.6132 -0.0612 -0.1271
 1320TIP3    H125519   0.247   5.652   1.752  0.6815 -1.5941  0.8045
 1320TIP3    H225520   0.192   5.692   1.888 -2.4755  2.1057 -1.3737
 1321TIP3   OH225521   6.083   3.321   2.515  0.2393  0.3275  0.2828
 1321TIP3    H125522   6.119   3.234   2.499 -0.1980  0.1779  0.0763
 1321TIP3    H225523   6.157   3.381   2.506  0.4980 -0.0054  0.2080
 1322TIP3   OH225524   6.267   6.314   1.359  0.9473  0.0157 -0.1299
 1322TIP3    H125525   6.292   6.267   1.439 -0.3001 -1.0066 -0.2969
 1322TIP3    H225526   6.273   6.248   1.290  1.0901  0.6375 -0.7153
 1323TIP3   OH225527   4.149   2.803   1.793  0.3198 -0.0436 -0.3195
 1323TIP3    H125528   4.127   2.715   1.822 -0.3817  0.1163 -0.3451
 1323TIP3    H225529   4.210   2.790   1.720 -0.3349 -0.5245 -0.7865
 1324TIP3   OH225530   3.399   3.931   7.464 -0.2179  0.1124 -0.1133
 1324TIP3    H125531   3.320   3.880   7.449  1.0819 -1.8784 -0.6571
 1324TIP3    H225532   3.470   3.875   7.430  1.6538  0.7810  2.3878
 1325TIP3   OH225533   2.479   2.194   7.039  0.3661 -0.3811  0.2191
 1325TIP3    H125534   2.545   2.127   7.058 -0.9306 -1.3747  1.4563
 1325TIP3    H225535   2.486   2.208   6.945  2.4297 -0.3232  0.3358
 1326TIP3   OH225536   1.251   2.576   6.879 -0.3039  0.4699  0.0346
 1326TIP3    H125537   1.267   2.670   6.893  1.7891  0.1002  0.3814
 1326TIP3    H225538   1.196   2.573   6.800  0.9523  1.9397 -0.9582
 1327TIP3   OH225539   3.398   5.494   8.289  0.0527  0.5690  0.8105
 1327TIP3    H125540   3.404   5.441   8.209  1.8651  0.7396  0.7893
 1327TIP3    H225541   3.480   5.543   8.291 -0.1112  0.8224  2.6148
 1328TIP3   OH225542   2.090   5.366   7.425 -0.3499 -0.1651  0.4750
 1328TIP3    H125543   2.053   5.445   7.466  0.9759  0.0970  1.2330
 1328TIP3    H225544   2.183   5.386   7.414  0.0425 -1.6788  0.8193
 1329TIP3   OH225545   4.900   4.789   1.168  0.0888 -0.2563 -0.6681
 1329TIP3    H125546   4.853   4.720   1.121 -0.6176  0.0721 -0.4557
 1329TIP3    H225547   4.833   4.830   1.223  0.8132 -0.3850  0.3451
 1330TIP3   OH225548   1.547   3.010   2.089 -0.2445  0.3797  0.1767
 1330TIP3    H125549   1.639   3.033   2.096 -0.3523  1.5472 -1.5974
 1330TIP3    H225550   1.524   2.975   2.175  2.2074 -1.4041  0.2122
 1331TIP3   OH225551   1.183   2.983   8.046 -0.4337 -0.9224  0.7219
 1331TIP3    H125552   1.241   3.039   7.994 -0.2344 -0.7410  1.1352
 1331TIP3    H225553   1.204   2.894   8.018 -0.2739 -0.8303  0.5464
 1332TIP3   OH225554   6.016   0.930   7.600 -0.2843 -0.0436  0.8413
 1332TIP3    H125555   5.936   0.905   7.646 -1.5035  0.7358 -0.7644
 1332TIP3    H225556   6.037   0.855   7.544  0.3249 -0.3828  1.5094
 1333TIP3   OH225557   6.085   2.734   8.302 -0.6877 -0.5838 -0.4518
 1333TIP3    H125558   6.061   2.696   8.386  0.0423 -1.3975 -0.5906
 1333TIP3    H225559   6.015   2.795   8.281 -3.0002 -3.2602 -1.1349
 1334TIP3   OH225560   5.373   6.753   0.827 -0.0619  0.0627  0.7541
 1334TIP3    H125561   5.437   6.681   0.820 -1.6139 -1.4801  1.6873
 1334TIP3    H225562   5.414   6.816   0.887  1.6080  0.3211 -0.5822
 1335TIP3   OH225563   5.337   0.888   6.449 -0.4166 -0.4439 -0.1498
 1335TIP3    H125564   5.261   0.924   6.402 -0.2573 -1.3546 -1.1451
 1335TIP3    H225565   5.358   0.955   6.514 -1.0025  0.6105 -1.0011
 1336TIP3   OH225566   2.547   0.471   0.826  0.4100 -0.3097  0.0611
 1336TIP3    H125567   2.497   0.546   0.860 -0.0689  0.1381 -1.5633
 1336TIP3    H225568   2.594   0.438   0.903 -0.2716  0.9311  1.0642
 1337TIP3   OH225569   2.281   3.197   0.137 -0.4919 -0.0465 -0.1544
 1337TIP3    H125570   2.262   3.104   0.148  0.2228 -0.3567 -1.3157
 1337TIP3    H225571   2.196   3.239   0.125 -0.7603 -0.7012 -0.5645
 1338TIP3   OH225572   3.017   6.697   1.792 -0.2096 -0.9839 -0.2661
 1338TIP3    H125573   3.084   6.667   1.854 -0.4839 -0.4481  0.3059
 1338TIP3    H225574   2.940   6.715   1.847 -0.7503 -1.3737 -0.8843
 1339TIP3   OH225575   4.213   5.629   7.490  0.0280  0.5578 -0.6772
 1339TIP3    H125576   4.204   5.534   7.489 -2.1703  0.7178 -0.2318
 1339TIP3    H225577   4.231   5.651   7.581  0.8973  0.5760 -0.8391
 1340TIP3   OH225578   2.610   3.606   0.383 -0.4325 -0.0996 -0.1117
 1340TIP3    H125579   2.641   3.646   0.302  0.7175  1.2448  0.9487
 1340TIP3    H225580   2.539   3.549   0.355 -1.5944  2.0105 -1.8488
 1341TIP3   OH225581   2.516   5.086   0.023  0.2354 -0.0736 -0.6159
 1341TIP3    H125582   2.517   5.006  -0.030  2.0427  0.4446 -1.4395
 1341TIP3    H225583   2.547   5.154  -0.036 -1.8479  1.4140 -0.1070
 1342TIP3   OH225584   2.384   4.910   1.315  0.4421 -0.4788  0.0459
 1342TIP3    H125585   2.333   4.991   1.312 -0.3821 -1.0047 -0.3918
 1342TIP3    H225586   2.345   4.854   1.248  0.4157 -1.5853  0.9578
 1343TIP3   OH225587   5.609   0.061   7.859  0.0857 -0.0694  0.2295
 1343TIP3    H125588   5.682   0.119   7.837 -0.4676 -0.0492 -1.8264
 1343TIP3    H225589   5.598   0.007   7.780 -1.8138 -0.3862  0.6782
 1344TIP3   OH225590   2.912   3.043   1.503 -0.3311 -0.4672 -0.0531
 1344TIP3    H125591   2.921   3.092   1.585 -2.2747 -0.4839  0.2004
 1344TIP3    H225592   2.980   2.975   1.509  0.6082  0.4919  0.8055
 1345TIP3   OH225593   0.151   6.476   1.936 -0.4265 -0.4247  0.0246
 1345TIP3    H125594   0.200   6.555   1.960  0.0957 -0.6280 -0.3740
 1345TIP3    H225595   0.061   6.495   1.965 -0.6264  0.9032 -1.2930
 1346TIP3   OH225596   5.280   1.507   0.723  0.2251  0.0669 -0.3563
 1346TIP3    H125597   5.212   1.483   0.786 -1.3326 -0.2746 -2.0562
 1346TIP3    H225598   5.312   1.424   0.688 -0.5894  0.2604 -1.6371
 1347TIP3   OH225599   0.583   1.256   2.199  0.4492  0.0341 -0.7328
 1347TIP3    H125600   0.611   1.166   2.211 -1.5814 -0.4428  1.0190
 1347TIP3    H225601   0.504   1.250   2.145 -0.1863  0.6384  0.0924
 1348TIP3   OH225602   4.834   3.189   7.431  0.0100  0.0121 -0.0324
 1348TIP3    H125603   4.827   3.214   7.339  0.6219 -1.4622 -0.5017
 1348TIP3    H225604   4.768   3.242   7.475  0.3122  1.3844 -1.1755
 1349TIP3   OH225605   1.756   4.523   1.116 -0.0619 -0.0311  1.0614
 1349TIP3    H125606   1.845   4.556   1.102 -0.2447  0.6106  1.3306
 1349TIP3    H225607   1.701   4.585   1.068 -0.2493 -1.5778 -0.8216
 1350TIP3   OH225608   5.711   1.658   7.289  0.2236  0.1995  0.1876
 1350TIP3    H125609   5.659   1.720   7.237  1.5839  1.6865  0.5117
 1350TIP3    H225610   5.661   1.647   7.370  0.2258  1.3596  0.3697
 1351TIP3   OH225611   4.057   5.049   8.296 -0.0282 -0.3985 -0.1316
 1351TIP3    H125612   4.038   5.021   8.206  1.2278  0.5416 -0.7142
 1351TIP3    H225613   4.022   5.138   8.302 -0.4509 -0.5984  0.4424
 1352TIP3   OH225614   6.325   4.952   2.199 -0.1736  0.1972 -0.1975
 1352TIP3    H125615   6.393   5.003   2.155 -0.6954  0.1143 -1.1240
 1352TIP3    H225616   6.361   4.864   2.205  1.4449  0.9304  2.9254
 1353TIP3   OH225617   0.101   3.792   7.744  0.1243 -0.2462 -0.3690
 1353TIP3    H125618   0.183   3.822   7.704 -0.1756 -0.7202 -1.3884
 1353TIP3    H225619   0.123   3.708   7.784  0.5938  0.5580  1.1196
 1354TIP3   OH225620   0.275   6.232   2.037 -0.5350  0.6169 -0.4732
 1354TIP3    H125621   0.324   6.300   1.990 -1.6287  0.3613 -2.0755
 1354TIP3    H225622   0.192   6.274   2.060  0.0060  0.7614  1.3804
 1355TIP3   OH225623   2.289   2.196   1.952  0.6588 -0.0848 -0.2613
 1355TIP3    H125624   2.264   2.153   1.870  0.1320  0.7911 -0.5812
 1355TIP3    H225625   2.378   2.167   1.969 -0.1850 -2.5224  0.3683
 1356TIP3   OH225626   3.435   4.260   2.465 -0.2371 -0.0404 -0.2734
 1356TIP3    H125627   3.419   4.351   2.489 -3.7239 -0.3098 -1.0267
 1356TIP3    H225628   3.397   4.209   2.536  0.8488 -0.9315 -0.3021
 1357TIP3   OH225629   3.194   0.758   0.013  0.0850  0.0082 -0.1475
 1357TIP3    H125630   3.234   0.800  -0.064  3.7113 -0.5367  1.2393
 1357TIP3    H225631   3.166   0.831   0.068 -0.9283  0.4151 -1.1619
 1358TIP3   OH225632   4.762   2.879   0.995 -0.2857 -0.2980  0.5442
 1358TIP3    H125633   4.790   2.824   0.922 -0.7234 -0.6363  0.6236
 1358TIP3    H225634   4.687   2.929   0.960 -0.0282  0.0903  0.5382
 1359TIP3   OH225635   0.451   6.632   6.990  0.1080 -0.3785  0.1033
 1359TIP3    H125636   0.445   6.726   6.980  0.9472 -0.1430  1.5394
 1359TIP3    H225637   0.530   6.607   6.943 -0.5826 -0.5041 -1.0139
 1360TIP3   OH225638   0.370   4.998   2.237  0.3835  0.7769  0.5480
 1360TIP3    H125639   0.287   4.950   2.238  0.4888  0.6027  0.8631
 1360TIP3    H225640   0.352   5.077   2.287  0.2346  1.0287  0.1008
 1361TIP3   OH225641   2.462   2.336   7.534  0.2828  0.8076 -0.1589
 1361TIP3    H125642   2.422   2.393   7.599  0.1920 -1.1729  1.6324
 1361TIP3    H225643   2.400   2.263   7.524  1.5253 -0.2531 -0.4477
 1362TIP3   OH225644   5.031   4.753   8.027 -0.4236  0.1538  0.1310
 1362TIP3    H125645   5.055   4.698   7.952 -3.3104 -0.9511 -0.1142
 1362TIP3    H225646   5.009   4.691   8.096 -3.3334  0.8914 -0.0057
 1363TIP3   OH225647   4.878   0.535   0.208 -0.3705  0.1999  0.5139
 1363TIP3    H125648   4.825   0.607   0.243  0.5597  0.7706  0.7998
 1363TIP3    H225649   4.967   0.555   0.238 -0.2050 -1.4898  1.2757
 1364TIP3   OH225650   2.419   2.215   8.033 -0.4569 -0.1309 -0.5299
 1364TIP3    H125651   2.486   2.267   7.989 -1.0557  0.5193 -0.6848
 1364TIP3    H225652   2.438   2.225   8.126 -1.0447  1.0472 -0.5150
 1365TIP3   OH225653   2.554   1.543   1.478 -0.4550  0.0709  0.1445
 1365TIP3    H125654   2.515   1.579   1.399 -0.9281 -0.5696  0.0827
 1365TIP3    H225655   2.511   1.591   1.549 -1.9480 -1.1555  0.1104
 1366TIP3   OH225656   2.831   0.096   2.079 -0.0453 -0.0427 -0.1198
 1366TIP3    H125657   2.767   0.072   2.012  0.7057  3.0337 -2.1492
 1366TIP3    H225658   2.813   0.189   2.096  3.5496  0.8569 -0.4727
 1367TIP3   OH225659   5.666   6.753   1.562  0.5366  0.0600  0.3046
 1367TIP3    H125660   5.653   6.819   1.495 -1.5421  0.9537  1.4821
 1367TIP3    H225661   5.738   6.786   1.616  1.2025  0.0658 -0.5667
 1368TIP3   OH225662   0.959   3.671   1.084  0.1081  0.1354  0.4052
 1368TIP3    H125663   0.969   3.577   1.073  0.2141 -0.2014  2.8347
 1368TIP3    H225664   0.868   3.683   1.108 -0.0270  0.7310 -0.3643
 1369TIP3   OH225665   5.326   4.088   6.585 -0.3739  0.3622  0.0667
 1369TIP3    H125666   5.246   4.093   6.638 -0.0330 -2.1593  0.9647
 1369TIP3    H225667   5.394   4.062   6.648  0.5893 -0.1484 -1.1531
 1370TIP3   OH225668   2.912   6.280   0.620 -0.1071 -0.1090  0.0366
 1370TIP3    H125669   2.892   6.264   0.527  0.4479  1.0988 -0.3081
 1370TIP3    H225670   2.920   6.375   0.627  0.3098 -0.2166  1.2389
 1371TIP3   OH225671   3.421   4.527   7.536  0.3532 -0.3478  0.0932
 1371TIP3    H125672   3.392   4.618   7.528  4.2559  1.1725  1.2093
 1371TIP3    H225673   3.406   4.490   7.450  0.1201  1.8500 -0.8845
 1372TIP3   OH225674   5.749   2.895   1.968 -0.3009  0.9293  0.2387
 1372TIP3    H125675   5.658   2.921   1.951 -0.6023  0.2882  0.8131
 1372TIP3    H225676   5.775   2.947   2.044 -0.3803  0.7178  0.4144
 1373TIP3   OH225677   5.291   1.483   1.836  0.0467  0.2497 -0.3411
 1373TIP3    H125678   5.298   1.499   1.742 -0.5496  0.9935 -0.2673
 1373TIP3    H225679   5.376   1.446   1.860  0.2225  0.0975 -1.1577
 1374TIP3   OH225680   0.502   5.913   7.523 -0.1271  0.2569 -0.3380
 1374TIP3    H125681   0.532   5.877   7.440  0.9508 -1.8329  0.8797
 1374TIP3    H225682   0.430   5.971   7.499  0.8221  0.5542 -2.8009
 1375TIP3   OH225683   1.187   2.980   7.354 -0.0548  0.4024  0.0757
 1375TIP3    H125684   1.256   2.983   7.420 -0.2743  0.2190  0.3173
 1375TIP3    H225685   1.233   2.970   7.271  0.2067  0.1873  0.2447
 1376TIP3   OH225686   6.744   5.206   0.241 -0.9030 -0.2094 -0.2171
 1376TIP3    H125687   6.783   5.293   0.231  0.6503 -0.9925 -1.2548
 1376TIP3    H225688   6.704   5.208   0.328  0.5827  0.9911  0.4851
 1377TIP3   OH225689   3.338   6.340   8.377  0.7676  0.2672 -0.6230
 1377TIP3    H125690   3.266   6.360   8.436 -0.4296 -0.7519 -1.6716
 1377TIP3    H225691   3.347   6.245   8.382  0.2187  0.0770 -2.4897
 1378TIP3   OH225692   3.660   0.325   0.225  0.2443 -0.3687 -0.1711
 1378TIP3    H125693   3.736   0.272   0.246  0.4651  0.6929  2.0641
 1378TIP3    H225694   3.665   0.339   0.131  3.9874  1.3436  0.1224
 1379TIP3   OH225695   4.327   4.795   7.741 -0.2843  0.6908 -0.8288
 1379TIP3    H125696   4.338   4.888   7.758  0.2080  0.5782 -0.4931
 1379TIP3    H225697   4.385   4.752   7.804 -0.4017  0.1642 -1.0718
 1380TIP3   OH225698   1.964   5.846   7.630 -0.2166 -0.6966  0.0707
 1380TIP3    H125699   1.887   5.894   7.662 -0.1168  0.6202 -1.5482
 1380TIP3    H225700   2.020   5.838   7.707 -1.7377 -1.2781  1.1771
 1381TIP3   OH225701   1.661   3.136   8.197  0.1818  0.2312 -0.5689
 1381TIP3    H125702   1.585   3.103   8.245  0.3643 -0.1203 -0.5195
 1381TIP3    H225703   1.623   3.189   8.126 -0.2234 -1.8787 -2.0267
 1382TIP3   OH225704   6.094   3.014   7.823  0.1725 -0.5532 -0.1888
 1382TIP3    H125705   6.163   2.979   7.766  0.6077 -1.0678  0.6364
 1382TIP3    H225706   6.013   2.982   7.785  0.5390 -2.2042  0.3307
 1383TIP3   OH225707   1.941   5.227   1.279  0.6000 -0.4717  0.4760
 1383TIP3    H125708   1.933   5.287   1.204  0.9974 -1.2362 -0.1908
 1383TIP3    H225709   1.850   5.211   1.305  0.4378 -0.4617 -0.0584
 1384TIP3   OH225710   4.467   5.452   1.698  0.1041 -0.1801  0.5079
 1384TIP3    H125711   4.540   5.414   1.649 -0.1968 -0.1460  0.0284
 1384TIP3    H225712   4.486   5.431   1.789  1.2917  0.7958  0.5050
 1385TIP3   OH225713   2.383   2.558   8.380  0.0260  0.4130  0.5882
 1385TIP3    H125714   2.306   2.578   8.328  0.4364  0.4485 -0.0106
 1385TIP3    H225715   2.379   2.619   8.454  0.5091  1.7553 -0.4561
 1386TIP3   OH225716   1.884   1.741   8.112 -0.3379 -0.3808  0.0897
 1386TIP3    H125717   1.865   1.808   8.178 -0.2537 -3.1125  3.1530
 1386TIP3    H225718   1.799   1.702   8.092 -0.4182  0.6622 -1.8338
 1387TIP3   OH225719   1.769   3.294   0.212  0.1904 -0.3164 -0.2438
 1387TIP3    H125720   1.711   3.367   0.232  0.3551 -0.3188  0.2638
 1387TIP3    H225721   1.802   3.266   0.297 -0.2013 -1.2615 -0.3868
 1388TIP3   OH225722   2.752   3.368   7.143  0.9645 -0.3370  0.1321
 1388TIP3    H125723   2.696   3.442   7.119 -0.9210 -1.4289  0.9082
 1388TIP3    H225724   2.692   3.293   7.147  2.7733 -1.8877 -0.4519
 1389TIP3   OH225725   6.185   4.317   1.631  0.0421 -0.1498  0.0380
 1389TIP3    H125726   6.120   4.249   1.612 -0.9887  0.8569 -0.1444
 1389TIP3    H225727   6.198   4.312   1.725 -0.1592 -0.4792  0.0527
 1390TIP3   OH225728   0.216   5.645   2.538 -0.4589  0.8007  0.1415
 1390TIP3    H125729   0.284   5.653   2.605 -1.3013  1.7950  0.9125
 1390TIP3    H225730   0.172   5.562   2.557  0.4883  0.1749 -0.3347
 1391TIP3   OH225731   2.516   0.708   7.013  0.1220 -0.5667 -0.4262
 1391TIP3    H125732   2.582   0.646   7.041  0.7544  0.3021  0.0445
 1391TIP3    H225733   2.467   0.729   7.092  0.1119 -0.2401 -0.5159
 1392TIP3   OH225734   5.842   4.717   6.759  0.0493 -0.8290  0.3090
 1392TIP3    H125735   5.930   4.752   6.747 -0.0450 -0.7865 -0.3006
 1392TIP3    H225736   5.806   4.710   6.670 -0.1104 -2.0129  0.4494
 1393TIP3   OH225737   5.680   1.809   1.560  0.1094  0.4847 -0.2489
 1393TIP3    H125738   5.678   1.904   1.567 -0.8039  0.5238 -0.7732
 1393TIP3    H225739   5.742   1.791   1.489 -0.6573  0.7712 -1.0135
 1394TIP3   OH225740   4.495   4.476   0.184  0.0775 -0.4811  0.2786
 1394TIP3    H125741   4.426   4.475   0.118  0.6112 -0.1468 -0.2974
 1394TIP3    H225742   4.535   4.563   0.175  1.2404 -1.0361 -0.1185
 1395TIP3   OH225743   1.315   5.206   1.795 -0.2560 -0.2689 -0.3264
 1395TIP3    H125744   1.353   5.293   1.788  0.7231 -0.7498 -1.3195
 1395TIP3    H225745   1.228   5.215   1.754  0.0302  0.1379 -0.8619
 1396TIP3   OH225746   5.614   5.315   1.121  0.4311  0.2069  0.3570
 1396TIP3    H125747   5.673   5.363   1.179  0.2466  1.0477 -0.1397
 1396TIP3    H225748   5.669   5.286   1.049  0.0636  1.8956 -0.6414
 1397TIP3   OH225749   0.444   2.622   0.231 -0.1066  0.2423 -0.1843
 1397TIP3    H125750   0.393   2.614   0.312 -0.7915 -0.7973 -0.7070
 1397TIP3    H225751   0.526   2.576   0.251 -1.5281 -2.9352 -1.0751
 1398TIP3   OH225752   0.754   2.547   1.670  0.4568  0.3589  0.8261
 1398TIP3    H125753   0.737   2.633   1.632 -0.6506  0.4954  1.5792
 1398TIP3    H225754   0.815   2.564   1.741 -0.1351  0.6091  1.2858
 1399TIP3   OH225755   0.794   2.192   0.536  0.0557  0.6766 -0.4417
 1399TIP3    H125756   0.856   2.130   0.576 -0.4967  0.2812 -0.1911
 1399TIP3    H225757   0.747   2.229   0.610 -1.1694 -0.2676 -0.7188
 1400TIP3   OH225758   6.508   1.415   8.355 -0.1453 -0.0196  0.4787
 1400TIP3    H125759   6.519   1.404   8.260 -1.2520 -0.0541  0.3378
 1400TIP3    H225760   6.414   1.404   8.369  0.1287 -0.9011  1.7081
 1401TIP3   OH225761   6.480   1.341   0.747 -0.0965 -0.1736  0.8284
 1401TIP3    H125762   6.556   1.289   0.721  0.3714  0.9549 -0.1383
 1401TIP3    H225763   6.415   1.325   0.680  0.8303  2.1199 -0.7533
 1402TIP3   OH225764   1.482   4.278   0.445 -0.2217  0.4880 -0.0603
 1402TIP3    H125765   1.576   4.293   0.452 -0.1094  0.5139 -1.4568
 1402TIP3    H225766   1.460   4.299   0.354 -1.6041  0.6151  0.2706
 1403TIP3   OH225767   5.056   1.306   8.526 -1.4990 -0.5189  0.0906
 1403TIP3    H125768   4.991   1.284   8.592 -1.9999  0.3464 -0.0970
 1403TIP3    H225769   5.046   1.238   8.459 -0.6134 -1.7213  1.1336
 1404TIP3   OH225770   5.687   0.143   2.583  0.2167  0.7306 -0.3194
 1404TIP3    H125771   5.654   0.057   2.608 -0.3598  0.5952 -1.4427
 1404TIP3    H225772   5.621   0.176   2.521  0.9019  1.5768 -0.6170
 1405TIP3   OH225773   4.359   5.170   8.224  0.1368  0.7352  0.2708
 1405TIP3    H125774   4.296   5.231   8.185 -1.0022 -1.1012 -0.8721
 1405TIP3    H225775   4.442   5.218   8.222 -0.6042  2.0575 -1.0999
 1406TIP3   OH225776   6.594   4.675   1.856 -0.3893  0.7071 -0.1006
 1406TIP3    H125777   6.674   4.630   1.831 -1.0506 -1.9553  1.9569
 1406TIP3    H225778   6.622   4.762   1.885  1.6358  0.1080 -0.1211
 1407TIP3   OH225779   5.471   0.326   0.936  0.0609  0.2509 -0.5307
 1407TIP3    H125780   5.386   0.354   0.900 -0.5125 -1.0049 -0.2218
 1407TIP3    H225781   5.533   0.389   0.901 -0.9461  0.9734 -1.0924
 1408TIP3   OH225782   3.644   2.786   0.675  0.2757  0.1295 -0.4975
 1408TIP3    H125783   3.670   2.756   0.762 -0.3932  2.5899  0.6342
 1408TIP3    H225784   3.555   2.751   0.664 -0.4416  1.4760  0.7325
 1409TIP3   OH225785   5.844   5.536   1.285  0.3216  0.0458  0.1032
 1409TIP3    H125786   5.899   5.468   1.247 -0.0625  0.5548 -1.4512
 1409TIP3    H225787   5.776   5.489   1.333  0.4784 -0.6492 -0.3440
 1410TIP3   OH225788   1.419   3.307   1.174 -0.2621  0.3709  0.1466
 1410TIP3    H125789   1.388   3.329   1.262  0.1537  0.9258  0.1599
 1410TIP3    H225790   1.342   3.317   1.118  0.2286  3.7441 -0.1594
 1411TIP3   OH225791   5.527   1.867   1.293 -0.0739 -0.5518  0.8982
 1411TIP3    H125792   5.600   1.806   1.280 -0.8107 -1.1669 -0.6566
 1411TIP3    H225793   5.495   1.886   1.205 -1.1978  0.4553  1.4818
 1412TIP3   OH225794   5.550   3.781   7.714 -0.3621 -0.6101  0.0096
 1412TIP3    H125795   5.503   3.698   7.706  1.8526 -1.7747 -2.4057
 1412TIP3    H225796   5.554   3.815   7.625  1.5075  0.4612  0.4507
 1413TIP3   OH225797   5.801   2.213   7.715 -0.2931 -0.3112 -0.1574
 1413TIP3    H125798   5.854   2.135   7.731 -0.1135 -0.1268  0.1634
 1413TIP3    H225799   5.816   2.268   7.792 -0.5689 -0.0453 -0.2925
 1414TIP3   OH225800   3.326   6.028   1.606  0.2432 -1.0013  0.3817
 1414TIP3    H125801   3.246   6.047   1.556  0.8657 -0.5873 -0.4840
 1414TIP3    H225802   3.360   5.948   1.566 -1.1309 -2.7891  2.5089
 1415TIP3   OH225803   4.653   4.006   1.654  0.8950 -0.1511 -0.2246
 1415TIP3    H125804   4.743   4.030   1.632  1.0487 -0.3696  0.1520
 1415TIP3    H225805   4.638   4.044   1.740  1.1876 -1.4670  0.4480
 1416TIP3   OH225806   0.290   3.067   0.907  0.1298  0.1979 -0.1838
 1416TIP3    H125807   0.371   3.081   0.859 -0.0969  2.8959  0.1066
 1416TIP3    H225808   0.282   3.142   0.965 -2.3413 -0.2114  0.1395
 1417TIP3   OH225809   3.571   2.989   0.503  0.0332 -0.2024  0.3708
 1417TIP3    H125810   3.552   2.919   0.441  0.3064 -1.8252  2.0134
 1417TIP3    H225811   3.624   2.947   0.571  0.3970  1.6675  1.3188
 1418TIP3   OH225812   2.178   3.236   2.864 -0.1316  0.1804 -0.3856
 1418TIP3    H125813   2.218   3.238   2.951  1.0450  0.6809 -0.9058
 1418TIP3    H225814   2.212   3.156   2.824  1.1793  1.0882 -1.1763
 1419TIP3   OH225815   2.153   3.387   1.379 -0.0384 -0.0693 -0.0232
 1419TIP3    H125816   2.185   3.372   1.468  1.2353 -1.2494 -0.6393
 1419TIP3    H225817   2.097   3.464   1.386  0.2230  0.0016  1.7476
 1420TIP3   OH225818   1.645   4.295   8.515  0.3040 -0.1798  0.0715
 1420TIP3    H125819   1.572   4.235   8.527 -0.3982  0.6844  0.1800
 1420TIP3    H225820   1.611   4.380   8.539  0.6316  0.6395 -2.1321
 1421TIP3   OH225821   6.640   2.996   2.347  0.3895 -0.6370 -0.3615
 1421TIP3    H125822   6.655   3.005   2.441 -1.8160  0.1002 -0.0339
 1421TIP3    H225823   6.611   3.083   2.320  1.9303 -0.5533 -1.9641
 1422TIP3   OH225824   5.514   5.144   7.300  0.4111 -0.4525  0.3267
 1422TIP3    H125825   5.514   5.076   7.233  3.8765 -0.9598  0.6662
 1422TIP3    H225826   5.540   5.223   7.253  0.3251 -0.2406  0.6338
 1423TIP3   OH225827   1.858   2.106   7.615 -0.2071 -0.5825  0.3913
 1423TIP3    H125828   1.925   2.147   7.670 -0.2527 -0.6417  0.4922
 1423TIP3    H225829   1.798   2.066   7.678 -0.0551 -0.9703  0.2939
 1424TIP3   OH225830   1.008   5.066   8.541 -0.2213  0.4286 -0.4367
 1424TIP3    H125831   0.980   4.986   8.586  1.4658  0.0240 -0.0319
 1424TIP3    H225832   1.040   5.036   8.456 -1.8626  1.0037 -1.3067
 1425TIP3   OH225833   4.164   0.040   2.198 -0.0989  0.9873  0.3909
 1425TIP3    H125834   4.190   0.083   2.117  1.3422 -0.8390 -0.1936
 1425TIP3    H225835   4.119   0.108   2.248 -0.8874  2.2212 -1.8346
 1426TIP3   OH225836   1.744   2.169   0.493 -0.0561  0.7644  0.1011
 1426TIP3    H125837   1.740   2.259   0.526  1.0602  0.7290  0.3658
 1426TIP3    H225838   1.671   2.164   0.431 -0.2956  1.7687  0.2673
 1427TIP3   OH225839   0.120   5.588   8.095  0.0494 -0.1180  0.3995
 1427TIP3    H125840   0.129   5.595   8.190 -0.1087  0.2445  0.3878
 1427TIP3    H225841   0.190   5.528   8.069  1.1629  1.0817  0.5426
 1428TIP3   OH225842   1.940   5.122   8.313  0.7112 -0.1076  0.2515
 1428TIP3    H125843   1.907   5.114   8.223 -0.9955  0.4861  0.7943
 1428TIP3    H225844   1.996   5.045   8.325 -0.0296 -0.8594 -0.9086
 1429TIP3   OH225845   0.418   0.734   2.815  0.5106 -0.0905 -0.2084
 1429TIP3    H125846   0.497   0.758   2.767  1.0280 -2.5495 -0.7055
 1429TIP3    H225847   0.360   0.695   2.749 -0.1753 -0.4115  0.5655
 1430TIP3   OH225848   6.671   3.828   1.511 -0.0370  0.1849 -0.4492
 1430TIP3    H125849   6.660   3.890   1.439 -2.6901  0.1477 -0.1597
 1430TIP3    H225850   6.747   3.776   1.485 -0.7068  0.3678 -3.1054
 1431TIP3   OH225851   4.890   1.438   8.106 -0.8245  0.1693 -0.8649
 1431TIP3    H125852   4.956   1.379   8.070 -1.9729 -0.7033 -1.5842
 1431TIP3    H225853   4.927   1.467   8.190 -0.6568 -2.4027  0.0320
 1432TIP3   OH225854   3.778   1.532   1.024 -0.3688 -0.1588  0.1419
 1432TIP3    H125855   3.807   1.623   1.031  0.1534 -0.2402 -0.8408
 1432TIP3    H225856   3.858   1.482   1.007 -0.3991 -1.0376  2.2234
 1433TIP3   OH225857   5.448   3.321   8.408 -0.1996 -0.5406  0.1165
 1433TIP3    H125858   5.479   3.342   8.320  0.6377 -0.7724  0.3457
 1433TIP3    H225859   5.356   3.346   8.408  0.5061  2.3601  0.1091
 1434TIP3   OH225860   0.979   2.284   3.235  0.0910  0.3793 -1.1540
 1434TIP3    H125861   0.983   2.247   3.147 -1.4570  0.1214 -1.1444
 1434TIP3    H225862   1.041   2.232   3.286  0.4633  0.0570 -1.9111
 1435TIP3   OH225863   0.433   6.293   2.875  0.6087  0.2761  0.4382
 1435TIP3    H125864   0.528   6.284   2.866  0.4807  0.0914 -1.0328
 1435TIP3    H225865   0.419   6.381   2.909  1.2036  1.7816 -2.8951
 1436TIP3   OH225866   2.076   3.460   0.582 -0.0892 -0.1985 -0.1715
 1436TIP3    H125867   2.069   3.491   0.672  0.0398 -0.1300 -0.1837
 1436TIP3    H225868   2.148   3.397   0.584  0.8781  0.8567 -0.4987
 1437TIP3   OH225869   5.824   0.728   1.602  0.9201 -0.0932 -0.1213
 1437TIP3    H125870   5.838   0.635   1.620  2.6947 -0.1679 -1.5571
 1437TIP3    H225871   5.800   0.765   1.686  0.0672 -1.8548  0.4711
 1438TIP3   OH225872   2.829   3.502   0.623 -0.1816  0.0130  0.2493
 1438TIP3    H125873   2.812   3.556   0.546  0.1172  0.2469  0.3472
 1438TIP3    H225874   2.904   3.447   0.598 -2.0464 -2.2518 -0.8152
 1439TIP3   OH225875   1.935   3.151   1.717  0.1333  0.3002 -0.1685
 1439TIP3    H125876   2.004   3.195   1.767  0.5973  0.1240 -0.6420
 1439TIP3    H225877   1.932   3.198   1.634 -1.2614  1.1779  0.3390
 1440TIP3   OH225878   0.009   1.502   8.420 -0.2542 -0.5787  0.3226
 1440TIP3    H125879   0.065   1.531   8.348  1.0232 -0.8227  1.1968
 1440TIP3    H225880  -0.057   1.571   8.428 -0.3730 -0.4984 -1.0087
 1441TIP3   OH225881   0.713   6.748   7.662 -0.0351  1.1322 -0.1201
 1441TIP3    H125882   0.797   6.739   7.706 -0.3438 -2.2023  0.0276
 1441TIP3    H225883   0.681   6.834   7.689  1.7131  1.0369  2.6769
 1442TIP3   OH225884   2.233   6.244   1.236  0.9203 -0.0608  0.4904
 1442TIP3    H125885   2.298   6.295   1.285  1.1709 -1.9674  2.2988
 1442TIP3    H225886   2.265   6.154   1.240 -0.5859 -0.7032 -0.7296
 1443TIP3   OH225887   2.319   2.761   0.448 -0.2662 -0.0628 -0.5775
 1443TIP3    H125888   2.410   2.743   0.422 -0.5617  0.1189 -1.7964
 1443TIP3    H225889   2.308   2.854   0.431 -0.0348  0.4325  1.6819
 1444TIP3   OH225890   6.057   1.138   8.291 -0.1516 -0.0374 -0.3160
 1444TIP3    H125891   5.970   1.164   8.324 -0.8279 -0.8020 -1.4200
 1444TIP3    H225892   6.092   1.082   8.360 -0.6846 -0.0099 -0.0119
 1445TIP3   OH225893   2.146   2.167   2.621 -0.2685 -0.1172  0.1079
 1445TIP3    H125894   2.199   2.110   2.676  0.6085  0.3896 -0.1750
 1445TIP3    H225895   2.056   2.136   2.631  0.1866 -1.5154 -0.0287
 1446TIP3   OH225896   6.093   0.916   7.213  0.2558 -0.2155  0.2025
 1446TIP3    H125897   6.020   0.863   7.181  0.2650 -0.9099  1.2764
 1446TIP3    H225898   6.138   0.860   7.276  0.0469  1.1720  1.6786
 1447TIP3   OH225899   5.392   1.017   7.556  0.0101  0.0769  0.0896
 1447TIP3    H125900   5.342   0.952   7.507 -0.3386 -0.0738  0.6336
 1447TIP3    H225901   5.483   1.001   7.532 -0.1575 -0.0070 -0.4863
 1448TIP3   OH225902   6.864   6.548   1.177 -0.0424 -0.0233 -0.2998
 1448TIP3    H125903   6.827   6.491   1.244 -0.2023  0.4670  0.0290
 1448TIP3    H225904   6.864   6.635   1.216  1.2256  0.0392 -0.3770
 1449TIP3   OH225905   6.637   2.783   1.529  0.3603  0.3905  0.3031
 1449TIP3    H125906   6.557   2.732   1.542  0.6067 -0.0619  0.0540
 1449TIP3    H225907   6.606   2.873   1.517 -0.2122  0.0295 -1.1002
 1450TIP3   OH225908   4.655   6.018   7.160  0.0744  0.4861 -0.1895
 1450TIP3    H125909   4.732   5.984   7.114 -0.0695 -0.4485  0.2508
 1450TIP3    H225910   4.618   5.943   7.206 -0.8050  1.0347  0.0356
 1451TIP3   OH225911   0.906   6.636   7.816 -0.2660 -0.0611 -0.7140
 1451TIP3    H125912   1.002   6.635   7.814 -0.1568 -0.3156  1.7778
 1451TIP3    H225913   0.881   6.544   7.815 -0.3846 -0.0509  0.2882
 1452TIP3   OH225914   1.903   4.997   7.438  0.3136  0.6161 -0.2533
 1452TIP3    H125915   1.925   4.978   7.347  0.6535  0.3431 -0.1184
 1452TIP3    H225916   1.808   4.988   7.442  0.1268  2.0636 -0.9026
 1453TIP3   OH225917   1.196   1.712   7.758  0.3796 -0.5587  0.0571
 1453TIP3    H125918   1.167   1.796   7.725 -0.3078 -0.6937  0.3125
 1453TIP3    H225919   1.223   1.729   7.848 -1.5607 -0.9559  0.7592
 1454TIP3   OH225920   4.385   0.030   1.645 -0.2816 -0.7581  0.1516
 1454TIP3    H125921   4.331   0.101   1.680 -0.3289 -0.2825 -0.8383
 1454TIP3    H225922   4.324  -0.043   1.633 -0.4410 -0.6388  0.2365
 1455TIP3   OH225923   5.258   5.986   0.805  0.1948  0.4197  0.5222
 1455TIP3    H125924   5.245   5.986   0.900  0.4676  1.4788  0.5775
 1455TIP3    H225925   5.353   5.995   0.794  0.0895  1.1829  0.1647
 1456TIP3   OH225926   1.679   4.238   7.323  0.4897  0.3387  0.7891
 1456TIP3    H125927   1.767   4.271   7.307  0.1485  1.0605  0.3508
 1456TIP3    H225928   1.688   4.143   7.322  0.7479  0.3206 -2.3266
 1457TIP3   OH225929   5.750   1.053   8.242  0.2075 -0.2865  0.0928
 1457TIP3    H125930   5.680   1.089   8.188  2.8852  0.7304 -3.0601
 1457TIP3    H225931   5.769   1.123   8.305  0.4581  0.8098 -1.1458
 1458TIP3   OH225932   1.193   0.138   0.548 -0.1181 -0.2386  0.3452
 1458TIP3    H125933   1.285   0.136   0.574 -0.0466 -0.6013  0.0750
 1458TIP3    H225934   1.151   0.193   0.614  0.6105  1.5509 -0.6089
 1459TIP3   OH225935   5.516   2.954   1.664  0.0851  0.5527 -0.2788
 1459TIP3    H125936   5.489   2.936   1.754  2.5972  0.2103  0.4856
 1459TIP3    H225937   5.519   3.050   1.659  2.4287  0.6222  0.9246
 1460TIP3   OH225938   1.317   3.167   1.762 -0.3446 -0.2826 -0.2345
 1460TIP3    H125939   1.374   3.182   1.687  0.3149  0.2896  0.3584
 1460TIP3    H225940   1.233   3.205   1.738  0.2993  1.2769 -0.1135
 1461TIP3   OH225941   6.755   0.086   0.626  0.1333 -0.6753 -0.1713
 1461TIP3    H125942   6.745  -0.008   0.640 -0.0648 -0.8809 -1.5675
 1461TIP3    H225943   6.682   0.126   0.674 -0.4140 -1.3149 -0.4673
 1462TIP3   OH225944   6.871   2.062   7.557 -0.5519  0.2724 -0.7345
 1462TIP3    H125945   6.916   2.136   7.599  0.6688  0.3170 -2.0474
 1462TIP3    H225946   6.941   2.002   7.533 -1.3031 -0.1841 -1.8458
 1463TIP3   OH225947   0.841   4.374   0.179 -0.1814  0.7150 -0.7808
 1463TIP3    H125948   0.832   4.404   0.089 -0.1472 -0.7403 -1.2964
 1463TIP3    H225949   0.876   4.450   0.226  2.8346  0.6134 -2.6065
 1464TIP3   OH225950   6.339   3.438   7.558 -0.1337  0.1851  0.2586
 1464TIP3    H125951   6.321   3.519   7.605 -0.8074  1.0393 -1.4136
 1464TIP3    H225952   6.430   3.418   7.578  0.1308  1.5109  0.4460
 1465TIP3   OH225953   3.765   6.588   0.446  0.6915 -0.1273  0.4074
 1465TIP3    H125954   3.737   6.676   0.471 -0.9052 -0.1607 -1.0840
 1465TIP3    H225955   3.719   6.570   0.363  0.4783 -2.5991  0.9677
 1466TIP3   OH225956   1.760   5.219   2.398  0.8580 -0.1277  0.4289
 1466TIP3    H125957   1.734   5.273   2.324  2.5399  0.5879  0.3230
 1466TIP3    H225958   1.726   5.265   2.475 -1.1571 -1.0286  0.1497
 1467TIP3   OH225959   0.981   1.384   6.980  0.0502  0.6295  0.0276
 1467TIP3    H125960   1.074   1.371   6.962 -0.5804  0.3961 -4.1637
 1467TIP3    H225961   0.936   1.323   6.921 -2.8128  0.8535  1.7724
 1468TIP3   OH225962   5.910   4.234   7.887 -0.0803  0.4011 -0.0786
 1468TIP3    H125963   5.918   4.165   7.821  2.7947 -0.9932  1.5706
 1468TIP3    H225964   5.900   4.315   7.836 -0.2856 -0.8626 -2.1392
 1469TIP3   OH225965   5.303   5.590   8.292 -0.2775  0.0712  0.3076
 1469TIP3    H125966   5.233   5.603   8.228  1.0863  1.7338 -0.9465
 1469TIP3    H225967   5.375   5.643   8.260  1.2804 -0.8778  2.0343
 1470TIP3   OH225968   5.994   2.523   7.810  1.0406  0.1231 -0.0913
 1470TIP3    H125969   6.015   2.582   7.883  1.2313 -0.8080  0.6320
 1470TIP3    H225970   6.066   2.534   7.749  0.8541  0.9563 -0.1771
 1471TIP3   OH225971   1.152   4.474   8.169  0.0561  0.0263 -0.2095
 1471TIP3    H125972   1.099   4.548   8.199 -1.9297 -0.8444 -1.3693
 1471TIP3    H225973   1.190   4.438   8.249  0.5477  1.8813  0.4430
 1472TIP3   OH225974   1.521   2.898   1.548 -0.3762  0.1569  0.7195
 1472TIP3    H125975   1.503   2.804   1.550  0.8208 -0.1755 -1.4632
 1472TIP3    H225976   1.610   2.906   1.582 -0.4047  0.4758  0.7210
 1473TIP3   OH225977   2.996   0.054   8.272  0.0387 -0.1057 -0.2724
 1473TIP3    H125978   3.017   0.094   8.356 -0.3159 -3.3537  1.4945
 1473TIP3    H225979   2.912   0.094   8.246 -0.7041 -0.2442  1.7794
 1474TIP3   OH225980   3.946   4.861   0.028  0.1561 -0.0116 -0.2462
 1474TIP3    H125981   3.908   4.824   0.108  0.1819 -1.2904 -0.8013
 1474TIP3    H225982   4.023   4.808   0.011 -0.3281 -0.3297 -1.6016
 1475TIP3   OH225983   1.930   6.210   7.415 -0.1770  0.2426 -0.4233
 1475TIP3    H125984   1.973   6.273   7.472 -1.0617 -1.4210  2.2737
 1475TIP3    H225985   1.871   6.263   7.361  1.1791  1.9450 -0.3202
 1476TIP3   OH225986   3.936   3.534   7.836 -0.0412  0.6281 -0.0333
 1476TIP3    H125987   3.883   3.578   7.769 -0.7925 -0.3424 -0.1057
 1476TIP3    H225988   3.990   3.472   7.788 -1.6782 -1.1705  0.3194
 1477TIP3   OH225989   4.403   2.994   0.491  0.3458  0.3421 -0.1496
 1477TIP3    H125990   4.351   3.053   0.546 -0.8281  0.4247 -1.2839
 1477TIP3    H225991   4.338   2.950   0.435  1.2994 -1.1601 -0.1449
 1478TIP3   OH225992   4.443   3.649   2.505  0.4364 -0.4632 -0.0120
 1478TIP3    H125993   4.429   3.695   2.588  0.2218  0.2467 -0.4258
 1478TIP3    H225994   4.357   3.613   2.483  0.7740 -1.7273  0.6863
 1479TIP3   OH225995   3.794   1.048   1.133  0.2792 -0.4857 -0.9150
 1479TIP3    H125996   3.808   0.970   1.081  1.9108 -0.4934 -0.5166
 1479TIP3    H225997   3.788   1.119   1.069  1.3451 -0.6168 -1.1768
 1480TIP3   OH225998   1.472   2.041   1.240  0.2735 -0.2035  0.5745
 1480TIP3    H125999   1.419   1.988   1.299 -1.1964  0.7257  0.1767
 1480TIP3    H226000   1.438   2.021   1.153  2.3051 -1.4404  0.0029
 1481TIP3   OH226001   1.831   0.528   0.316 -0.0642 -0.0939 -0.2193
 1481TIP3    H126002   1.776   0.594   0.359 -0.4164 -0.9659  0.7127
 1481TIP3    H226003   1.890   0.498   0.385 -0.3008 -1.1711 -0.4708
 1482TIP3   OH226004   3.565   4.314   0.223 -0.5106  0.2817  0.0818
 1482TIP3    H126005   3.634   4.366   0.182 -0.0462  0.3016  0.8800
 1482TIP3    H226006   3.570   4.336   0.316 -1.3992  0.0602  0.1933
 1483TIP3   OH226007   1.676   6.118   3.000 -0.2015 -0.3259  0.1308
 1483TIP3    H126008   1.658   6.109   3.094  1.0400 -1.2762  0.3105
 1483TIP3    H226009   1.729   6.198   2.994  0.7797 -0.9277  0.4333
 1484TIP3   OH226010   5.652   0.082   6.898  0.1599  0.2443 -0.2381
 1484TIP3    H126011   5.584   0.103   6.961 -1.1461 -0.9338 -1.1914
 1484TIP3    H226012   5.637   0.143   6.825 -0.6944 -0.8219 -0.9840
 1485TIP3   OH226013   3.046   0.558   0.554 -0.2027 -0.5664  0.0521
 1485TIP3    H126014   3.125   0.508   0.535 -0.2300  0.3220 -2.7020
 1485TIP3    H226015   2.979   0.521   0.496 -1.2588  0.1474  0.7668
 1486TIP3   OH226016   5.788   5.951   7.835  0.0020 -0.3170 -0.1549
 1486TIP3    H126017   5.851   6.003   7.784 -0.5984 -0.7789 -1.4123
 1486TIP3    H226018   5.723   5.923   7.771 -0.9837 -0.6359  0.9513
 1487TIP3   OH226019   2.813   0.991   1.970  0.0037 -0.3387  0.0201
 1487TIP3    H126020   2.760   0.912   1.979 -2.3411  1.0553 -0.7400
 1487TIP3    H226021   2.789   1.027   1.885  2.6225  0.1154 -0.6190
 1488TIP3   OH226022   1.753   6.587   7.563  0.5629 -0.0039  0.2253
 1488TIP3    H126023   1.737   6.609   7.655 -0.3365 -1.2694  0.4111
 1488TIP3    H226024   1.838   6.626   7.543  1.9239 -1.6295  2.2934
 1489TIP3   OH226025   0.666   0.499   7.770  0.4216  0.3321  0.6417
 1489TIP3    H126026   0.613   0.578   7.764 -0.6927 -0.3859  0.8458
 1489TIP3    H226027   0.624   0.446   7.838  2.0373  0.2209  1.5969
 1490TIP3   OH226028   6.687   6.051   1.544 -0.0443  0.3935 -0.0106
 1490TIP3    H126029   6.685   5.958   1.523 -0.2969  0.2577  0.6116
 1490TIP3    H226030   6.729   6.092   1.468  0.1507 -0.2359 -0.2431
 1491TIP3   OH226031   2.786   6.847   0.119 -0.2195 -0.2801 -0.6771
 1491TIP3    H126032   2.756   6.936   0.137 -0.8567 -0.4604 -0.8123
 1491TIP3    H226033   2.815   6.814   0.204  0.9552  0.3884 -0.8032
 1492TIP3   OH226034   2.203   4.665   7.441  0.1818 -0.6015 -0.6325
 1492TIP3    H126035   2.210   4.759   7.460  1.3952 -0.8881  0.5826
 1492TIP3    H226036   2.253   4.653   7.361 -0.9741 -0.0517 -1.4564
 1493TIP3   OH226037   3.551   2.429   0.755  0.7633  0.2097  0.2215
 1493TIP3    H126038   3.472   2.439   0.702  0.5225 -1.0990  0.2857
 1493TIP3    H226039   3.528   2.468   0.839  0.4516  0.5379 -0.0129
 1494TIP3   OH226040   5.157   3.246   8.097  0.0039 -0.0261 -0.5195
 1494TIP3    H126041   5.170   3.166   8.147 -1.7211 -1.0668 -1.6034
 1494TIP3    H226042   5.213   3.236   8.020  1.1418  0.6632  0.1927
 1495TIP3   OH226043   3.991   5.171   0.342 -0.4697 -1.1520 -0.4102
 1495TIP3    H126044   3.958   5.116   0.271 -2.1971  0.5500 -1.0282
 1495TIP3    H226045   3.938   5.252   0.336  1.3935  0.2515  0.9272
 1496TIP3   OH226046   2.639   5.901   8.423 -0.0828  0.5321  0.8102
 1496TIP3    H126047   2.624   5.908   8.329 -0.7350  0.4814  0.9111
 1496TIP3    H226048   2.720   5.849   8.430 -0.8085 -0.7029  0.3118
 1497TIP3   OH226049   1.718   6.014   7.754  0.3694 -0.0957  0.7886
 1497TIP3    H126050   1.668   6.027   7.835  0.3181 -0.3305  0.7949
 1497TIP3    H226051   1.681   6.078   7.693  2.3991  2.2287  1.8196
 1498TIP3   OH226052   5.635   2.637   0.535  0.1034  0.1119 -0.1516
 1498TIP3    H126053   5.562   2.596   0.581  0.8423 -1.4149 -0.2795
 1498TIP3    H226054   5.599   2.658   0.448  0.4057 -2.8327 -1.0825
 1499TIP3   OH226055   3.660   2.192   1.019 -0.1309 -0.2465 -0.5301
 1499TIP3    H126056   3.620   2.169   0.935 -0.3784  0.2753 -0.5596
 1499TIP3    H226057   3.587   2.200   1.080  0.2066 -2.9137  0.3302
 1500TIP3   OH226058   3.747   2.740   1.707  0.4265 -0.1336 -0.3927
 1500TIP3    H126059   3.782   2.746   1.796 -1.5432  0.2357  0.4174
 1500TIP3    H226060   3.799   2.802   1.656  1.4221 -0.1622  0.5617
 1501TIP3   OH226061   3.976   6.516   7.486 -0.1331  0.7484 -0.2327
 1501TIP3    H126062   3.961   6.448   7.552  0.7337  0.4481 -0.3284
 1501TIP3    H226063   3.915   6.495   7.415 -1.3528  1.2973  0.6096
 1502TIP3   OH226064   3.033   2.112   1.932  0.3997  0.2010 -0.1337
 1502TIP3    H126065   2.946   2.139   1.961  0.4274 -0.6485  0.8170
 1502TIP3    H226066   3.018   2.064   1.851 -0.0645 -0.2220  0.1946
 1503TIP3   OH226067   4.552   0.426   0.349  0.5764  0.3305  0.2661
 1503TIP3    H126068   4.591   0.341   0.370 -1.4567 -1.3050 -2.0686
 1503TIP3    H226069   4.520   0.417   0.260 -2.1765  2.6329  0.8707
 1504TIP3   OH226070   1.267   6.039   2.638  0.2654  0.1482 -0.0713
 1504TIP3    H126071   1.228   6.018   2.723 -0.9279 -0.6548 -0.7994
 1504TIP3    H226072   1.361   6.033   2.653  0.0490 -1.1381  0.9094
 1505TIP3   OH226073   5.245   3.048   8.250 -0.0092 -0.1810 -0.0428
 1505TIP3    H126074   5.306   3.014   8.316 -0.0433  0.3666  0.2769
 1505TIP3    H226075   5.257   2.991   8.175 -0.8595 -1.5976  0.8551
 1506TIP3   OH226076   0.141   2.246   1.250  0.4549  0.3118 -0.2699
 1506TIP3    H126077   0.061   2.210   1.211  0.2418 -1.5852  1.6828
 1506TIP3    H226078   0.115   2.331   1.284 -1.1659 -0.7785  1.4214
 1507TIP3   OH226079   6.695   4.302   0.413  0.0242  0.5229  0.1478
 1507TIP3    H126080   6.609   4.328   0.446  0.5307  2.0146  0.3721
 1507TIP3    H226081   6.719   4.226   0.466 -1.0055  0.2937  0.3008
 1508TIP3   OH226082   2.609   6.413   0.804  0.7180  0.0143  0.3606
 1508TIP3    H126083   2.624   6.340   0.865  0.2413 -1.1756 -0.9079
 1508TIP3    H226084   2.519   6.402   0.775  1.6429 -0.9013 -2.4036
 1509TIP3   OH226085   1.096   2.727   1.364  0.0895 -0.2926 -0.5857
 1509TIP3    H126086   1.126   2.675   1.438  0.5207  1.1330  0.2848
 1509TIP3    H226087   1.032   2.789   1.402  0.3900  0.5255 -1.3682
 1510TIP3   OH226088   6.008   5.450   8.006  0.0992  0.6487  0.1113
 1510TIP3    H126089   5.954   5.529   8.016 -1.8010 -0.8153  2.7847
 1510TIP3    H226090   6.089   5.470   8.052 -0.4387  1.0322  0.9151
 1511TIP3   OH226091   4.820   0.894   0.642  0.1171  0.2117  0.0773
 1511TIP3    H126092   4.762   0.926   0.712 -2.1527  0.1233 -1.6508
 1511TIP3    H226093   4.793   0.803   0.629  0.4625  0.2514 -0.9472
 1512TIP3   OH226094   5.997   2.683   7.141  0.2459 -0.6055 -0.0058
 1512TIP3    H126095   6.039   2.766   7.162 -0.1670 -0.2751 -0.4900
 1512TIP3    H226096   6.050   2.646   7.070 -1.3482  0.7103 -1.9697
 1513TIP3   OH226097   1.130   4.837   2.612  0.0865 -0.3897  0.2744
 1513TIP3    H126098   1.121   4.757   2.559  2.3866 -0.5527  0.0048
 1513TIP3    H226099   1.157   4.806   2.698 -2.0945 -0.0286  1.1374
 1514TIP3   OH226100   2.951   2.138   8.373 -0.3078  0.0125 -0.2307
 1514TIP3    H126101   2.927   2.181   8.455 -1.0294 -0.8933  0.0543
 1514TIP3    H226102   3.045   2.119   8.383 -0.6422 -1.2221  0.9497
 1515TIP3   OH226103   3.003   0.330   7.809 -0.0080 -0.7190  0.1055
 1515TIP3    H126104   2.933   0.326   7.745  0.6957 -0.2996 -0.7208
 1515TIP3    H226105   3.084   0.325   7.757  0.6081 -3.2487  1.1589
 1516TIP3   OH226106   1.047   4.131   1.809 -0.1498 -0.7354  0.2161
 1516TIP3    H126107   0.986   4.087   1.749  0.2589 -2.0435  0.7352
 1516TIP3    H226108   1.000   4.134   1.892 -0.1547 -0.2223  0.1951
 1517TIP3   OH226109   3.638   0.600   8.023 -0.2278 -0.8754  0.0843
 1517TIP3    H126110   3.712   0.628   8.077 -0.9269  0.5651  0.3390
 1517TIP3    H226111   3.568   0.581   8.085 -0.7707 -0.0333 -0.2486
 1518TIP3   OH226112   0.452   6.901   6.932 -0.4324  0.3252 -0.2685
 1518TIP3    H126113   0.414   6.988   6.945 -1.0096 -0.0613  0.7571
 1518TIP3    H226114   0.544   6.918   6.910 -0.5899  1.1962 -0.2667
 1519TIP3   OH226115   5.358   1.931   1.510  0.0413 -0.5091 -0.0469
 1519TIP3    H126116   5.425   1.964   1.570  0.1076  1.8757 -1.2970
 1519TIP3    H226117   5.407   1.904   1.433 -0.1391 -2.5288  0.5069
 1520TIP3   OH226118   6.082   5.423   2.305 -0.0117 -0.4424  0.1138
 1520TIP3    H126119   6.161   5.368   2.307 -0.2560 -0.7927  1.8828
 1520TIP3    H226120   6.025   5.384   2.371 -1.5122  0.0672 -0.8324
 1521TIP3   OH226121   6.485   6.249   0.948  0.5186  0.3524 -0.1338
 1521TIP3    H126122   6.492   6.326   1.003  0.2122  1.5299 -1.6604
 1521TIP3    H226123   6.411   6.200   0.984  1.4426  0.1358  1.5587
 1522TIP3   OH226124   3.363   5.199   6.521 -0.6787  0.0154  0.1897
 1522TIP3    H126125   3.323   5.156   6.445  2.8822 -1.1775 -1.2127
 1522TIP3    H226126   3.347   5.292   6.506 -1.7826 -0.3073 -0.9021
 1523TIP3   OH226127   4.337   3.484   1.318 -0.2618 -0.0552 -0.3637
 1523TIP3    H126128   4.307   3.423   1.250 -0.8412 -0.5208  0.2942
 1523TIP3    H226129   4.320   3.438   1.400  0.7004  0.3780  0.0924
 1524TIP3   OH226130   0.293   4.128   0.567 -0.3488  0.4368 -0.0407
 1524TIP3    H126131   0.243   4.170   0.637  0.9186  2.1831 -0.1460
 1524TIP3    H226132   0.276   4.181   0.489  0.4952  0.1815 -0.4102
 1525TIP3   OH226133   6.749   0.233   1.267  0.1818 -0.0207  0.5806
 1525TIP3    H126134   6.660   0.210   1.240  0.2500  0.6709 -0.2972
 1525TIP3    H226135   6.752   0.329   1.261  1.5633 -0.1168 -1.4206
 1526TIP3   OH226136   5.787   6.325   0.628  0.4583 -0.3632 -0.4228
 1526TIP3    H126137   5.720   6.361   0.685  2.3290  0.4841  1.3848
 1526TIP3    H226138   5.835   6.401   0.596  1.6255 -0.9957 -0.2394
 1527TIP3   OH226139   3.740   3.243   0.098  0.0051 -0.0578 -0.1879
 1527TIP3    H126140   3.781   3.297   0.165 -2.0095  0.7776  0.4607
 1527TIP3    H226141   3.673   3.300   0.059 -0.7355 -1.4117 -0.9655
 1528TIP3   OH226142   2.347   2.773   8.139 -0.2345 -0.2630  0.6038
 1528TIP3    H126143   2.258   2.803   8.119 -0.0943  0.5172  1.1139
 1528TIP3    H226144   2.386   2.845   8.189 -0.0506 -1.4684  2.3142
 1529TIP3   OH226145   3.228   4.473   1.294  0.4295  0.1984  0.3032
 1529TIP3    H126146   3.246   4.379   1.290  0.9276  0.3306 -0.7694
 1529TIP3    H226147   3.150   4.485   1.241  0.5648  0.4408  0.1592
 1530TIP3   OH226148   6.564   2.037   1.536 -0.3366  0.0312 -0.2988
 1530TIP3    H126149   6.657   2.058   1.544 -0.0086 -1.9062  2.4979
 1530TIP3    H226150   6.522   2.120   1.512  2.0772  0.9170 -1.7905
 1531TIP3   OH226151   5.623   0.132   0.542  0.0774  0.6106  0.1054
 1531TIP3    H126152   5.702   0.157   0.494  0.9620 -0.2202  1.0657
 1531TIP3    H226153   5.580   0.215   0.563  1.9294  1.2637  1.5562
 1532TIP3   OH226154   0.143   0.440   0.942  0.3389  0.4286 -0.3501
 1532TIP3    H126155   0.076   0.507   0.927 -2.5872 -1.9309  1.1434
 1532TIP3    H226156   0.160   0.444   1.036  0.4337 -0.6461 -0.3160
 1533TIP3   OH226157   0.791   5.926   1.434  0.1725 -0.1420 -0.0459
 1533TIP3    H126158   0.838   5.860   1.384 -0.6429 -0.4678 -0.3939
 1533TIP3    H226159   0.744   5.877   1.501 -0.7979  0.0200 -0.5848
 1534TIP3   OH226160   4.656   4.220   7.002 -0.7374  0.7356 -0.0608
 1534TIP3    H126161   4.656   4.167   6.922 -0.7838 -0.5234  0.7550
 1534TIP3    H226162   4.746   4.253   7.009 -0.6154  0.4751 -0.3853
 1535TIP3   OH226163   5.344   2.577   0.238  0.3130 -0.4787  0.0239
 1535TIP3    H126164   5.251   2.600   0.242  0.6927  0.9148  2.2551
 1535TIP3    H226165   5.349   2.492   0.282  0.0544 -0.7307 -0.4284
 1536TIP3   OH226166   4.940   1.463   1.774 -0.6283  0.6742  0.0118
 1536TIP3    H126167   4.853   1.447   1.811  0.2205 -2.5997  0.9109
 1536TIP3    H226168   4.994   1.485   1.850  0.4028 -2.8367  0.4907
 1537TIP3   OH226169   1.179   3.746   7.898  0.3651 -0.2599  0.4948
 1537TIP3    H126170   1.232   3.777   7.824 -0.1724  1.4879  0.7849
 1537TIP3    H226171   1.090   3.740   7.862  0.7932 -4.4292 -0.3576
 1538TIP3   OH226172   3.536   4.674   7.747  0.2525  0.6743 -0.0573
 1538TIP3    H126173   3.470   4.744   7.743  0.0695  0.5480  0.6905
 1538TIP3    H226174   3.515   4.618   7.672  1.8285  2.6372 -2.0888
 1539TIP3   OH226175   4.032   2.902   6.899  1.0654  0.4343 -1.0232
 1539TIP3    H126176   4.061   2.814   6.874 -1.8132 -1.2081  0.7929
 1539TIP3    H226177   3.940   2.904   6.873  0.9308  2.7578 -0.5553
 1540TIP3   OH226178   1.690   5.962   1.104 -0.5738  0.4269 -0.2937
 1540TIP3    H126179   1.774   5.915   1.101 -0.3392  0.6514  1.7351
 1540TIP3    H226180   1.705   6.038   1.048  1.4684  1.7391  1.8354
 1541TIP3   OH226181   6.480   1.566   8.021  0.6872 -0.1521  0.0602
 1541TIP3    H126182   6.563   1.602   8.052 -0.5376  2.1436  0.9414
 1541TIP3    H226183   6.468   1.605   7.934  1.4678 -2.1564 -1.0022
 1542TIP3   OH226184   1.610   0.120   7.611  0.2774 -0.6947  0.1968
 1542TIP3    H126185   1.638   0.095   7.523  0.4264  1.3173 -0.3730
 1542TIP3    H226186   1.637   0.211   7.620  1.4358 -1.2124  2.8495
 1543TIP3   OH226187   1.868   3.739   7.339 -0.2133 -0.3936  0.4791
 1543TIP3    H126188   1.862   3.691   7.256 -0.9896 -0.4638  0.5686
 1543TIP3    H226189   1.826   3.682   7.403  2.5123 -1.4602  1.4704
 1544TIP3   OH226190   1.202   4.009   1.169  0.7516  0.0423  0.2280
 1544TIP3    H126191   1.246   3.935   1.126 -0.6004 -0.8829  0.3545
 1544TIP3    H226192   1.272   4.059   1.209  1.6697 -1.6078  0.7741
 1545TIP3   OH226193   5.622   2.055   1.886 -0.0643  0.5442 -0.4725
 1545TIP3    H126194   5.701   2.075   1.937 -0.8910  0.4904  0.8870
 1545TIP3    H226195   5.571   2.136   1.888 -0.4706  0.2925 -0.5298
 1546TIP3   OH226196   5.533   6.513   0.269 -0.4007  0.2423  0.3135
 1546TIP3    H126197   5.447   6.475   0.291 -0.4423 -1.1433 -1.9520
 1546TIP3    H226198   5.512   6.590   0.216 -0.3244 -1.3833 -2.2193
 1547TIP3   OH226199   4.110   0.920   1.006 -0.1586  0.4149  0.4401
 1547TIP3    H126200   4.020   0.903   0.976  0.2583 -0.1422 -0.5575
 1547TIP3    H226201   4.162   0.852   0.963  0.9153  1.4598  0.0328
 1548TIP3   OH226202   0.946   5.547   7.780 -0.3901 -0.4902 -0.3983
 1548TIP3    H126203   1.038   5.537   7.803 -0.1406  0.1557 -1.0546
 1548TIP3    H226204   0.900   5.547   7.864  0.0372 -2.3280 -0.1339
 1549TIP3   OH226205   5.453   6.384   6.680  0.1870  0.0137 -0.4802
 1549TIP3    H126206   5.433   6.470   6.717 -1.7299 -1.1328  1.3841
 1549TIP3    H226207   5.512   6.343   6.743 -0.7925 -0.8827 -0.1090
 1550TIP3   OH226208   2.972   1.699   7.225 -0.3427 -0.1714  0.3130
 1550TIP3    H126209   2.980   1.794   7.237 -0.8440  0.0670 -1.0930
 1550TIP3    H226210   3.018   1.681   7.143 -3.6735 -0.5092 -1.6467
 1551TIP3   OH226211   4.616   1.283   0.926  0.4798 -0.1569 -0.0956
 1551TIP3    H126212   4.537   1.252   0.971  1.2754 -2.9906 -0.4539
 1551TIP3    H226213   4.681   1.293   0.995  1.0979 -2.4946 -0.2375
 1552TIP3   OH226214   0.315   3.807   1.204 -0.5613  0.0145 -0.0546
 1552TIP3    H126215   0.369   3.770   1.274  0.3324 -0.8261 -1.1587
 1552TIP3    H226216   0.373   3.868   1.159 -0.9337  0.0665 -0.4658
 1553TIP3   OH226217   2.467   0.141   7.789 -0.2910 -0.4200 -0.1379
 1553TIP3    H126218   2.445   0.154   7.696  0.7330 -2.7123 -0.7595
 1553TIP3    H226219   2.505   0.224   7.816 -0.9662  0.4259 -1.6488
 1554TIP3   OH226220   1.831   6.653   0.803  0.2777 -0.6005  0.2390
 1554TIP3    H126221   1.761   6.587   0.803  1.3486 -1.8077 -0.8574
 1554TIP3    H226222   1.818   6.701   0.722 -0.1547  0.1639  0.7569
 1555TIP3   OH226223   1.669   0.103   2.666 -0.0355 -0.3130 -0.5543
 1555TIP3    H126224   1.619   0.104   2.747  1.4882 -2.0062  0.4829
 1555TIP3    H226225   1.739   0.167   2.680  0.7495 -1.2409 -0.1447
 1556TIP3   OH226226   5.241   0.048   7.648 -0.4591 -0.1856  0.5648
 1556TIP3    H126227   5.186   0.052   7.570 -0.6760  0.2801  0.7379
 1556TIP3    H226228   5.330   0.065   7.616 -0.5844  0.2861  0.4556
 1557TIP3   OH226229   1.468   1.175   1.528 -0.1100  0.1551 -0.5121
 1557TIP3    H126230   1.440   1.133   1.609 -0.9845 -0.8138 -1.2925
 1557TIP3    H226231   1.548   1.128   1.504 -0.1400  0.0863 -0.4793
 1558TIP3   OH226232   4.045   0.906   0.338 -0.3852 -0.3732  0.1718
 1558TIP3    H126233   4.097   0.904   0.258  0.6475  0.1370  0.7945
 1558TIP3    H226234   4.089   0.845   0.397 -2.1589 -2.0990 -0.2151
 1559TIP3   OH226235   0.378   1.482   8.231  0.8027 -0.1618  0.0467
 1559TIP3    H126236   0.322   1.411   8.199 -0.5771  0.4152  1.0707
 1559TIP3    H226237   0.455   1.479   8.174 -0.0506 -1.2879 -1.1190
 1560TIP3   OH226238   2.232   6.598   2.362  0.1879 -0.4182 -0.0670
 1560TIP3    H126239   2.264   6.511   2.387 -1.2308 -0.8105  0.4953
 1560TIP3    H226240   2.214   6.642   2.445  1.2669  0.5789 -0.3456
 1561TIP3   OH226241   5.238   1.429   0.444 -0.1339 -0.0733  0.0882
 1561TIP3    H126242   5.285   1.455   0.523  1.3904 -0.8869 -0.5132
 1561TIP3    H226243   5.279   1.478   0.373  0.2654 -1.2691 -0.5351
 1562TIP3   OH226244   6.484   4.446   1.091  0.3857 -0.7209 -0.0809
 1562TIP3    H126245   6.408   4.393   1.069 -0.6319  0.4216  0.5221
 1562TIP3    H226246   6.446   4.527   1.127  1.8920 -0.1753  0.3273
 1563TIP3   OH226247   5.243   0.559   8.235 -0.0664 -0.0334 -0.5914
 1563TIP3    H126248   5.257   0.468   8.259  0.0559  0.2957  0.6332
 1563TIP3    H226249   5.331   0.592   8.212 -0.2189 -0.4126 -1.7758
 1564TIP3   OH226250   1.350   2.457   2.425  0.2554  0.7843  0.0623
 1564TIP3    H126251   1.280   2.459   2.490 -0.0874 -0.2599 -0.2577
 1564TIP3    H226252   1.327   2.528   2.364 -1.5500 -0.6647 -1.0510
 1565TIP3   OH226253   1.840   5.012   1.629 -0.3806 -0.7769 -0.0009
 1565TIP3    H126254   1.834   5.107   1.620 -0.0561 -0.7649 -0.1168
 1565TIP3    H226255   1.778   4.990   1.699 -0.1866 -0.4356  0.2801
 1566TIP3   OH226256   0.541   0.700   1.011 -0.4811 -0.0303  0.5810
 1566TIP3    H126257   0.565   0.735   0.925  0.8196  0.3124  1.0650
 1566TIP3    H226258   0.494   0.619   0.991 -1.1419  0.5848 -0.4742
 1567TIP3   OH226259   6.753   3.495   0.918 -0.4873 -0.1602 -0.2101
 1567TIP3    H126260   6.788   3.411   0.949 -1.8236 -0.9913 -0.8423
 1567TIP3    H226261   6.747   3.549   0.996  1.2126 -0.3446  0.0700
 1568TIP3   OH226262   2.989   0.971   2.378 -0.9971 -0.3287  0.2994
 1568TIP3    H126263   2.947   0.886   2.366  0.7417 -1.0398 -1.1087
 1568TIP3    H226264   2.970   1.020   2.298 -0.3180 -0.1451  0.2410
 1569TIP3   OH226265   4.264   6.560   0.623 -0.0998  0.4064 -0.4224
 1569TIP3    H126266   4.274   6.501   0.548 -0.0993  0.0806 -0.1716
 1569TIP3    H226267   4.217   6.636   0.588 -1.0059 -0.1836 -0.5373
 1570TIP3   OH226268   1.350   2.437   7.697  0.2473  0.4459 -0.3021
 1570TIP3    H126269   1.278   2.431   7.634 -1.6722  3.8205  1.2520
 1570TIP3    H226270   1.367   2.531   7.703  1.8303  0.0628  2.5857
 1571TIP3   OH226271   3.979   3.595   1.433  0.7231  0.3616 -0.0288
 1571TIP3    H126272   3.934   3.653   1.495 -0.3531  0.8576 -1.2265
 1571TIP3    H226273   3.925   3.516   1.431 -0.5671  1.2118 -1.9670
 1572TIP3   OH226274   6.683   0.348   0.970 -0.2319  0.7913  0.3566
 1572TIP3    H126275   6.752   0.405   1.005  0.9490  0.9311 -1.9471
 1572TIP3    H226276   6.714   0.259   0.989  0.6929  0.8509 -0.7534
 1573TIP3   OH226277   5.787   6.911   0.950 -0.4619  0.2417  0.2080
 1573TIP3    H126278   5.869   6.961   0.947 -0.2516 -0.1139 -0.0083
 1573TIP3    H226279   5.793   6.859   1.030 -1.7063  2.2798  1.7427
 1574TIP3   OH226280   2.986   3.299   7.010  0.4813 -0.5722 -0.4709
 1574TIP3    H126281   2.982   3.226   7.072 -2.0851 -0.9040 -0.9380
 1574TIP3    H226282   2.913   3.355   7.034 -1.8911 -1.6672 -4.2118
 1575TIP3   OH226283   3.853   1.020   2.299  0.2969  0.7766  0.1307
 1575TIP3    H126284   3.882   1.002   2.210 -0.2379  0.8248 -0.0555
 1575TIP3    H226285   3.843   1.115   2.303 -1.3342  0.6553 -0.2934
 1576TIP3   OH226286   3.201   0.782   1.317 -0.6341  0.1316 -0.2982
 1576TIP3    H126287   3.217   0.806   1.226 -2.1124  0.6878 -0.4526
 1576TIP3    H226288   3.161   0.695   1.312 -0.3869  0.0108 -0.1580
 1577TIP3   OH226289   2.688   6.510   1.703  0.5426 -0.0179 -0.2513
 1577TIP3    H126290   2.618   6.561   1.745 -0.8025 -2.2259  0.3882
 1577TIP3    H226291   2.767   6.562   1.717 -0.2767  0.6581  2.6796
 1578TIP3   OH226292   5.711   6.866   7.598 -0.1495  0.5394 -0.1457
 1578TIP3    H126293   5.733   6.774   7.619  0.5043  0.2355 -1.9999
 1578TIP3    H226294   5.796   6.911   7.600 -0.1328  0.6088 -1.4448
 1579TIP3   OH226295   3.220   4.207   8.404  0.4637  0.5410  0.4800
 1579TIP3    H126296   3.206   4.199   8.498  1.3573 -1.1842  0.5144
 1579TIP3    H226297   3.255   4.295   8.392  0.3430  0.7779  1.7626
 1580TIP3   OH226298   4.293   2.984   1.992  0.3156  0.2712 -0.8118
 1580TIP3    H126299   4.218   3.044   1.989  0.6765  0.7246 -0.8819
 1580TIP3    H226300   4.254   2.897   1.987 -0.2306  0.4910 -0.5155
 1581TIP3   OH226301   3.797   6.034   0.552  0.0225  0.0198  0.1627
 1581TIP3    H126302   3.878   6.070   0.589 -0.4406 -1.8796  3.3756
 1581TIP3    H226303   3.729   6.094   0.582 -0.0481  0.1403 -0.2369
 1582TIP3   OH226304   1.613   3.554   0.274  0.3469 -0.7459 -0.1955
 1582TIP3    H126305   1.680   3.623   0.272 -1.3097  1.0095 -3.1825
 1582TIP3    H226306   1.535   3.597   0.309 -0.3530 -1.5177 -0.7703
 1583TIP3   OH226307   5.078   5.374   1.244  0.6269  0.0678  0.4220
 1583TIP3    H126308   5.052   5.288   1.276  3.1445 -0.6161  0.9023
 1583TIP3    H226309   5.030   5.386   1.163  1.2447 -2.4596 -0.3989
 1584TIP3   OH226310   4.497   3.092   8.147 -0.4509  0.5367 -0.2734
 1584TIP3    H126311   4.507   3.158   8.078  2.4113  0.5900  0.0807
 1584TIP3    H226312   4.447   3.021   8.106  0.1165  1.0938 -2.0042
 1585TIP3   OH226313   5.544   1.863   1.006  0.1961  0.2080 -0.3770
 1585TIP3    H126314   5.622   1.819   1.040 -1.1353 -1.3626  0.8382
 1585TIP3    H226315   5.515   1.807   0.934  1.8807  2.4684 -2.9958
 1586TIP3   OH226316   3.531   1.255   0.667 -0.0985 -0.2941  0.4317
 1586TIP3    H126317   3.549   1.336   0.619 -0.7595  0.3325  1.2102
 1586TIP3    H226318   3.617   1.227   0.699  0.7012 -1.7899 -2.6577
 1587TIP3   OH226319   0.695   0.933   7.792 -0.1113  0.1200 -0.0994
 1587TIP3    H126320   0.653   1.000   7.845 -0.0736  0.4877 -0.5327
 1587TIP3    H226321   0.774   0.974   7.758 -0.6445  0.2430 -1.2698
 1588TIP3   OH226322   2.113   2.286   8.199  0.5475 -0.0225  0.3712
 1588TIP3    H126323   2.162   2.229   8.139  0.5813  0.0699  0.3104
 1588TIP3    H226324   2.116   2.241   8.283 -0.9090 -1.0030 -0.0537
 1589TIP3   OH226325   3.810   1.510   0.190 -0.2276 -0.1491 -0.0847
 1589TIP3    H126326   3.768   1.447   0.248 -1.3248  0.5691 -0.0672
 1589TIP3    H226327   3.815   1.466   0.105 -0.0419 -0.6298  0.1739
 1590TIP3   OH226328   1.881   5.973   0.837 -0.3208 -0.0207  0.2171
 1590TIP3    H126329   1.837   5.895   0.805 -1.3754  0.9101 -0.6688
 1590TIP3    H226330   1.860   6.041   0.773  0.1100  1.1265  1.2508
 1591TIP3   OH226331   5.786   1.638   6.983  0.4317 -0.0466  0.0007
 1591TIP3    H126332   5.788   1.706   6.915 -0.6456  0.7236  0.7140
 1591TIP3    H226333   5.735   1.677   7.054 -1.7258 -2.2472 -0.2370
 1592TIP3   OH226334   6.071   0.300   0.496  1.1341  0.0690 -0.3343
 1592TIP3    H126335   6.134   0.229   0.509 -0.6271 -1.4742  0.2766
 1592TIP3    H226336   6.013   0.267   0.427  0.1530  0.8122  0.1172
 1593TIP3   OH226337   1.673   1.755   6.992  0.1764 -0.2126  0.0360
 1593TIP3    H126338   1.696   1.676   6.944  1.8612 -1.4619  2.6372
 1593TIP3    H226339   1.733   1.822   6.958  0.2525 -0.6380 -0.6811
 1594TIP3   OH226340   0.177   1.081   7.236 -0.3955  0.4599  0.0262
 1594TIP3    H126341   0.089   1.098   7.202 -0.5712  0.4824  0.4861
 1594TIP3    H226342   0.210   1.167   7.262 -0.5073  0.3635  0.4953
 1595TIP3   OH226343   5.085   2.827   0.465 -0.1116  0.2959 -0.9038
 1595TIP3    H126344   5.031   2.905   0.480 -0.0229  0.0445  0.9685
 1595TIP3    H226345   5.061   2.797   0.377 -1.8642  1.0807 -0.7233
 1596TIP3   OH226346   3.786   5.247   0.780  0.4896  0.1733 -0.5830
 1596TIP3    H126347   3.846   5.300   0.729  0.1497  0.3186 -0.8334
 1596TIP3    H226348   3.835   5.224   0.859  0.3924  1.4792 -0.1239
 1597TIP3   OH226349   1.550   6.207   1.257 -0.0549  0.1052 -0.1046
 1597TIP3    H126350   1.521   6.179   1.170 -0.3687 -2.8414  0.8292
 1597TIP3    H226351   1.627   6.153   1.274 -1.1240 -0.8018  2.1705
 1598TIP3   OH226352   4.736   1.105   6.742  0.1765  0.0735 -0.6175
 1598TIP3    H126353   4.772   1.178   6.690 -0.8694  0.8991 -0.2154
 1598TIP3    H226354   4.813   1.056   6.769  1.0186  1.6860  0.0587
 1599TIP3   OH226355   0.154   6.117   2.929  0.0404 -0.3562 -0.0612
 1599TIP3    H126356   0.113   6.056   2.991 -1.4139  0.4617 -0.1886
 1599TIP3    H226357   0.151   6.071   2.845 -0.0986 -0.5209  0.0328
 1600TIP3   OH226358   1.290   0.846   8.161  0.1910 -0.3450  0.0387
 1600TIP3    H126359   1.349   0.771   8.150 -1.3913 -1.8612  1.3796
 1600TIP3    H226360   1.304   0.875   8.251  0.6883  0.9208 -0.4295
 1601TIP3   OH226361   6.596   6.674   1.008  0.2350  0.2150 -0.5006
 1601TIP3    H126362   6.664   6.607   1.016  1.3837  1.5188  1.2295
 1601TIP3    H226363   6.630   6.736   0.944  1.5884  1.8099  1.6500
 1602TIP3   OH226364   5.723   5.712   0.492  0.6902  0.1147 -0.6561
 1602TIP3    H126365   5.737   5.799   0.529  0.5397  0.3705 -1.1952
 1602TIP3    H226366   5.812   5.678   0.478  0.9106 -1.5398  3.4319
 1603TIP3   OH226367   5.180   5.466   7.911  0.1710 -0.1275  1.0081
 1603TIP3    H126368   5.102   5.507   7.949 -0.3177  0.2188 -0.3322
 1603TIP3    H226369   5.187   5.382   7.957 -0.7180  0.0365  1.4666
 1604TIP3   OH226370   3.458   4.184   7.545 -0.0061 -0.3204 -0.0250
 1604TIP3    H126371   3.543   4.210   7.509 -1.2410  1.3121 -1.9563
 1604TIP3    H226372   3.449   4.091   7.522  1.2014 -0.5029  0.1653
 1605TIP3   OH226373   3.755   5.133   2.816  0.0177  0.3381  0.1823
 1605TIP3    H126374   3.702   5.201   2.775 -0.6191 -1.0400 -1.4056
 1605TIP3    H226375   3.827   5.180   2.858 -1.8045  2.1829  1.4453
 1606TIP3   OH226376   2.335   2.558   3.075  0.3212  0.0791  0.6736
 1606TIP3    H126377   2.374   2.634   3.116  1.3939 -0.8191  1.3879
 1606TIP3    H226378   2.402   2.489   3.083 -0.3063 -0.7346 -0.6135
 1607TIP3   OH226379   1.228   5.148   8.196 -0.0596 -0.3817  0.2323
 1607TIP3    H126380   1.188   5.076   8.245 -1.9330  0.0047 -0.6150
 1607TIP3    H226381   1.248   5.110   8.110 -1.9020  0.2430 -0.5419
 1608TIP3   OH226382   2.851   1.153   1.211  0.4617 -0.5312 -0.2548
 1608TIP3    H126383   2.852   1.211   1.135  1.1281 -1.4442 -0.9636
 1608TIP3    H226384   2.816   1.207   1.282 -0.7461  0.1724 -1.3302
 1609TIP3   OH226385   1.492   6.597   8.009 -0.4069  0.7608 -0.2390
 1609TIP3    H126386   1.491   6.635   8.097  0.0659 -0.5368  0.3566
 1609TIP3    H226387   1.402   6.571   7.993 -0.5694  1.3535 -0.3079
 1610TIP3   OH226388   5.659   5.575   1.652  0.2017 -0.8382 -0.0786
 1610TIP3    H126389   5.632   5.499   1.601 -2.0335 -0.1527 -0.0315
 1610TIP3    H226390   5.710   5.628   1.590 -0.2740 -1.2352 -0.8197
 1611TIP3   OH226391   5.477   4.501   8.093 -0.3987  0.0681  0.5322
 1611TIP3    H126392   5.391   4.459   8.091 -1.6768  2.5211 -1.3474
 1611TIP3    H226393   5.496   4.522   8.002  3.0943 -1.8973  0.6273
 1612TIP3   OH226394   4.991   5.134   1.405 -0.5263 -0.8843 -0.5375
 1612TIP3    H126395   4.916   5.126   1.465 -0.5351  2.3389  0.0699
 1612TIP3    H226396   4.960   5.097   1.323 -0.6426 -5.1580  1.2077
 1613TIP3   OH226397   6.331   1.021   2.274  0.5843  0.2870  0.6383
 1613TIP3    H126398   6.309   1.098   2.328  1.1432  2.9486 -2.5901
 1613TIP3    H226399   6.254   1.009   2.219  1.5043  0.2089 -0.6592
 1614TIP3   OH226400   2.408   0.058   0.879 -0.0059  0.1845  0.0785
 1614TIP3    H126401   2.425   0.087   0.789 -0.3033  2.2477  0.6497
 1614TIP3    H226402   2.370  -0.030   0.869  0.8739 -0.0273 -1.7433
 1615TIP3   OH226403   6.315   1.365   1.900 -0.0983  0.0341 -0.8591
 1615TIP3    H126404   6.341   1.457   1.887  1.4659 -0.3663 -0.7826
 1615TIP3    H226405   6.262   1.345   1.823  1.6628  0.3042 -2.2309
 1616TIP3   OH226406   3.308   1.226   8.350  0.5318 -0.3607 -0.4647
 1616TIP3    H126407   3.285   1.286   8.279 -0.0710  0.0294  0.0434
 1616TIP3    H226408   3.318   1.140   8.308  1.4914  0.1057 -1.2085
 1617TIP3   OH226409   1.214   4.067   7.745  0.1469 -0.2374 -0.6176
 1617TIP3    H126410   1.305   4.067   7.775 -0.0925 -1.2816  0.1531
 1617TIP3    H226411   1.162   4.073   7.826 -0.4836  1.0216 -1.0769
 1618TIP3   OH226412   6.287   0.581   1.652  0.1086 -0.1793 -0.2974
 1618TIP3    H126413   6.262   0.662   1.696 -1.7125 -0.0883 -1.3884
 1618TIP3    H226414   6.253   0.512   1.709  0.2770 -0.1381 -0.1466
 1619TIP3   OH226415   1.596   3.088   1.752  0.2571 -0.2126 -0.5056
 1619TIP3    H126416   1.505   3.096   1.781  0.6655  0.7035  0.5741
 1619TIP3    H226417   1.590   3.038   1.671 -1.0193 -1.8876  0.5536
 1620TIP3   OH226418   3.770   3.980   7.537  0.1196 -0.6414 -0.2115
 1620TIP3    H126419   3.697   3.934   7.578 -0.3919 -0.1396 -0.5411
 1620TIP3    H226420   3.812   4.028   7.608 -0.0249 -0.7336 -0.0640
 1621TIP3   OH226421   4.079   1.537   7.843 -0.9241 -0.1705  0.0374
 1621TIP3    H126422   4.139   1.503   7.909 -1.3303 -0.7636  0.1128
 1621TIP3    H226423   3.992   1.515   7.876 -1.1478 -0.1078 -0.4976
 1622TIP3   OH226424   2.214   6.310   0.351  0.0573 -0.6258 -0.6137
 1622TIP3    H126425   2.278   6.373   0.318  0.7621 -1.5958 -1.1188
 1622TIP3    H226426   2.162   6.286   0.274 -0.5983 -0.2337 -0.3059
 1623TIP3   OH226427   6.072   6.541   0.389  0.5179  0.4882  0.4845
 1623TIP3    H126428   5.986   6.554   0.429  0.1835  0.6378 -0.2475
 1623TIP3    H226429   6.055   6.547   0.295  1.4083  0.9764  0.3404
 1624TIP3   OH226430   3.392   2.655   1.001  0.0125 -0.0654 -0.1867
 1624TIP3    H126431   3.458   2.597   1.039 -1.4791 -1.2322  0.7334
 1624TIP3    H226432   3.312   2.603   1.000 -1.1459  1.6267 -0.3613
 1625TIP3   OH226433   1.490   6.892   0.517 -0.1754 -0.1468  0.0336
 1625TIP3    H126434   1.579   6.860   0.502 -0.2676 -2.2443  3.0091
 1625TIP3    H226435   1.500   6.958   0.586 -0.9503 -1.0244  1.0195
 1626TIP3   OH226436   3.896   0.344   1.211 -0.2821  0.1860  0.9765
 1626TIP3    H126437   3.949   0.393   1.148 -2.0618  2.2182  0.9223
 1626TIP3    H226438   3.935   0.257   1.213  1.6974  0.9463 -0.6173
 1627TIP3   OH226439   5.683   3.169   6.856 -0.1853  0.1911  0.5846
 1627TIP3    H126440   5.631   3.133   6.928 -3.1980  0.1338 -1.4565
 1627TIP3    H226441   5.704   3.094   6.801 -0.3807  0.5991 -0.0591
 1628TIP3   OH226442   6.858   6.065   0.199 -0.4132  0.1104 -0.0090
 1628TIP3    H126443   6.878   6.141   0.254  0.2950  0.8564 -1.2512
 1628TIP3    H226444   6.764   6.052   0.210 -0.5805  1.2858  0.0750
 1629TIP3   OH226445   5.308   1.808   0.219  0.0429  0.0012  0.0431
 1629TIP3    H126446   5.388   1.859   0.214 -0.2359  0.4676  0.2682
 1629TIP3    H226447   5.326   1.740   0.284  0.1882  0.2383  0.2541
 1630TIP3   OH226448   2.042   5.130   0.459 -0.6051 -0.0688  0.0749
 1630TIP3    H126449   2.092   5.200   0.502 -0.6461 -0.2491  0.4234
 1630TIP3    H226450   2.108   5.081   0.409 -0.0781 -1.3498  1.8810
 1631TIP3   OH226451   6.435   0.882   1.459 -0.1423 -0.0180 -0.5997
 1631TIP3    H126452   6.396   0.940   1.524 -0.3577 -2.5654  1.7142
 1631TIP3    H226453   6.526   0.871   1.488 -0.3678 -1.5694 -0.4090
 1632TIP3   OH226454   2.080   4.848   6.732 -0.5920  0.6787  0.5757
 1632TIP3    H126455   2.011   4.884   6.677  0.0634  0.9933 -0.0660
 1632TIP3    H226456   2.099   4.918   6.795  1.5882  2.1234 -1.4787
 1633TIP3   OH226457   0.390   1.793   2.395  0.1152 -0.0658  0.6428
 1633TIP3    H126458   0.348   1.826   2.475 -0.6302  0.3198  0.1048
 1633TIP3    H226459   0.318   1.760   2.342  0.3991  1.2059 -0.5870
 1634TIP3   OH226460   3.596   6.832   7.932  0.6751  0.3474  0.3027
 1634TIP3    H126461   3.688   6.814   7.912  0.8824  0.4341  1.1306
 1634TIP3    H226462   3.585   6.799   8.022 -0.5328 -1.1966 -0.3564
 1635TIP3   OH226463   3.203   4.335   0.807  0.4404  0.1926 -0.2876
 1635TIP3    H126464   3.259   4.368   0.737  0.2499  0.1710 -0.4506
 1635TIP3    H226465   3.118   4.377   0.792  0.7785  1.3078  0.7707
 1636TIP3   OH226466   3.836   3.480   2.006  0.2154 -0.3628  0.6005
 1636TIP3    H126467   3.755   3.459   1.961 -0.5430 -0.1688  1.8414
 1636TIP3    H226468   3.868   3.395   2.037 -1.0540 -0.1498  2.6252
 1637TIP3   OH226469   4.343   4.246   1.836 -0.6059  0.0658 -0.5713
 1637TIP3    H126470   4.295   4.225   1.756 -0.3252 -0.0552 -0.7066
 1637TIP3    H226471   4.432   4.264   1.807 -0.4083 -0.3734 -0.2402
 1638TIP3   OH226472   0.020   2.090   0.472  0.1890 -0.0090 -0.1870
 1638TIP3    H126473  -0.028   2.149   0.531 -1.2546 -0.6727 -0.6476
 1638TIP3    H226474   0.070   2.149   0.416  0.2048  0.7009  0.5447
 1639TIP3   OH226475   2.109   5.442   0.424 -0.1232  0.0927 -0.0977
 1639TIP3    H126476   2.192   5.421   0.381  0.9886  0.6286  1.6705
 1639TIP3    H226477   2.134   5.489   0.504 -1.8914 -2.7184  2.3202
 1640TIP3   OH226478   3.663   2.208   6.919  0.5054  0.1318  0.4077
 1640TIP3    H126479   3.599   2.138   6.928  0.7058  0.0912  1.7381
 1640TIP3    H226480   3.613   2.281   6.880 -0.6917  0.4699  2.3778
 1641TIP3   OH226481   0.752   0.258   1.626  0.1836  0.3443  0.0221
 1641TIP3    H126482   0.729   0.351   1.628  1.4457  0.6641  0.6844
 1641TIP3    H226483   0.668   0.212   1.630 -0.3874  1.4526  1.5487
 1642TIP3   OH226484   0.212   2.188   7.197  0.0695 -0.0009  0.3262
 1642TIP3    H126485   0.145   2.253   7.174 -0.4208 -0.8399 -0.7508
 1642TIP3    H226486   0.292   2.239   7.211 -0.7037  0.9873  1.2959
 1643TIP3   OH226487   4.067   5.476   0.391  0.7655  0.0988 -0.3507
 1643TIP3    H126488   3.989   5.465   0.447  0.8113  1.7554  0.0992
 1643TIP3    H226489   4.141   5.463   0.450  0.8271  2.8333  0.3046
 1644TIP3   OH226490   5.277   4.200   1.600 -0.0735  0.0190  0.0201
 1644TIP3    H126491   5.265   4.135   1.669  1.6689 -0.3819 -0.0138
 1644TIP3    H226492   5.189   4.216   1.566 -0.7052 -1.2375  1.0073
 1645TIP3   OH226493   2.698   0.490   0.179 -0.2824  0.3184 -0.5523
 1645TIP3    H126494   2.621   0.440   0.204  1.2318 -1.6174  0.5719
 1645TIP3    H226495   2.694   0.569   0.233 -1.1937 -0.0094 -0.1216
 1646TIP3   OH226496   0.816   4.417   8.027 -0.2919 -0.6260  0.0400
 1646TIP3    H126497   0.902   4.436   7.991 -0.2297  1.1898  1.0335
 1646TIP3    H226498   0.832   4.398   8.119 -1.1814  2.9829  1.0633
 1647TIP3   OH226499   5.155   5.524   0.886 -0.2659 -0.5952  0.0475
 1647TIP3    H126500   5.067   5.553   0.909  0.1869  0.1574  0.9345
 1647TIP3    H226501   5.190   5.487   0.967  0.6816  0.3023  0.0700
 1648TIP3   OH226502   4.315   1.542   0.667 -0.0621  0.1146 -0.2448
 1648TIP3    H126503   4.260   1.465   0.678 -1.5639  0.8064 -2.3227
 1648TIP3    H226504   4.255   1.612   0.642  1.1669  2.1731  2.0654
 1649TIP3   OH226505   3.992   5.678   8.517  0.6681 -0.0239 -0.0452
 1649TIP3    H126506   4.005   5.701   8.609 -0.3074 -2.8430  0.8867
 1649TIP3    H226507   4.072   5.632   8.492  0.2963 -0.6364 -0.1228
 1650TIP3   OH226508   4.079   2.337   1.130 -0.1919  0.1796 -0.8286
 1650TIP3    H126509   4.109   2.279   1.060 -0.4341 -0.0234 -0.7694
 1650TIP3    H226510   4.012   2.286   1.176 -0.6983  0.6519 -1.0238
 1651TIP3   OH226511   1.994   0.544   1.047 -0.3098 -0.4801 -0.4030
 1651TIP3    H126512   1.976   0.637   1.055  1.1192 -0.2920  1.4870
 1651TIP3    H226513   1.929   0.511   0.985 -1.5388  1.5507 -0.2610
 1652TIP3   OH226514   5.495   1.342   8.378  0.1718 -0.2306 -0.1381
 1652TIP3    H126515   5.584   1.367   8.355  0.1165 -0.8384 -1.0942
 1652TIP3    H226516   5.482   1.258   8.334 -1.6295  0.8964 -1.9383
 1653TIP3   OH226517   4.262   1.957   0.431 -0.3659  0.3642 -0.5453
 1653TIP3    H126518   4.349   1.916   0.436 -0.0185  1.1751  0.7159
 1653TIP3    H226519   4.261   2.019   0.504 -2.2793 -0.1130 -0.1097
 1654TIP3   OH226520   5.810   0.205   0.297  0.5267  0.0320  0.1920
 1654TIP3    H126521   5.853   0.147   0.234  4.6671  0.1852  2.5763
 1654TIP3    H226522   5.803   0.289   0.250  0.9541 -0.5439 -0.9491
 1655TIP3   OH226523   3.637   1.454   3.093 -0.9624 -0.5217 -0.1414
 1655TIP3    H126524   3.719   1.480   3.135 -1.7082 -0.3563  1.2709
 1655TIP3    H226525   3.635   1.504   3.011 -0.3029  0.5484  0.4710
 1656TIP3   OH226526   6.560   3.046   1.441 -0.5490 -0.2482  0.2610
 1656TIP3    H126527   6.515   3.009   1.366  2.1635  1.0316 -2.1992
 1656TIP3    H226528   6.559   3.141   1.425  1.0486 -0.0308  1.1873
 1657TIP3   OH226529   6.309   6.116   8.251 -0.1052  0.6246  0.0647
 1657TIP3    H126530   6.328   6.198   8.207  1.1894  0.7070  0.7318
 1657TIP3    H226531   6.222   6.129   8.290 -0.7893  0.9351 -1.4721
 1658TIP3   OH226532   2.099   6.722   0.876  0.4313 -0.2390  0.3151
 1658TIP3    H126533   2.025   6.675   0.838  1.0224 -0.8243 -0.1412
 1658TIP3    H226534   2.079   6.727   0.969  0.3292 -1.3635  0.3710
 1659TIP3   OH226535   3.820   4.366   7.753 -0.1251 -0.8237  0.5502
 1659TIP3    H126536   3.811   4.384   7.660 -0.6077 -0.8090  0.5984
 1659TIP3    H226537   3.737   4.394   7.791 -0.3481 -1.8385  0.8312
 1660TIP3   OH226538   1.474   3.300   7.666 -0.2620  0.0690  0.1872
 1660TIP3    H126539   1.385   3.306   7.701 -0.9092  0.3264 -1.4268
 1660TIP3    H226540   1.493   3.388   7.634  0.1670 -0.2287 -0.3956
 1661TIP3   OH226541   2.608   3.210   2.968 -0.3923 -0.2987 -0.0098
 1661TIP3    H126542   2.567   3.230   3.052  0.0531  2.1483 -0.2948
 1661TIP3    H226543   2.692   3.255   2.971  0.4298 -1.6954 -1.0756
 1662TIP3   OH226544   5.647   4.063   1.416  0.1424  0.2956  0.0768
 1662TIP3    H126545   5.671   4.151   1.445  1.1984 -0.2565  0.9420
 1662TIP3    H226546   5.584   4.032   1.481 -0.0236  0.3038 -0.0781
 1663TIP3   OH226547   5.283   3.155   0.519  0.3470 -0.0934  0.0091
 1663TIP3    H126548   5.189   3.140   0.511  0.4350  0.1832 -2.4671
 1663TIP3    H226549   5.291   3.240   0.562 -0.5071 -0.2867  0.5714
 1664TIP3   OH226550   2.073   5.773   0.358 -0.7194 -0.1760  0.7114
 1664TIP3    H126551   2.130   5.765   0.434  0.4724  1.0539 -0.0088
 1664TIP3    H226552   2.130   5.754   0.283 -0.9262  2.1026 -0.1016
 1665TIP3   OH226553   3.254   2.399   7.975 -0.1584  0.8382 -0.3793
 1665TIP3    H126554   3.278   2.382   7.884  1.0016  1.1169 -0.1467
 1665TIP3    H226555   3.162   2.374   7.981  0.4355 -1.7846 -0.9573
 1666TIP3   OH226556   2.118   4.566   8.457 -0.4280  0.1433 -0.3573
 1666TIP3    H126557   2.074   4.600   8.379 -2.4540 -1.9322 -0.2374
 1666TIP3    H226558   2.047   4.533   8.512  0.9761  0.9283  2.1204
 1667TIP3   OH226559   1.593   4.180   0.695  0.4967 -0.1638 -0.6856
 1667TIP3    H126560   1.533   4.215   0.629 -0.3941 -1.6717 -0.7100
 1667TIP3    H226561   1.537   4.135   0.758  1.3165  1.2936  1.1819
 1668TIP3   OH226562   1.115   1.574   1.141  0.1650  0.1987  0.0123
 1668TIP3    H126563   1.108   1.540   1.052 -0.0590 -1.9236  0.7751
 1668TIP3    H226564   1.119   1.669   1.131  0.6766 -0.0220 -2.2728
 1669TIP3   OH226565   1.320   3.542   1.734 -0.3869  0.1566 -0.4089
 1669TIP3    H126566   1.338   3.617   1.678 -1.6812 -0.2585 -1.4451
 1669TIP3    H226567   1.306   3.580   1.821 -0.5684  1.0704 -0.8270
 1670TIP3   OH226568   2.109   3.218   8.113 -0.0350  0.3691  0.0318
 1670TIP3    H126569   2.133   3.270   8.189 -0.5589 -0.3602  0.7090
 1670TIP3    H226570   2.192   3.180   8.083  0.3383  1.4957 -0.4241
 1671TIP3   OH226571   6.145   1.069   1.467  0.4042  0.1393 -0.0630
 1671TIP3    H126572   6.131   1.094   1.559 -0.0928 -0.1643 -0.0558
 1671TIP3    H226573   6.123   0.976   1.464  1.6925 -0.1813 -0.2160
 1672TIP3   OH226574   6.418   0.305   6.978 -0.4378 -0.5156  0.0811
 1672TIP3    H126575   6.376   0.220   6.997  0.0284 -0.8698 -0.4407
 1672TIP3    H226576   6.404   0.317   6.884 -1.2761  0.4242  0.3077
 1673TIP3   OH226577   5.076   5.898   8.006  0.4127  0.1050  0.0556
 1673TIP3    H126578   5.039   5.837   8.069 -0.1287 -1.1489 -1.4115
 1673TIP3    H226579   5.001   5.925   7.953  1.0989 -0.1224 -1.0543
 1674TIP3   OH226580   3.423   2.876   7.789 -0.5331 -0.5802  0.2503
 1674TIP3    H126581   3.366   2.803   7.812 -1.0354 -0.2955 -0.0683
 1674TIP3    H226582   3.511   2.839   7.791 -0.7375 -1.0620  0.6052
 1675TIP3   OH226583   5.137   2.651   1.787 -0.1630  0.0736  0.2277
 1675TIP3    H126584   5.054   2.655   1.740  0.4622  0.6728 -0.8715
 1675TIP3    H226585   5.176   2.738   1.775  1.7008 -0.8799 -1.4049
 1676TIP3   OH226586   4.088   3.956   1.279 -0.0460  0.1809  0.0197
 1676TIP3    H126587   4.107   3.864   1.263 -1.5053 -0.4249  1.4329
 1676TIP3    H226588   4.052   3.958   1.368 -0.6229  2.0249 -0.2002
 1677TIP3   OH226589   5.282   4.619   7.868  0.1168  0.5453 -0.5602
 1677TIP3    H126590   5.307   4.672   7.943 -1.2981 -0.6708  0.8533
 1677TIP3    H226591   5.361   4.613   7.815  1.1982  1.3456  0.8942
 1678TIP3   OH226592   5.832   4.999   0.574 -0.5022 -0.2281  0.1982
 1678TIP3    H126593   5.811   4.956   0.490  1.5886 -2.3133  0.6431
 1678TIP3    H226594   5.842   4.927   0.636  2.7770  0.8536  1.1138
 1679TIP3   OH226595   0.011   1.195   7.877 -0.8938  0.6507 -0.7724
 1679TIP3    H126596  -0.054   1.264   7.862 -0.8572  0.4566 -1.9680
 1679TIP3    H226597  -0.016   1.153   7.958  0.1589  3.2749  1.0646
 1680TIP3   OH226598   1.163   5.451   7.407 -0.6469  0.0703  0.2416
 1680TIP3    H126599   1.175   5.482   7.317 -2.4917  1.2438  0.3358
 1680TIP3    H226600   1.249   5.462   7.448 -0.1295  0.8935 -0.9961
 1681TIP3   OH226601   5.962   4.201   8.319  0.6429  0.2885  0.2827
 1681TIP3    H126602   5.879   4.246   8.300  0.9446  0.8443  0.2808
 1681TIP3    H226603   6.018   4.222   8.245  0.5863 -0.6005 -0.0224
 1682TIP3   OH226604   6.365   6.397   7.713 -0.1660  0.2794  0.4449
 1682TIP3    H126605   6.329   6.422   7.798 -0.4475 -0.3715  0.5220
 1682TIP3    H226606   6.383   6.481   7.669 -0.5645  0.6157  0.9104
 1683TIP3   OH226607   0.024   0.260   2.697  0.4090  0.2382 -1.0487
 1683TIP3    H126608  -0.028   0.315   2.755  0.3080 -2.1131  1.2815
 1683TIP3    H226609  -0.036   0.234   2.627 -0.7270 -0.1685  0.0535
 1684TIP3   OH226610   4.791   5.567   0.487  0.9919  0.2763 -0.2533
 1684TIP3    H126611   4.855   5.510   0.445 -0.2758 -0.8354 -0.7787
 1684TIP3    H226612   4.758   5.622   0.415  1.2177  0.7100 -0.0275
 1685TIP3   OH226613   6.649   4.601   2.197  0.0265 -0.2409 -0.3773
 1685TIP3    H126614   6.555   4.621   2.192  0.0646 -0.2568 -1.1765
 1685TIP3    H226615   6.683   4.619   2.110  0.2117 -2.9635 -0.9695
 1686TIP3   OH226616   1.442   6.741   8.272 -0.4665  0.2262  0.4712
 1686TIP3    H126617   1.403   6.685   8.339 -2.5271 -1.9024 -2.2947
 1686TIP3    H226618   1.372   6.759   8.210  1.9125 -0.3426 -2.6453
 1687TIP3   OH226619   0.823   5.397   0.225 -0.2944 -0.6410 -0.2530
 1687TIP3    H126620   0.738   5.386   0.268  1.0330 -1.2961  2.4615
 1687TIP3    H226621   0.881   5.336   0.272  1.5160 -0.8136 -2.5463
 1688TIP3   OH226622   5.786   2.460   0.065  0.4890 -0.1320  0.5658
 1688TIP3    H126623   5.696   2.447   0.034  0.0923 -1.7981  2.2659
 1688TIP3    H226624   5.780   2.453   0.160  2.5846 -1.3429  0.6622
 1689TIP3   OH226625   1.626   4.758   1.045 -0.2648  0.1724 -0.4695
 1689TIP3    H126626   1.534   4.775   1.023 -0.9570 -1.6679  0.7629
 1689TIP3    H226627   1.638   4.801   1.130  0.6544  2.1266 -1.5194
 1690TIP3   OH226628   6.023   6.673   1.566 -0.1834  0.6485 -0.2357
 1690TIP3    H126629   6.109   6.658   1.527 -0.1010  1.3478 -0.3384
 1690TIP3    H226630   5.965   6.613   1.519  0.1429  0.5814 -0.5626
 1691TIP3   OH226631   5.370   1.086   0.380 -0.3937 -0.3206  0.0820
 1691TIP3    H126632   5.447   1.143   0.385 -0.0022 -0.8569  0.2670
 1691TIP3    H226633   5.352   1.079   0.286  0.0998 -0.6063  0.0078
 1692TIP3   OH226634   6.719   3.643   1.183 -0.4280  0.6770  0.1886
 1692TIP3    H126635   6.789   3.707   1.172  0.4084 -0.3732 -0.9135
 1692TIP3    H226636   6.730   3.610   1.272 -0.6799  1.8092  0.6619
 1693TIP3   OH226637   5.093   3.692   0.863 -0.3028 -0.2283  0.2870
 1693TIP3    H126638   5.006   3.659   0.885 -0.9960  0.9625 -0.5990
 1693TIP3    H226639   5.091   3.705   0.768  0.1538  1.7022  0.5116
 1694TIP3   OH226640   3.588   6.570   0.196  0.1055 -0.1306  0.0263
 1694TIP3    H126641   3.645   6.647   0.204  0.4230 -0.2443 -0.9973
 1694TIP3    H226642   3.580   6.556   0.102 -2.7538  0.6788  0.0856
 1695TIP3   OH226643   3.387   3.418   2.428  0.1435  0.4843  0.0746
 1695TIP3    H126644   3.303   3.463   2.437 -0.8555 -1.2728 -0.0652
 1695TIP3    H226645   3.452   3.483   2.457 -1.1779  2.0988 -0.4168
 1696TIP3   OH226646   0.531   4.150   0.732 -0.2602  0.3880 -0.0111
 1696TIP3    H126647   0.453   4.145   0.677  0.3296  1.5015 -1.0044
 1696TIP3    H226648   0.591   4.086   0.694 -0.8691 -0.8918  1.1103
 1697TIP3   OH226649   0.965   1.867   1.296 -0.5487  0.0903  0.3458
 1697TIP3    H126650   1.045   1.857   1.348 -0.2190  1.5172  0.1590
 1697TIP3    H226651   0.944   1.960   1.303  1.1572  1.1031 -4.4340
 1698TIP3   OH226652   6.445   5.604   0.392 -0.0354 -0.2578  0.8802
 1698TIP3    H126653   6.478   5.562   0.471  0.9507 -2.8633 -0.7952
 1698TIP3    H226654   6.364   5.556   0.371  0.0876 -0.0716 -0.0634
 1699TIP3   OH226655   6.334   1.443   7.494  0.6609 -0.7974  0.4138
 1699TIP3    H126656   6.302   1.450   7.403 -0.8648 -1.0931  0.9018
 1699TIP3    H226657   6.293   1.517   7.539  2.0993 -0.1437  0.6964
 1700TIP3   OH226658   5.311   0.423   0.553  0.0637  0.0042 -0.4096
 1700TIP3    H126659   5.400   0.429   0.589 -0.2876  1.7539  0.2518
 1700TIP3    H226660   5.254   0.425   0.629 -0.5650 -1.4380 -0.8155
 1701TIP3   OH226661   3.810   2.079   1.993 -0.0778 -0.8115  0.1749
 1701TIP3    H126662   3.775   2.052   2.079  1.2939  0.7956  1.3021
 1701TIP3    H226663   3.747   2.142   1.960  0.8233  0.8470  1.4511
 1702TIP3   OH226664   1.232   1.887   2.113  0.0849 -0.4375  0.0428
 1702TIP3    H126665   1.188   1.852   2.036  0.6672 -0.4538 -0.2812
 1702TIP3    H226666   1.308   1.935   2.079  0.0468  0.0128  0.5673
 1703TIP3   OH226667   5.175   5.174   0.986 -0.0958 -0.3900 -0.0115
 1703TIP3    H126668   5.134   5.090   1.004 -0.4419 -0.2167  0.0150
 1703TIP3    H226669   5.117   5.239   1.026  1.1193 -0.2406  1.6139
 1704TIP3   OH226670   1.960   0.709   2.452 -0.1747 -0.0721 -0.1856
 1704TIP3    H126671   2.041   0.754   2.478  0.1351 -0.8745  0.2988
 1704TIP3    H226672   1.932   0.753   2.372  0.9229  0.0161 -0.5393
 1705TIP3   OH226673   6.255   4.096   7.607  0.3268  0.0641 -0.1037
 1705TIP3    H126674   6.294   4.089   7.694 -0.1589 -3.9022 -0.0032
 1705TIP3    H226675   6.163   4.117   7.623  0.0820 -1.3302  0.4735
 1706TIP3   OH226676   3.590   6.290   7.302  0.3404  0.2103  0.6071
 1706TIP3    H126677   3.495   6.288   7.316  0.0798  2.8002 -0.3312
 1706TIP3    H226678   3.607   6.217   7.243 -1.2415  0.2906 -0.0085
 1707TIP3   OH226679   6.162   3.449   0.440 -0.3621  0.5624  0.0977
 1707TIP3    H126680   6.199   3.373   0.394 -1.0175 -1.1768  2.2767
 1707TIP3    H226681   6.231   3.516   0.435 -0.1444  0.2512 -2.7083
 1708TIP3   OH226682   3.788   3.692   7.659  0.2400 -0.1466 -0.1650
 1708TIP3    H126683   3.854   3.720   7.595 -1.1892 -1.0565 -2.1210
 1708TIP3    H226684   3.726   3.765   7.662  1.1162  0.5761  1.4411
 1709TIP3   OH226685   2.164   6.074   7.517 -0.2832 -0.1283  0.2175
 1709TIP3    H126686   2.162   6.111   7.605  0.8012 -0.7856  0.5449
 1709TIP3    H226687   2.084   6.106   7.475 -0.3576  0.9429  1.1314
 1710TIP3   OH226688   3.788   5.600   2.332  0.0565 -0.0400  0.1051
 1710TIP3    H126689   3.695   5.591   2.349  0.2346 -0.5247  0.9011
 1710TIP3    H226690   3.798   5.583   2.239 -0.9068  2.2259 -0.4576
 1711TIP3   OH226691   2.686   0.514   7.651  0.8126 -0.3271 -0.0402
 1711TIP3    H126692   2.778   0.494   7.637  0.5752 -0.4207 -1.6417
 1711TIP3    H226693   2.654   0.543   7.565  0.1988  3.2043  1.2107
 1712TIP3   OH226694   4.734   5.609   2.170 -0.0557  0.0433  0.5054
 1712TIP3    H126695   4.754   5.598   2.263  0.7791 -0.1292  0.3149
 1712TIP3    H226696   4.661   5.549   2.154 -0.3910  0.2852  1.1082
 1713TIP3   OH226697   3.057   6.520   7.814 -1.1567 -0.3323 -0.4196
 1713TIP3    H126698   3.033   6.504   7.723  0.3383 -1.5564 -0.6343
 1713TIP3    H226699   3.128   6.458   7.832  0.0657  1.3466  0.9275
 1714TIP3   OH226700   2.900   5.354   6.539 -0.5713  0.3292  0.2136
 1714TIP3    H126701   2.883   5.281   6.600  2.2276 -0.9227 -0.3371
 1714TIP3    H226702   2.955   5.414   6.589 -1.5770  1.3249  0.1531
 1715TIP3   OH226703   5.511   6.245   0.911  0.0536  0.4921 -0.6825
 1715TIP3    H126704   5.565   6.204   0.979  0.4760  1.2767 -0.5309
 1715TIP3    H226705   5.508   6.181   0.840 -1.2644 -0.7751  0.4740
 1716TIP3   OH226706   6.176   2.507   1.039  0.0913  0.1371 -0.4751
 1716TIP3    H126707   6.112   2.561   0.992  0.4168 -0.9998 -2.3458
 1716TIP3    H226708   6.129   2.475   1.116 -1.4794 -0.3014 -1.5677
 1717TIP3   OH226709   5.717   0.786   0.961 -0.7028 -0.1618 -0.0502
 1717TIP3    H126710   5.654   0.821   1.024  2.1530 -2.3560  4.5111
 1717TIP3    H226711   5.782   0.855   0.951 -0.8463 -0.0399 -0.1523
 1718TIP3   OH226712   3.829   0.411   0.686  0.3944  0.9993  0.0844
 1718TIP3    H126713   3.908   0.373   0.725 -0.3296  0.6929  1.3213
 1718TIP3    H226714   3.854   0.430   0.596  1.1018 -1.5005 -0.3324
 1719TIP3   OH226715   1.906   0.635   1.854  0.2648 -0.3338 -0.2453
 1719TIP3    H126716   1.924   0.608   1.764 -0.3586 -0.3548 -0.3681
 1719TIP3    H226717   1.812   0.618   1.866  0.1594  0.4541  0.1304
 1720TIP3   OH226718   2.384   0.688   0.248  0.1203 -0.7338 -0.0328
 1720TIP3    H126719   2.359   0.720   0.334 -0.4891 -1.1796 -0.0357
 1720TIP3    H226720   2.416   0.599   0.263 -1.3972 -1.3804 -0.4320
 1721TIP3   OH226721   3.648   2.276   0.506 -0.0992 -0.7348 -0.2195
 1721TIP3    H126722   3.714   2.208   0.489  1.5238  0.5526  0.5814
 1721TIP3    H226723   3.577   2.230   0.551 -0.1171 -2.3086 -1.7053
 1722TIP3   OH226724   0.019   6.730   2.442  0.1450 -0.4807 -0.0739
 1722TIP3    H126725   0.031   6.663   2.510 -0.8651  1.2440  1.9036
 1722TIP3    H226726   0.104   6.775   2.438  0.6972 -1.5430 -1.1236
 1723TIP3   OH226727   0.114   1.237   1.388  1.0610 -0.8099 -0.0393
 1723TIP3    H126728   0.130   1.324   1.351 -1.0718  0.4008  1.6992
 1723TIP3    H226729   0.060   1.193   1.323 -0.3933  0.3072  0.3652
 1724TIP3   OH226730   4.447   6.532   7.864 -0.0266 -0.0631  0.6431
 1724TIP3    H126731   4.411   6.512   7.949  0.2363  0.6303  0.9292
 1724TIP3    H226732   4.537   6.560   7.882  0.2466 -0.5507  0.0736
 1725TIP3   OH226733   2.618   4.434   0.089 -0.9668 -0.0655 -0.0956
 1725TIP3    H126734   2.558   4.440   0.164 -0.0025  1.8912  0.5730
 1725TIP3    H226735   2.704   4.453   0.126 -0.5983  2.0257 -1.8378
 1726TIP3   OH226736   2.041   6.073   8.167 -0.3277 -0.5278 -0.6655
 1726TIP3    H126737   2.047   6.069   8.262 -0.0271  1.4965 -0.5397
 1726TIP3    H226738   1.958   6.117   8.150  0.0130 -0.0965 -1.2856
 1727TIP3   OH226739   6.417   0.225   7.962  0.1527 -0.6184 -0.2149
 1727TIP3    H126740   6.447   0.137   7.983 -0.2611 -0.5429  0.7473
 1727TIP3    H226741   6.490   0.265   7.913  0.2544 -1.5540 -0.8503
 1728TIP3   OH226742   6.576   1.610   1.678 -0.1177 -0.5960  0.2857
 1728TIP3    H126743   6.537   1.682   1.727  0.4128  1.6176 -2.2465
 1728TIP3    H226744   6.505   1.577   1.623  0.4530  0.6466 -1.2981
 1729TIP3   OH226745   5.058   1.546   1.141 -0.1466 -0.0799 -0.2757
 1729TIP3    H126746   5.047   1.584   1.229 -0.6879 -1.5552  0.3306
 1729TIP3    H226747   5.079   1.621   1.085  1.4620  0.7424  1.3255
 1730TIP3   OH226748   6.826   0.497   1.171 -0.7343  0.4138 -1.0411
 1730TIP3    H126749   6.825   0.568   1.107 -5.0362  0.1555 -1.5463
 1730TIP3    H226750   6.813   0.540   1.256  1.1646  0.4623 -0.7309
 1731TIP3   OH226751   2.364   4.448   0.470 -0.1310 -0.3091  0.2837
 1731TIP3    H126752   2.304   4.399   0.414 -0.5588  0.2533  0.2271
 1731TIP3    H226753   2.330   4.436   0.558 -0.5564  0.3078  0.2127
 1732TIP3   OH226754   6.178   1.640   7.600  0.0467 -0.3937 -0.1336
 1732TIP3    H126755   6.111   1.572   7.603 -0.8498  0.2643 -2.5567
 1732TIP3    H226756   6.130   1.722   7.612  1.1013 -0.0738  2.6841
 1733TIP3   OH226757   3.724   2.610   0.865 -0.7076  0.1728  0.2189
 1733TIP3    H126758   3.689   2.538   0.918 -0.1575 -1.3282 -1.3639
 1733TIP3    H226759   3.777   2.661   0.926 -0.3842 -1.2722  1.1919
 1734TIP3   OH226760   5.657   5.118   2.612  0.6403 -0.8562 -0.2054
 1734TIP3    H126761   5.740   5.073   2.620  0.0849 -1.7987  0.4215
 1734TIP3    H226762   5.680   5.206   2.582  1.8758 -1.0101  0.2455
 1735TIP3   OH226763   1.520   4.547   0.095  0.0408  0.0356 -0.4002
 1735TIP3    H126764   1.594   4.523   0.151 -1.1993  0.9912  1.7610
 1735TIP3    H226765   1.512   4.642   0.105 -3.1570 -0.2990  1.7926
 1736TIP3   OH226766   3.105   2.727   0.604  0.1017 -0.8590  0.5803
 1736TIP3    H126767   3.131   2.737   0.696 -0.5425  0.6897  0.6390
 1736TIP3    H226768   3.012   2.753   0.603  0.2164 -0.4325 -0.5646
 1737TIP3   OH226769   4.259   0.102   1.090  0.1587 -0.0742  0.5869
 1737TIP3    H126770   4.221   0.185   1.063  4.0227  1.9253  0.5276
 1737TIP3    H226771   4.252   0.102   1.185 -0.6432 -0.1398  0.5340
 1738TIP3   OH226772   1.437   0.794   2.592 -0.4521 -0.6890 -0.1238
 1738TIP3    H126773   1.430   0.758   2.681  1.8160  0.6533  0.7156
 1738TIP3    H226774   1.393   0.879   2.598  0.4013 -0.2422 -0.0166
 1739TIP3   OH226775   4.141   4.054   7.320  0.4395 -0.2938 -0.4365
 1739TIP3    H126776   4.097   3.982   7.274  0.7133 -0.7964  0.0894
 1739TIP3    H226777   4.232   4.049   7.292  0.9149 -1.4684  1.2006
 1740TIP3   OH226778   0.458   3.862   2.146 -0.6695 -0.5979 -0.2164
 1740TIP3    H126779   0.441   3.768   2.145 -0.5103 -0.6269 -1.4056
 1740TIP3    H226780   0.382   3.900   2.102 -1.5862  0.0058  1.7836
 1741TIP3   OH226781   5.498   3.038   0.283 -0.4193  0.1113  0.0443
 1741TIP3    H126782   5.549   2.999   0.354  0.3796  0.3796 -0.3650
 1741TIP3    H226783   5.562   3.087   0.231 -1.1296  0.6323 -0.3726
 1742TIP3   OH226784   3.309   3.714   1.018 -0.4034 -0.0710  0.0437
 1742TIP3    H126785   3.366   3.789   1.001 -0.0759 -0.1567  0.7356
 1742TIP3    H226786   3.369   3.643   1.040 -0.7926  0.0230  1.4909
 1743TIP3   OH226787   4.514   3.659   8.058  0.0506  0.1304  0.1673
 1743TIP3    H126788   4.542   3.605   7.984 -0.6852  1.5108 -1.1745
 1743TIP3    H226789   4.538   3.608   8.136 -0.8738 -2.2440 -1.0155
 1744TIP3   OH226790   1.658   1.050   0.104  0.2501 -0.1139 -0.0184
 1744TIP3    H126791   1.666   1.085   0.016 -1.0755 -1.7021 -0.8307
 1744TIP3    H226792   1.642   1.126   0.159  0.2760  0.8166 -1.2656
 1745TIP3   OH226793   1.315   2.057   6.753  0.0520  0.1771 -0.2258
 1745TIP3    H126794   1.250   2.121   6.781  1.4125  0.8500  1.6632
 1745TIP3    H226795   1.395   2.109   6.739  0.0631 -0.4923 -3.3357
 1746TIP3   OH226796   2.146   1.987   1.166 -0.0229  0.6581 -0.4819
 1746TIP3    H126797   2.214   1.961   1.228  0.3233  2.7310  0.0842
 1746TIP3    H226798   2.083   1.915   1.168  0.0921  0.5360  2.1006
 1747TIP3   OH226799   4.827   0.021   2.839 -0.2976 -0.2676 -0.4555
 1747TIP3    H126800   4.802  -0.070   2.823  1.5429 -1.0845  0.8478
 1747TIP3    H226801   4.873   0.048   2.759 -2.4764  0.2137 -1.6055
 1748TIP3   OH226802   3.716   4.439   1.004  0.0249 -0.5026 -0.2914
 1748TIP3    H126803   3.622   4.446   0.988  0.1904 -2.3128 -2.5072
 1748TIP3    H226804   3.755   4.508   0.949  0.0364  0.1591  0.5229
 1749TIP3   OH226805   1.545   5.110   8.208  0.2127  0.0753  0.4767
 1749TIP3    H126806   1.508   5.085   8.123  2.3950 -1.3071 -0.1308
 1749TIP3    H226807   1.558   5.027   8.254  2.7180  0.4354  0.5402
 1750TIP3   OH226808   1.857   4.691   8.049  0.2144  0.1983 -0.3544
 1750TIP3    H126809   1.873   4.665   7.958 -0.9675 -1.0596 -0.2253
 1750TIP3    H226810   1.908   4.629   8.101 -1.4275 -0.9796 -0.0903
 1751TIP3   OH226811   3.757   4.344   2.141 -0.2652 -0.0153  0.3567
 1751TIP3    H126812   3.678   4.397   2.149 -1.1226 -1.3357  1.0991
 1751TIP3    H226813   3.820   4.401   2.097 -1.4249  1.2795  0.2973
 1752TIP3   OH226814   5.492   6.686   1.785  0.1897  0.3453 -0.4771
 1752TIP3    H126815   5.506   6.759   1.724 -0.3605  0.1628 -0.8323
 1752TIP3    H226816   5.507   6.608   1.732 -0.0050  0.1896 -0.3004
 1753TIP3   OH226817   6.779   5.389   6.760  0.2858 -0.0182 -0.4062
 1753TIP3    H126818   6.828   5.454   6.810  1.3578 -0.5991 -0.6740
 1753TIP3    H226819   6.815   5.305   6.788 -1.5841 -0.5780  0.4847
 1754TIP3   OH226820   3.357   3.647   1.458  0.1394 -0.3846  0.0366
 1754TIP3    H126821   3.334   3.674   1.547 -0.8084 -0.9365 -0.0196
 1754TIP3    H226822   3.342   3.726   1.405  0.9642  0.0234  0.3915
 1755TIP3   OH226823   3.906   4.378   7.131 -0.3857  0.6515 -0.4793
 1755TIP3    H126824   3.945   4.377   7.043 -1.9529  1.1584 -1.2160
 1755TIP3    H226825   3.971   4.423   7.185  0.4427  0.6735 -1.4500
 1756TIP3   OH226826   6.171   6.162   1.599 -0.4041 -0.5992 -0.7248
 1756TIP3    H126827   6.130   6.159   1.686 -0.1541 -0.0221 -0.5881
 1756TIP3    H226828   6.153   6.075   1.562 -1.1772 -0.5905 -0.4019
 1757TIP3   OH226829   4.071   1.456   8.372 -0.3947 -0.3002 -0.0078
 1757TIP3    H126830   4.137   1.524   8.382 -0.7926  0.2942 -1.2201
 1757TIP3    H226831   4.107   1.381   8.419 -0.6130  1.1433  2.6607
 1758TIP3   OH226832   4.095   5.699   0.624 -0.0060 -0.1517  0.3311
 1758TIP3    H126833   4.165   5.736   0.570 -0.2608 -0.3434 -0.1356
 1758TIP3    H226834   4.047   5.775   0.656 -0.3895 -0.0517 -0.4393
 1759TIP3   OH226835   5.923   1.702   8.431 -0.0420 -0.0905 -0.4455
 1759TIP3    H126836   5.972   1.755   8.494 -1.7828 -0.1186  1.0093
 1759TIP3    H226837   5.910   1.618   8.476 -1.3446 -0.1062 -0.8298
 1760TIP3   OH226838   2.360   2.874   2.316 -0.1427 -0.0179  0.3723
 1760TIP3    H126839   2.415   2.949   2.292 -0.8616  0.1719 -0.7851
 1760TIP3    H226840   2.388   2.803   2.258 -0.8407 -0.0226  0.0167
 1761TIP3   OH226841   4.144   3.833   0.176 -0.5115  0.8531 -0.2405
 1761TIP3    H126842   4.101   3.837   0.262  0.0259 -1.4174  0.2138
 1761TIP3    H226843   4.229   3.875   0.191 -1.1154  2.1207 -0.1912
 1762TIP3   OH226844   3.034   0.860   0.543 -0.4332  0.0868  0.3377
 1762TIP3    H126845   2.948   0.891   0.570 -0.4900 -1.5188  2.2541
 1762TIP3    H226846   3.022   0.766   0.530  0.8897 -0.0564  0.0054
 1763TIP3   OH226847   2.586   5.013   7.592 -0.2435 -0.1977  0.2983
 1763TIP3    H126848   2.508   5.069   7.583 -0.4109 -0.5551 -0.6722
 1763TIP3    H226849   2.646   5.046   7.524  1.0366  0.9680  1.9242
 1764TIP3   OH226850   2.130   3.974   2.162  0.5204 -0.2435 -0.0020
 1764TIP3    H126851   2.190   3.962   2.236  1.7496 -0.5331 -1.0113
 1764TIP3    H226852   2.146   4.064   2.133 -2.4030  1.1285  2.1168
 1765TIP3   OH226853   1.103   1.257   2.342  0.0069 -0.6369 -0.1978
 1765TIP3    H126854   1.014   1.294   2.345  0.4487  0.3769  2.0396
 1765TIP3    H226855   1.097   1.178   2.394  0.3653 -0.7360 -0.3092
 1766TIP3   OH226856   1.418   5.324   8.398 -0.2318 -0.0198 -0.3442
 1766TIP3    H126857   1.413   5.250   8.337  0.7921  0.1007 -0.5993
 1766TIP3    H226858   1.505   5.362   8.382  0.2077 -0.1926  1.4243
 1767TIP3   OH226859   2.212   1.962   0.858 -0.1995  0.2900  0.1023
 1767TIP3    H126860   2.192   2.051   0.831  0.3467  0.7717  1.2351
 1767TIP3    H226861   2.141   1.938   0.917 -0.3608 -0.0553 -0.2196
 1768TIP3   OH226862   3.482   3.053   8.034 -0.3319  0.2707  0.5297
 1768TIP3    H126863   3.518   2.965   8.042 -0.9313 -0.1333 -0.8501
 1768TIP3    H226864   3.547   3.110   8.074  0.8473 -0.6479 -0.0186
 1769TIP3   OH226865   1.230   2.110   0.705  0.0826  0.0200  0.0020
 1769TIP3    H126866   1.202   2.180   0.646 -1.6477 -0.5581  0.0907
 1769TIP3    H226867   1.323   2.127   0.720  0.0724  1.3481 -1.2646
 1770TIP3   OH226868   4.856   4.012   7.709  0.3871 -0.0670  0.1727
 1770TIP3    H126869   4.819   4.056   7.632 -0.6602  0.5096  0.9764
 1770TIP3    H226870   4.841   4.073   7.781  0.5852 -0.9610  0.9877
 1771TIP3   OH226871   0.609   1.432   1.804 -0.2714  0.0882  0.0093
 1771TIP3    H126872   0.523   1.475   1.802  1.5588  4.2343 -0.2546
 1771TIP3    H226873   0.651   1.466   1.883  1.0690 -2.1304  0.3284
 1772TIP3   OH226874   6.388   0.764   2.145  0.0781  0.0963 -0.0241
 1772TIP3    H126875   6.434   0.731   2.222 -1.3967 -0.3194  0.7175
 1772TIP3    H226876   6.369   0.855   2.166  0.4509  0.2394 -0.2891
 1773TIP3   OH226877   5.501   6.386   8.407  0.4124 -0.0170  0.2421
 1773TIP3    H126878   5.549   6.313   8.369 -2.1665 -1.5840 -0.3212
 1773TIP3    H226879   5.472   6.354   8.492  0.5235  0.9391  0.6506
 1774TIP3   OH226880   4.402   2.107   2.044 -0.2763  0.0735  0.4173
 1774TIP3    H126881   4.395   2.059   2.126 -0.0352 -2.1276 -0.7599
 1774TIP3    H226882   4.496   2.125   2.035 -0.2306 -0.1699  0.3895
 1775TIP3   OH226883   5.943   5.374   7.704 -0.2537 -0.2276  0.1902
 1775TIP3    H126884   5.961   5.385   7.797 -0.1488 -0.5651  0.2110
 1775TIP3    H226885   5.884   5.447   7.682 -4.0770 -2.6122  1.5747
 1776TIP3   OH226886   2.759   4.042   1.084  0.2609 -0.0875 -0.1235
 1776TIP3    H126887   2.744   3.953   1.115  0.5707  0.0159  0.3199
 1776TIP3    H226888   2.852   4.058   1.097  0.8900 -0.7975 -3.0755
 1777TIP3   OH226889   4.085   2.034   7.197  0.0208 -0.2881  0.1417
 1777TIP3    H126890   4.087   2.060   7.105  1.9129 -0.2794  0.1438
 1777TIP3    H226891   4.161   1.977   7.207  0.4458  0.5230  1.9167
 1778TIP3   OH226892   4.383   4.270   0.558  0.1147  0.1612 -0.8494
 1778TIP3    H126893   4.297   4.233   0.539  0.2559 -0.3435 -0.5187
 1778TIP3    H226894   4.430   4.200   0.605  0.3943  0.7435 -0.2461
 1779TIP3   OH226895   2.580   2.072   1.364  0.2894  0.0530  0.0989
 1779TIP3    H126896   2.558   1.998   1.420 -0.4209 -0.0304 -0.2779
 1779TIP3    H226897   2.504   2.083   1.306  0.2706  1.2329  0.3115
 1780TIP3   OH226898   2.761   0.178   8.193  0.4450  0.2174  0.3666
 1780TIP3    H126899   2.734   0.102   8.141  0.9418  1.3973 -1.7452
 1780TIP3    H226900   2.699   0.180   8.266  0.0095 -1.8181  0.1208
 1781TIP3   OH226901   5.392   0.476   1.308  0.0902  0.0663  0.4117
 1781TIP3    H126902   5.381   0.435   1.394 -0.2227  0.6362  0.6491
 1781TIP3    H226903   5.334   0.426   1.251 -0.6269  0.4374  0.7938
 1782TIP3   OH226904   3.074   5.844   1.987 -0.1849 -0.6364  0.6290
 1782TIP3    H126905   2.982   5.824   2.008 -0.8467  1.2583 -0.2189
 1782TIP3    H226906   3.076   5.939   1.980  2.1929 -0.5182  2.0082
 1783TIP3   OH226907   4.474   6.519   7.412 -0.1272  0.1858  0.1596
 1783TIP3    H126908   4.542   6.515   7.480 -0.0692 -2.0192  0.0580
 1783TIP3    H226909   4.401   6.469   7.449 -0.2787 -0.6243 -1.1983
 1784TIP3   OH226910   3.487   5.496   7.370 -0.3397  0.1738 -0.1078
 1784TIP3    H126911   3.418   5.562   7.374  0.1431  0.6242  2.0957
 1784TIP3    H226912   3.461   5.430   7.434  0.3172 -0.6264 -0.6496
 1785TIP3   OH226913   4.449   1.398   2.219 -0.4379  0.4782 -0.2267
 1785TIP3    H126914   4.460   1.488   2.188  1.3106  0.3621 -0.0707
 1785TIP3    H226915   4.461   1.403   2.313  1.5294 -0.1065 -0.3864
 1786TIP3   OH226916   2.494   3.109   2.182 -0.4428  0.4509 -0.1209
 1786TIP3    H126917   2.495   3.196   2.140 -1.0258  0.8883  0.7538
 1786TIP3    H226918   2.575   3.068   2.151 -0.7996  0.7861 -1.6003
 1787TIP3   OH226919   0.448   3.982   7.947 -0.5823  0.1302 -0.1736
 1787TIP3    H126920   0.524   3.925   7.939 -0.7266 -0.0627 -0.1757
 1787TIP3    H226921   0.481   4.069   7.925 -0.1507  0.2050  0.7450
 1788TIP3   OH226922   5.041   3.529   2.095 -0.1500 -0.4907 -0.1272
 1788TIP3    H126923   5.024   3.454   2.153  2.4902 -1.7895 -0.8355
 1788TIP3    H226924   5.136   3.540   2.098 -0.2081  1.1793 -2.0677
 1789TIP3   OH226925   5.896   3.601   0.043  0.0244 -0.4044 -0.0129
 1789TIP3    H126926   5.948   3.613   0.122 -0.4128  0.2104  0.1885
 1789TIP3    H226927   5.960   3.587  -0.026  0.4043 -3.7076  0.8415
 1790TIP3   OH226928   4.504   2.641   0.936  0.7419 -0.0401  0.3008
 1790TIP3    H126929   4.452   2.689   0.871  0.1069 -0.8153  0.2181
 1790TIP3    H226930   4.500   2.694   1.015  0.7860  0.4777 -0.0435
 1791TIP3   OH226931   4.354   4.450   7.326 -0.0460 -0.3596  0.3664
 1791TIP3    H126932   4.413   4.493   7.389 -0.8061  0.9128  0.2418
 1791TIP3    H226933   4.413   4.401   7.269  0.6680 -1.4534  1.9830
 1792TIP3   OH226934   6.650   1.823   0.473 -0.0255 -0.1979  0.3145
 1792TIP3    H126935   6.725   1.778   0.512 -1.5610 -3.6797 -0.4099
 1792TIP3    H226936   6.675   1.837   0.382  1.3965  2.8984  1.0503
 1793TIP3   OH226937   5.937   0.600   8.508 -0.6578 -0.3694  0.2605
 1793TIP3    H126938   5.909   0.691   8.500  0.0128 -0.1988 -0.2634
 1793TIP3    H226939   5.959   0.574   8.418  0.1820 -0.7082  0.5534
 1794TIP3   OH226940   1.195   6.215   2.421  0.7762  0.3115  0.2686
 1794TIP3    H126941   1.203   6.164   2.502  0.6976  0.2869  0.2616
 1794TIP3    H226942   1.285   6.229   2.392  0.7727 -1.9391 -1.0671
 1795TIP3   OH226943   4.679   0.449   2.794  0.0013  0.7938 -0.0611
 1795TIP3    H126944   4.732   0.386   2.842  0.4429 -0.3817 -1.9859
 1795TIP3    H226945   4.598   0.456   2.844  0.0038 -1.2215  0.2936
 1796TIP3   OH226946   5.471   1.863   0.532  0.0816 -0.2088 -0.0964
 1796TIP3    H126947   5.411   1.923   0.488  0.0688 -0.6627 -0.7068
 1796TIP3    H226948   5.539   1.920   0.568  0.0669  0.1790 -0.6665
 1797TIP3   OH226949   6.389   1.715   7.345  0.6276  0.0623 -0.0661
 1797TIP3    H126950   6.365   1.783   7.281  0.4404 -1.3143 -1.5054
 1797TIP3    H226951   6.312   1.660   7.352  0.9058 -0.2356  0.8265
 1798TIP3   OH226952   0.977   6.741   8.390 -0.2806  0.1604 -0.7628
 1798TIP3    H126953   0.997   6.657   8.351 -2.3770 -0.8495  0.1683
 1798TIP3    H226954   0.931   6.790   8.322  2.2859  1.2431 -1.8309
 1799TIP3   OH226955   1.966   5.938   2.828 -0.9422 -0.1595  0.1280
 1799TIP3    H126956   1.974   6.031   2.850 -1.1533 -0.0682 -0.1779
 1799TIP3    H226957   2.021   5.894   2.893  0.2690  0.2814 -0.5731
 1800TIP3   OH226958   6.779   6.422   1.419  0.4488  0.7008 -0.1997
 1800TIP3    H126959   6.714   6.378   1.365  1.6810 -0.5800 -0.6973
 1800TIP3    H226960   6.814   6.353   1.475 -0.5306  1.9222  2.0340
 1801TIP3   OH226961   2.911   5.336   0.993  0.1206 -0.3285 -0.6828
 1801TIP3    H126962   2.871   5.254   1.022  0.9451 -0.5804 -0.2495
 1801TIP3    H226963   2.987   5.347   1.049  0.2195  0.5549 -0.9813
 1802TIP3   OH226964   5.285   2.426   1.328 -0.4142 -0.1157 -0.0455
 1802TIP3    H126965   5.285   2.478   1.409 -0.7896  1.9793 -1.3260
 1802TIP3    H226966   5.219   2.359   1.343 -0.9334  0.6287  1.1533
 1803TIP3   OH226967   6.388   1.715   7.772 -0.0693 -0.5580  0.4607
 1803TIP3    H126968   6.309   1.676   7.736  1.5309 -2.7364 -0.8865
 1803TIP3    H226969   6.443   1.735   7.696  0.6616  1.0005  1.3500
 1804TIP3   OH226970   6.804   1.144   0.860 -0.0665 -0.4234 -0.4409
 1804TIP3    H126971   6.744   1.188   0.800  1.0993  1.5271 -0.2618
 1804TIP3    H226972   6.891   1.167   0.827  0.6149  0.7668  2.0063
 1805TIP3   OH226973   1.687   3.073   0.119 -0.1679 -0.2939  0.4302
 1805TIP3    H126974   1.599   3.079   0.082  0.0126  0.2017  0.0706
 1805TIP3    H226975   1.713   3.164   0.134  0.3653 -0.4280  0.3335
 1806TIP3   OH226976   0.493   4.052   1.215 -0.4105  0.1137  0.0951
 1806TIP3    H126977   0.499   4.052   1.310 -0.4079  1.4146  0.1136
 1806TIP3    H226978   0.439   4.128   1.194 -1.2446 -0.7341 -0.9058
 1807TIP3   OH226979   5.511   2.574   2.059 -0.7003  0.4235  0.0552
 1807TIP3    H126980   5.445   2.513   2.026  1.2021 -2.0233  0.5116
 1807TIP3    H226981   5.594   2.542   2.023  0.6451  1.5044  2.0190
 1808TIP3   OH226982   1.761   4.561   2.419  0.0628  0.0119  0.1043
 1808TIP3    H126983   1.823   4.528   2.484  0.2502 -0.5887 -0.3639
 1808TIP3    H226984   1.689   4.598   2.470 -0.7942 -2.3082  0.6713
 1809TIP3   OH226985   6.774   4.903   8.092 -0.3322 -0.0092  0.6150
 1809TIP3    H126986   6.778   4.959   8.014 -0.4202 -0.1265  0.5267
 1809TIP3    H226987   6.736   4.959   8.159 -0.1660  0.1228  0.6001
 1810TIP3   OH226988   6.643   4.036   1.261  0.8273  0.4157  0.2054
 1810TIP3    H126989   6.697   4.065   1.187 -0.1011  1.1369 -0.2179
 1810TIP3    H226990   6.602   4.116   1.294 -0.6927 -0.1988 -0.0797
 1811TIP3   OH226991   2.051   6.699   1.151 -0.1229  0.2518 -0.3800
 1811TIP3    H126992   2.102   6.622   1.178  0.1807 -0.1197 -1.9204
 1811TIP3    H226993   1.992   6.715   1.224 -0.3181 -1.5788 -0.0780
 1812TIP3   OH226994   2.783   3.629   2.739 -0.0274  0.2556  0.3294
 1812TIP3    H126995   2.871   3.608   2.708 -1.5369 -2.2006 -2.8792
 1812TIP3    H226996   2.752   3.698   2.680 -0.8045 -0.0209  0.4003
 1813TIP3   OH226997   1.933   0.899   1.898 -0.4055 -0.4265  0.3818
 1813TIP3    H126998   2.010   0.913   1.842 -2.9066  0.7262 -3.0928
 1813TIP3    H226999   1.901   0.812   1.872 -0.5430 -0.7284  1.5130
 1814TIP3   OH227000   3.460   2.983   0.209  0.1294 -0.3330  0.0979
 1814TIP3    H127001   3.531   2.985   0.145  0.2153 -0.3496  0.1927
 1814TIP3    H227002   3.382   3.003   0.158  0.3801  1.0619  0.2382
 1815TIP3   OH227003   4.543   2.423   1.580  0.3360 -0.4548 -0.1304
 1815TIP3    H127004   4.497   2.476   1.645 -0.3486 -0.8530 -0.2776
 1815TIP3    H227005   4.573   2.346   1.629  1.2410  0.0054  0.0611
 1816TIP3   OH227006   3.472   5.326   2.471  0.2921  0.2285  0.0770
 1816TIP3    H127007   3.395   5.381   2.484  0.1474  0.1881 -0.5773
 1816TIP3    H227008   3.510   5.357   2.389  1.8965  1.3325  1.1624
 1817TIP3   OH227009   1.284   4.398   7.384  0.0900  0.2803  0.2328
 1817TIP3    H127010   1.250   4.370   7.299  0.9643 -1.1578  0.3211
 1817TIP3    H227011   1.228   4.355   7.448 -0.6573  1.4738  0.4216
 1818TIP3   OH227012   2.152   6.657   1.705 -0.5157  0.1254  0.0265
 1818TIP3    H127013   2.199   6.601   1.767 -0.0911 -1.2849 -1.4915
 1818TIP3    H227014   2.063   6.661   1.740  0.3712  1.9165  2.3395
 1819TIP3   OH227015   2.311   3.228   6.846 -0.2617 -0.3558 -0.1256
 1819TIP3    H127016   2.254   3.169   6.796 -0.8687 -0.6631  0.9114
 1819TIP3    H227017   2.350   3.172   6.913  1.2757 -0.1461 -0.7996
 1820TIP3   OH227018   2.100   0.788   8.065  0.0586 -0.0234  0.1072
 1820TIP3    H127019   2.127   0.878   8.085 -1.2849  0.4937 -0.3036
 1820TIP3    H227020   2.142   0.735   8.133 -0.2802  1.0863  1.2356
 1821TIP3   OH227021   2.210   1.065   1.522  0.2301 -0.4256  0.2152
 1821TIP3    H127022   2.132   1.043   1.472  1.1788  1.1772 -2.1100
 1821TIP3    H227023   2.213   1.160   1.522  1.6542 -0.4396  1.1399
 1822TIP3   OH227024   5.045   5.381   7.121 -0.0271  0.6537  0.5827
 1822TIP3    H127025   5.102   5.352   7.049 -0.7741  1.4982 -0.3754
 1822TIP3    H227026   4.996   5.303   7.146 -0.2097  0.4999 -0.2466
 1823TIP3   OH227027   6.509   0.261   2.362  0.0059 -0.3215  0.6414
 1823TIP3    H127028   6.511   0.356   2.373 -1.1242 -0.1713 -0.3302
 1823TIP3    H227029   6.417   0.238   2.363  0.0037 -0.9357 -2.6177
 1824TIP3   OH227030   5.734   2.637   1.371  0.0662  0.1361  0.5290
 1824TIP3    H127031   5.718   2.723   1.411 -2.9872  0.0173 -0.1724
 1824TIP3    H227032   5.811   2.649   1.317  0.5638  2.0290  1.5739
 1825TIP3   OH227033   0.689   5.516   3.184 -0.0174 -0.4984  0.0206
 1825TIP3    H127034   0.641   5.572   3.123  1.0235  1.4443  0.8938
 1825TIP3    H227035   0.644   5.526   3.267 -1.3954 -3.0880 -0.3039
 1826TIP3   OH227036   4.516   1.920   7.697 -0.3067 -0.1627 -0.5280
 1826TIP3    H127037   4.572   1.921   7.620  0.7045 -1.6673  0.1319
 1826TIP3    H227038   4.564   1.868   7.762 -1.0216  1.2282  1.2111
 1827TIP3   OH227039   0.217   4.352   7.787  0.1906 -0.0081 -0.2177
 1827TIP3    H127040   0.249   4.352   7.877  0.6720  0.1342 -0.3851
 1827TIP3    H227041   0.292   4.324   7.734 -0.5100 -1.6125 -0.4392
 1828TIP3   OH227042   5.194   0.068   1.068  0.4395  0.5185 -0.2706
 1828TIP3    H127043   5.270   0.013   1.086 -0.0796 -0.6549 -1.4774
 1828TIP3    H227044   5.128   0.039   1.132  0.2197 -0.1934 -0.8009
 1829TIP3   OH227045   6.766   2.208   0.688 -0.0068  0.1151 -0.0152
 1829TIP3    H127046   6.717   2.132   0.657 -0.2128 -0.6454  2.0368
 1829TIP3    H227047   6.733   2.223   0.777  0.5213  2.1924 -0.1266
 1830TIP3   OH227048   5.909   2.659   0.564 -0.0817  0.3580 -0.1248
 1830TIP3    H127049   5.949   2.613   0.639 -0.1989 -1.3310 -1.0571
 1830TIP3    H227050   5.816   2.661   0.584  0.0665  1.4124  0.5355
 1831TIP3   OH227051   1.664   6.117   0.112 -0.0654  0.0876 -0.4125
 1831TIP3    H127052   1.582   6.088   0.150 -0.6529  2.7133  0.5414
 1831TIP3    H227053   1.721   6.040   0.115 -1.7601 -1.1880  0.9716
 1832TIP3   OH227054   3.404   1.376   7.549  0.7747  0.0688 -0.2293
 1832TIP3    H127055   3.371   1.430   7.477  0.8255 -0.6476 -0.7988
 1832TIP3    H227056   3.330   1.370   7.610  0.5812  0.3001 -0.4382
 1833TIP3   OH227057   6.313   3.146   0.968  0.1891  0.1411 -0.5538
 1833TIP3    H127058   6.344   3.220   0.915  1.6246  0.4199  0.6073
 1833TIP3    H227059   6.350   3.069   0.927  0.6217  0.2824 -0.4326
 1834TIP3   OH227060   3.545   5.753   3.009  0.3656 -0.4287 -0.3691
 1834TIP3    H127061   3.603   5.827   3.029 -0.2488 -0.0252 -0.0639
 1834TIP3    H227062   3.595   5.676   3.034  0.7941 -0.0871 -0.1664
 1835TIP3   OH227063   3.390   5.265   6.797 -0.1766  0.3282  0.1569
 1835TIP3    H127064   3.463   5.326   6.797  0.2368 -0.1224  1.3406
 1835TIP3    H227065   3.370   5.250   6.705  1.1153  0.5935 -0.1785
 1836TIP3   OH227066   5.840   4.083   1.881  0.5549 -0.2228  0.1124
 1836TIP3    H127067   5.893   4.105   1.958  0.2019  0.2751  0.2171
 1836TIP3    H227068   5.751   4.103   1.907  0.5887  1.4920 -0.9571
 1837TIP3   OH227069   0.965   2.919   7.558 -0.1219 -0.3838 -0.5398
 1837TIP3    H127070   1.034   2.932   7.622 -0.4562  1.3586 -0.5000
 1837TIP3    H227071   1.009   2.923   7.473 -0.3238  2.2862 -0.5846
 1838TIP3   OH227072   1.549   2.578   2.041  0.4409 -0.3191  0.2077
 1838TIP3    H127073   1.575   2.591   2.132  3.7561 -0.4549 -0.6057
 1838TIP3    H227074   1.567   2.662   1.998  0.5142 -0.7572 -0.6506
 1839TIP3   OH227075   2.409   6.825   1.638  0.0924  0.0676 -0.0420
 1839TIP3    H127076   2.496   6.854   1.608 -0.2023  0.7707 -0.2434
 1839TIP3    H227077   2.358   6.819   1.557  0.1928 -1.2101 -0.0218
 1840TIP3   OH227078   2.828   2.871   1.172  0.0141  0.1009 -0.5391
 1840TIP3    H127079   2.738   2.902   1.172 -0.3511 -0.7712  1.7489
 1840TIP3    H227080   2.881   2.950   1.176 -0.8332  0.6656  2.6826
 1841TIP3   OH227081   5.532   0.462   7.589 -1.1461 -0.2654  0.6251
 1841TIP3    H127082   5.498   0.513   7.516  0.0228  0.1889  0.3920
 1841TIP3    H227083   5.593   0.400   7.549  0.6549  0.9652  1.3187
 1842TIP3   OH227084   3.388   5.415   7.977  0.1240 -0.5384  0.1790
 1842TIP3    H127085   3.478   5.449   7.972 -0.1502  0.0050 -1.4945
 1842TIP3    H227086   3.333   5.493   7.971 -0.4792 -0.9668  0.1251
 1843TIP3   OH227087   2.020   1.843   7.153  0.3053 -0.1497 -0.4717
 1843TIP3    H127088   1.961   1.852   7.227  0.5493  1.2441 -0.4307
 1843TIP3    H227089   2.065   1.760   7.168 -0.1884 -0.2410  0.5431
 1844TIP3   OH227090   3.578   4.214   1.094  0.3157  0.3558 -0.4050
 1844TIP3    H127091   3.652   4.264   1.059 -0.2807  1.3577 -0.2844
 1844TIP3    H227092   3.501   4.253   1.053 -0.1174 -1.2246 -1.1842
 1845TIP3   OH227093   2.798   4.831   7.434 -0.2605  0.4748  0.0921
 1845TIP3    H127094   2.707   4.800   7.438 -0.4193  1.0049  1.7100
 1845TIP3    H227095   2.840   4.788   7.509  0.6513  0.7620 -0.2499
 1846TIP3   OH227096   6.384   4.710   7.315 -0.1693 -0.1463 -0.7457
 1846TIP3    H127097   6.434   4.780   7.357 -0.6728  0.0177 -0.4196
 1846TIP3    H227098   6.449   4.663   7.263  0.4313 -0.2899  0.1299
 1847TIP3   OH227099   4.532   4.163   0.764  0.0999  0.0525  0.1445
 1847TIP3    H127100   4.510   4.147   0.856  1.6433 -0.3858  0.4650
 1847TIP3    H227101   4.544   4.076   0.726  0.2115  0.2517 -0.2893
 1848TIP3   OH227102   3.583   3.020   8.463  0.2875 -0.1482 -0.2879
 1848TIP3    H127103   3.531   3.037   8.385  1.0679  2.2069 -0.3697
 1848TIP3    H227104   3.590   3.105   8.507  0.1933 -1.3157  2.1682
 1849TIP3   OH227105   6.413   4.613   0.221  0.7211 -0.4361  0.0064
 1849TIP3    H127106   6.500   4.573   0.217  0.4668 -1.2993  1.8597
 1849TIP3    H227107   6.352   4.539   0.224  0.0680  0.1095  0.8384
 1850TIP3   OH227108   3.080   6.360   0.051 -0.0013 -0.0197  0.5433
 1850TIP3    H127109   3.102   6.452   0.060 -0.5822  0.1571  0.2113
 1850TIP3    H227110   3.014   6.357  -0.018 -1.9971 -0.3815  2.3584
 1851TIP3   OH227111   6.236   0.663   8.354  0.5303 -0.1586  0.0770
 1851TIP3    H127112   6.152   0.638   8.315  0.8402 -1.5424  0.2527
 1851TIP3    H227113   6.301   0.612   8.307  1.2629  0.7045  0.1297
 1852TIP3   OH227114   5.362   4.763   7.446 -0.8281 -0.2048 -0.0075
 1852TIP3    H127115   5.381   4.730   7.534  2.7467  0.3495 -0.4252
 1852TIP3    H227116   5.439   4.740   7.394 -0.5213  3.8037 -1.7218
 1853TIP3   OH227117   5.243   5.068   2.673 -0.3725  0.2496  0.1186
 1853TIP3    H127118   5.300   5.028   2.739  0.1054  0.9952  0.1756
 1853TIP3    H227119   5.222   5.155   2.709  1.2715  1.3716 -1.4054
 1854TIP3   OH227120   6.120   1.423   1.068 -0.0549 -0.1119 -0.3621
 1854TIP3    H127121   6.105   1.389   1.156 -0.7267  1.5994  0.2153
 1854TIP3    H227122   6.198   1.477   1.076 -1.0456  1.3672 -0.4159
 1855TIP3   OH227123   6.772   1.697   7.697  0.3939 -0.1353  0.3063
 1855TIP3    H127124   6.793   1.642   7.621 -0.6332 -0.0212 -0.0696
 1855TIP3    H227125   6.689   1.738   7.675  1.4398  2.1231  0.2930
 1856TIP3   OH227126   2.482   4.031   7.638 -0.4787 -0.2710  0.1539
 1856TIP3    H127127   2.470   4.126   7.649 -1.6824 -0.4129  0.1826
 1856TIP3    H227128   2.505   4.021   7.546 -1.0250 -0.0003 -0.0185
 1857TIP3   OH227129   2.598   0.565   2.294 -0.4141  0.4749  0.2190
 1857TIP3    H127130   2.543   0.492   2.268 -1.5077  1.4068 -0.1818
 1857TIP3    H227131   2.589   0.569   2.390  1.0559 -0.9701  0.4504
 1858TIP3   OH227132   1.229   3.450   7.404  0.2782 -0.0691 -0.7326
 1858TIP3    H127133   1.236   3.380   7.339  0.0493 -1.3934  0.6153
 1858TIP3    H227134   1.320   3.469   7.428  0.3030 -0.6070 -0.3887
 1859TIP3   OH227135   1.276   4.779   8.087  0.6680  0.2939 -0.6830
 1859TIP3    H127136   1.343   4.765   8.154  0.4374 -2.9434 -0.9934
 1859TIP3    H227137   1.219   4.702   8.092 -0.4464  0.8039 -3.3691
 1860TIP3   OH227138   2.297   4.511   8.182  0.1230 -0.2480  0.8901
 1860TIP3    H127139   2.370   4.459   8.214  0.4258 -1.3937 -1.4590
 1860TIP3    H227140   2.298   4.499   8.087 -0.8386  2.7136  0.3836
 1861TIP3   OH227141   4.909   3.972   0.696 -0.1557  0.5292  0.2407
 1861TIP3    H127142   4.877   3.967   0.786 -1.5008  0.0332 -0.2397
 1861TIP3    H227143   4.855   4.038   0.655 -0.5145 -0.2437 -0.5692
 1862TIP3   OH227144   4.225   0.729   1.594 -0.5786 -0.2497 -0.3743
 1862TIP3    H127145   4.281   0.726   1.672 -1.5625 -1.3805  0.3229
 1862TIP3    H227146   4.267   0.794   1.537  0.5508  0.0900  0.7903
 1863TIP3   OH227147   1.816   1.656   3.045 -0.5283 -0.2867 -0.1186
 1863TIP3    H127148   1.868   1.650   3.125 -0.7146 -0.2482  0.0053
 1863TIP3    H227149   1.837   1.743   3.010 -0.3685 -0.3443 -0.1653
 1864TIP3   OH227150   0.642   3.316   2.255  0.2874  0.1416 -0.3112
 1864TIP3    H127151   0.627   3.343   2.346 -0.8643  2.6860 -1.1516
 1864TIP3    H227152   0.561   3.271   2.230  1.1857 -1.9261  0.3006
 1865TIP3   OH227153   4.920   5.086   1.124 -0.2277 -0.5979  0.3019
 1865TIP3    H127154   4.896   4.998   1.096  1.1319 -1.8403  2.7072
 1865TIP3    H227155   4.840   5.137   1.114 -1.1699 -2.2021 -0.7259
 1866TIP3   OH227156   5.320   3.332   7.446  0.0056 -0.2080  0.2043
 1866TIP3    H127157   5.262   3.315   7.372  1.0667  1.0243 -0.9577
 1866TIP3    H227158   5.388   3.265   7.440 -1.9830 -2.6472  2.4713
 1867TIP3   OH227159   1.080   6.525   0.751 -0.4362  0.1796  0.5505
 1867TIP3    H127160   1.053   6.489   0.666  0.4256  1.1196 -0.1564
 1867TIP3    H227161   1.158   6.576   0.731 -1.8852  2.9126  1.3736
 1868TIP3   OH227162   5.075   4.463   1.088 -0.1921  0.2377 -0.7999
 1868TIP3    H127163   5.117   4.377   1.081  0.2379  0.2463  1.0313
 1868TIP3    H227164   4.983   4.443   1.107  0.0087  0.1412  0.1508
 1869TIP3   OH227165   2.763   5.592   1.057  0.2645  0.2187  0.4821
 1869TIP3    H127166   2.834   5.644   1.094  2.4991 -1.7277 -0.7870
 1869TIP3    H227167   2.799   5.504   1.050 -1.2426 -0.2844 -2.8453
 1870TIP3   OH227168   0.108   0.089   0.256  0.3885 -0.6820 -0.1289
 1870TIP3    H127169   0.012   0.084   0.254  0.2618  1.1498 -2.1226
 1870TIP3    H227170   0.127   0.157   0.320  0.2978 -0.3641 -0.4361
 1871TIP3   OH227171   4.163   6.910   0.748  0.1793 -0.1209 -0.0051
 1871TIP3    H127172   4.243   6.904   0.800  1.0887  0.0638 -1.3332
 1871TIP3    H227173   4.189   6.884   0.660 -1.3015 -0.3636 -0.4107
 1872TIP3   OH227174   1.114   5.083   2.977  0.3799 -0.5421 -0.1760
 1872TIP3    H127175   1.165   5.041   2.907  1.4353 -0.9970  0.8425
 1872TIP3    H227176   1.176   5.143   3.019 -0.4432  0.2480 -0.0698
 1873TIP3   OH227177   0.053   0.855   0.871 -0.4959  0.3508  0.0272
 1873TIP3    H127178   0.111   0.835   0.797  1.1356  0.1217  1.3347
 1873TIP3    H227179   0.088   0.936   0.908  0.1236 -0.7233  1.9168
 1874TIP3   OH227180   5.458   6.868   1.230 -0.2686  0.5146 -0.2502
 1874TIP3    H127181   5.421   6.891   1.316  2.5792  1.1591  0.9177
 1874TIP3    H227182   5.505   6.947   1.203  1.6295 -0.7498 -0.8069
 1875TIP3   OH227183   5.355   4.848   8.520  0.4674  0.3209 -0.4947
 1875TIP3    H127184   5.268   4.811   8.533  1.1060 -1.4624 -0.9495
 1875TIP3    H227185   5.413   4.772   8.511  2.5291  1.3469  2.4384
 1876TIP3   OH227186   2.320   6.006   0.226  0.2824 -0.9063 -0.3424
 1876TIP3    H127187   2.376   6.007   0.149 -0.2648  3.1927 -0.9172
 1876TIP3    H227188   2.234   6.032   0.194  0.4135  2.7155  1.6315
 1877TIP3   OH227189   3.086   3.965   7.999  0.6930 -0.3890 -0.1622
 1877TIP3    H127190   3.055   3.909   8.071  0.8271  0.3158  0.4605
 1877TIP3    H227191   3.122   3.904   7.935 -1.3428 -1.2041 -0.6135
 1878TIP3   OH227192   3.558   3.758   7.292  0.3233  0.9835 -0.1925
 1878TIP3    H127193   3.483   3.701   7.309 -0.2976  1.6075 -0.7551
 1878TIP3    H227194   3.631   3.699   7.277  0.1787  0.3774  1.3807
 1879TIP3   OH227195   3.751   4.607   7.527 -0.0128  0.4394  0.0930
 1879TIP3    H127196   3.685   4.668   7.492 -1.1529 -0.7738  0.0360
 1879TIP3    H227197   3.712   4.520   7.514  2.2743 -0.4490 -1.3658
 1880TIP3   OH227198   5.713   4.577   6.535 -0.0064  0.5814  0.0696
 1880TIP3    H127199   5.639   4.618   6.491  0.1464 -0.6422 -1.4436
 1880TIP3    H227200   5.738   4.505   6.476 -0.8090 -2.2424  2.9007
 1881TIP3   OH227201   2.745   3.032   2.076 -0.9426 -0.7199  0.2411
 1881TIP3    H127202   2.799   2.967   2.122  0.2027  0.0087 -0.0291
 1881TIP3    H227203   2.759   3.013   1.983  1.5483  1.4867  0.0450
 1882TIP3   OH227204   4.759   5.209   7.731  0.2595 -0.1638 -0.0490
 1882TIP3    H127205   4.692   5.198   7.664  1.7427 -1.0767 -1.4280
 1882TIP3    H227206   4.741   5.296   7.768 -1.0294  0.0434 -1.0942
 1883TIP3   OH227207   6.290   5.331   2.470 -0.5103  0.3763  0.1729
 1883TIP3    H127208   6.292   5.299   2.560 -2.3978  1.0959  0.5048
 1883TIP3    H227209   6.252   5.418   2.475  3.2023  2.2556 -0.8911
 1884TIP3   OH227210   6.324   0.851   0.047  0.7350 -0.4294 -0.1677
 1884TIP3    H127211   6.277   0.804   0.116  2.8799 -0.6416  1.2619
 1884TIP3    H227212   6.382   0.785   0.008  0.3318 -0.0526 -1.4529
 1885TIP3   OH227213   5.775   4.881   7.298 -0.0973  0.2123  0.1335
 1885TIP3    H127214   5.870   4.885   7.291 -0.0561  0.3091  0.6881
 1885TIP3    H227215   5.743   4.940   7.230  0.2761  1.3700  0.9362
 1886TIP3   OH227216   4.827   2.299   6.524  0.2034  0.4118  0.6769
 1886TIP3    H127217   4.911   2.332   6.557  0.9116  0.4775 -1.0659
 1886TIP3    H227218   4.846   2.210   6.496  0.1386  0.9155 -1.1442
 1887TIP3   OH227219   2.779   2.632   7.723  0.4541  0.3465 -0.4375
 1887TIP3    H127220   2.748   2.638   7.633 -2.4939  2.6204  0.5960
 1887TIP3    H227221   2.770   2.539   7.745  1.6481 -0.3347 -2.5178
 1888TIP3   OH227222   1.784   2.383   7.607  0.1510 -0.3270  0.0817
 1888TIP3    H127223   1.821   2.298   7.630 -0.9078 -0.7793  0.2092
 1888TIP3    H227224   1.736   2.410   7.686 -0.5703 -0.2212 -0.3781
 1889TIP3   OH227225   6.643   6.614   1.532  0.1801  0.1986 -0.1712
 1889TIP3    H127226   6.698   6.546   1.494 -0.5373 -0.6047  0.2161
 1889TIP3    H227227   6.673   6.695   1.490  2.5155 -0.0093  0.9401
 1890TIP3   OH227228   0.148   4.535   1.872 -0.2420 -0.7678  0.2873
 1890TIP3    H127229   0.174   4.465   1.931  1.9136 -0.2769 -0.0103
 1890TIP3    H227230   0.226   4.556   1.822 -1.0749  1.1895 -0.3214
 1891TIP3   OH227231   4.032   0.670   8.451 -0.3456  0.0224 -0.1933
 1891TIP3    H127232   4.093   0.690   8.380  0.4649  0.0582  0.4959
 1891TIP3    H227233   3.977   0.600   8.415  2.2501 -2.4594  0.2419
 1892TIP3   OH227234   0.505   6.712   7.478  0.0803 -0.0445 -0.3863
 1892TIP3    H127235   0.572   6.741   7.540 -0.5856 -0.1162  0.3871
 1892TIP3    H227236   0.512   6.773   7.405  3.0720 -1.8818 -1.8119
 1893TIP3   OH227237   5.337   6.813   7.850  0.6232 -0.2613 -0.0758
 1893TIP3    H127238   5.256   6.778   7.886 -0.5833  3.3885  1.2635
 1893TIP3    H227239   5.312   6.851   7.766  1.9558 -2.6232 -1.6673
 1894TIP3   OH227240   1.425   6.113   1.022  0.5608  0.2910 -0.7322
 1894TIP3    H127241   1.439   6.037   0.966 -1.2401 -0.5831 -0.0831
 1894TIP3    H227242   1.338   6.146   0.997 -0.3878 -0.2489  1.5891
 1895TIP3   OH227243   5.225   1.697   1.994  0.7856 -0.5549 -0.3929
 1895TIP3    H127244   5.242   1.621   1.938  0.9817  1.7133 -3.6448
 1895TIP3    H227245   5.136   1.724   1.971  0.4805 -0.1169  1.1887
 1896TIP3   OH227246   1.343   2.905   0.515  0.4811 -0.2068 -0.2293
 1896TIP3    H127247   1.288   2.976   0.547 -1.3655 -1.3500 -0.7010
 1896TIP3    H227248   1.419   2.949   0.476  0.1783  1.4063  0.9112
 1897TIP3   OH227249   3.011   5.101   7.433 -0.2098 -0.2348 -0.1263
 1897TIP3    H127250   3.040   5.180   7.478 -1.3482 -0.7843  1.6751
 1897TIP3    H227251   2.920   5.119   7.410 -0.9360 -1.4993  1.5765
 1898TIP3   OH227252   3.341   5.041   1.293  0.0945  0.2207  0.1551
 1898TIP3    H127253   3.354   5.000   1.208  0.4498 -2.2134  1.3145
 1898TIP3    H227254   3.408   5.110   1.296  2.7627 -2.1602 -0.0642
 1899TIP3   OH227255   3.353   6.455   2.080  0.3913 -0.2318 -0.1813
 1899TIP3    H127256   3.357   6.538   2.128 -1.0765  1.8145 -3.2975
 1899TIP3    H227257   3.444   6.437   2.055  0.6714  0.6867  0.1276
 1900TIP3   OH227258   1.252   1.337   6.932  0.1861 -0.1721  0.3020
 1900TIP3    H127259   1.298   1.258   6.902 -0.1999  0.1502 -1.2655
 1900TIP3    H227260   1.290   1.407   6.879 -1.6075  0.2004 -0.5632
 1901TIP3   OH227261   3.833   3.336   7.282  0.2606  0.4446  0.2430
 1901TIP3    H127262   3.843   3.356   7.189  1.1265 -1.8035 -0.2235
 1901TIP3    H227263   3.744   3.364   7.304 -0.5953 -0.5261 -1.7262
 1902TIP3   OH227264   6.334   0.672   1.329 -0.1447 -0.2224  0.0818
 1902TIP3    H127265   6.368   0.744   1.383 -0.0959 -0.1461 -0.0482
 1902TIP3    H227266   6.408   0.612   1.321 -0.0624 -0.0956 -0.1342
 1903TIP3   OH227267   4.332   0.763   7.761 -0.1037  0.2493 -0.2479
 1903TIP3    H127268   4.364   0.727   7.678  0.6753  0.5471 -0.0839
 1903TIP3    H227269   4.410   0.771   7.815 -0.4244  1.1822  0.0971
 1904TIP3   OH227270   2.937   5.726   7.541 -0.8713  0.0638  0.0195
 1904TIP3    H127271   2.952   5.792   7.473 -0.9213  0.1321  0.0745
 1904TIP3    H227272   2.987   5.649   7.511  0.8570  0.7657  0.9498
 1905TIP3   OH227273   5.075   3.895   8.040 -0.5147 -0.4064 -0.0153
 1905TIP3    H127274   5.047   3.933   8.123 -0.7632  0.5974 -0.5326
 1905TIP3    H227275   5.077   3.970   7.980 -0.1390 -1.0792 -0.8583
 1906TIP3   OH227276   2.549   2.000   1.072  0.8059 -0.2550 -0.5861
 1906TIP3    H127277   2.548   2.096   1.076  1.1642 -0.2886  0.6454
 1906TIP3    H227278   2.640   1.976   1.088  0.5883 -0.8137 -0.1412
 1907TIP3   OH227279   3.235   0.442   8.219 -0.5651 -0.1742  0.1031
 1907TIP3    H127280   3.156   0.407   8.177 -0.9397  0.1982  0.4903
 1907TIP3    H227281   3.210   0.453   8.311  0.7432 -2.5229  0.8065
 1908TIP3   OH227282   4.555   3.897   0.658 -0.1374 -0.1145  0.3493
 1908TIP3    H127283   4.528   3.886   0.567 -1.0351 -0.4800  0.6432
 1908TIP3    H227284   4.630   3.839   0.668  0.1952  0.2092 -0.2544
 1909TIP3   OH227285   1.063   5.330   2.539  0.5176  0.5002 -0.0446
 1909TIP3    H127286   1.132   5.290   2.592 -0.3596  0.9052  1.4549
 1909TIP3    H227287   1.080   5.424   2.545  1.0769  0.5208 -1.4657
 1910TIP3   OH227288   5.206   1.651   8.415 -0.0494  0.1152 -0.4234
 1910TIP3    H127289   5.263   1.635   8.491 -1.8201  0.5542  1.0789
 1910TIP3    H227290   5.227   1.740   8.388  0.2023  0.1672 -0.0692
 1911TIP3   OH227291   1.723   4.456   0.772 -0.3975 -0.3528  0.0816
 1911TIP3    H127292   1.739   4.362   0.776 -0.3541 -0.2880  2.5601
 1911TIP3    H227293   1.630   4.466   0.792  0.0748  0.2236  2.1514
 1912TIP3   OH227294   6.279   1.084   0.665  0.3594 -0.6779 -0.1825
 1912TIP3    H127295   6.265   1.106   0.757 -2.1581  0.0380 -0.6581
 1912TIP3    H227296   6.225   1.007   0.650  0.2687 -0.4281 -1.1960
 1913TIP3   OH227297   0.290   3.722   8.422  0.2647  0.1642 -0.8562
 1913TIP3    H127298   0.251   3.681   8.345 -1.0831  2.0159 -1.2477
 1913TIP3    H227299   0.376   3.752   8.392  1.7369 -3.0597 -0.2774
 1914TIP3   OH227300   2.518   0.738   3.102  0.1353 -0.0866  0.3407
 1914TIP3    H127301   2.450   0.780   3.050 -0.0558 -0.4815  0.2639
 1914TIP3    H227302   2.599   0.753   3.054  0.3580  1.7516  1.2290
 1915TIP3   OH227303   4.985   0.902   7.072 -0.3463 -0.1645 -0.2637
 1915TIP3    H127304   4.953   0.925   6.985 -2.9376 -2.6278 -0.1052
 1915TIP3    H227305   5.076   0.876   7.058 -0.8786 -1.1217 -2.4159
 1916TIP3   OH227306   6.181   6.165   0.332 -0.1900  0.1326  0.1441
 1916TIP3    H127307   6.277   6.162   0.328 -0.2302 -0.6572 -0.3954
 1916TIP3    H227308   6.160   6.142   0.422  0.0802 -1.5370 -0.1815
 1917TIP3   OH227309   6.180   0.839   0.720  0.1396 -1.1836 -0.0210
 1917TIP3    H127310   6.144   0.761   0.680 -1.4215 -0.8852  0.7087
 1917TIP3    H227311   6.227   0.807   0.797 -0.3136 -1.4392  0.1572
 1918TIP3   OH227312   4.846   0.615   1.914 -0.2617  0.4423  0.0841
 1918TIP3    H127313   4.837   0.560   1.993  0.0280 -1.1683 -0.9527
 1918TIP3    H227314   4.756   0.627   1.884 -0.4669  1.8676  1.1329
 1919TIP3   OH227315   2.490   5.407   7.627  0.3738 -0.2596  0.0402
 1919TIP3    H127316   2.507   5.470   7.697  0.3393 -0.3012  0.0860
 1919TIP3    H227317   2.510   5.454   7.547  0.2429 -0.1544  0.0686
 1920TIP3   OH227318   6.446   5.441   8.267 -0.1542 -0.0695  0.2182
 1920TIP3    H127319   6.483   5.530   8.272 -1.1706  0.3837 -0.1185
 1920TIP3    H227320   6.522   5.384   8.271  0.4102  0.7284  2.6199
 1921TIP3   OH227321   4.128   6.285   8.301  0.2533  0.6025 -0.0041
 1921TIP3    H127322   4.141   6.248   8.214 -0.4755  2.3145 -0.8708
 1921TIP3    H227323   4.215   6.314   8.328  0.3797  0.6081 -0.4106
 1922TIP3   OH227324   4.400   0.854   8.492  0.1178 -0.4410  0.8172
 1922TIP3    H127325   4.484   0.808   8.498  1.4145  1.4726 -1.3432
 1922TIP3    H227326   4.401   0.916   8.564  1.6307  1.1061 -0.4661
 1923TIP3   OH227327   4.506   1.300   7.873 -0.3382  0.2402  0.1086
 1923TIP3    H127328   4.555   1.330   7.796  0.8548 -0.5968  0.5208
 1923TIP3    H227329   4.476   1.212   7.849 -0.4377  0.1933  0.4033
 1924TIP3   OH227330   4.816   3.821   1.867 -0.2293  0.0811  0.0549
 1924TIP3    H127331   4.863   3.849   1.946 -0.6115  1.4704 -0.1842
 1924TIP3    H227332   4.810   3.900   1.813 -2.4985 -0.1028 -0.0868
 1925TIP3   OH227333   3.418   2.293   7.322 -0.4039 -0.0199 -0.2717
 1925TIP3    H127334   3.506   2.263   7.346 -0.3488 -0.3797 -0.9224
 1925TIP3    H227335   3.395   2.355   7.391  0.4235  0.1922 -0.1781
 1926TIP3   OH227336   2.462   3.020   1.874 -0.3445 -0.2547 -0.3637
 1926TIP3    H127337   2.472   2.926   1.891 -0.4316 -0.0982  0.5951
 1926TIP3    H227338   2.371   3.038   1.897  0.0622  0.3410  0.8224
 1927TIP3   OH227339   6.687   2.512   0.291 -0.1232 -0.0284  0.5177
 1927TIP3    H127340   6.689   2.589   0.348  0.3390 -1.3449  2.4074
 1927TIP3    H227341   6.728   2.443   0.344 -0.2924 -1.5060 -1.1980
 1928TIP3   OH227342   0.060   6.681   1.576 -0.6009  0.1692  0.7723
 1928TIP3    H127343  -0.006   6.727   1.628 -0.3103  0.8135  0.5768
 1928TIP3    H227344   0.066   6.594   1.617 -1.8794 -0.0666  0.5293
 1929TIP3   OH227345   5.091   1.814   0.966 -0.6382  0.1754 -0.5341
 1929TIP3    H127346   5.004   1.848   0.946 -0.2546  0.8921 -1.0391
 1929TIP3    H227347   5.140   1.824   0.884 -0.2820 -0.8699 -0.4645
 1930TIP3   OH227348   4.788   4.816   8.286  0.3612  0.3934 -0.7632
 1930TIP3    H127349   4.876   4.855   8.287  0.2460  0.6346  0.0620
 1930TIP3    H227350   4.730   4.887   8.312  0.1305 -0.2730  0.6036
 1931TIP3   OH227351   1.331   5.686   2.799 -0.0181 -0.0615  0.2973
 1931TIP3    H127352   1.389   5.646   2.733  0.1134  1.7510 -0.7626
 1931TIP3    H227353   1.385   5.753   2.840 -0.7284  0.2064  0.8053
 1932TIP3   OH227354   5.763   5.909   0.667 -0.1064  0.0450  0.1606
 1932TIP3    H127355   5.839   5.966   0.675 -0.4688  0.7250 -1.0615
 1932TIP3    H227356   5.791   5.827   0.707  1.6231 -0.0370 -1.0775
 1933TIP3   OH227357   1.704   0.717   8.336  0.1786 -0.5034  0.0545
 1933TIP3    H127358   1.795   0.687   8.332 -0.3233 -2.1650  0.1333
 1933TIP3    H227359   1.654   0.638   8.357 -1.3630  0.2117 -0.7350
 1934TIP3   OH227360   4.316   4.700   0.852 -0.2415  0.5029  0.0385
 1934TIP3    H127361   4.363   4.620   0.830 -1.7490 -0.5158  0.3859
 1934TIP3    H227362   4.308   4.698   0.947 -0.2962  1.0903  0.0545
 1935TIP3   OH227363   6.155   3.577   8.464 -0.1901  0.0194  0.2366
 1935TIP3    H127364   6.228   3.635   8.485 -0.1970 -0.2261  0.9543
 1935TIP3    H227365   6.171   3.552   8.373  1.0190 -0.5787  0.5843
 1936TIP3   OH227366   6.088   4.982   2.389 -0.1609  0.5140 -0.0212
 1936TIP3    H127367   6.156   5.011   2.328 -1.4756 -0.2221 -1.9577
 1936TIP3    H227368   6.117   5.013   2.475  2.0967  1.0483 -0.9141
 1937TIP3   OH227369   1.718   6.431   1.887 -0.1665 -0.2921  0.7219
 1937TIP3    H127370   1.707   6.503   1.826 -0.4462 -0.9645 -0.0322
 1937TIP3    H227371   1.629   6.409   1.914 -0.1247 -0.7155  0.5208
 1938TIP3   OH227372   0.768   3.786   2.852 -0.4238 -0.0460  0.0631
 1938TIP3    H127373   0.824   3.783   2.930 -0.6126 -1.9472  0.1539
 1938TIP3    H227374   0.683   3.754   2.882 -0.9921  0.8275 -0.5585
 1939TIP3   OH227375   2.847   2.738   8.107  0.3585 -0.1362  0.3634
 1939TIP3    H127376   2.839   2.644   8.126  1.0124 -0.1928  0.3743
 1939TIP3    H227377   2.790   2.780   8.172 -1.1977 -0.6046 -0.6595
 1940TIP3   OH227378   3.662   4.874   2.723  0.2273  0.3220 -0.0192
 1940TIP3    H127379   3.680   4.942   2.788 -0.9516 -0.4433  1.1469
 1940TIP3    H227380   3.745   4.827   2.714  0.4112  0.4508  0.9239
 1941TIP3   OH227381   4.022   1.662   0.298 -0.0651  0.8235 -0.9686
 1941TIP3    H127382   3.984   1.736   0.345  0.4795 -1.4584  3.7484
 1941TIP3    H227383   3.946   1.612   0.266 -0.6490  1.1174 -0.0727
 1942TIP3   OH227384   6.792   3.965   0.199  0.4326 -0.4428 -0.3146
 1942TIP3    H127385   6.803   4.054   0.234 -2.6732  0.1661 -0.6271
 1942TIP3    H227386   6.866   3.916   0.236  0.8984  1.6850  1.8624
 1943TIP3   OH227387   2.306   6.631   0.570 -0.3478 -0.1620  0.2136
 1943TIP3    H127388   2.303   6.600   0.479  1.2273 -2.1975  0.7724
 1943TIP3    H227389   2.227   6.685   0.579 -1.4588 -1.2718 -1.8870
 1944TIP3   OH227390   6.619   3.688   0.614 -0.0842  0.5973  0.3468
 1944TIP3    H127391   6.622   3.718   0.704 -0.2626  0.6043  0.3493
 1944TIP3    H227392   6.608   3.593   0.621 -1.6721  0.7554  0.3249
 1945TIP3   OH227393   4.334   0.859   7.224 -0.1629 -0.2427 -0.1347
 1945TIP3    H127394   4.294   0.840   7.139  2.1482 -0.5272 -1.2206
 1945TIP3    H227395   4.426   0.833   7.215  0.4073  0.6817  2.1318
 1946TIP3   OH227396   3.893   3.756   0.933  0.0134  0.3933  0.2854
 1946TIP3    H127397   3.888   3.851   0.941 -0.9075  0.5931 -2.0272
 1946TIP3    H227398   3.961   3.740   0.867  0.3362 -0.5868  0.8182
 1947TIP3   OH227399   0.239   4.413   0.816  0.2255  0.2512 -0.0954
 1947TIP3    H127400   0.194   4.329   0.816  1.3492 -0.3669 -0.7752
 1947TIP3    H227401   0.223   4.449   0.904 -0.1019 -0.7587  0.2692
 1948TIP3   OH227402   3.600   0.438   0.509  0.4909  0.5175 -0.2311
 1948TIP3    H127403   3.633   0.428   0.420  0.8564  3.0417 -0.4743
 1948TIP3    H227404   3.652   0.510   0.546 -1.4607  1.3653  1.0551
 1949TIP3   OH227405   6.105   0.629   2.199  1.0133  0.4254  0.1975
 1949TIP3    H127406   6.173   0.602   2.137 -0.5542 -1.6994 -0.6820
 1949TIP3    H227407   6.138   0.600   2.284  0.3259 -2.6417 -0.4775
 1950TIP3   OH227408   3.824   3.626   8.111  0.1479  0.2164  0.4690
 1950TIP3    H127409   3.880   3.618   8.034 -1.0834 -3.4132 -0.2135
 1950TIP3    H227410   3.738   3.647   8.076  0.0574  0.9380  1.1024
 1951TIP3   OH227411   3.356   3.052   0.694  0.5006 -0.0390  0.1190
 1951TIP3    H127412   3.320   2.971   0.656 -0.6910 -0.0349  1.1611
 1951TIP3    H227413   3.446   3.056   0.661 -0.0329 -0.7528 -1.5335
 1952TIP3   OH227414   2.088   5.373   7.013  0.3621  0.2880  0.5070
 1952TIP3    H127415   2.036   5.413   6.943  2.3875 -0.5961 -1.6209
 1952TIP3    H227416   2.079   5.279   6.999  0.4477  0.0808  1.7406
 1953TIP3   OH227417   3.895   5.987   2.259 -0.4298  0.0201 -0.0908
 1953TIP3    H127418   3.882   5.922   2.191  0.6160  1.4276 -1.7026
 1953TIP3    H227419   3.903   5.936   2.340  2.2123 -2.0042 -1.5065
 1954TIP3   OH227420   6.332   3.688   0.455  0.3569  0.2745 -0.1017
 1954TIP3    H127421   6.388   3.711   0.529  0.2370  0.3655 -0.0376
 1954TIP3    H227422   6.294   3.772   0.427 -0.4208  0.1066  0.4096
 1955TIP3   OH227423   4.981   2.496   7.161 -0.7720 -0.2392 -0.1829
 1955TIP3    H127424   4.957   2.494   7.069  1.9799 -0.2213 -1.0132
 1955TIP3    H227425   5.037   2.419   7.173 -0.7254 -0.0035  1.3760
 1956TIP3   OH227426   6.594   3.435   1.652  0.0074  0.2394  0.2182
 1956TIP3    H127427   6.525   3.499   1.671 -0.8242 -0.1731 -1.1916
 1956TIP3    H227428   6.557   3.381   1.582  1.7820  0.0052 -0.5964
 1957TIP3   OH227429   6.411   5.693   1.960  0.3469 -0.4883 -0.7238
 1957TIP3    H127430   6.469   5.719   1.889  2.6314 -2.1683  0.3924
 1957TIP3    H227431   6.470   5.663   2.029 -1.7452  1.0234  1.9259
 1958TIP3   OH227432   5.516   0.212   0.080 -0.5265  0.2555 -0.6861
 1958TIP3    H127433   5.460   0.138   0.056  0.8670 -2.0049  2.3170
 1958TIP3    H227434   5.471   0.254   0.153  0.2148  0.3230 -0.2561
 1959TIP3   OH227435   6.320   6.630   0.684  0.0329  0.2045  0.5090
 1959TIP3    H127436   6.232   6.627   0.721  0.0618 -0.2489  0.5512
 1959TIP3    H227437   6.343   6.538   0.670 -0.3411  0.3753 -1.4979
 1960TIP3   OH227438   2.070   0.462   2.472  0.2479  0.4055 -0.2896
 1960TIP3    H127439   2.077   0.394   2.405  0.4335 -0.8532  0.9411
 1960TIP3    H227440   2.023   0.533   2.430  0.6454 -0.2119 -1.8409
 1961TIP3   OH227441   1.294   3.405   0.277  0.5375  0.0357 -0.0239
 1961TIP3    H127442   1.232   3.446   0.336 -0.6549 -0.8004 -0.6509
 1961TIP3    H227443   1.380   3.427   0.313 -0.1061  1.3950  0.7345
 1962TIP3   OH227444   2.216   0.105   0.479  0.0744 -0.0316 -0.0366
 1962TIP3    H127445   2.164   0.160   0.419 -1.3865 -0.0149  1.1663
 1962TIP3    H227446   2.159   0.030   0.497  1.6174 -1.4263 -0.8073
 1963TIP3   OH227447   2.343   1.744   0.935 -0.5630  0.0782 -0.3209
 1963TIP3    H127448   2.303   1.825   0.904  0.0303  0.6309  0.3348
 1963TIP3    H227449   2.437   1.761   0.932 -0.4437 -0.5082  0.0420
 1964TIP3   OH227450   4.385   2.530   8.523 -0.1945  0.0282  0.7461
 1964TIP3    H127451   4.433   2.592   8.468 -2.9915  2.2405  0.5992
 1964TIP3    H227452   4.372   2.453   8.467  0.3225  0.6817 -0.2983
 1965TIP3   OH227453   2.075   6.784   0.573 -1.0526  0.8847  0.7316
 1965TIP3    H127454   2.056   6.820   0.660 -1.7499 -0.0312  0.9711
 1965TIP3    H227455   1.990   6.776   0.531 -1.0816 -1.4235  1.0792
 1966TIP3   OH227456   5.814   4.457   2.674 -0.5161 -0.2051  0.3709
 1966TIP3    H127457   5.905   4.448   2.647 -0.9919  0.7775 -1.7858
 1966TIP3    H227458   5.814   4.528   2.738  0.2523 -0.4878  0.6948
 1967TIP3   OH227459   3.287   1.658   0.185  0.0931 -0.8545 -0.2795
 1967TIP3    H127460   3.277   1.594   0.114 -0.4396 -1.9014  0.7238
 1967TIP3    H227461   3.364   1.627   0.234  0.6250  0.0195 -0.5336
 1968TIP3   OH227462   1.163   5.580   2.583  0.0608 -0.7069  0.3191
 1968TIP3    H127463   1.215   5.562   2.662 -2.1943 -0.8281  1.8651
 1968TIP3    H227464   1.209   5.652   2.540  2.3895 -1.8487  0.6769
 1969TIP3   OH227465   0.480   5.917   7.803  0.1926  0.1018  0.0342
 1969TIP3    H127466   0.515   5.935   7.891  0.6799  0.1832 -0.1739
 1969TIP3    H227467   0.531   5.973   7.745 -1.0779  1.1172 -0.1606
 1970TIP3   OH227468   4.503   6.686   0.767 -0.6040 -0.1733 -0.0402
 1970TIP3    H127469   4.426   6.664   0.714  0.5090  1.5303 -2.5711
 1970TIP3    H227470   4.572   6.629   0.733  0.4633  1.8708 -1.5130
 1971TIP3   OH227471   6.860   3.625   0.398  0.3975 -0.0400 -0.0111
 1971TIP3    H127472   6.910   3.701   0.428 -0.9560  0.9985 -0.2392
 1971TIP3    H227473   6.773   3.638   0.435 -0.5189 -0.2331 -1.9603
 1972TIP3   OH227474   0.483   6.534   7.766  0.0763 -0.3496 -0.3029
 1972TIP3    H127475   0.572   6.555   7.737 -0.4972  0.9350 -1.2082
 1972TIP3    H227476   0.427   6.560   7.693 -0.9913 -1.9591 -0.1057
 1973TIP3   OH227477   2.129   3.782   0.548  0.5983  0.4349  0.3255
 1973TIP3    H127478   2.224   3.790   0.558  0.8506 -2.2419  0.7568
 1973TIP3    H227479   2.105   3.708   0.604 -1.4613 -0.2261 -1.3050
 1974TIP3   OH227480   3.146   1.917   2.148 -0.4571 -0.1591 -0.2440
 1974TIP3    H127481   3.086   1.932   2.075 -0.1198 -0.4497 -0.5812
 1974TIP3    H227482   3.193   2.000   2.157  0.2441 -0.4551 -1.0449
 1975TIP3   OH227483   4.478   2.342   0.390 -0.5500  0.1549  0.0548
 1975TIP3    H127484   4.553   2.282   0.394 -1.4872 -1.0167  1.5079
 1975TIP3    H227485   4.503   2.409   0.327  2.0591  0.2611  1.0896
 1976TIP3   OH227486   2.227   4.331   1.538  0.4642 -0.1490  0.3696
 1976TIP3    H127487   2.228   4.410   1.484  0.9596  0.5957  1.4452
 1976TIP3    H227488   2.306   4.284   1.513  0.8723  0.3636  0.6713
 1977TIP3   OH227489   3.011   0.168   0.942 -0.8008 -0.0058 -0.4024
 1977TIP3    H127490   2.933   0.209   0.904  0.6548  1.6598 -1.7523
 1977TIP3    H227491   3.032   0.097   0.882  0.3116  1.3370 -1.6627
 1978TIP3   OH227492   2.834   2.017   2.204 -0.0107 -0.0911 -0.4151
 1978TIP3    H127493   2.908   2.027   2.264  0.2750 -1.4829 -0.4861
 1978TIP3    H227494   2.824   2.103   2.163  1.7978  0.0523 -0.6563
 1979TIP3   OH227495   1.352   4.846   0.985 -0.4560  0.2213  0.0097
 1979TIP3    H127496   1.272   4.875   1.028 -1.2136 -0.2967 -1.0146
 1979TIP3    H227497   1.325   4.773   0.929  0.7412 -0.0095 -0.3053
 1980TIP3   OH227498   5.716   6.775   1.994  0.3217  0.2832  0.0892
 1980TIP3    H127499   5.744   6.866   1.985  0.9886 -0.0754 -2.2648
 1980TIP3    H227500   5.783   6.725   1.946 -0.5171 -1.3508  0.5615
 1981TIP3   OH227501   5.536   2.266   1.323 -1.1013 -0.1770 -0.0338
 1981TIP3    H127502   5.480   2.205   1.274 -1.9164 -2.1313  3.0466
 1981TIP3    H227503   5.474   2.324   1.368 -0.3449  2.7509 -2.4577
 1982TIP3   OH227504   5.227   5.582   7.309  0.1744  0.1701 -0.0380
 1982TIP3    H127505   5.235   5.591   7.214 -0.3615  0.8940 -0.0279
 1982TIP3    H227506   5.194   5.493   7.322 -2.4268  0.9160 -0.7394
 1983TIP3   OH227507   1.647   5.908   1.378 -0.8535  0.4404 -0.0676
 1983TIP3    H127508   1.728   5.862   1.402 -1.2669  0.7672  2.1928
 1983TIP3    H227509   1.654   5.921   1.284  1.1575 -0.6268 -0.1243
 1984TIP3   OH227510   6.608   4.909   2.016  0.7373  0.1320  0.3110
 1984TIP3    H127511   6.620   4.923   2.110  1.6965  3.2929 -0.1428
 1984TIP3    H227512   6.536   4.969   1.992  0.9647 -0.1071 -1.0777
 1985TIP3   OH227513   5.206   0.307   1.179  0.2508 -0.3506 -0.3543
 1985TIP3    H127514   5.152   0.302   1.258 -0.9958  0.9070 -1.0893
 1985TIP3    H227515   5.171   0.240   1.121 -0.3422  0.2716 -0.7200
 1986TIP3   OH227516   6.708   6.230   6.824 -0.9649  0.3863  0.0089
 1986TIP3    H127517   6.781   6.236   6.886 -1.9940  0.5276  1.2370
 1986TIP3    H227518   6.659   6.311   6.837 -2.6094 -0.7019  0.8430
 1987TIP3   OH227519   6.291   5.712   1.077  0.2881 -0.4760 -0.4260
 1987TIP3    H127520   6.223   5.761   1.032  1.1626 -0.1925 -1.4806
 1987TIP3    H227521   6.348   5.680   1.007 -1.1585 -4.5325  0.0118
 1988TIP3   OH227522   1.926   2.777   2.659  0.3906  0.5028 -0.8374
 1988TIP3    H127523   1.947   2.819   2.576  0.3771 -0.8433 -1.5275
 1988TIP3    H227524   1.847   2.726   2.642  0.3386  0.2805  0.0206
 1989TIP3   OH227525   3.631   6.718   1.074 -0.0897  0.1786  0.1596
 1989TIP3    H127526   3.695   6.665   1.122 -0.9155 -1.5185 -0.5261
 1989TIP3    H227527   3.576   6.654   1.029 -2.8718  1.5066  1.4134
 1990TIP3   OH227528   5.691   4.195   8.032  0.2612  0.1938  0.3145
 1990TIP3    H127529   5.660   4.128   7.972  1.7958  0.3917 -0.7712
 1990TIP3    H227530   5.772   4.228   7.991 -0.1183  2.2640  1.1108
 1991TIP3   OH227531   4.152   3.176   7.463  0.1032  0.0745 -0.0329
 1991TIP3    H127532   4.196   3.161   7.380  1.3771  0.7440  0.4975
 1991TIP3    H227533   4.147   3.089   7.504  0.9641 -0.0016 -0.0834
 1992TIP3   OH227534   5.710   5.363   2.462 -0.1478  0.1755 -0.2740
 1992TIP3    H127535   5.680   5.453   2.452 -0.0649  0.6514  2.7443
 1992TIP3    H227536   5.806   5.369   2.460 -0.1380  0.2122  0.1561
 1993TIP3   OH227537   3.215   1.993   1.205  0.3458 -0.0728  0.0680
 1993TIP3    H127538   3.227   1.899   1.190  1.3020 -0.1878  1.3206
 1993TIP3    H227539   3.293   2.019   1.255 -0.9311  0.9204  1.6257
 1994TIP3   OH227540   3.055   2.864   2.810  0.0347  0.8335  0.2995
 1994TIP3    H127541   3.046   2.844   2.717 -0.2294  0.7640  0.3383
 1994TIP3    H227542   3.016   2.951   2.820 -0.2421  0.6995  0.4022
 1995TIP3   OH227543   2.960   4.852   0.813 -0.2085 -0.1784 -0.1630
 1995TIP3    H127544   3.028   4.800   0.770  0.8960  1.5830 -0.6832
 1995TIP3    H227545   2.996   4.873   0.899  0.1734  1.1345 -0.6035
 1996TIP3   OH227546   5.953   5.187   7.951 -0.4709 -0.1300 -0.2780
 1996TIP3    H127547   5.942   5.274   7.990 -1.3447 -0.2240 -0.2818
 1996TIP3    H227548   6.044   5.185   7.921  0.1988  0.0010  1.6152
 1997TIP3   OH227549   6.488   4.648   8.193  0.5835 -0.2389 -0.4220
 1997TIP3    H127550   6.502   4.735   8.229 -0.3224 -0.0557 -0.4993
 1997TIP3    H227551   6.486   4.591   8.270  0.1837 -0.0569 -0.2956
 1998TIP3   OH227552   6.498   2.619   7.616 -0.5801 -0.2208 -0.2776
 1998TIP3    H127553   6.566   2.655   7.559  0.3280 -2.2914 -0.6024
 1998TIP3    H227554   6.546   2.561   7.676 -1.6731  0.8000  1.7068
 1999TIP3   OH227555   4.356   0.922   1.456 -0.2559  0.4954 -0.7776
 1999TIP3    H127556   4.369   1.017   1.453  2.5629  0.3018  1.1456
 1999TIP3    H227557   4.401   0.890   1.377  2.6022  0.5963  0.6679
 2000TIP3   OH227558   3.563   5.048   0.719  0.3861  0.3842 -0.2647
 2000TIP3    H127559   3.622   4.974   0.732  1.1322  0.0627 -4.1557
 2000TIP3    H227560   3.621   5.125   0.717 -0.1434  0.8837  1.7722
 2001TIP3   OH227561   6.504   6.571   0.132  0.3659  0.0258 -0.1563
 2001TIP3    H127562   6.413   6.566   0.104  0.6234  1.2644 -1.2902
 2001TIP3    H227563   6.499   6.602   0.223 -0.3760 -1.4839  0.3506
 2002TIP3   OH227564   0.337   6.001   0.562  0.6200  0.6604  0.5381
 2002TIP3    H127565   0.324   6.045   0.646 -0.7391  1.4529 -0.0647
 2002TIP3    H227566   0.423   6.031   0.531 -0.1577  2.7062  0.2596
 2003TIP3   OH227567   6.082   3.793   8.101 -0.1195  0.4619 -0.6458
 2003TIP3    H127568   5.987   3.790   8.091 -0.1598  0.6398 -0.3262
 2003TIP3    H227569   6.104   3.714   8.149  0.0726 -0.3861 -2.0745
 2004TIP3   OH227570   1.094   2.810   2.559  0.4589 -0.4864 -0.2057
 2004TIP3    H127571   1.014   2.768   2.526  1.0777 -1.7140 -0.2005
 2004TIP3    H227572   1.106   2.774   2.647  1.4173 -0.8875 -0.4896
 2005TIP3   OH227573   4.087   6.827   7.706  0.0647 -0.2091 -0.1778
 2005TIP3    H127574   4.101   6.854   7.615  0.8614 -1.0476 -0.3175
 2005TIP3    H227575   4.125   6.739   7.711  0.0454 -0.1639  0.9755
 2006TIP3   OH227576   3.952   3.696   2.168  0.0599 -0.4574  0.5621
 2006TIP3    H127577   3.904   3.626   2.124  1.0383 -1.0727  0.4304
 2006TIP3    H227578   3.957   3.668   2.260  0.4969 -0.6062  0.4993
 2007TIP3   OH227579   1.212   0.428   0.400 -0.1414  0.0824 -0.0406
 2007TIP3    H127580   1.245   0.362   0.461 -1.5953 -0.9870 -0.3650
 2007TIP3    H227581   1.281   0.437   0.335  1.1611  0.7705  1.3716
 2008TIP3   OH227582   4.219   0.437   2.154  0.1679 -0.0602 -0.3902
 2008TIP3    H127583   4.184   0.480   2.232  0.6063  0.3561 -0.4216
 2008TIP3    H227584   4.314   0.448   2.161  0.2112 -0.0332 -0.9765
 2009TIP3   OH227585   1.537   0.917   0.915  0.1062  0.2421  0.3521
 2009TIP3    H127586   1.453   0.944   0.954  0.6304  0.8416  1.1042
 2009TIP3    H227587   1.549   0.827   0.946  0.3057  0.5632  1.2580
 2010TIP3   OH227588   1.634   1.752   2.510  0.2515  0.0626  0.2749
 2010TIP3    H127589   1.682   1.828   2.545  0.5987 -0.4208  0.8784
 2010TIP3    H227590   1.629   1.692   2.584  3.4508 -2.2283 -1.1340
 2011TIP3   OH227591   6.251   3.201   1.713  0.1161 -0.4263 -0.1029
 2011TIP3    H127592   6.336   3.230   1.746 -0.0209  2.1478 -1.7889
 2011TIP3    H227593   6.192   3.211   1.788  0.2893  2.9688 -0.2831
 2012TIP3   OH227594   5.248   2.835   7.292 -0.0830 -0.0587  0.0192
 2012TIP3    H127595   5.205   2.754   7.264  0.1124 -0.6556  1.3555
 2012TIP3    H227596   5.303   2.860   7.217 -1.0681 -0.4866 -0.8713
 2013TIP3   OH227597   2.875   1.637   7.473  0.2001  0.8851  0.2019
 2013TIP3    H127598   2.920   1.644   7.389  0.3003  0.8232  0.2501
 2013TIP3    H227599   2.782   1.632   7.450  0.2868 -0.1203  0.0356
 2014TIP3   OH227600   5.479   3.839   2.474  0.5227  0.6090  0.4299
 2014TIP3    H127601   5.573   3.851   2.489  0.9553 -0.9665 -0.7593
 2014TIP3    H227602   5.461   3.752   2.508 -0.0194 -0.0078 -1.3794
 2015TIP3   OH227603   2.132   2.913   0.901  0.2544  0.6214 -0.6031
 2015TIP3    H127604   2.212   2.950   0.863  0.8893 -1.1950 -1.1059
 2015TIP3    H227605   2.064   2.934   0.836  0.2167  2.4398 -0.0304
 2016TIP3   OH227606   1.681   1.699   7.791  0.4674 -0.0598  0.2518
 2016TIP3    H127607   1.711   1.673   7.878  0.8396 -2.5305 -0.5242
 2016TIP3    H227608   1.590   1.725   7.803  0.3503 -0.9091  1.2956
 2017TIP3   OH227609   4.264   3.294   6.497 -0.3352  0.3746  0.4086
 2017TIP3    H127610   4.264   3.319   6.589 -1.8902 -0.1664  0.5837
 2017TIP3    H227611   4.316   3.213   6.495  1.1375  1.2760  0.5027
 2018TIP3   OH227612   5.288   5.945   1.408  0.1860  0.2074 -0.6398
 2018TIP3    H127613   5.366   5.998   1.425  0.1840  0.0707 -0.1876
 2018TIP3    H227614   5.317   5.855   1.424 -0.5695  0.2849  1.5652
 2019TIP3   OH227615   6.709   3.664   1.839  0.7605 -0.0277 -0.3369
 2019TIP3    H127616   6.643   3.596   1.831 -0.7704  0.7382  3.7116
 2019TIP3    H227617   6.659   3.746   1.847  2.3588  1.0296 -0.6764
 2020TIP3   OH227618   6.139   0.726   0.206 -0.3380  0.3058 -0.6737
 2020TIP3    H127619   6.073   0.678   0.156  0.3644 -0.6118 -0.7470
 2020TIP3    H227620   6.169   0.664   0.273 -1.6317  1.6759  1.2752
 2021TIP3   OH227621   3.051   4.246   8.024 -0.5553 -0.5900  0.6790
 2021TIP3    H127622   3.009   4.271   7.942  0.1271  0.0321  0.5104
 2021TIP3    H227623   3.075   4.154   8.012  2.7463  0.3522 -1.2772
 2022TIP3   OH227624   1.807   5.870   0.203 -0.3141  0.6485 -0.5364
 2022TIP3    H127625   1.893   5.828   0.207 -0.6938 -0.2685 -1.4623
 2022TIP3    H227626   1.778   5.873   0.294  0.8498  1.3302 -0.1607
 2023TIP3   OH227627   3.529   0.283   8.101 -0.2458 -0.4470 -0.4209
 2023TIP3    H127628   3.472   0.324   8.036  0.2325 -1.0849 -1.2633
 2023TIP3    H227629   3.486   0.199   8.120 -0.1700 -0.4399 -0.2204
 2024TIP3   OH227630   4.602   1.750   8.124 -0.0124  0.9845  0.2671
 2024TIP3    H127631   4.524   1.720   8.171 -0.2436 -0.0860 -0.7562
 2024TIP3    H227632   4.674   1.706   8.169 -0.0896  1.1716  0.5788
 2025TIP3   OH227633   1.015   5.064   2.109  0.1451  0.2056  0.1447
 2025TIP3    H127634   1.080   5.119   2.066  1.6310 -0.1163  1.8417
 2025TIP3    H227635   0.954   5.040   2.040  1.3671  1.2039 -1.3450
 2026TIP3   OH227636   6.598   0.753   8.517 -0.3544 -0.0405  0.1619
 2026TIP3    H127637   6.565   0.667   8.493  0.0042 -0.5337  1.3556
 2026TIP3    H227638   6.627   0.743   8.608  0.4948  1.1044  0.0398
 2027TIP3   OH227639   6.740   4.089   0.912  0.6189 -0.1753 -0.4611
 2027TIP3    H127640   6.653   4.085   0.871  0.7768 -1.0466 -0.7439
 2027TIP3    H227641   6.751   4.181   0.936  0.5927  0.4264 -2.5582
 2028TIP3   OH227642   1.535   5.755   7.471  0.2055  0.6762 -0.0156
 2028TIP3    H127643   1.479   5.830   7.493  1.3531  1.7980 -0.8125
 2028TIP3    H227644   1.559   5.768   7.380 -0.8248 -1.5259 -0.6682
 2029TIP3   OH227645   2.733   6.606   8.192 -0.4427  0.5440  0.0958
 2029TIP3    H127646   2.645   6.633   8.165 -1.0358 -1.8848 -0.6103
 2029TIP3    H227647   2.789   6.626   8.117 -1.1668 -1.4802 -1.0585
 2030TIP3   OH227648   6.362   1.942   7.934 -0.1412  0.5611  0.2067
 2030TIP3    H127649   6.361   1.870   7.871 -0.8639  0.7511 -0.0123
 2030TIP3    H227650   6.380   2.020   7.881  0.0412  0.6177  0.3526
 2031TIP3   OH227651   6.188   5.340   0.761  0.5910  0.2355 -0.2085
 2031TIP3    H127652   6.115   5.346   0.823  0.0066  1.6716 -0.9853
 2031TIP3    H227653   6.265   5.362   0.813  0.2008  0.7279  0.1693
 2032TIP3   OH227654   2.696   3.129   7.413 -0.2821  0.4982 -0.1044
 2032TIP3    H127655   2.754   3.199   7.443  1.0219  0.2233 -1.8307
 2032TIP3    H227656   2.678   3.149   7.321 -1.0315 -0.6823 -0.2444
 2033TIP3   OH227657   5.118   6.354   1.249 -0.2943 -0.1409 -0.3225
 2033TIP3    H127658   5.102   6.426   1.188 -1.8183  0.1200  0.3394
 2033TIP3    H227659   5.188   6.303   1.208 -0.2051  0.8978 -1.5175
 2034TIP3   OH227660   4.921   3.896   1.264  0.6290 -0.4100  0.7876
 2034TIP3    H127661   4.881   3.961   1.206 -0.1414  0.1525  1.9048
 2034TIP3    H227662   4.953   3.828   1.205 -1.6522 -0.7141 -0.2241
 2035TIP3   OH227663   0.790   1.787   2.833  0.1642 -0.8976 -0.4165
 2035TIP3    H127664   0.719   1.849   2.814 -0.8182 -1.8919 -0.0763
 2035TIP3    H227665   0.846   1.792   2.756  1.0689  1.6488  0.2941
 2036TIP3   OH227666   2.963   0.990   2.905  0.0202 -0.3928 -0.0070
 2036TIP3    H127667   3.052   0.979   2.871  0.4044  0.0130  0.8393
 2036TIP3    H227668   2.930   1.067   2.859  1.0805  1.0690  1.5816
 2037TIP3   OH227669   3.561   5.162   1.832 -0.6801 -0.0611 -0.0896
 2037TIP3    H127670   3.654   5.177   1.846 -1.1100  2.1292  0.9219
 2037TIP3    H227671   3.525   5.249   1.814 -2.4292 -0.9594 -1.2122
 2038TIP3   OH227672   2.966   6.495   2.537 -0.2507  0.3547  0.4022
 2038TIP3    H127673   3.049   6.521   2.576 -1.0272  0.4439  2.0880
 2038TIP3    H227674   2.964   6.399   2.545 -0.2448  0.3385  0.2191
 2039TIP3   OH227675   2.824   2.000   1.114  0.7131  0.0732  0.6683
 2039TIP3    H127676   2.839   2.049   1.194  2.0251 -0.3948  0.7215
 2039TIP3    H227677   2.898   1.939   1.108  0.6524  0.1135 -0.8968
 2040TIP3   OH227678   2.490   3.857   8.343 -0.2424 -0.3969  0.1999
 2040TIP3    H127679   2.422   3.876   8.408 -2.0406 -0.6900 -1.5200
 2040TIP3    H227680   2.494   3.761   8.341  1.0600 -0.3954  1.0584
 2041TIP3   OH227681   2.706   3.498   1.295 -0.0437  0.2734  0.1419
 2041TIP3    H127682   2.617   3.510   1.264  0.4093 -0.9076 -1.8092
 2041TIP3    H227683   2.699   3.428   1.359 -0.4908 -0.0521 -0.2515
 2042TIP3   OH227684   4.821   0.836   0.168  0.4783 -0.7840  0.2951
 2042TIP3    H127685   4.755   0.841   0.237  0.5296 -2.2105  0.4668
 2042TIP3    H227686   4.772   0.813   0.089  0.5712 -0.2364  0.0679
 2043TIP3   OH227687   6.898   6.367   6.649  0.3513 -0.5181  0.4626
 2043TIP3    H127688   6.915   6.435   6.713 -0.1938 -0.8740  0.9955
 2043TIP3    H227689   6.813   6.330   6.674 -0.2102 -0.2087 -0.8627
 2044TIP3   OH227690   4.588   0.336   7.354  0.0253  0.5609 -0.0724
 2044TIP3    H127691   4.532   0.260   7.339  0.9083 -0.1259  0.0239
 2044TIP3    H227692   4.580   0.353   7.448 -1.3729  1.5614 -0.3554
 2045TIP3   OH227693   1.459   1.936   7.740  0.2314  0.1245 -0.0094
 2045TIP3    H127694   1.430   1.970   7.655 -0.0119  1.5579  0.6079
 2045TIP3    H227695   1.552   1.957   7.744  0.1962  0.2483  0.1623
 2046TIP3   OH227696   6.338   4.607   0.538  0.9695 -0.1897  0.0831
 2046TIP3    H127697   6.339   4.684   0.594 -1.9823 -0.2625  0.4304
 2046TIP3    H227698   6.305   4.639   0.454  0.3385 -0.9190  0.0362
 2047TIP3   OH227699   5.031   5.980   8.412  0.5197  0.0741  0.3551
 2047TIP3    H127700   5.096   5.924   8.455  0.9965  0.8346  0.6528
 2047TIP3    H227701   5.031   6.060   8.464 -0.0483  0.4106 -0.1492
 2048TIP3   OH227702   2.060   1.064   7.165  0.3106 -0.5434 -0.1251
 2048TIP3    H127703   2.104   0.979   7.167  0.0176 -0.7004 -0.2851
 2048TIP3    H227704   2.079   1.103   7.251  0.8134 -0.5801 -0.2153
 2049TIP3   OH227705   6.369   0.974   7.173 -0.1878  0.1301  0.5867
 2049TIP3    H127706   6.282   0.933   7.176 -0.4213  0.6420  0.7767
 2049TIP3    H227707   6.430   0.900   7.176 -0.6111 -0.3535 -1.2084
 2050TIP3   OH227708   3.887   0.437   1.669 -0.0394 -0.6211  0.0148
 2050TIP3    H127709   3.850   0.348   1.666  0.4539 -0.8434  0.3539
 2050TIP3    H227710   3.961   0.434   1.608 -0.1496 -0.3862 -0.1280
 2051TIP3   OH227711   3.974   4.802   1.802 -0.1695 -0.8258  0.5149
 2051TIP3    H127712   3.954   4.711   1.785 -2.1576 -0.4310  0.5777
 2051TIP3    H227713   3.891   4.848   1.792  1.3024  1.5093 -2.7142
 2052TIP3   OH227714   5.515   0.055   0.887  0.1795 -0.1224 -1.0497
 2052TIP3    H127715   5.606   0.059   0.919 -0.5988  1.5153  1.2857
 2052TIP3    H227716   5.482   0.144   0.900 -1.4282 -0.3674 -3.0283
 2053TIP3   OH227717   3.520   2.947   2.471 -0.6869 -0.1338  0.6161
 2053TIP3    H127718   3.577   2.946   2.548 -2.3572  1.0913  1.9547
 2053TIP3    H227719   3.567   2.896   2.406  0.8990 -1.0535  2.3733
 2054TIP3   OH227720   0.780   1.442   1.269 -0.1895  0.3330  0.0303
 2054TIP3    H127721   0.788   1.505   1.197 -0.0374  1.5191  1.0440
 2054TIP3    H227722   0.777   1.357   1.226 -0.0178  1.0006 -1.3722
 2055TIP3   OH227723   4.530   1.882   0.493 -0.2503 -0.1848 -0.0023
 2055TIP3    H127724   4.597   1.922   0.438 -0.0699 -0.9720 -0.3765
 2055TIP3    H227725   4.579   1.826   0.553 -0.5100  0.0000  0.3863
 2056TIP3   OH227726   0.695   5.467   8.561 -0.3548 -0.3660  0.2127
 2056TIP3    H127727   0.743   5.459   8.643 -1.3512 -2.7949  0.6432
 2056TIP3    H227728   0.748   5.417   8.498 -1.6590 -2.1317  0.4397
 2057TIP3   OH227729   1.401   2.248   7.856 -0.7500  0.0881  0.0402
 2057TIP3    H127730   1.340   2.175   7.843  0.1831 -0.7788  0.3606
 2057TIP3    H227731   1.366   2.319   7.803 -2.4390 -0.1398  0.7949
 2058TIP3   OH227732   4.384   0.624   1.125 -0.1898  0.1705  0.1641
 2058TIP3    H127733   4.416   0.661   1.207  1.2211 -2.1301  0.7442
 2058TIP3    H227734   4.295   0.596   1.144  0.1777 -0.4841  1.0155
 2059TIP3   OH227735   2.075   6.414   1.363  0.6575 -0.1504  0.3051
 2059TIP3    H127736   2.121   6.348   1.311  1.1762  0.6792 -0.2928
 2059TIP3    H227737   2.143   6.455   1.416  0.4442  0.3574  0.1930
 2060TIP3   OH227738   2.279   6.192   8.079  0.2375 -0.2675  0.3231
 2060TIP3    H127739   2.204   6.151   8.123 -1.4780  1.5852 -0.6818
 2060TIP3    H227740   2.298   6.270   8.132  1.4374 -0.6783  0.5244
 2061TIP3   OH227741   3.803   3.922   7.987  0.0104 -0.5539  0.0062
 2061TIP3    H127742   3.792   3.892   8.077  0.5745 -0.0991  0.2349
 2061TIP3    H227743   3.806   4.017   7.994 -1.6076 -0.4200 -0.6947
 2062TIP3   OH227744   4.501   3.055   2.183  0.5738  0.1510 -0.8543
 2062TIP3    H127745   4.468   2.995   2.116  0.7066 -1.9574  0.8888
 2062TIP3    H227746   4.436   3.126   2.185 -0.6841 -0.9427 -1.5751
 2063TIP3   OH227747   1.319   6.871   1.226  0.3695  0.8393  0.2027
 2063TIP3    H127748   1.385   6.808   1.253  0.2317  1.0201  0.9889
 2063TIP3    H227749   1.239   6.842   1.268  0.3836  1.7324  0.8802
 2064TIP3   OH227750   0.798   4.256   2.325  0.0384  0.4806 -0.4605
 2064TIP3    H127751   0.847   4.192   2.376 -1.4172  1.1620  1.9168
 2064TIP3    H227752   0.745   4.203   2.265 -0.0290 -0.4705  0.4145
 2065TIP3   OH227753   5.093   4.383   1.406 -0.6246  0.3469 -0.1992
 2065TIP3    H127754   5.178   4.425   1.395  0.7814 -1.9152  1.4430
 2065TIP3    H227755   5.036   4.429   1.344  1.6920  2.1065 -1.1574
 2066TIP3   OH227756   5.052   6.147   0.371  0.3988  0.4236  0.3731
 2066TIP3    H127757   5.044   6.212   0.440  2.0902  0.1910  0.8394
 2066TIP3    H227758   4.986   6.081   0.393 -0.3255  1.2384  0.7197
 2067TIP3   OH227759   4.643   3.084   1.275  0.3570  0.3789 -0.3123
 2067TIP3    H127760   4.698   3.161   1.287  3.5457 -1.8455  0.7054
 2067TIP3    H227761   4.662   3.029   1.351 -0.9485 -1.8875 -1.5230
 2068TIP3   OH227762   4.599   6.347   1.479 -0.3399  0.6181 -0.4953
 2068TIP3    H127763   4.608   6.254   1.501 -1.2118  0.6477  0.0719
 2068TIP3    H227764   4.538   6.348   1.405  0.8437  0.6625 -1.5041
 2069TIP3   OH227765   3.321   6.044   1.869  0.1252  0.2767 -0.7519
 2069TIP3    H127766   3.319   6.047   1.773  0.4182  1.4537 -0.7344
 2069TIP3    H227767   3.233   6.071   1.895  0.5313  1.6024 -0.6835
 2070TIP3   OH227768   5.684   1.272   2.161 -0.1081  0.0720 -0.4688
 2070TIP3    H127769   5.777   1.294   2.171 -0.4392  0.8699  0.9849
 2070TIP3    H227770   5.637   1.349   2.192 -1.2821 -1.3720  1.5186
 2071TIP3   OH227771   2.698   3.283   0.972  1.2431  0.2507  0.2239
 2071TIP3    H127772   2.778   3.234   0.954  2.0820  2.5095 -3.0351
 2071TIP3    H227773   2.725   3.375   0.974 -0.6242  0.9281  3.8124
 2072TIP3   OH227774   1.217   3.340   1.373  0.7202 -0.2131 -0.2774
 2072TIP3    H127775   1.153   3.276   1.342 -0.6626  1.0425 -0.1372
 2072TIP3    H227776   1.196   3.352   1.466  1.9293 -0.6445  0.0620
 2073TIP3   OH227777   1.344   6.176   7.496  0.3804 -0.0290  0.0484
 2073TIP3    H127778   1.318   6.084   7.506 -0.9018  0.2742 -0.2856
 2073TIP3    H227779   1.262   6.225   7.507  0.7150  0.9552 -1.6189
 2074TIP3   OH227780   0.429   1.729   8.125 -0.2094 -0.0695 -0.1753
 2074TIP3    H127781   0.459   1.780   8.200 -0.2779  0.0367 -0.2177
 2074TIP3    H227782   0.382   1.655   8.162  1.7479 -1.3300 -0.0423
 2075TIP3   OH227783   5.002   6.476   1.451 -0.6557 -0.1100  0.3593
 2075TIP3    H127784   5.046   6.430   1.380 -2.4339 -1.5223  0.0957
 2075TIP3    H227785   5.073   6.517   1.501  0.8447 -1.4166 -0.6013
 2076TIP3   OH227786   2.467   6.733   8.158 -0.3533  0.7945 -0.7707
 2076TIP3    H127787   2.496   6.814   8.117  0.1561  0.6539 -0.6975
 2076TIP3    H227788   2.432   6.760   8.243  2.1404  0.7093  0.3749
 2077TIP3   OH227789   5.876   1.819   1.905  0.2262  0.3976 -0.3666
 2077TIP3    H127790   5.963   1.847   1.879  0.2519  0.7316  0.0753
 2077TIP3    H227791   5.827   1.900   1.917 -0.0152  0.2238 -0.1586
 2078TIP3   OH227792   2.366   1.067   1.803  0.2126 -0.2907 -0.5378
 2078TIP3    H127793   2.432   1.010   1.842  0.5877  0.9365  0.6930
 2078TIP3    H227794   2.399   1.085   1.715  1.9364  0.8800  0.2880
 2079TIP3   OH227795   3.360   4.898   7.747  0.1437  0.2904  0.0028
 2079TIP3    H127796   3.452   4.919   7.763  0.0261  0.2094  0.8311
 2079TIP3    H227797   3.311   4.962   7.800 -0.2515 -0.5637  0.6861
 2080TIP3   OH227798   4.098   3.334   0.346  0.0804 -0.2185 -0.1619
 2080TIP3    H127799   4.150   3.390   0.289 -1.0893 -0.0093 -1.0547
 2080TIP3    H227800   4.008   3.359   0.329 -0.4973 -2.4184 -0.6488
 2081TIP3   OH227801   6.841   0.359   1.599 -0.1432  0.0458  0.3574
 2081TIP3    H127802   6.923   0.378   1.553  0.3858 -0.9081  0.8753
 2081TIP3    H227803   6.778   0.422   1.563  0.3568 -0.3576 -1.3408
 2082TIP3   OH227804   3.738   2.800   8.541 -0.2661 -0.0613 -0.4512
 2082TIP3    H127805   3.824   2.841   8.550 -1.1042  1.6229  0.2264
 2082TIP3    H227806   3.681   2.870   8.512 -1.8622 -0.6336  1.1471
 2083TIP3   OH227807   1.705   1.353   2.559 -0.4357 -0.4150  0.1742
 2083TIP3    H127808   1.708   1.430   2.616 -1.7628  0.5571 -1.0249
 2083TIP3    H227809   1.626   1.307   2.585 -0.2279 -0.7898  0.1433
 2084TIP3   OH227810   4.590   5.474   7.155  0.1592  0.1379  0.2443
 2084TIP3    H127811   4.498   5.485   7.178 -0.0072 -0.5924 -0.0542
 2084TIP3    H227812   4.598   5.512   7.068 -0.1951 -1.1455 -0.3621
 2085TIP3   OH227813   0.088   5.476   8.433  0.2708  0.1366 -0.2615
 2085TIP3    H127814   0.110   5.563   8.466  0.3763  1.0088 -2.5014
 2085TIP3    H227815   0.164   5.422   8.454 -0.3500  0.1293  2.4224
 2086TIP3   OH227816   5.288   5.219   8.029  0.0251 -0.4010 -0.3865
 2086TIP3    H127817   5.272   5.209   8.123 -0.1811 -0.2498 -0.4018
 2086TIP3    H227818   5.226   5.158   7.988  0.9767 -1.3784 -0.3947
 2087TIP3   OH227819   5.934   2.524   8.177  0.0787  0.1030 -0.7293
 2087TIP3    H127820   5.985   2.602   8.200 -0.7625  1.0954 -2.1211
 2087TIP3    H227821   5.946   2.465   8.252  2.4068  0.7063 -0.5588
 2088TIP3   OH227822   2.840   0.430   0.411  0.6047  0.7433  0.1718
 2088TIP3    H127823   2.789   0.445   0.331 -0.7619  0.6336  0.9959
 2088TIP3    H227824   2.795   0.358   0.456  0.4101  1.8429  1.8128
 2089TIP3   OH227825   2.646   2.921   1.505 -0.2949 -0.3156  0.1316
 2089TIP3    H127826   2.610   2.917   1.417 -0.3720  0.8753  0.0900
 2089TIP3    H227827   2.739   2.940   1.493 -0.6886  2.0685  0.2870
 2090TIP3   OH227828   6.704   1.221   2.653 -0.4301  0.2203 -0.2009
 2090TIP3    H127829   6.625   1.265   2.622 -0.9133  0.2802  1.0759
 2090TIP3    H227830   6.768   1.237   2.584 -1.3202  0.7690 -0.9315
 2091TIP3   OH227831   6.274   6.093   2.129 -0.3845 -0.4583  0.0943
 2091TIP3    H127832   6.182   6.107   2.106  0.1592 -0.4450 -2.2269
 2091TIP3    H227833   6.313   6.180   2.128  0.3978 -0.7777 -2.5281
 2092TIP3   OH227834   2.461   5.773   0.590  0.4916  0.1032 -0.1108
 2092TIP3    H127835   2.538   5.828   0.576 -0.0469  1.1062  0.7600
 2092TIP3    H227836   2.387   5.831   0.576 -0.0944 -0.4601  0.5713
 2093TIP3   OH227837   6.723   0.073   1.503  0.2879  0.0292 -0.6792
 2093TIP3    H127838   6.744   0.163   1.481 -0.9684  1.0446  1.8632
 2093TIP3    H227839   6.628   0.069   1.504  0.3082 -1.4821 -1.1935
 2094TIP3   OH227840   2.480   1.178   1.599 -0.4657 -0.0087 -0.2589
 2094TIP3    H127841   2.542   1.235   1.645  0.0410 -0.9508  0.2631
 2094TIP3    H227842   2.423   1.238   1.551 -0.3565  0.9646  0.7850
 2095TIP3   OH227843   5.215   0.941   1.597 -0.2545 -0.0258 -0.1095
 2095TIP3    H127844   5.270   0.866   1.621 -0.9639 -0.7009 -0.5481
 2095TIP3    H227845   5.277   1.013   1.587  0.3760 -0.3864  0.9647
 2096TIP3   OH227846   0.535   6.182   2.277 -0.7182  0.1635  0.0990
 2096TIP3    H127847   0.482   6.221   2.347  1.0557 -1.1203  2.2904
 2096TIP3    H227848   0.504   6.092   2.270  1.3722 -0.7845  1.8099
 2097TIP3   OH227849   5.807   6.558   0.875 -0.1168 -0.4971 -0.2459
 2097TIP3    H127850   5.756   6.587   0.950  0.7983 -1.5718  0.8383
 2097TIP3    H227851   5.777   6.612   0.803  0.4121  2.0525  1.3178
 2098TIP3   OH227852   1.769   0.353   7.530  0.6286 -0.2163  0.1457
 2098TIP3    H127853   1.865   0.355   7.529  0.6341  1.4304  0.6845
 2098TIP3    H227854   1.743   0.439   7.497 -0.6505 -0.3110  0.8377
 2099TIP3   OH227855   4.454   1.176   1.541 -0.2029 -0.1857  0.1915
 2099TIP3    H127856   4.471   1.094   1.588 -2.1619 -0.3078  0.7771
 2099TIP3    H227857   4.418   1.235   1.608  0.1379  0.7942 -0.4585
 2100TIP3   OH227858   6.080   3.978   6.753  0.7978 -0.5263 -0.8574
 2100TIP3    H127859   6.121   4.021   6.679  1.9323  0.3780  0.2464
 2100TIP3    H227860   6.032   4.048   6.798  0.3174 -1.0130 -0.5993
 2101TIP3   OH227861   6.205   2.560   7.665  0.3232 -0.1538 -0.4208
 2101TIP3    H127862   6.225   2.503   7.591 -1.5494 -2.9257  1.0132
 2101TIP3    H227863   6.283   2.615   7.674  1.2069 -0.7161 -3.4843
 2102TIP3   OH227864   5.635   6.047   8.115  0.4548  0.6080  0.1559
 2102TIP3    H127865   5.706   5.984   8.104 -1.6846 -2.0680  0.5781
 2102TIP3    H227866   5.634   6.096   8.032  1.0529 -1.2117 -0.9809
 2103TIP3   OH227867   6.706   1.228   8.363 -0.3895  0.1956 -0.4788
 2103TIP3    H127868   6.665   1.162   8.308  0.4099 -0.5588 -0.1816
 2103TIP3    H227869   6.638   1.295   8.375 -0.8181  0.0131 -1.7488
 2104TIP3   OH227870   5.045   2.569   8.205  0.0510  0.3382 -0.2919
 2104TIP3    H127871   5.004   2.623   8.273  0.6415  1.2502 -0.6426
 2104TIP3    H227872   5.021   2.611   8.123  0.1307 -0.2082 -0.5989
 2105TIP3   OH227873   0.034   6.249   0.693  0.6975 -0.0363  0.2483
 2105TIP3    H127874  -0.047   6.295   0.712  0.5969 -0.3532  0.6110
 2105TIP3    H227875   0.010   6.184   0.626  0.4154 -0.8006  1.0616
 2106TIP3   OH227876   0.731   0.852   7.428  0.0773  0.2600  0.2473
 2106TIP3    H127877   0.730   0.945   7.450  1.3569  0.8801 -1.9722
 2106TIP3    H227878   0.817   0.837   7.390  0.4817 -2.2222  1.8508
 2107TIP3   OH227879   0.978   3.848   8.127  0.1482  0.1530  0.2625
 2107TIP3    H127880   0.929   3.887   8.200 -0.2162  0.5513 -0.1945
 2107TIP3    H227881   0.973   3.753   8.144 -0.7764  0.1819  0.2315
 2108TIP3   OH227882   2.222   0.178   2.717  0.6959 -0.8566  0.0525
 2108TIP3    H127883   2.250   0.090   2.742  0.0945 -1.2953 -0.8018
 2108TIP3    H227884   2.301   0.219   2.681  0.9197 -1.1154  0.2389
 2109TIP3   OH227885   1.613   0.583   1.466 -0.0679  0.1818 -0.8652
 2109TIP3    H127886   1.525   0.577   1.428 -0.9211 -0.8480  1.1483
 2109TIP3    H227887   1.632   0.494   1.495  0.2399  1.0174  1.6671
 2110TIP3   OH227888   1.944   0.491   0.047 -0.6797  0.6179  0.4538
 2110TIP3    H127889   2.016   0.548   0.023 -4.2688  4.7850 -1.8056
 2110TIP3    H227890   1.927   0.511   0.139  0.2393  0.4044  0.6872
 2111TIP3   OH227891   2.218   5.816   8.202  0.4213 -0.1731  0.4596
 2111TIP3    H127892   2.148   5.841   8.141  0.0569  0.1077  0.9842
 2111TIP3    H227893   2.199   5.865   8.281 -0.3247 -2.0668  1.5209
 2112TIP3   OH227894   3.679   5.430   8.335  0.1275 -0.4423  0.0722
 2112TIP3    H127895   3.684   5.501   8.271  2.3475 -1.7596 -1.3507
 2112TIP3    H227896   3.697   5.351   8.285 -1.7203 -2.0314  1.7035
 2113TIP3   OH227897   6.892   5.346   7.668  0.1304  0.3443  0.5622
 2113TIP3    H127898   6.922   5.299   7.590  1.2936 -1.6044  2.0885
 2113TIP3    H227899   6.868   5.277   7.730 -2.8944  1.8044  1.2482
 2114TIP3   OH227900   1.120   2.957   0.212  0.1401  0.6301  0.0677
 2114TIP3    H127901   1.040   2.948   0.161 -0.9738  3.4108  1.1399
 2114TIP3    H227902   1.186   2.986   0.149 -0.9697  3.0526 -0.0767
 2115TIP3   OH227903   6.024   6.675   0.098 -0.0010 -0.5698  0.1233
 2115TIP3    H127904   5.956   6.669   0.032  0.2129 -0.0389 -0.1498
 2115TIP3    H227905   6.086   6.739   0.064  0.6953 -1.1198  0.3191
 2116TIP3   OH227906   4.581   5.792   2.379 -0.7029  0.6043 -0.0565
 2116TIP3    H127907   4.506   5.790   2.437  0.4232 -0.9985  1.4252
 2116TIP3    H227908   4.645   5.733   2.419  0.9623  1.1137 -1.7914
 2117TIP3   OH227909   0.498   4.266   7.724  0.3415 -0.2980  0.4078
 2117TIP3    H127910   0.544   4.322   7.661  1.4032 -2.4104 -0.8100
 2117TIP3    H227911   0.540   4.285   7.808  1.3235  0.0717 -0.1489
 2118TIP3   OH227912   2.348   5.404   0.236  0.3665 -0.4427 -0.1098
 2118TIP3    H127913   2.409   5.458   0.286  2.3257 -2.8735  0.3220
 2118TIP3    H227914   2.324   5.458   0.160  1.3081  1.4070  0.8549
 2119TIP3   OH227915   4.927   5.157   0.583 -0.0672  0.7101 -0.3814
 2119TIP3    H127916   4.861   5.117   0.526  0.6431 -0.3697 -0.4642
 2119TIP3    H227917   4.940   5.094   0.654 -1.1936  2.1877  1.2136
 2120TIP3   OH227918   6.372   0.184   1.803 -0.1793 -0.7352  0.5546
 2120TIP3    H127919   6.287   0.229   1.808 -0.1490 -0.6266  0.1810
 2120TIP3    H227920   6.376   0.130   1.881 -0.8128 -1.1197  0.3292
 2121TIP3   OH227921   4.623   2.869   0.598  0.0035  0.1598 -0.1296
 2121TIP3    H127922   4.552   2.902   0.544  1.0577  0.3055 -1.4874
 2121TIP3    H227923   4.612   2.912   0.683 -0.2322  1.8815 -1.0066
 2122TIP3   OH227924   1.571   0.420   2.592  0.2202  0.4466 -0.3014
 2122TIP3    H127925   1.559   0.398   2.499 -0.4179 -1.3956  0.1707
 2122TIP3    H227926   1.487   0.398   2.633 -0.1205  2.9180  0.4693
 2123TIP3   OH227927   6.031   5.779   8.163 -0.5680 -0.2248  0.2842
 2123TIP3    H127928   6.109   5.808   8.116 -0.0590  2.2497  2.4048
 2123TIP3    H227929   5.975   5.741   8.096  0.8401  1.4901 -1.9882
 2124TIP3   OH227930   0.042   5.990   0.579  0.2610 -0.1146  0.1538
 2124TIP3    H127931   0.006   5.952   0.659  1.1117 -1.0141  0.1219
 2124TIP3    H227932   0.137   5.983   0.589  0.3814 -0.1957 -0.9127
 2125TIP3   OH227933   6.891   0.243   2.066 -0.4087 -0.1280 -0.4921
 2125TIP3    H127934   6.852   0.299   1.998 -0.0211 -0.3052 -0.8617
 2125TIP3    H227935   6.959   0.297   2.105  2.2435 -1.3846 -3.0501
 2126TIP3   OH227936   5.883   4.998   2.643 -0.4869 -0.1276 -0.2381
 2126TIP3    H127937   5.911   4.908   2.624  0.0232  0.6073 -3.5268
 2126TIP3    H227938   5.965   5.046   2.654 -0.7340  0.1837  0.2465
 2127TIP3   OH227939   5.232   5.461   1.710  0.8279  0.0720 -0.3343
 2127TIP3    H127940   5.170   5.425   1.646 -0.8232  0.1894  1.1249
 2127TIP3    H227941   5.219   5.556   1.705  0.6953  0.0812  0.1688
 2128TIP3   OH227942   2.118   1.612   1.742  0.0835 -0.8776  0.1880
 2128TIP3    H127943   2.149   1.600   1.652 -2.7842  1.2660 -1.2434
 2128TIP3    H227944   2.198   1.618   1.794  2.0463  1.5551 -2.7774
 2129TIP3   OH227945   1.106   4.488   1.013 -0.1513  0.1544 -0.1623
 2129TIP3    H127946   1.051   4.539   1.073 -1.2318 -0.8695 -0.2446
 2129TIP3    H227947   1.061   4.491   0.929  0.1070 -0.3824 -0.3305
 2130TIP3   OH227948   1.926   0.262   8.129 -0.9817 -0.0896 -0.0863
 2130TIP3    H127949   1.984   0.328   8.090 -0.3152 -1.2604 -1.1462
 2130TIP3    H227950   1.953   0.260   8.221 -0.3214  0.4055 -0.2554
 2131TIP3   OH227951   5.048   2.932   2.266  0.0826 -0.0300 -0.1573
 2131TIP3    H127952   5.133   2.976   2.260  0.6095 -0.9586  0.2387
 2131TIP3    H227953   4.984   3.003   2.261  0.9055  0.8355  0.9398
 2132TIP3   OH227954   3.136   1.472   8.280 -0.7236 -0.2101 -0.1527
 2132TIP3    H127955   3.201   1.486   8.211 -0.8498  0.5496 -0.1222
 2132TIP3    H227956   3.099   1.558   8.296 -0.8530 -0.4189  0.7161
 2133TIP3   OH227957   6.234   5.168   7.911  0.6378 -0.4342 -0.3922
 2133TIP3    H127958   6.316   5.129   7.942  0.1955  0.0474  1.5218
 2133TIP3    H227959   6.244   5.261   7.927 -1.2779 -0.5959  2.6559
 2134TIP3   OH227960   6.196   3.234   1.225  0.7161 -0.0608 -0.0510
 2134TIP3    H127961   6.102   3.253   1.226  0.6707 -0.2746  1.2236
 2134TIP3    H227962   6.228   3.280   1.147 -0.6067 -0.8978 -1.1365
 2135TIP3   OH227963   0.172   2.733   1.166 -0.4420 -0.6926  0.3084
 2135TIP3    H127964   0.237   2.779   1.113 -1.1946  2.1636  1.6741
 2135TIP3    H227965   0.088   2.757   1.127 -0.9044 -0.1709  1.5905
 2136TIP3   OH227966   3.750   4.555   0.137  0.0135 -0.5854 -0.0617
 2136TIP3    H127967   3.759   4.524   0.047  2.7928  0.6323 -0.2938
 2136TIP3    H227968   3.676   4.615   0.135  0.5794  0.1048 -1.7681
 2137TIP3   OH227969   2.004   6.452   0.041  0.0574  0.5149 -0.2035
 2137TIP3    H127970   2.041   6.370   0.074 -0.6438  0.0778 -0.4585
 2137TIP3    H227971   1.916   6.427   0.010  0.0014  1.2749 -0.6839
 2138TIP3   OH227972   2.097   0.142   2.004  0.1182  0.1746 -0.4850
 2138TIP3    H127973   2.182   0.151   2.048  0.5276 -0.4914 -1.1042
 2138TIP3    H227974   2.117   0.153   1.911 -0.4337 -0.2198 -0.6568
 2139TIP3   OH227975   2.991   5.200   0.293 -0.5013 -0.4599  0.1642
 2139TIP3    H127976   3.018   5.110   0.273 -0.9545 -0.6735  0.4972
 2139TIP3    H227977   2.912   5.190   0.345  0.2256  0.0898  1.4291
 2140TIP3   OH227978   1.472   2.297   6.930 -0.1879 -0.2559  0.1236
 2140TIP3    H127979   1.381   2.326   6.925  0.2497  1.0050 -2.2640
 2140TIP3    H227980   1.508   2.345   7.004 -1.4469 -0.8071  1.1302
 2141TIP3   OH227981   0.764   2.138   8.203 -0.3409  0.7665  0.1746
 2141TIP3    H127982   0.677   2.101   8.210  0.8820 -2.2345  1.1711
 2141TIP3    H227983   0.800   2.134   8.292  1.0730  1.2413 -0.3330
 2142TIP3   OH227984   5.787   0.357   1.643  0.0588  0.7855  0.2270
 2142TIP3    H127985   5.809   0.334   1.734 -0.2902 -3.4255 -0.5714
 2142TIP3    H227986   5.869   0.343   1.595 -0.5974 -0.4466 -0.5719
 2143TIP3   OH227987   3.049   4.323   1.820  0.0218 -0.2562 -0.0960
 2143TIP3    H127988   3.009   4.410   1.821  0.1882 -0.1487 -1.4636
 2143TIP3    H227989   3.074   4.309   1.729  2.8566 -0.4506  0.6164
 2144TIP3   OH227990   6.110   6.572   1.133  0.4501 -0.6405 -0.2678
 2144TIP3    H127991   6.067   6.523   1.063 -2.1007  3.5334 -1.9118
 2144TIP3    H227992   6.177   6.624   1.088  1.5621 -0.8612  1.0672
 2145TIP3   OH227993   6.425   2.594   1.882 -0.3803  0.0715  0.0757
 2145TIP3    H127994   6.387   2.514   1.918 -0.5531 -0.3907 -1.0836
 2145TIP3    H227995   6.353   2.635   1.834 -0.4062  1.1583  0.9963
 2146TIP3   OH227996   4.661   0.764   8.526  0.0205 -0.7373 -0.0926
 2146TIP3    H127997   4.729   0.790   8.463 -0.5524  0.2387 -0.3217
 2146TIP3    H227998   4.669   0.669   8.531  0.7760 -0.7279 -0.8414
 2147TIP3   OH227999   4.147   0.417   7.739  1.0922  0.1603  0.5426
 2147TIP3    H128000   4.086   0.447   7.672  1.0986 -1.1856 -0.1193
 2147TIP3    H228001   4.107   0.337   7.774  1.0100  0.9351  2.3016
 2148TIP3   OH228002   6.906   3.871   1.720  0.2687  0.2790 -0.2771
 2148TIP3    H128003   6.902   3.848   1.812 -0.4833 -0.0946 -0.4000
 2148TIP3    H228004   6.824   3.839   1.683  1.1473 -0.8034 -1.3512
 2149TIP3   OH228005   6.260   5.036   1.363  0.0278 -0.1100 -0.6538
 2149TIP3    H128006   6.184   5.065   1.413 -0.6411 -1.1455 -1.0403
 2149TIP3    H228007   6.285   4.953   1.402  0.3747 -0.2413 -1.1375
 2150TIP3   OH228008   4.572   4.304   1.711  0.1604  0.1923  0.4117
 2150TIP3    H128009   4.574   4.313   1.616 -1.8708 -0.1317  0.2955
 2150TIP3    H228010   4.606   4.388   1.744  2.6238 -0.3616 -0.5377
 2151TIP3   OH228011   4.346   1.671   1.469 -0.1154 -0.4238 -0.7346
 2151TIP3    H128012   4.301   1.611   1.528 -0.7888 -2.0473 -2.7837
 2151TIP3    H228013   4.301   1.661   1.385  1.7873  0.5850 -1.9594
 2152TIP3   OH228014   3.219   2.119   8.453  0.0252 -0.0897  0.1461
 2152TIP3    H128015   3.283   2.160   8.395  0.7363 -2.0896 -0.5575
 2152TIP3    H228016   3.239   2.156   8.540  0.8054  0.8189 -0.3970
 2153TIP3   OH228017   3.606   4.980   7.834 -0.4166  0.3253 -0.4609
 2153TIP3    H128018   3.619   5.066   7.794 -1.3988  0.2890 -0.8701
 2153TIP3    H228019   3.679   4.928   7.800 -0.6893  0.5632 -1.4619
 2154TIP3   OH228020   4.269   2.703   2.072 -0.4080  0.2662  0.7188
 2154TIP3    H128021   4.186   2.730   2.112 -1.6245 -1.6565 -0.2905
 2154TIP3    H228022   4.292   2.623   2.118  0.5406  0.4301  0.5368
 2155TIP3   OH228023   5.754   4.475   1.812  0.0251 -0.2215 -0.0949
 2155TIP3    H128024   5.745   4.426   1.894  1.1752  0.2080  0.2973
 2155TIP3    H228025   5.664   4.501   1.790 -0.1623  0.8742  1.7834
 2156TIP3   OH228026   3.743   2.508   0.522  0.2569 -0.2929  0.2499
 2156TIP3    H128027   3.677   2.561   0.567  0.1721  0.8975 -1.1848
 2156TIP3    H228028   3.701   2.423   0.511 -0.8119  0.2451 -0.0465
 2157TIP3   OH228029   3.337   0.436   0.486 -0.1445 -0.6412  0.2816
 2157TIP3    H128030   3.293   0.410   0.567 -1.2720 -0.5411 -0.2764
 2157TIP3    H228031   3.429   0.445   0.511 -0.1556 -2.4477  1.1102
 2158TIP3   OH228032   0.282   4.795   7.613 -1.0247 -0.0772 -0.2722
 2158TIP3    H128033   0.255   4.749   7.534  1.9873 -2.2629 -0.2251
 2158TIP3    H228034   0.272   4.731   7.684  0.3321  0.3426  0.3412
 2159TIP3   OH228035   0.915   0.745   1.011 -0.5482 -0.2416  0.2736
 2159TIP3    H128036   0.950   0.769   1.097  0.8704  1.5133 -0.7205
 2159TIP3    H228037   0.916   0.649   1.011  0.9315 -0.2684  1.6334
 2160TIP3   OH228038   2.751   3.579   3.013  0.0051 -0.2333 -0.4589
 2160TIP3    H128039   2.688   3.648   3.035 -0.0232  0.4145 -2.3546
 2160TIP3    H228040   2.775   3.597   2.922  3.6584  0.0959  0.4188
 2161TIP3   OH228041   0.919   4.144   0.771 -0.4803  0.0206 -0.3131
 2161TIP3    H128042   0.924   4.231   0.732 -0.3017 -0.6045 -1.7709
 2161TIP3    H228043   1.006   4.105   0.755 -0.4592 -0.3314  0.5752
 2162TIP3   OH228044   2.136   5.511   8.109 -0.1475  0.5350  0.1651
 2162TIP3    H128045   2.145   5.599   8.146 -3.0242  0.6060  0.9055
 2162TIP3    H228046   2.137   5.524   8.015 -0.6771  1.4042  0.2668
 2163TIP3   OH228047   4.502   6.899   7.944  0.0194  0.0717  0.9041
 2163TIP3    H128048   4.476   6.974   7.891  0.0659 -0.2297  0.4426
 2163TIP3    H228049   4.591   6.878   7.915 -0.2312 -0.5592  0.5556
 2164TIP3   OH228050   6.615   3.404   0.678  0.0882 -0.6007  0.0118
 2164TIP3    H128051   6.684   3.357   0.631 -0.7282 -2.7456  0.8161
 2164TIP3    H228052   6.658   3.437   0.757  0.5291 -0.6013 -0.2240
 2165TIP3   OH228053   1.860   2.181   1.568  0.2377 -0.5391  0.1304
 2165TIP3    H128054   1.790   2.178   1.502 -0.3181 -0.4725  0.7085
 2165TIP3    H228055   1.880   2.275   1.576  0.8113 -0.6007 -0.4556
 2166TIP3   OH228056   3.310   5.438   1.170 -0.5221  0.0586 -0.3641
 2166TIP3    H128057   3.260   5.513   1.205  0.5018  0.1106  1.0727
 2166TIP3    H228058   3.342   5.468   1.085 -2.3353  0.2662 -1.0271
 2167TIP3   OH228059   3.464   0.719   1.541 -0.0345  0.7905  0.1699
 2167TIP3    H128060   3.538   0.676   1.585 -0.9090  0.9333  1.8666
 2167TIP3    H228061   3.503   0.796   1.501  0.9774  0.1454 -0.1456
 2168TIP3   OH228062   5.635   5.042   2.015 -0.2542 -0.3415  1.0343
 2168TIP3    H128063   5.653   5.088   2.097  0.2867 -0.7311  1.1415
 2168TIP3    H228064   5.573   4.973   2.040 -0.5402 -0.0979  1.0023
 2169TIP3   OH228065   4.311   5.768   0.465  0.3818 -0.7316  0.0990
 2169TIP3    H128066   4.377   5.717   0.513  1.0112 -0.0862 -0.0744
 2169TIP3    H228067   4.307   5.852   0.511 -0.6960 -0.9350  0.4164
 2170TIP3   OH228068   2.894   5.115   2.244  0.1774 -0.4763  0.1741
 2170TIP3    H128069   2.976   5.117   2.194  0.0146  1.0921 -0.0498
 2170TIP3    H228070   2.887   5.201   2.284 -1.3612 -0.5775  0.2023
 2171TIP3   OH228071   1.555   1.103   2.446 -0.0418 -0.0409 -0.3848
 2171TIP3    H128072   1.468   1.109   2.484 -0.2520  0.5831 -0.9561
 2171TIP3    H228073   1.558   1.171   2.379  0.6913 -0.4157 -0.7539
 2172TIP3   OH228074   6.086   5.183   0.555  0.3952 -0.4184 -0.5871
 2172TIP3    H128075   6.086   5.087   0.561  0.3373 -0.3898 -0.0570
 2172TIP3    H228076   6.141   5.211   0.628  1.0819 -0.0691 -1.2290
 2173TIP3   OH228077   3.850   3.292   0.571  0.2081 -0.2145 -0.3885
 2173TIP3    H128078   3.920   3.230   0.550 -0.0719 -0.8299  0.4462
 2173TIP3    H228079   3.882   3.339   0.649  0.1789  0.2980 -0.6829
 2174TIP3   OH228080   2.348   2.966   0.726 -0.5273 -0.0043  0.0663
 2174TIP3    H128081   2.395   3.031   0.675  0.2881 -0.5427  0.1132
 2174TIP3    H228082   2.343   2.889   0.669  0.0808 -0.4884  0.6474
 2175TIP3   OH228083   1.885   1.718   0.512  0.0393 -0.1071 -0.3148
 2175TIP3    H128084   1.920   1.649   0.455 -0.3863  0.0053 -0.7234
 2175TIP3    H228085   1.790   1.707   0.507 -0.0119  0.1557  0.0630
 2176TIP3   OH228086   1.630   3.679   1.471 -0.1786  0.1778  0.5935
 2176TIP3    H128087   1.545   3.636   1.457  0.4104 -0.9719  0.4942
 2176TIP3    H228088   1.654   3.656   1.561 -0.8112  2.0220  1.2740
 2177TIP3   OH228089   4.568   4.331   1.454  0.4054 -0.2017 -0.4778
 2177TIP3    H128090   4.631   4.336   1.381  1.5723 -0.5551  0.4687
 2177TIP3    H228091   4.535   4.420   1.464  2.1458  0.4061  0.1707
 2178TIP3   OH228092   6.534   0.746   7.240 -0.5385  0.0197 -0.0141
 2178TIP3    H128093   6.515   0.689   7.315 -1.4169  1.3180  0.7992
 2178TIP3    H228094   6.594   0.696   7.186  2.0173 -0.0853  2.6921
 2179TIP3   OH228095   2.730   5.435   0.340 -0.0125  0.4086 -0.4455
 2179TIP3    H128096   2.825   5.441   0.340  0.2517 -1.7251  2.6819
 2179TIP3    H228097   2.710   5.361   0.283  0.4667 -0.7462  0.8280
 2180TIP3   OH228098   6.711   1.387   1.800  0.1888 -0.7252  0.5811
 2180TIP3    H128099   6.693   1.383   1.894 -1.2278  0.5421  0.3973
 2180TIP3    H228100   6.670   1.468   1.771  1.2165 -0.7284 -1.0236
 2181TIP3   OH228101   2.459   4.539   2.982 -0.0957 -0.9700  0.4066
 2181TIP3    H128102   2.387   4.491   3.021 -0.4845  0.3943  1.4551
 2181TIP3    H228103   2.422   4.626   2.964  0.9835 -0.5891 -0.0522
 2182TIP3   OH228104   3.482   5.833   1.880  0.2185  0.3438 -0.6966
 2182TIP3    H128105   3.560   5.889   1.885  1.6036 -1.5753  0.3967
 2182TIP3    H228106   3.409   5.895   1.868  1.3790  2.6234  2.5164
 2183TIP3   OH228107   3.376   4.384   1.696 -0.3715  0.5017 -0.2753
 2183TIP3    H128108   3.363   4.478   1.689 -0.3857  0.4806 -0.5783
 2183TIP3    H228109   3.381   4.366   1.790  0.7359  0.9545 -0.2390
 2184TIP3   OH228110   4.916   6.817   0.586 -0.1162 -0.1538 -0.3601
 2184TIP3    H128111   4.865   6.898   0.589  0.5002  0.2208  0.2788
 2184TIP3    H228112   4.855   6.749   0.614 -0.2897  0.2829  0.3510
 2185TIP3   OH228113   0.325   0.778   1.514  0.3433 -0.3163  0.2104
 2185TIP3    H128114   0.421   0.782   1.519  0.5527  4.0477 -2.2503
 2185TIP3    H228115   0.297   0.869   1.513 -3.7893 -1.3862 -0.4213
 2186TIP3   OH228116   2.614   1.438   0.909  0.2396 -0.0062  0.3430
 2186TIP3    H128117   2.627   1.500   0.981 -2.2633  0.6076  0.3425
 2186TIP3    H228118   2.601   1.493   0.832  1.3430 -0.6434 -0.3400
 2187TIP3   OH228119   6.447   3.047   0.201 -0.3039 -0.7595 -0.0157
 2187TIP3    H128120   6.410   3.052   0.113 -0.6356  0.3151  0.1672
 2187TIP3    H228121   6.465   3.138   0.224 -0.8886 -0.9565  1.3067
 2188TIP3   OH228122   6.426   2.804   1.021 -0.1379 -0.4031 -0.4626
 2188TIP3    H128123   6.385   2.764   1.097 -0.4593  0.7959  0.0262
 2188TIP3    H228124   6.520   2.787   1.032 -0.2743 -1.0548 -0.3023
 2189TIP3   OH228125   6.886   1.757   1.019 -0.2620 -0.4969 -0.5028
 2189TIP3    H128126   6.858   1.762   1.111  1.0074 -0.0425 -0.1244
 2189TIP3    H228127   6.935   1.837   1.005  0.5896 -1.1253 -1.2214
 2190TIP3   OH228128   2.030   1.987   1.598  0.5844 -0.2615  0.2997
 2190TIP3    H128129   1.982   1.909   1.568 -0.0792 -0.3941  1.6575
 2190TIP3    H228130   1.962   2.052   1.616  1.0456  0.1768  0.4852
 2191TIP3   OH228131   2.093   2.556   6.902 -0.0458  0.1280 -0.1793
 2191TIP3    H128132   2.032   2.539   6.974 -1.6492 -1.1789 -1.7528
 2191TIP3    H228133   2.141   2.475   6.891  0.8272  0.6150 -0.0140
 2192TIP3   OH228134   4.063   2.566   1.918  0.6146 -0.0962 -0.1543
 2192TIP3    H128135   4.152   2.572   1.955  0.7206 -0.3940 -0.3561
 2192TIP3    H228136   4.049   2.473   1.905  0.3973 -0.0259 -0.4312
 2193TIP3   OH228137   3.780   3.715   2.489 -0.2946 -0.1502  0.6087
 2193TIP3    H128138   3.843   3.647   2.463 -1.3651 -0.3309 -1.7485
 2193TIP3    H228139   3.834   3.794   2.501  0.8612 -1.1518  2.6509
 2194TIP3   OH228140   0.065   0.937   2.840 -0.8621  0.2499  0.3148
 2194TIP3    H128141   0.156   0.965   2.848 -0.8455 -0.0240  1.2085
 2194TIP3    H228142   0.016   0.998   2.896 -1.7397  2.5713 -2.7427
 2195TIP3   OH228143   4.755   2.227   0.554 -0.3568 -0.3115 -0.2507
 2195TIP3    H128144   4.831   2.177   0.585  0.2479  0.5204 -0.3373
 2195TIP3    H228145   4.760   2.220   0.458 -1.0610 -1.2018 -0.2363
 2196TIP3   OH228146   5.017   4.454   2.226  0.2190 -0.9090  0.7873
 2196TIP3    H128147   5.050   4.493   2.307 -0.0594  0.1489  0.3990
 2196TIP3    H228148   4.939   4.405   2.252 -0.4024  0.1917  1.0202
 2197TIP3   OH228149   6.157   6.609   7.460  0.5428 -0.5086  0.1477
 2197TIP3    H128150   6.132   6.702   7.466 -0.5946 -0.8475  1.0045
 2197TIP3    H228151   6.176   6.584   7.550  0.0901 -1.3012  0.0282
 2198TIP3   OH228152   0.463   4.081   0.241  0.3777  0.2266 -0.5387
 2198TIP3    H128153   0.468   4.069   0.146 -1.0180 -2.5416 -0.3730
 2198TIP3    H228154   0.552   4.062   0.272  0.8612  1.2256 -1.2704
 2199TIP3   OH228155   5.776   4.885   1.206 -0.1345 -0.2469  0.1145
 2199TIP3    H128156   5.778   4.820   1.136 -2.2107 -0.4033  0.1440
 2199TIP3    H228157   5.683   4.898   1.225  0.2252  2.3188  0.5044
 2200TIP3   OH228158   5.661   4.417   2.100 -0.1336  1.0321  0.0719
 2200TIP3    H128159   5.618   4.485   2.048 -0.7031  1.1182  0.6336
 2200TIP3    H228160   5.590   4.359   2.126  0.2501  0.5991  0.1638
 2201TIP3   OH228161   0.966   2.392   8.521  0.4861 -0.9044  0.0376
 2201TIP3    H128162   0.923   2.474   8.545  1.0664 -0.1561 -1.3663
 2201TIP3    H228163   1.005   2.360   8.603 -1.4616 -0.8699  1.0271
 2202TIP3   OH228164   3.301   4.294   2.206 -0.3324  0.2583  0.1318
 2202TIP3    H128165   3.359   4.328   2.274 -0.6067 -3.4570  2.4803
 2202TIP3    H228166   3.213   4.303   2.242 -0.5154 -1.4275  0.1716
 2203TIP3   OH228167   1.150   4.877   1.890 -0.0606  0.0736  0.2161
 2203TIP3    H128168   1.212   4.907   1.956  1.4347 -0.8380 -0.7157
 2203TIP3    H228169   1.078   4.838   1.940  0.2825  0.8081  1.3120
 2204TIP3   OH228170   1.497   0.589   8.490 -0.0922 -0.0664 -0.6672
 2204TIP3    H128171   1.497   0.659   8.554  0.9751 -1.0350  0.4466
 2204TIP3    H228172   1.557   0.524   8.525 -1.0731 -1.5745 -1.6293
 2205TIP3   OH228173   4.178   3.080   1.400  0.6945 -0.2045 -0.0046
 2205TIP3    H128174   4.096   3.123   1.427 -0.4718  1.5913 -5.2912
 2205TIP3    H228175   4.154   2.987   1.390 -0.0398 -0.0910  0.5786
 2206TIP3   OH228176   2.253   1.470   0.929  0.3926 -0.0835  0.1660
 2206TIP3    H128177   2.160   1.476   0.907  0.1481 -0.0968  1.1492
 2206TIP3    H228178   2.285   1.560   0.927 -0.6765  0.5697  4.0067
 2207TIP3   OH228179   5.366   4.071   2.321 -0.0727  0.0184 -0.1738
 2207TIP3    H128180   5.415   3.991   2.340  0.9680 -0.3891 -3.8674
 2207TIP3    H228181   5.275   4.049   2.343  0.3326 -1.8649 -0.1823
 2208TIP3   OH228182   3.584   3.727   7.999 -0.2797 -0.2624 -0.0537
 2208TIP3    H128183   3.500   3.741   7.955 -0.2046  1.2424  0.2471
 2208TIP3    H228184   3.635   3.805   7.980  0.2431 -0.1723  1.5643
 2209TIP3   OH228185   2.758   2.365   7.665 -0.1725 -0.0367  0.0692
 2209TIP3    H128186   2.690   2.348   7.600  0.3338  0.0689 -0.4983
 2209TIP3    H228187   2.798   2.280   7.680 -1.7481 -0.5109  1.9425
 2210TIP3   OH228188   5.662   2.077   2.526 -0.3413 -0.6830 -0.2281
 2210TIP3    H128189   5.720   2.150   2.548  1.2824 -1.7323 -0.8459
 2210TIP3    H228190   5.621   2.103   2.444  0.3462 -0.5094 -0.5286
 2211TIP3   OH228191   6.790   6.503   2.700 -0.2227 -0.0506  0.2655
 2211TIP3    H128192   6.883   6.501   2.676 -0.5285 -0.3388 -0.9606
 2211TIP3    H228193   6.785   6.448   2.779  0.5370 -0.6275 -0.0668
 2212TIP3   OH228194   4.786   5.132   7.445 -0.1428 -0.4665  0.4225
 2212TIP3    H128195   4.791   5.153   7.539 -0.2641 -0.3690  0.4075
 2212TIP3    H228196   4.826   5.206   7.401 -1.2077  0.0716  0.3325
 2213TIP3   OH228197   5.477   0.010   1.966 -0.4937  0.6011 -0.5344
 2213TIP3    H128198   5.529  -0.068   1.945 -1.7303 -0.1624 -0.8889
 2213TIP3    H228199   5.514   0.042   2.048 -0.0061 -0.4192 -0.3374
 2214TIP3   OH228200   6.792   3.565   2.193 -0.3188 -0.8436 -0.2614
 2214TIP3    H128201   6.774   3.474   2.169 -0.5958 -0.7391 -0.4543
 2214TIP3    H228202   6.723   3.587   2.256  0.9821 -1.4399  1.4416
 2215TIP3   OH228203   6.365   4.826   0.748 -0.0902 -0.4346 -0.2558
 2215TIP3    H128204   6.371   4.756   0.813  3.2651 -0.5124 -0.4696
 2215TIP3    H228205   6.429   4.891   0.777  0.8614 -0.0475 -2.9034
 2216TIP3   OH228206   4.282   6.230   6.825  0.3435 -0.1056  0.6120
 2216TIP3    H128207   4.350   6.297   6.828  1.7604 -1.4231 -0.2744
 2216TIP3    H228208   4.327   6.152   6.791 -1.6220 -1.0275 -0.0397
 2217TIP3   OH228209   6.476   1.861   1.749  0.6760  1.1087  0.5831
 2217TIP3    H128210   6.391   1.893   1.780 -0.5909  0.4193 -1.8920
 2217TIP3    H228211   6.500   1.921   1.678  1.5157  0.4344  0.2812
 2218TIP3   OH228212   2.961   5.466   0.520  0.3763 -0.8949 -0.6111
 2218TIP3    H128213   2.897   5.534   0.541 -2.4694 -2.8194 -2.3634
 2218TIP3    H228214   2.943   5.396   0.583  2.6958 -0.4757  0.6294
 2219TIP3   OH228215   4.654   6.872   1.658 -0.1519 -0.3854 -0.0234
 2219TIP3    H128216   4.661   6.777   1.647 -2.9509 -0.8399  1.3254
 2219TIP3    H228217   4.560   6.889   1.661  0.2796  2.5211 -0.6656
 2220TIP3   OH228218   5.036   6.713   8.167  0.3336 -0.2104  0.3131
 2220TIP3    H128219   4.951   6.744   8.197 -0.0188  0.2180 -1.0851
 2220TIP3    H228220   5.023   6.692   8.075  1.4920 -1.1037  0.3334
 2221TIP3   OH228221   4.455   3.814   7.167  0.1600  0.3098 -0.1231
 2221TIP3    H128222   4.487   3.825   7.078  0.3706  1.6957  0.0938
 2221TIP3    H228223   4.367   3.778   7.156  0.0965  0.6714 -0.9068
 2222TIP3   OH228224   6.729   5.437   0.810  0.2010  0.6139 -0.2612
 2222TIP3    H128225   6.773   5.386   0.878  0.2926  1.6428  0.4754
 2222TIP3    H228226   6.739   5.528   0.838  0.4918  1.0939 -1.8038
 2223TIP3   OH228227   4.473   1.406   1.366 -0.1561 -0.2193  0.2683
 2223TIP3    H128228   4.490   1.335   1.428  0.2975  0.0884  0.5044
 2223TIP3    H228229   4.414   1.465   1.412 -0.7118 -0.5516 -0.0109
 2224TIP3   OH228230   5.239   6.061   7.849 -0.3588 -0.2795 -0.2675
 2224TIP3    H128231   5.263   6.115   7.925 -1.3691  0.2768 -0.3124
 2224TIP3    H228232   5.189   5.988   7.887  1.7952 -1.7609 -0.1089
 2225TIP3   OH228233   0.102   3.550   0.158  0.2138 -0.1908  0.3376
 2225TIP3    H128234   0.082   3.582   0.245  0.0403  0.4252  0.0768
 2225TIP3    H228235   0.019   3.552   0.111  0.0735 -1.6466  0.5044
 2226TIP3   OH228236   1.880   5.372   1.047  0.1492 -0.7656  0.6041
 2226TIP3    H128237   1.948   5.435   1.023 -0.0252 -1.4795 -2.0876
 2226TIP3    H228238   1.799   5.423   1.044 -0.1071 -1.1741 -2.4980
 2227TIP3   OH228239   6.234   6.589   1.384  0.8992  0.0578  0.4861
 2227TIP3    H128240   6.246   6.494   1.390 -0.7028 -0.0710  2.4395
 2227TIP3    H228241   6.177   6.601   1.308  1.1127 -0.5081  0.2268
 2228TIP3   OH228242   1.371   3.572   8.422 -0.7140 -0.3718 -0.7024
 2228TIP3    H128243   1.309   3.604   8.357 -1.4502 -0.6431 -0.1492
 2228TIP3    H228244   1.345   3.617   8.503  0.1376 -0.0957 -0.5796
 2229TIP3   OH228245   5.455   0.319   7.336  0.0741  0.2786  0.2890
 2229TIP3    H128246   5.396   0.276   7.274 -0.7765  0.9957  0.5644
 2229TIP3    H228247   5.473   0.253   7.402 -4.4299  1.2340  2.9597
 2230TIP3   OH228248   0.908   2.432   2.320 -0.1614  0.0507 -0.2233
 2230TIP3    H128249   0.994   2.408   2.286  0.0782 -0.2257  0.5809
 2230TIP3    H228250   0.858   2.456   2.241  0.8025  0.7480 -0.6465
 2231TIP3   OH228251   5.646   0.891   7.475  0.4658  0.3858  0.6825
 2231TIP3    H128252   5.679   0.831   7.409 -1.6452 -1.0685  0.8399
 2231TIP3    H228253   5.665   0.848   7.559  1.3529  1.2706  0.9552
 2232TIP3   OH228254   1.758   4.584   1.788  0.0476  0.5447  0.0308
 2232TIP3    H128255   1.754   4.523   1.862 -0.0468 -0.5250 -0.8328
 2232TIP3    H228256   1.687   4.645   1.804 -0.1042  0.2023  0.7174
 2233TIP3   OH228257   3.918   2.354   7.002 -0.2972  0.0657  0.2462
 2233TIP3    H128258   3.987   2.292   6.981  1.3964  1.8596  0.2423
 2233TIP3    H228259   3.837   2.310   6.977  0.8458 -2.0285  0.0697
 2234TIP3   OH228260   1.025   0.350   8.042  0.4908 -0.2919 -0.0330
 2234TIP3    H128261   1.050   0.423   8.100 -0.3556  0.3204 -0.4189
 2234TIP3    H228262   1.107   0.326   7.998  1.1098 -0.6282  1.2336
 2235TIP3   OH228263   1.407   4.337   2.710  0.0808 -0.4733 -0.0560
 2235TIP3    H128264   1.412   4.262   2.769  0.6673 -0.1386  0.3290
 2235TIP3    H228265   1.337   4.392   2.748  0.4610 -0.2552  0.3384
 2236TIP3   OH228266   4.198   0.786   8.262 -0.2851 -0.2102 -0.2666
 2236TIP3    H128267   4.225   0.819   8.177  1.5954  1.2006  0.8080
 2236TIP3    H228268   4.267   0.815   8.323 -0.6798 -2.6092  1.4729
 2237TIP3   OH228269   6.410   3.181   6.722 -0.4027  0.3260 -0.2520
 2237TIP3    H128270   6.457   3.157   6.643 -0.3156  1.8420 -0.6830
 2237TIP3    H228271   6.478   3.190   6.789 -0.6247 -2.6705  0.5111
 2238TIP3   OH228272   1.684   2.714   2.265 -0.0763  0.5046  0.8703
 2238TIP3    H128273   1.624   2.776   2.307  1.5004  2.1913  0.7460
 2238TIP3    H228274   1.733   2.675   2.337  0.6447  1.2696  0.8054
 2239TIP3   OH228275   0.313   5.199   2.423 -0.4470  0.1328 -0.5741
 2239TIP3    H128276   0.243   5.260   2.401 -1.2405 -0.5000  0.1261
 2239TIP3    H228277   0.368   5.246   2.486 -1.9036 -0.3381  1.1498
 2240TIP3   OH228278   0.679   5.477   1.696 -0.5917  0.0461  0.6247
 2240TIP3    H128279   0.704   5.546   1.757 -0.1949 -1.2259  1.9397
 2240TIP3    H228280   0.585   5.464   1.712 -0.6900  0.3245  0.3029
 2241TIP3   OH228281   1.096   3.599   6.573 -0.3593 -0.0405 -0.2757
 2241TIP3    H128282   1.111   3.688   6.544 -1.1117  0.2450  0.1763
 2241TIP3    H228283   1.118   3.600   6.666 -1.3307 -0.0692 -0.0377
 2242TIP3   OH228284   3.926   1.673   0.735 -0.0033 -0.0016 -0.3688
 2242TIP3    H128285   3.989   1.694   0.666  0.0165  0.6452 -0.1634
 2242TIP3    H228286   3.893   1.759   0.763  0.1999 -0.2371  0.6193
 2243TIP3   OH228287   0.598   0.994   2.282 -0.1805  0.9655 -0.5007
 2243TIP3    H128288   0.591   1.029   2.370 -0.4114 -0.4926  0.0869
 2243TIP3    H228289   0.510   0.960   2.262  0.2802 -0.1732 -0.6411
 2244TIP3   OH228290   6.820   2.655   0.812 -0.1649  0.2164  0.0660
 2244TIP3    H128291   6.764   2.592   0.767  0.1934 -0.2773  0.3032
 2244TIP3    H228292   6.807   2.737   0.764  1.5694 -0.6905 -2.1442
 2245TIP3   OH228293   3.911   5.943   7.970 -0.5485  0.1952 -0.4058
 2245TIP3    H128294   3.883   5.976   7.885  0.6285  1.4174 -0.3501
 2245TIP3    H228295   3.905   5.848   7.962 -0.4891  0.3024 -1.8444
 2246TIP3   OH228296   5.574   0.824   8.332 -0.0654 -0.8313  0.0103
 2246TIP3    H128297   5.630   0.884   8.282  0.0367 -0.4081  0.6198
 2246TIP3    H228298   5.527   0.774   8.265  0.6552 -0.8352 -0.5103
 2247TIP3   OH228299   0.705   0.551   8.543  0.3461  0.4998  0.7603
 2247TIP3    H128300   0.772   0.489   8.573  1.0865  0.4364 -0.9144
 2247TIP3    H228301   0.639   0.551   8.613  0.5762 -1.7683  1.0405
 2248TIP3   OH228302   3.205   4.700   0.229 -0.3850  0.1135  0.2683
 2248TIP3    H128303   3.250   4.623   0.194  0.5859  1.5814 -1.8856
 2248TIP3    H228304   3.198   4.682   0.323  3.9586 -0.6875  0.6740
 2249TIP3   OH228305   6.886   2.713   1.930 -0.0837  0.5331  0.3077
 2249TIP3    H128306   6.802   2.681   1.897  0.6609 -2.1764  0.7190
 2249TIP3    H228307   6.918   2.641   1.984  1.8838  2.0628  1.2942
 2250TIP3   OH228308   4.682   4.355   0.949  0.2697 -0.4447 -0.4740
 2250TIP3    H128309   4.772   4.341   0.917 -0.2532 -1.6964 -1.5034
 2250TIP3    H228310   4.627   4.327   0.876 -0.9968 -2.8404  1.2664
 2251TIP3   OH228311   5.156   0.474   7.956 -0.2643 -0.6711 -0.7702
 2251TIP3    H128312   5.162   0.540   7.887 -1.1561 -1.4859 -1.6876
 2251TIP3    H228313   5.197   0.513   8.032  1.9844 -0.2331 -2.1325
 2252TIP3   OH228314   2.571   6.105   0.025 -0.1262 -0.5943 -0.0699
 2252TIP3    H128315   2.572   6.019  -0.018 -0.8414 -0.7288  0.1657
 2252TIP3    H228316   2.649   6.150  -0.009 -0.1206 -1.0813 -0.7176
 2253TIP3   OH228317   3.739   0.989   1.938 -0.2859  0.1874  0.1121
 2253TIP3    H128318   3.664   0.945   1.978 -0.5168  1.6822  1.4606
 2253TIP3    H228319   3.815   0.952   1.983 -0.4543  0.8179  0.9618
 2254TIP3   OH228320   1.164   2.114   1.161  0.4376 -0.3085  0.3039
 2254TIP3    H128321   1.138   2.202   1.135 -0.4875 -0.4460  0.7050
 2254TIP3    H228322   1.114   2.097   1.241  0.2352 -1.3625 -0.0258
 2255TIP3   OH228323   3.088   3.475   8.111  0.2213  0.0495  0.1425
 2255TIP3    H128324   3.005   3.524   8.116 -1.1263 -2.1013  0.2609
 2255TIP3    H228325   3.131   3.492   8.195  1.3854  3.5098 -1.0061
 2256TIP3   OH228326   4.870   3.004   0.577 -0.5474 -0.0356 -0.0676
 2256TIP3    H128327   4.778   2.989   0.556 -0.4236 -0.9095 -0.0241
 2256TIP3    H228328   4.877   2.980   0.669 -0.7230  2.1303  0.5720
 2257TIP3   OH228329   6.408   5.405   7.479  0.0100 -0.5386 -0.5193
 2257TIP3    H128330   6.439   5.428   7.391 -0.3727 -3.1200 -1.4204
 2257TIP3    H228331   6.477   5.436   7.537 -0.1170  2.0013 -1.5779
 2258TIP3   OH228332   4.662   3.426   1.712 -0.5293 -0.1657  0.3478
 2258TIP3    H128333   4.689   3.367   1.642  1.0153  0.8497  0.0384
 2258TIP3    H228334   4.743   3.470   1.739 -1.2219  0.0539  2.2298
 2259TIP3   OH228335   5.795   0.443   8.039  0.2626  0.0339  0.1117
 2259TIP3    H128336   5.838   0.523   8.010  0.8863  0.2488  1.5085
 2259TIP3    H228337   5.722   0.431   7.979  0.2102  1.6130 -0.1830
 2260TIP3   OH228338   2.837   0.223   1.306 -0.3531  0.2563 -0.3426
 2260TIP3    H128339   2.856   0.270   1.225 -0.2931  1.1958  0.2130
 2260TIP3    H228340   2.757   0.173   1.287 -1.0339  1.4218 -0.6045
 2261TIP3   OH228341   4.945   4.287   0.858 -0.3599 -0.5927  0.2437
 2261TIP3    H128342   4.933   4.344   0.782  1.5872 -1.1620 -0.5670
 2261TIP3    H228343   5.030   4.246   0.843  0.1980 -0.5519  2.8548
 2262TIP3   OH228344   1.021   1.032   0.991 -0.2021 -0.0627 -0.4546
 2262TIP3    H128345   0.995   1.035   1.083 -0.4295 -2.0258 -0.3957
 2262TIP3    H228346   0.941   1.005   0.945  0.1445 -0.0204 -1.0913
 2263TIP3   OH228347   2.936   1.897   8.271  0.1400  0.4352 -0.2317
 2263TIP3    H128348   2.959   1.983   8.307 -0.1810  0.3333  0.2186
 2263TIP3    H228349   3.010   1.841   8.294 -0.0286  0.3895  0.1981
 2264TIP3   OH228350   6.826   5.651   0.559 -0.9984  0.0817  0.1045
 2264TIP3    H128351   6.858   5.695   0.637 -0.0423 -1.7280  0.7979
 2264TIP3    H228352   6.844   5.712   0.487  0.6725  0.6423  0.9542
 2265TIP3   OH228353   6.563   6.808   2.003  0.3363 -0.0922 -0.1186
 2265TIP3    H128354   6.570   6.845   2.091  1.2413 -0.4929 -0.0144
 2265TIP3    H228355   6.590   6.879   1.945  1.1230 -0.2728  0.0206
 2266TIP3   OH228356   5.628   6.594   1.069  0.1006 -0.5086  0.0569
 2266TIP3    H128357   5.615   6.665   1.132  0.0743 -0.8203  0.4045
 2266TIP3    H228358   5.563   6.528   1.093  1.6894 -1.6875  1.2398
 2267TIP3   OH228359   4.624   1.610   2.142  0.2674 -0.0512 -0.0873
 2267TIP3    H128360   4.635   1.609   2.047  0.4064  0.7307 -0.0828
 2267TIP3    H228361   4.666   1.691   2.170 -0.2841  0.0073  0.5791
 2268TIP3   OH228362   6.517   4.885   6.615 -0.5301 -0.0379 -0.5494
 2268TIP3    H128363   6.605   4.873   6.580 -0.2504  1.2704 -0.3471
 2268TIP3    H228364   6.516   4.976   6.647 -1.8405 -0.1398 -0.2467
 2269TIP3   OH228365   6.040   0.811   2.003 -0.6831 -0.0354 -0.4908
 2269TIP3    H128366   6.122   0.858   2.009 -1.3572  1.3431 -1.5421
 2269TIP3    H228367   6.034   0.762   2.085  0.2033  1.4731  0.5130
 2270TIP3   OH228368   0.573   0.524   1.860  0.4448 -0.8367 -0.5700
 2270TIP3    H128369   0.641   0.510   1.794  0.8283  1.2650 -0.7148
 2270TIP3    H228370   0.586   0.615   1.889 -1.0625 -1.0136  0.8491
 2271TIP3   OH228371   4.663   1.439   7.679  0.4172  0.5335 -1.0798
 2271TIP3    H128372   4.605   1.513   7.660  0.3957  0.1596 -2.6488
 2271TIP3    H228373   4.735   1.478   7.729  0.2500  1.5712 -1.6111
 2272TIP3   OH228374   3.000   1.976   7.257 -0.6808  0.1415  0.1227
 2272TIP3    H128375   3.012   1.980   7.162 -1.2716  2.4272  0.0886
 2272TIP3    H228376   3.076   2.021   7.293 -0.5080 -0.6333  0.7523
 2273TIP3   OH228377   5.869   0.086   6.553  0.0753  0.1893 -0.4802
 2273TIP3    H128378   5.804   0.150   6.582 -0.9573 -1.0675  0.1026
 2273TIP3    H228379   5.855   0.010   6.611 -0.4852 -1.5311 -2.7306
 2274TIP3   OH228380   2.915   0.053   1.721  0.0918 -0.3688 -0.4994
 2274TIP3    H128381   2.984   0.108   1.682  0.1093 -0.4579 -0.5957
 2274TIP3    H228382   2.945  -0.037   1.705 -0.3828 -0.4144 -1.1523
 2275TIP3   OH228383   0.119   6.351   8.214  0.2408 -0.1884 -0.1159
 2275TIP3    H128384   0.097   6.266   8.251  2.3649 -0.5580  0.3964
 2275TIP3    H228385   0.144   6.333   8.124  3.0141 -0.5434  0.6389
 2276TIP3   OH228386   2.077   3.939   1.873 -0.1716 -0.6373  0.1193
 2276TIP3    H128387   2.154   3.896   1.835 -0.9574 -3.3362  1.3465
 2276TIP3    H228388   2.088   3.929   1.967 -0.4132  2.0433  0.5201
 2277TIP3   OH228389   2.084   6.195   2.921 -0.1157  0.7258 -0.0788
 2277TIP3    H128390   2.139   6.245   2.980  1.2465  1.6674 -2.0420
 2277TIP3    H228391   2.005   6.249   2.910  0.1600  1.1310 -0.0743
 2278TIP3   OH228392   1.352   4.020   2.351  0.6274 -0.0244 -0.1383
 2278TIP3    H128393   1.388   4.105   2.378  1.9593 -0.6217  0.0594
 2278TIP3    H228394   1.341   3.971   2.433 -1.8871  0.5634 -0.0582
 2279TIP3   OH228395   3.366   4.413   8.371  0.0242 -0.6657 -0.2282
 2279TIP3    H128396   3.449   4.453   8.399 -0.7400 -0.3338  1.6718
 2279TIP3    H228397   3.346   4.456   8.289 -0.4101  2.4654  1.3856
 2280TIP3   OH228398   1.235   3.393   6.980  0.1674 -0.6543 -0.3980
 2280TIP3    H128399   1.326   3.380   7.006 -0.0392 -0.0576  0.6704
 2280TIP3    H228400   1.185   3.363   7.055 -0.5383 -1.2598 -1.0935
 2281TIP3   OH228401   0.311   5.556   2.283 -0.1155 -0.3108 -0.3378
 2281TIP3    H128402   0.274   5.593   2.364 -0.6771 -1.6144  0.0360
 2281TIP3    H228403   0.400   5.591   2.279 -0.9721  2.0801 -0.7039
 2282TIP3   OH228404   6.706   6.086   1.873 -0.4455  0.3150  0.0138
 2282TIP3    H128405   6.750   6.036   1.804  0.2833  0.5923  0.2677
 2282TIP3    H228406   6.686   6.021   1.940  1.5065  0.5216  0.8377
 2283TIP3   OH228407   6.616   0.600   2.274 -0.4978  0.1565 -0.0549
 2283TIP3    H128408   6.674   0.675   2.290  0.2364 -0.6908  1.4465
 2283TIP3    H228409   6.580   0.579   2.360 -1.3225 -0.7299 -0.5989
 2284TIP3   OH228410   6.652   2.189   7.684 -0.4988  0.0305 -0.3412
 2284TIP3    H128411   6.729   2.165   7.634 -0.9816 -1.6420 -0.3493
 2284TIP3    H228412   6.686   2.217   7.769  0.1638  0.3411 -0.7018
 2285TIP3   OH228413   1.620   5.235   0.180 -0.2978  0.3003 -0.2745
 2285TIP3    H128414   1.656   5.288   0.251 -1.4986  0.6076  0.1281
 2285TIP3    H228415   1.688   5.236   0.113 -0.2441  2.2988 -0.2513
 2286TIP3   OH228416   0.060   4.957   0.904  0.0666  0.5246  0.1121
 2286TIP3    H128417   0.130   4.895   0.887 -0.5800 -0.2880  0.3672
 2286TIP3    H228418  -0.014   4.926   0.851  0.2708  2.1206 -1.2204
 2287TIP3   OH228419   1.743   2.599   2.563 -0.4238 -0.0488 -0.5600
 2287TIP3    H128420   1.820   2.542   2.553 -1.1020 -0.7889 -1.8743
 2287TIP3    H228421   1.674   2.541   2.595 -0.1677  0.8667  1.8192
 2288TIP3   OH228422   1.849   2.874   6.940 -0.4128 -0.0220 -0.3920
 2288TIP3    H128423   1.820   2.789   6.973  0.3362 -0.3235 -0.4775
 2288TIP3    H228424   1.868   2.858   6.847 -0.4126  0.2784 -0.4461
 2289TIP3   OH228425   0.848   1.707   2.075  0.0903 -0.2518 -0.1036
 2289TIP3    H128426   0.870   1.631   2.130  0.0607 -0.9661 -1.0499
 2289TIP3    H228427   0.753   1.710   2.076 -0.0325  2.6570  3.7442
 2290TIP3   OH228428   3.609   5.686   0.406  0.0465 -0.1095 -0.0562
 2290TIP3    H128429   3.567   5.748   0.466  1.0694  0.2111  0.3500
 2290TIP3    H228430   3.703   5.705   0.414  0.3068 -1.1222 -0.5852
 2291TIP3   OH228431   4.518   3.469   7.430 -0.3824  0.1629  0.4456
 2291TIP3    H128432   4.537   3.417   7.508  0.3324  0.0098  0.1800
 2291TIP3    H228433   4.595   3.456   7.374 -0.9143  0.2153 -0.3083
 2292TIP3   OH228434   3.068   3.272   7.550 -0.3908  0.3248 -0.0509
 2292TIP3    H128435   2.998   3.330   7.519 -0.8915  0.9840  2.1908
 2292TIP3    H228436   3.094   3.308   7.635  1.8039 -0.6542 -0.2276
 2293TIP3   OH228437   6.018   4.370   0.357  0.4191  0.4223  0.5666
 2293TIP3    H128438   6.002   4.298   0.419 -0.8497  0.3089  0.1354
 2293TIP3    H228439   5.966   4.347   0.280  1.1616  1.0847 -0.1476
 2294TIP3   OH228440   3.730   4.215   8.132  0.1503  0.0320  0.2289
 2294TIP3    H128441   3.767   4.300   8.155 -0.9023  0.5128  0.2112
 2294TIP3    H228442   3.645   4.236   8.094 -1.5973 -1.1956  3.2035
 2295TIP3   OH228443   3.611   3.520   8.288  0.2322  0.4105 -0.6566
 2295TIP3    H128444   3.599   3.610   8.319  1.5064  0.1885  0.5587
 2295TIP3    H228445   3.701   3.518   8.255 -0.2524 -0.0602 -2.0353
 2296TIP3   OH228446   2.003   6.324   1.803 -0.1301 -0.1741  0.0731
 2296TIP3    H128447   1.923   6.314   1.855  0.0199  1.1028  0.5755
 2296TIP3    H228448   2.050   6.396   1.845  0.9322 -0.4246 -0.6665
 2297TIP3   OH228449   4.294   5.313   0.029 -0.0874  0.2745  0.3757
 2297TIP3    H128450   4.229   5.244   0.043  0.6805 -0.1580  2.0310
 2297TIP3    H228451   4.247   5.381  -0.019 -1.1689 -0.9176 -0.3063
 2298TIP3   OH228452   0.829   4.039   3.119 -0.2082  0.0790  0.0710
 2298TIP3    H128453   0.886   3.974   3.077 -0.0104 -0.4996  1.2043
 2298TIP3    H228454   0.886   4.083   3.182 -0.1856  1.7743 -1.0608
 2299TIP3   OH228455   2.753   1.326   2.366  0.4235 -0.0240  0.7565
 2299TIP3    H128456   2.750   1.374   2.449 -1.6117 -1.1639  1.4168
 2299TIP3    H228457   2.710   1.385   2.303 -0.4280 -0.1987  1.1495
 2300TIP3   OH228458   6.240   0.704   7.859  0.1746  0.0111  0.1110
 2300TIP3    H128459   6.297   0.729   7.932 -0.1994  0.0970  0.3756
 2300TIP3    H228460   6.263   0.765   7.789  1.9660 -1.3246 -0.5491
 2301TIP3   OH228461   6.406   3.040   1.210 -0.0667  0.4377 -0.1631
 2301TIP3    H128462   6.378   2.953   1.182 -2.7147  1.6594 -1.5953
 2301TIP3    H228463   6.325   3.089   1.224  1.3200  2.5134  1.2811
 2302TIP3   OH228464   0.609   0.100   2.607  0.0260 -0.1736  0.1122
 2302TIP3    H128465   0.569   0.185   2.627  0.2987 -0.3192  1.3442
 2302TIP3    H228466   0.697   0.105   2.645  0.6301 -0.4335 -1.2080
 2303TIP3   OH228467   1.137   4.782   7.020  0.7407  0.0571  0.0426
 2303TIP3    H128468   1.095   4.705   7.058 -1.4179  0.2973 -1.7040
 2303TIP3    H228469   1.117   4.853   7.082  0.1723 -0.2216  0.1844
 2304TIP3   OH228470   3.589   1.507   0.562 -0.2308 -0.1174  0.2828
 2304TIP3    H128471   3.607   1.594   0.525  0.0744  0.0614  0.8505
 2304TIP3    H228472   3.582   1.521   0.656  1.0934 -0.9080  0.5269
 2305TIP3   OH228473   0.456   1.190   7.049 -0.1265  0.3350 -0.3270
 2305TIP3    H128474   0.506   1.196   7.130  2.0251 -1.2886 -1.4079
 2305TIP3    H228475   0.419   1.102   7.050 -0.4515  0.4621 -0.8912
 2306TIP3   OH228476   2.748   4.514   6.991  0.3126  0.2032  0.7190
 2306TIP3    H128477   2.809   4.583   7.017 -0.0660  1.3346 -1.2388
 2306TIP3    H228478   2.676   4.521   7.054  0.2492  1.6470  0.5166
 2307TIP3   OH228479   6.887   3.269   1.248 -0.1985 -0.0495 -0.1569
 2307TIP3    H128480   6.938   3.234   1.320  0.2767  1.1173  0.0999
 2307TIP3    H228481   6.796   3.250   1.271  0.0537 -1.2457 -0.1237
 2308TIP3   OH228482   3.940   4.115   7.687  0.2286  0.1829  0.2687
 2308TIP3    H128483   3.896   4.192   7.725 -0.4737  0.5160 -1.1518
 2308TIP3    H228484   3.987   4.150   7.611  0.3173 -0.7074 -0.0968
 2309TIP3   OH228485   4.619   4.271   2.095 -0.4691 -0.1212  0.1172
 2309TIP3    H128486   4.546   4.299   2.149 -0.2425  1.0666 -0.1630
 2309TIP3    H228487   4.694   4.319   2.129 -0.0866 -0.2881 -0.4671
 2310TIP3   OH228488   4.469   5.891   7.410 -0.4688 -0.5879 -0.1094
 2310TIP3    H128489   4.563   5.887   7.391 -0.6598  0.9620 -1.6741
 2310TIP3    H228490   4.464   5.890   7.506  1.2330  0.4157  0.0303
 2311TIP3   OH228491   5.388   4.820   8.008 -0.1273 -0.1695  0.0930
 2311TIP3    H128492   5.360   4.884   8.073  2.0190  1.2371 -0.2455
 2311TIP3    H228493   5.457   4.770   8.053 -1.6913 -2.2560  0.3191
 2312TIP3   OH228494   0.697   2.793   8.250  0.6883 -0.0529 -0.0788
 2312TIP3    H128495   0.712   2.887   8.237 -1.5799  0.2489 -1.0401
 2312TIP3    H228496   0.636   2.788   8.323 -0.0825 -0.6817 -0.7452
 2313TIP3   OH228497   2.298   3.997   8.475 -0.1009  0.2400  0.0938
 2313TIP3    H128498   2.308   3.963   8.564  0.2807 -1.2083 -0.4606
 2313TIP3    H228499   2.213   4.040   8.475  0.4325  1.3808  1.4849
 2314TIP3   OH228500   6.110   2.429   2.504 -0.0298  0.3587  0.4328
 2314TIP3    H128501   6.131   2.335   2.503  0.9649  0.5281  1.8637
 2314TIP3    H228502   6.142   2.459   2.589 -0.3011  2.0172 -0.0229
 2315TIP3   OH228503   1.413   3.947   0.772  0.0833 -0.4326 -0.7024
 2315TIP3    H128504   1.487   3.887   0.763  0.3250 -0.1415 -0.6759
 2315TIP3    H228505   1.429   3.991   0.856 -0.9148 -1.4442  0.0445
 2316TIP3   OH228506   5.545   6.203   7.152 -0.3346  0.4339  0.1587
 2316TIP3    H128507   5.528   6.231   7.242 -0.6724 -1.0722  0.5965
 2316TIP3    H228508   5.587   6.118   7.162 -1.0005 -0.0651 -1.1294
 2317TIP3   OH228509   0.142   3.980   2.243 -0.6838 -0.0971  0.6109
 2317TIP3    H128510   0.085   4.057   2.250  2.0732  2.0737  1.0651
 2317TIP3    H228511   0.172   3.980   2.152  1.4052  1.1320  1.2055
 2318TIP3   OH228512   4.345   3.102   1.602 -0.0663  0.0355 -0.2619
 2318TIP3    H128513   4.319   3.097   1.511  0.2814 -0.4614 -0.3371
 2318TIP3    H228514   4.285   3.166   1.641 -0.2657  0.1886 -0.8159
 2319TIP3   OH228515   1.771   3.826   8.039  0.5532 -0.0991  0.1013
 2319TIP3    H128516   1.830   3.899   8.055  0.1083 -0.2356  2.7696
 2319TIP3    H228517   1.731   3.807   8.124  0.6900 -3.4857 -0.4274
 2320TIP3   OH228518   0.896   1.115   1.653  0.1524  0.7291 -0.0966
 2320TIP3    H128519   0.959   1.139   1.722 -2.0402  2.6354  1.3939
 2320TIP3    H228520   0.864   1.198   1.620 -1.7597 -0.1768 -0.6393
 2321TIP3   OH228521   2.292   4.407   2.328  0.9037  0.4363 -0.2201
 2321TIP3    H128522   2.328   4.479   2.276  0.9754 -0.2971 -1.1977
 2321TIP3    H228523   2.318   4.428   2.418  0.5648  1.8415 -0.4261
 2322TIP3   OH228524   2.063   2.897   0.274  0.1627  0.4928  0.3396
 2322TIP3    H128525   2.097   2.953   0.344  1.5101 -0.2144  0.2889
 2322TIP3    H228526   2.140   2.878   0.220 -0.5292 -0.3371 -0.3783
 2323TIP3   OH228527   2.409   1.318   0.755 -0.4232  0.0562 -0.2208
 2323TIP3    H128528   2.358   1.375   0.813 -0.2673 -0.5591  0.5328
 2323TIP3    H228529   2.498   1.320   0.791 -0.2313  0.0060 -0.6884
 2324TIP3   OH228530   2.067   6.394   7.586 -0.1110  0.4340  0.3145
 2324TIP3    H128531   2.162   6.384   7.588 -0.1195 -0.4415 -1.4337
 2324TIP3    H228532   2.052   6.478   7.544 -0.0271 -1.1667 -3.2907
 2325TIP3   OH228533   5.833   4.004   0.162 -0.3188 -0.1835 -0.3445
 2325TIP3    H128534   5.765   3.965   0.217 -0.6556  0.4709 -0.2947
 2325TIP3    H228535   5.885   3.929   0.132 -0.6558 -0.6231  0.1597
 2326TIP3   OH228536   5.748   4.878   0.921  0.3393  0.4377 -0.2649
 2326TIP3    H128537   5.728   4.784   0.917  3.7184 -0.5074  1.2422
 2326TIP3    H228538   5.682   4.919   0.865 -2.9929 -2.4707  1.1330
 2327TIP3   OH228539   5.032   4.495   6.379 -0.1505 -0.0297 -0.1564
 2327TIP3    H128540   5.085   4.415   6.384 -0.2586 -0.5317 -4.1207
 2327TIP3    H228541   5.094   4.563   6.355 -0.8642 -0.3203 -3.2596
 2328TIP3   OH228542   2.061   5.779   1.244 -0.3641 -0.4003 -0.7224
 2328TIP3    H128543   2.048   5.793   1.150  2.8043  1.9652 -0.9778
 2328TIP3    H228544   2.139   5.724   1.250  0.1714  0.4404  0.4886
 2329TIP3   OH228545   4.198   5.868   7.381 -0.0496  0.0626 -0.0413
 2329TIP3    H128546   4.203   5.774   7.399 -0.3780  0.2058  0.8379
 2329TIP3    H228547   4.286   5.901   7.400  0.1488 -0.1061 -0.6385
 2330TIP3   OH228548   3.241   5.424   0.533 -0.3552  0.2587  0.0005
 2330TIP3    H128549   3.175   5.485   0.567 -1.5782 -0.3307 -1.2164
 2330TIP3    H228550   3.300   5.479   0.482 -0.6965  0.6128 -0.0194
 2331TIP3   OH228551   0.603   4.739   7.650 -0.2491  0.6120 -0.4501
 2331TIP3    H128552   0.637   4.698   7.729 -0.8153  0.6322 -0.1957
 2331TIP3    H228553   0.509   4.746   7.664 -0.3027  0.9958 -0.9499
 2332TIP3   OH228554   2.904   6.629   0.901  0.4099 -0.2420 -0.1667
 2332TIP3    H128555   2.969   6.568   0.936  1.8963  1.5626  0.3767
 2332TIP3    H228556   2.876   6.590   0.818 -0.1877 -2.6052  1.0690
 2333TIP3   OH228557   3.592   4.268   1.385 -1.0517 -0.5249  0.4963
 2333TIP3    H128558   3.529   4.338   1.403  0.3822  1.6308 -2.1199
 2333TIP3    H228559   3.600   4.268   1.290  0.9621 -2.5334  0.6042
 2334TIP3   OH228560   2.808   1.847   7.824 -0.2903  0.1055 -0.1203
 2334TIP3    H128561   2.893   1.870   7.862  0.2198 -1.3525 -0.3148
 2334TIP3    H228562   2.747   1.854   7.897  0.4271 -1.2204  0.6427
 2335TIP3   OH228563   5.068   5.888   1.850 -0.3436  0.2090  0.3075
 2335TIP3    H128564   4.979   5.901   1.817  0.3277  1.1146 -1.2711
 2335TIP3    H228565   5.089   5.797   1.826 -0.0811  0.6753 -1.3583
 2336TIP3   OH228566   1.668   5.860   1.781  0.2512 -0.7817  0.0716
 2336TIP3    H128567   1.711   5.932   1.735 -1.8459  0.9118  0.5751
 2336TIP3    H228568   1.714   5.855   1.865 -0.1312  0.6626  0.4100
 2337TIP3   OH228569   1.587   2.256   8.052  0.2371 -0.3709  0.2380
 2337TIP3    H128570   1.569   2.334   8.104 -1.6090 -0.3598 -0.3639
 2337TIP3    H228571   1.509   2.244   7.997  1.3742 -1.3916 -1.2559
 2338TIP3   OH228572   0.618   5.342   7.745  0.0856  0.3409 -0.7666
 2338TIP3    H128573   0.618   5.250   7.771  2.6473  0.3546 -0.5033
 2338TIP3    H228574   0.586   5.342   7.655  0.0560 -0.8109 -0.7638
 2339TIP3   OH228575   0.664   2.785   0.900 -0.0613  0.4873 -0.1346
 2339TIP3    H128576   0.713   2.815   0.977  0.7864  1.3318 -0.9677
 2339TIP3    H228577   0.718   2.715   0.864 -0.4422  0.1135  0.0225
 2340TIP3   OH228578   4.772   5.868   8.498  0.1825 -0.5229  0.0977
 2340TIP3    H128579   4.868   5.875   8.490  0.1168 -0.6573 -0.8397
 2340TIP3    H228580   4.756   5.774   8.510  0.1382 -0.5572 -0.2182
 2341TIP3   OH228581   3.062   5.214   6.743 -0.0114 -0.2211 -0.0579
 2341TIP3    H128582   3.063   5.307   6.767  1.4657 -0.3075  0.3114
 2341TIP3    H228583   3.010   5.172   6.811 -1.0973  0.3954 -0.4933
 2342TIP3   OH228584   2.270   5.000   0.987 -0.1896 -0.1955  0.2646
 2342TIP3    H128585   2.182   4.975   0.959 -0.3079 -2.8419  2.6082
 2342TIP3    H228586   2.262   5.015   1.081  1.7491  0.1679  0.4209
 2343TIP3   OH228587   0.988   1.447   1.868  0.2238  0.1117  0.0021
 2343TIP3    H128588   0.943   1.363   1.862 -0.9571  0.6958  0.3785
 2343TIP3    H228589   0.990   1.479   1.778 -3.1162  1.5499  0.2753
 2344TIP3   OH228590   5.087   6.319   8.353 -0.1658 -0.3311  0.1423
 2344TIP3    H128591   5.123   6.298   8.440  1.6961 -0.1445 -0.5347
 2344TIP3    H228592   5.101   6.413   8.343  0.6460 -0.5390 -0.7819
 2345TIP3   OH228593   5.796   3.553   8.260  0.6653 -0.0027 -0.0282
 2345TIP3    H128594   5.703   3.566   8.242  0.9898  1.6162 -0.7095
 2345TIP3    H228595   5.822   3.481   8.203 -0.6433 -2.1453  1.8906
 2346TIP3   OH228596   0.776   3.252   0.854 -0.8501  0.1494 -0.1665
 2346TIP3    H128597   0.823   3.171   0.836 -0.6938  0.3883 -0.8544
 2346TIP3    H228598   0.796   3.309   0.780  0.0137  1.2535  0.8754
 2347TIP3   OH228599   6.872   5.430   7.179  0.2019 -0.0954 -0.0167
 2347TIP3    H128600   6.879   5.338   7.154 -0.4478 -0.0956 -0.2065
 2347TIP3    H228601   6.898   5.478   7.100  0.8996 -0.1137  0.1959
 2348TIP3   OH228602   4.085   3.843   8.232 -0.6124  0.2851  0.2040
 2348TIP3    H128603   3.992   3.868   8.224 -0.3737  1.6947  1.2954
 2348TIP3    H228604   4.084   3.767   8.291 -1.0070  1.1976  1.4233
 2349TIP3   OH228605   6.730   3.283   8.298  0.1272 -0.0855  0.3052
 2349TIP3    H128606   6.714   3.198   8.257 -1.9791  1.3784 -2.2689
 2349TIP3    H228607   6.815   3.311   8.264 -0.0296 -0.4026 -0.3757
 2350TIP3   OH228608   2.934   6.222   2.440 -1.2574  0.0973 -0.0213
 2350TIP3    H128609   2.963   6.209   2.350 -0.5146  0.1275  0.2111
 2350TIP3    H228610   2.882   6.144   2.460 -0.9755 -0.1614 -0.2993
 2351TIP3   OH228611   6.399   4.695   2.069 -0.6420 -0.4003 -0.2635
 2351TIP3    H128612   6.481   4.708   2.023  0.1514 -0.9488  0.9341
 2351TIP3    H228613   6.332   4.700   2.001  0.4682 -1.2279 -1.4686
 2352TIP3   OH228614   5.622   6.128   1.149  0.0143 -0.2722 -0.2042
 2352TIP3    H128615   5.648   6.037   1.162  2.0211  0.2264 -0.4441
 2352TIP3    H228616   5.680   6.178   1.206 -0.3380  0.9462 -0.8856
 2353TIP3   OH228617   2.622   4.869   7.810  0.1221 -0.0663  0.2063
 2353TIP3    H128618   2.606   4.916   7.728 -0.1788  0.2993  0.4662
 2353TIP3    H228619   2.714   4.887   7.830  0.6354 -1.4077 -0.8166
 2354TIP3   OH228620   5.471   4.530   1.950  0.0185 -0.9918 -0.1655
 2354TIP3    H128621   5.420   4.596   1.997  0.0792 -0.1001 -1.3113
 2354TIP3    H228622   5.411   4.457   1.939 -1.2162  0.2185 -1.8876
 2355TIP3   OH228623   4.350   3.609   0.964  0.0884  0.6551 -0.0630
 2355TIP3    H128624   4.366   3.697   0.930 -0.5291  1.3154  1.3003
 2355TIP3    H228625   4.311   3.623   1.050  0.3717 -0.9629  0.3579
 2356TIP3   OH228626   2.514   6.215   7.454 -0.3365 -0.1641 -0.0767
 2356TIP3    H128627   2.489   6.145   7.514  1.0153 -0.5627  0.0607
 2356TIP3    H228628   2.483   6.185   7.368  0.1484 -0.9063 -0.0035
 2357TIP3   OH228629   2.740   6.263   0.411 -0.0369  0.5825 -0.4901
 2357TIP3    H128630   2.673   6.196   0.400  1.0365 -0.3544 -1.6685
 2357TIP3    H228631   2.709   6.338   0.361  0.9469 -0.7590 -3.3030
 2358TIP3   OH228632   1.445   4.524   0.608 -0.3627 -0.2400 -0.3066
 2358TIP3    H128633   1.427   4.431   0.592  0.5706 -0.8437  1.8409
 2358TIP3    H228634   1.407   4.542   0.694  1.5838  0.7090  0.4074
 2359TIP3   OH228635   3.617   2.343   8.434  0.0254 -0.0789  0.1263
 2359TIP3    H128636   3.610   2.403   8.508  2.0132  1.8383 -1.1315
 2359TIP3    H228637   3.707   2.310   8.439 -0.0301 -0.4359 -1.0534
 2360TIP3   OH228638   0.665   6.226   1.785  0.0162  0.2026 -0.1378
 2360TIP3    H128639   0.610   6.258   1.857 -1.2167 -0.8560 -0.5683
 2360TIP3    H228640   0.604   6.215   1.712  0.6379 -1.7353 -0.4028
 2361TIP3   OH228641   1.770   1.525   6.836  0.2095 -0.1201 -0.0852
 2361TIP3    H128642   1.771   1.456   6.770  0.4101 -1.4992  1.2870
 2361TIP3    H228643   1.856   1.566   6.830  0.6157 -0.9297 -0.0163
 2362TIP3   OH228644   0.412   6.302   1.661 -0.0265  0.5684  0.1140
 2362TIP3    H128645   0.425   6.326   1.569  2.2880  0.7461  0.4356
 2362TIP3    H228646   0.404   6.385   1.707  1.7056  0.6017  0.4115
 2363TIP3   OH228647   0.061   1.450   0.411  0.3375  0.0261  0.5364
 2363TIP3    H128648   0.149   1.455   0.376  1.0596  0.2818  2.2788
 2363TIP3    H228649   0.060   1.370   0.464 -0.8166 -0.5413 -0.2906
 2364TIP3   OH228650   6.346   0.485   0.728  0.6165 -0.2106 -0.1123
 2364TIP3    H128651   6.351   0.513   0.819  1.1306  0.1651 -0.2513
 2364TIP3    H228652   6.277   0.539   0.690  0.4589 -0.3091  0.0314
 2365TIP3   OH228653   5.253   6.404   7.668 -0.3481 -0.1729  0.9213
 2365TIP3    H128654   5.263   6.453   7.750 -0.2131  1.4993 -0.0572
 2365TIP3    H228655   5.216   6.467   7.606  1.7154 -0.6978 -0.9651
 2366TIP3   OH228656   1.817   0.875   1.622  0.1280 -0.5454  0.3396
 2366TIP3    H128657   1.726   0.860   1.647 -0.1122  0.6855  0.2648
 2366TIP3    H228658   1.848   0.790   1.591 -1.2451 -0.7826 -0.4531
 2367TIP3   OH228659   0.648   4.543   2.121 -0.1318  0.6567 -0.7574
 2367TIP3    H128660   0.703   4.621   2.114 -1.6861  1.9549  0.5294
 2367TIP3    H228661   0.650   4.522   2.215 -0.6789 -0.1490 -0.9214
 2368TIP3   OH228662   5.861   0.199   1.161  0.3869 -0.2630  0.3554
 2368TIP3    H128663   5.766   0.203   1.154  0.3080 -1.3506  0.5950
 2368TIP3    H228664   5.885   0.279   1.207 -0.5877 -0.7667  1.8414
 2369TIP3   OH228665   1.319   1.363   0.037 -0.6481  0.1351 -0.3594
 2369TIP3    H128666   1.358   1.306  -0.029  0.3981  1.5618 -1.0298
 2369TIP3    H228667   1.227   1.371   0.012 -0.3012  0.5400 -1.5723
 2370TIP3   OH228668   6.597   6.477   2.516  0.2450 -1.0220 -0.4408
 2370TIP3    H128669   6.527   6.481   2.582 -0.1418  0.8886 -0.9110
 2370TIP3    H228670   6.678   6.473   2.567  0.1416  3.0116  0.3690
 2371TIP3   OH228671   3.667   2.235   1.829  0.6071  0.1529  0.2153
 2371TIP3    H128672   3.629   2.322   1.842 -1.4075 -0.3725 -1.6674
 2371TIP3    H228673   3.683   2.230   1.735  0.0435 -1.7653  0.1798
 2372TIP3   OH228674   4.319   1.210   6.978 -0.2712 -0.5044  0.3370
 2372TIP3    H128675   4.306   1.297   7.017 -0.7033 -0.2078 -0.4587
 2372TIP3    H228676   4.231   1.179   6.959 -0.0654 -0.6715 -0.3518
 2373TIP3   OH228677   0.339   2.061   1.285 -0.2941 -0.1738 -0.1238
 2373TIP3    H128678   0.264   2.117   1.270 -0.5718 -1.0117 -2.1796
 2373TIP3    H228679   0.344   2.006   1.207  0.5324 -2.3460  1.3613
 2374TIP3   OH228680   3.053   3.409   2.814  0.0107  0.0097  0.5870
 2374TIP3    H128681   3.013   3.455   2.740  1.6216  0.9933  0.2906
 2374TIP3    H228682   3.084   3.326   2.777 -0.5611 -0.1902  0.5358
 2375TIP3   OH228683   6.238   5.635   7.322  0.0325 -0.3711  0.5202
 2375TIP3    H128684   6.260   5.606   7.233  2.1419 -0.5976  1.0777
 2375TIP3    H228685   6.309   5.695   7.346 -0.6580 -0.0914  1.9658
 2376TIP3   OH228686   0.079   2.481   7.822 -0.2872  0.3079 -0.7140
 2376TIP3    H128687   0.165   2.523   7.833  0.1694 -1.0908  1.7373
 2376TIP3    H228688   0.024   2.523   7.889 -1.7080  1.4819 -2.5318
 2377TIP3   OH228689   5.686   3.183   0.142  0.1941 -0.1120 -0.0497
 2377TIP3    H128690   5.752   3.114   0.147 -1.5067 -1.7613  1.5087
 2377TIP3    H228691   5.657   3.182   0.051  1.6657  0.0248 -0.5374
 2378TIP3   OH228692   1.596   6.182   0.453  0.2448  0.2556  0.2520
 2378TIP3    H128693   1.501   6.166   0.456 -0.0977  2.2084  1.9418
 2378TIP3    H228694   1.629   6.144   0.534  1.0466 -0.8972 -0.5795
 2379TIP3   OH228695   0.336   2.595   7.431 -0.2762  0.0636  0.1526
 2379TIP3    H128696   0.348   2.560   7.343  2.0316 -0.6721  0.6794
 2379TIP3    H228697   0.268   2.662   7.422 -0.7888 -0.6640 -1.9710
 2380TIP3   OH228698   6.746   6.761   0.792  0.4232 -0.4090 -0.4305
 2380TIP3    H128699   6.675   6.720   0.744  0.5949 -0.2861 -0.7934
 2380TIP3    H228700   6.826   6.721   0.756  0.5523 -0.3157 -0.2501
 2381TIP3   OH228701   2.617   2.613   2.657  0.4208 -0.1249 -0.2686
 2381TIP3    H128702   2.675   2.552   2.611  0.8829 -0.2645  0.4885
 2381TIP3    H228703   2.670   2.646   2.729 -0.7577 -1.0043  1.0496
 2382TIP3   OH228704   2.307   2.413   2.812  0.1534  0.5489  0.1068
 2382TIP3    H128705   2.317   2.458   2.895  0.4767 -1.3675  1.1653
 2382TIP3    H228706   2.274   2.326   2.835 -1.9677  0.6993 -1.9587
 2383TIP3   OH228707   2.788   1.858   6.999 -0.5224 -0.5603 -0.2732
 2383TIP3    H128708   2.785   1.932   7.058  0.4226 -1.1988  0.6020
 2383TIP3    H228709   2.877   1.822   7.009  0.2468  0.2250 -3.2101
 2384TIP3   OH228710   1.218   1.508   2.993  0.2996  0.4297 -0.4534
 2384TIP3    H128711   1.259   1.593   2.981 -0.2910  0.8515  0.4123
 2384TIP3    H228712   1.132   1.528   3.031 -0.2028 -0.5007 -1.0436
 2385TIP3   OH228713   1.842   1.298   2.861 -0.2414 -0.7644 -0.5139
 2385TIP3    H128714   1.764   1.257   2.823 -0.6309 -2.2627  1.7257
 2385TIP3    H228715   1.822   1.308   2.954  1.8362 -0.1687 -0.0760
 2386TIP3   OH228716   1.881   2.543   1.068 -0.1030  0.9772  0.5641
 2386TIP3    H128717   1.796   2.573   1.098 -1.7250 -1.9287 -0.6756
 2386TIP3    H228718   1.922   2.504   1.145 -1.0136  0.2039  0.6828
 2387TIP3   OH228719   3.202   1.469   2.455 -0.0003 -0.7995  0.0826
 2387TIP3    H128720   3.123   1.458   2.401  0.0656 -2.5674  0.3126
 2387TIP3    H228721   3.169   1.468   2.545  0.2573 -1.4401  0.1753
 2388TIP3   OH228722   5.813   5.845   8.318  0.0719  0.3692  0.1310
 2388TIP3    H128723   5.875   5.791   8.268 -0.8315  0.3242 -0.9750
 2388TIP3    H228724   5.869   5.897   8.376  1.0030 -1.2873  0.7857
 2389TIP3   OH228725   1.895   5.805   1.450  0.5085  0.5524 -0.1317
 2389TIP3    H128726   1.957   5.851   1.507  0.6603 -0.4492  0.5358
 2389TIP3    H228727   1.945   5.789   1.370  1.2841 -0.5939  0.5418
 2390TIP3   OH228728   3.282   0.829   0.690  0.1261  0.3441 -0.0468
 2390TIP3    H128729   3.190   0.853   0.677 -0.3733 -1.4994 -0.1748
 2390TIP3    H228730   3.307   0.784   0.609  0.7687 -0.2136  0.4525
 2391TIP3   OH228731   6.524   1.593   0.272  0.1474 -0.2499  0.6874
 2391TIP3    H128732   6.609   1.550   0.266  0.8794  1.1099  1.0289
 2391TIP3    H228733   6.514   1.637   0.187 -0.1967 -0.3582  0.6713
 2392TIP3   OH228734   5.489   5.915   7.857 -0.1540  0.4251 -0.1222
 2392TIP3    H128735   5.405   5.941   7.819  0.1777 -0.2709 -1.4073
 2392TIP3    H228736   5.479   5.931   7.951 -1.6694  0.4932 -0.2612
 2393TIP3   OH228737   1.912   3.655   8.433 -0.3579  0.0064  0.4399
 2393TIP3    H128738   1.881   3.644   8.343  0.5383  1.9193 -0.1808
 2393TIP3    H228739   1.833   3.657   8.486 -1.0697  1.0525 -0.6119
 2394TIP3   OH228740   4.592   3.546   1.294  0.2329 -0.4972 -0.3587
 2394TIP3    H128741   4.632   3.589   1.369  0.0449 -0.2969 -0.3735
 2394TIP3    H228742   4.501   3.532   1.319 -0.5274  1.8957 -1.5039
 2395TIP3   OH228743   2.793   6.684   1.950 -0.1755  0.0057 -0.0884
 2395TIP3    H128744   2.744   6.762   1.924  0.4360  0.0645 -1.1124
 2395TIP3    H228745   2.780   6.678   2.045 -0.2170  1.3707  0.0100
 2396TIP3   OH228746   5.788   6.764   8.062 -0.3525 -0.3099  0.1476
 2396TIP3    H128747   5.731   6.708   8.010  0.5815 -0.3008 -0.9379
 2396TIP3    H228748   5.833   6.818   7.997 -1.1717  1.6696  1.1543
 2397TIP3   OH228749   1.875   3.930   1.703 -0.0932  0.1085 -0.3130
 2397TIP3    H128750   1.827   3.989   1.761  0.4400 -0.2850  0.5537
 2397TIP3    H228751   1.952   3.904   1.754  0.5221 -0.0522 -1.2932
 2398TIP3   OH228752   0.821   3.122   1.940  0.5045  0.0291  0.6778
 2398TIP3    H128753   0.786   3.112   1.851 -2.4897 -0.0630  1.7676
 2398TIP3    H228754   0.795   3.210   1.967  1.5946  0.1464  1.3963
 2399TIP3   OH228755   4.865   5.389   0.763  0.5674  0.5839 -0.1475
 2399TIP3    H128756   4.770   5.389   0.779  0.5231  0.1621 -0.3673
 2399TIP3    H228757   4.874   5.346   0.678  0.9710  0.4204 -0.0258
 2400TIP3   OH228758   0.620   2.014   8.546 -0.0012 -0.1627  0.3065
 2400TIP3    H128759   0.710   2.020   8.515 -0.0080 -1.0355  0.1036
 2400TIP3    H228760   0.621   1.946   8.612 -0.1650  1.0901  1.6542
 2401TIP3   OH228761   3.240   6.335   7.868  0.4251 -0.0282 -0.9864
 2401TIP3    H128762   3.307   6.326   7.800 -0.0024 -1.2409 -1.2679
 2401TIP3    H228763   3.289   6.353   7.948  0.9003  2.3422 -1.7163
 2402TIP3   OH228764   5.016   3.139   7.647  0.1127  0.4068  0.2025
 2402TIP3    H128765   4.949   3.186   7.597  0.7798  1.7938  0.5494
 2402TIP3    H228766   5.075   3.103   7.582 -0.5631 -0.2085 -0.0810
 2403TIP3   OH228767   2.669   1.103   0.288 -0.0699  0.2228 -0.2939
 2403TIP3    H128768   2.725   1.046   0.236 -0.8446  0.4210 -1.3723
 2403TIP3    H228769   2.600   1.131   0.228 -1.0987  0.3153  0.8907
 2404TIP3   OH228770   0.605   2.210   1.508 -0.1898 -0.1014  0.1028
 2404TIP3    H128771   0.524   2.233   1.460 -1.3601 -1.2677  1.4403
 2404TIP3    H228772   0.642   2.137   1.459  0.5346  0.9530 -0.9803
 2405TIP3   OH228773   0.529   4.382   0.015  0.1397  0.3963 -0.5323
 2405TIP3    H128774   0.546   4.347  -0.073  0.9995 -2.3746  0.6423
 2405TIP3    H228775   0.443   4.422   0.008 -1.2662 -2.5557 -1.9613
 2406TIP3   OH228776   0.763   0.638   7.227  0.2407  0.2623  0.1280
 2406TIP3    H128777   0.751   0.713   7.285 -1.0031  0.7470 -0.7064
 2406TIP3    H228778   0.683   0.585   7.240  0.7565 -0.5293  0.1420
 2407TIP3   OH228779   0.761   2.288   0.792 -0.3057 -0.5514  0.1194
 2407TIP3    H128780   0.833   2.246   0.839 -0.8731 -1.4239  0.2264
 2407TIP3    H228781   0.682   2.251   0.830 -1.0463  2.9929  2.5736
 2408TIP3   OH228782   1.909   4.113   1.013 -0.0271 -0.1288 -0.0298
 2408TIP3    H128783   1.952   4.089   0.930  1.3452  0.1897  0.5515
 2408TIP3    H228784   1.954   4.193   1.040 -3.1039  2.0724 -0.9078
 2409TIP3   OH228785   5.598   4.977   7.051  0.0248 -0.0375 -0.4852
 2409TIP3    H128786   5.556   4.908   7.000 -0.4661  1.3456 -2.0512
 2409TIP3    H228787   5.689   4.978   7.021 -0.0690  0.2388 -0.7753
 2410TIP3   OH228788   6.690   1.242   0.601  0.2473  0.0933 -0.6641
 2410TIP3    H128789   6.772   1.211   0.562  0.8060  1.1468 -0.3505
 2410TIP3    H228790   6.625   1.230   0.531  0.4796 -1.4980 -0.6498
 2411TIP3   OH228791   6.571   2.300   1.854  0.2393  0.1956 -0.3191
 2411TIP3    H128792   6.509   2.245   1.902 -0.0286  1.5874  0.9838
 2411TIP3    H228793   6.518   2.370   1.817  0.9547  1.1560  0.4356
 2412TIP3   OH228794   0.377   1.567   1.820 -0.0504  0.1727 -0.4543
 2412TIP3    H128795   0.355   1.608   1.903 -1.5031  0.4532 -0.9508
 2412TIP3    H228796   0.292   1.543   1.782  0.6636 -2.2843 -0.6992
 2413TIP3   OH228797   1.804   5.324   0.431  0.0766 -0.4568 -0.1445
 2413TIP3    H128798   1.892   5.356   0.413  0.5859 -2.6675 -2.0470
 2413TIP3    H228799   1.789   5.347   0.523  1.4646  2.4280 -0.5121
 2414TIP3   OH228800   1.581   0.975   8.323  0.4438 -0.1733 -0.4883
 2414TIP3    H128801   1.654   1.025   8.360  0.5034 -0.0185 -0.8130
 2414TIP3    H228802   1.603   0.884   8.342  0.0512 -0.0511  0.6252
 2415TIP3   OH228803   6.560   4.311   2.045  0.4753  0.2425 -0.1976
 2415TIP3    H128804   6.619   4.349   1.980  1.6831 -0.3977  0.4784
 2415TIP3    H228805   6.475   4.305   2.001  0.9854  0.9177 -1.2977
 2416TIP3   OH228806   1.732   5.293   0.703 -0.0092 -0.1953  0.2827
 2416TIP3    H128807   1.775   5.252   0.779  0.2845 -1.7069 -0.6469
 2416TIP3    H228808   1.703   5.219   0.649  0.1993  0.8231 -1.3091
 2417TIP3   OH228809   2.909   5.819   1.157  0.1697 -0.1794 -0.2646
 2417TIP3    H128810   2.998   5.851   1.169  0.1953 -0.3199 -0.0794
 2417TIP3    H228811   2.855   5.898   1.156  0.5465  0.1387 -2.9008
 2418TIP3   OH228812   0.967   1.845   8.420 -0.0381  0.8142 -0.5209
 2418TIP3    H128813   0.959   1.822   8.327 -0.0193  2.6069 -1.0108
 2418TIP3    H228814   1.057   1.821   8.442 -0.2101 -0.1315 -0.7988
 2419TIP3   OH228815   0.630   4.927   2.166  0.3229 -0.3137 -0.1990
 2419TIP3    H128816   0.668   4.978   2.238  1.6332 -1.5302  0.0148
 2419TIP3    H228817   0.536   4.945   2.171  0.6311  1.2657  0.4905
 2420TIP3   OH228818   0.540   2.006   6.930 -0.1397  0.0659  0.1167
 2420TIP3    H128819   0.497   2.072   6.875  0.1818  0.5517  0.4394
 2420TIP3    H228820   0.514   1.922   6.891 -2.1075  0.2829  0.8142
 2421TIP3   OH228821   0.719   3.346   8.469  0.0451 -0.1472  0.6484
 2421TIP3    H128822   0.686   3.262   8.503  2.3640 -1.3805  0.0465
 2421TIP3    H228823   0.694   3.346   8.376 -2.6632  1.3468  1.2521
 2422TIP3   OH228824   3.762   2.814   2.353  0.2415  0.2761  0.6059
 2422TIP3    H128825   3.800   2.854   2.431  2.4998  0.0109 -0.2981
 2422TIP3    H228826   3.773   2.720   2.367 -1.8769  0.0462  1.1458
 2423TIP3   OH228827   4.129   2.020   8.260  0.2321 -0.0602  0.4647
 2423TIP3    H128828   4.151   2.033   8.352 -1.1550  2.1012  0.5625
 2423TIP3    H228829   4.048   1.968   8.263  0.1372  0.0879  0.4683
 2424TIP3   OH228830   5.838   2.064   2.074  0.5571  0.3837 -0.1271
 2424TIP3    H128831   5.879   2.112   2.147  1.7393 -1.6582  0.6447
 2424TIP3    H228832   5.783   1.998   2.116  1.6891 -1.1979 -0.9968
 2425TIP3   OH228833   0.793   6.061   0.910 -0.0702 -0.1070 -0.3246
 2425TIP3    H128834   0.865   6.110   0.952  0.8168 -1.3652 -0.3294
 2425TIP3    H228835   0.747   6.020   0.983  0.9637 -1.6137 -0.4866
 2426TIP3   OH228836   2.675   4.154   7.112  0.0156 -0.3512 -0.5415
 2426TIP3    H128837   2.605   4.137   7.049 -2.0920 -0.5011  1.6930
 2426TIP3    H228838   2.687   4.249   7.110 -2.5209  0.1334  1.1222
 2427TIP3   OH228839   4.600   1.609   8.497  0.5773  0.3518 -0.1990
 2427TIP3    H128840   4.514   1.651   8.495 -0.5057 -1.7225 -0.6441
 2427TIP3    H228841   4.650   1.659   8.562 -2.0427 -0.2820  2.5649
 2428TIP3   OH228842   0.408   0.463   1.640  0.1367  0.2973  0.1323
 2428TIP3    H128843   0.444   0.376   1.659  2.1835  0.8252 -0.9610
 2428TIP3    H228844   0.448   0.520   1.706  0.4816  0.7240 -0.4347
 2429TIP3   OH228845   0.013   6.722   7.772 -0.2979  0.4726 -0.0569
 2429TIP3    H128846  -0.028   6.753   7.853 -0.7987 -0.5093  0.0884
 2429TIP3    H228847   0.099   6.762   7.772 -0.4497  0.8290  0.7550
 2430TIP3   OH228848   0.086   1.133   2.638  0.1012  0.2959 -0.1173
 2430TIP3    H128849   0.037   1.202   2.683  0.4159  0.7380 -0.4354
 2430TIP3    H228850   0.102   1.066   2.705 -2.7354 -0.8569 -0.4816
 2431TIP3   OH228851   3.133   3.022   6.949 -0.6903  0.5185 -0.1718
 2431TIP3    H128852   3.182   2.943   6.927  0.7355  1.0398  0.9748
 2431TIP3    H228853   3.043   3.002   6.923 -0.0574 -0.8267 -1.4581
 2432TIP3   OH228854   1.453   1.206   0.821  0.0871  1.0263  0.1251
 2432TIP3    H128855   1.398   1.225   0.897 -0.7640  0.6910 -0.4062
 2432TIP3    H228856   1.494   1.122   0.843  1.5239  1.9436  1.1430
 2433TIP3   OH228857   4.142   6.043   0.918 -0.9785  0.7159 -0.2029
 2433TIP3    H128858   4.176   6.116   0.968 -0.5094 -1.4935  3.0004
 2433TIP3    H228859   4.171   5.965   0.966 -0.8488 -1.6663 -3.7625
 2434TIP3   OH228860   1.931   3.500   1.554  0.1001  0.2771  0.1983
 2434TIP3    H128861   1.925   3.418   1.505 -0.3038  1.0247 -1.0258
 2434TIP3    H228862   1.861   3.494   1.619  0.3951 -0.5507  0.4597
 2435TIP3   OH228863   3.319   2.773   1.939 -0.2943  0.0679  0.0181
 2435TIP3    H128864   3.374   2.851   1.936 -1.6803  1.0626 -0.7046
 2435TIP3    H228865   3.286   2.770   2.029 -1.3362  1.1385 -0.3091
 2436TIP3   OH228866   5.637   3.494   7.824 -0.3833  0.1260 -0.5508
 2436TIP3    H128867   5.588   3.454   7.752 -1.5052 -0.5758  0.5697
 2436TIP3    H228868   5.698   3.426   7.852 -0.4798  0.1237 -0.3441
 2437TIP3   OH228869   2.889   5.545   1.689  1.1850  0.3474 -0.2477
 2437TIP3    H128870   2.912   5.513   1.602 -0.0285  0.3975 -0.6081
 2437TIP3    H228871   2.879   5.639   1.679 -2.9955 -0.0116 -1.1145
 2438TIP3   OH228872   1.265   3.276   8.428 -0.0954 -0.0332  0.1667
 2438TIP3    H128873   1.317   3.356   8.433 -0.3251  0.0753  0.8817
 2438TIP3    H228874   1.221   3.270   8.513  1.7954 -2.2032  1.0908
 2439TIP3   OH228875   2.554   4.043   0.159  0.0798 -0.0989 -0.1918
 2439TIP3    H128876   2.530   4.101   0.087 -1.9741 -0.4746  0.1229
 2439TIP3    H228877   2.474   4.034   0.211  0.4535 -2.7528  0.0945
 2440TIP3   OH228878   0.075   4.304   1.631  0.1159 -0.1303  0.1620
 2440TIP3    H128879   0.138   4.282   1.563  1.4114  0.9379  0.9683
 2440TIP3    H228880   0.042   4.390   1.606  0.3218  0.1033  0.6955
 2441TIP3   OH228881   1.936   4.796   1.295 -0.0453  0.2311  0.0140
 2441TIP3    H128882   1.958   4.738   1.222 -1.0306  1.4570 -1.3100
 2441TIP3    H228883   1.848   4.770   1.321 -0.6693  1.3676 -0.8741
 2442TIP3   OH228884   0.005   2.773   8.130 -0.2245  0.2076 -0.4512
 2442TIP3    H128885  -0.074   2.727   8.161 -0.1947 -0.0997 -0.8199
 2442TIP3    H228886   0.010   2.751   8.037 -0.5388  1.4395 -0.7803
 2443TIP3   OH228887   1.892   4.395   2.236  0.4302  0.1236 -0.0862
 2443TIP3    H128888   1.874   4.482   2.270  0.1394 -0.2674  0.8086
 2443TIP3    H228889   1.909   4.342   2.315  2.2734 -0.2514 -0.7001
 2444TIP3   OH228890   4.766   2.190   7.733 -0.5799  0.2275 -0.5000
 2444TIP3    H128891   4.821   2.126   7.686 -2.2490 -1.1098 -0.7188
 2444TIP3    H228892   4.829   2.248   7.776  1.0139 -1.4224 -0.4785
 2445TIP3   OH228893   2.680   4.855   0.563  0.2840 -0.1615  0.1040
 2445TIP3    H128894   2.589   4.825   0.558  0.9549 -2.3046 -0.1916
 2445TIP3    H228895   2.701   4.884   0.474 -0.2823  0.9367  0.3175
 2446TIP3   OH228896   0.608   6.468   8.043  0.4196  0.0165  0.7020
 2446TIP3    H128897   0.577   6.494   7.957 -0.7452 -0.7168  0.8845
 2446TIP3    H228898   0.641   6.379   8.031  0.2767 -0.0782  1.0034
 2447TIP3   OH228899   3.837   4.858   1.206 -0.7367 -0.7579 -0.0185
 2447TIP3    H128900   3.792   4.781   1.239 -3.2205  0.5386 -0.1851
 2447TIP3    H228901   3.884   4.893   1.282 -0.1745 -1.9765  0.2241
 2448TIP3   OH228902   6.653   2.230   8.176 -0.1259 -0.0834 -0.1339
 2448TIP3    H128903   6.596   2.263   8.246  0.6696  0.2467  0.3705
 2448TIP3    H228904   6.609   2.150   8.145  0.4747 -1.3891  2.1274
 2449TIP3   OH228905   3.003   4.011   1.330 -0.8308 -0.1872  0.1361
 2449TIP3    H128906   2.957   3.937   1.368 -2.6344 -0.1541 -1.7626
 2449TIP3    H228907   3.020   3.984   1.239 -1.1310  1.5099 -0.4650
 2450TIP3   OH228908   4.268   0.265   0.263 -0.4974  0.1698 -0.0258
 2450TIP3    H128909   4.230   0.353   0.267  1.9828  1.4861 -2.1148
 2450TIP3    H228910   4.297   0.256   0.172 -0.0237 -2.5577  0.3254
 2451TIP3   OH228911   1.524   5.033   0.861 -0.1648  0.6610  0.6250
 2451TIP3    H128912   1.607   4.984   0.861  0.4041  1.4872 -1.4889
 2451TIP3    H228913   1.463   4.976   0.908  1.1028 -0.9159  0.4700
 2452TIP3   OH228914   1.598   6.658   1.786  0.4373  0.3611 -0.2479
 2452TIP3    H128915   1.651   6.720   1.737 -2.5020  2.4672 -1.0561
 2452TIP3    H228916   1.584   6.699   1.871 -1.6073  0.9489 -0.8181
 2453TIP3   OH228917   2.801   2.871   7.495 -0.2881 -0.1382 -0.6061
 2453TIP3    H128918   2.787   2.891   7.588 -0.5250 -0.6113 -0.5384
 2453TIP3    H228919   2.808   2.957   7.453  0.7558  0.0731 -0.0185
 2454TIP3   OH228920   4.397   1.663   0.216 -0.5815 -0.5736  0.3236
 2454TIP3    H128921   4.442   1.745   0.196 -2.4149  0.1434 -1.2163
 2454TIP3    H228922   4.446   1.625   0.289 -0.5132  2.5755  2.0681
 2455TIP3   OH228923   2.339   6.404   0.710 -0.0758  0.5312 -0.0855
 2455TIP3    H128924   2.332   6.452   0.628  1.7334 -1.5666 -1.5611
 2455TIP3    H228925   2.312   6.314   0.688  0.8104 -0.1668  1.5090
 2456TIP3   OH228926   0.088   0.190   0.834 -0.1261  0.3279 -0.2144
 2456TIP3    H128927   0.013   0.152   0.879 -0.2724  1.1304  0.2388
 2456TIP3    H228928   0.110   0.268   0.885  2.5416 -1.1562  1.0753
 2457TIP3   OH228929   3.818   2.846   0.978 -0.1582  0.1472  0.2889
 2457TIP3    H128930   3.910   2.821   0.983 -0.1740  0.2136  0.9824
 2457TIP3    H228931   3.815   2.935   1.012 -0.0429  1.3364 -2.5445
 2458TIP3   OH228932   6.594   3.759   2.625  0.1264 -0.5374  0.2160
 2458TIP3    H128933   6.682   3.755   2.588 -0.4946 -2.3292 -1.1827
 2458TIP3    H228934   6.602   3.717   2.711  1.0939  1.5684  1.2364
 2459TIP3   OH228935   0.411   1.524   8.497  0.0252 -0.2958  0.3751
 2459TIP3    H128936   0.404   1.520   8.402  0.6084  1.7405  0.2037
 2459TIP3    H228937   0.506   1.529   8.514 -0.1006  0.2049  1.0022
 2460TIP3   OH228938   1.917   2.440   8.026 -0.5261  0.1894 -0.0078
 2460TIP3    H128939   1.967   2.403   8.098  0.9349  0.8456 -0.6438
 2460TIP3    H228940   1.865   2.509   8.066 -1.3246 -0.8104  0.7436
 2461TIP3   OH228941   1.419   4.869   0.058  0.3047 -0.2909 -0.0461
 2461TIP3    H128942   1.489   4.895   0.118  0.0552  1.0182 -0.3115
 2461TIP3    H228943   1.355   4.939   0.064 -1.5909 -2.0194  1.0988
 2462TIP3   OH228944   4.480   0.324   6.673 -0.0989 -0.1067  0.4725
 2462TIP3    H128945   4.420   0.283   6.736  0.2211 -1.0511  0.1766
 2462TIP3    H228946   4.567   0.298   6.703  0.1736  1.1386  0.8177
 2463TIP3   OH228947   0.666   5.046   7.761  0.3118 -0.5432 -0.0831
 2463TIP3    H128948   0.644   4.984   7.831 -0.7862  1.8543  1.8513
 2463TIP3    H228949   0.761   5.037   7.750  0.9764  0.5199  3.4513
 2464TIP3   OH228950   6.382   2.653   1.597  0.1552 -0.0488 -0.6152
 2464TIP3    H128951   6.339   2.569   1.580 -0.7251  0.1929  0.3021
 2464TIP3    H228952   6.312   2.708   1.633  0.9621  0.7587 -0.2558
 2465TIP3   OH228953   4.950   1.217   0.189  0.5781  0.3814  0.5071
 2465TIP3    H128954   4.954   1.258   0.275  0.9931  0.3275  0.5128
 2465TIP3    H228955   5.005   1.139   0.197 -0.1784 -0.1682  0.4905
 2466TIP3   OH228956   6.585   0.324   0.696  0.3584 -0.0927 -0.2471
 2466TIP3    H128957   6.492   0.347   0.703 -0.0008 -1.6951  0.5730
 2466TIP3    H228958   6.620   0.337   0.784  0.3359 -1.7781  0.0351
 2467TIP3   OH228959   4.451   5.419   0.975  0.8681 -0.0099 -0.0229
 2467TIP3    H128960   4.392   5.495   0.979  2.1129  0.9746  0.2082
 2467TIP3    H228961   4.466   5.397   1.067  1.2854  0.0950 -0.0643
 2468TIP3   OH228962   2.494   6.327   1.346  0.4548 -0.2532  0.1439
 2468TIP3    H128963   2.492   6.393   1.415 -1.6509 -0.4462  0.3129
 2468TIP3    H228964   2.471   6.245   1.390 -0.7030 -0.4128 -0.7157
 2469TIP3   OH228965   1.232   1.184   8.312 -0.5842  0.5905 -0.3903
 2469TIP3    H128966   1.268   1.108   8.357  2.0036  1.5921 -0.6098
 2469TIP3    H228967   1.245   1.166   8.219 -0.0751  1.2224 -0.4501
 2470TIP3   OH228968   6.243   5.444   0.303  0.2813 -0.1822 -0.0248
 2470TIP3    H128969   6.208   5.521   0.258 -0.6890 -0.7966 -0.3604
 2470TIP3    H228970   6.213   5.370   0.251  2.2739 -0.7540 -0.4295
 2471TIP3   OH228971   1.120   6.087   2.900 -0.2160  0.1298  0.1642
 2471TIP3    H128972   1.118   6.056   2.991  1.6171  1.1200  0.5855
 2471TIP3    H228973   1.131   6.182   2.908  4.4388 -0.0772 -0.9521
 2472TIP3   OH228974   5.862   1.067   0.393  0.3135  0.3787 -0.3525
 2472TIP3    H128975   5.851   1.063   0.298  1.6588 -1.1846 -0.4947
 2472TIP3    H228976   5.952   1.038   0.408 -0.1790 -0.3801  1.4639
 2473TIP3   OH228977   4.885   1.144   1.736 -0.1657 -0.4878 -0.5060
 2473TIP3    H128978   4.904   1.201   1.811 -0.8744 -0.5087 -0.2981
 2473TIP3    H228979   4.846   1.066   1.775  0.4410 -0.9569 -0.8202
 2474TIP3   OH228980   2.449   1.335   0.442  0.2892  0.2539 -0.1262
 2474TIP3    H128981   2.537   1.298   0.453 -1.3735 -3.9666  1.0670
 2474TIP3    H228982   2.415   1.340   0.532 -2.1931 -2.7739 -0.7560
 2475TIP3   OH228983   6.783   3.667   7.617 -0.2037 -0.7661  0.3057
 2475TIP3    H128984   6.850   3.734   7.634  0.5829 -1.1369 -1.1562
 2475TIP3    H228985   6.765   3.674   7.523 -0.3481 -2.3800  0.1839
 2476TIP3   OH228986   1.908   1.844   0.961  0.0929  0.4688  0.0736
 2476TIP3    H128987   1.885   1.856   1.053 -0.1376  2.8475 -0.2470
 2476TIP3    H228988   1.855   1.769   0.933  1.0180 -1.0678  2.1148
 2477TIP3   OH228989   4.565   2.119   0.696  0.4268  0.2420  0.0008
 2477TIP3    H128990   4.575   2.025   0.678  3.5894  0.0097  2.1046
 2477TIP3    H228991   4.629   2.161   0.637  1.4266  0.6787  1.3415
 2478TIP3   OH228992   6.414   2.477   8.169  0.1323  0.2366 -0.0039
 2478TIP3    H128993   6.364   2.502   8.247 -0.2641  0.0667 -0.1969
 2478TIP3    H228994   6.420   2.382   8.174  1.0262  0.3045  0.3655
 2479TIP3   OH228995   4.000   4.591   1.332  0.2143  0.1591 -0.2196
 2479TIP3    H128996   3.910   4.559   1.321  0.6696 -1.6618  0.8282
 2479TIP3    H228997   4.046   4.560   1.254  0.0242  0.7722 -0.5796
 2480TIP3   OH228998   4.238   4.113   0.838 -0.0174 -0.2748 -0.8008
 2480TIP3    H128999   4.302   4.119   0.909 -1.0324  1.8292  0.0467
 2480TIP3    H229000   4.153   4.112   0.883 -0.6445 -1.6503 -1.9293
 2481TIP3   OH229001   0.724   2.545   0.626 -0.0151  0.1677  0.0761
 2481TIP3    H129002   0.630   2.530   0.630 -0.0609  0.6847  1.5096
 2481TIP3    H229003   0.761   2.489   0.694  0.6157  0.5935  0.0988
 2482TIP3   OH229004   2.809   5.593   0.037  0.1019 -0.3738 -0.0999
 2482TIP3    H129005   2.825   5.547   0.119  2.4757 -0.1498 -0.3840
 2482TIP3    H229006   2.729   5.644   0.053 -1.4840 -2.9470  0.8643
 2483TIP3   OH229007   5.395   6.058   2.872 -0.2932  0.1083 -0.4517
 2483TIP3    H129008   5.388   5.965   2.896 -0.6800  0.4149  0.6831
 2483TIP3    H229009   5.475   6.088   2.916 -1.4897  0.8996  1.3037
 2484TIP3   OH229010   5.589   5.717   0.244 -0.0027  0.3179 -0.6119
 2484TIP3    H129011   5.542   5.639   0.273 -2.9633  2.4076  0.8366
 2484TIP3    H229012   5.634   5.748   0.323 -0.3074  0.9919 -0.6981
 2485TIP3   OH229013   3.052   6.112   1.945  0.1501 -0.5853 -0.0182
 2485TIP3    H129014   2.962   6.094   1.972  0.0927 -0.9102 -0.4213
 2485TIP3    H229015   3.082   6.180   2.006 -0.8516  0.5793 -0.7697
 2486TIP3   OH229016   4.618   5.696   3.059 -0.3849  0.2922  0.3146
 2486TIP3    H129017   4.590   5.678   3.149 -0.8846 -1.6572 -0.1853
 2486TIP3    H229018   4.697   5.749   3.069  1.5258 -2.5802  2.0667
 2487TIP3   OH229019   1.451   3.889   8.512 -0.2413 -0.5143 -0.1491
 2487TIP3    H129020   1.496   3.809   8.540  0.2501 -0.7279 -1.5008
 2487TIP3    H229021   1.358   3.868   8.519 -0.1473 -0.5957  1.1630
 2488TIP3   OH229022   5.461   3.981   7.375  0.3681 -0.6166 -0.1713
 2488TIP3    H129023   5.374   3.968   7.412  1.2401 -1.6689  1.6835
 2488TIP3    H229024   5.447   4.031   7.295 -1.7731  0.9679  1.0933
 2489TIP3   OH229025   6.761   6.751   0.170 -0.4261 -0.3774  0.1948
 2489TIP3    H129026   6.711   6.671   0.153  0.0320 -0.3575 -1.4506
 2489TIP3    H229027   6.749   6.803   0.091 -0.0009  0.8050  0.8916
 2490TIP3   OH229028   2.960   2.104   7.025 -1.0217  0.3045 -0.1987
 2490TIP3    H129029   2.919   2.184   7.060 -0.5376  0.7160 -0.5486
 2490TIP3    H229030   2.994   2.131   6.939 -0.3377 -0.1183 -0.0663
 2491TIP3   OH229031   0.706   6.904   6.891  0.3824  0.2309 -0.4870
 2491TIP3    H129032   0.761   6.949   6.827  0.4785 -0.1678 -0.6912
 2491TIP3    H229033   0.755   6.910   6.973  0.1283  0.9876 -0.3838
 2492TIP3   OH229034   1.950   4.778   0.344  0.4460  0.0096  0.1309
 2492TIP3    H129035   1.932   4.760   0.437 -0.3230  0.5539  0.0958
 2492TIP3    H229036   1.909   4.862   0.327  0.2144 -0.2798 -0.8187
 2493TIP3   OH229037   0.087   5.059   0.609  0.4460 -0.0623 -0.1621
 2493TIP3    H129038   0.020   5.124   0.586 -1.3537 -0.8938  2.3171
 2493TIP3    H229039   0.128   5.094   0.689 -0.7581 -2.0047  1.3927
 2494TIP3   OH229040   2.510   0.391   7.888  0.1078  0.4262 -0.1606
 2494TIP3    H129041   2.571   0.457   7.857  0.0337  1.4091  1.6415
 2494TIP3    H229042   2.454   0.437   7.950  0.3263 -1.4048  1.5048
 2495TIP3   OH229043   4.736   4.364   1.239 -0.7931  0.2543 -0.3754
 2495TIP3    H129044   4.709   4.368   1.148  0.8520  2.7004 -0.8706
 2495TIP3    H229045   4.808   4.301   1.240 -0.4353  0.6424 -0.9152
 2496TIP3   OH229046   2.589   1.369   1.778  0.0517 -0.7150 -0.9641
 2496TIP3    H129047   2.650   1.442   1.786 -2.6315  1.5992  0.0525
 2496TIP3    H229048   2.585   1.331   1.866 -1.4251  0.4923 -0.4669
 2497TIP3   OH229049   2.903   0.505   0.786 -0.1335  0.1681 -0.0098
 2497TIP3    H129050   2.905   0.558   0.866 -0.4884  1.0484 -0.5700
 2497TIP3    H229051   2.978   0.536   0.735 -0.9409  0.8963 -0.7970
 2498TIP3   OH229052   5.903   0.405   0.903  0.2298 -0.0207 -0.2241
 2498TIP3    H129053   5.865   0.431   0.819  0.3573  1.1219  0.0610
 2498TIP3    H229054   5.894   0.482   0.958 -1.3093 -1.2288  1.3411
 2499TIP3   OH229055   5.065   0.217   0.523 -0.1194  0.6995  0.6060
 2499TIP3    H129056   4.979   0.182   0.548 -0.2451  0.3974 -0.2141
 2499TIP3    H229057   5.059   0.311   0.541 -0.2462  0.5121  1.5674
 2500TIP3   OH229058   1.873   5.391   1.925  0.4532  0.3719  0.0180
 2500TIP3    H129059   1.925   5.346   1.858  0.2943  1.3783 -0.8009
 2500TIP3    H229060   1.924   5.469   1.947 -0.0972  0.7006  0.1456
 2501TIP3   OH229061   1.409   5.453   2.342  0.0752 -0.0798 -0.2213
 2501TIP3    H129062   1.410   5.416   2.431 -1.2973  1.0446  0.3096
 2501TIP3    H229063   1.378   5.381   2.287  0.1159 -0.5434  0.3471
 2502TIP3   OH229064   2.282   1.060   0.738  0.2741  0.4155 -0.3320
 2502TIP3    H129065   2.205   1.089   0.786 -0.7759 -0.1340 -1.6087
 2502TIP3    H229066   2.331   1.140   0.718  0.6370  0.6626  1.4414
 2503TIP3   OH229067   1.120   4.271   7.563  0.7696 -0.4964 -0.9012
 2503TIP3    H129068   1.030   4.240   7.555  0.2551  0.5835  0.3799
 2503TIP3    H229069   1.155   4.223   7.639  0.8164  0.1009 -0.5394
 2504TIP3   OH229070   4.938   2.079   0.166  0.7612  0.3811  0.4933
 2504TIP3    H129071   4.958   2.038   0.082  0.1310 -1.0987  1.0252
 2504TIP3    H229072   5.023   2.111   0.198  1.6157 -1.8503  0.7048
 2505TIP3   OH229073   6.306   2.864   0.568  0.4076 -0.2911 -0.2122
 2505TIP3    H129074   6.262   2.837   0.649  1.5414  0.8841  0.8354
 2505TIP3    H229075   6.363   2.936   0.594 -0.5994  1.4391 -2.3990
 2506TIP3   OH229076   3.475   1.977   1.333 -0.1682  0.3918  0.2411
 2506TIP3    H129077   3.479   2.011   1.422  0.0462  4.0400 -0.9939
 2506TIP3    H229078   3.535   1.903   1.333 -0.2847  0.1930  3.1227
 2507TIP3   OH229079   0.144   2.243   8.475 -0.1949  0.1411 -0.1553
 2507TIP3    H129080   0.117   2.179   8.540 -0.5514  0.7257  0.2835
 2507TIP3    H229081   0.239   2.229   8.466 -0.1436  0.0402  0.4778
 2508TIP3   OH229082   2.420   3.728   8.052 -0.2349  0.3419  0.2615
 2508TIP3    H129083   2.417   3.753   8.144  1.6702  0.5267  0.3120
 2508TIP3    H229084   2.472   3.796   8.010 -0.4846 -0.1137 -0.8194
 2509TIP3   OH229085   1.485   2.048   1.714 -0.2582 -0.0526 -0.2470
 2509TIP3    H129086   1.419   1.980   1.699  0.1207 -0.3145 -0.7475
 2509TIP3    H229087   1.563   2.000   1.743 -0.1982  0.2309  0.0696
 2510TIP3   OH229088   3.903   3.126   2.925 -0.0545  0.0695 -0.2656
 2510TIP3    H129089   3.867   3.208   2.892  0.5553  0.9585  1.1836
 2510TIP3    H229090   3.969   3.101   2.860  0.6071  1.3896 -0.1260
 2511TIP3   OH229091   6.068   1.910   0.466  0.1636 -0.1087  0.5828
 2511TIP3    H129092   6.040   1.821   0.490  2.3968 -0.3784  2.5595
 2511TIP3    H229093   6.150   1.922   0.513  0.8821  2.3477 -1.1402
 2512TIP3   OH229094   3.771   1.986   0.613  0.1657  0.1410 -0.0021
 2512TIP3    H129095   3.719   2.014   0.689  0.2420 -1.0045  0.4940
 2512TIP3    H229096   3.706   1.972   0.544  0.0066  0.4187  0.0889
 2513TIP3   OH229097   1.103   4.564   2.507  0.2910 -0.3130  0.6918
 2513TIP3    H129098   1.137   4.529   2.589 -1.5762 -1.3088  1.0968
 2513TIP3    H229099   1.125   4.499   2.441 -0.1748 -0.6177  0.8297
 2514TIP3   OH229100   5.790   5.606   2.213 -0.0843  0.4506  0.7000
 2514TIP3    H129101   5.746   5.622   2.296 -0.0829  0.5373  0.6835
 2514TIP3    H229102   5.742   5.532   2.175  0.0810  0.2375  0.8990
 2515TIP3   OH229103   5.245   3.711   0.274  0.5886 -0.2639  0.2344
 2515TIP3    H129104   5.246   3.766   0.196  2.5478  2.6357  2.1086
 2515TIP3    H229105   5.319   3.652   0.262  0.1774 -0.6273 -0.5752
 2516TIP3   OH229106   5.440   2.511   7.506 -0.1889  0.4612  0.0885
 2516TIP3    H129107   5.356   2.481   7.542  0.1148  1.5831  1.8467
 2516TIP3    H229108   5.505   2.484   7.571  0.4179  2.3466  0.3253
 2517TIP3   OH229109   4.936   1.942   7.876 -0.1031  0.4756 -0.1846
 2517TIP3    H129110   4.855   1.891   7.875  1.4780 -2.3134  0.4581
 2517TIP3    H229111   4.953   1.962   7.784 -1.1247  0.4204 -0.3951
 2518TIP3   OH229112   0.202   1.571   0.090 -0.0343 -0.1694  0.2918
 2518TIP3    H129113   0.275   1.569   0.027 -0.1948 -0.1233  0.1033
 2518TIP3    H229114   0.129   1.532   0.043 -0.0619 -0.4573  0.5727
 2519TIP3   OH229115   1.309   0.706   1.941  0.1286  0.5477 -0.3963
 2519TIP3    H129116   1.269   0.782   1.898  0.3619  0.9339  0.0513
 2519TIP3    H229117   1.250   0.686   2.014 -0.2325 -0.0634 -0.8464
 2520TIP3   OH229118   4.323   5.879   1.017  0.5654  0.0036 -0.1574
 2520TIP3    H129119   4.349   5.867   1.108 -1.0014 -1.1298  0.1768
 2520TIP3    H229120   4.401   5.855   0.966  1.4754  0.7140  0.8592
 2521TIP3   OH229121   3.071   0.260   2.039 -0.0600  0.4036 -0.0823
 2521TIP3    H129122   3.103   0.350   2.050 -0.2596  0.4433  0.1691
 2521TIP3    H229123   3.050   0.254   1.945 -1.7249  1.1795  0.2068
 2522TIP3   OH229124   6.266   2.223   8.481 -0.3846  0.3654  0.1133
 2522TIP3    H129125   6.312   2.152   8.525 -0.5114 -0.3085 -0.8159
 2522TIP3    H229126   6.335   2.269   8.432 -0.6892 -0.7653 -1.4401
 2523TIP3   OH229127   0.264   5.713   7.604  0.2471 -0.0210  0.0550
 2523TIP3    H129128   0.195   5.762   7.560 -1.5876 -0.3673  2.3426
 2523TIP3    H229129   0.256   5.624   7.569 -0.8380 -0.1690  0.6205
 2524TIP3   OH229130   0.081   6.628   0.284 -0.2616 -0.6086  0.4611
 2524TIP3    H129131  -0.009   6.642   0.253 -0.7006 -0.6983  1.6458
 2524TIP3    H229132   0.135   6.645   0.207 -1.1944  0.8711  0.0740
 2525TIP3   OH229133   6.741   2.069   8.482  0.1650 -0.0921  0.5966
 2525TIP3    H129134   6.733   2.162   8.505  0.0959 -0.2378  1.1806
 2525TIP3    H229135   6.807   2.035   8.543  1.0642 -0.1718 -0.3878
 2526TIP3   OH229136   5.466   3.868   0.000  0.3064 -0.0764  0.0366
 2526TIP3    H129137   5.498   3.791  -0.046 -0.4685 -1.0005  0.9966
 2526TIP3    H229138   5.371   3.856   0.006  0.3995 -0.2122  2.1732
 2527TIP3   OH229139   1.079   0.608   1.790 -0.7131  0.2409 -0.5512
 2527TIP3    H129140   1.098   0.664   1.715 -0.6889 -0.8162 -1.3648
 2527TIP3    H229141   1.134   0.642   1.861  0.6564  0.1351 -1.5322
 2528TIP3   OH229142   6.522   1.253   1.103  0.3062  0.6938  0.1609
 2528TIP3    H129143   6.527   1.189   1.173  0.4278  0.2309 -0.2633
 2528TIP3    H229144   6.551   1.206   1.025 -4.4560 -0.4447 -1.2919
 2529TIP3   OH229145   0.684   4.169   1.769 -0.5619 -0.5996 -0.5576
 2529TIP3    H129146   0.595   4.187   1.800 -0.8406 -1.3028 -0.9160
 2529TIP3    H229147   0.738   4.235   1.811 -1.1564 -0.5967  0.2170
 2530TIP3   OH229148   1.070   0.074   1.940 -0.0423  0.1245 -0.2673
 2530TIP3    H129149   1.155   0.105   1.910 -0.4010  2.2770  0.7373
 2530TIP3    H229150   1.007   0.135   1.901 -1.1041 -1.1437 -0.6111
 2531TIP3   OH229151   4.497   1.565   1.720 -0.2413 -0.0401  0.0859
 2531TIP3    H129152   4.485   1.647   1.769  3.2512 -1.2992  3.5873
 2531TIP3    H229153   4.575   1.579   1.667 -0.5094 -0.6415 -0.4880
 2532TIP3   OH229154   4.428   5.275   2.775  0.1941  0.1297 -0.7180
 2532TIP3    H129155   4.369   5.233   2.837  0.3491  0.0527 -0.6220
 2532TIP3    H229156   4.502   5.305   2.829 -0.4964  1.6575 -0.5625
 2533TIP3   OH229157   0.024   2.157   0.130 -0.2436  0.3774 -0.0836
 2533TIP3    H129158   0.079   2.199   0.197 -2.5269 -0.3181  2.4335
 2533TIP3    H229159  -0.047   2.116   0.180 -0.7619 -2.3768 -2.7627
 2534TIP3   OH229160   0.483   0.194   1.621 -0.5809 -0.4242 -0.0676
 2534TIP3    H129161   0.490   0.105   1.656 -1.2544 -0.5264 -0.1817
 2534TIP3    H229162   0.432   0.184   1.541  0.3365 -0.0928 -0.7130
 2535TIP3   OH229163   1.751   4.575   0.226  0.9265 -0.3205  0.0346
 2535TIP3    H129164   1.830   4.560   0.173  0.3906  0.2920 -0.9616
 2535TIP3    H229165   1.734   4.669   0.217  0.7403 -0.2339  1.1998
 2536TIP3   OH229166   2.747   6.515   2.689  0.1279  0.3003  0.9024
 2536TIP3    H129167   2.786   6.572   2.755 -1.2200  2.9818 -0.4794
 2536TIP3    H229168   2.814   6.510   2.620  0.7621 -0.9544  1.5563
 2537TIP3   OH229169   4.675   5.964   0.572  0.3009  0.0224  0.1407
 2537TIP3    H129170   4.664   6.059   0.560  1.1133 -0.0685 -1.5438
 2537TIP3    H229171   4.758   5.955   0.620 -0.5691  0.1842  1.7703
 2538TIP3   OH229172   0.261   0.178   7.905  0.6628  0.4931  0.3269
 2538TIP3    H129173   0.259   0.215   7.816 -2.3971  0.0980  0.1238
 2538TIP3    H229174   0.258   0.084   7.891  1.9875  0.3550  0.8779
 2539TIP3   OH229175   4.395   1.404   0.108 -0.3625  0.2231 -0.1767
 2539TIP3    H129176   4.383   1.340   0.178 -1.0269  0.8674  0.3274
 2539TIP3    H229177   4.378   1.488   0.150  0.1458  0.7048 -0.9060
 2540TIP3   OH229178   0.615   4.106   2.164  0.0585 -0.3532 -0.2770
 2540TIP3    H129179   0.548   4.126   2.099 -1.6784  0.5040  1.6747
 2540TIP3    H229180   0.569   4.058   2.233  1.1853  0.9895  1.5173
 2541TIP3   OH229181   3.945   2.980   1.674  0.4215  0.3634  0.3883
 2541TIP3    H129182   3.970   2.937   1.756 -1.2728 -0.6475  0.4156
 2541TIP3    H229183   3.942   3.073   1.697 -1.1763  0.0060  1.8446
 2542TIP3   OH229184   4.466   1.438   2.483 -0.3127 -0.0669  0.1067
 2542TIP3    H129185   4.452   1.531   2.502  2.1980  0.2513  0.7396
 2542TIP3    H229186   4.389   1.394   2.519 -1.7017  1.7687 -0.4936
 2543TIP3   OH229187   3.103   4.087   0.332  0.0605  0.1397 -0.0173
 2543TIP3    H129188   3.119   3.993   0.345 -0.9966  0.1403  1.5690
 2543TIP3    H229189   3.055   4.093   0.250  1.2090 -0.5751 -0.7648
 2544TIP3   OH229190   1.171   1.088   8.018  0.2961  0.0123  0.2155
 2544TIP3    H129191   1.190   1.002   8.056 -0.6443 -0.4116 -0.2350
 2544TIP3    H229192   1.232   1.095   7.945  0.8615  0.0443  0.6806
 2545TIP3   OH229193   2.948   1.925   7.528 -0.2281  0.4080 -0.0442
 2545TIP3    H129194   2.878   1.861   7.514 -0.5281  0.9952 -1.4228
 2545TIP3    H229195   3.004   1.917   7.451  1.1018  0.1334  0.9168
 2546TIP3   OH229196   4.920   4.947   0.769  0.1169  0.4924 -0.2119
 2546TIP3    H129197   5.003   4.919   0.808 -0.2325  0.8034  0.7814
 2546TIP3    H229198   4.860   4.874   0.785  0.4595 -0.2234 -1.9240
 2547TIP3   OH229199   4.130   5.085   0.002  0.1311 -0.1582 -0.4410
 2547TIP3    H129200   4.073   5.009   0.020 -0.6767 -0.2895 -3.2084
 2547TIP3    H229201   4.130   5.093  -0.093  1.3404  2.5051 -0.2839
 2548TIP3   OH229202   3.859   5.973   1.123 -0.2436 -0.1526 -0.2394
 2548TIP3    H129203   3.892   5.892   1.161  0.7349  0.0378 -0.6503
 2548TIP3    H229204   3.841   5.952   1.031  0.1961  0.1338 -0.3966
 2549TIP3   OH229205   1.323   4.584   0.838  0.0651  0.5886  0.0570
 2549TIP3    H129206   1.303   4.519   0.906  0.8394  0.2995  0.0241
 2549TIP3    H229207   1.238   4.621   0.815 -0.1627  1.1473  1.6365
 2550TIP3   OH229208   3.503   0.575   6.918 -0.4272 -0.5244  0.4958
 2550TIP3    H129209   3.432   0.637   6.935 -1.8608 -2.3789  1.7809
 2550TIP3    H229210   3.463   0.509   6.860  1.4440  0.3567 -1.9862
 2551TIP3   OH229211   0.142   3.837   0.336 -0.4361 -0.0771 -0.1504
 2551TIP3    H129212   0.134   3.927   0.369  2.4844 -0.5269  2.1961
 2551TIP3    H229213   0.194   3.847   0.256 -0.3564  0.3531 -0.0507
 2552TIP3   OH229214   3.417   6.030   0.937 -0.2240 -0.2148  0.1449
 2552TIP3    H129215   3.477   6.104   0.931  0.7260 -0.9428  0.5049
 2552TIP3    H229216   3.335   6.062   0.899  0.2182  0.9682  0.1705
 2553TIP3   OH229217   1.551   3.670   1.931  0.2345  0.7736 -0.3134
 2553TIP3    H129218   1.457   3.657   1.945 -0.1849  2.4397 -1.3589
 2553TIP3    H229219   1.578   3.728   2.002  0.8551 -0.8651  0.8786
 2554TIP3   OH229220   3.262   4.154   1.313 -0.2029 -0.2308  0.4223
 2554TIP3    H129221   3.185   4.098   1.306  0.3179 -0.8671 -0.3754
 2554TIP3    H229222   3.312   4.137   1.233  0.4817  0.6024  0.6537
 2555TIP3   OH229223   2.876   3.808   2.388 -0.5757 -0.1792  1.1248
 2555TIP3    H129224   2.917   3.734   2.433 -1.1135 -0.5190  1.0650
 2555TIP3    H229225   2.819   3.848   2.454 -1.2104 -0.5566  0.8123
 2556TIP3   OH229226   6.244   2.789   7.381  0.4948 -0.0178  0.7239
 2556TIP3    H129227   6.165   2.838   7.360  0.8516  0.6912  0.9921
 2556TIP3    H229228   6.278   2.762   7.295  0.4569  0.4781  0.5462
 2557TIP3   OH229229   5.406   4.256   2.131  0.0741 -0.0647  0.1297
 2557TIP3    H129230   5.414   4.178   2.186  1.2059 -1.1641 -1.4991
 2557TIP3    H229231   5.313   4.259   2.107 -0.3842  0.2908  1.8284
 2558TIP3   OH229232   6.900   4.991   7.410 -0.3229  0.1275 -0.2576
 2558TIP3    H129233   6.838   5.029   7.472 -0.5923  0.3436 -0.6585
 2558TIP3    H229234   6.933   5.065   7.360  0.5702  0.0716  0.2179
 2559TIP3   OH229235   4.000   1.638   7.282 -0.5173  0.4444 -0.3532
 2559TIP3    H129236   4.024   1.629   7.190 -1.3696  0.1875 -0.5502
 2559TIP3    H229237   3.963   1.726   7.289  1.2113  1.1789  0.1287
 2560TIP3   OH229238   4.631   3.861   1.171 -0.5816 -0.0509  0.3023
 2560TIP3    H129239   4.541   3.834   1.155 -0.9423  1.9071 -1.3826
 2560TIP3    H229240   4.625   3.920   1.246 -0.9297  0.9504 -0.4802
 2561TIP3   OH229241   0.622   3.289   1.107  1.0776 -0.0256  0.3130
 2561TIP3    H129242   0.710   3.252   1.100  0.7554 -0.7048 -0.2696
 2561TIP3    H229243   0.604   3.290   1.201  2.3793  1.7837  0.5839
 2562TIP3   OH229244   3.183   0.392   2.498  0.3272 -0.1634 -0.2793
 2562TIP3    H129245   3.206   0.389   2.591  0.1722 -0.3546 -0.2449
 2562TIP3    H229246   3.115   0.459   2.493  1.5571  1.1040 -0.5363
 2563TIP3   OH229247   2.304   6.605   7.950  0.0682  0.5317 -0.2596
 2563TIP3    H129248   2.236   6.546   7.983  0.8760 -0.6661 -0.6605
 2563TIP3    H229249   2.372   6.603   8.017  0.5926  0.1104 -0.7992
 2564TIP3   OH229250   1.992   4.987   1.901  0.2314 -0.4531  0.1848
 2564TIP3    H129251   1.962   5.045   1.971  2.9927 -0.7563  1.7729
 2564TIP3    H229252   1.932   5.004   1.828 -1.3031  1.6452  1.8035
 2565TIP3   OH229253   6.328   5.154   7.357  0.5239 -0.4183 -0.0227
 2565TIP3    H129254   6.233   5.162   7.358  0.3097 -1.9537 -1.8269
 2565TIP3    H229255   6.360   5.241   7.379 -1.3033  0.3333 -0.1857
 2566TIP3   OH229256   0.973   0.063   1.256 -0.3682 -0.1356  0.4678
 2566TIP3    H129257   0.976   0.043   1.350 -0.4658  1.0896  0.7571
 2566TIP3    H229258   0.906   0.005   1.221  0.2980 -1.2523  0.9788
 2567TIP3   OH229259   6.514   0.450   1.248  0.0604  0.8540  0.1395
 2567TIP3    H129260   6.444   0.385   1.235  2.0304 -0.9368 -2.9592
 2567TIP3    H229261   6.535   0.444   1.341  0.0109 -2.9654  0.0794
 2568TIP3   OH229262   1.480   5.882   2.956  0.2243  0.0714  0.3737
 2568TIP3    H129263   1.502   5.920   3.041 -0.4325  0.8914  0.1872
 2568TIP3    H229264   1.459   5.957   2.900 -1.5096 -0.5637  0.1125
 2569TIP3   OH229265   1.408   4.151   8.559 -0.0942 -0.1870  0.1628
 2569TIP3    H129266   1.323   4.183   8.529  0.6383  1.9138  0.1840
 2569TIP3    H229267   1.420   4.068   8.513 -2.4954 -0.9527  0.7984
 2570TIP3   OH229268   5.490   1.665   7.461  0.0312 -0.1456 -0.0680
 2570TIP3    H129269   5.464   1.582   7.502  0.4400 -0.7000 -0.9110
 2570TIP3    H229270   5.408   1.700   7.426 -0.2387  0.0907  0.7623
 2571TIP3   OH229271   0.260   6.826   0.384 -0.2268 -0.2715  0.1525
 2571TIP3    H129272   0.188   6.884   0.360  0.4081 -0.0620 -1.3751
 2571TIP3    H229273   0.230   6.738   0.358  0.6095  0.0008 -1.9600
 2572TIP3   OH229274   5.227   5.294   6.950  0.4571  0.4601  0.6686
 2572TIP3    H129275   5.210   5.263   6.861 -0.0022  0.0220  0.9055
 2572TIP3    H229276   5.313   5.336   6.945  1.4508 -1.4752  0.4993
 2573TIP3   OH229277   3.775   2.773   1.362  0.2274  0.1172  0.7779
 2573TIP3    H129278   3.719   2.791   1.287 -0.0282 -0.9433  0.7044
 2573TIP3    H229279   3.755   2.683   1.387  3.2479 -1.0604 -0.4790
 2574TIP3   OH229280   5.992   5.017   1.263  0.4470  0.5150  0.3551
 2574TIP3    H129281   5.912   4.969   1.241 -0.5804  1.8004  1.1495
 2574TIP3    H229282   6.050   5.003   1.188 -0.9376  0.4476 -0.7372
 2575TIP3   OH229283   3.087   2.373   8.260 -0.1453 -0.1289 -0.3316
 2575TIP3    H129284   3.097   2.434   8.333 -2.8122 -1.1919  1.0590
 2575TIP3    H229285   3.166   2.318   8.264  0.3921  0.6816  0.9006
 2576TIP3   OH229286   0.265   1.910   8.314 -0.4956  0.1822 -1.0030
 2576TIP3    H129287   0.176   1.941   8.300 -0.4062  1.3781  0.7760
 2576TIP3    H229288   0.286   1.936   8.404  2.2118  1.3763 -1.8966
 2577TIP3   OH229289   4.375   5.639   2.748 -0.4616 -0.4426 -0.0033
 2577TIP3    H129290   4.298   5.584   2.761 -0.4846 -0.0532  1.6450
 2577TIP3    H229291   4.448   5.587   2.781 -0.3327  0.0773  0.5385
 2578TIP3   OH229292   1.361   5.129   7.623  0.0745 -0.1257  0.6203
 2578TIP3    H129293   1.285   5.182   7.598 -0.1004 -0.1229  1.1473
 2578TIP3    H229294   1.323   5.046   7.653  0.2864 -0.1559  0.8071
 2579TIP3   OH229295   4.312   4.831   0.335 -0.5949  0.1404 -0.2848
 2579TIP3    H129296   4.234   4.859   0.384 -0.1042  1.5507 -0.2681
 2579TIP3    H229297   4.371   4.906   0.341  0.6299 -0.7884 -0.5895
 2580TIP3   OH229298   3.607   1.798   1.023  0.1538  0.2554  0.3263
 2580TIP3    H129299   3.677   1.852   0.984  1.3415 -2.1142 -1.0427
 2580TIP3    H229300   3.639   1.778   1.111  0.0934  1.0587  0.5418
 2581TIP3   OH229301   3.255   0.680   2.222 -0.5222 -0.5440 -0.0141
 2581TIP3    H129302   3.243   0.751   2.285 -1.9341 -0.6414 -0.1363
 2581TIP3    H229303   3.326   0.627   2.258 -0.3034  0.2320  0.7215
 2582TIP3   OH229304   3.514   1.180   1.990  0.1728 -0.0589  0.2224
 2582TIP3    H129305   3.583   1.128   1.950 -1.2556 -1.8024 -0.1319
 2582TIP3    H229306   3.542   1.194   2.080  1.1437 -0.3905 -0.0235
 2583TIP3   OH229307   0.927   5.242   3.093  0.4410  0.1366  0.2328
 2583TIP3    H129308   0.972   5.294   3.159  1.8110  0.6263 -1.0269
 2583TIP3    H229309   0.994   5.184   3.058 -0.4852 -0.7667 -0.0871
 2584TIP3   OH229310   0.271   1.924   2.139  0.0815  0.5053 -0.6349
 2584TIP3    H129311   0.201   1.970   2.186 -0.3376 -0.1529 -0.5972
 2584TIP3    H229312   0.329   1.994   2.108  0.7282  0.9522  1.4098
 2585TIP3   OH229313   6.328   6.569   1.938  0.3030  0.1228 -0.1521
 2585TIP3    H129314   6.403   6.591   1.993 -1.0036 -0.1379  1.8388
 2585TIP3    H229315   6.367   6.535   1.858  2.3343 -0.9270  1.1710
 2586TIP3   OH229316   5.049   1.451   0.854  0.3541  0.0981 -0.4648
 2586TIP3    H129317   4.968   1.497   0.833 -0.5722 -1.4920 -0.5289
 2586TIP3    H229318   5.064   1.469   0.946  0.7612  1.6061 -0.7971
 2587TIP3   OH229319   2.758   2.828   2.475  0.2949 -0.4023  0.2986
 2587TIP3    H129320   2.835   2.864   2.519  0.3103 -1.7918  1.4584
 2587TIP3    H229321   2.707   2.787   2.544  0.3074 -2.6437 -0.9395
 2588TIP3   OH229322   5.888   5.700   6.495 -0.2504 -0.2465 -0.1095
 2588TIP3    H129323   5.816   5.762   6.509  0.7313  0.2178  4.2330
 2588TIP3    H229324   5.967   5.753   6.504  0.7397 -1.1255 -2.7431
 2589TIP3   OH229325   0.698   3.693   8.437  0.2405 -0.5480  0.6902
 2589TIP3    H129326   0.779   3.742   8.451 -0.0125 -0.3003  1.3593
 2589TIP3    H229327   0.721   3.602   8.460  0.6858 -0.7368 -0.4693
 2590TIP3   OH229328   1.411   6.587   2.294 -0.1000  0.3671  0.0171
 2590TIP3    H129329   1.410   6.639   2.375  1.8289 -1.4699  1.3311
 2590TIP3    H229330   1.336   6.529   2.301  0.9255 -0.8800  1.3450
 2591TIP3   OH229331   0.914   2.303   6.941  0.1413 -0.0633  0.0614
 2591TIP3    H129332   0.922   2.369   7.009  3.2081  0.1070 -0.3314
 2591TIP3    H229333   0.908   2.220   6.989 -0.3493  0.2306  0.5218
 2592TIP3   OH229334   0.258   2.471   1.625 -0.9110  0.1286  0.8903
 2592TIP3    H129335   0.288   2.460   1.535 -0.0455 -0.2668  1.2076
 2592TIP3    H229336   0.284   2.390   1.669 -0.3188  0.7537  1.7432
 2593TIP3   OH229337   6.727   2.071   2.498 -0.5316 -0.0849 -0.1840
 2593TIP3    H129338   6.742   2.164   2.483 -1.7906 -0.2138 -2.9040
 2593TIP3    H229339   6.632   2.063   2.505 -0.4458 -1.1654 -0.0814
 2594TIP3   OH229340   2.644   4.595   7.468  0.6934  0.1116 -0.0472
 2594TIP3    H129341   2.558   4.561   7.495  0.4755 -0.7685 -1.7363
 2594TIP3    H229342   2.706   4.555   7.530 -0.0449  0.2870  0.8224
 2595TIP3   OH229343   4.652   1.031   8.294 -0.5207  0.4981 -0.3731
 2595TIP3    H129344   4.651   1.102   8.229 -0.1409  1.7308  0.9152
 2595TIP3    H229345   4.658   1.076   8.378  0.8843 -1.0920  0.4388
 2596TIP3   OH229346   6.839   5.647   2.724 -0.0532 -0.6649  0.2976
 2596TIP3    H129347   6.880   5.634   2.809  1.0458 -0.2954 -0.1596
 2596TIP3    H229348   6.861   5.568   2.675 -0.1610 -0.6065  0.1542
 2597TIP3   OH229349   3.005   1.898   2.975  0.1788 -0.1454  0.3125
 2597TIP3    H129350   3.029   1.835   2.907  1.6398  0.8182 -0.0912
 2597TIP3    H229351   3.056   1.872   3.051  0.6160  0.4026  0.2120
 2598TIP3   OH229352   2.935   4.656   7.584 -0.9239  0.1785  0.3388
 2598TIP3    H129353   2.954   4.563   7.566 -1.8789 -0.0398  0.4354
 2598TIP3    H229354   2.864   4.654   7.647 -0.4971  0.9867  0.8555
 2599TIP3   OH229355   0.134   4.803   1.492 -0.0331 -0.0685 -0.0088
 2599TIP3    H129356   0.213   4.856   1.502 -1.3497  2.8762 -3.1147
 2599TIP3    H229357   0.075   4.835   1.560 -0.1961  1.3647 -0.7807
 2600TIP3   OH229358   1.081   3.031   0.514 -0.7021  0.1847 -0.0185
 2600TIP3    H129359   1.016   2.970   0.479 -1.6457  1.5842 -0.8207
 2600TIP3    H229360   1.070   3.110   0.461  1.7352  0.4510 -0.2344
 2601TIP3   OH229361   5.210   3.823   0.021  0.2177  0.3274  0.3393
 2601TIP3    H129362   5.147   3.751   0.008 -1.4053  1.1117  2.9378
 2601TIP3    H229363   5.156   3.902   0.018  1.9350  1.5254 -2.2154
 2602TIP3   OH229364   5.005   5.454   7.563  0.0252  0.1331  0.3400
 2602TIP3    H129365   5.042   5.367   7.577 -0.6438  0.0994  2.0800
 2602TIP3    H229366   4.942   5.466   7.634 -1.2440  1.3142 -0.9015
 2603TIP3   OH229367   1.607   1.699   8.081  0.1987 -0.1239  0.1368
 2603TIP3    H129368   1.588   1.786   8.116 -2.1750 -0.5443  0.0551
 2603TIP3    H229369   1.522   1.657   8.075  1.2363 -2.2624 -0.3935
 2604TIP3   OH229370   4.848   0.972   1.214  0.3613  0.7515  0.3136
 2604TIP3    H129371   4.860   1.028   1.137  0.0749 -0.9519 -1.0412
 2604TIP3    H229372   4.915   0.903   1.204  0.9191  0.9876  2.0950
 2605TIP3   OH229373   5.681   4.305   2.485  0.2509 -0.3894  0.0182
 2605TIP3    H129374   5.733   4.348   2.553  0.1510  0.7470 -0.6006
 2605TIP3    H229375   5.744   4.285   2.416 -0.0352  0.5567 -0.5284
 2606TIP3   OH229376   1.612   0.046   7.108  0.1714 -0.7980  0.2518
 2606TIP3    H129377   1.657   0.120   7.067 -0.5258 -1.0009 -0.9255
 2606TIP3    H229378   1.681  -0.019   7.122  0.8052  0.0844  1.3728
 2607TIP3   OH229379   2.652   6.908   1.563  0.0376 -0.0654  0.0900
 2607TIP3    H129380   2.735   6.928   1.606  0.0139 -0.2404  0.2186
 2607TIP3    H229381   2.667   6.823   1.521  0.6120  0.8529 -1.6683
 2608TIP3   OH229382   6.723   5.341   8.302 -0.7517  0.2901 -0.0920
 2608TIP3    H129383   6.745   5.262   8.351 -3.8004  0.1013  1.2221
 2608TIP3    H229384   6.773   5.411   8.345 -1.6474 -0.2395  1.9435
 2609TIP3   OH229385   1.112   2.361   1.508 -0.1715  0.3017 -0.0641
 2609TIP3    H129386   1.140   2.451   1.526 -3.1516  1.2764  0.1328
 2609TIP3    H229387   1.040   2.346   1.568  1.0369 -2.7510  0.7935
 2610TIP3   OH229388   0.248   3.047   1.245  0.0842 -0.5178  0.0885
 2610TIP3    H129389   0.295   3.028   1.163  0.5698  0.7717  0.0558
 2610TIP3    H229390   0.283   3.131   1.274  0.4330 -1.2735  1.9987
 2611TIP3   OH229391   1.938   0.565   1.575 -0.1049  0.1152  0.0863
 2611TIP3    H129392   2.002   0.624   1.536 -1.3137  0.7354 -1.0819
 2611TIP3    H229393   1.905   0.514   1.501 -1.8496  0.7097  0.3868
 2612TIP3   OH229394   6.084   0.988   0.248  0.1438 -0.5005  0.2606
 2612TIP3    H129395   6.020   0.983   0.178 -0.1434  0.8307  0.3920
 2612TIP3    H229396   6.124   0.901   0.251 -0.5870 -0.8936 -0.8237
 2613TIP3   OH229397   1.192   0.063   8.277 -0.1298 -0.1343 -0.5359
 2613TIP3    H129398   1.195   0.035   8.186  1.2397  1.4437 -1.0297
 2613TIP3    H229399   1.225   0.153   8.276  1.9632 -0.7435  1.7397
 2614TIP3   OH229400   2.326   3.679   0.829  0.1862  0.1533 -0.2480
 2614TIP3    H129401   2.364   3.627   0.758  0.5419 -0.2951  0.2719
 2614TIP3    H229402   2.233   3.656   0.828 -0.0996  1.2058 -1.4766
 2615TIP3   OH229403   3.787   3.385   0.847 -0.3238  0.0360 -1.0443
 2615TIP3    H129404   3.763   3.305   0.799 -0.4086  0.1293 -1.1581
 2615TIP3    H229405   3.738   3.379   0.929 -0.0688 -0.1929 -0.9093
 2616TIP3   OH229406   3.461   0.579   7.218 -0.0824  0.9615  0.3826
 2616TIP3    H129407   3.487   0.590   7.127 -0.1218  1.9825  0.4850
 2616TIP3    H229408   3.368   0.599   7.220 -0.4327 -0.5699  0.3951
 2617TIP3   OH229409   1.002   1.086   2.532  0.0175  0.1050  0.6146
 2617TIP3    H129410   0.931   1.106   2.593 -0.8263  1.9130 -0.8682
 2617TIP3    H229411   0.974   1.004   2.490 -0.9924  0.5766  0.3455
 2618TIP3   OH229412   0.744   3.665   1.775  0.1846 -0.4033  0.4699
 2618TIP3    H129413   0.650   3.648   1.770 -0.2206  1.5514  0.5898
 2618TIP3    H229414   0.750   3.757   1.800  2.0982  0.6190 -3.1107
 2619TIP3   OH229415   5.209   2.089   8.325 -0.2249 -0.4305  0.0887
 2619TIP3    H129416   5.296   2.051   8.340  0.3398  0.7750  0.0415
 2619TIP3    H229417   5.182   2.056   8.239  2.8943  3.7313 -2.9235
 2620TIP3   OH229418   4.340   2.298   8.373 -0.1145 -0.4386 -0.2892
 2620TIP3    H129419   4.307   2.212   8.398  1.3797 -0.0820  3.5757
 2620TIP3    H229420   4.426   2.281   8.335 -1.1626 -0.7828 -2.6569
 2621TIP3   OH229421   3.900   0.261   8.123  0.2348 -0.5904 -0.1464
 2621TIP3    H129422   3.804   0.253   8.125  0.0859  0.8695  2.4286
 2621TIP3    H229423   3.931   0.173   8.101 -1.6594 -2.1227  2.6891
 2622TIP3   OH229424   6.662   5.692   7.102  0.4737 -0.5985  0.6560
 2622TIP3    H129425   6.737   5.643   7.069  2.1806  1.9486  0.4607
 2622TIP3    H229426   6.613   5.718   7.024  0.2764 -0.9014  0.6766
 2623TIP3   OH229427   0.222   5.535   0.194  0.7824 -0.0991 -0.0533
 2623TIP3    H129428   0.285   5.512   0.125 -0.2672 -0.0110 -1.0752
 2623TIP3    H229429   0.211   5.454   0.244  0.2619 -0.6745 -1.0639
 2624TIP3   OH229430   1.701   4.107   7.631  0.4168 -0.3437  0.0931
 2624TIP3    H129431   1.687   4.170   7.560  0.3982 -0.8696 -0.3702
 2624TIP3    H229432   1.736   4.029   7.588  3.1584  0.3014  0.9640
 2625TIP3   OH229433   1.930   3.898   7.738 -0.4302 -0.1121  0.2870
 2625TIP3    H129434   1.979   3.896   7.820 -1.4534  1.3798  0.9732
 2625TIP3    H229435   1.868   3.825   7.745  2.6795 -3.2046 -1.3552
 2626TIP3   OH229436   0.405   4.274   1.042  0.2068 -0.7755 -1.0698
 2626TIP3    H129437   0.418   4.365   1.068  1.3451 -1.4436  0.9285
 2626TIP3    H229438   0.314   4.270   1.013  0.4684  1.2370 -2.4296
 2627TIP3   OH229439   5.409   2.215   1.994  0.1515  0.0974  0.0920
 2627TIP3    H129440   5.369   2.282   1.940  1.6957  0.3152 -0.8286
 2627TIP3    H229441   5.376   2.133   1.960 -1.7239  0.3386  1.2031
 2628TIP3   OH229442   0.960   1.599   2.999  0.0576  0.7167  0.5729
 2628TIP3    H129443   0.904   1.650   2.939 -0.6904  1.6050  1.9712
 2628TIP3    H229444   0.909   1.593   3.080  0.3819 -1.8145  0.6613
 2629TIP3   OH229445   5.016   2.734   8.434  0.0346  0.4121  0.1444
 2629TIP3    H129446   5.084   2.708   8.496  0.5676  0.6021 -0.3491
 2629TIP3    H229447   4.979   2.814   8.471  0.6368  0.7594  0.0125
 2630TIP3   OH229448   6.626   3.189   1.821  0.3815 -0.4610  1.2934
 2630TIP3    H129449   6.648   3.282   1.813  1.6367 -0.6711  2.0489
 2630TIP3    H229450   6.576   3.182   1.902 -0.6156 -0.3168  0.7137
 2631TIP3   OH229451   0.473   1.609   1.245  0.5336  0.4102 -0.4171
 2631TIP3    H129452   0.565   1.630   1.258  0.6593  1.1709 -2.2220
 2631TIP3    H229453   0.454   1.543   1.311  2.5389 -0.2129 -0.3826
 2632TIP3   OH229454   4.035   1.724   1.633  0.1342  0.5741  0.2759
 2632TIP3    H129455   4.085   1.720   1.715 -1.4758 -0.9535  1.2710
 2632TIP3    H229456   3.965   1.786   1.651 -0.4632 -0.0747  0.2194
 2633TIP3   OH229457   2.344   6.070   2.192  0.5830  0.1522 -0.1878
 2633TIP3    H129458   2.312   6.157   2.169  2.1618  0.9853  0.6472
 2633TIP3    H229459   2.384   6.080   2.278 -0.3384 -1.6983  0.5130
 2634TIP3   OH229460   0.641   6.309   7.039  0.7644 -0.7674  0.3250
 2634TIP3    H129461   0.590   6.302   7.120 -1.7005  0.8587 -0.9647
 2634TIP3    H229462   0.695   6.229   7.038 -0.3312 -1.6406  2.7327
 2635TIP3   OH229463   5.110   6.589   0.709 -0.0879  0.3779  0.3804
 2635TIP3    H129464   5.088   6.518   0.770  0.6220  0.1897  0.4219
 2635TIP3    H229465   5.118   6.667   0.764  0.9856  0.1248  0.5997
 2636TIP3   OH229466   0.110   1.630   0.822  0.3998  0.0541 -0.5013
 2636TIP3    H129467   0.060   1.648   0.742 -0.5028 -1.2952 -0.2785
 2636TIP3    H229468   0.047   1.643   0.893  0.6069 -0.7952 -0.1516
 2637TIP3   OH229469   4.308   0.542   0.434  0.2703  0.4303 -0.4502
 2637TIP3    H129470   4.247   0.540   0.360  0.1074 -0.8447 -0.3124
 2637TIP3    H229471   4.389   0.504   0.398  0.7070  1.2833 -0.3925
 2638TIP3   OH229472   0.071   2.382   8.221  0.0555  0.1259  0.3148
 2638TIP3    H129473   0.053   2.344   8.307 -1.3452  1.9935  0.9109
 2638TIP3    H229474   0.068   2.308   8.161 -3.2707 -0.6980  1.3111
 2639TIP3   OH229475   5.864   2.890   8.234  0.1031  0.1669 -0.1305
 2639TIP3    H129476   5.773   2.866   8.253  0.3618 -1.4786 -0.8049
 2639TIP3    H229477   5.863   2.986   8.228 -0.9348  0.4741  3.0822
 2640TIP3   OH229478   3.826   2.131   7.438  0.1654 -0.1606 -0.2577
 2640TIP3    H129479   3.754   2.069   7.448  0.5944 -0.8304 -1.2210
 2640TIP3    H229480   3.787   2.205   7.392 -0.0133 -0.3081 -0.3456
 2641TIP3   OH229481   1.502   0.622   3.000 -0.0811 -0.3563  0.1786
 2641TIP3    H129482   1.461   0.536   2.990 -1.1955  0.3476 -1.7239
 2641TIP3    H229483   1.440   0.683   2.961  1.9633  0.9818 -1.1349
 2642TIP3   OH229484   5.487   6.644   7.551  0.2379  0.4869  0.3594
 2642TIP3    H129485   5.575   6.664   7.518  0.0537  0.0069 -0.4274
 2642TIP3    H229486   5.428   6.684   7.488 -0.1838 -3.1561 -1.8142
 2643TIP3   OH229487   0.595   3.134   0.019  0.5170 -0.1810  0.3715
 2643TIP3    H129488   0.598   3.050   0.065 -2.9629 -0.9305 -0.4956
 2643TIP3    H229489   0.502   3.154   0.011  1.1612  2.7068 -1.3814
 2644TIP3   OH229490   4.729   4.117   7.497 -0.2126  0.0594 -0.0710
 2644TIP3    H129491   4.698   4.196   7.453 -0.4788 -0.4358 -0.7971
 2644TIP3    H229492   4.659   4.053   7.482  0.0288 -0.3353  0.4575
 2645TIP3   OH229493   6.048   2.625   0.290 -0.0071 -0.1303  0.0953
 2645TIP3    H129494   6.117   2.691   0.298 -0.4529  0.5628 -1.3070
 2645TIP3    H229495   6.013   2.616   0.378 -0.1462  1.7824  0.2813
 2646TIP3   OH229496   1.926   0.987   0.534 -0.2263 -0.4454 -0.1094
 2646TIP3    H129497   1.988   0.988   0.461  0.0091 -0.3756  0.0910
 2646TIP3    H229498   1.981   0.987   0.613 -0.4751 -0.9275  0.0674
 2647TIP3   OH229499   1.800   5.817   2.646 -0.0828 -0.1377 -0.7424
 2647TIP3    H129500   1.850   5.880   2.698 -0.1917 -0.9902  0.4464
 2647TIP3    H229501   1.791   5.741   2.704  0.7676 -1.5727 -2.4090
 2648TIP3   OH229502   5.065   3.499   7.606  0.5841 -0.2893 -0.2189
 2648TIP3    H129503   5.054   3.569   7.672  1.8098 -0.0466 -0.2310
 2648TIP3    H229504   5.132   3.442   7.644  2.8206  0.9271 -2.0399
 2649TIP3   OH229505   1.007   3.920   1.360 -0.1736  0.2889  0.2596
 2649TIP3    H129506   1.066   3.956   1.294 -0.2578  1.3886  0.7720
 2649TIP3    H229507   1.042   3.833   1.378  1.1611  0.8364  0.4064
 2650TIP3   OH229508   1.336   5.468   0.069  0.0677 -0.3263 -0.1193
 2650TIP3    H129509   1.348   5.416  -0.010 -2.9032 -0.4383 -0.6195
 2650TIP3    H229510   1.260   5.428   0.113  1.2034  0.1453  2.4698
 2651TIP3   OH229511   2.466   2.015   2.115 -0.0307  0.2074 -0.6935
 2651TIP3    H129512   2.495   2.044   2.201  0.8975 -0.7173 -0.6736
 2651TIP3    H229513   2.546   1.988   2.070 -0.6051 -0.2439 -1.4821
 2652TIP3   OH229514   0.736   5.827   7.942 -0.6691 -0.3514 -0.3317
 2652TIP3    H129515   0.823   5.864   7.952 -0.4302 -0.9993  0.0895
 2652TIP3    H229516   0.679   5.883   7.994 -0.1969 -0.9713  0.8791
 2653TIP3   OH229517   4.689   3.681   1.526  0.5302 -0.1748 -0.3696
 2653TIP3    H129518   4.749   3.756   1.523 -1.0864  1.3950  2.3922
 2653TIP3    H229519   4.642   3.691   1.609 -3.7390 -1.1046 -2.3920
 2654TIP3   OH229520   1.871   2.766   1.831 -0.1405 -0.4536  0.0085
 2654TIP3    H129521   1.958   2.807   1.823 -0.1978 -0.2801  0.2908
 2654TIP3    H229522   1.890   2.676   1.856 -0.0891 -0.0141  1.6306
 2655TIP3   OH229523   1.681   1.562   2.771 -0.0301 -0.0884 -0.5124
 2655TIP3    H129524   1.622   1.495   2.805  0.0907 -0.2125 -0.5477
 2655TIP3    H229525   1.721   1.601   2.849 -0.4283  0.2439 -0.4692
 2656TIP3   OH229526   6.677   5.862   2.114  0.2538  0.3306  0.2639
 2656TIP3    H129527   6.583   5.853   2.130 -0.3721  1.1575 -2.3241
 2656TIP3    H229528   6.710   5.913   2.188 -1.8261  1.9718  0.1516
 2657TIP3   OH229529   2.821   4.085   7.344 -0.0362  0.4166 -0.3910
 2657TIP3    H129530   2.879   4.160   7.335 -0.7440  0.9620 -0.4108
 2657TIP3    H229531   2.750   4.100   7.282 -0.2925 -0.1668 -0.2556
 2658TIP3   OH229532   2.863   1.283   0.002 -0.2449 -0.0634 -0.5542
 2658TIP3    H129533   2.911   1.216  -0.048 -1.5632  0.5535 -2.8052
 2658TIP3    H229534   2.871   1.255   0.093  3.6056 -0.4391 -0.8466
 2659TIP3   OH229535   5.619   1.928   7.853  0.3836 -0.1295  0.1522
 2659TIP3    H129536   5.593   1.970   7.934  0.5511 -0.2117  0.2490
 2659TIP3    H229537   5.694   1.873   7.877 -0.1132 -0.8348  0.1173
 2660TIP3   OH229538   4.947   6.799   8.487 -0.2197  0.2390  0.0500
 2660TIP3    H129539   4.870   6.808   8.542 -0.5230  0.7572 -0.4508
 2660TIP3    H229540   4.980   6.711   8.506 -1.9138 -0.6582 -0.9843
 2661TIP3   OH229541   5.205   4.040   1.795  0.4385  0.3405  0.2042
 2661TIP3    H129542   5.233   3.951   1.776  0.7235  0.7631 -1.4610
 2661TIP3    H229543   5.110   4.033   1.807  0.2992 -0.0455 -0.9878
 2662TIP3   OH229544   2.058   3.550   0.845  0.3794  0.8361 -0.0571
 2662TIP3    H129545   2.100   3.497   0.912 -1.3806  0.3908  0.7488
 2662TIP3    H229546   2.004   3.612   0.893  2.5957  3.6796 -0.9609
 2663TIP3   OH229547   3.944   6.333   1.529  0.0357 -0.2436 -0.3314
 2663TIP3    H129548   3.859   6.357   1.494 -0.1787 -1.8281 -0.9961
 2663TIP3    H229549   3.964   6.248   1.489  2.6737  0.8028 -1.4501
 2664TIP3   OH229550   0.752   0.411   0.349  1.0220  0.1065 -1.0213
 2664TIP3    H129551   0.692   0.417   0.274  2.2752 -1.0505 -2.1807
 2664TIP3    H229552   0.835   0.445   0.315  1.3760  0.4634  0.1614
 2665TIP3   OH229553   2.743   4.044   7.948 -0.0160 -0.0705  0.0302
 2665TIP3    H129554   2.787   4.031   8.032 -0.0467 -2.0624 -0.2108
 2665TIP3    H229555   2.802   4.102   7.899  0.0525  1.0202  1.3550
 2666TIP3   OH229556   4.697   6.072   8.311  0.0345 -0.1360  0.8701
 2666TIP3    H129557   4.723   6.164   8.323  1.3677 -0.1208 -1.4818
 2666TIP3    H229558   4.757   6.023   8.369  2.5236  0.2443 -1.1860
 2667TIP3   OH229559   0.581   5.979   1.071 -0.2068 -0.5458 -0.1619
 2667TIP3    H129560   0.537   5.941   1.147 -2.4049  0.0656 -1.0410
 2667TIP3    H229561   0.546   5.931   0.997 -0.1883  0.6739 -0.9912
 2668TIP3   OH229562   0.303   2.048   7.442 -0.1837  0.2397 -0.2310
 2668TIP3    H129563   0.239   2.114   7.413  0.7664  0.5000 -1.8585
 2668TIP3    H229564   0.275   1.967   7.399  0.8495  0.4792 -1.4245
 2669TIP3   OH229565   6.438   6.182   0.061 -0.2602 -0.0533 -0.6049
 2669TIP3    H129566   6.353   6.225   0.054  0.0144  0.6621  0.2151
 2669TIP3    H229567   6.501   6.250   0.034  0.0801 -0.3956 -0.6745
 2670TIP3   OH229568   6.315   1.316   0.521  0.0119  0.2594 -0.8113
 2670TIP3    H129569   6.310   1.232   0.566 -0.3983  0.7256  0.0487
 2670TIP3    H229570   6.239   1.317   0.463 -0.1545  0.1604 -0.5964
 2671TIP3   OH229571   5.569   1.039   1.139 -0.3825 -0.2719  0.0959
 2671TIP3    H129572   5.555   1.081   1.054  0.1741  0.9067  0.5655
 2671TIP3    H229573   5.491   1.062   1.190  0.8761  2.1336  1.0817
 2672TIP3   OH229574   4.117   1.143   1.686 -0.0976  0.0180  0.2433
 2672TIP3    H129575   4.168   1.224   1.680 -0.7271  0.3725 -0.6059
 2672TIP3    H229576   4.154   1.096   1.761  0.6512  0.8290  0.3941
 2673TIP3   OH229577   2.081   1.966   7.883  0.3328  0.1814 -0.2813
 2673TIP3    H129578   2.000   1.998   7.843 -1.2358 -0.8702  1.8179
 2673TIP3    H229579   2.055   1.941   7.972  2.6069 -1.7466 -0.0530
 2674TIP3   OH229580   5.976   5.338   8.514  0.0723 -0.2227  0.3774
 2674TIP3    H129581   6.046   5.348   8.450 -1.2902 -1.4077 -1.3761
 2674TIP3    H229582   6.022   5.319   8.596  1.8779  1.5670 -0.1069
 2675TIP3   OH229583   3.191   6.556   1.549 -0.0757  0.3496 -0.1783
 2675TIP3    H129584   3.190   6.485   1.485  2.0184  1.7813 -1.9467
 2675TIP3    H229585   3.164   6.515   1.631  1.8806 -2.7136 -0.9028
 2676TIP3   OH229586   2.140   0.898   1.713 -0.1379 -0.4835  0.1441
 2676TIP3    H129587   2.149   0.979   1.664 -0.2769  0.5110  1.7185
 2676TIP3    H229588   2.230   0.873   1.735 -0.1057 -0.6901 -0.2083
 2677TIP3   OH229589   0.852   0.324   1.239  0.3848  0.5697 -0.1524
 2677TIP3    H129590   0.760   0.300   1.248  0.2856  0.9840 -0.0373
 2677TIP3    H229591   0.900   0.243   1.256  0.0829  0.6282  1.0233
 2678TIP3   OH229592   0.582   1.148   0.456  0.6189  0.6455 -0.1623
 2678TIP3    H129593   0.656   1.144   0.518  0.9855  2.6851 -0.3959
 2678TIP3    H229594   0.528   1.072   0.479  2.6249 -0.7713  0.1894
 2679TIP3   OH229595   6.571   4.331   1.671  0.5647 -0.7518 -0.2134
 2679TIP3    H129596   6.638   4.326   1.738  1.8513 -1.2473 -1.4832
 2679TIP3    H229597   6.519   4.251   1.682  1.7098 -1.5944 -0.7283
 2680TIP3   OH229598   0.653   3.346   8.210  0.6065  0.0313  0.3265
 2680TIP3    H129599   0.560   3.326   8.218  0.6057 -0.5075 -0.7582
 2680TIP3    H229600   0.661   3.385   8.123  1.3379  0.4308  0.5639
 2681TIP3   OH229601   4.770   4.940   1.346 -0.1776 -0.5419  0.4292
 2681TIP3    H129602   4.695   4.943   1.287 -1.0067  0.6504  1.5041
 2681TIP3    H229603   4.734   4.910   1.429  0.3473  0.8710  1.1955
 2682TIP3   OH229604   5.013   3.812   2.069 -0.2552  0.5039 -0.0285
 2682TIP3    H129605   5.001   3.717   2.074 -0.2980  0.4542 -0.9156
 2682TIP3    H229606   5.097   3.828   2.113 -0.7470  0.1878  1.0576
 2683TIP3   OH229607   3.480   5.622   1.329  0.2113  0.2740  0.0667
 2683TIP3    H129608   3.422   5.661   1.264 -0.4371 -0.3992  0.2215
 2683TIP3    H229609   3.484   5.687   1.399 -0.9466  0.0401  0.3755
 2684TIP3   OH229610   3.844   1.403   7.417 -0.1554  0.0587  0.7139
 2684TIP3    H129611   3.805   1.345   7.352  0.1777  1.3219 -0.6690
 2684TIP3    H229612   3.805   1.489   7.400  0.6961  0.6317  1.5271
 2685TIP3   OH229613   3.914   5.462   0.658  0.6343 -0.2061 -0.5885
 2685TIP3    H129614   3.993   5.444   0.708 -0.3541  0.4198  1.3135
 2685TIP3    H229615   3.886   5.548   0.689 -2.2807 -1.5577  0.9146
 2686TIP3   OH229616   6.161   3.657   1.632 -0.4562  0.5145  0.3411
 2686TIP3    H129617   6.254   3.679   1.622 -0.8873  1.5754 -2.0442
 2686TIP3    H229618   6.145   3.590   1.566 -1.2272 -0.3603  1.3658
 2687TIP3   OH229619   6.191   6.829   0.454  0.2708 -0.0432 -0.3055
 2687TIP3    H129620   6.172   6.736   0.449  1.6848 -0.4020  0.5552
 2687TIP3    H229621   6.246   6.839   0.531  0.8644  1.3868 -0.8698
 2688TIP3   OH229622   3.016   6.705   8.266  0.2718  0.4333 -0.1490
 2688TIP3    H129623   3.035   6.708   8.172  1.2449 -0.7186 -0.0040
 2688TIP3    H229624   2.991   6.795   8.288 -1.4902  0.4084 -1.8073
 2689TIP3   OH229625   3.216   1.494   7.371  0.5651  0.1409  0.2758
 2689TIP3    H129626   3.246   1.501   7.280  3.7571  0.5062  1.2361
 2689TIP3    H229627   3.183   1.581   7.392  2.4531  0.8982  0.2476
 2690TIP3   OH229628   6.028   1.507   1.940  0.7134  0.6875  0.4718
 2690TIP3    H129629   6.078   1.557   1.876  0.0140  0.7487 -0.0316
 2690TIP3    H229630   5.940   1.501   1.903  0.5917 -0.2499  0.8993
 2691TIP3   OH229631   0.305   6.823   8.302  0.1621 -0.2188 -0.2534
 2691TIP3    H129632   0.304   6.743   8.250  0.2304 -0.0640 -0.4944
 2691TIP3    H229633   0.220   6.824   8.347  0.6626 -1.0714  0.7533
 2692TIP3   OH229634   5.572   4.581   0.822 -0.3630  0.0118 -0.2486
 2692TIP3    H129635   5.624   4.596   0.902 -0.5879  2.8700 -0.5323
 2692TIP3    H229636   5.589   4.490   0.800  2.3602  0.0422  1.2256
 2693TIP3   OH229637   3.542   3.631   2.191 -0.7940  0.2750 -0.2903
 2693TIP3    H129638   3.559   3.538   2.202 -2.1110  0.0181 -0.2015
 2693TIP3    H229639   3.534   3.665   2.280 -1.8117  0.1576 -0.3275
 2694TIP3   OH229640   6.020   1.871   0.080 -0.0451  0.2780 -0.4936
 2694TIP3    H129641   5.929   1.877   0.107 -0.7385  1.7446 -2.8363
 2694TIP3    H229642   6.057   1.958   0.099  0.2950  0.3182 -1.2648
 2695TIP3   OH229643   6.459   5.761   0.111 -0.4424  0.4679 -0.5395
 2695TIP3    H129644   6.385   5.743   0.053 -2.5039 -1.0618  2.3430
 2695TIP3    H229645   6.445   5.705   0.187  3.8850 -0.1309  0.0925
 2696TIP3   OH229646   0.831   3.340   0.615 -0.6045 -0.4346  0.6626
 2696TIP3    H129647   0.744   3.347   0.577 -0.0386  1.4325 -0.4215
 2696TIP3    H229648   0.885   3.303   0.545 -0.4335 -1.2672  1.2156
 2697TIP3   OH229649   3.156   1.128   7.479  0.7082 -0.0739 -0.5421
 2697TIP3    H129650   3.195   1.166   7.400 -0.9954 -1.9006 -2.3635
 2697TIP3    H229651   3.062   1.126   7.462 -0.0123  1.4242  2.4804
 2698TIP3   OH229652   6.682   6.755   2.648 -0.1901  0.0693 -0.3630
 2698TIP3    H129653   6.677   6.801   2.731 -1.7147  0.6491 -0.7461
 2698TIP3    H229654   6.717   6.669   2.670 -0.5856  0.2095  0.8823
 2699TIP3   OH229655   2.598   2.364   2.131  0.1119  0.3404  0.0871
 2699TIP3    H129656   2.627   2.389   2.219 -0.2754 -1.0661  0.6501
 2699TIP3    H229657   2.509   2.399   2.124  0.3113  0.8501  0.0735
 2700TIP3   OH229658   0.158   1.842   0.439  0.1388 -0.5984 -0.2867
 2700TIP3    H129659   0.104   1.921   0.429 -0.0321 -0.8650 -1.6928
 2700TIP3    H229660   0.245   1.868   0.408 -0.1106 -1.1385 -1.5321
 2701TIP3   OH229661   1.059   3.788   1.822 -0.1140 -0.1287 -0.0553
 2701TIP3    H129662   1.115   3.789   1.744 -0.6243  0.8363 -0.4191
 2701TIP3    H229663   0.983   3.841   1.798 -0.0665  0.5779  1.2577
 2702TIP3   OH229664   2.253   1.338   2.300 -0.5101 -0.0580  0.1601
 2702TIP3    H129665   2.166   1.347   2.339  0.0890  1.2575  1.2707
 2702TIP3    H229666   2.241   1.361   2.208 -1.8108 -2.5202 -0.3843
 2703TIP3   OH229667   5.010   3.510   0.382  0.0204 -0.7860 -0.5026
 2703TIP3    H129668   4.924   3.491   0.346  0.4433 -1.1918 -1.3511
 2703TIP3    H229669   5.070   3.500   0.307  0.8527 -0.9494  0.1630
 2704TIP3   OH229670   0.003   4.090   7.559 -0.2562 -0.5861  0.3734
 2704TIP3    H129671  -0.013   4.090   7.653  0.2733 -1.6782  0.4835
 2704TIP3    H229672   0.077   4.149   7.547  0.2264 -1.1093  0.7522
 2705TIP3   OH229673   5.104   0.912   7.612  0.0968  0.2622 -0.0371
 2705TIP3    H129674   5.148   0.942   7.692  1.3174 -0.5346 -0.3851
 2705TIP3    H229675   5.078   0.992   7.567  3.1913  0.8810 -0.9184
 2706TIP3   OH229676   6.634   4.373   1.386 -0.0353 -0.1008 -0.0980
 2706TIP3    H129677   6.587   4.368   1.469  0.9913 -0.1269  0.5044
 2706TIP3    H229678   6.643   4.467   1.368  0.7715 -0.0607  0.4465
 2707TIP3   OH229679   5.031   5.426   8.243 -0.0277  0.0313 -0.0682
 2707TIP3    H129680   4.993   5.365   8.180 -1.7502  2.2180 -1.2847
 2707TIP3    H229681   5.117   5.388   8.264 -0.5897 -2.2383 -1.4816
 2708TIP3   OH229682   6.102   6.201   0.903  0.5661  0.4506  0.2462
 2708TIP3    H129683   6.045   6.241   0.968 -1.9168 -1.9026 -0.3099
 2708TIP3    H229684   6.172   6.161   0.954 -0.7077 -0.3708  1.4075
 2709TIP3   OH229685   2.933   2.284   0.050 -0.6656  0.0599  0.8903
 2709TIP3    H129686   3.009   2.331   0.085 -0.8344  1.1628 -0.1740
 2709TIP3    H229687   2.861   2.346   0.057 -1.1011 -0.3704  0.3017
 2710TIP3   OH229688   5.062   6.497   2.101 -0.4459 -0.4797  0.0971
 2710TIP3    H129689   4.986   6.548   2.131  1.0708  1.3326  1.1192
 2710TIP3    H229690   5.124   6.564   2.072  0.9355 -1.8987 -0.2994
 2711TIP3   OH229691   5.228   6.466   7.958  0.1243  0.6308 -0.1375
 2711TIP3    H129692   5.162   6.409   7.999 -1.2603  1.5478 -0.9924
 2711TIP3    H229693   5.301   6.467   8.020 -0.3575 -0.9825  0.5182
 2712TIP3   OH229694   6.877   4.987   2.080 -0.0722 -0.4101  0.3950
 2712TIP3    H129695   6.790   4.979   2.040  0.2283  1.5498 -0.8027
 2712TIP3    H229696   6.903   5.077   2.061  2.0154 -0.8066  1.1768
 2713TIP3   OH229697   0.736   5.020   3.070 -0.3870 -0.3538  0.1844
 2713TIP3    H129698   0.787   5.100   3.084 -1.5584  0.1454  1.7258
 2713TIP3    H229699   0.802   4.955   3.045  0.7605  0.7383  0.2472
 2714TIP3   OH229700   1.776   3.547   7.577  0.0245 -0.1758 -0.1730
 2714TIP3    H129701   1.728   3.630   7.584  2.2894  1.3611 -1.5567
 2714TIP3    H229702   1.768   3.508   7.663 -1.4937  1.2588  0.3981
 2715TIP3   OH229703   1.155   3.362   1.642  0.5832  0.3659 -0.2513
 2715TIP3    H129704   1.200   3.426   1.697  0.9793  0.3282 -0.5264
 2715TIP3    H229705   1.068   3.399   1.628  0.8950  0.9641 -0.6264
 2716TIP3   OH229706   6.726   6.351   7.253 -0.0723  0.2801  0.4413
 2716TIP3    H129707   6.748   6.310   7.336  2.4323  2.4152  0.9351
 2716TIP3    H229708   6.722   6.445   7.271 -3.0638  0.6042 -1.1710
 2717TIP3   OH229709   4.162   0.533   7.171  1.2963 -0.1148  0.5735
 2717TIP3    H129710   4.204   0.471   7.112 -0.3859 -1.6559  0.9272
 2717TIP3    H229711   4.123   0.599   7.112  1.8775 -0.1673  0.1221
 2718TIP3   OH229712   1.609   1.883   8.479  0.5689  0.0002  0.2707
 2718TIP3    H129713   1.685   1.836   8.443  0.4871 -0.3804  0.5838
 2718TIP3    H229714   1.564   1.918   8.402  0.4895 -0.6688 -0.0002
 2719TIP3   OH229715   3.719   5.434   1.338  0.4619  0.0333  0.6153
 2719TIP3    H129716   3.725   5.526   1.309 -0.4252  0.6875  2.3684
 2719TIP3    H229717   3.641   5.400   1.293  1.6707 -0.4046 -1.2867
 2720TIP3   OH229718   4.174   1.127   1.157  0.0773  0.2100 -0.2846
 2720TIP3    H129719   4.164   1.040   1.118 -0.5896  0.0119  0.3052
 2720TIP3    H229720   4.115   1.126   1.232  1.7116  0.4149  1.0523
 2721TIP3   OH229721   2.254   1.603   1.388  0.0948 -0.1446  0.3153
 2721TIP3    H129722   2.311   1.613   1.312  0.6331 -0.1849  0.7094
 2721TIP3    H229723   2.175   1.653   1.366 -0.7328 -2.0312 -1.2350
 2722TIP3   OH229724   0.444   3.462   2.773  0.1695  0.1182 -0.0025
 2722TIP3    H129725   0.450   3.371   2.801 -1.9533  0.1164  0.6292
 2722TIP3    H229726   0.363   3.466   2.723 -0.4872  1.9255  1.1001
 2723TIP3   OH229727   2.317   4.037   2.626  0.1188  0.2140 -0.1860
 2723TIP3    H129728   2.239   4.015   2.676 -0.4557 -0.3753 -1.2903
 2723TIP3    H229729   2.386   3.980   2.661 -0.5034 -0.8688 -0.6724
 2724TIP3   OH229730   2.602   6.450   2.929 -0.0536  0.5119 -0.3731
 2724TIP3    H129731   2.555   6.396   2.865 -0.6955  2.1337 -1.3110
 2724TIP3    H229732   2.695   6.429   2.914 -0.3447 -2.1575  0.9983
 2725TIP3   OH229733   3.482   3.531   1.192 -0.1912  0.9559 -0.8176
 2725TIP3    H129734   3.419   3.461   1.179  0.7147  0.1126 -0.8324
 2725TIP3    H229735   3.467   3.561   1.281 -0.8754  1.0507 -0.9591
 2726TIP3   OH229736   3.990   0.756   7.892  0.0454 -0.0960  0.0591
 2726TIP3    H129737   4.081   0.783   7.889 -0.1306  0.4979 -0.1237
 2726TIP3    H229738   3.955   0.799   7.970  0.0456 -0.7296  0.4149
 2727TIP3   OH229739   2.479   1.484   8.383  0.0952 -0.1527 -0.6458
 2727TIP3    H129740   2.503   1.559   8.437 -0.7002 -0.3562  0.0219
 2727TIP3    H229741   2.538   1.488   8.308  0.2463  0.9786 -0.4828
 2728TIP3   OH229742   5.467   0.233   8.148 -0.7757 -0.4605 -0.4655
 2728TIP3    H129743   5.396   0.274   8.198 -0.6378  0.2711 -0.8514
 2728TIP3    H229744   5.542   0.236   8.207 -0.8162 -0.3383 -0.4203
 2729TIP3   OH229745   2.866   2.110   7.691 -0.3871  0.5459 -0.1091
 2729TIP3    H129746   2.836   2.050   7.759  3.2309 -0.3534  0.8720
 2729TIP3    H229747   2.889   2.054   7.617  0.2075  1.0072 -0.2858
 2730TIP3   OH229748   0.890   5.620   2.137 -0.5474 -0.3566  0.7301
 2730TIP3    H129749   0.959   5.608   2.071  0.2823 -1.9549  1.7872
 2730TIP3    H229750   0.895   5.540   2.190 -1.0451  0.9289  2.8286
 2731TIP3   OH229751   1.618   0.736   1.778 -0.0296 -0.1680 -0.3243
 2731TIP3    H129752   1.571   0.653   1.776  2.0827 -1.5867  1.9489
 2731TIP3    H229753   1.635   0.752   1.871  1.2499  1.8317 -0.8250
 2732TIP3   OH229754   6.780   3.287   7.738 -0.0311  0.4462  0.2222
 2732TIP3    H129755   6.842   3.227   7.780 -1.0114 -0.4600  0.4260
 2732TIP3    H229756   6.777   3.363   7.795  0.8046  0.4494  0.2678
 2733TIP3   OH229757   2.965   3.148   1.123 -0.5283  0.2233  0.7347
 2733TIP3    H129758   2.955   3.217   1.189  1.3849  0.5385  0.7536
 2733TIP3    H229759   3.046   3.103   1.148 -0.4831 -0.5112 -0.6527
 2734TIP3   OH229760   3.238   0.577   0.945  0.2527 -0.0706 -0.1151
 2734TIP3    H129761   3.204   0.653   0.990  0.3390  0.7545 -1.3916
 2734TIP3    H229762   3.308   0.611   0.889  1.8336 -1.4115  0.9091
 2735TIP3   OH229763   0.700   1.568   8.212  0.0267  0.2492  0.3687
 2735TIP3    H129764   0.665   1.600   8.129  0.2938  1.9889  0.8759
 2735TIP3    H229765   0.708   1.473   8.201 -0.0783  0.4352 -1.5265
 2736TIP3   OH229766   4.099   4.484   1.090 -0.3196 -0.0767  0.7907
 2736TIP3    H129767   4.174   4.494   1.031 -0.6652  2.1903  0.6328
 2736TIP3    H229768   4.024   4.468   1.031 -0.3149 -0.0770  0.7849
 2737TIP3   OH229769   1.676   3.457   1.317  0.0020 -0.3234 -0.1146
 2737TIP3    H129770   1.679   3.546   1.352  2.0606  0.2361 -1.5196
 2737TIP3    H229771   1.611   3.412   1.371  1.9786  0.7954  3.5233
 2738TIP3   OH229772   4.961   2.987   1.738  0.2123 -0.0796 -0.2292
 2738TIP3    H129773   5.050   3.005   1.767 -0.1632  1.5159  0.0472
 2738TIP3    H229774   4.946   2.895   1.760  1.5194 -0.1526  0.4143
 2739TIP3   OH229775   3.166   1.766   8.287 -0.3527 -0.0776 -0.3710
 2739TIP3    H129776   3.256   1.791   8.307  0.1293 -2.1011  0.2978
 2739TIP3    H229777   3.167   1.743   8.194 -0.5211  1.1526 -0.6910
 2740TIP3   OH229778   0.985   2.608   1.810  0.5690  0.4072  0.1315
 2740TIP3    H129779   0.946   2.573   1.891  0.8944 -0.1469  0.0560
 2740TIP3    H229780   1.028   2.689   1.837 -1.8445  1.8237 -0.0519
 2741TIP3   OH229781   3.994   5.188   1.283 -0.7874  0.2024 -0.5723
 2741TIP3    H129782   3.977   5.098   1.311  0.7419  0.5529  1.7528
 2741TIP3    H229783   3.915   5.236   1.304 -2.0837 -0.7289 -2.9182
 2742TIP3   OH229784   0.851   2.835   7.988  0.1513 -0.0022 -0.2813
 2742TIP3    H129785   0.908   2.796   7.921 -1.0730 -1.5445 -0.4925
 2742TIP3    H229786   0.856   2.774   8.062  1.2848  1.5510  0.9933
 2743TIP3   OH229787   0.858   2.483   2.657  0.4704  0.1062 -0.3265
 2743TIP3    H129788   0.774   2.450   2.623  1.7268 -2.1165 -1.4539
 2743TIP3    H229789   0.883   2.551   2.594 -0.2163  0.4108 -0.2838
 2744TIP3   OH229790   2.047   4.691   1.043  0.4934 -0.9444  0.6510
 2744TIP3    H129791   2.040   4.770   0.989 -1.4304  0.7864  3.1954
 2744TIP3    H229792   2.139   4.690   1.071  0.9068 -0.4910 -0.6104
 2745TIP3   OH229793   4.447   5.614   0.680 -0.3198 -0.4261 -0.1982
 2745TIP3    H129794   4.516   5.681   0.682 -0.6267  0.0212 -2.0828
 2745TIP3    H229795   4.494   5.531   0.676  0.0948 -0.2214  0.4027
 2746TIP3   OH229796   6.708   0.502   0.480  0.0030 -0.1921 -0.0921
 2746TIP3    H129797   6.701   0.467   0.391 -1.2134  0.2224 -0.1811
 2746TIP3    H229798   6.621   0.490   0.517  0.0259  1.1740  0.4554
 2747TIP3   OH229799   1.403   1.110   6.864 -0.0001  0.2285 -0.5044
 2747TIP3    H129800   1.429   1.064   6.944 -0.9500  1.6437  0.6747
 2747TIP3    H229801   1.364   1.042   6.809 -0.8948 -0.4931  0.9704
 2748TIP3   OH229802   2.968   4.347   8.360  0.2177 -0.1881  0.1594
 2748TIP3    H129803   3.017   4.408   8.415 -0.1994  0.9775 -0.7371
 2748TIP3    H229804   3.029   4.275   8.343  0.7120 -0.0393  1.2194
 2749TIP3   OH229805   6.309   6.665   0.977 -0.3381 -0.2075  0.8693
 2749TIP3    H129806   6.390   6.700   1.015  0.6440 -1.5536  0.1409
 2749TIP3    H229807   6.330   6.655   0.884 -1.7655  0.5372  0.4586
 2750TIP3   OH229808   1.555   3.835   7.846  0.0098  0.0402  0.1079
 2750TIP3    H129809   1.615   3.818   7.918  0.2425 -1.4737 -0.4148
 2750TIP3    H229810   1.543   3.930   7.846  0.9367  0.1707  1.3797
 2751TIP3   OH229811   0.776   1.098   0.646 -0.2268  0.6646  0.3764
 2751TIP3    H129812   0.797   1.018   0.694 -0.1922  0.5402  0.1521
 2751TIP3    H229813   0.849   1.110   0.586  0.9716  2.1275  1.9962
 2752TIP3   OH229814   3.104   4.890   6.934  0.1901  0.0719  0.2515
 2752TIP3    H129815   3.131   4.911   6.844 -1.0893  1.1129  0.0784
 2752TIP3    H229816   3.076   4.974   6.970 -2.2129 -0.8029  0.5864
 2753TIP3   OH229817   4.359   1.489   1.025  0.6532 -0.0084  0.2696
 2753TIP3    H129818   4.266   1.474   1.012  0.8355 -0.1135 -1.0259
 2753TIP3    H229819   4.393   1.406   1.059  0.7489 -0.9743 -1.9878
 2754TIP3   OH229820   5.854   6.642   2.510  0.3687 -0.1479  0.9899
 2754TIP3    H129821   5.761   6.643   2.531  0.1032 -1.7742  0.0613
 2754TIP3    H229822   5.857   6.659   2.416  0.8530 -1.8499  0.6677
 2755TIP3   OH229823   4.297   3.994   8.046  0.0136  0.8371  0.6802
 2755TIP3    H129824   4.340   4.078   8.030  2.6169 -0.6276 -0.6175
 2755TIP3    H229825   4.213   4.002   8.001  0.3801  2.5832  0.2271
 2756TIP3   OH229826   0.371   0.971   0.719 -0.0739 -0.4500  0.0911
 2756TIP3    H129827   0.436   0.902   0.735 -1.3721 -1.6897  0.2828
 2756TIP3    H229828   0.331   0.946   0.635 -1.0988 -0.3939  0.5444
 2757TIP3   OH229829   2.002   5.645   1.840 -0.0418 -0.2400  0.3618
 2757TIP3    H129830   2.079   5.663   1.786 -0.4502  1.5271  0.3128
 2757TIP3    H229831   1.932   5.625   1.777 -0.6497  2.3230  0.1112
 2758TIP3   OH229832   6.549   1.974   8.119 -0.5285  0.3492 -0.2553
 2758TIP3    H129833   6.484   1.962   8.050  0.3791 -0.9211 -0.9162
 2758TIP3    H229834   6.622   1.918   8.094 -0.2719 -0.3463  1.8860
 2759TIP3   OH229835   1.702   5.620   2.375  0.4093 -0.5057 -0.0428
 2759TIP3    H129836   1.624   5.587   2.420  0.0986  2.1732  1.6277
 2759TIP3    H229837   1.674   5.631   2.285 -2.5209  3.5420  1.0453
 2760TIP3   OH229838   4.576   0.945   1.238  0.0534  0.0711 -0.3346
 2760TIP3    H129839   4.672   0.944   1.237  0.0537 -0.8871 -0.3064
 2760TIP3    H229840   4.553   1.031   1.203  0.9272  2.0159  3.3030
 2761TIP3   OH229841   5.142   1.356   2.026 -0.9320 -0.4063 -0.4405
 2761TIP3    H129842   5.149   1.264   2.001 -1.0037  0.2395 -3.1707
 2761TIP3    H229843   5.176   1.404   1.950 -1.7578  1.8373  0.5253
 2762TIP3   OH229844   1.848   3.268   0.845 -0.3939  0.4644  0.1561
 2762TIP3    H129845   1.796   3.267   0.925 -1.0204  1.3824 -0.2276
 2762TIP3    H229846   1.927   3.317   0.869  0.6928 -1.5675  0.9502
 2763TIP3   OH229847   3.072   5.333   1.246 -0.1490  0.1838  0.2381
 2763TIP3    H129848   3.159   5.337   1.207 -0.6787  0.3229 -0.9965
 2763TIP3    H229849   3.072   5.253   1.299 -0.2116 -1.5473 -2.1999
 2764TIP3   OH229850   5.337   0.688   1.604  0.0348  0.4815 -0.2161
 2764TIP3    H129851   5.396   0.648   1.667  0.1464  0.6356 -0.2215
 2764TIP3    H229852   5.256   0.637   1.610  0.0471  0.4943  0.0490
 2765TIP3   OH229853   6.107   4.786   1.363 -0.3280  0.3927  0.4018
 2765TIP3    H129854   6.074   4.874   1.347 -2.2586 -0.3077  0.1652
 2765TIP3    H229855   6.028   4.731   1.360  0.9585 -1.5035 -0.7147
 2766TIP3   OH229856   2.160   5.622   1.588 -0.1388 -0.1044  0.7366
 2766TIP3    H129857   2.121   5.698   1.544 -0.7010  0.1337  1.6068
 2766TIP3    H229858   2.115   5.547   1.550  0.1019  0.0237  0.1874
 2767TIP3   OH229859   4.142   2.222   2.864  1.0801 -0.0538  0.4709
 2767TIP3    H129860   4.145   2.132   2.832  0.2013 -0.0150  0.2405
 2767TIP3    H229861   4.184   2.273   2.795  0.7482 -0.1819  0.1671
 2768TIP3   OH229862   1.092   1.449   0.904 -0.6463 -0.1534  0.1266
 2768TIP3    H129863   1.062   1.400   0.827 -2.2417  1.0318 -0.0491
 2768TIP3    H229864   1.152   1.388   0.949 -1.1465 -1.5658 -1.0362
 2769TIP3   OH229865   6.092   3.345   7.672 -0.6575  0.3984  0.3663
 2769TIP3    H129866   6.045   3.281   7.618 -2.3498  1.4906  0.4523
 2769TIP3    H229867   6.173   3.362   7.626 -0.9863 -0.4891 -0.5656
 2770TIP3   OH229868   1.664   5.528   1.078  0.4100 -0.0377 -0.1701
 2770TIP3    H129869   1.605   5.462   1.043 -1.5233  0.3181  2.1363
 2770TIP3    H229870   1.629   5.547   1.166  2.1093  2.5124  0.0532
 2771TIP3   OH229871   1.545   5.229   1.621 -0.0487 -0.6288 -0.2328
 2771TIP3    H129872   1.533   5.241   1.527 -2.6198 -2.2024 -0.2133
 2771TIP3    H229873   1.456   5.228   1.656  0.8196 -0.6839  2.1505
 2772TIP3   OH229874   0.244   4.171   7.426 -0.8607  0.3426  0.4101
 2772TIP3    H129875   0.256   4.263   7.452  0.3420  0.6505 -1.0306
 2772TIP3    H229876   0.191   4.176   7.346 -1.1772 -0.2510  0.5825
 2773TIP3   OH229877   1.068   2.994   7.791 -0.1801  0.2860  0.2113
 2773TIP3    H129878   1.101   2.946   7.867  0.1986  0.0139 -0.1218
 2773TIP3    H229879   0.992   3.042   7.824 -3.2057 -3.6564 -0.2593
 2774TIP3   OH229880   3.804   5.259   8.180 -0.3713 -0.3015  0.0295
 2774TIP3    H129881   3.854   5.263   8.099 -0.1019 -0.4415  0.1906
 2774TIP3    H229882   3.869   5.268   8.250 -0.6195  0.0029  0.2303
 2775TIP3   OH229883   6.154   6.883   1.198  0.4512  0.2840 -0.0938
 2775TIP3    H129884   6.239   6.840   1.188 -0.4936 -1.7560  0.1376
 2775TIP3    H229885   6.172   6.960   1.252  2.1323 -0.1543  0.0158
 2776TIP3   OH229886   2.125   2.403   7.240  0.0095  0.1106  0.1761
 2776TIP3    H129887   2.041   2.440   7.216  0.0377  0.5569  0.7292
 2776TIP3    H229888   2.168   2.472   7.292  0.8469  0.0178 -0.3687
 2777TIP3   OH229889   5.513   5.513   8.535  0.3569  0.1289 -0.2636
 2777TIP3    H129890   5.506   5.607   8.550  1.3981  0.2650 -0.6161
 2777TIP3    H229891   5.423   5.486   8.514  0.3624  1.3852 -2.1108
 2778TIP3   OH229892   5.915   1.549   0.919  0.3952  0.3912 -0.3887
 2778TIP3    H129893   5.978   1.495   0.967  0.4674  1.4363  0.7382
 2778TIP3    H229894   5.967   1.619   0.881  0.0544  0.6725 -0.3378
 2779TIP3   OH229895   5.352   6.552   7.007 -0.1111 -0.0030  0.3444
 2779TIP3    H129896   5.304   6.496   6.946 -1.8274  0.4969  1.1624
 2779TIP3    H229897   5.324   6.522   7.094  0.5316  0.7846  0.8390
 2780TIP3   OH229898   4.327   4.052   2.183 -0.9373  0.1360 -0.2641
 2780TIP3    H129899   4.386   3.988   2.144 -1.3890 -0.6873  0.3528
 2780TIP3    H229900   4.384   4.122   2.214  0.0917 -1.8321  2.6906
 2781TIP3   OH229901   5.014   5.386   1.537  0.6189 -1.1540  0.2468
 2781TIP3    H129902   5.051   5.299   1.519 -0.3467 -1.5828  0.2905
 2781TIP3    H229903   4.926   5.382   1.501  0.4754 -0.2739  0.4935
 2782TIP3   OH229904   5.031   1.011   1.006  0.3541 -0.1926 -0.0890
 2782TIP3    H129905   5.059   1.070   1.076  1.5181  0.4255 -1.0415
 2782TIP3    H229906   5.100   0.946   1.000  2.0022  1.6041 -2.7729
 2783TIP3   OH229907   1.926   1.742   1.877  0.4099  0.7228  0.4584
 2783TIP3    H129908   1.986   1.703   1.815 -0.2915  0.0491  0.1822
 2783TIP3    H229909   1.884   1.667   1.920 -0.1460  1.1706  0.7182
 2784TIP3   OH229910   4.819   2.465   7.502  0.0668 -0.6058 -0.2937
 2784TIP3    H129911   4.818   2.538   7.564  1.3448  1.4978 -2.5754
 2784TIP3    H229912   4.728   2.437   7.497 -0.4844  0.8932  0.6178
 2785TIP3   OH229913   1.416   2.203   8.314  0.1711 -0.0594  0.4435
 2785TIP3    H129914   1.475   2.277   8.311  0.1837 -0.0893 -2.3200
 2785TIP3    H229915   1.332   2.237   8.283 -1.0905 -0.2655  3.2697
 2786TIP3   OH229916   4.352   1.320   1.746  0.3773  0.4491 -0.6013
 2786TIP3    H129917   4.392   1.407   1.752  1.0221  0.1297 -0.1114
 2786TIP3    H229918   4.420   1.261   1.778  0.0919 -0.2843 -1.3373
 2787TIP3   OH229919   6.237   6.364   0.057  0.0514 -0.5489  0.6914
 2787TIP3    H129920   6.164   6.424   0.039  0.1034  0.3405  3.1478
 2787TIP3    H229921   6.209   6.314   0.133  2.0856  0.0043  1.8752
 2788TIP3   OH229922   5.829   5.578   0.978 -0.2079 -0.5658 -0.3329
 2788TIP3    H129923   5.762   5.614   0.921  0.3627 -1.3567 -1.5456
 2788TIP3    H229924   5.790   5.580   1.065 -1.3743  0.0077 -0.8467
 2789TIP3   OH229925   5.617   0.199   2.160 -0.1039 -0.4945 -0.3311
 2789TIP3    H129926   5.699   0.248   2.168 -0.4696  0.3385 -1.3992
 2789TIP3    H229927   5.577   0.203   2.247  0.2089  0.5300 -0.2201
 2790TIP3   OH229928   0.169   4.043   7.866  0.0526 -0.4272 -0.4416
 2790TIP3    H129929   0.262   4.064   7.864  0.0768 -0.6179 -1.9144
 2790TIP3    H229930   0.163   3.955   7.831 -0.6835 -0.4345 -0.3214
 2791TIP3   OH229931   6.441   4.734   6.823 -0.1393  0.1586 -0.6519
 2791TIP3    H129932   6.460   4.788   6.747 -0.9172  1.4276  0.0271
 2791TIP3    H229933   6.363   4.773   6.862  0.2672 -0.4160  0.8294
 2792TIP3   OH229934   1.553   6.686   0.950 -0.0881  0.5276 -0.3172
 2792TIP3    H129935   1.469   6.707   0.991 -0.0655 -1.2087  0.7041
 2792TIP3    H229936   1.608   6.762   0.968 -0.8908  0.9309  0.5577
 2793TIP3   OH229937   1.324   4.969   2.845  0.2853 -0.2912 -0.4427
 2793TIP3    H129938   1.311   4.874   2.849  0.5500 -0.5095 -2.9049
 2793TIP3    H229939   1.412   4.982   2.880  0.2703 -0.9691 -0.1353
 2794TIP3   OH229940   2.099   2.976   1.426  0.2760  0.0949 -0.1938
 2794TIP3    H129941   2.092   2.930   1.343  1.7701  0.4758 -0.5546
 2794TIP3    H229942   2.008   2.994   1.451 -0.2730 -1.7431 -0.7508
 2795TIP3   OH229943   3.596   6.854   7.511 -0.2680  0.8188  0.0250
 2795TIP3    H129944   3.669   6.794   7.496  0.5982  1.8062  0.2461
 2795TIP3    H229945   3.518   6.801   7.490  0.4327 -0.5413  0.7023
 2796TIP3   OH229946   4.875   0.255   0.195 -0.2832 -0.1733 -0.1158
 2796TIP3    H129947   4.970   0.238   0.199 -0.5790 -1.8900  2.1914
 2796TIP3    H229948   4.868   0.350   0.195  1.4431 -0.0048 -0.8097
 2797TIP3   OH229949   0.085   2.735   7.616 -0.1303 -0.2506 -0.3693
 2797TIP3    H129950   0.071   2.661   7.675 -2.2385  1.0007  0.8199
 2797TIP3    H229951   0.133   2.799   7.669  0.7310 -0.2976 -1.0559
 2798TIP3   OH229952   0.305   3.278   2.437  0.0724 -0.0709 -0.0919
 2798TIP3    H129953   0.318   3.297   2.344 -0.0749 -0.3516 -0.1705
 2798TIP3    H229954   0.240   3.343   2.465 -0.5381 -0.5284 -0.3965
 2799TIP3   OH229955   6.634   5.249   7.859  0.4383 -0.2353  0.6990
 2799TIP3    H129956   6.656   5.313   7.926 -1.2876  1.0659  0.1052
 2799TIP3    H229957   6.592   5.177   7.906 -1.5723  1.0641  1.0045
 2800TIP3   OH229958   1.162   2.899   6.665 -0.7133 -0.4629 -0.0500
 2800TIP3    H129959   1.207   2.855   6.736 -1.1009  1.6111  1.5717
 2800TIP3    H229960   1.221   2.969   6.638 -1.3022 -0.1559 -0.5776
 2801TIP3   OH229961   5.691   6.478   7.991 -0.2131 -0.1480  0.1253
 2801TIP3    H129962   5.624   6.520   7.937  0.8535  0.9036 -0.4214
 2801TIP3    H229963   5.702   6.392   7.951  0.0617  0.3525 -0.9344
 2802TIP3   OH229964   4.732   5.691   0.253 -0.2540  0.0363 -0.0590
 2802TIP3    H129965   4.716   5.784   0.238  1.1001  0.1312 -1.0414
 2802TIP3    H229966   4.706   5.649   0.171  0.3726 -0.3016 -0.0851
 2803TIP3   OH229967   1.826   0.433   1.308 -0.1795 -0.0115  0.4801
 2803TIP3    H129968   1.915   0.443   1.274 -0.5903  1.7751 -0.1951
 2803TIP3    H229969   1.830   0.355   1.364  1.8700  0.1880  0.6874
 2804TIP3   OH229970   0.161   3.895   1.532  0.3187 -0.1298  0.0574
 2804TIP3    H129971   0.123   3.963   1.477  2.9175  1.4910  0.0619
 2804TIP3    H229972   0.101   3.886   1.606 -0.4141  1.7504 -0.2533
 2805TIP3   OH229973   2.226   5.009   8.028  0.2905  0.2530  0.2702
 2805TIP3    H129974   2.285   5.084   8.021  1.2673  0.0775  4.3102
 2805TIP3    H229975   2.275   4.936   7.990  0.5552  1.0106 -0.9113
 2806TIP3   OH229976   2.652   4.217   0.361 -0.6143 -0.1655  0.4557
 2806TIP3    H129977   2.696   4.173   0.434 -0.2141 -0.3659  0.0935
 2806TIP3    H229978   2.664   4.159   0.286  1.5584  1.3906 -0.5011
 2807TIP3   OH229979   0.796   1.335   0.810  0.7249  0.1169 -0.4324
 2807TIP3    H129980   0.767   1.251   0.775  0.4811 -0.0726  0.2116
 2807TIP3    H229981   0.822   1.385   0.733  2.0458 -0.9854 -0.7349
 2808TIP3   OH229982   4.244   3.568   8.195 -0.0361 -0.4114 -0.2207
 2808TIP3    H129983   4.255   3.486   8.146 -1.2308 -0.1421 -0.9822
 2808TIP3    H229984   4.189   3.544   8.270 -2.4579  0.0932 -1.7303
 2809TIP3   OH229985   0.895   3.869   7.632  0.0141 -0.4078 -0.0727
 2809TIP3    H129986   0.808   3.836   7.608  0.1165 -1.8895  1.4328
 2809TIP3    H229987   0.923   3.813   7.704  2.2015  0.1039 -0.4553
 2810TIP3   OH229988   0.762   1.125   0.223 -0.1771  0.6007 -0.0109
 2810TIP3    H129989   0.719   1.044   0.250 -0.6305 -0.1910 -2.7902
 2810TIP3    H229990   0.709   1.157   0.150  2.0983  1.3591 -1.4175
 2811TIP3   OH229991   3.477   2.283   1.208  0.3432 -0.2557 -0.0979
 2811TIP3    H129992   3.453   2.348   1.273  2.1161  1.3683 -0.9702
 2811TIP3    H229993   3.445   2.200   1.243 -0.6894  0.8708  1.7453
 2812TIP3   OH229994   5.384   5.151   1.992 -0.0955  0.0659 -0.3555
 2812TIP3    H129995   5.478   5.140   1.980  0.0487  1.8097 -1.1492
 2812TIP3    H229996   5.373   5.245   2.009 -1.4365 -0.5137  2.5875
 2813TIP3   OH229997   4.269   2.060   8.492 -0.0686 -0.1244 -0.1017
 2813TIP3    H129998   4.298   2.096   8.576 -1.4330  1.4913 -0.2784
 2813TIP3    H229999   4.286   1.966   8.500  1.6443  0.2431  1.2071
 2814TIP3   OH230000   4.737   6.591   1.525 -0.1382 -0.3283 -0.3576
 2814TIP3    H130001   4.830   6.582   1.508 -0.2990  0.3794 -1.7662
 2814TIP3    H230002   4.705   6.502   1.536  0.7186 -0.5648  0.3473
 2815TIP3   OH230003   3.624   5.092   0.246 -0.1622  0.4376 -0.1931
 2815TIP3    H130004   3.709   5.111   0.205 -0.0476 -1.1711 -0.7736
 2815TIP3    H230005   3.572   5.170   0.229  0.9660  1.1553 -0.4889
 2816TIP3   OH230006   0.142   4.149   7.189 -0.4976 -0.9796  0.5149
 2816TIP3    H130007   0.119   4.056   7.188  0.2207 -1.1633 -0.7797
 2816TIP3    H230008   0.178   4.166   7.102 -0.3078  0.4401  0.8459
 2817TIP3   OH230009   0.416   5.548   8.074  0.2324  0.3122  0.3312
 2817TIP3    H130010   0.454   5.462   8.057 -2.6073 -1.3547  1.7328
 2817TIP3    H230011   0.438   5.600   7.996  2.3039 -1.5297 -0.4019
 2818TIP3   OH230012   5.773   5.135   1.427  0.1622 -0.6500 -0.8558
 2818TIP3    H130013   5.858   5.124   1.383  2.5990 -0.9323  3.3897
 2818TIP3    H230014   5.751   5.047   1.458 -1.0588 -0.3540 -0.8576
 2819TIP3   OH230015   4.401   6.071   1.917 -0.3920 -0.2037 -0.7988
 2819TIP3    H130016   4.449   6.150   1.893 -0.1648 -0.5986 -1.6787
 2819TIP3    H230017   4.309   6.093   1.905 -0.5469  0.7756  1.5202
 2820TIP3   OH230018   4.368   6.418   8.086 -0.0298 -0.0790 -0.0618
 2820TIP3    H130019   4.373   6.362   8.164 -0.4129 -0.0701 -0.0288
 2820TIP3    H230020   4.328   6.362   8.019  0.3509 -0.1054 -0.2722
 2821TIP3   OH230021   4.385   4.910   1.628 -0.4527 -0.2629  0.1748
 2821TIP3    H130022   4.349   4.908   1.717 -1.7554  0.1500 -0.3284
 2821TIP3    H230023   4.323   4.860   1.575  0.1059 -0.1755 -0.5792
 2822TIP3   OH230024   4.206   6.327   2.018  0.0664 -0.1280  0.5485
 2822TIP3    H130025   4.225   6.415   2.050 -0.1314 -0.1053  0.6073
 2822TIP3    H230026   4.148   6.289   2.085 -0.8410  0.1326 -0.0685
 2823TIP3   OH230027   3.295   2.090   3.098 -0.0555  0.6977 -0.1793
 2823TIP3    H130028   3.355   2.056   3.164 -0.0268 -0.3421 -0.7150
 2823TIP3    H230029   3.319   2.044   3.018 -0.6689  1.2861 -0.7128
 2824TIP3   OH230030   4.622   3.507   1.015 -0.3387 -0.1252  0.1364
 2824TIP3    H130031   4.540   3.531   0.972  0.9011  4.2042 -0.2074
 2824TIP3    H230032   4.611   3.537   1.106  0.7785  0.3526  0.1308
 2825TIP3   OH230033   3.263   5.531   1.511 -0.1858 -0.2610  0.2778
 2825TIP3    H130034   3.328   5.557   1.445  0.5440 -0.6898  0.8141
 2825TIP3    H230035   3.283   5.586   1.587 -0.8862  0.0816  0.2139
 2826TIP3   OH230036   1.511   1.442   1.575  0.5189  0.0488 -0.0155
 2826TIP3    H130037   1.535   1.351   1.558 -2.2809 -0.8945  0.5077
 2826TIP3    H230038   1.476   1.441   1.665 -1.5573  1.1471 -0.7405
 2827TIP3   OH230039   6.905   2.152   1.035  0.3472  0.3661  0.8852
 2827TIP3    H130040   6.830   2.128   0.981 -0.2586 -0.1772  1.9115
 2827TIP3    H230041   6.976   2.095   1.005 -0.5146 -1.3587  1.9031
 2828TIP3   OH230042   6.859   1.927   7.896  0.7708  0.2023 -0.0312
 2828TIP3    H130043   6.816   1.863   7.839 -0.0879 -0.9382  1.8010
 2828TIP3    H230044   6.862   2.007   7.844 -0.0775 -0.7515 -1.6230
 2829TIP3   OH230045   5.302   2.723   8.234 -0.0739 -0.7629  0.2678
 2829TIP3    H130046   5.211   2.703   8.254 -0.2015  0.5336  1.0485
 2829TIP3    H230047   5.346   2.726   8.319  0.4796 -0.3660 -0.0220
 2830TIP3   OH230048   2.723   4.424   0.980 -1.1371 -0.0775  0.5258
 2830TIP3    H130049   2.706   4.379   1.063  3.5250 -1.1351  1.1735
 2830TIP3    H230050   2.699   4.360   0.913 -0.8756 -0.9103  1.2128
 2831TIP3   OH230051   4.845   4.828   0.223 -0.4267  0.0524  0.1997
 2831TIP3    H130052   4.905   4.753   0.225 -0.7057 -0.1718  0.1661
 2831TIP3    H230053   4.883   4.888   0.159 -1.1160 -0.8240 -1.0675
 2832TIP3   OH230054   3.127   6.172   6.935  0.3106 -0.1346  0.3571
 2832TIP3    H130055   3.206   6.166   6.990 -0.4633  0.9383  1.6538
 2832TIP3    H230056   3.152   6.230   6.863  1.1998 -1.1700 -0.1978
 2833TIP3   OH230057   3.021   2.043   1.665  0.4352 -0.1506  0.3418
 2833TIP3    H130058   2.932   2.009   1.670  0.1088  0.6868  0.4048
 2833TIP3    H230059   3.051   2.019   1.577 -0.1557  0.2627  0.0191
 2834TIP3   OH230060   3.732   6.118   7.755 -0.4173 -0.6716  0.6861
 2834TIP3    H130061   3.664   6.051   7.746 -0.4832 -0.4377 -0.6368
 2834TIP3    H230062   3.690   6.189   7.803 -0.7805 -0.9525  0.7882
 2835TIP3   OH230063   3.128   1.044   7.880 -0.4002 -0.3696  0.2617
 2835TIP3    H130064   3.053   1.027   7.823 -0.4291 -0.5250  0.3465
 2835TIP3    H230065   3.134   0.967   7.936  0.3092 -0.7021 -0.2696
 2836TIP3   OH230066   3.500   3.966   7.090  0.5777  0.3206  0.3756
 2836TIP3    H130067   3.470   3.880   7.121  0.1173 -0.2189 -1.4245
 2836TIP3    H230068   3.441   4.028   7.131 -0.2403 -0.3809  0.2857
 2837TIP3   OH230069   2.230   6.085   1.819 -0.4369  0.4527  0.2454
 2837TIP3    H130070   2.304   6.042   1.861 -0.0837  1.0870  0.2873
 2837TIP3    H230071   2.269   6.153   1.764 -0.7131 -1.6982 -2.8630
 2838TIP3   OH230072   0.415   1.977   7.691  0.3090  0.1086 -0.3032
 2838TIP3    H130073   0.381   2.039   7.756  1.6106  0.3690  0.1406
 2838TIP3    H230074   0.378   2.008   7.608 -0.2533  0.5923  0.1178
 2839TIP3   OH230075   2.143   0.952   0.353  0.3066 -0.3727 -0.1546
 2839TIP3    H130076   2.127   0.890   0.282  1.0071 -1.1926  0.3840
 2839TIP3    H230077   2.160   1.036   0.309  1.9915 -1.1272 -1.0381
 2840TIP3   OH230078   4.542   0.445   1.657 -0.1676  0.1583 -0.5823
 2840TIP3    H130079   4.569   0.381   1.722  0.7427  0.0573 -1.0455
 2840TIP3    H230080   4.596   0.425   1.580  0.4015  1.7045 -0.6172
 2841TIP3   OH230081   3.072   0.391   1.101 -0.3971  0.5597  0.1656
 2841TIP3    H130082   3.138   0.442   1.054 -1.5266  1.5312 -0.4179
 2841TIP3    H230083   3.062   0.311   1.049  0.6984  0.1588  0.5572
 2842TIP3   OH230084   4.013   2.823   7.925 -0.4301 -0.1203  0.1384
 2842TIP3    H130085   3.951   2.843   7.995 -1.1931 -0.2640 -0.4813
 2842TIP3    H230086   4.071   2.757   7.963 -1.0946 -0.5067  0.5048
 2843TIP3   OH230087   4.112   4.888   7.386  0.2745  0.3774  0.0478
 2843TIP3    H130088   4.099   4.971   7.339 -0.4947 -1.3630 -3.1320
 2843TIP3    H230089   4.202   4.862   7.364  0.3952  0.2084  0.7398
 2844TIP3   OH230090   0.756   6.715   1.901 -0.4485  0.4377  0.5717
 2844TIP3    H130091   0.735   6.715   1.995 -0.3503  0.8463  0.5961
 2844TIP3    H230092   0.761   6.622   1.878  2.4611  0.2493  1.6346
 2845TIP3   OH230093   3.549   2.475   0.133  0.6477  0.4676 -0.4912
 2845TIP3    H130094   3.538   2.513   0.220  1.5643 -1.2946  0.4594
 2845TIP3    H230095   3.518   2.385   0.142  1.9565 -0.1388 -1.6043
 2846TIP3   OH230096   6.746   4.606   0.916 -0.0382  0.0603 -0.5265
 2846TIP3    H130097   6.679   4.577   0.854 -0.1081 -1.0381  0.0322
 2846TIP3    H230098   6.801   4.666   0.865 -1.7837  1.4996 -0.8160
 2847TIP3   OH230099   4.422   2.037   1.265 -0.5664  0.5199 -0.1258
 2847TIP3    H130100   4.440   2.046   1.172 -1.1967 -1.4323 -0.4859
 2847TIP3    H230101   4.357   2.105   1.284  0.6910  1.9283 -0.7358
 2848TIP3   OH230102   4.674   5.651   0.979 -0.1086  0.4463 -0.0680
 2848TIP3    H130103   4.609   5.595   0.936 -0.6963  0.1261  1.2082
 2848TIP3    H230104   4.727   5.685   0.907  0.4902 -2.0067 -0.8939
 2849TIP3   OH230105   6.396   3.075   2.058 -0.9411 -0.3877  0.0375
 2849TIP3    H130106   6.461   3.007   2.041 -0.6469  0.2922 -1.8210
 2849TIP3    H230107   6.314   3.039   2.026 -0.9960 -0.2642  0.0381
 2850TIP3   OH230108   2.974   0.792   2.644  0.5128  0.7328  0.2347
 2850TIP3    H130109   2.913   0.806   2.717  0.2337  3.1682 -0.3769
 2850TIP3    H230110   2.970   0.874   2.594  0.5038 -0.9073 -2.6735
 2851TIP3   OH230111   2.731   0.848   2.463  0.3584  0.0068 -0.1135
 2851TIP3    H130112   2.655   0.790   2.468  1.1855 -1.0753  0.5312
 2851TIP3    H230113   2.805   0.791   2.485  1.5314  0.7022 -2.0379
 2852TIP3   OH230114   1.374   3.064   7.878  0.0866 -0.6505 -0.7150
 2852TIP3    H130115   1.438   3.135   7.880 -0.3631 -0.2471 -0.3892
 2852TIP3    H230116   1.309   3.092   7.814 -0.8240 -0.1056  0.4043
 2853TIP3   OH230117   2.605   4.797   1.688 -0.4642  0.1727 -0.0170
 2853TIP3    H130118   2.519   4.757   1.672  0.5744 -1.2989 -2.4407
 2853TIP3    H230119   2.597   4.836   1.775 -2.9225 -1.7329  0.7464
 2854TIP3   OH230120   3.158   4.070   2.420 -0.9396  0.4742  1.2378
 2854TIP3    H130121   3.198   4.054   2.506 -0.7619  1.0975  1.2774
 2854TIP3    H230122   3.140   4.164   2.420  2.8438  1.4290 -0.9489
 2855TIP3   OH230123   5.457   4.834   2.087 -0.1185  0.6829 -0.1171
 2855TIP3    H130124   5.372   4.848   2.128 -0.6851 -1.7562 -0.2811
 2855TIP3    H230125   5.487   4.750   2.122  0.7647 -0.0217 -2.3544
 2856TIP3   OH230126   5.420   4.111   0.125 -0.8459 -0.5103 -0.7240
 2856TIP3    H130127   5.440   4.036   0.069 -1.2125 -0.7978 -0.4772
 2856TIP3    H230128   5.413   4.075   0.213 -2.8968 -0.5488 -0.8370
 2857TIP3   OH230129   6.191   3.790   7.286 -0.0862  0.3587 -0.1708
 2857TIP3    H130130   6.263   3.834   7.330  0.6555 -0.3353 -0.6712
 2857TIP3    H230131   6.194   3.822   7.196  1.1539 -1.4713 -0.8406
 2858TIP3   OH230132   0.288   3.174   0.093  0.0341 -0.0712 -0.4263
 2858TIP3    H130133   0.223   3.244   0.081 -1.7242 -1.8284 -1.9931
 2858TIP3    H230134   0.236   3.099   0.123  2.0819 -0.3834  2.9278
 2859TIP3   OH230135   1.154   0.562   7.764  0.3804 -0.2235 -0.3146
 2859TIP3    H130136   1.191   0.639   7.720  2.1212 -0.8407 -0.0080
 2859TIP3    H230137   1.171   0.578   7.857  0.1133 -0.6693 -0.1871
 2860TIP3   OH230138   1.221   1.860   1.737 -0.5824 -0.1731 -0.2256
 2860TIP3    H130139   1.157   1.829   1.800 -0.0011  0.4133  0.6717
 2860TIP3    H230140   1.169   1.883   1.659 -1.4232  0.0538  0.3917
 2861TIP3   OH230141   5.477   0.348   1.584 -0.5786 -0.5270  0.1147
 2861TIP3    H130142   5.569   0.362   1.608 -0.3964 -0.2157 -0.7422
 2861TIP3    H230143   5.428   0.400   1.648 -0.0798  0.6185 -0.4060
 2862TIP3   OH230144   2.126   5.952   8.437 -0.1315  0.2400  0.1354
 2862TIP3    H130145   2.050   5.895   8.428  0.3455 -0.2084 -1.2953
 2862TIP3    H230146   2.102   6.012   8.508 -1.1719 -0.8807  0.7825
 2863TIP3   OH230147   5.642   4.488   1.231 -0.7967 -0.2995  0.9493
 2863TIP3    H130148   5.674   4.481   1.320  1.4948  1.2167  0.3183
 2863TIP3    H230149   5.652   4.399   1.195 -0.0075 -0.5046  1.6441
 2864TIP3   OH230150   2.742   2.072   7.221 -0.1363 -0.2157 -0.2942
 2864TIP3    H130151   2.741   2.159   7.261 -1.7905  0.1415 -1.0269
 2864TIP3    H230152   2.825   2.034   7.249 -0.4832  0.6250  2.0911
 2865TIP3   OH230153   3.295   1.549   0.796 -0.6861  0.2907  0.1023
 2865TIP3    H130154   3.262   1.639   0.791 -0.3495  0.4142  0.0275
 2865TIP3    H230155   3.381   1.553   0.754 -0.6325 -0.0487  0.1762
 2866TIP3   OH230156   4.019   4.081   1.005  0.0184  0.1255 -0.0042
 2866TIP3    H130157   3.923   4.072   1.000  0.0407  0.2857 -0.8306
 2866TIP3    H230158   4.038   4.075   1.098 -0.7223 -0.7169  0.1147
 2867TIP3   OH230159   3.059   0.183   8.525  0.6279  0.1342 -0.3001
 2867TIP3    H130160   3.097   0.097   8.542  1.6958  0.7602  0.6353
 2867TIP3    H230161   3.130   0.244   8.542  0.1647  1.1749 -1.8541
 2868TIP3   OH230162   2.815   0.994   0.678 -0.2710 -0.1471 -0.0518
 2868TIP3    H130163   2.786   0.954   0.760  0.4208 -0.9847 -0.2139
 2868TIP3    H230164   2.739   0.986   0.620  0.2463 -2.3816 -0.4952
 2869TIP3   OH230165   2.021   0.083   2.563  0.0321 -0.3811  0.1591
 2869TIP3    H130166   1.955   0.141   2.602  0.3856 -0.3673  0.7432
 2869TIP3    H230167   2.103   0.107   2.606  0.6608  0.4293 -1.4169
 2870TIP3   OH230168   6.213   5.518   1.272 -0.0450  0.3712  0.1292
 2870TIP3    H130169   6.156   5.473   1.210 -0.6247  0.6510  0.4492
 2870TIP3    H230170   6.272   5.570   1.218  2.8309 -3.1285 -0.4826
 2871TIP3   OH230171   4.544   1.561   0.822  0.7513 -0.5744  0.1320
 2871TIP3    H130172   4.465   1.560   0.769  1.1625  0.5931 -0.5517
 2871TIP3    H230173   4.535   1.487   0.881 -0.6991 -0.6469 -0.1512
 2872TIP3   OH230174   0.391   1.995   0.302 -0.7433 -0.1153 -0.2987
 2872TIP3    H130175   0.455   2.047   0.352 -0.2639 -1.3111  0.3683
 2872TIP3    H230176   0.442   1.924   0.263 -1.5103 -0.5300 -0.5733
 2873TIP3   OH230177   4.716   0.939   1.847  0.1273  0.2070  0.2575
 2873TIP3    H130178   4.785   0.878   1.872 -0.2880 -0.1957  0.4288
 2873TIP3    H230179   4.655   0.938   1.921 -0.3937  0.0702 -0.1703
 2874TIP3   OH230180   3.329   6.250   7.348 -0.6670  0.1535 -0.3513
 2874TIP3    H130181   3.267   6.186   7.314 -2.5832  0.9495  1.4186
 2874TIP3    H230182   3.310   6.331   7.301  1.4973 -0.3727 -2.3137
 2875TIP3   OH230183   2.127   4.134   2.826  0.0228 -0.3133 -0.0489
 2875TIP3    H130184   2.107   4.055   2.776  1.8201  0.4218 -2.1644
 2875TIP3    H230185   2.202   4.109   2.881  2.7085  0.4938 -2.9967
 2876TIP3   OH230186   1.315   1.941   1.005 -0.6025  0.0607 -0.1814
 2876TIP3    H130187   1.248   2.002   1.037 -0.8986  0.2132 -1.0459
 2876TIP3    H230188   1.287   1.921   0.916 -0.5901 -1.4688  0.1408
 2877TIP3   OH230189   0.569   3.309   2.523  0.0056 -0.2185  0.0654
 2877TIP3    H130190   0.481   3.276   2.542  0.2424 -1.1971 -0.5046
 2877TIP3    H230191   0.624   3.272   2.592 -0.1665  1.2082  1.0287
 2878TIP3   OH230192   1.277   0.505   1.596  0.5419 -0.3850  0.4212
 2878TIP3    H130193   1.276   0.484   1.503  2.3477 -1.8295  0.6626
 2878TIP3    H230194   1.243   0.595   1.601  3.0297  0.8185 -1.9408
 2879TIP3   OH230195   6.699   0.367   7.045 -0.0775  0.0523  0.2554
 2879TIP3    H130196   6.735   0.304   6.982  1.3535  0.8904  0.1912
 2879TIP3    H230197   6.604   0.362   7.033  0.1622  0.4248 -2.1947
 2880TIP3   OH230198   2.576   5.321   2.762  0.3520  0.0289  0.5780
 2880TIP3    H130199   2.646   5.325   2.696 -0.9060 -0.6840 -0.8909
 2880TIP3    H230200   2.610   5.262   2.829  0.9958 -0.6898 -0.3456
 2881TIP3   OH230201   2.221   5.730   0.974  0.0708 -0.4132  0.5645
 2881TIP3    H130202   2.225   5.665   1.044 -0.5979 -0.3253  0.6908
 2881TIP3    H230203   2.159   5.693   0.911  0.8848 -0.6311 -0.1323
 2882TIP3   OH230204   3.914   3.739   1.664 -0.4615 -0.2449  0.5261
 2882TIP3    H130205   3.949   3.737   1.753 -0.5714  0.5184  0.5954
 2882TIP3    H230206   3.831   3.692   1.670  0.7824 -2.6115  0.2294
 2883TIP3   OH230207   6.339   5.604   0.799  0.3193  0.0187  0.0744
 2883TIP3    H130208   6.284   5.539   0.756 -1.0555  0.1730  1.5177
 2883TIP3    H230209   6.425   5.562   0.805 -0.0822 -0.9434 -0.6102
 2884TIP3   OH230210   1.133   3.247   7.203 -0.4096 -0.1890  0.0069
 2884TIP3    H130211   1.148   3.174   7.143  0.3206 -2.8529  3.1245
 2884TIP3    H230212   1.059   3.220   7.257 -0.5122  1.6480  0.8660
 2885TIP3   OH230213   6.704   1.984   7.348  0.2721 -0.1963 -0.1561
 2885TIP3    H130214   6.634   1.939   7.396 -3.2942  4.0094 -0.8083
 2885TIP3    H230215   6.763   2.016   7.416 -0.6744 -0.4274  0.8031
 2886TIP3   OH230216   0.847   6.352   1.161  0.6213 -0.6765 -0.4827
 2886TIP3    H130217   0.814   6.277   1.210 -0.5472  0.9022  1.2752
 2886TIP3    H230218   0.942   6.351   1.175  0.4483 -0.9987  0.7302
 2887TIP3   OH230219   6.834   0.603   0.894 -0.2414  0.6336  0.5130
 2887TIP3    H130220   6.867   0.566   0.811 -0.4052  0.3172  0.5886
 2887TIP3    H230221   6.853   0.696   0.887  1.4550  0.3530  0.9064
 2888TIP3   OH230222   1.231   1.221   0.988  0.3287  0.4270  0.3036
 2888TIP3    H130223   1.166   1.156   0.961 -0.9852  1.1841  1.5401
 2888TIP3    H230224   1.290   1.174   1.047  0.4493 -0.0588 -0.1941
 2889TIP3   OH230225   5.289   4.230   6.347  0.3078 -0.1091 -0.5658
 2889TIP3    H130226   5.319   4.311   6.389 -0.1547 -0.1830 -0.0822
 2889TIP3    H230227   5.294   4.164   6.416  3.0539 -1.1000 -1.5770
 2890TIP3   OH230228   1.839   2.799   7.310  0.3097  0.0654  0.0063
 2890TIP3    H130229   1.786   2.721   7.292  2.2905 -1.1625 -0.7507
 2890TIP3    H230230   1.828   2.814   7.404 -0.3801 -0.8876  0.0990
 2891TIP3   OH230231   5.589   0.795   0.050 -0.8832  0.0078  0.4857
 2891TIP3    H130232   5.588   0.798  -0.045 -2.6204 -2.2710  0.3254
 2891TIP3    H230233   5.534   0.869   0.077 -0.0045  0.9424 -0.2342
 2892TIP3   OH230234   1.973   1.479   0.376  0.1244 -0.4180 -0.0038
 2892TIP3    H130235   1.973   1.406   0.438 -0.0586  0.6139  1.2607
 2892TIP3    H230236   1.882   1.485   0.346  0.1010 -0.6042  0.0293
 2893TIP3   OH230237   0.902   1.163   8.119 -0.1437 -0.1695 -0.1884
 2893TIP3    H130238   0.988   1.150   8.079  0.8437  0.9166  1.4583
 2893TIP3    H230239   0.879   1.077   8.154  0.0807 -0.5505 -0.9358
 2894TIP3   OH230240   0.272   2.597   0.472  0.3833 -0.0145 -0.2283
 2894TIP3    H130241   0.190   2.609   0.423 -0.1864 -1.8933  0.1817
 2894TIP3    H230242   0.266   2.660   0.544 -0.1436  0.6963 -0.8810
 2895TIP3   OH230243   2.057   0.265   8.478  0.2345 -0.0580  0.3653
 2895TIP3    H130244   2.077   0.199   8.545  1.4853  0.6426  0.7296
 2895TIP3    H230245   1.998   0.326   8.521 -2.4160 -1.8064 -0.5169
 2896TIP3   OH230246   1.660   0.407   7.811  0.2112 -0.0405  0.1889
 2896TIP3    H130247   1.617   0.490   7.829  1.2795  0.5601  0.0160
 2896TIP3    H230248   1.690   0.414   7.720 -2.1348 -1.7156 -0.8228
 2897TIP3   OH230249   0.784   2.472   1.389  0.3664  0.1324  0.8227
 2897TIP3    H130250   0.786   2.378   1.371  0.2572  0.2494  0.1648
 2897TIP3    H230251   0.781   2.479   1.484 -1.1813 -0.5729  0.8482
 2898TIP3   OH230252   5.431   2.519   0.713 -0.2310 -0.2366 -0.7321
 2898TIP3    H130253   5.441   2.567   0.795 -0.5080 -0.2493 -0.6922
 2898TIP3    H230254   5.361   2.456   0.730 -1.4397  0.8513 -1.4821
 2899TIP3   OH230255   0.539   0.457   0.191  0.2827  0.5244  0.1080
 2899TIP3    H130256   0.487   0.379   0.170  1.3254  0.1275 -1.1085
 2899TIP3    H230257   0.477   0.516   0.234 -1.0064 -0.2071 -0.6926
 2900TIP3   OH230258   0.009   3.804   0.601 -0.4747 -0.3831  0.8009
 2900TIP3    H130259   0.098   3.838   0.592 -0.9459  1.7744  3.0810
 2900TIP3    H230260   0.020   3.722   0.649  0.3879 -1.5136 -1.1776
 2901TIP3   OH230261   0.635   4.817   1.376  0.3505  0.1895  0.2627
 2901TIP3    H130262   0.637   4.733   1.331  1.2822  0.1140  0.4320
 2901TIP3    H230263   0.592   4.876   1.314 -1.3921 -0.6593  0.6012
 2902TIP3   OH230264   5.317   4.191   7.606 -0.0054 -0.8025  0.2131
 2902TIP3    H130265   5.341   4.283   7.594 -0.6497 -0.9054 -2.3041
 2902TIP3    H230266   5.222   4.190   7.595  0.1176 -1.9007 -0.8930
 2903TIP3   OH230267   1.558   0.126   2.905 -0.2885  0.0854 -0.6356
 2903TIP3    H130268   1.477   0.077   2.920 -1.5646  2.6960  1.9016
 2903TIP3    H230269   1.602   0.126   2.990  0.7860  1.3847 -1.1617
 2904TIP3   OH230270   2.135   6.808   8.421 -0.2832  0.1916 -0.2401
 2904TIP3    H130271   2.134   6.716   8.393  0.4453 -0.3481  1.3610
 2904TIP3    H230272   2.219   6.841   8.389  1.4568 -0.9648  2.6523
 2905TIP3   OH230273   0.443   6.010   1.995  0.3020 -0.1070  0.2248
 2905TIP3    H130274   0.536   6.020   2.017  0.1879 -0.5220  0.9200
 2905TIP3    H230275   0.399   6.078   2.046  0.3096  0.7337 -0.8453
 2906TIP3   OH230276   3.786   6.156   8.112  0.6507  0.2239  0.5710
 2906TIP3    H130277   3.846   6.091   8.075  1.4976  1.4088 -0.2232
 2906TIP3    H230278   3.721   6.105   8.159  1.2211 -1.1992 -0.1327
 2907TIP3   OH230279   0.257   2.347   7.565 -0.5255  0.2820  0.0553
 2907TIP3    H130280   0.352   2.333   7.572 -0.4876 -0.0295 -0.9171
 2907TIP3    H230281   0.248   2.431   7.520 -0.6796 -0.4751 -1.3802
 2908TIP3   OH230282   5.119   4.333   8.365 -0.6486  0.2595 -0.2415
 2908TIP3    H130283   5.196   4.289   8.401 -0.2491  1.0813 -0.0635
 2908TIP3    H230284   5.056   4.335   8.436 -0.6024  0.1249 -0.1979
 2909TIP3   OH230285   0.561   4.741   0.739 -0.2730  0.0282 -0.0692
 2909TIP3    H130286   0.587   4.750   0.647  0.5800 -0.9272  0.0574
 2909TIP3    H230287   0.633   4.782   0.788 -0.3552 -0.1342  0.1912
 2910TIP3   OH230288   0.561   5.969   8.098 -0.1449 -0.0547  0.2694
 2910TIP3    H130289   0.497   5.906   8.129  0.2236 -0.4710  0.1978
 2910TIP3    H230290   0.512   6.051   8.089 -0.9821 -0.6555 -1.0042
 2911TIP3   OH230291   1.613   0.416   7.134  0.2775 -0.2357  0.2510
 2911TIP3    H130292   1.678   0.354   7.103  0.1552 -0.8803  1.2354
 2911TIP3    H230293   1.658   0.500   7.134  0.6737 -0.4347 -0.3826
 2912TIP3   OH230294   5.258   0.743   1.955  0.3504  0.2295  0.3135
 2912TIP3    H130295   5.323   0.762   1.888  0.4419 -1.0969  0.0075
 2912TIP3    H230296   5.286   0.793   2.031  0.8373  0.9083 -0.3016
 2913TIP3   OH230297   0.629   6.514   6.831 -0.4112 -0.7392  0.1309
 2913TIP3    H130298   0.609   6.496   6.739 -0.3193 -0.9380  0.1482
 2913TIP3    H230299   0.623   6.429   6.874 -0.1495 -0.7010  0.2507
 2914TIP3   OH230300   0.094   3.866   0.926  0.4100  0.0311  0.1283
 2914TIP3    H130301   0.098   3.794   0.863 -2.2026  0.6111 -0.8409
 2914TIP3    H230302   0.069   3.824   1.008  0.4999 -0.3579 -0.0395
 2915TIP3   OH230303   6.546   2.058   0.577  0.1805  0.0052 -0.1549
 2915TIP3    H130304   6.507   2.108   0.506 -0.0418  1.0128  0.6405
 2915TIP3    H230305   6.597   1.990   0.534  0.8806  1.1944 -1.3024
 2916TIP3   OH230306   2.875   1.496   7.954  0.4146 -0.1422 -0.1991
 2916TIP3    H130307   2.897   1.415   8.000  2.2801 -0.0970 -0.9064
 2916TIP3    H230308   2.877   1.564   8.022  1.7666 -0.2788 -0.0756
 2917TIP3   OH230309   3.798   0.584   7.784  0.0837  0.6889 -0.2544
 2917TIP3    H130310   3.742   0.590   7.861 -0.1119  2.9285 -0.5062
 2917TIP3    H230311   3.879   0.627   7.809  0.9263 -0.6184 -0.5937
 2918TIP3   OH230312   5.106   4.095   7.841  0.7293 -0.3608  0.5658
 2918TIP3    H130313   5.048   4.144   7.900 -0.3395 -1.4255  0.4380
 2918TIP3    H230314   5.051   4.075   7.765  0.7986 -2.6614  1.0647
 2919TIP3   OH230315   0.427   0.878   1.177 -0.4484  0.0754 -0.1624
 2919TIP3    H130316   0.449   0.827   1.100  0.5032  0.1140  0.0710
 2919TIP3    H230317   0.346   0.839   1.210 -1.8116  1.0858 -2.0896
 2920TIP3   OH230318   3.267   6.411   0.729 -0.2983 -0.1697 -0.0702
 2920TIP3    H130319   3.211   6.351   0.779 -1.5184  1.1231  0.1621
 2920TIP3    H230320   3.283   6.366   0.646  1.8581 -2.4269  1.4245
 2921TIP3   OH230321   0.190   6.230   7.046  0.2384  0.5989 -0.1252
 2921TIP3    H130322   0.102   6.262   7.023  0.1371  0.2700 -0.2074
 2921TIP3    H230323   0.239   6.309   7.069  0.3737  0.9772 -1.5702
 2922TIP3   OH230324   4.159   1.135   2.170 -0.3174 -0.1275  0.0608
 2922TIP3    H130325   4.160   1.135   2.265 -1.0209  1.0833  0.0901
 2922TIP3    H230326   4.083   1.189   2.146 -0.2475 -0.5328 -1.1801
 2923TIP3   OH230327   3.024   3.413   1.927 -0.2941 -0.1001  0.3554
 2923TIP3    H130328   2.984   3.494   1.896 -1.3147 -0.6511  0.2001
 2923TIP3    H230329   2.988   3.401   2.015  1.5223  0.7297  1.2785
 2924TIP3   OH230330   0.957   4.484   0.788 -0.1765  0.4599  0.1399
 2924TIP3    H130331   0.940   4.494   0.694  1.0990 -0.8993 -0.2622
 2924TIP3    H230332   0.870   4.488   0.828 -0.9561 -1.0067 -1.3086
 2925TIP3   OH230333   6.040   4.307   1.925  0.0106 -0.6454 -0.0451
 2925TIP3    H130334   6.021   4.232   1.981 -0.0015 -1.4085 -1.0425
 2925TIP3    H230335   6.128   4.336   1.951  1.2211 -2.7558 -1.4836
 2926TIP3   OH230336   4.605   5.380   1.947 -0.3088 -0.4180 -0.2261
 2926TIP3    H130337   4.691   5.420   1.960  0.2687 -0.6175 -2.8601
 2926TIP3    H230338   4.618   5.287   1.965  0.1706 -0.5244 -1.0808
 2927TIP3   OH230339   0.761   2.074   7.062 -0.1263  0.3420  0.1742
 2927TIP3    H130340   0.814   1.995   7.050 -0.3835  0.2061 -0.0786
 2927TIP3    H230341   0.682   2.058   7.010 -0.9930  0.0069  1.5515
 2928TIP3   OH230342   3.640   4.332   0.519 -0.1131 -0.7176  0.5634
 2928TIP3    H130343   3.659   4.324   0.612 -3.0388  0.8311  1.4231
 2928TIP3    H230344   3.694   4.406   0.490 -0.3999 -0.1281  1.4742
 2929TIP3   OH230345   6.504   6.280   1.911 -0.2805 -0.0444  0.5513
 2929TIP3    H130346   6.516   6.340   1.837 -0.9849 -2.7468 -1.9687
 2929TIP3    H230347   6.589   6.238   1.922 -0.6025 -0.8474  0.0843
 2930TIP3   OH230348   1.194   4.110   6.845  0.0761 -0.4525 -0.0287
 2930TIP3    H130349   1.128   4.179   6.847  0.1931 -0.2320 -2.2744
 2930TIP3    H230350   1.275   4.155   6.822  0.7781 -0.9406  1.3423
 2931TIP3   OH230351   4.564   2.365   1.182  0.1402 -0.0135  0.3193
 2931TIP3    H130352   4.528   2.412   1.257  0.7168  0.3373  0.3858
 2931TIP3    H230353   4.594   2.281   1.218  0.9609  0.3908  0.6146
 2932TIP3   OH230354   3.946   2.297   1.486 -0.1898  0.3579 -0.2729
 2932TIP3    H130355   3.965   2.344   1.567  1.4403 -0.6481 -0.0261
 2932TIP3    H230356   3.859   2.260   1.499  1.2271 -2.4053  2.3685
 2933TIP3   OH230357   6.589   0.974   8.339  0.6359 -0.0057 -0.1236
 2933TIP3    H130358   6.587   0.907   8.407  2.0502 -1.6490 -1.6070
 2933TIP3    H230359   6.521   1.037   8.365  0.7968 -0.8008  2.5044
 2934TIP3   OH230360   2.313   4.647   7.689 -0.2413 -0.1657 -0.0211
 2934TIP3    H130361   2.253   4.698   7.634 -1.6342 -1.5312  0.1500
 2934TIP3    H230362   2.352   4.583   7.630 -0.8771 -0.8950  0.3238
 2935TIP3   OH230363   0.092   5.423   2.661 -0.0550  0.1616  0.1692
 2935TIP3    H130364   0.134   5.417   2.747 -2.0887  0.8344  1.2594
 2935TIP3    H230365   0.040   5.343   2.653  0.6452 -0.2326 -0.7791
 2936TIP3   OH230366   3.708   4.340   7.481  0.2830  0.4055  0.0480
 2936TIP3    H130367   3.655   4.323   7.403 -1.0900  0.9063  0.8526
 2936TIP3    H230368   3.796   4.311   7.456 -0.4583 -0.9906 -1.1272
 2937TIP3   OH230369   1.187   6.774   0.608 -0.2355 -0.0038  0.1841
 2937TIP3    H130370   1.226   6.789   0.694  0.8526  0.2990 -0.3462
 2937TIP3    H230371   1.188   6.860   0.566 -0.0960 -0.2822 -0.3900
 2938TIP3   OH230372   3.384   3.159   6.906 -0.4109 -0.4090 -0.1244
 2938TIP3    H130373   3.454   3.188   6.848  1.0741  2.3346  2.7398
 2938TIP3    H230374   3.304   3.192   6.867  0.4742  0.8430 -0.9320
 2939TIP3   OH230375   1.754   3.849   0.071  0.3868 -0.1229  0.2937
 2939TIP3    H130376   1.689   3.897   0.122  0.1895 -0.5573  0.4533
 2939TIP3    H230377   1.804   3.799   0.136 -0.1264 -0.9912  0.0361
 2940TIP3   OH230378   0.101   1.531   1.762  0.4087  0.1982  0.5086
 2940TIP3    H130379   0.029   1.492   1.810 -0.1598  0.8285  0.1775
 2940TIP3    H230380   0.060   1.571   1.685  1.1309  0.4074  0.2226
 2941TIP3   OH230381   2.111   5.010   1.219  0.9993  0.7101  0.5206
 2941TIP3    H130382   2.050   4.940   1.242  0.3403  0.5955 -1.3704
 2941TIP3    H230383   2.064   5.091   1.241  0.0908  0.6245 -0.9530
 2942TIP3   OH230384   5.266   0.899   7.872 -0.2516 -0.5966  0.0464
 2942TIP3    H130385   5.256   0.863   7.960  0.5583  1.1083  0.8979
 2942TIP3    H230386   5.201   0.969   7.868 -0.2273 -0.6126 -0.6777
 2943TIP3   OH230387   4.522   5.194   2.308  0.0013 -0.3641 -0.1416
 2943TIP3    H130388   4.615   5.186   2.330  0.2242  4.6719  2.1385
 2943TIP3    H230389   4.477   5.196   2.392 -1.5067  1.6844 -0.8874
 2944TIP3   OH230390   4.232   3.203   0.546 -0.4461  0.1823 -0.6130
 2944TIP3    H130391   4.185   3.245   0.474  0.0028 -0.5993 -1.3656
 2944TIP3    H230392   4.318   3.245   0.546 -0.4405  0.1723 -0.5281
 2945TIP3   OH230393   1.239   5.793   8.426  0.1431  0.6884  0.0857
 2945TIP3    H130394   1.276   5.778   8.513  0.9041 -0.4679 -0.4143
 2945TIP3    H230395   1.150   5.758   8.431  0.0120  1.0803  0.5374
 2946TIP3   OH230396   5.410   6.402   1.672  0.8397  0.1905 -0.1997
 2946TIP3    H130397   5.440   6.421   1.583 -0.0017 -0.0275 -0.5334
 2946TIP3    H230398   5.335   6.344   1.660 -0.2177  1.3685  0.5971
 2947TIP3   OH230399   4.331   5.423   0.486 -1.1811  0.6617 -0.4046
 2947TIP3    H130400   4.378   5.498   0.448 -3.0582  1.7353 -0.7602
 2947TIP3    H230401   4.353   5.426   0.579  0.9476 -0.0563 -0.8473
 2948TIP3   OH230402   1.358   2.788   0.949 -0.0838 -0.8595  0.1905
 2948TIP3    H130403   1.388   2.852   0.884 -0.2820  0.0409  0.9625
 2948TIP3    H230404   1.427   2.722   0.952  0.7886  0.0416  0.3713
 2949TIP3   OH230405   6.154   3.232   0.175  0.4216 -0.6747 -0.6521
 2949TIP3    H130406   6.222   3.280   0.127 -0.5009  0.3295 -0.9905
 2949TIP3    H230407   6.180   3.140   0.167 -0.6743 -0.8110 -4.8161
 2950TIP3   OH230408   5.587   0.215   1.181  0.1581 -0.6815 -0.2331
 2950TIP3    H130409   5.555   0.252   1.263 -0.6742 -1.8864  0.0156
 2950TIP3    H230410   5.548   0.270   1.113 -0.5429 -0.7094  0.1354
 2951TIP3   OH230411   1.627   3.398   7.993 -0.3972 -0.2216  0.0927
 2951TIP3    H130412   1.625   3.434   8.082  2.1149  0.9043 -0.2167
 2951TIP3    H230413   1.617   3.475   7.936 -1.1765 -0.8361 -0.6296
 2952TIP3   OH230414   5.134   4.831   6.904 -0.0895  0.2368 -0.4023
 2952TIP3    H130415   5.041   4.843   6.884 -0.6762 -3.3278 -0.5009
 2952TIP3    H230416   5.150   4.890   6.978 -3.1228 -0.7212  1.2043
 2953TIP3   OH230417   5.475   0.186   2.439 -0.0586 -0.2104  0.0689
 2953TIP3    H130418   5.403   0.249   2.433 -0.1578 -0.1109  1.7363
 2953TIP3    H230419   5.433   0.103   2.458  0.2343 -0.1154  1.2546
 2954TIP3   OH230420   0.207   4.112   2.557 -0.3214  0.2156  0.3203
 2954TIP3    H130421   0.236   4.195   2.595  0.2312  0.2878 -0.2583
 2954TIP3    H230422   0.143   4.136   2.490  0.9624  0.2901 -0.9210
 2955TIP3   OH230423   0.416   4.934   1.579 -0.4678 -0.0866 -0.1762
 2955TIP3    H130424   0.449   5.012   1.536 -0.0010  0.8760  1.7952
 2955TIP3    H230425   0.465   4.862   1.540  3.0499  1.1294  1.5386
 2956TIP3   OH230426   3.613   2.549   1.549 -0.4586  0.4390  0.0915
 2956TIP3    H130427   3.632   2.643   1.554  2.6894 -0.0312 -0.8315
 2956TIP3    H230428   3.619   2.519   1.640 -0.1289  0.9282  0.2368
 2957TIP3   OH230429   1.074   1.477   7.682 -0.0282 -0.1961  0.0672
 2957TIP3    H130430   1.057   1.494   7.589  1.4422 -0.1660 -0.2194
 2957TIP3    H230431   1.100   1.562   7.717  1.2481 -0.5682  0.0643
 2958TIP3   OH230432   3.316   0.343   7.912  0.1353  0.1134 -0.2595
 2958TIP3    H130433   3.257   0.358   7.985  1.7315 -1.7814  1.5531
 2958TIP3    H230434   3.313   0.424   7.861 -1.4172  1.3178  1.6194
 2959TIP3   OH230435   2.777   6.123   7.709 -0.1829  0.5284  0.9208
 2959TIP3    H130436   2.729   6.054   7.754 -0.1788  0.0970  0.2788
 2959TIP3    H230437   2.723   6.201   7.721 -1.7083 -0.1871 -0.8058
 2960TIP3   OH230438   5.102   1.021   6.472 -0.2153  0.1392 -0.4358
 2960TIP3    H130439   5.030   0.967   6.505 -0.2713 -0.5637 -1.6377
 2960TIP3    H230440   5.058   1.097   6.434 -0.2673  0.1002 -0.4539
 2961TIP3   OH230441   2.663   6.373   7.781 -0.3810 -0.1273  0.4612
 2961TIP3    H130442   2.628   6.362   7.870 -1.2810  1.7699  0.4026
 2961TIP3    H230443   2.585   6.375   7.725  0.0275  0.7845 -0.1013
 2962TIP3   OH230444   6.120   0.596   0.611  0.1900 -0.0785 -0.1729
 2962TIP3    H130445   6.170   0.562   0.537 -0.8977 -0.3171 -0.8131
 2962TIP3    H230446   6.034   0.617   0.575  0.0610  1.0887  0.7286
 2963TIP3   OH230447   3.977   2.539   7.756 -0.5949  0.0808  0.2965
 2963TIP3    H130448   3.963   2.447   7.733 -1.7218  0.3743 -0.2884
 2963TIP3    H230449   3.909   2.559   7.821  1.1770 -0.1321  2.3218
 2964TIP3   OH230450   0.812   1.336   7.637 -0.3112  0.1285 -0.1045
 2964TIP3    H130451   0.898   1.376   7.650  1.0503 -1.7361 -2.4724
 2964TIP3    H230452   0.783   1.369   7.552 -0.7154 -1.2338 -0.5225
 2965TIP3   OH230453   5.824   0.682   7.342 -0.8511 -0.2166  0.6168
 2965TIP3    H130454   5.746   0.627   7.333 -1.8812  1.2862  0.0142
 2965TIP3    H230455   5.839   0.719   7.255 -1.1001  1.5971  1.2865
 2966TIP3   OH230456   6.803   5.033   7.859 -0.0784 -0.0093 -0.1071
 2966TIP3    H130457   6.743   5.104   7.837 -1.6735 -1.2372  0.0141
 2966TIP3    H230458   6.869   5.035   7.790 -0.5478  1.0802 -0.5508
 2967TIP3   OH230459   1.052   6.074   8.394  0.2014  0.6960  0.3080
 2967TIP3    H130460   0.964   6.093   8.428 -0.2760  1.1322 -1.1104
 2967TIP3    H230461   1.056   5.979   8.392 -0.0192  0.6645  0.9047
 2968TIP3   OH230462   5.849   1.776   1.310 -0.4346  0.5864 -0.2304
 2968TIP3    H130463   5.941   1.750   1.311 -0.8516 -1.0864  2.2508
 2968TIP3    H230464   5.850   1.869   1.334  0.5938  0.3383  0.7767
 2969TIP3   OH230465   4.551   5.225   0.049  0.6943 -0.2269 -0.3397
 2969TIP3    H130466   4.613   5.287   0.010 -0.4289  0.1031 -1.7199
 2969TIP3    H230467   4.467   5.271   0.048  0.3538 -0.7529  1.2541
 2970TIP3   OH230468   3.909   5.830   2.011  0.6093  0.0744 -0.0112
 2970TIP3    H130469   3.982   5.793   1.961 -0.0653 -1.7883  0.3117
 2970TIP3    H230470   3.847   5.758   2.020 -0.5215  1.1466  1.1693
 2971TIP3   OH230471   3.356   6.771   7.846  0.4086  0.3318  0.0159
 2971TIP3    H130472   3.435   6.825   7.844  0.5493  0.2067  1.3041
 2971TIP3    H230473   3.389   6.681   7.844  0.3228  0.2765  0.9556
 2972TIP3   OH230474   2.437   5.194   7.871  0.3686  0.4276 -0.1996
 2972TIP3    H130475   2.453   5.124   7.808  1.3121  1.5446 -1.2581
 2972TIP3    H230476   2.343   5.211   7.864 -0.1342 -1.5334  0.9947
 2973TIP3   OH230477   2.367   3.100   8.083  0.0510  0.0886 -0.3502
 2973TIP3    H130478   2.426   3.122   8.155  2.5239 -1.0494 -1.8916
 2973TIP3    H230479   2.425   3.071   8.013 -2.3924 -1.6267 -1.8210
 2974TIP3   OH230480   6.234   4.453   7.879 -0.3937 -0.0669  0.0742
 2974TIP3    H130481   6.192   4.533   7.910  0.3525  0.4280 -0.1358
 2974TIP3    H230482   6.245   4.468   7.785  2.0555  0.7407  0.3971
 2975TIP3   OH230483   2.267   3.647   1.581  0.4270 -0.4519  0.3223
 2975TIP3    H130484   2.293   3.596   1.504 -1.6240 -1.0404 -0.0396
 2975TIP3    H230485   2.310   3.603   1.654 -0.0236 -1.7669 -0.1734
 2976TIP3   OH230486   6.652   5.660   7.915 -0.2336 -0.0196 -0.4519
 2976TIP3    H130487   6.630   5.716   7.989  0.5430  0.2175 -0.3947
 2976TIP3    H230488   6.697   5.585   7.953 -0.9296 -0.5135 -0.5678
 2977TIP3   OH230489   6.388   6.014   7.128  0.6194  0.3677  0.0290
 2977TIP3    H130490   6.378   5.919   7.124  2.1586  0.2237 -1.0841
 2977TIP3    H230491   6.299   6.046   7.142 -0.0481 -1.1898 -0.4071
 2978TIP3   OH230492   5.218   2.475   6.853  0.0801 -0.0498  0.4417
 2978TIP3    H130493   5.308   2.490   6.883 -0.6111 -0.1762  2.7924
 2978TIP3    H230494   5.169   2.459   6.933 -1.9623 -0.5097 -0.8352
 2979TIP3   OH230495   0.761   5.213   1.277 -0.0655 -0.4841 -0.1194
 2979TIP3    H130496   0.777   5.296   1.233 -0.3513 -1.5424 -2.3803
 2979TIP3    H230497   0.839   5.161   1.257 -0.5853 -1.2877 -0.0915
 2980TIP3   OH230498   4.209   0.935   7.562  0.0674  0.4181 -0.5850
 2980TIP3    H130499   4.155   0.930   7.483 -1.0027 -0.9526  0.1879
 2980TIP3    H230500   4.193   0.852   7.607  1.8508  0.5353  0.3205
 2981TIP3   OH230501   2.658   0.998   3.198  0.2669 -0.2941  0.1071
 2981TIP3    H130502   2.690   0.951   3.121 -1.1674  0.4281 -0.9580
 2981TIP3    H230503   2.616   0.931   3.252  0.4166 -0.6351 -0.2016
 2982TIP3   OH230504   5.599   1.572   7.890  0.3496 -0.0706  0.2327
 2982TIP3    H130505   5.544   1.605   7.960  0.3407 -0.8801  0.6147
 2982TIP3    H230506   5.678   1.627   7.893  0.4186 -0.2076  0.9803
 2983TIP3   OH230507   5.368   1.980   1.833 -0.1889 -0.3271 -0.8669
 2983TIP3    H130508   5.444   1.928   1.860 -1.8404 -1.8053  1.2686
 2983TIP3    H230509   5.321   1.924   1.771 -0.8906 -0.5527 -0.1485
 2984TIP3   OH230510   3.628   2.315   2.265  0.0088 -0.2007 -0.4906
 2984TIP3    H130511   3.660   2.320   2.355 -0.2317 -0.7405 -0.3764
 2984TIP3    H230512   3.534   2.326   2.272  0.1160  1.0665 -0.8010
 2985TIP3   OH230513   4.570   3.001   0.840  0.2390  0.3092 -0.2280
 2985TIP3    H130514   4.585   3.095   0.828  1.6614 -0.0206 -1.3159
 2985TIP3    H230515   4.503   2.996   0.908  2.0510  2.0625  1.8398
 2986TIP3   OH230516   6.808   3.904   2.446 -0.3328 -0.3589  0.0563
 2986TIP3    H130517   6.858   3.824   2.463 -0.5163  0.3751  5.6033
 2986TIP3    H230518   6.872   3.964   2.408  0.5046 -2.1743 -1.5735
 2987TIP3   OH230519   0.477   0.940   7.355  0.0408  0.2946 -0.6582
 2987TIP3    H130520   0.430   0.931   7.272 -0.1180  1.1087 -0.6639
 2987TIP3    H230521   0.558   0.892   7.342  0.0738  0.5225 -1.3308
 2988TIP3   OH230522   5.598   0.531   2.148  0.1492  0.0257  0.3938
 2988TIP3    H130523   5.682   0.563   2.180  0.4896  0.7397 -1.1364
 2988TIP3    H230524   5.569   0.598   2.086 -1.5532 -0.2121  0.8883
 2989TIP3   OH230525   5.155   1.149   7.150 -0.3047 -0.1512 -0.3769
 2989TIP3    H130526   5.244   1.169   7.179 -0.3209 -2.6443  1.7242
 2989TIP3    H230527   5.163   1.065   7.104 -1.4378  0.0823 -1.0372
 2990TIP3   OH230528   0.465   1.778   1.533  0.0610  0.2942 -0.4609
 2990TIP3    H130529   0.399   1.727   1.579 -0.0201  0.1065 -0.7860
 2990TIP3    H230530   0.434   1.869   1.541  0.2864  0.3160  0.2484
 2991TIP3   OH230531   2.503   0.455   8.395  0.0245 -0.1173  0.1157
 2991TIP3    H130532   2.561   0.459   8.318  1.6580 -1.1461  1.2488
 2991TIP3    H230533   2.495   0.547   8.422 -0.2523  0.2206 -1.0304
 2992TIP3   OH230534   1.820   3.623   7.866  0.0168  0.2570  0.6321
 2992TIP3    H130535   1.818   3.693   7.931  0.5484  0.3121  0.5962
 2992TIP3    H230536   1.839   3.543   7.916  0.8552  0.3637  0.5033
 2993TIP3   OH230537   0.613   3.006   1.409 -0.1041  0.0441  0.3631
 2993TIP3    H130538   0.581   3.072   1.470 -1.1810 -0.3544  0.2618
 2993TIP3    H230539   0.536   2.952   1.391  0.6617 -0.9745  0.1131
 2994TIP3   OH230540   4.983   3.298   1.886 -0.1664 -0.2774 -0.0574
 2994TIP3    H130541   4.960   3.229   1.823  0.2546  0.4641 -1.0461
 2994TIP3    H230542   4.917   3.290   1.955 -1.2342 -0.4795 -1.0668
 2995TIP3   OH230543   1.191   4.138   0.253 -0.0431  0.4570 -0.5825
 2995TIP3    H130544   1.115   4.157   0.307  0.6204 -0.2891  0.6462
 2995TIP3    H230545   1.257   4.202   0.280  0.1973  0.2677 -0.7103
 2996TIP3   OH230546   2.592   6.155   0.979 -0.0727  0.1091 -1.1375
 2996TIP3    H130547   2.616   6.212   1.052  1.6275 -0.1480 -1.4331
 2996TIP3    H230548   2.564   6.073   1.020 -2.8778  1.1973 -0.6977
 2997TIP3   OH230549   0.695   3.070   7.003 -0.8440 -0.0990 -0.0479
 2997TIP3    H130550   0.727   3.147   7.049 -0.3241 -1.3047  1.7388
 2997TIP3    H230551   0.607   3.056   7.037 -0.4734 -0.9773  0.5873
 2998TIP3   OH230552   0.147   1.682   2.337  0.2211 -0.2026  0.3302
 2998TIP3    H130553   0.067   1.707   2.384 -1.1154 -2.2275 -0.7501
 2998TIP3    H230554   0.125   1.691   2.245  1.7023  0.4177  0.0048
 2999TIP3   OH230555   5.918   3.353   2.294 -0.2402 -0.2401  0.1095
 2999TIP3    H130556   5.977   3.416   2.252  1.2332 -0.9394  1.0292
 2999TIP3    H230557   5.967   3.323   2.370 -1.8144 -0.8765  0.9104
 3000TIP3   OH230558   1.384   5.725   0.120 -0.1095 -0.1592 -0.0300
 3000TIP3    H130559   1.356   5.634   0.106  1.0429 -0.5745  0.2233
 3000TIP3    H230560   1.476   5.725   0.095  0.2650  0.6170  1.2475
 3001TIP3   OH230561   6.466   6.823   2.513 -0.1082  0.0388 -0.1311
 3001TIP3    H130562   6.550   6.785   2.536 -0.5092 -0.7792  0.0266
 3001TIP3    H230563   6.427   6.847   2.598 -0.4253 -0.4503 -0.1332
 3002TIP3   OH230564   1.095   5.637   1.935  0.2631 -0.5739  0.0570
 3002TIP3    H130565   1.168   5.599   1.984  0.5727 -0.5886 -0.4112
 3002TIP3    H230566   1.137   5.692   1.869 -0.0929 -1.5631 -1.0328
 3003TIP3   OH230567   5.653   4.247   8.315  0.4632  0.5758 -0.2788
 3003TIP3    H130568   5.613   4.264   8.229 -0.4190  0.3622  0.0723
 3003TIP3    H230569   5.656   4.151   8.321  0.7340  0.5914 -0.1643
 3004TIP3   OH230570   0.285   6.842   7.784  0.1976  0.4932 -0.0755
 3004TIP3    H130571   0.296   6.765   7.728  0.2031 -0.0856  0.7140
 3004TIP3    H230572   0.356   6.835   7.849 -0.8379  0.2400  1.0565
 3005TIP3   OH230573   2.243   3.858   1.041  0.3199 -0.1891  0.0407
 3005TIP3    H130574   2.318   3.908   1.072  1.6479 -1.5069 -0.9005
 3005TIP3    H230575   2.264   3.837   0.950 -0.6969 -1.5199  0.0840
 3006TIP3   OH230576   3.154   5.095   1.609 -0.2437  0.1481  0.1826
 3006TIP3    H130577   3.079   5.062   1.658  1.2920 -2.9844  0.6470
 3006TIP3    H230578   3.177   5.177   1.654 -0.2635 -1.4744  3.4379
 3007TIP3   OH230579   1.084   3.506   0.424 -0.3252 -1.0032 -0.4369
 3007TIP3    H130580   1.090   3.558   0.505  2.4062 -1.2873 -0.3528
 3007TIP3    H230581   1.027   3.558   0.367 -0.5487  0.2972  0.8836
 3008TIP3   OH230582   1.948   3.370   2.016  0.1508 -0.4035  0.3578
 3008TIP3    H130583   1.983   3.345   2.101 -0.3073 -0.8766  0.4137
 3008TIP3    H230584   1.944   3.465   2.018  1.8722 -0.3113  0.1664
 3009TIP3   OH230585   5.851   1.814   6.769  0.0636  0.0408  0.4334
 3009TIP3    H130586   5.799   1.853   6.699  0.5449  2.1636  1.1590
 3009TIP3    H230587   5.938   1.802   6.730  0.0150  0.0909  0.3102
 3010TIP3   OH230588   3.453   0.449   8.500  0.6115 -0.0921  0.0704
 3010TIP3    H130589   3.514   0.456   8.426 -0.4065 -0.0910 -0.7876
 3010TIP3    H230590   3.456   0.536   8.541  0.5005  0.2042 -0.5308
 3011TIP3   OH230591   0.362   0.968   0.178 -0.2535  0.2875 -0.6788
 3011TIP3    H130592   0.328   0.890   0.133 -1.0568  0.2396 -0.0321
 3011TIP3    H230593   0.295   1.035   0.165  0.5912  0.9870 -1.5136
 3012TIP3   OH230594   2.266   2.436   0.808 -0.0320 -0.5801  0.5231
 3012TIP3    H130595   2.200   2.466   0.871 -0.4471 -0.7775  0.1795
 3012TIP3    H230596   2.246   2.483   0.727  0.2349 -0.6609  0.4075
 3013TIP3   OH230597   1.203   1.760   0.243 -0.3347  0.2746 -0.0416
 3013TIP3    H130598   1.298   1.756   0.251 -0.3623  1.3786  1.3448
 3013TIP3    H230599   1.186   1.760   0.149  1.0701  0.6986 -0.3160
 3014TIP3   OH230600   1.405   5.395   7.689 -0.2817 -0.1792 -0.3379
 3014TIP3    H130601   1.483   5.415   7.637  0.7494 -1.5157  0.5841
 3014TIP3    H230602   1.424   5.309   7.726 -1.3937  0.2919  1.4294
 3015TIP3   OH230603   3.959   5.285   8.435  0.3825  0.0073  0.0173
 3015TIP3    H130604   3.987   5.359   8.383 -0.0089  0.3413  0.2714
 3015TIP3    H230605   3.988   5.305   8.524 -2.5477  1.4835  0.7845
 3016TIP3   OH230606   4.984   2.422   0.449 -0.3191  0.2852  0.0085
 3016TIP3    H130607   4.911   2.381   0.401 -1.5518 -0.4434  2.3680
 3016TIP3    H230608   4.941   2.479   0.513  1.1737 -0.2870  1.5754
 3017TIP3   OH230609   3.452   6.771   8.510  0.4770 -0.6224 -0.1205
 3017TIP3    H130610   3.485   6.683   8.492  0.9445 -0.3145 -0.7991
 3017TIP3    H230611   3.510   6.829   8.461  0.9160  0.1579  1.2593
 3018TIP3   OH230612   1.135   5.264   0.099 -0.3509  0.0115  0.2928
 3018TIP3    H130613   1.225   5.237   0.082 -0.0217  0.9074  0.5573
 3018TIP3    H230614   1.081   5.203   0.048  0.3985 -0.5589  0.1727
 3019TIP3   OH230615   2.946   1.085   2.626 -0.1617 -0.2416  0.1453
 3019TIP3    H130616   2.980   1.055   2.541  0.7399 -2.7674  1.2996
 3019TIP3    H230617   2.996   1.164   2.645  1.7155 -1.2343 -0.3986
 3020TIP3   OH230618   4.817   4.353   7.356 -0.1838  0.1475  0.2751
 3020TIP3    H130619   4.841   4.437   7.395 -1.0191  0.6518 -0.2463
 3020TIP3    H230620   4.889   4.333   7.296  0.3658  0.1223  0.9324
 3021TIP3   OH230621   1.871   3.485   8.192 -0.1600  0.5667 -0.0387
 3021TIP3    H130622   1.839   3.418   8.251  3.5578  0.6596  2.4004
 3021TIP3    H230623   1.903   3.437   8.115  0.2245 -0.2211  0.6032
 3022TIP3   OH230624   6.531   0.217   8.307 -0.0277  0.1086  0.5407
 3022TIP3    H130625   6.497   0.138   8.265  1.9370 -1.0034  0.9168
 3022TIP3    H230626   6.620   0.227   8.272  0.2509  1.3899  1.5101
 3023TIP3   OH230627   2.433   4.166   2.053 -0.4283 -0.0130 -0.4616
 3023TIP3    H130628   2.460   4.080   2.022 -0.3054 -0.2505  0.2790
 3023TIP3    H230629   2.348   4.151   2.096  0.2619 -0.0548  0.9626
 3024TIP3   OH230630   1.882   2.302   0.879  0.0064  0.3966 -0.0665
 3024TIP3    H130631   1.834   2.235   0.928  1.7920 -0.9854 -0.1125
 3024TIP3    H230632   1.877   2.380   0.933 -1.0333 -0.1126  0.6038
 3025TIP3   OH230633   2.316   1.371   7.561 -0.7595  0.0193  0.2843
 3025TIP3    H130634   2.281   1.437   7.502 -2.6191 -1.0427  0.1393
 3025TIP3    H230635   2.243   1.349   7.619  0.4446 -0.3988  1.7174
 3026TIP3   OH230636   1.253   5.641   1.167 -0.0133  0.3474  0.4858
 3026TIP3    H130637   1.274   5.644   1.260  1.1118  0.9990  0.2246
 3026TIP3    H230638   1.306   5.710   1.128  0.8009 -1.0067 -0.8931
 3027TIP3   OH230639   4.228   1.045   1.907 -0.2686  0.2443 -0.1758
 3027TIP3    H130640   4.197   1.100   1.978 -0.9199  0.0237 -0.2847
 3027TIP3    H230641   4.317   1.021   1.933  0.7311  2.7736 -0.9681
 3028TIP3   OH230642   1.590   0.734   2.077 -0.2973  0.1570 -0.0934
 3028TIP3    H130643   1.605   0.672   2.149 -0.5542  2.6858  2.3048
 3028TIP3    H230644   1.496   0.729   2.059 -0.3974  0.1739  0.4178
 3029TIP3   OH230645   1.651   3.936   1.877  0.3209  0.3859  0.1555
 3029TIP3    H130646   1.603   3.952   1.959  1.2147  2.5674  0.3160
 3029TIP3    H230647   1.594   3.972   1.809  0.0653 -0.4528 -0.0862
 3030TIP3   OH230648   1.520   3.442   8.237  0.4356 -0.2908  0.0426
 3030TIP3    H130649   1.455   3.426   8.168  1.4492  0.9739 -1.2834
 3030TIP3    H230650   1.477   3.504   8.296 -0.3246 -1.1303  0.3970
 3031TIP3   OH230651   4.278   2.075   6.743 -0.2363 -1.2181  0.5754
 3031TIP3    H130652   4.262   1.995   6.694 -0.6437 -0.9317  0.2399
 3031TIP3    H230653   4.317   2.135   6.680 -0.6208 -0.9017  0.6356
 3032TIP3   OH230654   6.671   5.297   2.142  0.0292  0.5273 -0.2134
 3032TIP3    H130655   6.684   5.230   2.209 -0.0404  2.4675  1.8724
 3032TIP3    H230656   6.743   5.283   2.079 -0.7370 -2.2224 -0.5721
 3033TIP3   OH230657   4.450   4.147   1.032  0.2132  0.0702 -0.0166
 3033TIP3    H130658   4.492   4.084   1.091 -0.7329 -0.8729 -0.3138
 3033TIP3    H230659   4.386   4.192   1.088 -1.4221 -1.5398 -0.4649
 3034TIP3   OH230660   3.578   6.913   6.843  0.4108 -0.2235  0.3073
 3034TIP3    H130661   3.504   6.934   6.901 -0.2953  1.3327 -1.0669
 3034TIP3    H230662   3.539   6.902   6.757  1.4130 -2.7609  0.1024
 3035TIP3   OH230663   0.725   4.628   0.270 -0.0453 -0.1236  0.1163
 3035TIP3    H130664   0.753   4.650   0.182  0.8731 -1.4080  0.0573
 3035TIP3    H230665   0.804   4.596   0.313 -0.2762  1.2757  1.7030
 3036TIP3   OH230666   1.949   2.676   0.651 -0.2702  0.4572  0.4689
 3036TIP3    H130667   1.983   2.655   0.738  1.6410  0.8780 -0.1229
 3036TIP3    H230668   1.856   2.654   0.656  0.1472 -1.2657  2.0459
 3037TIP3   OH230669   3.154   2.479   2.090 -0.6689  0.5315  0.6077
 3037TIP3    H130670   3.060   2.484   2.078 -0.8151 -0.5535  1.1189
 3037TIP3    H230671   3.180   2.567   2.116 -1.2186  1.3688 -1.4546
 3038TIP3   OH230672   6.345   3.553   2.169  0.5045  0.3813  0.0064
 3038TIP3    H130673   6.351   3.629   2.227 -1.6147  0.7650 -0.1849
 3038TIP3    H230674   6.363   3.478   2.226  0.0803  0.8623  0.7893
 3039TIP3   OH230675   5.113   3.661   0.588 -0.2443  0.0801  0.3540
 3039TIP3    H130676   5.056   3.586   0.568 -0.1528 -0.3409  1.5857
 3039TIP3    H230677   5.150   3.686   0.503 -0.1556 -1.3657 -0.0712
 3040TIP3   OH230678   1.817   5.757   0.495 -0.1998  0.3512 -0.5208
 3040TIP3    H130679   1.902   5.735   0.457  0.2549 -0.7695  1.0152
 3040TIP3    H230680   1.753   5.709   0.442  0.4511 -1.4862  0.2605
 3041TIP3   OH230681   0.422   5.919   2.279 -0.3458 -0.6279 -0.0516
 3041TIP3    H130682   0.341   5.912   2.228  0.7500  1.5002 -2.2759
 3041TIP3    H230683   0.484   5.862   2.233  0.4819  0.8198 -0.7848
 3042TIP3   OH230684   5.180   1.076   8.190 -0.2646  0.0858 -0.1105
 3042TIP3    H130685   5.151   0.989   8.161  0.1672 -0.2292  0.3904
 3042TIP3    H230686   5.104   1.112   8.236 -1.2219  0.8922 -2.2003
 3043TIP3   OH230687   2.182   2.733   2.801 -0.3926 -0.1688 -0.0897
 3043TIP3    H130688   2.240   2.687   2.861 -1.6305 -1.4715  0.1574
 3043TIP3    H230689   2.228   2.733   2.717  0.6712  0.3110  0.4786
 3044TIP3   OH230690   0.676   1.283   8.229 -0.3442 -0.3841  0.4523
 3044TIP3    H130691   0.761   1.244   8.249  0.2308  0.3084 -0.5822
 3044TIP3    H230692   0.619   1.254   8.301  0.3161 -2.2422  0.2730
 3045TIP3   OH230693   5.957   4.528   1.635 -0.1072  0.6214 -0.1742
 3045TIP3    H130694   6.035   4.472   1.631  0.4354  1.3790 -0.5353
 3045TIP3    H230695   5.899   4.483   1.696 -0.5122 -1.3158 -1.8943
 3046TIP3   OH230696   5.569   1.711   8.341 -0.1828 -0.2663 -0.4809
 3046TIP3    H130697   5.642   1.653   8.320 -1.6313 -1.8323 -1.4765
 3046TIP3    H230698   5.571   1.719   8.436  0.2807 -1.6529 -0.3566
 3047TIP3   OH230699   4.501   6.082   1.623 -0.2134 -0.1876 -0.0327
 3047TIP3    H130700   4.531   6.014   1.563 -0.0821 -0.7715  0.6743
 3047TIP3    H230701   4.420   6.115   1.584  0.2593 -0.0254 -0.9101
 3048TIP3   OH230702   6.085   3.169   0.590 -0.2348  0.2871  0.4745
 3048TIP3    H130703   6.002   3.127   0.566 -0.8397  0.6188  1.8930
 3048TIP3    H230704   6.145   3.145   0.519 -1.9407  1.3310 -1.4171
 3049TIP3   OH230705   6.321   3.842   1.889  0.1760  0.0801  0.1414
 3049TIP3    H130706   6.285   3.910   1.945  0.6936  0.1516  0.3968
 3049TIP3    H230707   6.410   3.871   1.870 -0.4428  0.8180 -1.9412
 3050TIP3   OH230708   4.828   0.173   0.671  0.4930 -0.6048 -0.4044
 3050TIP3    H130709   4.852   0.246   0.728 -0.8329  0.2565 -0.9213
 3050TIP3    H230710   4.747   0.138   0.710  0.9986 -1.6824 -0.2791
 3051TIP3   OH230711   0.927   1.790   8.152  0.8530 -0.2018 -0.3404
 3051TIP3    H130712   0.912   1.870   8.102 -0.5845 -1.0478 -1.3559
 3051TIP3    H230713   0.840   1.751   8.161  1.5672 -1.8713 -0.2810
 3052TIP3   OH230714   1.916   5.082   2.205 -0.2481  0.1220 -0.7036
 3052TIP3    H130715   1.844   5.141   2.227  0.0894  0.3719 -0.2352
 3052TIP3    H230716   1.994   5.136   2.213  0.0613 -0.3612 -0.3488
 3053TIP3   OH230717   0.137   2.828   7.358 -0.0384 -0.0889  0.3612
 3053TIP3    H130718   0.115   2.800   7.447 -1.1833 -1.1343 -0.2334
 3053TIP3    H230719   0.053   2.841   7.315  0.4451 -2.0222 -1.3064
 3054TIP3   OH230720   1.310   1.887   0.571  0.3172  0.3725 -0.2747
 3054TIP3    H130721   1.277   1.958   0.626  1.0506 -0.0235  0.7036
 3054TIP3    H230722   1.354   1.932   0.498  0.7864  0.9225  0.3400
 3055TIP3   OH230723   5.526   0.928   6.930  0.2078  0.0202 -0.1172
 3055TIP3    H130724   5.522   1.009   6.879  1.0009 -1.1023 -2.0328
 3055TIP3    H230725   5.615   0.896   6.917 -0.0805 -1.1515  0.6398
 3056TIP3   OH230726   0.516   2.048   8.209  0.0872 -0.1823  0.3978
 3056TIP3    H130727   0.517   2.018   8.118 -1.1947 -0.3999  0.4411
 3056TIP3    H230728   0.450   1.994   8.252 -0.7085  1.2103  0.9936
 3057TIP3   OH230729   2.597   2.611   7.454 -0.3403 -0.7049 -0.7026
 3057TIP3    H130730   2.534   2.683   7.459  0.6841  0.1548  2.3367
 3057TIP3    H230731   2.560   2.543   7.510  0.2462 -1.2285 -0.9353
 3058TIP3   OH230732   4.513   3.573   6.783  0.3839 -0.1940  0.3699
 3058TIP3    H130733   4.504   3.537   6.695  1.0397  0.0199  0.2071
 3058TIP3    H230734   4.456   3.520   6.837  0.4193 -0.7001 -0.0855
 3059TIP3   OH230735   0.473   6.474   1.904  0.4613  0.4734 -0.3979
 3059TIP3    H130736   0.556   6.447   1.941  0.0299 -0.5113 -0.1146
 3059TIP3    H230737   0.483   6.568   1.888  0.2928  1.2519  3.2366
 3060TIP3   OH230738   1.425   2.957   0.018  0.2180 -0.0369 -0.1980
 3060TIP3    H130739   1.500   2.898   0.027  1.2369  1.2431  0.1511
 3060TIP3    H230740   1.415   2.969  -0.076  0.3415 -0.3423 -0.2518
 3061TIP3   OH230741   2.056   2.512   2.569 -0.1472  0.2896 -0.2378
 3061TIP3    H130742   2.034   2.587   2.624 -0.1645 -1.2665  1.9524
 3061TIP3    H230743   2.137   2.478   2.606 -0.4609 -1.1550 -0.8282
 3062TIP3   OH230744   3.869   4.842   8.096 -0.3953 -0.1781  0.1190
 3062TIP3    H130745   3.815   4.803   8.027 -0.5641 -0.2343  0.2831
 3062TIP3    H230746   3.947   4.874   8.050 -0.5972 -0.0348 -0.1297
 3063TIP3   OH230747   3.915   6.877   0.885  0.0081 -0.2655  0.1247
 3063TIP3    H130748   3.977   6.883   0.813  1.3847 -0.3199  1.2441
 3063TIP3    H230749   3.832   6.907   0.849 -0.0686 -3.0036 -2.2390
 3064TIP3   OH230750   4.482   0.775   7.501 -0.5400 -0.7013 -0.5115
 3064TIP3    H130751   4.419   0.739   7.438 -0.2232  0.3886 -1.4964
 3064TIP3    H230752   4.500   0.863   7.468  2.1152 -1.2590 -0.7306
 3065TIP3   OH230753   4.589   0.826   6.856  0.9194 -0.5509  0.1427
 3065TIP3    H130754   4.577   0.865   6.769 -0.6009 -0.7062  0.2512
 3065TIP3    H230755   4.678   0.792   6.855  1.5749  1.1179 -0.6669
 3066TIP3   OH230756   5.292   0.322   8.349 -0.0749  0.0567 -0.8558
 3066TIP3    H130757   5.230   0.249   8.353 -0.1444  0.1171 -0.8358
 3066TIP3    H230758   5.292   0.358   8.438  0.5926 -0.4478 -0.6459
 3067TIP3   OH230759   0.636   6.291   2.065 -0.1015  0.4597 -0.4636
 3067TIP3    H130760   0.687   6.218   2.028 -0.8594  0.0656 -0.7521
 3067TIP3    H230761   0.607   6.258   2.150 -2.7025 -0.6479 -1.7018
 3068TIP3   OH230762   5.194   0.908   7.338 -0.1303  0.5834  0.1686
 3068TIP3    H130763   5.142   0.982   7.369 -0.1918  1.4438 -1.8120
 3068TIP3    H230764   5.208   0.926   7.245  2.6415 -0.2557  0.3253
 3069TIP3   OH230765   0.350   0.271   0.123 -0.1585 -0.0780 -0.3418
 3069TIP3    H130766   0.269   0.323   0.120 -1.0703 -1.0353  3.2678
 3069TIP3    H230767   0.327   0.189   0.080 -0.7627  0.0434 -0.2625
 3070TIP3   OH230768   5.601   2.961   7.503  0.1867 -0.5529 -0.1721
 3070TIP3    H130769   5.682   2.933   7.460  0.0141  0.9850 -1.6225
 3070TIP3    H230770   5.563   3.024   7.442 -2.1162 -1.2333  0.4754
 3071TIP3   OH230771   5.854   5.673   7.946 -0.0009  0.4561  0.0535
 3071TIP3    H130772   5.832   5.758   7.908 -1.3097  0.1372  0.0422
 3071TIP3    H230773   5.798   5.611   7.899  0.0598 -0.2545  0.8897
 3072TIP3   OH230774   4.097   5.745   1.837 -0.5312 -0.0035  0.0599
 3072TIP3    H130775   4.105   5.652   1.816 -0.6626 -0.3007  1.2423
 3072TIP3    H230776   4.184   5.780   1.820  0.2401 -0.8677  1.8969
 3073TIP3   OH230777   1.329   0.387   7.897 -0.1367  0.1437 -0.0419
 3073TIP3    H130778   1.393   0.459   7.902  0.1152  0.1042 -2.1397
 3073TIP3    H230779   1.259   0.422   7.842 -0.5991 -0.8090 -0.0627
 3074TIP3   OH230780   4.910   6.363   7.890  0.5011  0.2148 -0.4426
 3074TIP3    H130781   4.866   6.279   7.875 -1.5560  1.0037  0.7837
 3074TIP3    H230782   4.950   6.354   7.976 -0.3392  0.7147  0.0100
 3075TIP3   OH230783   4.723   3.798   7.737  0.2826 -0.2236  0.1767
 3075TIP3    H130784   4.781   3.869   7.708  1.2489 -0.8517  0.5538
 3075TIP3    H230785   4.723   3.736   7.664  0.9849 -0.7564  0.6174
 3076TIP3   OH230786   6.177   2.102   0.270  0.7346  0.4471 -0.3358
 3076TIP3    H130787   6.103   2.163   0.278 -1.3274 -2.0032  0.5129
 3076TIP3    H230788   6.183   2.060   0.356  2.7471  0.1096 -0.5860
 3077TIP3   OH230789   3.100   5.761   0.038  0.1288 -0.7707 -0.1476
 3077TIP3    H130790   3.100   5.669   0.012  2.3079 -1.0450  0.5862
 3077TIP3    H230791   3.113   5.759   0.132 -1.7904  0.2959  0.1789
 3078TIP3   OH230792   2.851   4.905   0.087 -0.0822  0.0433 -0.0741
 3078TIP3    H130793   2.825   4.987   0.044 -0.8854 -0.7985 -1.2694
 3078TIP3    H230794   2.831   4.837   0.022 -1.0800 -1.2683  1.5448
 3079TIP3   OH230795   5.693   2.217   8.256 -0.6136 -0.1077 -0.4859
 3079TIP3    H130796   5.781   2.241   8.226 -0.6881  2.0648  0.8152
 3079TIP3    H230797   5.709   2.169   8.338 -0.6025 -1.3141 -1.1783
 3080TIP3   OH230798   6.517   3.406   2.714 -0.4846  0.1535  0.8766
 3080TIP3    H130799   6.591   3.383   2.658 -1.7561  0.6132 -1.0905
 3080TIP3    H230800   6.454   3.336   2.700 -1.7023  1.3745 -0.0251
 3081TIP3   OH230801   1.972   0.978   1.418 -0.5516 -0.3659 -0.8871
 3081TIP3    H130802   1.922   0.964   1.499  0.7088  3.9438  0.8974
 3081TIP3    H230803   1.915   1.034   1.365  1.0877  2.3728  0.0390
 3082TIP3   OH230804   2.402   0.002   1.988  0.5511 -0.1989 -0.6636
 3082TIP3    H130805   2.385   0.072   2.052 -0.2840 -1.3210  0.3837
 3082TIP3    H230806   2.327   0.005   1.929  0.2315 -0.5528 -0.2841
 3083TIP3   OH230807   5.929   0.418   6.745 -0.2904 -0.1800 -0.3913
 3083TIP3    H130808   5.978   0.430   6.664 -1.5433  0.1794 -1.1342
 3083TIP3    H230809   5.937   0.503   6.790  1.3435 -0.7332  0.4405
 3084TIP3   OH230810   4.067   6.221   1.769 -0.9450  0.2398 -0.5016
 3084TIP3    H130811   3.973   6.210   1.751 -1.1887 -2.8928  1.7914
 3084TIP3    H230812   4.073   6.217   1.865  1.4916  1.0138 -0.5608
 3085TIP3   OH230813   6.649   5.135   0.812  0.0454  0.4684 -0.4435
 3085TIP3    H130814   6.635   5.230   0.816  1.3229  0.7047 -1.0659
 3085TIP3    H230815   6.684   5.112   0.898  1.8695  0.9766 -0.9971
 3086TIP3   OH230816   5.649   0.717   7.976 -0.1783  0.1276  0.2100
 3086TIP3    H130817   5.604   0.789   8.020 -0.7175 -0.3905  0.5209
 3086TIP3    H230818   5.644   0.644   8.038  0.4143 -0.1609 -0.0745
 3087TIP3   OH230819   3.790   0.811   7.356 -0.3239  0.5022 -0.2974
 3087TIP3    H130820   3.883   0.814   7.333 -0.2943 -0.9283 -0.4508
 3087TIP3    H230821   3.757   0.897   7.330  0.9875  1.1166 -0.0408
 3088TIP3   OH230822   0.426   5.542   7.791  0.0267 -0.0948 -0.2007
 3088TIP3    H130823   0.502   5.484   7.798 -0.8135 -1.1056  1.2329
 3088TIP3    H230824   0.357   5.496   7.839 -1.3773  0.9840 -1.1203
 3089TIP3   OH230825   0.780   0.219   8.102  0.5229  0.8236 -0.2166
 3089TIP3    H130826   0.803   0.136   8.143 -0.9048  1.0111  1.0461
 3089TIP3    H230827   0.862   0.252   8.066  1.6345  0.1575  1.6148
 3090TIP3   OH230828   1.980   5.582   7.534 -0.0236  0.1349 -0.1551
 3090TIP3    H130829   1.946   5.601   7.447  1.9378  1.3266 -0.7374
 3090TIP3    H230830   1.952   5.657   7.588 -2.0772 -1.0617  0.5808
 3091TIP3   OH230831   3.357   3.491   7.156  0.1427  0.4051 -0.0101
 3091TIP3    H130832   3.312   3.406   7.151 -0.2179  0.6576 -2.2722
 3091TIP3    H230833   3.367   3.507   7.250  2.1699 -3.1456  0.5784
 3092TIP3   OH230834   4.014   3.877   2.567 -0.1092 -0.0375 -0.4507
 3092TIP3    H130835   4.062   3.880   2.484  0.3437  0.3511 -0.1808
 3092TIP3    H230836   4.072   3.828   2.626  0.2049  0.8917  0.0283
 3093TIP3   OH230837   5.051   4.753   1.427 -0.0512  0.0592  0.2606
 3093TIP3    H130838   5.001   4.752   1.345 -0.3206  1.0025  0.3939
 3093TIP3    H230839   4.985   4.740   1.495 -0.0468  0.7191  0.4011
 3094TIP3   OH230840   6.885   5.360   0.608  0.0358  0.0198  0.1314
 3094TIP3    H130841   6.818   5.350   0.675 -1.6825 -2.1757 -1.7549
 3094TIP3    H230842   6.876   5.452   0.580 -1.4694  0.0629  0.6557
 3095TIP3   OH230843   3.638   0.532   2.163 -0.0740 -0.4085  0.0393
 3095TIP3    H130844   3.666   0.594   2.229  0.2350  0.5938 -0.9969
 3095TIP3    H230845   3.714   0.522   2.105 -0.9163  0.1870 -1.2112
 3096TIP3   OH230846   6.600   5.497   8.524  0.6454 -0.4006  0.1650
 3096TIP3    H130847   6.578   5.409   8.494  0.7975 -0.5002  0.3391
 3096TIP3    H230848   6.642   5.483   8.609  0.4181 -0.1403  0.3215
 3097TIP3   OH230849   3.968   1.777   8.308  0.2734 -0.2860 -0.1935
 3097TIP3    H130850   4.035   1.709   8.315 -0.9048 -1.3358  2.2271
 3097TIP3    H230851   3.912   1.747   8.237 -0.1769 -1.8828  0.7762
 3098TIP3   OH230852   5.912   3.230   1.252 -0.0433 -0.2661  0.0099
 3098TIP3    H130853   5.862   3.286   1.192 -1.6542 -0.8047  0.7734
 3098TIP3    H230854   5.913   3.144   1.209  1.6207  0.0971 -0.7277
 3099TIP3   OH230855   6.504   4.388   7.908  0.1508  0.1531  0.3350
 3099TIP3    H130856   6.544   4.467   7.945  0.9893 -0.2116  0.2161
 3099TIP3    H230857   6.410   4.400   7.923  0.3518  0.6979  1.2466
 3100TIP3   OH230858   6.038   0.323   1.515 -0.2047  0.0689  0.2667
 3100TIP3    H130859   6.092   0.244   1.507  1.4315  1.1939 -0.4700
 3100TIP3    H230860   6.009   0.342   1.426  1.2949  1.4708  0.0017
 3101TIP3   OH230861   4.113   0.585   1.215 -0.2440 -0.3024  0.3013
 3101TIP3    H130862   4.053   0.601   1.142 -0.7507  0.2450  0.8210
 3101TIP3    H230863   4.090   0.653   1.279  1.2515  0.2093  0.3232
 3102TIP3   OH230864   6.266   4.344   0.246 -0.1243  0.2348 -0.0154
 3102TIP3    H130865   6.183   4.363   0.291 -0.1819  0.5326 -0.2427
 3102TIP3    H230866   6.241   4.288   0.173 -0.1538  0.4890 -0.2014
 3103TIP3   OH230867   4.768   5.481   7.805  0.2881 -0.7589 -0.2719
 3103TIP3    H130868   4.765   5.557   7.862  0.7221  0.6357 -2.0334
 3103TIP3    H230869   4.725   5.509   7.724  0.0823 -2.5201 -0.8279
 3104TIP3   OH230870   1.618   5.926   2.452  0.2473  0.5126 -0.7224
 3104TIP3    H130871   1.560   5.849   2.449  0.0157  0.7078 -1.4816
 3104TIP3    H230872   1.686   5.902   2.515 -0.4669  0.1410 -0.0775
 3105TIP3   OH230873   3.940   1.251   2.062 -0.8507 -0.1026 -0.2328
 3105TIP3    H130874   3.909   1.305   1.990 -1.7730 -2.0007 -1.3221
 3105TIP3    H230875   3.875   1.264   2.131 -1.3821 -0.2714 -0.6994
 3106TIP3   OH230876   2.238   6.038   2.708 -0.5325 -0.2050  0.7805
 3106TIP3    H130877   2.199   6.097   2.773 -0.1337  0.7826  0.1362
 3106TIP3    H230878   2.332   6.041   2.727 -0.1810  1.5128 -0.9336
 3107TIP3   OH230879   2.508   0.525   6.668  0.1856  0.3411 -0.6729
 3107TIP3    H130880   2.478   0.612   6.693 -0.9776  0.5794 -2.7165
 3107TIP3    H230881   2.499   0.473   6.748 -0.2607  1.7816  0.2552
 3108TIP3   OH230882   0.190   3.001   7.664 -0.1941  0.5488 -0.0859
 3108TIP3    H130883   0.200   3.096   7.663 -1.2982  0.6807  0.4763
 3108TIP3    H230884   0.280   2.967   7.660  0.1620  1.5668 -2.4748
 3109TIP3   OH230885   1.197   5.008   0.445 -0.1198  0.2895  0.1415
 3109TIP3    H130886   1.159   4.923   0.421 -0.3381  0.9918 -2.3136
 3109TIP3    H230887   1.270   5.020   0.384 -0.7249  2.3000 -0.2700
 3110TIP3   OH230888   1.043   5.393   1.330  0.5241  0.1212  0.2028
 3110TIP3    H130889   0.973   5.391   1.396 -0.4248 -2.5995 -0.7309
 3110TIP3    H230890   1.002   5.433   1.253  0.2428 -0.6408 -0.0552
 3111TIP3   OH230891   1.679   0.340   0.477 -0.1538 -0.1425  0.0695
 3111TIP3    H130892   1.647   0.347   0.387 -2.2274  1.6557  0.8804
 3111TIP3    H230893   1.755   0.399   0.479  0.1978 -0.5483 -0.5774
 3112TIP3   OH230894   2.064   1.574   7.956 -0.3579  0.0524  0.1957
 3112TIP3    H130895   2.011   1.633   8.009 -1.4072 -0.4148 -0.3003
 3112TIP3    H230896   2.031   1.487   7.977  0.6624 -0.3043  0.3554
 3113TIP3   OH230897   0.213   1.334   0.824 -0.2565 -0.0551  0.1641
 3113TIP3    H130898   0.216   1.428   0.841  1.7218  0.1979 -1.1998
 3113TIP3    H230899   0.272   1.321   0.750  1.0650 -2.6250  1.5092
 3114TIP3   OH230900   5.600   0.584   0.838  0.8399  0.0072 -0.1414
 3114TIP3    H130901   5.663   0.625   0.898  0.5280  1.0830 -0.5271
 3114TIP3    H230902   5.538   0.654   0.817  0.5590 -0.5455 -1.1957
 3115TIP3   OH230903   5.263   6.380   0.295 -0.0311  0.2340  0.0813
 3115TIP3    H130904   5.262   6.412   0.386 -3.6577  1.5614 -0.2392
 3115TIP3    H230905   5.246   6.458   0.243 -1.1999 -0.9806 -1.4429
 3116TIP3   OH230906   6.626   2.154   0.930 -0.2812  0.0867 -0.5186
 3116TIP3    H130907   6.570   2.097   0.982 -0.6707  0.4485 -0.5358
 3116TIP3    H230908   6.606   2.242   0.963  1.3851  0.1116  0.5555
 3117TIP3   OH230909   0.794   5.673   1.873 -0.1334  0.7617  0.1353
 3117TIP3    H130910   0.879   5.630   1.888 -0.3780 -0.6218 -1.9667
 3117TIP3    H230911   0.752   5.673   1.959  0.8579 -1.1616  0.6929
 3118TIP3   OH230912   0.811   6.590   7.397  0.1262 -0.5627  0.0305
 3118TIP3    H130913   0.724   6.595   7.357  0.6351 -1.4859 -1.2626
 3118TIP3    H230914   0.799   6.625   7.485 -1.0145  1.7317 -0.9600
 3119TIP3   OH230915   0.887   0.740   0.332  1.0889  0.0135  0.2430
 3119TIP3    H130916   0.941   0.736   0.410 -0.6452  0.0913  1.5106
 3119TIP3    H230917   0.919   0.669   0.277  3.0469  0.6398  0.5189
 3120TIP3   OH230918   4.088   4.893   7.943 -0.2117  0.1265 -0.2848
 3120TIP3    H130919   4.110   4.867   7.853  0.2360 -1.2775  0.2134
 3120TIP3    H230920   4.172   4.916   7.982 -0.1366 -1.2232  0.3738
 3121TIP3   OH230921   2.829   0.680   1.429 -0.2278  0.8487  0.2457
 3121TIP3    H130922   2.786   0.613   1.482  0.8909 -0.3867 -0.3615
 3121TIP3    H230923   2.898   0.633   1.382  0.3562  2.3665 -0.4728
 3122TIP3   OH230924   0.987   4.404   2.139  0.0571 -0.2249  0.4082
 3122TIP3    H130925   0.930   4.367   2.206  1.3625  0.1619  1.7797
 3122TIP3    H230926   1.074   4.368   2.159  0.3571 -0.6667 -1.5233
 3123TIP3   OH230927   1.834   4.217   1.585  0.1148  0.0390  0.4538
 3123TIP3    H130928   1.877   4.283   1.530  0.8447 -0.5892  0.2453
 3123TIP3    H230929   1.759   4.263   1.623  0.1530  0.7630 -0.3005
 3124TIP3   OH230930   5.211   6.192   2.729 -0.1160 -0.1397  0.3762
 3124TIP3    H130931   5.151   6.118   2.728  1.9159 -1.9560 -1.9268
 3124TIP3    H230932   5.288   6.160   2.778  1.3945 -0.2120 -1.8989
 3125TIP3   OH230933   6.808   5.474   0.209  0.6235  0.0713 -0.0313
 3125TIP3    H130934   6.791   5.550   0.264 -0.2255  0.2096 -0.4649
 3125TIP3    H230935   6.896   5.488   0.174  0.0789  1.3796 -0.9399
 3126TIP3   OH230936   2.779   0.814   2.996 -0.0179  0.3027  0.0778
 3126TIP3    H130937   2.861   0.862   2.985  0.2644  0.0510  0.9973
 3126TIP3    H230938   2.798   0.725   2.965 -0.3578  0.5957 -1.0225
 3127TIP3   OH230939   1.613   1.707   1.572 -0.3812  0.7770 -0.1367
 3127TIP3    H130940   1.613   1.733   1.664 -1.5838  1.5321 -0.3330
 3127TIP3    H230941   1.592   1.613   1.574  3.2737 -0.2048  0.5268
 3128TIP3   OH230942   1.367   6.041   8.433  0.0584  0.1322  0.4836
 3128TIP3    H130943   1.360   5.946   8.438 -0.2815  0.1378  0.1758
 3128TIP3    H230944   1.437   6.056   8.369  2.2871  0.0875  2.7216
 3129TIP3   OH230945   6.504   5.193   7.625 -0.4528 -0.4830  0.0576
 3129TIP3    H130946   6.522   5.213   7.717  1.7203 -1.9743  0.0210
 3129TIP3    H230947   6.439   5.259   7.599  0.2242  1.1237  2.1288
 3130TIP3   OH230948   2.123   2.257   1.093  0.1985 -0.2159 -0.1680
 3130TIP3    H130949   2.152   2.167   1.101 -1.9166 -1.0895 -1.4037
 3130TIP3    H230950   2.108   2.286   1.183  0.1560 -1.3596  0.2052
 3131TIP3   OH230951   5.913   0.151   0.701  0.2657  0.1638 -0.4213
 3131TIP3    H130952   5.890   0.240   0.674 -1.1451  0.3205  1.1480
 3131TIP3    H230953   5.941   0.160   0.792 -0.8758 -1.1056  0.0941
 3132TIP3   OH230954   3.072   0.764   2.027  0.3966 -0.0245  0.0914
 3132TIP3    H130955   3.089   0.857   2.015  0.4880  0.1673  1.5364
 3132TIP3    H230956   3.144   0.733   2.082 -2.0028  0.1079  3.6241
 3133TIP3   OH230957   2.539   2.777   0.003  0.1817  0.0439 -0.1880
 3133TIP3    H130958   2.533   2.842  -0.067  0.1138  0.2579  0.0166
 3133TIP3    H230959   2.625   2.736  -0.010  0.2988  0.2939 -0.2131
 3134TIP3   OH230960   3.353   4.405   1.963  0.1068  0.1177 -0.0948
 3134TIP3    H130961   3.364   4.356   2.044  0.2041 -1.5420 -1.0516
 3134TIP3    H230962   3.266   4.445   1.971 -0.6358 -1.4443  0.1607
 3135TIP3   OH230963   3.245   0.828   1.051 -0.0055 -0.2168 -0.3666
 3135TIP3    H130964   3.172   0.886   1.028 -0.0907 -0.1330  0.1158
 3135TIP3    H230965   3.324   0.878   1.028  0.0005  0.9092  1.8153
 3136TIP3   OH230966   0.211   0.656   2.658  0.6208  0.0424 -0.6266
 3136TIP3    H130967   0.144   0.716   2.691  0.2881 -1.2264  1.1930
 3136TIP3    H230968   0.211   0.669   2.563 -1.0129  1.2796 -0.4996
 3137TIP3   OH230969   0.333   1.263   1.589 -0.0140 -0.0871  0.2145
 3137TIP3    H130970   0.309   1.183   1.635 -2.5343  0.9349  0.8496
 3137TIP3    H230971   0.263   1.277   1.526  0.8601  1.1406 -0.5354
 3138TIP3   OH230972   1.228   2.729   0.298 -0.3326  0.2267 -0.7890
 3138TIP3    H130973   1.208   2.818   0.268  0.5058  0.7780  0.2186
 3138TIP3    H230974   1.308   2.739   0.350 -0.8535 -0.9275  0.2868
 3139TIP3   OH230975   2.129   5.281   2.237 -0.1255  0.0670 -0.0955
 3139TIP3    H130976   2.127   5.327   2.153 -0.7890  0.7640  0.2929
 3139TIP3    H230977   2.179   5.338   2.295 -0.4753  0.0429  0.2362
 3140TIP3   OH230978   0.146   6.519   2.630 -0.4109  0.1722 -0.2090
 3140TIP3    H130979   0.211   6.475   2.576  0.1036  1.2665 -0.5151
 3140TIP3    H230980   0.180   6.511   2.720 -1.4165 -1.9042  0.0433
 3141TIP3   OH230981   1.597   5.528   0.630  0.4861 -0.1708  0.0208
 3141TIP3    H130982   1.651   5.450   0.640 -0.8110 -1.4170 -1.9467
 3141TIP3    H230983   1.593   5.543   0.535 -1.4431  0.6888  0.1800
 3142TIP3   OH230984   6.403   4.237   1.266  0.6406 -0.1441 -0.0415
 3142TIP3    H130985   6.336   4.302   1.289 -0.5529 -1.1905 -0.4569
 3142TIP3    H230986   6.472   4.288   1.223 -0.1148  0.8920 -0.0607
 3143TIP3   OH230987   3.503   0.457   2.749  0.2234  0.1214 -0.0640
 3143TIP3    H130988   3.583   0.407   2.766  0.9334  1.1302 -0.3375
 3143TIP3    H230989   3.474   0.486   2.836  0.9045  0.8463 -0.0624
 3144TIP3   OH230990   5.088   2.628   1.189 -0.1506 -0.1630  0.1859
 3144TIP3    H130991   5.001   2.600   1.218 -0.1520 -0.1027  0.2409
 3144TIP3    H230992   5.095   2.718   1.220 -0.2993  0.0260 -0.3227
 3145TIP3   OH230993   4.521   4.973   1.209 -0.3340  0.5129 -0.5086
 3145TIP3    H130994   4.462   4.898   1.206  2.1592 -1.6539  0.8016
 3145TIP3    H230995   4.528   5.002   1.118 -0.4592 -1.6337 -1.2430
 3146TIP3   OH230996   4.811   1.160   1.423 -0.0059 -0.0412 -0.1244
 3146TIP3    H130997   4.828   1.180   1.515 -0.4135  1.6232 -0.3719
 3146TIP3    H230998   4.883   1.102   1.397  1.6593  1.6271  0.5441
 3147TIP3   OH230999   3.816   5.827   1.481  0.2849  0.0464 -0.1792
 3147TIP3    H131000   3.874   5.796   1.411  0.0540  1.6045 -1.1205
 3147TIP3    H231001   3.835   5.769   1.555  1.7628 -0.5995 -1.0049
 3148TIP3   OH231002   5.331   4.957   8.269 -0.0413  0.5112  0.0082
 3148TIP3    H131003   5.331   4.920   8.357  1.4182 -0.7241 -0.4543
 3148TIP3    H231004   5.402   5.022   8.270  2.3696 -1.8703 -1.0519
 3149TIP3   OH231005   5.969   3.292   7.900 -0.3411 -0.4655  0.1186
 3149TIP3    H131006   5.964   3.202   7.868 -0.7619 -0.3407 -0.1661
 3149TIP3    H231007   5.982   3.344   7.822 -0.5260 -0.2371  0.2408
 3150TIP3   OH231008   4.172   5.757   1.520  0.6732 -0.0118 -0.2379
 3150TIP3    H131009   4.099   5.731   1.463 -0.2332  0.0783  0.8611
 3150TIP3    H231010   4.171   5.693   1.591  0.5400  1.0484  0.7283
 3151TIP3   OH231011   1.946   3.659   2.028  0.4158 -0.1549  0.2620
 3151TIP3    H131012   2.032   3.686   2.061  0.9153  0.8397 -1.6624
 3151TIP3    H231013   1.959   3.649   1.934 -1.4505 -0.5590  0.0098
 3152TIP3   OH231014   5.313   3.577   1.153 -0.2312  0.2253  0.1340
 3152TIP3    H131015   5.305   3.482   1.152  0.8824  0.1221  0.2532
 3152TIP3    H231016   5.321   3.602   1.061  2.9650 -0.1548  0.1954
 3153TIP3   OH231017   0.970   4.743   0.543 -0.4097 -0.5046  0.6943
 3153TIP3    H131018   1.048   4.735   0.599 -1.1031  1.4021  2.0545
 3153TIP3    H231019   1.005   4.763   0.457  0.6370 -1.2306  0.9187
 3154TIP3   OH231020   3.266   6.108   8.209 -0.2187 -0.0991 -0.3167
 3154TIP3    H131021   3.230   6.054   8.139 -1.9382 -2.2649  2.0803
 3154TIP3    H231022   3.192   6.127   8.266  0.8448  2.8142  0.2779
 3155TIP3   OH231023   0.643   6.809   7.213  0.6045 -0.0990 -0.7243
 3155TIP3    H131024   0.665   6.748   7.143  1.3449 -0.2462 -0.3772
 3155TIP3    H231025   0.721   6.864   7.223  0.2466  0.3757 -0.4906
 3156TIP3   OH231026   4.661   1.213   8.099  0.4332 -0.0367 -0.9446
 3156TIP3    H131027   4.591   1.241   8.039  0.8527  0.3627 -1.2529
 3156TIP3    H231028   4.728   1.280   8.090  0.6147 -0.1118 -0.2141
 3157TIP3   OH231029   6.115   4.404   8.516  0.0605 -0.3370 -0.5609
 3157TIP3    H131030   6.102   4.355   8.435  1.2608 -0.1676 -0.8755
 3157TIP3    H231031   6.088   4.343   8.585  0.2863 -0.9757 -1.0206
 3158TIP3   OH231032   1.209   5.868   2.145 -0.3199 -0.0418  0.3390
 3158TIP3    H131033   1.186   5.871   2.238  0.6225 -1.4703  0.6450
 3158TIP3    H231034   1.187   5.779   2.118 -1.4576  0.6300 -1.0703
 3159TIP3   OH231035   1.302   4.234   0.716 -0.0999 -0.1414 -0.2404
 3159TIP3    H131036   1.311   4.258   0.808 -2.1084 -0.6712  0.1525
 3159TIP3    H231037   1.262   4.147   0.717 -0.2178 -0.1336 -1.6003
 3160TIP3   OH231038   2.314   1.565   7.808  0.1008 -0.4256 -0.0491
 3160TIP3    H131039   2.223   1.569   7.838 -0.0886 -1.1590 -0.4969
 3160TIP3    H231040   2.339   1.656   7.793 -0.2209 -0.1391  1.0580
 3161TIP3   OH231041   5.803   6.628   7.546 -0.3178 -0.4637 -0.0214
 3161TIP3    H131042   5.849   6.648   7.464  2.4159  0.1308  1.5240
 3161TIP3    H231043   5.835   6.540   7.570 -1.4627 -0.8376  0.1996
 3162TIP3   OH231044   2.529   0.830   3.369 -0.1564 -0.0910 -0.1997
 3162TIP3    H131045   2.458   0.778   3.409 -1.0484 -0.0925 -1.7182
 3162TIP3    H231046   2.535   0.797   3.280  0.0314  1.6429 -0.8592
 3163TIP3   OH231047   3.482   0.364   1.585  0.4914  0.7748 -0.0481
 3163TIP3    H131048   3.546   0.424   1.547  0.0760  1.4476  0.2825
 3163TIP3    H231049   3.514   0.349   1.674  1.7505 -1.2179 -0.7694
 3164TIP3   OH231050   2.356   2.706   2.576  0.6440 -0.0991  0.0854
 3164TIP3    H131051   2.383   2.757   2.500  0.8553 -0.2170  0.0803
 3164TIP3    H231052   2.437   2.665   2.608  0.3814 -0.9460 -0.3001
 3165TIP3   OH231053   0.180   5.707   0.910 -0.4484 -0.6006 -0.4777
 3165TIP3    H131054   0.184   5.617   0.943 -0.3374 -0.3898  0.0988
 3165TIP3    H231055   0.208   5.761   0.984 -0.3029 -0.1049 -0.8869
 3166TIP3   OH231056   1.843   1.353   2.291 -0.0856 -0.4845 -0.1154
 3166TIP3    H131057   1.780   1.385   2.355 -0.9267 -0.4414 -0.9489
 3166TIP3    H231058   1.926   1.349   2.339 -0.7602 -0.7775  1.0671
 3167TIP3   OH231059   0.841   1.312   2.325 -0.6066  0.3558  0.3815
 3167TIP3    H131060   0.871   1.353   2.244 -0.8517 -0.6707 -0.2379
 3167TIP3    H231061   0.746   1.305   2.315 -0.5712 -0.3553  0.4665
 3168TIP3   OH231062   5.443   6.576   1.446  0.4264  0.8131 -0.2985
 3168TIP3    H131063   5.420   6.548   1.358 -0.6928  0.6832  0.0188
 3168TIP3    H231064   5.529   6.617   1.437  1.3360 -1.1765 -1.0474
 3169TIP3   OH231065   0.406   2.872   6.984  0.2744  0.0802 -0.1358
 3169TIP3    H131066   0.364   2.958   6.977  0.2543  0.1901  1.1222
 3169TIP3    H231067   0.334   2.812   7.006  0.5506  0.0457  0.7113
 3170TIP3   OH231068   4.728   5.400   7.390 -0.6088  0.3603 -0.1373
 3170TIP3    H131069   4.666   5.340   7.432 -0.9379 -0.7876 -2.1364
 3170TIP3    H231070   4.682   5.434   7.314  0.6246  0.8344 -0.7059
 3171TIP3   OH231071   6.686   0.679   0.195  0.3023  0.1987  0.6387
 3171TIP3    H131072   6.618   0.712   0.254 -1.0880 -0.6161 -0.4501
 3171TIP3    H231073   6.702   0.589   0.225  1.9278  0.8015  1.7317
 3172TIP3   OH231074   3.724   6.776   7.081 -0.5261  0.2444 -0.0933
 3172TIP3    H131075   3.644   6.734   7.114 -0.4643  0.4345  0.2998
 3172TIP3    H231076   3.696   6.822   7.002 -1.0501  1.2189  0.6318
 3173TIP3   OH231077   6.376   3.343   0.771  0.5317  0.2040  0.1183
 3173TIP3    H131078   6.464   3.353   0.736  1.2894  0.0498  1.8769
 3173TIP3    H231079   6.341   3.432   0.774  1.6661  0.6409  1.8761
 3174TIP3   OH231080   2.642   4.936   0.871  0.3116 -0.5636 -0.2789
 3174TIP3    H131081   2.622   4.904   0.783 -0.5849 -1.4676  0.2300
 3174TIP3    H231082   2.691   4.864   0.912 -1.4182 -1.2038  0.7646
 3175TIP3   OH231083   5.107   0.520   1.613  0.6968  0.4624  0.1320
 3175TIP3    H131084   5.023   0.561   1.632  0.1546 -0.3156 -0.4683
 3175TIP3    H231085   5.117   0.452   1.680 -1.2514 -2.3314 -2.1269
 3176TIP3   OH231086   3.056   6.618   2.244  0.5444  0.1602  0.0360
 3176TIP3    H131087   2.973   6.659   2.221  0.0071  0.3550  2.1787
 3176TIP3    H231088   3.034   6.527   2.264  0.7994  0.2690  0.8330
 3177TIP3   OH231089   6.871   2.433   0.593 -0.5964  0.0743  0.2314
 3177TIP3    H131090   6.906   2.480   0.670  0.4538 -0.2193 -0.0519
 3177TIP3    H231091   6.830   2.355   0.630 -1.5806  0.7682  0.6319
 3178TIP3   OH231092   2.705   4.921   0.310  0.1149 -0.0593  0.7099
 3178TIP3    H131093   2.712   5.015   0.289  4.6834 -0.3488 -0.0687
 3178TIP3    H231094   2.753   4.878   0.240  0.1003 -2.8196  2.2853
 3179TIP3   OH231095   6.807   0.730   0.597  0.0731 -0.2700  0.0707
 3179TIP3    H131096   6.738   0.742   0.663 -0.5526 -1.8279 -0.2765
 3179TIP3    H231097   6.776   0.658   0.542  1.3284 -0.0469 -0.9720
 3180TIP3   OH231098   6.035   4.135   7.188  0.1743  0.0240  0.1405
 3180TIP3    H131099   5.942   4.128   7.211 -0.6649  1.4447 -2.4306
 3180TIP3    H231100   6.052   4.229   7.185  0.1739  0.1167 -4.3142
 3181TIP3   OH231101   0.639   4.487   2.384  0.0859  0.3523  0.8774
 3181TIP3    H131102   0.603   4.474   2.472  0.0619  0.6987  0.9225
 3181TIP3    H231103   0.720   4.437   2.384  0.9384  1.6546  1.6642
 3182TIP3   OH231104   6.697   0.843   0.946 -0.3444  0.5515 -0.0054
 3182TIP3    H131105   6.756   0.908   0.907 -0.6284  0.4268 -0.6626
 3182TIP3    H231106   6.752   0.794   1.007  0.1684  0.6229 -0.4040
 3183TIP3   OH231107   4.812   4.868   7.176  0.5835  0.7633 -0.1326
 3183TIP3    H131108   4.863   4.790   7.200  0.9265 -0.2181 -3.4983
 3183TIP3    H231109   4.721   4.840   7.180  0.6060  0.7805  0.5059
 3184TIP3   OH231110   1.172   6.646   7.845 -0.8989 -0.1268  0.6572
 3184TIP3    H131111   1.235   6.649   7.773 -0.8897  0.7689  0.6915
 3184TIP3    H231112   1.198   6.568   7.896 -0.5550 -0.4398  0.0202
 3185TIP3   OH231113   5.019   1.140   7.469  0.5749  0.9980  0.2969
 3185TIP3    H131114   5.037   1.233   7.480 -0.6602  1.1476  1.3856
 3185TIP3    H231115   4.931   1.137   7.431  0.7975  0.2767 -0.1851
 3186TIP3   OH231116   6.523   5.500   1.356 -0.2868  0.1833 -0.6093
 3186TIP3    H131117   6.573   5.456   1.287 -1.4975 -0.4826 -1.0888
 3186TIP3    H231118   6.508   5.432   1.421  1.3969  0.9605  0.6777
 3187TIP3   OH231119   6.753   0.224   7.889 -0.3650 -0.1719  0.5437
 3187TIP3    H131120   6.666   0.262   7.876  0.2025  0.3829 -2.3128
 3187TIP3    H231121   6.813   0.297   7.876  0.5801 -0.7752  1.4237
 3188TIP3   OH231122   4.947   0.478   0.586  0.1363  0.1250 -0.4202
 3188TIP3    H131123   4.902   0.458   0.668  0.7726 -1.8276 -0.4799
 3188TIP3    H231124   4.879   0.515   0.529 -0.4865  0.7575  0.7033
 3189TIP3   OH231125   4.066   4.244   2.832  0.7209 -0.6761  0.2637
 3189TIP3    H131126   4.102   4.236   2.920  0.6967  0.1935  0.3664
 3189TIP3    H231127   3.972   4.258   2.847  0.7410 -0.3759  0.1099
 3190TIP3   OH231128   3.694   4.895   2.435  0.2956  0.0997 -0.5344
 3190TIP3    H131129   3.606   4.876   2.403  0.4427  0.5369 -1.2195
 3190TIP3    H231130   3.687   4.886   2.530 -0.9766  2.0003 -0.3936
 3191TIP3   OH231131   0.078   6.117   2.242 -0.4916 -0.0584  0.2628
 3191TIP3    H131132   0.153   6.176   2.237  0.2710 -1.0519 -0.4628
 3191TIP3    H231133   0.002   6.175   2.252  0.5461  0.9164  4.2571
 3192TIP3   OH231134   1.399   4.782   7.071 -0.3755  0.1729  0.0319
 3192TIP3    H131135   1.447   4.858   7.036 -1.1058  0.0072 -1.4208
 3192TIP3    H231136   1.307   4.804   7.059 -0.6126 -1.3995 -1.5867
 3193TIP3   OH231137   2.027   0.798   0.772 -0.0686 -0.1001 -0.5006
 3193TIP3    H131138   2.100   0.750   0.810 -1.3326 -2.2735 -0.6569
 3193TIP3    H231139   1.986   0.842   0.846  0.6068  0.0633 -0.2142
 3194TIP3   OH231140   6.011   4.529   1.140 -0.5395 -0.3200 -0.4589
 3194TIP3    H131141   6.076   4.515   1.209 -1.7514  1.2460  1.1088
 3194TIP3    H231142   5.952   4.595   1.176 -2.9852 -1.6088 -1.8194
 3195TIP3   OH231143   1.361   6.545   1.632  0.4069 -0.2205  0.1052
 3195TIP3    H131144   1.439   6.599   1.647  0.5937  0.0699 -1.7105
 3195TIP3    H231145   1.297   6.578   1.695  1.5642 -0.1091  1.2714
 3196TIP3   OH231146   5.717   4.134   0.553 -0.8080 -0.0097  0.2918
 3196TIP3    H131147   5.680   4.052   0.520 -0.3503  0.0245 -0.3474
 3196TIP3    H231148   5.723   4.122   0.648 -0.6331 -0.7727  0.1924
 3197TIP3   OH231149   3.991   3.953   0.448  0.6015  0.2705 -0.1760
 3197TIP3    H131150   3.931   4.017   0.411  0.4128 -0.1800 -0.6580
 3197TIP3    H231151   3.953   3.868   0.427 -0.3145 -0.0372  2.3640
 3198TIP3   OH231152   4.330   5.537   2.306 -0.2662 -0.2187  0.0975
 3198TIP3    H131153   4.352   5.615   2.358  1.3745  0.2823 -1.2633
 3198TIP3    H231154   4.361   5.464   2.359 -2.2381 -0.0511  1.6071
 3199TIP3   OH231155   5.087   4.789   1.699  0.0323  0.1355 -0.1616
 3199TIP3    H131156   5.139   4.794   1.779 -1.8632 -2.5389  1.4135
 3199TIP3    H231157   5.151   4.776   1.629  1.6604  1.0417  1.1032
 3200TIP3   OH231158   2.172   3.854   6.899  0.3531 -0.4333 -0.3972
 3200TIP3    H131159   2.251   3.808   6.924  0.4494 -0.3671 -0.5807
 3200TIP3    H231160   2.117   3.788   6.857  0.3625 -0.4520 -0.3801
 3201TIP3   OH231161   3.749   6.344   2.962 -0.1946  0.1967 -0.3344
 3201TIP3    H131162   3.708   6.268   3.004 -1.8931  0.1947 -1.8352
 3201TIP3    H231163   3.836   6.312   2.935  0.8594  0.1347  2.7483
 3202TIP3   OH231164   0.216   6.457   1.349  0.0165 -0.0896  0.0901
 3202TIP3    H131165   0.138   6.493   1.390 -0.6436  0.8835 -1.8864
 3202TIP3    H231166   0.190   6.371   1.317 -0.6039  0.6117 -1.4055
 3203TIP3   OH231167   3.700   0.712   1.270  0.1866 -0.1787  0.1156
 3203TIP3    H131168   3.675   0.624   1.297 -1.3112  0.5785  1.4529
 3203TIP3    H231169   3.616   0.756   1.253  0.7755  1.4181  1.0594
 3204TIP3   OH231170   3.802   1.448   8.410 -0.1598  0.2786 -0.0674
 3204TIP3    H131171   3.891   1.435   8.378 -0.2470 -1.2831  0.2399
 3204TIP3    H231172   3.772   1.527   8.366  0.6614 -0.2970 -1.7350
 3205TIP3   OH231173   3.648   5.720   7.580 -0.2698  0.0250 -0.8017
 3205TIP3    H131174   3.696   5.757   7.655  1.1873 -0.8504 -1.2576
 3205TIP3    H231175   3.681   5.631   7.573 -0.6191 -0.0052 -2.2980
 3206TIP3   OH231176   3.990   3.329   7.636  0.3784  0.1599 -0.4078
 3206TIP3    H131177   3.990   3.249   7.688 -0.8390  0.6261  0.3373
 3206TIP3    H231178   4.037   3.305   7.556 -2.3982 -2.2279 -1.5464
 3207TIP3   OH231179   3.674   1.668   7.330 -0.0367  0.3037 -0.0907
 3207TIP3    H131180   3.719   1.723   7.267 -0.4015  1.2297  0.4449
 3207TIP3    H231181   3.624   1.606   7.276 -0.1546  0.9224 -0.7040
 3208TIP3   OH231182   2.091   0.413   0.468  0.1502 -0.1056 -0.0281
 3208TIP3    H131183   2.135   0.478   0.523 -0.8925  0.3486  0.2866
 3208TIP3    H231184   2.131   0.424   0.381  2.8890 -1.8301  0.8513
 3209TIP3   OH231185   3.373   0.941   1.853 -0.4602  0.3212  0.1600
 3209TIP3    H131186   3.373   0.872   1.919 -0.0307 -0.2454 -0.4269
 3209TIP3    H231187   3.449   0.923   1.799 -0.4225  1.1803 -0.0842
 3210TIP3   OH231188   6.829   0.412   1.879  0.1124  0.1387  0.4242
 3210TIP3    H131189   6.826   0.394   1.786 -0.5160  1.0446  0.2498
 3210TIP3    H231190   6.919   0.440   1.896  0.0519  0.6247 -0.0464
 3211TIP3   OH231191   1.498   1.777   0.750 -0.5580 -0.4487  0.1919
 3211TIP3    H131192   1.527   1.855   0.797  2.5957 -0.6926 -1.0996
 3211TIP3    H231193   1.430   1.808   0.691  0.8148  1.4597 -0.4823
 3212TIP3   OH231194   0.492   6.333   3.325 -0.2961 -0.0128  0.0875
 3212TIP3    H131195   0.471   6.300   3.238  1.7511 -1.1393 -0.0297
 3212TIP3    H231196   0.553   6.269   3.362 -0.4982  0.8436  2.0493
 3213TIP3   OH231197   3.123   2.241   7.626 -0.4449  0.0916  0.3299
 3213TIP3    H131198   3.191   2.196   7.676  0.7657  0.6728 -0.7396
 3213TIP3    H231199   3.043   2.228   7.677  0.4864 -0.4738  1.6993
 3214TIP3   OH231200   3.015   2.140   0.659  0.2009  0.2708  0.2788
 3214TIP3    H131201   2.947   2.105   0.717 -1.9057  2.6239 -0.6051
 3214TIP3    H231202   2.973   2.213   0.614  1.6432 -1.3878 -4.3424
 3215TIP3   OH231203   0.419   1.705   0.359 -0.2527  0.5386  0.3033
 3215TIP3    H131204   0.347   1.669   0.410 -2.4345  0.0639 -2.8044
 3215TIP3    H231205   0.482   1.633   0.350 -1.3710 -0.3962 -0.2676
 3216TIP3   OH231206   3.152   3.670   2.178  0.0111  0.2832 -0.2697
 3216TIP3    H131207   3.141   3.765   2.187  1.2375  0.3978  0.1120
 3216TIP3    H231208   3.134   3.636   2.266  2.6288  0.4938  0.4272
 3217TIP3   OH231209   4.226   2.518   1.630  0.4581  0.2986  0.0732
 3217TIP3    H131210   4.162   2.497   1.561 -0.4481  1.6080  0.4859
 3217TIP3    H231211   4.205   2.457   1.701  1.1055 -0.7499 -0.6026
 3218TIP3   OH231212   1.949   6.074   0.356  0.0488 -0.0651 -0.0474
 3218TIP3    H131213   1.947   6.095   0.262  0.5514 -0.0300 -0.0503
 3218TIP3    H231214   2.017   6.007   0.364  0.8185  0.7549  0.4495
 3219TIP3   OH231215   5.897   0.980   0.919 -0.4423  0.1848 -0.1017
 3219TIP3    H131216   5.975   0.938   0.883 -0.2142  0.4880  0.0328
 3219TIP3    H231217   5.918   0.994   1.012 -0.4481  0.7304 -0.1765
 3220TIP3   OH231218   4.763   5.201   1.534 -0.7013 -0.2989  0.2670
 3220TIP3    H131219   4.786   5.277   1.588 -0.5771 -0.7622  0.8704
 3220TIP3    H231220   4.675   5.177   1.563 -0.9182 -0.1264 -0.2270
 3221TIP3   OH231221   1.391   5.957   7.934 -0.0318 -0.2613 -0.6814
 3221TIP3    H131222   1.339   5.911   8.000  0.5320 -0.0324 -0.0647
 3221TIP3    H231223   1.414   5.890   7.870 -0.6849 -0.4626 -0.7153
 3222TIP3   OH231224   5.685   3.524   0.564  0.0838  0.7350  0.1608
 3222TIP3    H131225   5.695   3.564   0.477  0.0052 -1.5363 -0.9884
 3222TIP3    H231226   5.745   3.449   0.563  1.1426  1.4483  2.6527
 3223TIP3   OH231227   3.374   0.998   0.331  0.6822  0.0608 -0.1918
 3223TIP3    H131228   3.443   1.000   0.265 -1.5408 -0.9663 -2.7816
 3223TIP3    H231229   3.374   0.908   0.363  0.7247  0.1419  0.0398
 3224TIP3   OH231230   1.958   0.309   1.739  0.2253 -0.0868  0.5504
 3224TIP3    H131231   1.982   0.244   1.673  0.7541 -0.6043  1.2215
 3224TIP3    H231232   1.862   0.302   1.746  0.3176 -1.2733  1.0480
 3225TIP3   OH231233   6.284   0.060   0.233 -0.0307 -0.6152  0.3257
 3225TIP3    H131234   6.255  -0.003   0.298  0.6072 -0.7558  0.4740
 3225TIP3    H231235   6.295   0.009   0.153  1.5969 -0.9297  0.7243
 3226TIP3   OH231236   1.429   0.812   1.522 -0.0792 -0.0303  0.0479
 3226TIP3    H131237   1.514   0.770   1.511 -0.4495 -0.5227 -1.1724
 3226TIP3    H231238   1.441   0.874   1.593  1.3842  0.1361 -0.3231
 3227TIP3   OH231239   4.781   3.315   1.261 -0.3554 -0.2501 -0.4648
 3227TIP3    H131240   4.696   3.343   1.228 -0.4933  0.9832  0.8385
 3227TIP3    H231241   4.834   3.395   1.265  0.2831 -0.6899  0.3627
 3228TIP3   OH231242   6.506   1.718   8.534 -0.2246  0.2746  0.3442
 3228TIP3    H131243   6.487   1.656   8.463  0.1275 -1.1430  1.4516
 3228TIP3    H231244   6.443   1.789   8.521 -2.8351 -1.7998  0.8331
 3229TIP3   OH231245   1.876   6.205   1.205  0.2571  0.3847  0.4728
 3229TIP3    H131246   1.906   6.271   1.142  1.2827  0.6741  1.2502
 3229TIP3    H231247   1.923   6.126   1.181  0.9265  0.5898  1.0954
 3230TIP3   OH231248   2.898   1.181   2.157 -0.0322 -0.3345  1.1067
 3230TIP3    H131249   2.814   1.204   2.196  0.1922 -0.2284  1.5328
 3230TIP3    H231250   2.877   1.114   2.093 -0.7738  1.2765 -0.4341
 3231TIP3   OH231251   6.235   2.178   0.589  0.0827  0.2677  0.0763
 3231TIP3    H131252   6.321   2.215   0.566 -0.8829  2.1264 -0.7148
 3231TIP3    H231253   6.252   2.128   0.669  2.1739 -0.6279 -0.8486
 3232TIP3   OH231254   6.441   4.363   0.458  0.3639 -0.3135  0.0333
 3232TIP3    H131255   6.386   4.331   0.386  0.0459 -0.3806  0.3039
 3232TIP3    H231256   6.405   4.449   0.479  1.0869  0.1394 -0.5541
 3233TIP3   OH231257   1.520   4.186   1.992  0.4771  0.1467 -0.1176
 3233TIP3    H131258   1.462   4.116   1.963  0.0482  1.2464 -2.0820
 3233TIP3    H231259   1.576   4.145   2.058 -1.6525 -1.2832  0.9165
 3234TIP3   OH231260   3.937   0.866   8.167 -0.1205 -0.8229  0.6001
 3234TIP3    H131261   3.902   0.946   8.206  2.2019  2.6251 -3.4506
 3234TIP3    H231262   4.030   0.866   8.192  0.6916 -0.1717 -2.0678
 3235TIP3   OH231263   0.331   3.574   7.637  0.0843  0.6861  0.4593
 3235TIP3    H131264   0.256   3.568   7.696  0.9590  0.2985  1.5873
 3235TIP3    H231265   0.378   3.652   7.665  0.4550  0.5549  0.2168
 3236TIP3   OH231266   5.189   4.803   7.214 -0.2290 -0.1870 -0.1589
 3236TIP3    H131267   5.228   4.795   7.301 -1.1543 -1.2422  0.1707
 3236TIP3    H231268   5.219   4.889   7.183  0.4616  0.0213  1.0175
 3237TIP3   OH231269   0.406   1.133   7.941 -0.1696 -0.6224  0.6197
 3237TIP3    H131270   0.482   1.101   7.988  1.3151  1.2010 -0.3879
 3237TIP3    H231271   0.354   1.178   8.007 -0.3068 -1.7033  1.2741
 3238TIP3   OH231272   2.260   2.409   3.669  0.3122 -0.2815 -0.9218
 3238TIP3    H131273   2.221   2.485   3.626  0.8523  0.4867 -0.0866
 3238TIP3    H231274   2.336   2.388   3.615  1.2509  0.9607 -0.1259
 3239TIP3   OH231275   1.959   3.994   0.385 -0.4825  0.1310 -0.5295
 3239TIP3    H131276   1.917   4.062   0.437 -0.2381  1.0436 -1.5078
 3239TIP3    H231277   2.022   3.954   0.445 -3.0243 -1.6668  1.1726
 3240TIP3   OH231278   6.492   0.464   1.509 -0.0968 -0.2768 -0.0687
 3240TIP3    H131279   6.553   0.524   1.553  0.8911 -0.5819 -0.9661
 3240TIP3    H231280   6.405   0.491   1.539  0.3109  1.7041 -0.5717
 3241TIP3   OH231281   6.309   3.581   0.987 -0.4485  0.0451 -0.0913
 3241TIP3    H131282   6.347   3.666   1.008  0.5377 -0.6809  1.1709
 3241TIP3    H231283   6.305   3.580   0.892  0.9479  0.9003 -0.1925
 3242TIP3   OH231284   3.040   6.432   1.008  0.3257  0.5805  0.1296
 3242TIP3    H131285   3.129   6.457   1.033  0.5260 -0.3953  0.4057
 3242TIP3    H231286   3.044   6.337   0.995  0.0781  0.8599 -2.8646
 3243TIP3   OH231287   5.132   3.667   8.222  0.4243  0.3394 -0.3276
 3243TIP3    H131288   5.183   3.704   8.295  0.0472  0.4189 -0.1002
 3243TIP3    H231289   5.099   3.743   8.175  1.2529  0.2956 -1.0093
 3244TIP3   OH231290   2.304   1.999   2.731  0.3969  0.3484 -0.1323
 3244TIP3    H131291   2.337   1.910   2.726  0.3455  0.3816 -1.5375
 3244TIP3    H231292   2.382   2.054   2.717  0.1261  0.4672 -1.2723
 3245TIP3   OH231293   1.583   0.349   8.116  0.1900 -0.3377 -0.1542
 3245TIP3    H131294   1.559   0.261   8.145 -2.8242 -0.2848 -2.0500
 3245TIP3    H231295   1.585   0.343   8.020  0.4722  1.5127 -0.2965
 3246TIP3   OH231296   6.367   6.797   2.824  0.1534  0.2531  0.6181
 3246TIP3    H131297   6.462   6.796   2.834  0.0183  0.3349  2.1440
 3246TIP3    H231298   6.347   6.716   2.777  0.8595 -0.5963  1.7418
 3247TIP3   OH231299   5.683   2.134   8.525  0.3101  0.2782 -0.1015
 3247TIP3    H131300   5.776   2.145   8.546  0.1844 -0.3047  0.8600
 3247TIP3    H231301   5.637   2.168   8.602 -0.2910  0.8985 -0.7255
 3248TIP3   OH231302   6.349   5.858   0.707 -0.1684 -0.3621 -0.2750
 3248TIP3    H131303   6.413   5.843   0.638  0.9354 -0.7109  0.7967
 3248TIP3    H231304   6.331   5.770   0.743  0.7033 -0.0011  1.1106
 3249TIP3   OH231305   4.402   3.903   0.273  0.4526 -0.5466  0.0096
 3249TIP3    H131306   4.373   3.839   0.338  0.1831 -1.6993 -1.2084
 3249TIP3    H231307   4.468   3.955   0.318 -0.4708 -0.6357  1.5229
 3250TIP3   OH231308   2.020   1.262   0.791  0.5142 -0.3752 -0.0523
 3250TIP3    H131309   1.982   1.340   0.830  1.9440  0.4248 -0.1764
 3250TIP3    H231310   1.971   1.189   0.829 -1.3656  0.5907 -0.5332
 3251TIP3   OH231311   6.249   1.263   2.373 -0.0514 -0.3352 -0.5341
 3251TIP3    H131312   6.186   1.332   2.395  0.2397 -0.5917  1.3081
 3251TIP3    H231313   6.286   1.290   2.289  2.4114  3.6116  1.5149
 3252TIP3   OH231314   3.525   3.333   8.485  0.2318  0.3792 -0.4229
 3252TIP3    H131315   3.533   3.428   8.477 -0.8752  0.4944 -0.3137
 3252TIP3    H231316   3.499   3.303   8.398  1.5193  0.0452 -0.7187
 3253TIP3   OH231317   4.257   0.729   0.890 -0.2585  0.1225 -0.1043
 3253TIP3    H131318   4.229   0.649   0.845 -1.9946  0.2392  0.6784
 3253TIP3    H231319   4.325   0.700   0.950 -0.1167 -0.5699 -0.5843
 3254TIP3   OH231320   0.623   1.570   2.769 -0.0770  0.2538  0.1259
 3254TIP3    H131321   0.536   1.603   2.792 -0.8079 -0.3761 -1.5179
 3254TIP3    H231322   0.682   1.643   2.785 -1.1681  1.2675 -0.3475
 3255TIP3   OH231323   3.473   5.673   1.651 -0.0366 -0.0732  0.4201
 3255TIP3    H131324   3.518   5.740   1.599  2.5300 -1.4022  0.7441
 3255TIP3    H231325   3.476   5.706   1.741  2.4140 -1.0373  0.7969
 3256TIP3   OH231326   2.588   6.406   8.064  0.5723  0.8824 -0.0222
 3256TIP3    H131327   2.640   6.472   8.110  0.7129 -0.0951  1.2801
 3256TIP3    H231328   2.513   6.389   8.122  1.7400 -1.7731  0.8866
 3257TIP3   OH231329   4.336   4.790   1.197  0.4374  0.7422 -1.0672
 3257TIP3    H131330   4.312   4.758   1.284  1.2232  0.8344 -0.8026
 3257TIP3    H231331   4.378   4.716   1.155  1.4787  1.1434 -0.7748
 3258TIP3   OH231332   4.627   4.396   7.621  0.1520 -0.3478 -0.2604
 3258TIP3    H131333   4.543   4.369   7.658 -0.5872  0.6110 -1.1463
 3258TIP3    H231334   4.692   4.375   7.688 -0.7967 -1.1371  0.4241
 3259TIP3   OH231335   5.669   1.656   1.862 -0.1154  0.6382 -0.2669
 3259TIP3    H131336   5.610   1.709   1.915 -2.2143 -0.4876 -1.3626
 3259TIP3    H231337   5.755   1.697   1.874 -1.2887  3.0799  0.4450
 3260TIP3   OH231338   5.460   2.972   8.408  0.1141  0.2616  0.0010
 3260TIP3    H131339   5.533   3.034   8.417  0.3845 -0.2165  1.2469
 3260TIP3    H231340   5.500   2.886   8.420 -0.2320 -0.2101 -1.8581
 3261TIP3   OH231341   6.250   2.358   7.386 -0.0364 -0.4999  0.4952
 3261TIP3    H131342   6.333   2.334   7.427  0.3822  1.8616  1.1658
 3261TIP3    H231343   6.226   2.281   7.334  2.4211 -1.3272  0.4599
 3262TIP3   OH231344   5.956   1.043   1.209 -0.3703  0.4756  0.4587
 3262TIP3    H131345   5.905   1.104   1.262  0.2162  1.4285 -0.0575
 3262TIP3    H231346   6.040   1.086   1.197 -0.6049  0.4746 -1.5746
 3263TIP3   OH231347   1.128   3.236   0.095 -0.0578  0.6189 -0.4158
 3263TIP3    H131348   1.152   3.315   0.143  0.9016  0.6296 -0.8722
 3263TIP3    H231349   1.101   3.174   0.162  1.1238  0.6736  0.1447
 3264TIP3   OH231350   0.520   6.179   0.399  0.2602  0.1394  0.2734
 3264TIP3    H131351   0.425   6.187   0.384  0.2854 -0.2122 -0.0923
 3264TIP3    H231352   0.553   6.268   0.391 -0.1514  0.4003  1.2286
 3265TIP3   OH231353   4.482   0.380   7.868  0.6650 -0.2026  0.1578
 3265TIP3    H131354   4.429   0.301   7.869  1.5853 -0.8329  0.2274
 3265TIP3    H231355   4.418   0.452   7.864 -0.2252 -0.8986  1.2457
 3266TIP3   OH231356   1.384   4.469   1.165  0.2721 -0.8123  0.3309
 3266TIP3    H131357   1.425   4.555   1.162 -2.1107  0.3709 -1.2781
 3266TIP3    H231358   1.318   4.476   1.235  0.1968 -1.3861  0.3250
 3267TIP3   OH231359   3.231   5.631   7.162 -0.9092  0.6808  0.4691
 3267TIP3    H131360   3.188   5.595   7.085 -1.1760  1.7545  0.0964
 3267TIP3    H231361   3.184   5.593   7.236  0.9362 -2.3514  0.2401
 3268TIP3   OH231362   2.448   0.430   0.285  0.1056 -0.5539  0.0618
 3268TIP3    H131363   2.359   0.404   0.259 -0.0693  0.2021 -0.1272
 3268TIP3    H231364   2.458   0.397   0.374  0.2325 -2.0537 -0.4861
 3269TIP3   OH231365   3.098   4.932   7.229 -0.0391 -0.4420 -0.3343
 3269TIP3    H131366   3.021   4.879   7.247 -1.0549  0.1741 -2.4994
 3269TIP3    H231367   3.099   4.998   7.298 -1.3803 -0.5495 -0.1875
 3270TIP3   OH231368   2.774   1.175   7.929  0.4116  0.2925  0.0293
 3270TIP3    H131369   2.835   1.170   8.002  1.3796 -0.4873 -0.7944
 3270TIP3    H231370   2.818   1.128   7.858 -1.1383 -0.2592 -0.6085
 3271TIP3   OH231371   2.646   6.715   8.444 -0.4531 -0.4139 -0.2572
 3271TIP3    H131372   2.707   6.773   8.490 -0.6148 -0.1200 -0.4085
 3271TIP3    H231373   2.699   6.673   8.377  1.2383 -5.0816  3.4996
 3272TIP3   OH231374   2.383   0.225   1.716  0.4106  0.6513  0.4336
 3272TIP3    H131375   2.345   0.302   1.759 -0.9743 -0.6723  1.7010
 3272TIP3    H231376   2.475   0.246   1.706  0.0451  2.5104  0.6727
 3273TIP3   OH231377   1.883   0.645   7.985  0.3363  0.2664  0.6004
 3273TIP3    H131378   1.915   0.557   7.964  1.5324  0.8920 -0.2929
 3273TIP3    H231379   1.962   0.696   8.001 -0.2767  1.4431 -0.0056
 3274TIP3   OH231380   6.391   3.723   8.198  1.0690 -0.1388 -0.1946
 3274TIP3    H131381   6.349   3.808   8.205  0.2006 -0.6552  1.3494
 3274TIP3    H231382   6.461   3.725   8.263  0.2293 -1.0278  0.7690
 3275TIP3   OH231383   4.384   3.931   1.561 -0.0403  0.3069  0.2258
 3275TIP3    H131384   4.367   3.839   1.579  1.9992 -0.1789 -0.1503
 3275TIP3    H231385   4.472   3.947   1.595 -0.0328  1.9117 -0.4494
 3276TIP3   OH231386   5.189   0.655   6.979  0.2074 -0.1020  0.0120
 3276TIP3    H131387   5.097   0.660   6.954  0.0111  0.2598  0.7764
 3276TIP3    H231388   5.189   0.620   7.068  0.7300  0.8752  0.4182
 3277TIP3   OH231389   2.565   6.135   8.011  0.1696  0.2282  0.5239
 3277TIP3    H131390   2.481   6.128   8.056  0.6171  0.0609  1.3490
 3277TIP3    H231391   2.588   6.228   8.016 -1.7324  1.0951 -3.0349
 3278TIP3   OH231392   2.160   5.115   7.253 -0.2850 -0.3915 -0.2613
 3278TIP3    H131393   2.075   5.086   7.220 -0.2756  0.1960 -0.8372
 3278TIP3    H231394   2.140   5.196   7.301 -0.0876 -0.4219 -0.1258
 3279TIP3   OH231395   6.440   3.606   1.908  0.2526 -0.0014 -0.1048
 3279TIP3    H131396   6.365   3.652   1.871  0.2092 -1.1820 -1.5794
 3279TIP3    H231397   6.423   3.603   2.002 -2.5834 -1.9883 -0.5742
 3280TIP3   OH231398   3.453   0.284   7.442  0.8570 -0.4041  0.3720
 3280TIP3    H131399   3.360   0.264   7.443  0.4927  1.1205  1.1902
 3280TIP3    H231400   3.469   0.325   7.357  0.2360  1.4389  1.0889
 3281TIP3   OH231401   2.669   0.874   7.944 -0.0194  0.4503 -0.3506
 3281TIP3    H131402   2.743   0.922   7.907  2.6325 -3.1919 -0.2968
 3281TIP3    H231403   2.671   0.895   8.037  1.8412 -0.4976 -0.1280
 3282TIP3   OH231404   3.095   0.126   7.357  0.4944 -0.0660  0.3736
 3282TIP3    H131405   3.139   0.130   7.442  0.4106  0.8070  0.3875
 3282TIP3    H231406   3.002   0.119   7.378  0.4758  0.1236  0.3588
 3283TIP3   OH231407   3.812   2.677   1.969  0.1875  0.5552  0.1802
 3283TIP3    H131408   3.900   2.647   1.947 -0.2961 -0.2490 -0.7421
 3283TIP3    H231409   3.794   2.638   2.055 -0.0942 -1.1293 -0.6115
 3284TIP3   OH231410   4.016   0.171   2.408  0.3304  0.6390  0.8452
 3284TIP3    H131411   4.020   0.248   2.465 -1.9868  0.5861  1.1893
 3284TIP3    H231412   4.014   0.096   2.469 -2.2379  0.5867  0.8159
 3285TIP3   OH231413   4.744   5.866   2.110  0.5684 -0.0607  0.2555
 3285TIP3    H131414   4.748   5.906   2.023  0.6126 -0.3202  0.1358
 3285TIP3    H231415   4.721   5.774   2.093 -0.0601  0.0405  0.5600
 3286TIP3   OH231416   5.318   0.255   7.848  0.2979  0.1970  0.6459
 3286TIP3    H131417   5.247   0.225   7.792  0.8717 -1.2658  0.6513
 3286TIP3    H231418   5.283   0.331   7.894 -0.9510  0.0257  0.0019
 3287TIP3   OH231419   6.135   6.826   3.005 -0.6333 -0.5586  0.1505
 3287TIP3    H131420   6.212   6.805   2.952 -0.8025  2.4186 -1.4885
 3287TIP3    H231421   6.068   6.765   2.974  0.0757 -0.7669 -1.0565
 3288TIP3   OH231422   4.223   3.208   0.045  0.1522  0.2832  0.4083
 3288TIP3    H131423   4.230   3.116   0.072  1.3495 -0.7712 -2.9376
 3288TIP3    H231424   4.136   3.215   0.006 -0.0108  0.6569  0.8247
 3289TIP3   OH231425   4.571   4.972   7.792 -0.2973 -0.2966  0.1440
 3289TIP3    H131426   4.540   4.972   7.883 -2.6843 -0.8201 -0.6019
 3289TIP3    H231427   4.637   5.041   7.790 -2.7166  2.2653  1.5045
 3290TIP3   OH231428   2.101   0.949   8.427 -0.4486  0.7769  0.3814
 3290TIP3    H131429   2.112   1.013   8.497 -1.8241  1.8943 -0.3790
 3290TIP3    H231430   2.071   1.000   8.352  0.2021 -0.5097 -0.7993
 3291TIP3   OH231431   4.330   1.920   1.557  0.1566 -0.0121 -0.1196
 3291TIP3    H131432   4.355   1.829   1.544 -0.8008 -0.2624 -0.3155
 3291TIP3    H231433   4.317   1.954   1.469  1.0043  0.4710 -0.0682
 3292TIP3   OH231434   6.158   0.394   0.159  0.1073  0.2157  0.2429
 3292TIP3    H131435   6.095   0.333   0.122  0.1155 -0.1992  0.8887
 3292TIP3    H231436   6.222   0.338   0.204 -0.0742  0.7060  1.1299
 3293TIP3   OH231437   4.156   2.620   8.049  0.2635 -0.1322  0.1284
 3293TIP3    H131438   4.204   2.641   8.129  1.6396  1.2492 -0.9973
 3293TIP3    H231439   4.135   2.527   8.058 -1.9419  0.4924  3.2114
 3294TIP3   OH231440   1.906   3.063   8.037  0.1062  0.3325  0.5646
 3294TIP3    H131441   1.975   3.121   8.068  1.4267 -1.0301  0.2418
 3294TIP3    H231442   1.833   3.078   8.098  0.7396  1.6502  1.0166
 3295TIP3   OH231443   3.738   4.014   2.582  0.4150  0.1604  0.4997
 3295TIP3    H131444   3.795   3.942   2.606  0.4766  0.2253  0.5489
 3295TIP3    H231445   3.669   4.015   2.650 -0.1386 -0.4653 -0.0449
 3296TIP3   OH231446   1.246   2.663   0.610 -0.3311  0.0590 -0.1782
 3296TIP3    H131447   1.277   2.748   0.579 -0.1915  0.9787  2.2458
 3296TIP3    H231448   1.151   2.670   0.610 -0.4358 -0.6430 -2.0340
 3297TIP3   OH231449   2.516   4.792   8.452  0.4171 -0.0812  0.6597
 3297TIP3    H131450   2.481   4.803   8.363  0.5050  0.8291  0.7302
 3297TIP3    H231451   2.555   4.705   8.452 -1.1477 -0.8256  0.3330
 3298TIP3   OH231452   0.710   6.801   0.536  0.2833  0.2027  0.0303
 3298TIP3    H131453   0.722   6.895   0.521 -1.2880  0.1833 -1.8226
 3298TIP3    H231454   0.615   6.791   0.550  0.6268 -0.9485  1.8267
 3299TIP3   OH231455   6.787   5.928   7.823 -0.2523  0.2916 -0.0111
 3299TIP3    H131456   6.814   5.960   7.737 -0.4691 -0.3929 -0.3419
 3299TIP3    H231457   6.822   5.839   7.826 -1.1401 -0.0588  0.1844
 3300TIP3   OH231458   0.364   2.503   1.136  0.4049 -0.4151  0.3929
 3300TIP3    H131459   0.453   2.539   1.134 -0.0019  0.6146  0.1319
 3300TIP3    H231460   0.310   2.574   1.171 -0.5867 -0.4156 -1.0492
 3301TIP3   OH231461   3.196   6.068   0.715  0.1222  0.2373 -0.4023
 3301TIP3    H131462   3.273   6.049   0.662  1.1664  0.4328  0.9688
 3301TIP3    H231463   3.154   5.982   0.728  1.6734 -0.3514  1.0918
 3302TIP3   OH231464   3.576   6.581   1.753 -0.4492  0.4713  0.6524
 3302TIP3    H131465   3.507   6.642   1.725 -0.6567  1.0906  2.4197
 3302TIP3    H231466   3.545   6.495   1.723  0.5147  1.2622 -3.1822
 3303TIP3   OH231467   2.705   5.491   7.205 -0.6347  0.9020  0.4395
 3303TIP3    H131468   2.715   5.427   7.275  1.4393  1.6880  0.9193
 3303TIP3    H231469   2.776   5.554   7.218  0.2616  0.7293 -2.7352
 3304TIP3   OH231470   3.515   6.232   0.112 -0.1605 -0.4383 -0.6389
 3304TIP3    H131471   3.531   6.268   0.200 -1.0242 -1.3350 -0.0899
 3304TIP3    H231472   3.423   6.204   0.114 -0.9146  1.5939 -2.5873
 3305TIP3   OH231473   5.118   2.238   1.393  0.2519 -0.1620 -0.0791
 3305TIP3    H131474   5.043   2.274   1.440  0.2621  1.1744 -1.0273
 3305TIP3    H231475   5.107   2.143   1.399 -0.6075 -0.0056  1.2060
 3306TIP3   OH231476   3.125   1.829   6.991 -0.0774  0.4350 -0.2436
 3306TIP3    H131477   3.183   1.762   6.955  0.1710 -0.6754  2.0290
 3306TIP3    H231478   3.184   1.887   7.040 -0.6225  0.6066  0.2187
 3307TIP3   OH231479   3.511   2.488   2.580  0.2756  0.3319  0.0491
 3307TIP3    H131480   3.538   2.537   2.657 -0.2252  0.8955 -0.1235
 3307TIP3    H231481   3.582   2.426   2.564  0.9549  1.0502  0.2297
 3308TIP3   OH231482   2.612   2.874   0.300 -0.6174  0.3727  0.2642
 3308TIP3    H131483   2.574   2.960   0.284  0.1658  0.9614  1.4662
 3308TIP3    H231484   2.693   2.874   0.248  0.5094  1.2323  1.9392
 3309TIP3   OH231485   2.464   4.299   7.791  0.9976  0.5519  0.2574
 3309TIP3    H131486   2.532   4.317   7.856  1.1204  0.9616  0.0211
 3309TIP3    H231487   2.499   4.333   7.709  0.3988  1.0235  0.1852
 3310TIP3   OH231488   5.522   2.049   8.078  0.0355 -0.2723  0.6424
 3310TIP3    H131489   5.568   2.098   8.146 -1.1959  1.6871  0.1422
 3310TIP3    H231490   5.440   2.022   8.119 -1.0884  1.6476 -0.2619
 3311TIP3   OH231491   3.720   5.092   2.238 -0.1395  0.2668 -0.0635
 3311TIP3    H131492   3.796   5.060   2.189 -1.1780 -0.6580 -1.0931
 3311TIP3    H231493   3.701   5.022   2.301 -1.0632 -0.1966 -0.8401
 3312TIP3   OH231494   0.689   1.626   8.497  0.0545  0.5538  0.3759
 3312TIP3    H131495   0.708   1.618   8.404 -0.2996 -1.7178  0.4301
 3312TIP3    H231496   0.774   1.614   8.540 -0.1618 -1.3519  0.3754
 3313TIP3   OH231497   2.885   5.039   7.819 -0.1025  0.3335 -0.2440
 3313TIP3    H131498   2.812   5.091   7.787  0.7972  1.9706  0.2596
 3313TIP3    H231499   2.926   5.004   7.740 -0.9581  0.0192 -0.5647
 3314TIP3   OH231500   4.700   1.093   0.103  0.4621  0.5234  0.2866
 3314TIP3    H131501   4.729   1.003   0.091  0.2266  0.7086 -2.2816
 3314TIP3    H231502   4.779   1.141   0.127  1.8888  0.4819 -3.5957
 3315TIP3   OH231503   3.406   1.823   7.796  0.1967  0.2299  0.3497
 3315TIP3    H131504   3.461   1.817   7.718  0.7523  3.1355  0.4085
 3315TIP3    H231505   3.317   1.825   7.762  0.2900 -0.9109 -0.0024
 3316TIP3   OH231506   0.307   4.807   0.839  0.4500  0.4610 -0.1734
 3316TIP3    H131507   0.383   4.780   0.788 -0.2638  0.4197 -1.2263
 3316TIP3    H231508   0.336   4.798   0.930  1.5736  0.0800 -0.5466
 3317TIP3   OH231509   6.152   0.926   8.409 -0.6570 -0.6028  0.4415
 3317TIP3    H131510   6.176   0.902   8.498  2.4586  1.8860  0.4780
 3317TIP3    H231511   6.200   0.864   8.354 -0.6953 -0.6790  0.4935
 3318TIP3   OH231512   2.709   5.169   2.974  0.9009  0.1776  0.3127
 3318TIP3    H131513   2.691   5.232   3.044  1.4644  0.5107  0.1609
 3318TIP3    H231514   2.803   5.154   2.979  0.5121 -2.2856  1.7316
 3319TIP3   OH231515   2.737   3.880   8.483 -0.3025  0.0928 -0.0069
 3319TIP3    H131516   2.714   3.804   8.536  0.3611 -0.3876 -0.3813
 3319TIP3    H231517   2.657   3.901   8.435 -0.4071 -0.5806 -0.1424
 3320TIP3   OH231518   4.222   4.291   7.054  0.7172 -0.5621  0.1811
 3320TIP3    H131519   4.293   4.352   7.032  0.2022 -0.3806 -0.9975
 3320TIP3    H231520   4.266   4.220   7.102  1.6690 -0.3568 -0.3646
 3321TIP3   OH231521   1.555   4.540   2.174 -0.3248  0.1848  0.3677
 3321TIP3    H131522   1.613   4.580   2.240 -1.1430  2.2826 -0.0919
 3321TIP3    H231523   1.614   4.509   2.106  0.3530  1.1283  0.5019
 3322TIP3   OH231524   0.597   5.354   2.241 -0.1811  0.4773 -0.4084
 3322TIP3    H131525   0.509   5.328   2.213  0.2780 -1.6833 -0.0672
 3322TIP3    H231526   0.655   5.306   2.182  0.7535  0.7199  0.2969
 3323TIP3   OH231527   4.035   6.462   2.218  0.1899  0.5852  0.0052
 3323TIP3    H131528   4.063   6.534   2.274  0.0100  0.1362  0.6810
 3323TIP3    H231529   4.013   6.391   2.278  0.5760 -0.1179 -0.6495
 3324TIP3   OH231530   0.117   4.920   1.792 -0.0016  0.2901  0.0077
 3324TIP3    H131531   0.107   4.978   1.868  1.3017  1.5835 -0.7427
 3324TIP3    H231532   0.210   4.928   1.769 -0.4319  0.1895 -1.9079
 3325TIP3   OH231533   0.364   0.582   7.703  0.2945 -0.0475 -0.3220
 3325TIP3    H131534   0.315   0.603   7.624 -1.2410  4.0682  1.4448
 3325TIP3    H231535   0.443   0.637   7.698 -0.4542  1.3117  1.4429
 3326TIP3   OH231536   0.703   6.756   2.162  0.7267  0.8507 -0.3520
 3326TIP3    H131537   0.638   6.800   2.217 -0.4721  1.3684 -2.0752
 3326TIP3    H231538   0.774   6.820   2.152  2.1964 -0.1799  2.5704
 3327TIP3   OH231539   4.671   5.230   1.041  0.0200  0.1450  0.2356
 3327TIP3    H131540   4.603   5.210   0.976  1.0979  2.5939 -1.8217
 3327TIP3    H231541   4.623   5.262   1.117 -1.2043  1.3364 -0.9780
 3328TIP3   OH231542   3.195   2.051   0.943  0.0736  0.7660  0.2424
 3328TIP3    H131543   3.194   2.032   1.037  1.2247  1.8070  0.4943
 3328TIP3    H231544   3.178   2.145   0.938 -0.8064  0.5756 -0.6585
 3329TIP3   OH231545   1.387   6.374   7.244  0.4676  0.0406 -0.3433
 3329TIP3    H131546   1.388   6.352   7.337  0.9602 -0.4360 -0.4555
 3329TIP3    H231547   1.341   6.458   7.239  0.9236  0.3421  0.3894
 3330TIP3   OH231548   3.372   4.411   0.998 -0.0709  0.0659 -0.1437
 3330TIP3    H131549   3.347   4.497   0.965  1.3169  0.0989 -1.1487
 3330TIP3    H231550   3.302   4.352   0.968 -0.8533  0.7529  0.2739
 3331TIP3   OH231551   5.056   1.725   0.197  0.0421 -0.2846 -0.7023
 3331TIP3    H131552   5.130   1.785   0.190 -0.2137  0.0702 -0.4085
 3331TIP3    H231553   5.090   1.641   0.166  0.7113 -0.2475 -0.0843
 3332TIP3   OH231554   0.346   5.517   1.105 -0.2030 -0.0377  0.4945
 3332TIP3    H131555   0.403   5.450   1.067 -0.4362 -0.8110  1.4394
 3332TIP3    H231556   0.271   5.467   1.138 -1.1067  0.8764 -0.1200
 3333TIP3   OH231557   3.241   3.898   0.770  0.8947 -0.9128  0.3228
 3333TIP3    H131558   3.151   3.881   0.798  1.3015  0.7945  3.0413
 3333TIP3    H231559   3.285   3.814   0.778  0.3211 -1.0552  2.4743
 3334TIP3   OH231560   4.206   0.035   1.341  0.3950  0.3728  0.0491
 3334TIP3    H131561   4.111   0.025   1.328  0.3501  0.3767  0.3661
 3334TIP3    H231562   4.238  -0.054   1.353  0.2365  0.4498  1.2246
 3335TIP3   OH231563   2.049   2.194   2.084  0.3126  0.6163 -0.1666
 3335TIP3    H131564   2.128   2.222   2.037  0.7120  0.6042  0.4855
 3335TIP3    H231565   2.074   2.195   2.176  0.0435 -0.9311 -0.0530
 3336TIP3   OH231566   5.776   1.458   1.484  0.5401 -0.5908  0.2317
 3336TIP3    H131567   5.710   1.425   1.423  1.1912 -0.0332 -0.8144
 3336TIP3    H231568   5.768   1.553   1.478 -0.1740 -0.5065  1.9321
 3337TIP3   OH231569   2.411   2.525   7.723 -0.2922 -0.5761 -0.2198
 3337TIP3    H131570   2.410   2.620   7.717 -2.1688 -0.6016 -0.8482
 3337TIP3    H231571   2.435   2.507   7.814 -1.2702  0.5305  0.2740
 3338TIP3   OH231572   3.207   5.699   0.299 -1.3644  0.1945 -0.5922
 3338TIP3    H131573   3.142   5.628   0.299  0.4180 -1.5577  0.4141
 3338TIP3    H231574   3.290   5.655   0.280 -0.3442  2.2539 -1.2244
 3339TIP3   OH231575   3.057   6.225   8.347 -0.6632 -0.8358 -0.1393
 3339TIP3    H131576   2.976   6.212   8.396 -0.3892 -2.7425 -0.1094
 3339TIP3    H231577   3.041   6.303   8.294 -2.7014 -1.4479 -0.5009
 3340TIP3   OH231578   4.585   5.456   8.364  0.3417 -0.4027 -0.0524
 3340TIP3    H131579   4.614   5.399   8.292 -0.1617  0.4850 -0.9840
 3340TIP3    H231580   4.518   5.511   8.325 -3.6040 -3.0905  2.1564
 3341TIP3   OH231581   2.316   0.472   7.622 -0.3467  0.6326  0.0362
 3341TIP3    H131582   2.354   0.530   7.688 -0.1286 -0.4166  0.8728
 3341TIP3    H231583   2.235   0.440   7.663 -2.2657  2.8642 -1.7227
 3342TIP3   OH231584   4.031   4.539   7.804  0.3976 -0.7526  0.4971
 3342TIP3    H131585   3.951   4.490   7.786  0.2428 -0.1821 -0.4116
 3342TIP3    H231586   4.063   4.567   7.719  0.1827  1.1859  0.9936
 3343TIP3   OH231587   6.881   4.251   7.832 -0.0388 -0.1757 -0.4580
 3343TIP3    H131588   6.849   4.337   7.805 -0.5408 -0.6487 -1.4325
 3343TIP3    H231589   6.976   4.256   7.822 -0.1889 -0.2937 -2.3006
 3344TIP3   OH231590   4.360   5.841   1.771  0.0001 -0.8870 -0.4923
 3344TIP3    H131591   4.382   5.874   1.685  0.3837 -1.5608 -0.6605
 3344TIP3    H231592   4.389   5.909   1.832 -2.7554  0.8650 -0.9908
 3345TIP3   OH231593   3.894   6.490   1.959  0.5549 -0.3591 -0.7535
 3345TIP3    H131594   3.935   6.516   1.877  2.0933 -1.0232 -0.2293
 3345TIP3    H231595   3.967   6.472   2.019 -0.4952  1.5970  1.2689
 3346TIP3   OH231596   3.688   3.254   2.585  0.2840  0.2523 -0.1130
 3346TIP3    H131597   3.614   3.250   2.645 -0.0439 -3.5819 -0.5045
 3346TIP3    H231598   3.764   3.270   2.641 -0.5438  2.1938  0.5338
 3347TIP3   OH231599   1.598   6.772   2.557 -0.3187 -0.1980  0.4724
 3347TIP3    H131600   1.617   6.866   2.560  0.9353 -0.4404  0.4544
 3347TIP3    H231601   1.677   6.733   2.519 -2.1332 -0.9133 -3.0408
 3348TIP3   OH231602   1.537   5.989   2.160 -0.0137 -0.5999 -0.2541
 3348TIP3    H131603   1.498   5.939   2.232 -1.0456  0.8814  0.2779
 3348TIP3    H231604   1.599   5.929   2.119  0.9499 -1.3521  2.1450
 3349TIP3   OH231605   0.484   5.901   2.539  0.4376  0.0034  0.1829
 3349TIP3    H131606   0.460   5.985   2.579  2.9259  0.6993  0.3758
 3349TIP3    H231607   0.473   5.915   2.445  2.0464  1.0294  0.1136
 3350TIP3   OH231608   1.406   1.007   7.118 -0.4489  0.9631  0.0210
 3350TIP3    H131609   1.428   0.958   7.198  0.5991  2.8480  0.9585
 3350TIP3    H231610   1.312   1.025   7.126 -0.3535  1.1331  0.8335
 3351TIP3   OH231611   5.480   3.583   1.902 -0.3857  0.5037 -0.1981
 3351TIP3    H131612   5.508   3.635   1.826  1.0938  0.8904  0.5832
 3351TIP3    H231613   5.486   3.492   1.872  0.5306  0.6400 -0.4404
 3352TIP3   OH231614   2.412   3.442   1.216 -0.0150  0.1076  0.2969
 3352TIP3    H131615   2.425   3.362   1.165  4.3909 -1.7131  3.5932
 3352TIP3    H231616   2.333   3.425   1.267  0.2236 -1.7175  0.1463
 3353TIP3   OH231617   4.051   6.893   0.219  0.3225  0.4955 -0.6520
 3353TIP3    H131618   4.013   6.970   0.260 -0.1187 -0.2395  0.3608
 3353TIP3    H231619   4.102   6.927   0.145  0.2731  1.7582 -0.1220
 3354TIP3   OH231620   4.994   1.307   0.458 -0.0850 -0.1473  0.4430
 3354TIP3    H131621   4.972   1.257   0.537 -0.1304 -0.8867 -0.0257
 3354TIP3    H231622   5.086   1.330   0.470  0.5468 -2.1036 -0.2255
 3355TIP3   OH231623   6.353   3.336   0.002  0.5414  0.4399 -0.9480
 3355TIP3    H131624   6.358   3.277  -0.073  1.2239 -0.2380 -0.3817
 3355TIP3    H231625   6.370   3.423  -0.035  0.1338  0.2140 -1.6891
 3356TIP3   OH231626   1.505   2.167   0.691  0.2597  0.0014 -0.4313
 3356TIP3    H131627   1.496   2.227   0.617  0.2108 -0.3265 -0.6946
 3356TIP3    H231628   1.570   2.103   0.662 -0.9137 -1.0587 -0.8185
 3357TIP3   OH231629   3.266   6.118   0.100 -0.2083  0.5182 -0.5726
 3357TIP3    H131630   3.217   6.200   0.103  2.1330  2.0154  1.8834
 3357TIP3    H231631   3.218   6.059   0.158 -0.6609  0.9326 -0.5183
 3358TIP3   OH231632   0.542   6.039   6.887  0.2852  0.7516  0.2320
 3358TIP3    H131633   0.637   6.036   6.899  0.3446 -1.0005 -0.4886
 3358TIP3    H231634   0.509   5.963   6.935 -0.7237  1.1325  0.1617
 3359TIP3   OH231635   3.215   4.552   0.479  0.2841 -0.0477 -0.4459
 3359TIP3    H131636   3.129   4.513   0.465  0.5793 -0.9729  0.2153
 3359TIP3    H231637   3.270   4.479   0.506  0.8741  0.8105  0.7572
 3360TIP3   OH231638   2.201   0.856   2.491  0.1473 -0.6867  0.1684
 3360TIP3    H131639   2.242   0.939   2.467  1.7200 -1.2780  0.6568
 3360TIP3    H231640   2.233   0.838   2.580  0.9927 -2.4698 -0.4430
 3361TIP3   OH231641   3.548   4.534   2.135  0.3967 -0.0785 -0.2428
 3361TIP3    H131642   3.555   4.531   2.040 -1.5689 -0.4179 -0.4255
 3361TIP3    H231643   3.497   4.613   2.153 -1.9748 -1.6186  0.2536
 3362TIP3   OH231644   3.520   4.905   8.084  0.4973  0.0088  0.5045
 3362TIP3    H131645   3.558   4.951   8.009 -0.2303 -0.6084 -0.2748
 3362TIP3    H231646   3.549   4.954   8.160  0.0773  1.5120 -0.2700
 3363TIP3   OH231647   2.162   2.984   2.465  0.7464 -0.3078 -0.1068
 3363TIP3    H131648   2.080   2.943   2.439 -0.0121  1.0375  0.0396
 3363TIP3    H231649   2.227   2.946   2.407  0.0422 -1.4699 -0.1659
 3364TIP3   OH231650   6.475   5.481   2.203 -0.1830 -0.4230  0.3989
 3364TIP3    H131651   6.544   5.422   2.173 -0.4002 -0.8069  0.6512
 3364TIP3    H231652   6.473   5.468   2.298  0.6564  0.9368  0.6384
 3365TIP3   OH231653   4.139   3.557   0.173 -1.0305  0.5737 -0.3517
 3365TIP3    H131654   4.122   3.649   0.191 -0.7626  0.2429  1.8395
 3365TIP3    H231655   4.233   3.546   0.187 -1.0516 -0.0251 -0.6524
 3366TIP3   OH231656   4.728   3.884   6.742 -0.2644  0.0680  0.2518
 3366TIP3    H131657   4.782   3.891   6.663  1.2399  1.2232  1.3286
 3366TIP3    H231658   4.789   3.896   6.814 -1.3362 -2.4908  1.7001
 3367TIP3   OH231659   4.926   4.096   2.082  0.4415 -0.3646  0.0604
 3367TIP3    H131660   4.864   4.127   2.148  1.0933  0.0778  0.4751
 3367TIP3    H231661   4.947   4.006   2.109  1.0227 -0.0490  0.7144
 3368TIP3   OH231662   5.469   1.751   2.052 -0.5818 -0.7140  0.3649
 3368TIP3    H131663   5.482   1.828   2.107 -0.8937  1.2599 -2.1210
 3368TIP3    H231664   5.374   1.745   2.043 -0.5965 -1.9093  1.1671
 3369TIP3   OH231665   4.438   4.643   7.957 -0.5334  0.3055 -0.0934
 3369TIP3    H131666   4.388   4.650   8.039 -2.8415  0.4556 -1.4283
 3369TIP3    H231667   4.526   4.618   7.985 -0.8044  1.8965  2.5324
 3370TIP3   OH231668   0.566   1.995   7.946  0.3227  0.0774  0.3226
 3370TIP3    H131669   0.648   1.948   7.929  1.0274  0.2235  2.8655
 3370TIP3    H231670   0.556   2.052   7.870  1.5916 -1.2458 -0.9240
 3371TIP3   OH231671   3.113   3.355   3.062 -0.2498  0.9594 -0.2792
 3371TIP3    H131672   3.189   3.298   3.056 -0.0821  1.1742 -0.1920
 3371TIP3    H231673   3.090   3.375   2.972 -0.7612  0.1522 -0.3336
 3372TIP3   OH231674   4.387   1.920   2.233 -0.3647 -0.0547 -0.3914
 3372TIP3    H131675   4.470   1.929   2.281 -1.1144  0.8578  0.7809
 3372TIP3    H231676   4.357   1.832   2.253  0.4066 -0.4740 -0.9995
 3373TIP3   OH231677   6.263   3.218   7.903 -0.6035 -0.5789 -0.1087
 3373TIP3    H131678   6.187   3.273   7.923 -0.2915  0.1297 -0.8441
 3373TIP3    H231679   6.227   3.145   7.852 -0.6151  0.4891 -1.6925
 3374TIP3   OH231680   5.956   4.081   0.427  0.0178 -0.4708  0.3429
 3374TIP3    H131681   5.909   4.062   0.346 -0.3269  3.2424 -0.4917
 3374TIP3    H231682   5.887   4.100   0.491  0.2748 -3.5065  1.7196
 3375TIP3   OH231683   0.385   6.314   2.464  0.2835  0.1372 -0.4162
 3375TIP3    H131684   0.325   6.339   2.393 -0.4552  0.5295  0.3368
 3375TIP3    H231685   0.403   6.395   2.511  0.2863 -0.2264  0.2138
 3376TIP3   OH231686   5.219   5.271   0.134 -0.1839  0.0617 -0.3692
 3376TIP3    H131687   5.252   5.341   0.189 -1.1919 -0.1361  0.5211
 3376TIP3    H231688   5.174   5.212   0.195  0.2804 -1.1415 -1.1514
 3377TIP3   OH231689   6.791   3.101   7.328 -0.4247  0.3368  0.6221
 3377TIP3    H131690   6.783   3.006   7.313  0.3426  0.4995 -0.9540
 3377TIP3    H231691   6.790   3.139   7.241 -1.9115  1.9212  1.2822
 3378TIP3   OH231692   3.101   3.277   2.221  0.5199 -0.1577 -0.2278
 3378TIP3    H131693   3.156   3.329   2.163 -2.2724  1.7287 -1.4007
 3378TIP3    H231694   3.078   3.199   2.170  0.7897 -0.1727 -0.3280
 3379TIP3   OH231695   5.234   2.885   1.023 -0.4260 -0.1394  1.0454
 3379TIP3    H131696   5.195   2.953   0.968 -0.8826 -2.2227 -1.4157
 3379TIP3    H231697   5.179   2.882   1.101 -0.6511  1.9546  1.0206
 3380TIP3   OH231698   1.481   1.431   2.225  0.5021  0.3323 -1.0554
 3380TIP3    H131699   1.391   1.464   2.228  0.2273 -0.2928  2.7986
 3380TIP3    H231700   1.475   1.353   2.169 -1.4173  0.1848 -0.7359
 3381TIP3   OH231701   6.266   6.611   2.404 -0.2296 -0.0245 -0.1137
 3381TIP3    H131702   6.343   6.588   2.351  0.5965  0.6603  0.7461
 3381TIP3    H231703   6.298   6.607   2.495 -0.9870  1.0646  0.2131
 3382TIP3   OH231704   2.805   1.662   8.181  0.1417  0.3949  0.3372
 3382TIP3    H131705   2.783   1.634   8.269 -0.7549  1.3561  0.4329
 3382TIP3    H231706   2.826   1.755   8.189  1.8738  0.0878 -0.1730
 3383TIP3   OH231707   0.852   2.457   6.720 -0.2397  0.4625  0.3610
 3383TIP3    H131708   0.758   2.437   6.720  0.0431 -0.9529 -0.1567
 3383TIP3    H231709   0.885   2.418   6.801  0.0317  0.3055  0.1766
 3384TIP3   OH231710   2.572   0.885   1.851  0.2650 -0.1428  0.0473
 3384TIP3    H131711   2.575   0.815   1.786  1.7995 -1.3146  1.3300
 3384TIP3    H231712   2.586   0.842   1.935  1.2344  1.6793  0.8897
 3385TIP3   OH231713   5.309   2.560   2.348  0.6442 -0.5980  0.2006
 3385TIP3    H131714   5.249   2.604   2.288  0.5076  0.9790  1.4241
 3385TIP3    H231715   5.287   2.468   2.341 -1.1480 -0.1757 -0.2292
 3386TIP3   OH231716   3.694   3.671   6.846  0.1645 -0.3988  0.2267
 3386TIP3    H131717   3.689   3.765   6.865  0.6380  0.3035 -2.6991
 3386TIP3    H231718   3.781   3.659   6.807  0.4150 -2.2398  1.2392
 3387TIP3   OH231719   2.642   1.409   2.891  0.0932 -0.4436 -0.4334
 3387TIP3    H131720   2.640   1.340   2.958  2.1496 -0.4437 -0.2945
 3387TIP3    H231721   2.588   1.479   2.926  0.0066 -1.0079  0.5857
 3388TIP3   OH231722   5.817   6.331   2.034 -0.0315 -0.4052 -0.1152
 3388TIP3    H131723   5.738   6.303   1.988 -1.1078  2.3038 -0.1272
 3388TIP3    H231724   5.793   6.331   2.127 -0.7518  2.0407 -0.2134
 3389TIP3   OH231725   2.513   2.303   0.803 -0.7233  0.1025  0.0085
 3389TIP3    H131726   2.522   2.269   0.892 -0.2452  0.8671  0.2622
 3389TIP3    H231727   2.427   2.347   0.802 -0.6664  0.2172  0.1370
 3390TIP3   OH231728   4.714   1.156   7.515 -0.0523  0.4886  0.4783
 3390TIP3    H131729   4.737   1.224   7.579 -1.4407  2.4897 -0.9995
 3390TIP3    H231730   4.624   1.132   7.538  1.1859 -2.8904  2.5563
 3391TIP3   OH231731   0.207   0.056   2.712 -0.0840 -0.8971 -0.1101
 3391TIP3    H131732   0.261   0.095   2.781  0.3283 -1.2793 -0.2108
 3391TIP3    H231733   0.130   0.112   2.707  0.8767  0.4266 -0.8510
 3392TIP3   OH231734   3.966   3.222   8.473  0.6328  0.8766  0.2198
 3392TIP3    H131735   3.942   3.167   8.399  1.2320  0.2390  0.4891
 3392TIP3    H231736   3.885   3.230   8.524  0.6622 -0.2592  0.4864
 3393TIP3   OH231737   1.282   6.517   6.877  0.0696  0.2392 -0.6300
 3393TIP3    H131738   1.354   6.454   6.868  0.8440  1.2583 -1.8861
 3393TIP3    H231739   1.235   6.512   6.794 -1.9209 -1.0556  0.4835
 3394TIP3   OH231740   2.500   3.749   7.661  0.0948  0.5855  0.0906
 3394TIP3    H131741   2.578   3.747   7.717 -1.0786 -0.4204  1.7646
 3394TIP3    H231742   2.508   3.831   7.612  1.9794  0.7147  0.5398
 3395TIP3   OH231743   4.353   6.661   0.064  0.1002 -0.1860 -0.0442
 3395TIP3    H131744   4.400   6.640   0.145 -1.0391  0.1117  0.7220
 3395TIP3    H231745   4.373   6.753   0.047  0.3492 -0.2517 -0.0985
 3396TIP3   OH231746   3.412   5.525   0.316 -0.1940 -0.1689 -0.1274
 3396TIP3    H131747   3.440   5.456   0.256 -1.1501 -0.3811 -0.3488
 3396TIP3    H231748   3.493   5.563   0.350  0.3428 -0.6091 -0.9120
 3397TIP3   OH231749   4.562   1.176   1.869 -0.2927  0.3505 -0.1025
 3397TIP3    H131750   4.551   1.128   1.951  1.5434  0.8513  0.4854
 3397TIP3    H231751   4.601   1.111   1.809 -2.1145 -0.1714 -0.8069
 3398TIP3   OH231752   1.911   3.248   1.463 -0.2887 -0.3605 -0.1063
 3398TIP3    H131753   1.833   3.226   1.413 -0.6338 -0.5479  0.5105
 3398TIP3    H231754   1.984   3.223   1.406 -0.6691 -1.8811  0.0430
 3399TIP3   OH231755   4.621   5.533   2.809  0.4083  0.1123 -0.1565
 3399TIP3    H131756   4.711   5.509   2.786  1.8182  2.3577  2.4425
 3399TIP3    H231757   4.626   5.561   2.901 -2.9032  0.6207 -0.0012
 3400TIP3   OH231758   3.689   3.639   0.665  0.0209 -0.4773  0.0637
 3400TIP3    H131759   3.636   3.650   0.744 -0.4413 -1.5307 -0.0781
 3400TIP3    H231760   3.753   3.572   0.687  2.0248  1.5155  0.5601
 3401TIP3   OH231761   4.158   0.892   0.092  0.3572 -0.5863 -0.0655
 3401TIP3    H131762   4.222   0.950   0.050  1.4020 -1.9927 -0.4924
 3401TIP3    H231763   4.127   0.835   0.022  0.0187 -1.1219  0.5077
 3402TIP3   OH231764   0.117   4.297   2.008  0.1670 -0.1242  0.1140
 3402TIP3    H131765   0.061   4.276   2.082 -1.1979 -1.2296 -1.1479
 3402TIP3    H231766   0.100   4.226   1.945  0.0115  1.6182 -1.9188
 3403TIP3   OH231767   3.257   3.224   7.142 -0.1646  0.1471  0.1323
 3403TIP3    H131768   3.282   3.176   7.063  2.2231 -0.5516  1.2162
 3403TIP3    H231769   3.173   3.187   7.167 -0.3844 -0.4645 -1.4080
 3404TIP3   OH231770   4.388   5.981   6.702 -0.0782  0.0881 -0.0491
 3404TIP3    H131771   4.322   5.944   6.644  0.3896 -1.4961  0.3951
 3404TIP3    H231772   4.429   5.906   6.744 -0.6224  1.1685  2.6180
 3405TIP3   OH231773   3.576   5.793   8.322  0.0993  0.4361 -0.2596
 3405TIP3    H131774   3.505   5.823   8.379 -0.4345 -1.8755  0.4004
 3405TIP3    H231775   3.656   5.806   8.374 -0.3017 -0.8646  0.7399
 3406TIP3   OH231776   1.541   4.925   2.387  0.1058 -0.6884 -0.4709
 3406TIP3    H131777   1.490   4.980   2.447  1.3574  1.3285 -1.1322
 3406TIP3    H231778   1.479   4.860   2.355 -1.2723 -0.1410  0.9636
 3407TIP3   OH231779   5.931   3.405   0.718 -0.2853  0.5868 -0.4108
 3407TIP3    H131780   5.921   3.326   0.772  0.7784  0.4598 -0.3680
 3407TIP3    H231781   6.011   3.389   0.668 -0.6610  1.1798 -1.2134
 3408TIP3   OH231782   3.244   2.735   2.195 -0.2322 -0.3670 -0.1710
 3408TIP3    H131783   3.315   2.691   2.242  0.2018  1.0677  0.5847
 3408TIP3    H231784   3.207   2.795   2.260 -1.6208 -0.4953 -0.7997
 3409TIP3   OH231785   3.559   2.071   0.783 -0.3575  0.1262  0.0106
 3409TIP3    H131786   3.498   2.077   0.709  2.2712 -0.8961 -2.4609
 3409TIP3    H231787   3.531   1.993   0.830 -1.6814  0.3766 -0.3296
 3410TIP3   OH231788   6.620   2.421   1.004 -0.1627  0.2060  0.4215
 3410TIP3    H131789   6.714   2.436   1.018 -0.1003 -0.6743  1.0066
 3410TIP3    H231790   6.606   2.443   0.912  1.1586 -2.1366 -0.4361
 3411TIP3   OH231791   5.667   4.077   7.563 -0.3103 -0.0606 -0.9148
 3411TIP3    H131792   5.590   4.033   7.527  0.1253 -1.3899 -0.3026
 3411TIP3    H231793   5.669   4.162   7.519 -0.3785 -1.2037 -3.2536
 3412TIP3   OH231794   1.880   0.289   2.615 -0.0377 -0.8816 -0.0224
 3412TIP3    H131795   1.863   0.361   2.675  0.3898 -1.4617  0.8242
 3412TIP3    H231796   1.944   0.323   2.553  0.0486 -0.4905  0.2779
 3413TIP3   OH231797   6.501   1.715   2.713  0.1274 -0.1113 -0.8368
 3413TIP3    H131798   6.455   1.688   2.792 -1.8810 -1.5576 -2.3713
 3413TIP3    H231799   6.503   1.810   2.717 -0.4944 -0.1345  0.6184
 3414TIP3   OH231800   6.903   4.600   7.801  0.4998 -0.2119  0.1985
 3414TIP3    H131801   6.877   4.604   7.893  1.2812  4.9790  0.4777
 3414TIP3    H231802   6.999   4.602   7.803  0.5694 -1.0816 -0.8259
 3415TIP3   OH231803   4.650   4.815   1.625  0.1835  0.4917  0.2391
 3415TIP3    H131804   4.564   4.857   1.623  0.1438  0.4341 -2.9361
 3415TIP3    H231805   4.678   4.823   1.717 -2.3527  2.1841  0.9663
 3416TIP3   OH231806   3.472   0.143   7.757  0.4742  0.0214  0.3972
 3416TIP3    H131807   3.445   0.230   7.786  2.3452  0.7091  0.1575
 3416TIP3    H231808   3.498   0.098   7.837 -0.5179 -0.3491  0.5244
 3417TIP3   OH231809   1.215   3.182   1.018  0.1220 -0.2574  0.4822
 3417TIP3    H131810   1.305   3.154   1.033  0.5265  0.3159 -0.7004
 3417TIP3    H231811   1.213   3.205   0.925 -0.5928  2.0493  1.0013
 3418TIP3   OH231812   6.456   2.589   0.140 -0.3268  0.2744  0.2020
 3418TIP3    H131813   6.402   2.510   0.149 -0.1934 -0.2667 -2.7312
 3418TIP3    H231814   6.515   2.587   0.215 -1.9171 -1.0897  1.4916
 3419TIP3   OH231815   2.994   5.853   0.786 -0.2024  0.3235  0.2565
 3419TIP3    H131816   2.913   5.843   0.736  1.6647 -1.4896 -2.6590
 3419TIP3    H231817   2.976   5.810   0.870 -1.8292 -1.3379 -0.8762
 3420TIP3   OH231818   4.980   5.394   0.383 -0.4931 -0.2718 -0.0236
 3420TIP3    H131819   5.062   5.443   0.376 -0.4878 -0.3813 -0.8187
 3420TIP3    H231820   5.007   5.305   0.405 -0.3584 -0.4428 -0.8654
 3421TIP3   OH231821   2.141   3.592   8.178  0.0149  0.0435  0.1227
 3421TIP3    H131822   2.051   3.578   8.206 -0.7130  1.8570 -1.0678
 3421TIP3    H231823   2.172   3.665   8.231  0.4569  0.0299 -0.1059
 3422TIP3   OH231824   6.440   3.115   8.414 -0.4554 -0.1124 -0.8917
 3422TIP3    H131825   6.419   3.022   8.423 -0.9091 -0.1538 -2.3007
 3422TIP3    H231826   6.460   3.127   8.321  1.5731  0.8032 -0.4050
 3423TIP3   OH231827   3.646   1.633   2.873  0.1389  0.1287  0.2640
 3423TIP3    H131828   3.568   1.688   2.876 -0.6215 -0.9565  1.5319
 3423TIP3    H231829   3.692   1.661   2.794  0.5439  3.5360  1.5212
 3424TIP3   OH231830   4.873   4.586   7.510 -0.6440 -0.1182 -0.0345
 3424TIP3    H131831   4.885   4.629   7.425 -0.0468  1.6038  0.8848
 3424TIP3    H231832   4.962   4.578   7.545 -1.0298  0.8476  1.2089
 3425TIP3   OH231833   6.200   5.896   7.996 -0.2184 -0.1514 -0.0126
 3425TIP3    H131834   6.139   5.970   7.991  0.4556  0.3681 -0.9015
 3425TIP3    H231835   6.276   5.925   7.946  0.0110 -1.5190 -0.4835
 3426TIP3   OH231836   2.937   5.094   6.966 -0.3617  0.3995 -0.3801
 3426TIP3    H131837   2.868   5.036   7.000  0.9515  0.8905  3.6220
 3426TIP3    H231838   2.912   5.181   6.997  1.4711  0.7429  0.2300
 3427TIP3   OH231839   2.018   6.031   1.059  0.0693  0.8041 -0.4317
 3427TIP3    H131840   1.978   5.988   0.984  0.8732 -1.0493  0.1312
 3427TIP3    H231841   2.090   6.082   1.023  0.3353  0.0760 -0.9392
 3428TIP3   OH231842   5.865   4.176   1.164  0.4004 -0.3138  0.5220
 3428TIP3    H131843   5.770   4.174   1.159  0.4862 -0.6772 -1.9392
 3428TIP3    H231844   5.884   4.209   1.252 -1.9476 -2.3409  1.8982
 3429TIP3   OH231845   3.702   5.205   1.461 -0.0819 -0.3170  0.5102
 3429TIP3    H131846   3.642   5.179   1.391 -0.1692 -2.3523  1.2510
 3429TIP3    H231847   3.712   5.299   1.451 -0.9464 -0.3922 -1.5510
 3430TIP3   OH231848   1.260   1.627   2.260  0.1885  0.2256  0.0469
 3430TIP3    H131849   1.254   1.646   2.354  2.4919 -0.1275  0.3300
 3430TIP3    H231850   1.248   1.711   2.217 -0.2846  0.4911  0.6834
 3431TIP3   OH231851   4.177   3.266   1.740 -0.3241  0.3213  0.1696
 3431TIP3    H131852   4.149   3.302   1.656  1.6902  1.0750 -0.2376
 3431TIP3    H231853   4.096   3.247   1.787 -1.4746  1.3660 -1.3187
 3432TIP3   OH231854   0.551   4.461   0.768  0.0524 -0.1431  0.0800
 3432TIP3    H131855   0.519   4.550   0.752 -1.2420 -0.8953 -1.9533
 3432TIP3    H231856   0.472   4.412   0.791  0.5614 -0.9769  0.0726
 3433TIP3   OH231857   0.980   1.010   0.353 -0.1607 -0.2940  0.1336
 3433TIP3    H131858   0.901   1.048   0.314  0.0836 -0.5939 -0.6766
 3433TIP3    H231859   0.977   0.918   0.326  0.7527 -0.1810 -0.3877
 3434TIP3   OH231860   2.201   3.241   1.830 -0.0940  0.2174  0.2556
 3434TIP3    H131861   2.178   3.149   1.837  2.7387 -0.5793  0.3389
 3434TIP3    H231862   2.196   3.274   1.920 -1.4470  0.2826  0.1779
 3435TIP3   OH231863   5.472   4.964   2.787  0.0398  0.2801  0.2694
 3435TIP3    H131864   5.546   5.014   2.751 -0.2344  0.4550 -0.0470
 3435TIP3    H231865   5.451   4.900   2.719 -0.8280  0.9616 -0.1248
 3436TIP3   OH231866   3.964   5.770   7.676  0.1540 -0.2393 -0.0736
 3436TIP3    H131867   4.057   5.770   7.698  0.1627 -0.0323 -0.1089
 3436TIP3    H231868   3.951   5.850   7.625  0.0291 -0.4460 -0.3730
 3437TIP3   OH231869   6.409   0.960   1.055 -0.5241  0.2621 -0.1981
 3437TIP3    H131870   6.383   0.899   0.986  1.6278  0.6530 -1.4304
 3437TIP3    H231871   6.489   0.923   1.092 -0.2984  1.3019  0.4117
 3438TIP3   OH231872   4.687   1.413   0.136  0.4654 -0.1917 -0.2710
 3438TIP3    H131873   4.672   1.481   0.070  0.2864  0.7606  0.7098
 3438TIP3    H231874   4.599   1.383   0.160  0.4147  0.7670  0.8210
 3439TIP3   OH231875   5.138   0.281   0.251  0.8039  0.2541 -0.4126
 3439TIP3    H131876   5.130   0.262   0.345 -1.8666  1.3172 -0.3445
 3439TIP3    H231877   5.196   0.358   0.248 -0.4487  1.2902  0.5588
 3440TIP3   OH231878   1.196   3.245   0.749  0.1961 -0.0396  0.2969
 3440TIP3    H131879   1.118   3.195   0.727 -1.5104  1.6107  2.2274
 3440TIP3    H231880   1.226   3.282   0.666 -0.9808 -0.8085 -0.4848
 3441TIP3   OH231881   3.646   3.973   1.348 -0.2676  0.3966 -0.2952
 3441TIP3    H131882   3.701   4.024   1.407 -1.1270  0.8903  0.1081
 3441TIP3    H231883   3.556   3.999   1.370 -0.6915 -0.7037 -0.6373
 3442TIP3   OH231884   3.568   0.191   1.100  0.1563 -0.3009  0.1229
 3442TIP3    H131885   3.484   0.204   1.056 -1.0480 -0.2107  2.3402
 3442TIP3    H231886   3.546   0.176   1.191  2.4660 -1.9814  0.5064
 3443TIP3   OH231887   6.798   5.565   2.313 -0.4616  0.1789 -0.1661
 3443TIP3    H131888   6.867   5.620   2.350  0.6151 -1.0205 -0.3474
 3443TIP3    H231889   6.827   5.476   2.328 -1.1443 -0.3536 -1.7990
 3444TIP3   OH231890   0.466   3.191   0.337 -0.4547  0.1549 -0.0386
 3444TIP3    H131891   0.398   3.217   0.275 -0.9725 -0.0738  0.4288
 3444TIP3    H231892   0.419   3.148   0.408  0.1341  0.4334  0.5292
 3445TIP3   OH231893   4.107   2.940   7.616  0.1600  0.0146  0.0528
 3445TIP3    H131894   4.025   2.892   7.606  0.6187 -0.8415  0.3284
 3445TIP3    H231895   4.100   2.983   7.701  0.8273 -1.7368  1.0331
 3446TIP3   OH231896   5.501   5.701   1.105 -0.3192 -0.2267  0.7813
 3446TIP3    H131897   5.517   5.765   1.175 -1.9012  0.4301  0.5909
 3446TIP3    H231898   5.515   5.750   1.024  0.2217 -0.6313  0.6226
 3447TIP3   OH231899   0.630   5.082   8.249 -0.2758  0.2198 -0.5308
 3447TIP3    H131900   0.677   5.014   8.298  0.0398  0.5503 -0.3656
 3447TIP3    H231901   0.578   5.127   8.316  0.6207  1.0683 -0.3707
 3448TIP3   OH231902   1.083   3.095   1.901  0.6667  0.1938  0.0498
 3448TIP3    H131903   1.127   3.103   1.986  1.3296 -1.5237 -0.0828
 3448TIP3    H231904   0.990   3.100   1.922  0.8413  0.9754  0.7103
 3449TIP3   OH231905   4.033   1.923   2.091  0.0224 -0.0878  0.8013
 3449TIP3    H131906   4.059   1.980   2.164  0.7097  0.9117 -0.1888
 3449TIP3    H231907   3.938   1.929   2.088 -0.0333 -0.3425  1.7667
 3450TIP3   OH231908   0.373   0.165   2.910  0.3767 -0.3477  0.2164
 3450TIP3    H131909   0.455   0.206   2.881  1.1779 -1.7186  0.4498
 3450TIP3    H231910   0.315   0.238   2.929  1.9014  0.6821  1.0776
 3451TIP3   OH231911   3.483   4.849   6.884  0.4237 -0.5158 -0.2356
 3451TIP3    H131912   3.562   4.801   6.907  0.2495 -1.1325 -0.8894
 3451TIP3    H231913   3.507   4.901   6.807  0.2989 -0.4272 -0.2161
 3452TIP3   OH231914   6.725   5.595   2.034 -0.2022  0.5124  0.2979
 3452TIP3    H131915   6.697   5.652   2.106  2.4415  0.0886  1.8108
 3452TIP3    H231916   6.807   5.556   2.065  1.1135  0.3500 -2.9893
 3453TIP3   OH231917   0.787   1.341   1.606 -0.9047  0.1720  0.7648
 3453TIP3    H131918   0.818   1.395   1.534  2.0438 -1.3886  0.7084
 3453TIP3    H231919   0.739   1.402   1.663  0.9080  2.4925 -0.0487
 3454TIP3   OH231920   6.305   1.571   1.551  0.5771  0.0326  0.8916
 3454TIP3    H131921   6.245   1.564   1.625  1.0948 -0.0451  1.3073
 3454TIP3    H231922   6.304   1.485   1.510 -0.5578  0.3761  0.1272
 3455TIP3   OH231923   1.695   1.887   0.359  0.1881 -0.2397  0.4459
 3455TIP3    H131924   1.660   1.968   0.323  3.2123  0.4697 -1.2426
 3455TIP3    H231925   1.634   1.819   0.328 -1.1634  1.1083 -0.0104
 3456TIP3   OH231926   3.427   0.498   7.691  0.1578  0.7104 -0.3831
 3456TIP3    H131927   3.378   0.544   7.624 -0.8188 -0.0202 -0.2081
 3456TIP3    H231928   3.491   0.445   7.643  0.7256  1.5979 -0.6208
 3457TIP3   OH231929   3.634   4.956   6.669 -0.7258 -0.4964  0.5333
 3457TIP3    H131930   3.616   5.050   6.663 -0.0024 -0.3038  1.1614
 3457TIP3    H231931   3.685   4.937   6.590 -2.3403 -0.7390 -0.4846
 3458TIP3   OH231932   4.339   5.494   7.971  0.3524  0.5422  0.0466
 3458TIP3    H131933   4.289   5.566   7.933  0.8917  0.2147 -1.3651
 3458TIP3    H231934   4.386   5.456   7.897  0.7042 -0.7584  0.8941
 3459TIP3   OH231935   1.873   1.986   8.256 -0.4186 -0.1136  0.3989
 3459TIP3    H131936   1.789   1.990   8.302  0.0863 -1.3161  1.4744
 3459TIP3    H231937   1.926   2.055   8.297 -0.3833 -0.3691  0.7950
 3460TIP3   OH231938   2.488   5.200   7.290  0.4650  0.0531  0.3973
 3460TIP3    H131939   2.447   5.248   7.218  0.5789 -0.0344  0.2744
 3460TIP3    H231940   2.416   5.182   7.350  0.4810  0.6838  0.6122
 3461TIP3   OH231941   4.389   2.413   7.876  0.1123 -0.1272 -0.6904
 3461TIP3    H131942   4.383   2.326   7.834 -0.7078 -0.5727  0.3093
 3461TIP3    H231943   4.351   2.400   7.963 -0.3394  1.3227 -0.6526
 3462TIP3   OH231944   2.268   5.103   1.921 -0.1092 -0.0460  0.0402
 3462TIP3    H131945   2.177   5.113   1.892 -0.8114 -4.6254 -0.1366
 3462TIP3    H231946   2.317   5.166   1.869 -3.0322  2.0539 -0.4268
 3463TIP3   OH231947   6.366   3.960   7.390 -0.4516  0.0092 -0.4327
 3463TIP3    H131948   6.341   4.019   7.460  0.2658 -0.0968 -0.0804
 3463TIP3    H231949   6.388   4.018   7.317 -1.9991  0.1000 -0.8703
 3464TIP3   OH231950   6.731   6.028   1.264  0.0717 -0.0381 -0.4216
 3464TIP3    H131951   6.822   6.007   1.288 -0.0464 -0.0246  0.0513
 3464TIP3    H231952   6.699   5.948   1.221 -0.1165 -0.5555  0.6445
 3465TIP3   OH231953   2.127   1.598   7.161 -0.0427 -0.0111 -0.6763
 3465TIP3    H131954   2.047   1.551   7.135 -0.9230  1.3952 -0.6152
 3465TIP3    H231955   2.185   1.591   7.085 -1.2388  1.1036 -1.7439
 3466TIP3   OH231956   2.248   3.977   0.195 -0.3588 -0.7637  1.1508
 3466TIP3    H131957   2.213   3.895   0.228 -0.3493 -1.3577 -0.2754
 3466TIP3    H231958   2.175   4.039   0.202 -0.8903 -1.3227  0.6551
 3467TIP3   OH231959   2.819   4.612   2.609 -0.4722  0.8018  0.2310
 3467TIP3    H131960   2.900   4.595   2.561 -1.2068 -1.4713 -0.3147
 3467TIP3    H231961   2.812   4.540   2.671 -2.4236  0.5388 -0.2255
 3468TIP3   OH231962   6.764   1.483   0.228  0.4119  0.0475 -0.1093
 3468TIP3    H131963   6.831   1.486   0.296  0.3411 -0.4836 -0.0103
 3468TIP3    H231964   6.782   1.402   0.180  0.8614  0.7362 -1.1389
 3469TIP3   OH231965   1.355   6.282   1.496 -0.2509  0.2505  0.0802
 3469TIP3    H131966   1.424   6.286   1.430 -1.9720  2.0278 -1.7680
 3469TIP3    H231967   1.359   6.366   1.541  0.1569 -0.4962  1.4972
 3470TIP3   OH231968   0.478   1.217   8.426 -0.1472 -0.4976 -0.4438
 3470TIP3    H131969   0.470   1.295   8.482 -1.7185 -0.6787 -0.3837
 3470TIP3    H231970   0.482   1.144   8.487 -0.8491 -0.6217 -0.5444
 3471TIP3   OH231971   2.827   6.632   1.250 -0.0853 -0.2231  0.7225
 3471TIP3    H131972   2.917   6.659   1.233 -0.5635  0.9735 -0.0231
 3471TIP3    H231973   2.815   6.646   1.344  0.9907 -1.9545  1.1446
 3472TIP3   OH231974   1.120   2.451   2.174 -0.1706 -0.2989  0.3252
 3472TIP3    H131975   1.055   2.499   2.124 -1.5343 -1.2793  1.1134
 3472TIP3    H231976   1.197   2.508   2.173 -1.2897  1.2724  0.0568
 3473TIP3   OH231977   2.386   6.520   0.277  0.7554 -0.7291 -0.5554
 3473TIP3    H131978   2.365   6.549   0.189  0.0175  1.1054  0.1600
 3473TIP3    H231979   2.481   6.505   0.277  1.2509  2.0166 -0.9712
 3474TIP3   OH231980   5.998   3.579   2.500 -0.0334 -0.3520  0.1526
 3474TIP3    H131981   6.023   3.488   2.510  0.0651 -0.3381  0.0253
 3474TIP3    H231982   5.905   3.581   2.523  0.0513 -0.4221  0.5105
 3475TIP3   OH231983   6.529   2.910   2.737 -0.3783  0.1557  0.4865
 3475TIP3    H131984   6.590   2.849   2.694 -0.6797  0.3067 -0.1732
 3475TIP3    H231985   6.586   2.974   2.780 -0.0627  0.2199 -0.0088
 3476TIP3   OH231986   5.371   6.850   8.515 -0.1868  0.1477 -0.1283
 3476TIP3    H131987   5.403   6.778   8.460  2.2046  1.9455 -1.2483
 3476TIP3    H231988   5.306   6.895   8.460 -0.7358 -0.3651  0.0863
 3477TIP3   OH231989   2.475   6.878   3.081  0.1793  0.2006  0.4210
 3477TIP3    H131990   2.509   6.929   3.153 -0.1913  1.1869 -0.0894
 3477TIP3    H231991   2.513   6.917   3.003 -0.4710 -0.0071 -0.0098
 3478TIP3   OH231992   4.977   6.356   0.522  0.2787 -0.3943 -0.4985
 3478TIP3    H131993   5.039   6.346   0.594  2.4695  0.2807 -2.1805
 3478TIP3    H231994   4.991   6.445   0.491 -0.7327 -0.6167 -1.6510
 3479TIP3   OH231995   5.086   2.630   0.143  0.5331 -0.3242 -0.8212
 3479TIP3    H131996   5.057   2.540   0.157  0.8607 -0.1232  1.6270
 3479TIP3    H231997   5.016   2.684   0.181  0.4250  0.4751 -2.0913
 3480TIP3   OH231998   3.240   5.006   6.660  0.0329  0.0879 -0.0282
 3480TIP3    H131999   3.181   5.080   6.645 -0.9564 -0.5110  0.7537
 3480TIP3    H232000   3.324   5.033   6.622 -0.7206  0.9936 -1.0882
 3481TIP3   OH232001   1.280   6.869   1.772  0.0401  0.3351 -0.0588
 3481TIP3    H132002   1.242   6.936   1.717 -2.5632  0.2007  1.3823
 3481TIP3    H232003   1.356   6.837   1.724  2.3226  5.1915 -0.2036
 3482TIP3   OH232004   1.363   1.630   1.825 -0.1488  0.7167  0.5164
 3482TIP3    H132005   1.274   1.666   1.822  0.1064  1.3332  0.0257
 3482TIP3    H232006   1.419   1.705   1.805  0.4799  0.3150  0.7524
 3483TIP3   OH232007   3.177   3.282   0.400 -0.4464 -0.5157 -0.1415
 3483TIP3    H132008   3.272   3.293   0.410 -0.5948  0.8278 -0.1009
 3483TIP3    H232009   3.168   3.195   0.360  0.8668 -0.2295 -1.1515
 3484TIP3   OH232010   1.364   0.854   7.421 -0.6367  0.1590  0.0635
 3484TIP3    H132011   1.299   0.886   7.359  0.0292  1.9413  0.2542
 3484TIP3    H232012   1.433   0.920   7.422  0.2428 -0.7172  1.3395
 3485TIP3   OH232013   5.537   2.647   1.649  0.4380  0.5875  0.3906
 3485TIP3    H132014   5.464   2.641   1.588  2.2030 -1.6586 -1.7332
 3485TIP3    H232015   5.597   2.710   1.609  0.6112  0.8103  0.9881
 3486TIP3   OH232016   4.373   5.312   2.086 -0.2840 -0.1507 -0.1383
 3486TIP3    H132017   4.412   5.295   2.171 -0.7075 -0.5758 -0.0223
 3486TIP3    H232018   4.442   5.354   2.035 -0.4689  1.4805  0.8804
 3487TIP3   OH232019   5.840   1.412   0.321  0.1960 -0.1716 -0.1834
 3487TIP3    H132020   5.746   1.399   0.329  0.5531 -1.8463  2.1839
 3487TIP3    H232021   5.855   1.502   0.348 -0.7277  0.2213 -0.9365
 3488TIP3   OH232022   5.801   5.282   7.419 -0.0164 -0.4455 -0.0829
 3488TIP3    H132023   5.734   5.248   7.360  1.1181 -0.5411 -1.3665
 3488TIP3    H232024   5.810   5.374   7.393  0.7521 -0.5854 -0.3311
 3489TIP3   OH232025   0.217   2.727   8.285  0.0934 -0.0914 -0.0315
 3489TIP3    H132026   0.262   2.654   8.244  0.3469  0.0060  0.0684
 3489TIP3    H232027   0.149   2.752   8.222  0.5251  0.1051 -0.4278
 3490TIP3   OH232028   6.185   5.132   7.646 -0.4289  0.4145  0.5281
 3490TIP3    H132029   6.209   5.145   7.738  0.0151 -0.4088  0.5389
 3490TIP3    H232030   6.255   5.077   7.611 -0.8491  0.3243 -0.1768
 3491TIP3   OH232031   3.596   1.994   0.405 -0.3921  0.1087  0.1704
 3491TIP3    H132032   3.508   1.961   0.391 -0.2750 -0.1987  0.1465
 3491TIP3    H232033   3.637   1.994   0.319 -0.3652  0.2387  0.1827
 3492TIP3   OH232034   1.356   0.577   2.452  0.0528 -0.6494  0.2435
 3492TIP3    H132035   1.262   0.585   2.469  0.1689 -2.1929  1.8029
 3492TIP3    H232036   1.397   0.627   2.522  0.4114 -0.8815  0.1994
 3493TIP3   OH232037   3.830   6.766   0.100 -0.4061  0.3131  0.0842
 3493TIP3    H132038   3.890   6.787   0.172 -1.3358 -0.0905  1.0114
 3493TIP3    H232039   3.773   6.843   0.093 -0.5918  0.1756  0.0787
 3494TIP3   OH232040   0.959   5.738   0.496 -0.3139 -0.4429 -0.0990
 3494TIP3    H132041   1.020   5.807   0.473  0.2830 -0.0541  2.3268
 3494TIP3    H232042   0.913   5.772   0.573 -2.1386 -1.5693 -0.6274
 3495TIP3   OH232043   6.505   5.773   7.341 -0.1693  0.1757  0.4440
 3495TIP3    H132044   6.560   5.849   7.359  0.2180  0.1841 -0.7137
 3495TIP3    H232045   6.539   5.736   7.260 -2.1605  0.4684 -0.6047
 3496TIP3   OH232046   2.691   0.047   0.951  0.4393  0.6935  0.6747
 3496TIP3    H132047   2.597   0.060   0.937  0.5000  2.0283  1.3889
 3496TIP3    H232048   2.732   0.116   0.899  1.1142 -0.6622 -0.6790
 3497TIP3   OH232049   2.429   4.558   6.937  0.1179 -0.0396 -0.6485
 3497TIP3    H132050   2.375   4.570   6.859  0.0885 -0.5301 -0.7088
 3497TIP3    H232051   2.517   4.581   6.910 -0.2445  2.0799 -0.1984
 3498TIP3   OH232052   2.322   3.297   1.571  0.6444 -0.1655 -0.8618
 3498TIP3    H132053   2.265   3.282   1.647 -0.4611  1.7550 -1.2399
 3498TIP3    H232054   2.410   3.275   1.602 -0.0699 -1.6350  0.2454
 3499TIP3   OH232055   6.132   4.219   8.101  0.3970 -0.2033 -0.1154
 3499TIP3    H132056   6.084   4.237   8.020  0.6283  0.0188 -0.2032
 3499TIP3    H232057   6.170   4.132   8.087  2.5746  0.8719 -1.2901
 3500TIP3   OH232058   2.336   1.609   1.911 -0.2343 -0.2176 -0.1183
 3500TIP3    H132059   2.325   1.690   1.962 -0.6017  0.1089 -0.7001
 3500TIP3    H232060   2.406   1.630   1.848 -0.2715 -0.3824 -0.2152
 3501TIP3   OH232061   4.256   1.255   7.611  0.2236  0.3584  0.1081
 3501TIP3    H132062   4.306   1.291   7.537  1.7403 -0.1225  0.8538
 3501TIP3    H232063   4.217   1.332   7.653 -1.1126  0.5946 -1.4722
 3502TIP3   OH232064   4.105   0.906   2.632 -0.3717 -0.0379 -0.3072
 3502TIP3    H132065   4.032   0.951   2.674 -1.7009 -0.1410 -2.3334
 3502TIP3    H232066   4.131   0.838   2.695 -2.7663 -0.6893  0.0801
 3503TIP3   OH232067   3.614   4.806   0.087  0.2125  0.0246 -0.5046
 3503TIP3    H132068   3.564   4.817   0.168  0.7708  0.5738 -0.2338
 3503TIP3    H232069   3.597   4.885   0.037 -0.9407 -0.7408 -1.3907
 3504TIP3   OH232070   2.061   6.785   2.119 -0.3906  0.2567 -0.2435
 3504TIP3    H132071   2.049   6.864   2.066 -0.3120  0.7792  0.5071
 3504TIP3    H232072   2.100   6.817   2.200  0.8687 -0.7152 -0.4387
 3505TIP3   OH232073   6.604   2.745   8.151  0.2913 -0.1244  0.7031
 3505TIP3    H132074   6.635   2.657   8.171 -0.8134 -0.9577 -1.0380
 3505TIP3    H232075   6.509   2.740   8.161  0.3101  1.3334  2.1441
 3506TIP3   OH232076   5.495   6.703   0.510  0.5039  0.1114  0.1092
 3506TIP3    H132077   5.515   6.686   0.418 -2.2699  2.7571 -1.1496
 3506TIP3    H232078   5.408   6.666   0.523 -0.5365  2.5449  0.6328
 3507TIP3   OH232079   3.492   2.506   2.955 -0.3395  0.3749 -0.2344
 3507TIP3    H132080   3.418   2.554   2.920 -1.3004 -0.2529  0.8748
 3507TIP3    H232081   3.511   2.548   3.039  2.2955  2.2373 -1.6092
 3508TIP3   OH232082   5.851   6.261   8.555  0.2503 -0.0010 -0.3640
 3508TIP3    H132083   5.862   6.344   8.603  1.5190 -0.1214 -0.4286
 3508TIP3    H232084   5.789   6.283   8.485  0.3686  0.8404 -0.2229
 3509TIP3   OH232085   4.634   2.527   0.219 -0.2212  0.2310  0.6031
 3509TIP3    H132086   4.654   2.567   0.134 -0.2371  0.1519  0.5627
 3509TIP3    H232087   4.661   2.594   0.283 -0.3804  0.3631  0.5320
 3510TIP3   OH232088   1.350   5.797   3.328 -0.1990 -0.3433  0.3247
 3510TIP3    H132089   1.391   5.866   3.276  2.3451 -1.7935  0.2057
 3510TIP3    H232090   1.321   5.733   3.264 -1.2102 -0.0837  0.5086
 3511TIP3   OH232091   4.007   2.741   0.213  0.0485  0.3261 -0.0109
 3511TIP3    H132092   3.995   2.653   0.178  1.5135  0.2644 -0.4531
 3511TIP3    H232093   4.010   2.729   0.308  1.0807 -0.2397 -0.1010
 3512TIP3   OH232094   3.680   4.532   7.113 -0.2729  0.3072 -0.0363
 3512TIP3    H132095   3.607   4.477   7.082 -0.3966 -0.2941  1.2625
 3512TIP3    H232096   3.756   4.473   7.111 -0.2848  0.2582  0.7893
 3513TIP3   OH232097   5.488   1.288   7.963 -0.1819 -0.0074 -0.2396
 3513TIP3    H132098   5.558   1.347   7.935  0.5884 -0.5897  0.4246
 3513TIP3    H232099   5.444   1.262   7.882 -0.0441  0.8689 -0.6007
 3514TIP3   OH232100   6.705   1.609   2.389  0.3200  0.6646 -0.2641
 3514TIP3    H132101   6.614   1.604   2.421  0.2756 -0.2302 -0.5210
 3514TIP3    H232102   6.702   1.569   2.302  1.0977 -0.0585  0.0290
 3515TIP3   OH232103   2.590   4.408   2.790  0.4522  0.1583  0.0962
 3515TIP3    H132104   2.550   4.461   2.859  0.6791  1.9191 -1.0594
 3515TIP3    H232105   2.684   4.422   2.799  0.4366  1.3434 -1.2349
 3516TIP3   OH232106   5.721   1.670   0.746 -0.0469  0.2786  0.6639
 3516TIP3    H132107   5.629   1.644   0.753  0.2151 -0.8598  0.1376
 3516TIP3    H232108   5.751   1.676   0.836 -0.1159 -1.3634  0.8242
 3517TIP3   OH232109   4.336   1.934   6.966 -0.4463 -0.0682  0.5226
 3517TIP3    H132110   4.414   1.885   6.939 -1.0665 -0.5783 -0.3514
 3517TIP3    H232111   4.301   1.971   6.885  0.5611  2.7093  1.2271
 3518TIP3   OH232112   5.892   6.870   1.261  0.3545  0.0439 -0.1957
 3518TIP3    H132113   5.985   6.848   1.265  0.3967 -0.2145 -1.8158
 3518TIP3    H232114   5.890   6.958   1.223  0.0904  2.2867  4.3363
 3519TIP3   OH232115   0.656   2.977   2.371  0.3245  1.1341  0.1920
 3519TIP3    H132116   0.667   2.885   2.395  0.8338  1.2815  0.5186
 3519TIP3    H232117   0.582   3.007   2.425  1.8255  1.6246  2.0660
 3520TIP3   OH232118   2.691   4.428   7.946  0.3717  0.3887 -0.2736
 3520TIP3    H132119   2.711   4.453   8.036  0.9575 -0.7739 -0.0599
 3520TIP3    H232120   2.756   4.362   7.924 -0.5006 -0.2239 -1.1381
 3521TIP3   OH232121   6.827   2.715   7.881  0.3209 -0.5670  0.1148
 3521TIP3    H132122   6.751   2.658   7.887 -0.7483  0.5064 -2.1233
 3521TIP3    H232123   6.794   2.802   7.902  0.7556 -0.0009 -1.4109
 3522TIP3   OH232124   0.744   5.251   2.010 -0.0578  1.1041 -0.6023
 3522TIP3    H132125   0.690   5.210   1.942  1.0555  0.4995 -1.1477
 3522TIP3    H232126   0.826   5.274   1.966  1.0454 -0.1193  0.7009
 3523TIP3   OH232127   4.663   0.084   0.124  0.7434 -0.9909 -0.6494
 3523TIP3    H132128   4.642   0.010   0.066  0.9565 -1.5374 -0.0377
 3523TIP3    H232129   4.758   0.089   0.123  0.6848  0.3884 -2.0497
 3524TIP3   OH232130   6.856   2.762   1.364 -0.2307  0.2549  0.2768
 3524TIP3    H132131   6.780   2.746   1.420  1.1868 -1.4241  1.8633
 3524TIP3    H232132   6.820   2.763   1.275 -1.9500 -2.0765  0.8433
 3525TIP3   OH232133   0.586   0.344   2.796  0.3176 -0.3540 -0.1243
 3525TIP3    H132134   0.523   0.406   2.759 -1.6492 -2.0968  0.1496
 3525TIP3    H232135   0.656   0.400   2.832 -1.2220  1.6758 -0.1123
 3526TIP3   OH232136   1.994   6.483   2.206  0.0430 -0.2241 -0.1830
 3526TIP3    H132137   2.063   6.521   2.261 -0.5350  1.0744 -0.3369
 3526TIP3    H232138   1.934   6.555   2.188 -1.3740 -1.3378 -0.0610
 3527TIP3   OH232139   6.500   0.110   1.237 -0.7511 -0.1432  0.1962
 3527TIP3    H132140   6.507   0.016   1.255  0.5125  0.1166  1.3000
 3527TIP3    H232141   6.430   0.140   1.295  1.1299  0.1196  2.5142
 3528TIP3   OH232142   5.058   5.010   0.133 -0.2427  0.2011 -0.3894
 3528TIP3    H132143   5.072   4.954   0.057 -1.8103 -0.1441 -0.4598
 3528TIP3    H232144   5.125   4.983   0.195  2.0684  1.5003 -2.1414
 3529TIP3   OH232145   4.170   2.798   7.162 -0.5539 -0.1269 -0.3875
 3529TIP3    H132146   4.245   2.747   7.131 -0.6406 -0.5775  0.1307
 3529TIP3    H232147   4.194   2.825   7.251 -1.6373 -1.6367  0.4172
 3530TIP3   OH232148   4.276   0.509   6.566 -0.3479 -0.3920 -0.2342
 3530TIP3    H132149   4.355   0.461   6.588  2.0347  3.2963  0.1155
 3530TIP3    H232150   4.230   0.453   6.503  3.8862 -1.7317 -2.5106
 3531TIP3   OH232151   0.904   3.150   7.329  0.6481 -0.5562  0.1867
 3531TIP3    H132152   0.858   3.212   7.272  2.1346  0.1291 -0.3273
 3531TIP3    H232153   0.910   3.070   7.277  0.2721 -0.5621  0.1510
 3532TIP3   OH232154   4.145   1.147   2.452  0.2458 -0.3844  0.4137
 3532TIP3    H132155   4.139   1.077   2.517  0.8754 -0.7961  0.0391
 3532TIP3    H232156   4.170   1.225   2.502  0.4577 -0.6354  0.6978
 3533TIP3   OH232157   6.444   2.213   7.485  0.2437 -0.5926  0.4888
 3533TIP3    H132158   6.402   2.127   7.475 -1.0118 -0.2074  2.0078
 3533TIP3    H232159   6.486   2.210   7.571 -0.4263  0.5401  0.8774
 3534TIP3   OH232160   3.178   3.312   6.807 -0.3723  0.1853 -0.5171
 3534TIP3    H132161   3.121   3.361   6.749 -2.0198 -0.7618  0.2404
 3534TIP3    H232162   3.128   3.300   6.887  1.0385 -0.3584  0.3347
 3535TIP3   OH232163   2.458   4.805   2.202  0.0306 -0.3110  0.0787
 3535TIP3    H132164   2.498   4.740   2.261 -2.0992 -0.0305  1.9680
 3535TIP3    H232165   2.507   4.885   2.219  0.4407 -0.6061  0.3177
 3536TIP3   OH232166   0.391   5.028   7.741  0.3392  0.0152 -0.1832
 3536TIP3    H132167   0.487   5.031   7.738  0.3710  0.8406  0.9633
 3536TIP3    H232168   0.368   4.956   7.682  1.6623 -0.2342 -0.4419
 3537TIP3   OH232169   1.712   3.087   1.359 -0.0729 -0.0528 -0.1660
 3537TIP3    H132170   1.635   3.097   1.303  1.5748 -0.0258 -2.6019
 3537TIP3    H232171   1.729   2.993   1.358 -0.9263 -0.2729  1.6973
 3538TIP3   OH232172   5.954   4.636   8.537 -0.0678 -0.2804 -0.7717
 3538TIP3    H132173   5.999   4.552   8.546  1.0744  0.2766 -1.1347
 3538TIP3    H232174   5.917   4.634   8.448  0.9118  0.0387 -1.1979
 3539TIP3   OH232175   3.351   6.702   0.447 -0.0718  0.0383  0.4789
 3539TIP3    H132176   3.316   6.704   0.535  0.7647 -0.1087  0.8252
 3539TIP3    H232177   3.322   6.784   0.407  0.0235  0.3707  1.0804
 3540TIP3   OH232178   2.515   2.961   0.958 -0.1027  0.2268  0.2500
 3540TIP3    H132179   2.596   2.991   0.918  0.3883 -0.0796  0.9858
 3540TIP3    H232180   2.455   2.947   0.885  0.6967 -0.1147 -0.3521
 3541TIP3   OH232181   2.321   2.132   7.292  0.3602 -0.1613 -0.2032
 3541TIP3    H132182   2.384   2.066   7.263  0.2300 -0.2065 -0.3932
 3541TIP3    H232183   2.290   2.100   7.377 -0.2471 -0.7356 -0.6242
 3542TIP3   OH232184   6.753   3.461   7.933 -0.2545  0.3106 -0.0298
 3542TIP3    H132185   6.753   3.485   8.026  1.2456 -0.3898  0.1771
 3542TIP3    H232186   6.662   3.435   7.915 -0.7520  1.2535  1.0062
 3543TIP3   OH232187   3.811   3.644   7.325  0.0672  0.0473 -0.3696
 3543TIP3    H132188   3.840   3.659   7.236  0.5894  2.1813  0.1097
 3543TIP3    H232189   3.890   3.621   7.373 -0.0844 -0.3209 -0.2916
 3544TIP3   OH232190   3.695   5.923   0.884 -0.0269 -0.3480 -0.1336
 3544TIP3    H132191   3.698   5.992   0.818 -0.6569 -1.8215 -1.7727
 3544TIP3    H232192   3.602   5.914   0.905 -0.1224 -1.5220 -0.9112
 3545TIP3   OH232193   4.981   6.325   0.117 -0.7647  0.1963  0.4455
 3545TIP3    H132194   4.997   6.281   0.201 -0.3130 -2.2449 -0.8103
 3545TIP3    H232195   5.068   6.330   0.077 -0.6943  2.9299  0.7590
 3546TIP3   OH232196   3.393   2.691   8.544 -0.4499 -0.7092  0.0309
 3546TIP3    H132197   3.419   2.599   8.553 -0.3621 -0.6268  0.6825
 3546TIP3    H232198   3.476   2.739   8.535 -0.3618 -0.5032  1.5873
 3547TIP3   OH232199   0.560   6.884   1.754  0.2029  0.5882 -0.3557
 3547TIP3    H132200   0.644   6.895   1.799  0.6923 -3.1132  0.0224
 3547TIP3    H232201   0.572   6.805   1.701 -2.8030  0.3432 -0.8634
 3548TIP3   OH232202   0.422   5.441   1.482 -0.4961  0.2862  0.2567
 3548TIP3    H132203   0.343   5.493   1.497 -1.3648  0.8807 -4.6866
 3548TIP3    H232204   0.491   5.506   1.469  0.2957 -0.1676  1.9446
 3549TIP3   OH232205   0.521   1.429   1.474 -0.2863  0.3087 -0.6615
 3549TIP3    H132206   0.533   1.377   1.395  0.1720 -0.0973 -0.3253
 3549TIP3    H232207   0.450   1.386   1.521 -0.4785  0.4818 -0.7894
 3550TIP3   OH232208   4.064   0.906   7.291 -0.6381  0.2117  0.4196
 3550TIP3    H132209   4.033   0.967   7.224  0.1750  0.3281  0.1367
 3550TIP3    H232210   4.150   0.877   7.259  0.4443  1.3773  2.0822
 3551TIP3   OH232211   0.294   6.660   2.192 -0.4938  0.4004 -0.2171
 3551TIP3    H132212   0.279   6.737   2.245  1.1391  0.7387 -0.1718
 3551TIP3    H232213   0.317   6.694   2.106 -0.9688 -0.0733 -0.5346
 3552TIP3   OH232214   2.002   5.385   8.336  0.0469  0.4922  0.2721
 3552TIP3    H132215   1.987   5.291   8.338 -1.6650  0.7453  1.1133
 3552TIP3    H232216   2.046   5.401   8.252  1.5263 -1.1742  0.6704
 3553TIP3   OH232217   0.435   4.071   2.417  0.3690 -0.4963 -0.3871
 3553TIP3    H132218   0.340   4.075   2.416  0.3843 -0.0921 -1.0669
 3553TIP3    H232219   0.460   4.111   2.500 -0.0414 -0.0236 -0.4857
 3554TIP3   OH232220   4.626   5.127   2.018 -0.0652  0.3900  0.1952
 3554TIP3    H132221   4.666   5.049   1.978  0.0537  0.3829  0.3267
 3554TIP3    H232222   4.645   5.118   2.111  0.2014  0.7248  0.1764
 3555TIP3   OH232223   3.180   5.253   2.240  0.4309 -0.1046 -0.4721
 3555TIP3    H132224   3.267   5.291   2.251  1.0561 -1.7488  0.6737
 3555TIP3    H232225   3.123   5.307   2.295  1.2732 -0.6772  1.0282
 3556TIP3   OH232226   4.132   3.884   2.321  0.1689  0.1014 -0.1143
 3556TIP3    H132227   4.164   3.798   2.293 -1.5360 -0.5421 -0.2232
 3556TIP3    H232228   4.180   3.946   2.267 -0.3233 -0.9294 -1.8060
 3557TIP3   OH232229   2.087   0.102   0.156  0.5076  0.0249 -0.1788
 3557TIP3    H132230   2.008   0.100   0.211 -0.4005 -0.1157 -1.4511
 3557TIP3    H232231   2.106   0.010   0.138 -0.2421  0.1249 -1.5374
 3558TIP3   OH232232   4.325   4.417   0.855 -0.2485  0.0330  0.0342
 3558TIP3    H132233   4.307   4.323   0.868  0.1102 -0.0718 -0.2341
 3558TIP3    H232234   4.320   4.430   0.761  1.1765 -0.0198 -0.0675
 3559TIP3   OH232235   0.667   2.418   1.920 -0.1963  0.3204 -0.3137
 3559TIP3    H132236   0.646   2.448   1.831 -1.1534 -1.1679 -0.6329
 3559TIP3    H232237   0.710   2.334   1.907 -0.2087  0.1619  0.6370
 3560TIP3   OH232238   2.871   5.781   8.345  0.7408 -0.1489 -0.2665
 3560TIP3    H132239   2.896   5.745   8.430  2.3027  1.1077 -0.1426
 3560TIP3    H232240   2.848   5.704   8.293  1.3110 -1.0867  0.8000
 3561TIP3   OH232241   5.661   3.379   2.340  0.3891 -0.0238  0.2160
 3561TIP3    H132242   5.745   3.351   2.304  1.0535  0.7471  1.1187
 3561TIP3    H232243   5.652   3.329   2.421 -0.4487 -0.7329 -0.2877
 3562TIP3   OH232244   5.658   4.421   1.513  0.1680  0.6408  0.2837
 3562TIP3    H132245   5.636   4.366   1.589  1.6030 -0.0792  0.2116
 3562TIP3    H232246   5.629   4.509   1.538 -0.2793  0.2367  1.2507
 3563TIP3   OH232247   2.225   6.426   0.986  0.3202 -0.2378  0.2166
 3563TIP3    H132248   2.289   6.416   0.916 -0.9907 -3.0192 -0.7402
 3563TIP3    H232249   2.208   6.337   1.017 -1.2650  0.6333  2.1297
 3564TIP3   OH232250   0.584   0.699   2.496 -0.3908  0.3585  0.2168
 3564TIP3    H132251   0.673   0.669   2.480 -0.3415  0.7810 -0.3209
 3564TIP3    H232252   0.594   0.786   2.536 -0.5722  1.0422 -1.1849
 3565TIP3   OH232253   0.254   0.714   7.006  0.5998  0.3776 -0.1477
 3565TIP3    H132254   0.259   0.619   6.991  1.2907  0.3144  0.4065
 3565TIP3    H232255   0.176   0.742   6.958 -0.6979 -0.7847  1.1759
 3566TIP3   OH232256   4.790   3.368   8.465 -0.5090 -0.5743 -0.1813
 3566TIP3    H132257   4.747   3.448   8.496  2.9163  0.8069  1.5072
 3566TIP3    H232258   4.839   3.396   8.388  1.5769 -0.6556  1.0368
 3567TIP3   OH232259   2.654   5.453   1.530  0.2147 -0.3952  0.4684
 3567TIP3    H132260   2.728   5.489   1.480 -0.8392  2.5096  0.7999
 3567TIP3    H232261   2.680   5.464   1.621 -0.8032  1.1799  0.5977
 3568TIP3   OH232262   1.788   5.490   1.411 -0.3048 -0.4977 -0.5606
 3568TIP3    H132263   1.729   5.564   1.425  1.8501  1.2297 -0.0900
 3568TIP3    H232264   1.876   5.528   1.412  0.9368 -3.1145  0.0818
 3569TIP3   OH232265   2.214   3.199   2.138 -0.0209  0.4030 -0.3184
 3569TIP3    H132266   2.278   3.182   2.207 -0.8343  0.4702  0.4621
 3569TIP3    H232267   2.129   3.195   2.181 -0.5427  0.5957 -1.2846
 3570TIP3   OH232268   6.833   6.912   1.744 -0.0907  0.1987 -0.4226
 3570TIP3    H132269   6.801   6.949   1.662  0.7971  1.2206 -0.3292
 3570TIP3    H232270   6.782   6.956   1.812  0.4909  0.7626 -0.3443
 3571TIP3   OH232271   4.903   5.922   7.733  0.3243  0.1052  0.3111
 3571TIP3    H132272   4.977   5.970   7.697  0.7962 -1.6577 -1.2243
 3571TIP3    H232273   4.828   5.981   7.720  1.1626  1.1880  0.2694
 3572TIP3   OH232274   6.513   1.024   0.159  0.1455 -0.0230 -0.0266
 3572TIP3    H132275   6.449   0.983   0.101 -0.0205 -0.2375  0.3028
 3572TIP3    H232276   6.481   1.004   0.247  0.0270  0.8747  0.1418
 3573TIP3   OH232277   1.082   0.544   8.206  0.2367 -0.0394  0.2717
 3573TIP3    H132278   0.997   0.581   8.229 -0.6631 -1.9220  0.1685
 3573TIP3    H232279   1.145   0.600   8.250 -1.0417  1.4984  0.2227
 3574TIP3   OH232280   4.093   3.356   7.199 -0.2039 -0.0691  0.1084
 3574TIP3    H132281   4.111   3.449   7.187  1.1142 -0.4637 -1.2755
 3574TIP3    H232282   4.012   3.354   7.250  1.5420  1.8229  3.2567
 3575TIP3   OH232283   4.667   2.196   2.144 -0.1367  0.1224 -0.4952
 3575TIP3    H132284   4.660   2.284   2.181 -0.1229  0.3969 -1.1258
 3575TIP3    H232285   4.721   2.148   2.207 -0.4353  0.4656  0.0281
 3576TIP3   OH232286   5.413   4.785   0.715 -0.1243 -0.3396  0.7662
 3576TIP3    H132287   5.470   4.862   0.713 -0.9789  0.3140  1.0474
 3576TIP3    H232288   5.454   4.726   0.778  0.4752 -0.0735  0.6358
 3577TIP3   OH232289   5.920   2.191   2.296 -0.2320 -0.2780  0.0986
 3577TIP3    H132290   6.011   2.181   2.324 -0.0975 -0.5367 -0.4196
 3577TIP3    H232291   5.875   2.224   2.374  0.3600  0.1400  0.2773
 3578TIP3   OH232292   0.729   6.551   7.089 -0.3040 -0.1933 -0.3603
 3578TIP3    H132293   0.717   6.574   6.997  1.3593 -0.9464 -0.7983
 3578TIP3    H232294   0.681   6.469   7.099 -1.3441  0.4088 -0.2765
 3579TIP3   OH232295   2.210   3.009   2.722  0.3387  0.2349 -0.0177
 3579TIP3    H132296   2.301   2.983   2.740  1.2077  3.0578  0.2241
 3579TIP3    H232297   2.204   3.009   2.627  0.7551  0.4272 -0.0496
 3580TIP3   OH232298   0.588   6.477   0.444  0.7884  0.3608  0.0385
 3580TIP3    H132299   0.499   6.511   0.453  0.9077  0.7497 -0.2102
 3580TIP3    H232300   0.632   6.503   0.524  0.9822  1.1266 -0.3045
 3581TIP3   OH232301   0.890   1.215   1.998  0.1238  0.0132  0.2197
 3581TIP3    H132302   0.888   1.166   2.081 -0.8003  0.1258  0.2716
 3581TIP3    H232303   0.856   1.154   1.933 -1.3493  0.6608  0.3415
 3582TIP3   OH232304   2.256   1.344   1.513  0.0318 -0.3519 -0.2499
 3582TIP3    H132305   2.253   1.379   1.602  1.4986 -0.4674 -0.1192
 3582TIP3    H232306   2.255   1.421   1.456 -1.5286 -0.2992 -0.1749
 3583TIP3   OH232307   5.049   4.616   8.305 -0.1628  0.6363  0.1320
 3583TIP3    H132308   4.954   4.606   8.310  0.1097 -2.8801  0.9624
 3583TIP3    H232309   5.083   4.527   8.317  3.2609  1.7851  0.0035
 3584TIP3   OH232310   4.708   6.341   0.904  0.7456 -0.0603  0.0823
 3584TIP3    H132311   4.619   6.339   0.868  0.2597 -0.8223  1.2814
 3584TIP3    H232312   4.711   6.422   0.954  1.5863  1.2623 -1.9690
 3585TIP3   OH232313   2.154   2.904   7.511 -0.3863  0.3142  0.2343
 3585TIP3    H132314   2.140   2.929   7.602  2.4078 -1.0650  1.1745
 3585TIP3    H232315   2.158   2.808   7.513  2.4449  0.3024 -0.7467
 3586TIP3   OH232316   3.544   4.879   0.450  0.3470 -0.1717  0.3206
 3586TIP3    H132317   3.560   4.960   0.402 -0.3335 -0.3785 -0.2664
 3586TIP3    H232318   3.450   4.865   0.443  0.5039 -1.1983  0.1276
 3587TIP3   OH232319   3.116   5.115   2.013 -0.1367 -0.5811 -0.0596
 3587TIP3    H132320   3.127   5.159   2.097 -0.4805 -0.0849 -0.2693
 3587TIP3    H232321   3.205   5.091   1.987  0.1314  0.5788 -0.2517
 3588TIP3   OH232322   2.357   0.890   8.335 -0.1243 -0.3675  0.3640
 3588TIP3    H132323   2.364   0.964   8.275 -1.2986 -1.1375 -0.8105
 3588TIP3    H232324   2.265   0.863   8.329 -0.4575 -0.0934  3.0378
 3589TIP3   OH232325   0.949   2.918   7.221  0.8099 -0.3594 -0.1411
 3589TIP3    H132326   1.043   2.901   7.234  0.9500 -0.6288 -1.3747
 3589TIP3    H232327   0.922   2.854   7.156 -0.1698 -0.0640 -0.0407
 3590TIP3   OH232328   5.512   0.953   0.607  0.2003 -0.0100 -0.4908
 3590TIP3    H132329   5.583   0.990   0.659 -2.1320  0.7774  2.3959
 3590TIP3    H232330   5.474   1.027   0.561 -0.9226  0.2136  0.7728
 3591TIP3   OH232331   0.332   2.455   8.232 -0.0954  0.4139  0.4099
 3591TIP3    H132332   0.327   2.398   8.309  1.4872 -1.9963 -1.1246
 3591TIP3    H232333   0.255   2.431   8.180  0.3215 -0.0390 -0.0163
 3592TIP3   OH232334   6.387   0.693   1.883 -0.0878 -0.4293 -0.1796
 3592TIP3    H132335   6.396   0.725   1.973  2.7561  0.1672 -0.5861
 3592TIP3    H232336   6.335   0.761   1.839 -0.7439 -0.2906  0.7811
 3593TIP3   OH232337   1.250   6.358   2.167  0.3376 -0.2613  0.2972
 3593TIP3    H132338   1.182   6.425   2.160  0.8738  0.3245  0.6350
 3593TIP3    H232339   1.207   6.277   2.138 -0.4103  0.1595  0.2117
 3594TIP3   OH232340   5.151   4.805   0.762  0.5186  0.1698  0.1848
 3594TIP3    H132341   5.156   4.710   0.772 -0.5189  0.1094  0.2088
 3594TIP3    H232342   5.237   4.830   0.727  0.5857 -0.8474 -0.4046
 3595TIP3   OH232343   4.103   4.697   6.833  0.3483 -0.3596 -0.1469
 3595TIP3    H132344   4.051   4.711   6.754 -0.9936 -2.0356  0.3652
 3595TIP3    H232345   4.039   4.698   6.904  1.3933  0.0951  0.8086
 3596TIP3   OH232346   0.256   4.620   7.402  0.2881 -0.1891 -0.3120
 3596TIP3    H132347   0.315   4.578   7.339  0.0229  0.4435 -0.9884
 3596TIP3    H232348   0.182   4.651   7.350  0.1805  0.5650  0.2681
 3597TIP3   OH232349   2.676   3.242   2.512 -0.5518  0.5284 -0.0877
 3597TIP3    H132350   2.762   3.282   2.497  0.4224 -1.1243  0.7592
 3597TIP3    H232351   2.637   3.236   2.425 -0.5163  2.7460 -0.3114
 3598TIP3   OH232352   1.671   1.830   1.805  0.3605  0.5982 -0.5733
 3598TIP3    H132353   1.760   1.859   1.824 -0.1626  2.2423 -0.5196
 3598TIP3    H232354   1.643   1.787   1.886  0.9242  0.4901 -0.4269
 3599TIP3   OH232355   0.799   1.094   7.503 -0.4543 -0.2393  0.5465
 3599TIP3    H132356   0.886   1.103   7.465  0.6218 -2.4106  2.2913
 3599TIP3    H232357   0.784   1.178   7.548  1.0632 -0.0841  0.8167
 3600TIP3   OH232358   6.175   3.930   1.505  0.1631  0.8241 -0.0326
 3600TIP3    H132359   6.169   3.842   1.540 -1.3272  0.6630 -0.6110
 3600TIP3    H232360   6.236   3.923   1.431 -1.5075 -0.1866 -1.3595
 3601TIP3   OH232361   6.348   2.155   1.920  0.5487  0.1671 -0.3695
 3601TIP3    H132362   6.290   2.118   1.854  0.0656  3.5453 -2.0503
 3601TIP3    H232363   6.379   2.079   1.970 -3.3677 -2.0295 -0.8803
 3602TIP3   OH232364   6.741   4.868   8.554 -0.0342 -0.1875  0.4605
 3602TIP3    H132365   6.686   4.792   8.532  0.3849 -0.1671 -0.7005
 3602TIP3    H232366   6.715   4.891   8.643 -1.4620 -0.5751  0.1720
 3603TIP3   OH232367   1.745   3.635   2.229  0.1165  0.5773 -0.4720
 3603TIP3    H132368   1.827   3.618   2.184 -1.2503 -0.8955 -2.5754
 3603TIP3    H232369   1.723   3.725   2.207  0.1628  0.3131 -1.6372
 3604TIP3   OH232370   3.589   4.992   1.611  0.2077  0.5023 -0.1784
 3604TIP3    H132371   3.659   5.053   1.587 -0.2573  1.2860  0.3652
 3604TIP3    H232372   3.539   5.039   1.678  1.3753 -1.5158  2.2695
 3605TIP3   OH232373   5.128   1.730   7.660 -0.0765 -0.3739  0.0035
 3605TIP3    H132374   5.071   1.807   7.658  0.6801  0.3272  2.4363
 3605TIP3    H232375   5.169   1.728   7.574 -1.7836  0.5974 -0.8920
 3606TIP3   OH232376   5.978   1.746   1.624 -0.5227 -0.2358  0.3066
 3606TIP3    H132377   5.891   1.754   1.661  0.0471 -2.2823  2.2912
 3606TIP3    H232378   6.032   1.805   1.676 -0.2373 -1.0515  0.9593
 3607TIP3   OH232379   3.480   1.169   1.628 -0.0477 -0.1011 -0.1194
 3607TIP3    H132380   3.561   1.141   1.586 -0.4545  0.6738 -1.4811
 3607TIP3    H232381   3.491   1.263   1.641 -1.3249  0.3161 -1.7720
 3608TIP3   OH232382   2.297   1.814   2.064 -0.3909 -0.5840  0.1088
 3608TIP3    H132383   2.354   1.888   2.084 -0.3007 -0.3374 -0.9873
 3608TIP3    H232384   2.209   1.851   2.064 -0.5988 -0.9788  1.8699
 3609TIP3   OH232385   4.943   6.374   2.339 -0.0154 -0.2263 -0.2616
 3609TIP3    H132386   4.859   6.369   2.292  0.6233  0.8524 -1.6031
 3609TIP3    H232387   4.999   6.427   2.281  1.1067  0.3917  1.3342
 3610TIP3   OH232388   5.957   5.234   7.019  0.6372 -0.2817  1.1001
 3610TIP3    H132389   6.005   5.303   7.066 -0.7150  0.1527  1.9213
 3610TIP3    H232390   5.869   5.238   7.056  0.5060 -2.4445  1.1436
 3611TIP3   OH232391   5.827   0.243   7.798 -1.0711 -0.2342  0.5519
 3611TIP3    H132392   5.905   0.297   7.782  1.0828 -2.7764  1.7450
 3611TIP3    H232393   5.755   0.306   7.797  0.7884  2.1297 -1.6548
 3612TIP3   OH232394   2.306   3.559   7.667 -0.3170 -0.0044 -0.8819
 3612TIP3    H132395   2.363   3.635   7.673 -2.7807  1.9153 -0.4979
 3612TIP3    H232396   2.266   3.553   7.754 -2.2573  0.0171 -1.7370
 3613TIP3   OH232397   2.514   1.623   7.541 -0.4563 -0.4158 -0.2833
 3613TIP3    H132398   2.587   1.616   7.479 -1.2861 -2.0514 -1.1451
 3613TIP3    H232399   2.436   1.628   7.486 -1.0473  1.1792  0.6276
 3614TIP3   OH232400   4.304   5.116   7.817 -0.1682  0.0563 -0.1622
 3614TIP3    H132401   4.273   5.204   7.801  0.3305  0.4831  1.0879
 3614TIP3    H232402   4.310   5.076   7.730  0.2416  1.4684 -0.8057
 3615TIP3   OH232403   2.753   0.183   7.685 -0.1978  0.5609 -0.0463
 3615TIP3    H132404   2.769   0.186   7.590 -0.8529  0.0117 -0.1793
 3615TIP3    H232405   2.696   0.257   7.702 -2.0531 -0.6879 -0.4938
 3616TIP3   OH232406   2.107   2.865   1.683  0.0225  0.2752 -0.2772
 3616TIP3    H132407   2.152   2.931   1.735  1.4490 -0.6453 -0.2703
 3616TIP3    H232408   2.124   2.890   1.593 -0.3198  0.4825 -0.2861
 3617TIP3   OH232409   0.798   5.578   8.204  0.4866  0.9933  0.4737
 3617TIP3    H132410   0.833   5.489   8.211  1.5514  1.4222  0.8027
 3617TIP3    H232411   0.754   5.579   8.119  3.1139  0.9952 -1.0056
 3618TIP3   OH232412   5.632   1.238   0.334  0.6393  0.4066  0.1169
 3618TIP3    H132413   5.722   1.221   0.363  0.3958 -1.2967 -0.0223
 3618TIP3    H232414   5.631   1.211   0.242 -0.1250 -0.0960  0.2632
 3619TIP3   OH232415   2.294   1.054   7.945 -0.5205 -0.3223  0.3381
 3619TIP3    H132416   2.212   1.043   7.898 -0.5393  1.2336 -0.0499
 3619TIP3    H232417   2.362   1.032   7.881 -0.5613  1.3444 -0.3152
 3620TIP3   OH232418   4.093   3.058   1.060 -0.5147  0.2057  0.3577
 3620TIP3    H132419   4.085   3.117   0.985  1.3721  2.0527  1.4948
 3620TIP3    H232420   4.101   3.116   1.135 -1.2742 -1.5793  1.8829
 3621TIP3   OH232421   4.564   0.407   2.508  0.3359  0.5507  0.0711
 3621TIP3    H132422   4.472   0.427   2.525 -0.0457 -1.8731  1.3590
 3621TIP3    H232423   4.609   0.427   2.590  0.4887 -0.5234  0.2751
 3622TIP3   OH232424   2.043   3.317   0.141 -0.0896  0.0958 -0.1466
 3622TIP3    H132425   1.954   3.307   0.106 -0.7499  0.3290  1.4108
 3622TIP3    H232426   2.031   3.353   0.229  1.5899  0.8122 -0.1741
 3623TIP3   OH232427   0.475   4.970   3.003  0.5138  0.0080 -0.0340
 3623TIP3    H132428   0.469   4.877   2.981  1.7480 -0.1614  0.2604
 3623TIP3    H232429   0.566   4.982   3.032 -0.1155  0.9004  1.7223
 3624TIP3   OH232430   3.786   4.899   0.791  0.1812 -0.4106  0.2191
 3624TIP3    H132431   3.757   4.916   0.881  2.7139 -0.0992  1.0462
 3624TIP3    H232432   3.875   4.867   0.801  0.4361 -0.5802 -2.2061
 3625TIP3   OH232433   3.696   5.530   3.050 -0.0199 -0.2255  0.1555
 3625TIP3    H132434   3.786   5.539   3.020 -0.3129 -1.4820 -1.2160
 3625TIP3    H232435   3.683   5.436   3.059 -1.1416 -0.0518  0.5616
 3626TIP3   OH232436   5.801   1.128   1.880 -1.1234  0.2059  0.0095
 3626TIP3    H132437   5.804   1.210   1.832  0.1649  0.5334  0.5951
 3626TIP3    H232438   5.795   1.154   1.972  0.3336 -0.2893  0.2804
 3627TIP3   OH232439   1.943   4.354   1.375  0.6326  0.4235  0.0037
 3627TIP3    H132440   2.001   4.430   1.370  0.5455  0.5175  0.3765
 3627TIP3    H232441   1.859   4.386   1.342  0.5784  0.5083  0.2220
 3628TIP3   OH232442   5.534   0.569   7.288 -0.2349  0.4715 -0.7690
 3628TIP3    H132443   5.462   0.627   7.313 -0.1992  0.6415 -1.0690
 3628TIP3    H232444   5.505   0.482   7.318  0.4902  0.8965  1.3309
 3629TIP3   OH232445   4.890   6.833   0.254 -0.1913 -0.4741 -0.1211
 3629TIP3    H132446   4.975   6.863   0.223 -0.5551  0.9689  0.1856
 3629TIP3    H232447   4.910   6.773   0.326  0.5739  0.6695  0.6520
 3630TIP3   OH232448   3.379   1.051   8.131  0.1894 -0.0573  0.0079
 3630TIP3    H132449   3.416   0.970   8.096 -0.5107 -0.2784 -0.2589
 3630TIP3    H232450   3.372   1.109   8.056 -1.5235 -0.6102 -0.3251
 3631TIP3   OH232451   6.792   3.556   1.456  0.1717 -0.1012  0.1639
 3631TIP3    H132452   6.726   3.493   1.486 -0.8359  0.5704 -0.5639
 3631TIP3    H232453   6.851   3.566   1.531 -2.1785  1.4259  2.0051
 3632TIP3   OH232454   4.761   5.897   1.831  0.1282  0.0383 -0.1121
 3632TIP3    H132455   4.765   5.928   1.741 -0.4759 -0.4259 -0.2960
 3632TIP3    H232456   4.727   5.808   1.826 -0.0481  0.0565  0.5876
 3633TIP3   OH232457   2.710   3.565   0.078 -0.2279  0.4605  0.4376
 3633TIP3    H132458   2.795   3.521   0.075  0.5471  1.9354  0.1272
 3633TIP3    H232459   2.647   3.493   0.083  0.9492 -0.7194 -0.7587
 3634TIP3   OH232460   2.377   4.023   2.926  0.4549  0.1361  0.4896
 3634TIP3    H132461   2.430   4.016   3.005  0.6465 -0.6268  0.2997
 3634TIP3    H232462   2.434   3.990   2.856  0.5754  1.5320 -0.1008
 3635TIP3   OH232463   5.492   0.104   7.510 -0.9074 -0.4614 -0.2292
 3635TIP3    H132464   5.560   0.076   7.570 -0.7730  0.8507  0.2524
 3635TIP3    H232465   5.481   0.030   7.450  0.7021 -0.8159 -0.1228
 3636TIP3   OH232466   6.774   0.096   2.554 -0.1498  0.6418  0.4916
 3636TIP3    H132467   6.785   0.005   2.581  0.0368  0.9791  1.5993
 3636TIP3    H232468   6.769   0.092   2.458 -0.4955 -0.5635  0.5369
 3637TIP3   OH232469   5.697   5.481   7.858  0.2537  0.4362  0.7474
 3637TIP3    H132470   5.711   5.387   7.852 -1.1591  0.2723 -3.7902
 3637TIP3    H232471   5.602   5.491   7.868  0.2537  1.2946  0.1100
 3638TIP3   OH232472   1.553   2.318   1.710 -0.0592 -0.0237 -0.2683
 3638TIP3    H132473   1.544   2.333   1.805  0.1168 -1.1590 -0.0607
 3638TIP3    H232474   1.559   2.223   1.701  0.1984  0.0858 -1.4049
 3639TIP3   OH232475   1.450   1.043   0.503  0.4110 -0.1149  0.0333
 3639TIP3    H132476   1.385   1.081   0.562  0.0554 -0.3780 -0.1840
 3639TIP3    H232477   1.467   0.955   0.539  1.3282  0.2811  0.6112
 3640TIP3   OH232478   2.791   6.087   2.846  0.2421  0.5026 -0.1124
 3640TIP3    H132479   2.789   6.136   2.928 -0.1247 -0.3814  0.4190
 3640TIP3    H232480   2.781   5.995   2.872 -1.5000  0.3154 -1.2336
 3641TIP3   OH232481   0.821   2.104   2.728 -0.0777 -0.0472 -0.1309
 3641TIP3    H132482   0.828   2.176   2.790  0.9360 -0.4673  0.2705
 3641TIP3    H232483   0.727   2.093   2.714 -0.3061  0.3908  0.9327
 3642TIP3   OH232484   1.937   5.200   7.623 -0.2751  1.1487 -0.4220
 3642TIP3    H132485   1.978   5.272   7.575 -0.6079  1.7912  0.2366
 3642TIP3    H232486   1.930   5.129   7.559  2.5452  0.7076 -0.3896
 3643TIP3   OH232487   3.451   5.186   2.196  0.3252  0.3208  0.0949
 3643TIP3    H132488   3.534   5.139   2.198  1.8317  2.5419 -2.8491
 3643TIP3    H232489   3.407   5.155   2.117 -0.6759  0.7279  0.4751
 3644TIP3   OH232490   5.061   4.461   7.985 -0.1375 -0.3492 -0.1315
 3644TIP3    H132491   5.125   4.476   7.916  0.2966  2.1648  0.7317
 3644TIP3    H232492   5.092   4.382   8.030  0.2255 -1.3219 -2.0118
 3645TIP3   OH232493   4.580   1.792   6.881 -0.9462 -0.2705  0.1297
 3645TIP3    H132494   4.616   1.719   6.931 -0.4585 -0.5908 -0.6706
 3645TIP3    H232495   4.646   1.860   6.885 -1.6290  0.3509  1.3291
 3646TIP3   OH232496   3.181   3.944   2.163  0.2796  0.3134 -0.2029
 3646TIP3    H132497   3.202   3.991   2.244 -0.8143  0.9291 -0.2563
 3646TIP3    H232498   3.129   4.006   2.112  0.0319 -0.4549 -0.9055
 3647TIP3   OH232499   3.203   5.686   1.231 -0.0458 -0.4120 -0.1657
 3647TIP3    H132500   3.129   5.734   1.194 -0.1629 -0.1199  0.4372
 3647TIP3    H232501   3.192   5.693   1.325  1.3943  0.6537 -0.0433
 3648TIP3   OH232502   0.573   5.646   1.417  0.1143 -0.3027 -0.4594
 3648TIP3    H132503   0.511   5.691   1.360  0.6500 -0.0928 -0.8909
 3648TIP3    H232504   0.617   5.716   1.464  0.3899 -0.4150 -0.5458
 3649TIP3   OH232505   0.943   2.901   2.049  0.0023 -0.0305  0.5640
 3649TIP3    H132506   0.879   2.830   2.056  0.4472 -0.3624  1.2895
 3649TIP3    H232507   0.895   2.972   2.005 -0.8079 -0.3352  0.9433
 3650TIP3   OH232508   6.222   3.901   1.070  0.1792 -0.3429 -0.5729
 3650TIP3    H132509   6.148   3.865   1.120 -0.8345  0.4948 -1.3969
 3650TIP3    H232510   6.290   3.916   1.136 -1.3059  1.2520  0.7262
 3651TIP3   OH232511   3.378   4.121   0.831 -0.1849  0.0838 -0.1634
 3651TIP3    H132512   3.334   4.042   0.799 -0.8236 -0.2428  1.4197
 3651TIP3    H232513   3.316   4.192   0.814  0.2339  0.1946 -1.2533
 3652TIP3   OH232514   6.534   5.558   2.447  0.3818 -0.1382 -0.1161
 3652TIP3    H132515   6.522   5.638   2.498  0.8928 -0.3238  0.2974
 3652TIP3    H232516   6.610   5.576   2.391  1.5353 -0.9080  1.1474
 3653TIP3   OH232517   4.939   4.848   7.746 -0.1747  0.1467 -0.3195
 3653TIP3    H132518   4.866   4.788   7.727 -0.1997 -0.2338  0.8759
 3653TIP3    H232519   4.991   4.849   7.666 -1.1281 -0.1025 -0.9614
 3654TIP3   OH232520   1.293   1.220   1.301 -0.3510 -0.5194 -0.1241
 3654TIP3    H132521   1.281   1.212   1.396 -0.9990  1.7686  0.0311
 3654TIP3    H232522   1.349   1.297   1.291  0.9093 -1.5615 -1.5787
 3655TIP3   OH232523   3.275   0.287   0.095  0.4755  0.1251 -1.0505
 3655TIP3    H132524   3.335   0.339   0.041  1.6021 -1.0868 -1.0320
 3655TIP3    H232525   3.333   0.226   0.142 -0.6985 -0.3959 -0.2539
 3656TIP3   OH232526   5.523   4.073   0.925 -0.3392 -0.2423 -0.1015
 3656TIP3    H132527   5.526   3.988   0.881 -0.6340 -0.1074 -0.3883
 3656TIP3    H232528   5.515   4.137   0.854 -0.3198  0.0121  0.1215
 3657TIP3   OH232529   3.201   2.562   0.369 -0.4895  0.0271  0.0986
 3657TIP3    H132530   3.229   2.632   0.310 -2.4368  0.1889 -0.7216
 3657TIP3    H232531   3.141   2.605   0.430 -1.3493 -0.8300 -0.1249
 3658TIP3   OH232532   4.799   1.694   0.120 -0.2396 -0.7960 -0.0435
 3658TIP3    H132533   4.892   1.693   0.100 -0.6178 -1.4246 -2.0725
 3658TIP3    H232534   4.784   1.618   0.176  0.7937  0.6309  2.2744
 3659TIP3   OH232535   0.382   3.036   0.551 -0.0941  0.2578  0.6867
 3659TIP3    H132536   0.454   2.972   0.548 -1.5555 -1.4266 -0.0618
 3659TIP3    H232537   0.378   3.063   0.642  0.1570 -1.2236  1.1578
 3660TIP3   OH232538   0.887   2.681   2.471 -0.1673  0.6538  0.3534
 3660TIP3    H132539   0.899   2.605   2.414 -0.1767 -0.3134  1.5820
 3660TIP3    H232540   0.799   2.712   2.451  0.6875  1.8465 -1.8479
 3661TIP3   OH232541   1.072   3.088   2.720 -0.5898  0.0709  0.3471
 3661TIP3    H132542   1.136   3.035   2.769 -0.9391 -0.9092 -0.2355
 3661TIP3    H232543   1.043   3.154   2.783  0.4618  0.0843  0.8419
 3662TIP3   OH232544   2.073   2.712   7.234 -0.5455  0.2737  0.0836
 3662TIP3    H132545   2.001   2.759   7.277  0.1927 -0.7276  2.6182
 3662TIP3    H232546   2.030   2.646   7.180 -1.5514  0.1657  0.9754
 3663TIP3   OH232547   1.388   4.135   7.329  0.3337 -0.4483 -0.1020
 3663TIP3    H132548   1.380   4.170   7.240  2.1427  0.0335 -0.1043
 3663TIP3    H232549   1.391   4.213   7.385  1.3222 -0.6800  0.1767
 3664TIP3   OH232550   2.740   3.771   7.825  0.6845 -0.5336 -0.1572
 3664TIP3    H132551   2.834   3.768   7.805  0.8882  2.3047 -0.0268
 3664TIP3    H232552   2.731   3.843   7.887 -1.5734 -0.9377  0.0732
 3665TIP3   OH232553   2.757   1.507   0.672 -0.6182 -0.2888  0.2338
 3665TIP3    H132554   2.794   1.420   0.689  2.5433  0.5227 -1.6537
 3665TIP3    H232555   2.748   1.510   0.577 -1.0084  1.3128  0.2973
 3666TIP3   OH232556   1.285   4.855   7.650  0.1048  0.2025 -0.0448
 3666TIP3    H132557   1.260   4.873   7.559 -1.4743  1.6932  0.6216
 3666TIP3    H232558   1.234   4.778   7.674  0.9820 -0.5665 -0.5667
 3667TIP3   OH232559   4.895   6.378   7.575  0.0083  0.0550 -0.3204
 3667TIP3    H132560   4.898   6.428   7.656  0.4209 -0.2745 -0.1277
 3667TIP3    H232561   4.932   6.437   7.509  0.7294 -0.0871 -0.0446
 3668TIP3   OH232562   1.760   0.855   0.360  0.1272 -0.3113  0.8691
 3668TIP3    H132563   1.812   0.886   0.434 -1.3749  1.1544  1.3790
 3668TIP3    H232564   1.793   0.905   0.285 -1.0786  1.3212  1.3629
 3669TIP3   OH232565   0.285   4.474   8.276 -0.0204 -0.8155  0.2249
 3669TIP3    H132566   0.326   4.388   8.291 -0.9352 -1.5097 -1.0238
 3669TIP3    H232567   0.265   4.507   8.363  2.8431 -0.5887  0.8970
 3670TIP3   OH232568   2.535   3.044   7.655 -0.7790 -0.1241  0.0834
 3670TIP3    H132569   2.564   3.097   7.729 -2.2354  2.1699 -0.8775
 3670TIP3    H232570   2.592   3.070   7.583 -1.0364 -0.4202 -0.2293
 3671TIP3   OH232571   5.335   1.053   0.047  0.1182 -0.0166  0.1450
 3671TIP3    H132572   5.292   0.968   0.057 -0.2510  0.1094 -0.3580
 3671TIP3    H232573   5.266   1.117   0.060  0.3752  0.2106  0.4103
 3672TIP3   OH232574   6.819   2.910   0.675  0.2293  0.2187 -0.0715
 3672TIP3    H132575   6.800   2.969   0.748 -0.9692 -0.6876  0.3779
 3672TIP3    H232576   6.762   2.940   0.605 -2.9897 -2.3466  1.1984
 3673TIP3   OH232577   4.434   4.613   1.768 -0.5361  0.0848 -0.5008
 3673TIP3    H132578   4.374   4.552   1.809 -0.4076  0.3326  0.0601
 3673TIP3    H232579   4.416   4.697   1.810  0.3423  0.1184 -0.1744
 3674TIP3   OH232580   3.671   6.248   2.681  0.0937 -0.2675 -0.3912
 3674TIP3    H132581   3.627   6.210   2.606  0.2203  1.7237 -1.5511
 3674TIP3    H232582   3.764   6.251   2.656  0.0719  0.8540 -0.3958
 3675TIP3   OH232583   2.141   2.571   8.185 -0.4554  0.2186 -0.9629
 3675TIP3    H132584   2.169   2.601   8.098 -0.0503  0.6799 -0.6810
 3675TIP3    H232585   2.153   2.476   8.182 -0.5367  0.2203 -1.4457
 3676TIP3   OH232586   0.380   0.963   8.271  0.4199 -0.3006  0.3428
 3676TIP3    H132587   0.417   1.045   8.303 -1.3064  0.7908 -0.3114
 3676TIP3    H232588   0.289   0.984   8.250  0.0875 -2.2450 -0.4112
 3677TIP3   OH232589   2.223   0.667   2.225 -0.4550  0.1214 -0.8668
 3677TIP3    H132590   2.297   0.720   2.196 -0.9233  0.8005 -0.8392
 3677TIP3    H232591   2.204   0.697   2.313  0.1213 -1.0313 -0.3299
 3678TIP3   OH232592   4.764   0.009   1.911  0.4250  0.2228 -0.1436
 3678TIP3    H132593   4.737   0.001   1.820  0.0772 -0.7946  0.0376
 3678TIP3    H232594   4.843  -0.045   1.918 -0.0178 -0.3718  0.3432
 3679TIP3   OH232595   2.368   3.545   0.243 -0.0378  0.1709 -0.1247
 3679TIP3    H132596   2.358   3.613   0.177  1.5084  0.2619 -0.2973
 3679TIP3    H232597   2.278   3.526   0.271 -0.6670  0.7354 -1.6153
 3680TIP3   OH232598   3.997   5.986   0.332  0.2230 -0.4367 -0.3630
 3680TIP3    H132599   3.938   5.964   0.405 -1.4475  1.9589 -0.8767
 3680TIP3    H232600   4.021   5.901   0.294 -0.2606 -1.6557  1.8527
 3681TIP3   OH232601   0.738   1.742   1.806 -0.5778 -0.5272 -0.4084
 3681TIP3    H132602   0.678   1.697   1.866  0.0672  2.8019  3.1470
 3681TIP3    H232603   0.819   1.691   1.811 -1.1879 -1.5221 -0.2018
 3682TIP3   OH232604   3.161   5.990   1.127 -0.3736  0.1144  0.1031
 3682TIP3    H132605   3.141   6.012   1.218  1.1077  1.6758  0.1002
 3682TIP3    H232606   3.109   6.051   1.076 -1.8385 -1.2948 -0.1836
 3683TIP3   OH232607   3.980   0.597   6.880 -0.0195 -0.0418  0.4603
 3683TIP3    H132608   4.049   0.646   6.834 -0.6941  0.4188 -0.0857
 3683TIP3    H232609   4.024   0.519   6.913  0.6994  0.0952 -0.1472
 3684TIP3   OH232610   3.252   0.901   1.559  0.4182  0.4852 -0.4679
 3684TIP3    H132611   3.226   0.872   1.472  1.2162  1.4034 -1.0329
 3684TIP3    H232612   3.312   0.833   1.591 -1.2234 -0.7491  0.1216
 3685TIP3   OH232613   4.767   2.672   7.658 -0.6536  0.5787  0.0220
 3685TIP3    H132614   4.710   2.645   7.730 -1.5797  2.0597 -0.0984
 3685TIP3    H232615   4.816   2.747   7.693 -1.2642  1.4539 -0.9094
 3686TIP3   OH232616   1.897   5.057   7.995 -0.0061  0.2128  0.0108
 3686TIP3    H132617   1.816   5.017   8.028  0.2917 -0.1344  0.3277
 3686TIP3    H232618   1.867   5.131   7.942 -0.5137  1.1699  1.5448
 3687TIP3   OH232619   4.657   6.819   8.493  0.2074  0.7807  0.2901
 3687TIP3    H132620   4.666   6.724   8.502 -1.8565  0.4416 -0.6869
 3687TIP3    H232621   4.601   6.831   8.416  0.4042  2.7945  0.4070
 3688TIP3   OH232622   1.348   5.025   7.985 -0.0855  0.5768 -0.0958
 3688TIP3    H132623   1.394   4.977   7.916 -0.6055  1.4646 -1.0996
 3688TIP3    H232624   1.322   4.958   8.048  2.9556  0.0728  0.8063
 3689TIP3   OH232625   6.037   4.869   7.192 -0.1153  0.4435 -0.4083
 3689TIP3    H132626   5.970   4.865   7.123 -0.1257 -0.9741 -0.3404
 3689TIP3    H232627   6.094   4.794   7.175  1.2447  1.4032 -0.2216
 3690TIP3   OH232628   2.051   4.016   0.772  0.1798 -0.1003 -0.6444
 3690TIP3    H132629   2.134   4.043   0.733  0.4465 -0.2582 -0.2020
 3690TIP3    H232630   1.984   4.044   0.710  0.4779  1.0671 -0.4596
 3691TIP3   OH232631   5.841   4.276   2.248 -0.3012  0.1053  0.6363
 3691TIP3    H132632   5.783   4.323   2.188 -1.8817 -0.0007  2.0141
 3691TIP3    H232633   5.904   4.232   2.190 -1.4863  0.3511 -0.9228
 3692TIP3   OH232634   0.050   5.960   1.374 -0.6539 -0.4719  0.0746
 3692TIP3    H132635   0.018   5.899   1.441 -0.9833  0.7537  1.0759
 3692TIP3    H232636   0.103   6.022   1.423  2.5007 -1.8021 -1.3687
 3693TIP3   OH232637   0.940   6.781   0.885  0.3513  0.5847 -0.9304
 3693TIP3    H132638   0.945   6.693   0.848  1.4231 -0.1496  0.8155
 3693TIP3    H232639   0.961   6.839   0.812 -1.9660 -0.4491 -2.5231
 3694TIP3   OH232640   0.163   1.094   0.970  0.1764 -0.3807  0.0007
 3694TIP3    H132641   0.184   1.182   0.939 -1.2867  0.6636  1.8274
 3694TIP3    H232642   0.242   1.065   1.015 -0.1353  1.0523  1.5692
 3695TIP3   OH232643   1.740   0.162   2.344 -0.4176  0.0168  0.5262
 3695TIP3    H132644   1.700   0.244   2.317 -0.1440  0.1378  0.4921
 3695TIP3    H232645   1.760   0.174   2.437 -0.0211  0.1341  0.4294
 3696TIP3   OH232646   0.463   3.116   7.180 -0.0896 -0.0196 -0.1048
 3696TIP3    H132647   0.385   3.098   7.128 -0.8982 -0.1082  1.0975
 3696TIP3    H232648   0.456   3.058   7.256  1.8905 -1.0837 -0.6543
 3697TIP3   OH232649   1.105   0.793   0.071 -0.4757  0.1401 -0.3871
 3697TIP3    H132650   1.133   0.728   0.006 -0.1491 -0.0106 -0.1000
 3697TIP3    H232651   1.145   0.764   0.153 -0.0117  0.9066 -0.3269
 3698TIP3   OH232652   6.231   1.158   1.222 -0.2685  0.7700  0.1213
 3698TIP3    H132653   6.202   1.139   1.311 -0.2176  0.6318  0.1091
 3698TIP3    H232654   6.324   1.136   1.222 -0.6237 -0.8392 -0.4128
 3699TIP3   OH232655   0.459   0.110   7.192  0.5720  0.1316 -0.3262
 3699TIP3    H132656   0.460   0.169   7.117 -1.2462  0.5116 -0.0993
 3699TIP3    H232657   0.501   0.030   7.161 -1.3714 -0.2434 -2.2203
 3700TIP3   OH232658   0.887   3.159   2.449  0.8047 -0.0189  0.2719
 3700TIP3    H132659   0.834   3.097   2.397 -1.1886  0.8112  1.2049
 3700TIP3    H232660   0.883   3.241   2.399  1.0700  0.0896  0.4324
 3701TIP3   OH232661   4.157   6.185   1.207  0.1666  0.1214  0.0273
 3701TIP3    H132662   4.063   6.204   1.212 -0.3246 -2.1962  0.4389
 3701TIP3    H232663   4.171   6.112   1.267  2.2583  0.4237 -0.0088
 3702TIP3   OH232664   2.533   3.926   1.977 -0.3587 -0.5728  0.6087
 3702TIP3    H132665   2.552   3.875   1.899 -2.4585  1.4243 -1.3779
 3702TIP3    H232666   2.612   3.978   1.993 -0.7963  1.0388 -1.9695
 3703TIP3   OH232667   1.051   5.227   1.681  0.1910 -0.1726  1.1537
 3703TIP3    H132668   1.004   5.297   1.636  2.2091  2.3627  2.7196
 3703TIP3    H232669   0.981   5.173   1.719 -1.4807 -0.4374 -1.9253
 3704TIP3   OH232670   2.394   3.657   0.002 -0.2498 -0.5002 -0.2227
 3704TIP3    H132671   2.312   3.612  -0.020  0.2024 -0.6348 -1.7826
 3704TIP3    H232672   2.452   3.639  -0.072  1.7204 -1.6302  1.4778
 3705TIP3   OH232673   5.663   3.795   1.768  0.7920  0.1674 -0.9202
 3705TIP3    H132674   5.730   3.769   1.831 -0.3327  1.2301  0.7972
 3705TIP3    H232675   5.690   3.883   1.740  0.9839 -0.0729 -1.5009
 3706TIP3   OH232676   3.151   6.676   1.309 -0.1511  0.5023  1.0813
 3706TIP3    H132677   3.237   6.692   1.270 -0.4680  1.3485  0.6994
 3706TIP3    H232678   3.167   6.611   1.377  0.5694 -0.3510  0.1385
 3707TIP3   OH232679   3.972   3.317   1.244  0.1094  0.8659  0.3652
 3707TIP3    H132680   3.901   3.350   1.188  1.2487 -1.5983 -2.8755
 3707TIP3    H232681   4.051   3.360   1.210  0.8720 -0.9212 -0.2427
 3708TIP3   OH232682   1.528   4.954   1.536 -0.6293  0.5269  0.4968
 3708TIP3    H132683   1.557   5.018   1.602 -2.1043  1.3696  0.3845
 3708TIP3    H232684   1.446   4.990   1.504 -0.9748 -0.9413 -0.3231
 3709TIP3   OH232685   4.453   6.872   3.272 -0.9159 -0.1662  0.3411
 3709TIP3    H132686   4.443   6.788   3.316 -0.7968  0.1705  1.0334
 3709TIP3    H232687   4.391   6.868   3.199 -1.1180 -0.7433  0.5365
 3710TIP3   OH232688   5.480   2.348   1.721  0.4737 -0.4932  0.7052
 3710TIP3    H132689   5.485   2.436   1.684 -0.0603 -0.0226  1.7003
 3710TIP3    H232690   5.559   2.340   1.774  0.9672 -0.9622 -0.0797
 3711TIP3   OH232691   4.793   0.149   1.169  0.6491 -0.3056 -0.4974
 3711TIP3    H132692   4.701   0.128   1.152  0.7014 -0.3682 -0.7057
 3711TIP3    H232693   4.793   0.242   1.192  0.6771 -0.0005 -1.6725
 3712TIP3   OH232694   0.321   2.332   2.257  0.1260  0.2969  0.3075
 3712TIP3    H132695   0.382   2.403   2.273  1.2118 -0.8600  1.5118
 3712TIP3    H232696   0.324   2.319   2.162  3.0171 -0.7465  0.4377
 3713TIP3   OH232697   6.575   2.522   0.762  0.0374  0.3947 -0.3841
 3713TIP3    H132698   6.486   2.555   0.759  0.3313  1.2498  0.0238
 3713TIP3    H232699   6.576   2.450   0.699 -1.3185 -0.5991  0.6834
 3714TIP3   OH232700   6.207   1.143   0.919  0.0160  0.1454  0.1100
 3714TIP3    H132701   6.147   1.197   0.972 -1.0341 -0.2399 -0.6495
 3714TIP3    H232702   6.265   1.102   0.983  0.1228  1.3044  0.7885
 3715TIP3   OH232703   5.041   2.306   0.857  0.9890  0.2811 -0.1309
 3715TIP3    H132704   5.049   2.343   0.945  1.9757 -1.6008  0.6138
 3715TIP3    H232705   4.949   2.283   0.848  0.3567  2.6232 -0.5641
 3716TIP3   OH232706   6.778   4.392   1.871 -0.1955 -0.1760 -0.8743
 3716TIP3    H132707   6.853   4.404   1.929 -0.9390  0.2449  0.0263
 3716TIP3    H232708   6.807   4.428   1.787  0.1220  1.3748 -0.1421
 3717TIP3   OH232709   0.422   2.457   2.039 -0.1431  0.1264  0.0698
 3717TIP3    H132710   0.511   2.453   2.005  0.2589  2.9071  0.6131
 3717TIP3    H232711   0.430   2.499   2.125 -1.7687 -1.5859  1.1513
 3718TIP3   OH232712   4.621   3.035   1.598  0.5676  0.5356 -0.1881
 3718TIP3    H132713   4.528   3.058   1.596  0.2794 -0.5762 -2.1019
 3718TIP3    H232714   4.643   3.032   1.691 -1.0166  1.8718  0.2867
 3719TIP3   OH232715   6.157   5.877   7.541  0.6371  0.0537 -0.7374
 3719TIP3    H132716   6.128   5.801   7.592 -0.2872  1.0768  0.3511
 3719TIP3    H232717   6.252   5.879   7.552  0.4267  0.6750  1.7039
 3720TIP3   OH232718   0.686   3.008   0.309 -0.4116 -0.5372  0.2278
 3720TIP3    H132719   0.630   2.946   0.263  0.6718 -0.9252 -0.6130
 3720TIP3    H232720   0.645   3.093   0.296 -0.1594 -0.6465 -1.4456
 3721TIP3   OH232721   0.877   6.140   1.582  0.6487 -0.2111  0.1584
 3721TIP3    H132722   0.864   6.070   1.519  0.7581  0.7030 -0.9027
 3721TIP3    H232723   0.788   6.169   1.603  0.6529  0.5046 -0.7624
 3722TIP3   OH232724   3.431   0.654   8.193 -0.2925  0.1315 -0.6372
 3722TIP3    H132725   3.356   0.598   8.175 -0.6381  0.7501 -1.1925
 3722TIP3    H232726   3.413   0.692   8.279 -0.9211  0.7258 -1.0148
 3723TIP3   OH232727   3.098   4.528   1.542 -0.2818 -0.0378  0.1629
 3723TIP3    H132728   3.165   4.505   1.477  1.4533  0.3143  1.7292
 3723TIP3    H232729   3.023   4.473   1.519  0.8412 -1.1116 -1.1640
 3724TIP3   OH232730   0.995   1.577   0.335 -0.2163  0.3822 -0.4300
 3724TIP3    H132731   0.930   1.531   0.281 -1.0759  1.3397 -0.2293
 3724TIP3    H232732   1.046   1.629   0.273 -1.2777  1.5720 -0.3450
 3725TIP3   OH232733   1.154   4.002   0.727  0.2671  0.4667 -0.2242
 3725TIP3    H132734   1.082   3.942   0.747 -1.1310  2.5127  1.2877
 3725TIP3    H232735   1.231   3.962   0.766 -0.5878 -0.4533  0.5610
 3726TIP3   OH232736   4.923   5.122   7.199  0.1605 -0.3601  0.1042
 3726TIP3    H132737   4.852   5.164   7.151 -0.3421  0.8801  1.8169
 3726TIP3    H232738   4.888   5.038   7.227 -0.3778 -0.0759  0.2992
 3727TIP3   OH232739   1.024   0.831   2.048 -0.5079 -0.3093  0.4534
 3727TIP3    H132740   1.070   0.915   2.060  0.7070 -1.0401  1.0412
 3727TIP3    H232741   1.046   0.780   2.125  0.0751 -1.7840 -0.6454
 3728TIP3   OH232742   0.197   1.453   7.711 -1.0780  0.4379 -0.4144
 3728TIP3    H132743   0.272   1.395   7.725 -0.5223  1.2412  0.0194
 3728TIP3    H232744   0.156   1.420   7.632 -0.5282 -0.2900 -0.4099
 3729TIP3   OH232745   5.677   0.508   1.380 -0.9299 -1.0966  0.0988
 3729TIP3    H132746   5.690   0.521   1.474  0.2266 -0.3139 -0.1531
 3729TIP3    H232747   5.582   0.505   1.370 -1.1514  1.0943  1.0247
 3730TIP3   OH232748   4.370   2.103   0.235 -0.2822 -0.1361  0.4347
 3730TIP3    H132749   4.380   2.188   0.277  1.1536 -0.0729  0.0251
 3730TIP3    H232750   4.322   2.050   0.299 -0.3510  0.6906  1.0858
 3731TIP3   OH232751   1.480   6.856   1.587 -0.4730 -0.1212  0.1735
 3731TIP3    H132752   1.445   6.932   1.541 -1.2326 -0.4894  0.1248
 3731TIP3    H232753   1.571   6.879   1.607 -1.4149  1.9718  2.6523
 3732TIP3   OH232754   3.629   5.094   7.032  0.2503  0.1708  1.2270
 3732TIP3    H132755   3.537   5.076   7.049  0.3395 -1.4601  0.2944
 3732TIP3    H232756   3.670   5.007   7.028  1.5835  0.7920  0.3888
 3733TIP3   OH232757   0.897   4.899   1.392 -0.0573  0.0676  0.0973
 3733TIP3    H132758   0.932   4.891   1.481  0.7904 -0.2666 -0.2526
 3733TIP3    H232759   0.804   4.878   1.401 -0.0778  0.4684  0.9715
 3734TIP3   OH232760   0.385   4.737   1.117 -0.5748  0.0851  0.0533
 3734TIP3    H132761   0.460   4.682   1.140 -2.2923 -2.4689 -0.0779
 3734TIP3    H232762   0.398   4.817   1.169  1.0500 -1.2190  1.8149
 3735TIP3   OH232763   0.484   6.187   7.284 -0.5327 -0.1459  0.0421
 3735TIP3    H132764   0.574   6.181   7.317 -0.1084 -0.9804 -1.1912
 3735TIP3    H232765   0.467   6.101   7.246 -1.4177  0.4031 -0.8403
 3736TIP3   OH232766   3.796   0.179   6.920 -0.0724 -0.4497 -0.1751
 3736TIP3    H132767   3.712   0.141   6.896 -1.3507  1.4479  1.0359
 3736TIP3    H232768   3.829   0.218   6.839 -0.8808 -0.3058 -0.4391
 3737TIP3   OH232769   0.426   5.774   1.236  0.4794  0.5233 -0.3463
 3737TIP3    H132770   0.410   5.689   1.195  0.8713  0.3867 -0.2192
 3737TIP3    H232771   0.352   5.828   1.208 -0.6401 -0.3168  0.8520
 3738TIP3   OH232772   0.650   0.969   1.289 -0.4807 -0.1390 -0.4582
 3738TIP3    H132773   0.557   0.949   1.278 -0.6008 -1.4329  2.2131
 3738TIP3    H232774   0.653   1.031   1.362  0.7439  0.4382 -0.9676
 3739TIP3   OH232775   1.936   0.160   1.192  0.0988 -0.0188  0.2918
 3739TIP3    H132776   1.847   0.179   1.160  0.6206  1.0197 -0.6034
 3739TIP3    H232777   1.950   0.068   1.170 -2.3338 -1.6364  4.3234
 3740TIP3   OH232778   3.384   0.191   8.350 -0.8435  0.2624  0.3230
 3740TIP3    H132779   3.360   0.283   8.345 -0.6481  0.4020  1.6086
 3740TIP3    H232780   3.456   0.188   8.414 -0.1384 -0.6516 -0.4828
 3741TIP3   OH232781   3.148   1.503   1.568  0.4554 -0.2863 -0.6697
 3741TIP3    H132782   3.080   1.522   1.633  0.8981 -0.5196 -0.1330
 3741TIP3    H232783   3.226   1.545   1.602  0.5124  0.2435 -1.4425
 3742TIP3   OH232784   1.645   0.171   0.218 -0.1693 -0.2726 -0.3933
 3742TIP3    H132785   1.555   0.153   0.244 -0.3000  1.3461  0.4071
 3742TIP3    H232786   1.658   0.120   0.138 -1.7034 -0.7218 -0.3821
 3743TIP3   OH232787   6.578   6.068   6.628 -0.2301 -0.1285  0.4867
 3743TIP3    H132788   6.557   5.994   6.685 -0.8106 -0.8694 -0.6509
 3743TIP3    H232789   6.626   6.129   6.684 -1.1160 -0.6582  1.8527
 3744TIP3   OH232790   5.915   0.066   2.242 -0.2122  0.0583 -0.0464
 3744TIP3    H132791   5.987   0.070   2.180  0.1854  2.8250  0.5053
 3744TIP3    H232792   5.878   0.154   2.243 -3.3065 -1.0902  0.1043
 3745TIP3   OH232793   5.298   6.545   0.069  0.0304 -0.5001 -0.1610
 3745TIP3    H132794   5.285   6.458   0.031 -3.1511 -0.9323  1.6613
 3745TIP3    H232795   5.232   6.600   0.027  0.6094  0.5389  0.2441
 3746TIP3   OH232796   3.902   4.358   0.784 -0.5544 -0.2329 -0.2822
 3746TIP3    H132797   3.883   4.451   0.792 -2.7186 -0.6831  0.4367
 3746TIP3    H232798   3.820   4.314   0.807  0.6927 -2.3585  0.4053
 3747TIP3   OH232799   5.650   0.864   0.401 -0.0020  0.3151 -0.5193
 3747TIP3    H132800   5.589   0.872   0.474 -2.2218 -1.2776 -2.0642
 3747TIP3    H232801   5.715   0.933   0.416  0.1966 -0.5030  3.3872
 3748TIP3   OH232802   5.795   2.648   0.846 -0.2169 -0.4073 -0.4693
 3748TIP3    H132803   5.751   2.593   0.912 -0.4370 -0.6131 -0.7866
 3748TIP3    H232804   5.798   2.735   0.886 -2.0506 -0.0954 -0.9403
 3749TIP3   OH232805   0.099   2.094   1.699  0.3338  0.5210  0.0010
 3749TIP3    H132806   0.024   2.147   1.672 -1.3887 -1.8963 -0.2683
 3749TIP3    H232807   0.076   2.060   1.786  0.4523 -1.3152 -0.6305
 3750TIP3   OH232808   1.241   4.552   0.320 -0.3138  0.5226 -0.1041
 3750TIP3    H132809   1.266   4.471   0.365 -1.6367 -0.5519 -1.1980
 3750TIP3    H232810   1.305   4.617   0.349  2.3526 -1.5091 -1.1497
 3751TIP3   OH232811   3.678   4.195   0.788 -0.2215  0.0124 -0.5389
 3751TIP3    H132812   3.707   4.111   0.753 -1.7089 -0.2820 -1.1341
 3751TIP3    H232813   3.585   4.183   0.806  0.1603  0.5572  2.3548
 3752TIP3   OH232814   3.259   4.925   8.092  0.4300  0.1500 -0.1811
 3752TIP3    H132815   3.227   4.945   8.180 -1.7302  0.5937 -1.0013
 3752TIP3    H232816   3.350   4.900   8.105 -0.1272 -0.9148  2.3252
 3753TIP3   OH232817   4.138   1.454   2.150  0.1650  0.2173  0.1504
 3753TIP3    H132818   4.092   1.377   2.116 -0.8688  0.1275  1.6272
 3753TIP3    H232819   4.224   1.421   2.175  0.4924  0.0269 -1.1835
 3754TIP3   OH232820   0.680   1.378   7.403  0.1995 -0.4437  0.7436
 3754TIP3    H132821   0.734   1.394   7.326  0.0078 -0.0265  0.6928
 3754TIP3    H232822   0.597   1.347   7.368 -0.3810  1.0811  0.6964
 3755TIP3   OH232823   4.047   1.181   7.345  0.5415  0.3898 -0.0748
 3755TIP3    H132824   4.023   1.172   7.253 -1.6302  0.0781  0.4605
 3755TIP3    H232825   4.033   1.094   7.382  2.2417  0.2841  0.4103
 3756TIP3   OH232826   6.393   3.137   0.507 -0.0192 -0.1323 -0.1289
 3756TIP3    H132827   6.378   3.224   0.544  1.3871 -0.1899  0.6477
 3756TIP3    H232828   6.430   3.154   0.420  1.5560  0.1051  0.5519
 3757TIP3   OH232829   1.525   6.095   2.774 -0.2010  0.0541 -0.1217
 3757TIP3    H132830   1.574   6.098   2.856  0.4185  0.7030 -0.5032
 3757TIP3    H232831   1.574   6.151   2.714  0.4111 -1.8735 -1.5307
 3758TIP3   OH232832   2.538   5.651   0.102 -0.1737  0.1843 -0.0968
 3758TIP3    H132833   2.469   5.706   0.066 -0.7327 -1.0883 -1.0339
 3758TIP3    H232834   2.530   5.662   0.197  0.1309  2.1607 -0.2709
 3759TIP3   OH232835   2.639   3.055   2.718  0.4033 -0.2160 -0.2299
 3759TIP3    H132836   2.677   3.113   2.653  3.0011 -0.6897  0.7607
 3759TIP3    H232837   2.612   3.114   2.789  0.5434  0.0165 -0.3689
 3760TIP3   OH232838   4.310   4.000   7.570 -0.8584  0.4647 -0.7279
 3760TIP3    H132839   4.245   4.036   7.510 -3.3528 -0.7649  1.0516
 3760TIP3    H232840   4.325   4.071   7.633 -1.1773  0.4559 -0.6387
 3761TIP3   OH232841   6.790   0.805   1.815 -0.4759  0.0344 -0.0825
 3761TIP3    H132842   6.858   0.755   1.769 -0.0730  0.7144 -0.2554
 3761TIP3    H232843   6.811   0.794   1.908  0.3854  0.8857 -0.1467
 3762TIP3   OH232844   3.623   4.100   2.350 -0.0284  0.8923 -0.2719
 3762TIP3    H132845   3.537   4.131   2.379 -0.8595 -2.1673  0.9217
 3762TIP3    H232846   3.666   4.070   2.430  0.9999 -0.1371 -1.1774
 3763TIP3   OH232847   3.186   1.924   2.426 -0.4131 -1.0325  0.6682
 3763TIP3    H132848   3.261   1.948   2.371 -0.1798 -1.8960  0.5858
 3763TIP3    H232849   3.226   1.903   2.511 -0.9430  2.1457  1.8284
 3764TIP3   OH232850   0.285   3.878   0.621  0.7161  0.0273  0.1717
 3764TIP3    H132851   0.355   3.832   0.575  0.3120 -0.2920 -0.1463
 3764TIP3    H232852   0.295   3.969   0.596 -0.8285 -0.4067 -2.4170
 3765TIP3   OH232853   5.364   3.635   0.854  0.2477 -0.2240 -0.0142
 3765TIP3    H132854   5.276   3.671   0.853 -0.1118 -1.0869 -0.9330
 3765TIP3    H232855   5.421   3.709   0.874 -0.5342  0.6788 -1.0669
 3766TIP3   OH232856   6.534   6.591   2.278  0.2110  0.1061 -0.3099
 3766TIP3    H132857   6.572   6.547   2.354  0.8128 -0.6882 -1.0516
 3766TIP3    H232858   6.586   6.671   2.268  0.4978 -0.0672 -0.2139
 3767TIP3   OH232859   3.541   0.929   0.126 -0.5550  0.2835 -0.2643
 3767TIP3    H132860   3.533   0.941   0.031  1.3014 -1.0640 -0.6545
 3767TIP3    H232861   3.571   0.838   0.136  0.3166  0.7223  1.5322
 3768TIP3   OH232862   2.682   5.212   2.097  0.8424  0.1800 -0.3773
 3768TIP3    H132863   2.777   5.202   2.094  0.8428  0.4078 -1.6023
 3768TIP3    H232864   2.647   5.128   2.066  0.5251 -1.1755  3.2222
 3769TIP3   OH232865   4.442   3.595   0.172 -0.3504  0.2434  0.1083
 3769TIP3    H132866   4.431   3.673   0.227 -0.5042  0.5182 -0.3043
 3769TIP3    H232867   4.476   3.629   0.090 -3.3235  0.2994 -1.2278
 3770TIP3   OH232868   0.886   6.149   7.888  0.1212  0.0910  0.0335
 3770TIP3    H132869   0.946   6.099   7.943 -1.5725 -1.6130  0.4343
 3770TIP3    H232870   0.903   6.117   7.799 -1.5805 -2.0223  0.3841
 3771TIP3   OH232871   4.364   3.858   1.146  0.5223 -0.3979 -0.6177
 3771TIP3    H132872   4.304   3.809   1.202  0.5850  1.4226  1.1847
 3771TIP3    H232873   4.317   3.870   1.064 -1.5141  0.6848  0.6145
 3772TIP3   OH232874   1.377   4.714   2.272 -0.2583 -0.3986 -0.4661
 3772TIP3    H132875   1.282   4.699   2.272 -0.6120  1.5216 -0.3292
 3772TIP3    H232876   1.412   4.644   2.218 -1.3737 -3.0298  1.9777
 3773TIP3   OH232877   5.614   4.440   8.505 -0.2452  0.2411  0.2123
 3773TIP3    H132878   5.701   4.468   8.476 -1.1138  0.3849 -2.4993
 3773TIP3    H232879   5.595   4.363   8.452 -1.9794  0.5256  0.3644
 3774TIP3   OH232880   6.889   4.609   1.129 -0.5660  0.4997  0.0402
 3774TIP3    H132881   6.839   4.598   1.048 -1.1271  1.8961  0.1568
 3774TIP3    H232882   6.825   4.598   1.199  0.0050 -1.1613  0.3527
 3775TIP3   OH232883   2.231   3.318   7.586  0.2733 -0.7386  0.2334
 3775TIP3    H132884   2.262   3.261   7.656  0.4913  0.6372  1.3074
 3775TIP3    H232885   2.254   3.406   7.615 -0.4380 -0.0580 -1.1638
 3776TIP3   OH232886   2.806   1.578   1.946  0.2960 -0.1966  0.4177
 3776TIP3    H132887   2.764   1.507   1.994  0.6341 -0.7409 -0.0731
 3776TIP3    H232888   2.776   1.658   1.989  1.1832 -0.6812  2.0323
 3777TIP3   OH232889   2.513   4.113   1.204 -0.1447 -0.2673  0.3358
 3777TIP3    H132890   2.580   4.109   1.136 -1.6119 -0.7881 -1.1713
 3777TIP3    H232891   2.475   4.025   1.205 -1.1338  0.1425  0.7514
 3778TIP3   OH232892   4.475   5.782   7.106 -0.4074 -0.1111  0.1362
 3778TIP3    H132893   4.432   5.697   7.116 -0.2737 -0.3302 -0.9904
 3778TIP3    H232894   4.506   5.783   7.016  0.2783  0.8276  0.3617
 3779TIP3   OH232895   0.218   6.144   0.345  0.1153 -0.0279 -0.2133
 3779TIP3    H132896   0.249   6.092   0.419 -0.1604 -0.3916 -0.3516
 3779TIP3    H232897   0.133   6.177   0.373  0.3659  0.4959 -0.0583
 3780TIP3   OH232898   5.577   0.578   6.776 -0.4403 -0.2491 -0.6238
 3780TIP3    H132899   5.673   0.583   6.780 -0.4117 -1.1559  0.2420
 3780TIP3    H232900   5.551   0.556   6.865 -1.3745 -1.2394 -1.1227
 3781TIP3   OH232901   6.890   6.279   7.460  0.4447 -0.0384  0.8991
 3781TIP3    H132902   6.979   6.268   7.428 -0.0026 -0.1498 -0.3980
 3781TIP3    H232903   6.895   6.263   7.554  1.9335  0.8297  0.9890
 3782TIP3   OH232904   5.962   6.098   0.726  0.0048 -0.0636  0.3200
 3782TIP3    H132905   6.010   6.141   0.797  1.4343 -1.0839  0.0193
 3782TIP3    H232906   5.901   6.165   0.695  0.8546  1.1198  1.1014
 3783TIP3   OH232907   1.360   3.700   0.380 -0.3622  0.2312 -0.5013
 3783TIP3    H132908   1.369   3.655   0.465 -0.0249  1.2563  0.0253
 3783TIP3    H232909   1.329   3.788   0.403 -1.1622  0.2352 -1.5228
 3784TIP3   OH232910   4.735   5.911   1.366 -0.3985 -0.1446 -0.1075
 3784TIP3    H132911   4.771   5.828   1.338 -1.2441 -0.4198 -0.4073
 3784TIP3    H232912   4.804   5.975   1.348  0.2952 -0.7861  0.2227
 3785TIP3   OH232913   4.408   0.094   7.265  0.2805  0.4218  0.2377
 3785TIP3    H132914   4.352   0.100   7.187  1.9745 -2.0913 -1.3261
 3785TIP3    H232915   4.408   0.002   7.288  1.3353  0.8332  2.0928
 3786TIP3   OH232916   3.659   4.671   0.625 -0.2782  0.1052  0.1082
 3786TIP3    H132917   3.616   4.743   0.580  2.0954  2.1937  0.9479
 3786TIP3    H232918   3.718   4.633   0.559  0.6614  0.9198  0.4572
 3787TIP3   OH232919   3.396   0.403   2.153  0.0089  0.0343  0.0275
 3787TIP3    H132920   3.474   0.457   2.139  0.3448 -0.7442 -1.2320
 3787TIP3    H232921   3.367   0.426   2.241  1.2211  0.8944  0.2288
 3788TIP3   OH232922   4.787   0.003   7.248 -0.2068 -0.0043 -0.6197
 3788TIP3    H132923   4.760  -0.087   7.266 -1.8103  0.3678 -0.9887
 3788TIP3    H232924   4.831  -0.001   7.163  0.2768 -0.5271 -0.3485
 3789TIP3   OH232925   2.219   1.249   1.225  0.6330 -0.5970  0.2885
 3789TIP3    H132926   2.269   1.330   1.229  0.7173 -0.5793 -0.7131
 3789TIP3    H232927   2.281   1.185   1.189  0.2276 -0.8109 -0.0425
 3790TIP3   OH232928   1.163   5.704   3.001 -0.2254  0.7237  0.4679
 3790TIP3    H132929   1.220   5.698   2.924  0.3144  0.5146  0.8824
 3790TIP3    H232930   1.213   5.663   3.072  0.0150  2.4618  1.3511
 3791TIP3   OH232931   1.551   0.103   8.305  0.3530  0.6773  0.2262
 3791TIP3    H132932   1.552   0.018   8.260  1.7212  0.4391  0.6857
 3791TIP3    H232933   1.459   0.130   8.300  0.1849 -0.0507 -1.3608
 3792TIP3   OH232934   6.027   3.835   0.173 -0.1817  0.3257  0.0707
 3792TIP3    H132935   5.993   3.762   0.225 -0.5227  0.9323  0.7242
 3792TIP3    H232936   6.122   3.823   0.174 -0.3117 -1.5466 -2.0069
 3793TIP3   OH232937   2.643   1.989   0.050  0.2362  0.1418 -0.5423
 3793TIP3    H132938   2.738   1.996   0.059  0.2229  0.8353 -0.8380
 3793TIP3    H232939   2.617   1.929   0.120  0.8377  0.3615 -0.1125
 3794TIP3   OH232940   6.629   3.504   2.407  0.0761 -0.1607 -0.2475
 3794TIP3    H132941   6.681   3.544   2.477  0.0437 -1.8719  0.8138
 3794TIP3    H232942   6.551   3.560   2.401  1.0598  1.2455 -0.4399
 3795TIP3   OH232943   0.377   5.604   8.344  0.4650 -0.6517 -0.8261
 3795TIP3    H132944   0.464   5.644   8.343  1.3491 -2.3450  0.8449
 3795TIP3    H232945   0.373   5.553   8.263  1.3121 -1.1050 -0.5879
 3796TIP3   OH232946   3.194   4.999   2.384  0.2739 -0.2551 -0.2577
 3796TIP3    H132947   3.272   5.019   2.434  0.1027 -0.1209 -0.0428
 3796TIP3    H232948   3.191   5.065   2.315  0.0066  0.1309  0.1194
 3797TIP3   OH232949   3.161   3.591   6.909 -0.1041  0.2312  0.4323
 3797TIP3    H132950   3.146   3.518   6.968  0.1571  0.6596  1.0436
 3797TIP3    H232951   3.256   3.605   6.911 -0.0189 -0.1005 -0.5293
 3798TIP3   OH232952   3.353   5.701   6.748  0.2805  0.1581  0.0164
 3798TIP3    H132953   3.272   5.707   6.799  0.4527 -0.5664  0.3958
 3798TIP3    H232954   3.362   5.608   6.729  0.8379  0.2794 -0.3335
 3799TIP3   OH232955   2.115   4.613   2.280 -0.0896  0.1795  0.3539
 3799TIP3    H132956   2.029   4.614   2.322  0.2008  0.1551  0.9612
 3799TIP3    H232957   2.114   4.532   2.228  0.3824 -1.0545  2.1455
 3800TIP3   OH232958   0.000   3.841   7.441  0.0851 -0.2816 -0.1431
 3800TIP3    H132959   0.053   3.850   7.362  1.6220 -1.0107  0.7536
 3800TIP3    H232960   0.013   3.924   7.488  0.8905 -0.6501  0.3149
 3801TIP3   OH232961   5.314   4.518   0.601  0.3020  0.0434 -0.2233
 3801TIP3    H132962   5.359   4.598   0.628  0.8580 -0.6269  0.9011
 3801TIP3    H232963   5.274   4.485   0.681 -0.6931 -0.3406 -0.8575
 3802TIP3   OH232964   0.840   0.738   1.884 -0.1534 -0.3368  0.1295
 3802TIP3    H132965   0.786   0.815   1.865  0.5416  0.2987  0.6592
 3802TIP3    H232966   0.903   0.768   1.950  1.7729 -0.6294 -1.4777
 3803TIP3   OH232967   6.416   6.000   1.578 -0.1048  0.2411 -0.4044
 3803TIP3    H132968   6.385   6.030   1.663 -0.0230 -0.2147 -0.2120
 3803TIP3    H232969   6.510   6.018   1.579  0.0148 -0.3804 -0.1326
 3804TIP3   OH232970   1.013   5.684   0.030  0.2413 -0.0634 -0.3234
 3804TIP3    H132971   0.992   5.591   0.026 -0.9196  0.2137 -2.8672
 3804TIP3    H232972   1.017   5.704   0.123 -0.9478 -2.3377  0.2856
 3805TIP3   OH232973   1.653   3.765   1.083  0.4361 -0.5187  0.2234
 3805TIP3    H132974   1.645   3.860   1.073 -1.1974 -0.7550 -1.3598
 3805TIP3    H232975   1.711   3.739   1.011 -0.2116 -0.8371 -0.1928
 3806TIP3   OH232976   6.641   3.006   8.155  0.4779  0.1138  0.2227
 3806TIP3    H132977   6.623   2.917   8.185  1.1158 -0.5027 -1.1024
 3806TIP3    H232978   6.686   2.994   8.071  0.4311  1.6950 -0.0636
 3807TIP3   OH232979   2.345   0.283   1.435 -0.3307  0.4971  0.2652
 3807TIP3    H132980   2.323   0.375   1.446 -0.3977  0.4619  0.4189
 3807TIP3    H232981   2.330   0.243   1.521 -1.1108  0.1761 -0.0075
 3808TIP3   OH232982   1.335   2.588   0.095  0.1132  0.2316  0.1894
 3808TIP3    H132983   1.307   2.498   0.111  0.9875 -0.0391  0.2554
 3808TIP3    H232984   1.305   2.637   0.172 -3.0285  0.6693 -1.1440
 3809TIP3   OH232985   3.773   3.352   1.670  0.7802  0.1646 -0.0601
 3809TIP3    H132986   3.706   3.301   1.715  1.3290  0.5990  1.2983
 3809TIP3    H232987   3.737   3.440   1.665  0.0085 -0.1976 -2.0408
 3810TIP3   OH232988   2.963   1.976   8.014 -0.6815  0.0425  0.1659
 3810TIP3    H132989   2.930   1.919   8.084  2.4211 -3.3396 -0.8415
 3810TIP3    H232990   3.038   2.021   8.053 -0.6960  0.4090 -0.2172
 3811TIP3   OH232991   6.490   5.217   0.114  0.2245 -0.4591 -0.1374
 3811TIP3    H132992   6.547   5.204   0.190  0.7632  3.2417  0.3037
 3811TIP3    H232993   6.401   5.217   0.150  0.0532 -3.1804 -0.3446
 3812TIP3   OH232994   2.462   0.546   3.293  0.3033  0.1949  0.2548
 3812TIP3    H132995   2.484   0.622   3.239  2.4120 -1.8997 -2.1271
 3812TIP3    H232996   2.378   0.515   3.258 -0.0405  0.8053  0.5282
 3813TIP3   OH232997   2.375   3.075   7.403  0.0530 -0.0708  0.1097
 3813TIP3    H132998   2.314   3.089   7.476  0.2143 -0.3288  0.2976
 3813TIP3    H232999   2.449   3.028   7.443  0.9993  1.4113  0.1751
 3814TIP3   OH233000   6.508   5.164   8.388 -0.2175 -0.0257 -0.3972
 3814TIP3    H133001   6.492   5.151   8.482 -0.9317 -0.2743 -0.5460
 3814TIP3    H233002   6.421   5.166   8.349  0.0764  0.0532 -1.0615
 3815TIP3   OH233003   2.211   0.268   8.255 -0.4165 -0.3987 -0.0795
 3815TIP3    H133004   2.247   0.353   8.227 -1.8779 -0.2970 -1.8744
 3815TIP3    H233005   2.175   0.285   8.342  0.2194  0.5405  0.0222
 3816TIP3   OH233006   1.273   3.694   0.102  0.1255  0.1539 -0.6708
 3816TIP3    H133007   1.223   3.775   0.112 -0.3226 -0.0870 -0.9064
 3816TIP3    H233008   1.311   3.678   0.188 -0.3471  0.2457 -0.4447
 3817TIP3   OH233009   0.492   2.884   0.128  0.0015 -0.5439 -0.7421
 3817TIP3    H133010   0.482   2.807   0.183  0.2848  0.1197  0.2775
 3817TIP3    H233011   0.425   2.875   0.061 -2.2771 -0.0146  1.3395
 3818TIP3   OH233012   1.045   3.339   8.281 -0.3060  0.1875  0.3738
 3818TIP3    H133013   0.996   3.257   8.285 -1.0524  0.6471  0.8328
 3818TIP3    H233014   1.130   3.318   8.321 -0.6589 -0.2470  0.9035
 3819TIP3   OH233015   2.777   3.545   0.885 -0.0636 -0.4432 -0.0334
 3819TIP3    H133016   2.766   3.628   0.840  0.1245 -0.3097  0.1672
 3819TIP3    H233017   2.813   3.486   0.819  4.3978  0.8502  0.9527
 3820TIP3   OH233018   6.398   4.416   6.911 -0.0516  0.2626 -0.2746
 3820TIP3    H133019   6.311   4.434   6.946  0.2023  0.9167  0.0500
 3820TIP3    H233020   6.404   4.320   6.907 -1.2716  0.2115 -1.5833
 3821TIP3   OH233021   1.587   3.415   7.220 -0.3599  0.4345  0.0693
 3821TIP3    H133022   1.539   3.374   7.148 -1.0890  1.5307 -0.0762
 3821TIP3    H233023   1.679   3.407   7.195 -0.6485  1.6816 -1.4673
 3822TIP3   OH233024   2.828   4.314   1.593 -0.2527 -0.3882 -0.5371
 3822TIP3    H133025   2.752   4.343   1.541 -0.6477 -1.5159 -0.6278
 3822TIP3    H233026   2.794   4.240   1.644  0.5634 -0.3241  0.1065
 3823TIP3   OH233027   0.197   0.890   2.449 -0.1835 -0.4399 -0.2307
 3823TIP3    H133028   0.105   0.865   2.455 -0.7943  1.7198  0.4028
 3823TIP3    H233029   0.203   0.970   2.502  1.9056 -0.1560 -0.8225
 3824TIP3   OH233030   4.602   0.575   0.745  0.0758 -0.1765 -0.1168
 3824TIP3    H133031   4.585   0.484   0.768  0.9685 -0.1559  0.7222
 3824TIP3    H233032   4.608   0.620   0.830 -1.3660  0.8648 -0.5363
 3825TIP3   OH233033   5.751   2.411   7.484  0.1959  0.3210  0.2318
 3825TIP3    H133034   5.710   2.416   7.570 -1.0753  1.7425 -0.4242
 3825TIP3    H233035   5.748   2.500   7.450  2.0839  0.0940 -0.6810
 3826TIP3   OH233036   1.471   5.193   2.955  0.0641 -0.0167  0.2271
 3826TIP3    H133037   1.401   5.229   3.008 -1.3568 -0.6089 -1.1561
 3826TIP3    H233038   1.509   5.268   2.910 -0.4560  0.1972  0.1350
 3827TIP3   OH233039   1.210   6.295   1.833 -0.6253  0.5110 -0.0826
 3827TIP3    H133040   1.230   6.296   1.739  0.0523  1.0222  0.0613
 3827TIP3    H233041   1.268   6.227   1.868 -0.3188  0.8604  0.0856
 3828TIP3   OH233042   6.759   2.341   2.389 -0.6895 -0.2865  0.2267
 3828TIP3    H133043   6.736   2.403   2.458 -0.0037  0.3305 -0.0898
 3828TIP3    H233044   6.713   2.374   2.312  1.5552  1.2605 -0.5470
 3829TIP3   OH233045   5.243   1.891   7.073 -0.2650  0.1124  0.4910
 3829TIP3    H133046   5.318   1.951   7.065  0.5973 -1.1584 -2.9287
 3829TIP3    H233047   5.170   1.939   7.035  0.5938 -1.0320 -2.9634
 3830TIP3   OH233048   2.008   1.729   1.256 -0.1457  1.0128  1.0785
 3830TIP3    H133049   1.959   1.762   1.332 -1.3351  0.6433  0.4871
 3830TIP3    H233050   1.950   1.665   1.216  1.2212 -0.1349  0.8854
 3831TIP3   OH233051   4.263   4.436   0.009  0.0498  0.0909 -0.5068
 3831TIP3    H133052   4.302   4.360  -0.032 -0.4089  0.2636 -1.2694
 3831TIP3    H233053   4.214   4.401   0.084  0.2818 -0.2985 -0.5374
 3832TIP3   OH233054   6.536   3.339   1.383  0.0789 -0.6952  0.5831
 3832TIP3    H133055   6.541   3.404   1.313  0.0279 -1.8176 -0.4895
 3832TIP3    H233056   6.443   3.336   1.406  0.0435 -0.5664  0.4609
 3833TIP3   OH233057   4.133   0.498   0.210  0.1316 -0.0692  0.2123
 3833TIP3    H133058   4.064   0.565   0.212 -1.0504 -1.2410  2.8384
 3833TIP3    H233059   4.129   0.463   0.121 -1.6587  0.9390 -0.1556
 3834TIP3   OH233060   4.448   0.630   7.018 -0.3384 -0.0600 -0.3971
 3834TIP3    H133061   4.488   0.696   6.962  0.1882 -0.5986 -0.6681
 3834TIP3    H233062   4.371   0.600   6.969  0.3006 -0.7641 -1.0059
 3835TIP3   OH233063   3.620   6.242   0.880  0.2232  0.0059  0.7224
 3835TIP3    H133064   3.701   6.273   0.921  0.5883 -0.0742  0.0778
 3835TIP3    H233065   3.637   6.249   0.786 -1.3123  2.0976  0.5265
 3836TIP3   OH233066   6.759   1.445   1.102  0.4392  0.7411  0.1537
 3836TIP3    H133067   6.694   1.377   1.121  1.2144 -0.1072 -0.1680
 3836TIP3    H233068   6.749   1.461   1.008  0.8488  0.4383  0.0569
 3837TIP3   OH233069   0.736   3.158   2.686  0.1647  0.0295  0.0934
 3837TIP3    H133070   0.806   3.139   2.748 -0.7412  0.0366  1.1444
 3837TIP3    H233071   0.780   3.165   2.601  1.3314 -0.6763  0.6209
 3838TIP3   OH233072   3.092   3.370   1.570  0.1635 -0.2714  0.1654
 3838TIP3    H133073   3.122   3.456   1.542 -1.5338  0.2397 -0.1584
 3838TIP3    H233074   3.159   3.341   1.633  1.6317  0.5320 -0.9617
 3839TIP3   OH233075   1.251   6.443   0.231 -1.2292  0.7254 -0.5483
 3839TIP3    H133076   1.156   6.455   0.227 -1.6023 -0.6434  2.1995
 3839TIP3    H233077   1.282   6.516   0.285 -0.9711  0.1714  0.0596
 3840TIP3   OH233078   3.057   3.527   6.684 -0.3892 -0.1361 -0.3846
 3840TIP3    H133079   2.966   3.557   6.688 -0.1863  0.4105  0.6970
 3840TIP3    H233080   3.097   3.563   6.763  0.9431  0.1800 -1.1774
 3841TIP3   OH233081   4.181   1.573   2.542 -0.2812  0.5701  0.2227
 3841TIP3    H133082   4.140   1.654   2.573  0.1960 -0.0122  2.6091
 3841TIP3    H233083   4.113   1.531   2.489 -0.0441  3.1404 -2.3972
 3842TIP3   OH233084   2.495   1.227   0.134 -0.2192 -0.0749  0.0781
 3842TIP3    H133085   2.460   1.212   0.046 -0.4461 -1.8799  0.4332
 3842TIP3    H233086   2.419   1.258   0.185 -0.1915  0.5396 -0.2531
 3843TIP3   OH233087   4.451   6.338   1.264  0.3821  0.3283 -0.0388
 3843TIP3    H133088   4.430   6.417   1.214 -1.4653  0.5113  0.9365
 3843TIP3    H233089   4.395   6.270   1.225 -0.2029  0.2022  1.0037
 3844TIP3   OH233090   0.264   5.973   7.246 -0.1435  0.3856 -0.1597
 3844TIP3    H133091   0.243   6.057   7.206 -0.8265  1.2837  1.9314
 3844TIP3    H233092   0.185   5.920   7.234 -0.9443  1.1899  1.2441
 3845TIP3   OH233093   3.170   2.668   2.540 -0.1727  0.2869  0.2008
 3845TIP3    H133094   3.167   2.750   2.491  1.0196 -1.4550 -3.1451
 3845TIP3    H233095   3.078   2.642   2.549 -0.4963 -0.3555 -3.3539
 3846TIP3   OH233096   0.018   1.690   2.070  0.0547 -0.4246 -0.1653
 3846TIP3    H133097  -0.022   1.605   2.085 -0.2769 -0.2510 -0.0662
 3846TIP3    H233098  -0.048   1.741   2.023 -0.1685  0.1346  0.7206
 3847TIP3   OH233099   4.281   5.557   7.195 -0.3580 -0.0465  0.2361
 3847TIP3    H133100   4.267   5.577   7.288 -0.9984  0.8421 -0.0397
 3847TIP3    H233101   4.205   5.593   7.151 -1.3881 -2.7537 -0.3901
 3848TIP3   OH233102   6.456   1.704   1.332  0.2746 -0.4490  0.2876
 3848TIP3    H133103   6.407   1.700   1.414 -1.1320  1.0843 -0.4098
 3848TIP3    H233104   6.420   1.634   1.279 -0.4697  0.0111  0.1651
 3849TIP3   OH233105   3.001   6.836   1.130 -0.4296  0.0203  0.1062
 3849TIP3    H133106   3.043   6.921   1.146 -0.0179 -0.0555 -0.5387
 3849TIP3    H233107   3.053   6.774   1.181 -0.8104  0.1723  0.6823
 3850TIP3   OH233108   6.385   6.334   0.705  0.3344  0.3694 -0.0766
 3850TIP3    H133109   6.330   6.259   0.679  0.1000  1.0062 -1.5519
 3850TIP3    H233110   6.438   6.301   0.777 -0.2454 -1.0190 -0.2503
 3851TIP3   OH233111   3.585   6.134   2.419  0.0581  0.1569 -0.1657
 3851TIP3    H133112   3.626   6.084   2.349  0.2418  1.2687 -0.8823
 3851TIP3    H233113   3.558   6.216   2.377 -3.7399 -0.8181 -0.0101
 3852TIP3   OH233114   4.449   2.033   0.979  0.2221 -0.7189  0.3357
 3852TIP3    H133115   4.442   2.094   0.905 -0.4476 -1.3329 -0.1149
 3852TIP3    H233116   4.512   1.967   0.949 -2.1003 -2.5497 -0.8594
 3853TIP3   OH233117   6.423   3.688   1.569  0.0829 -0.1718  0.5098
 3853TIP3    H133118   6.495   3.750   1.581 -0.1935  0.1377  0.5730
 3853TIP3    H233119   6.435   3.655   1.480  1.8365 -2.0994  1.3845
 3854TIP3   OH233120   1.825   1.303   0.084  0.3895  0.2098  0.0445
 3854TIP3    H133121   1.790   1.366   0.021  0.8050 -1.3720 -1.8862
 3854TIP3    H233122   1.798   1.336   0.169 -3.1938  0.6665 -1.1266
 3855TIP3   OH233123   1.820   3.000   0.355  0.1569  0.0542  0.3473
 3855TIP3    H133124   1.907   2.963   0.339  0.5123  0.2343  1.7156
 3855TIP3    H233125   1.772   2.985   0.274  0.9288 -1.5861  0.1488
 3856TIP3   OH233126   6.583   6.001   0.202 -0.0691  0.0538  0.0641
 3856TIP3    H133127   6.548   6.049   0.127 -1.1533  0.4104  0.7814
 3856TIP3    H233128   6.539   5.916   0.198  2.0516 -1.0735 -1.3684
 3857TIP3   OH233129   5.113   3.924   1.018  0.0225  0.2733 -0.0214
 3857TIP3    H133130   5.095   3.983   0.944  0.8210 -0.1103 -0.5326
 3857TIP3    H233131   5.088   3.837   0.986 -3.9666  0.5562  1.6843
 3858TIP3   OH233132   5.900   1.458   0.037  0.1985 -0.2050  0.6383
 3858TIP3    H133133   5.992   1.469   0.063  0.1853 -0.6604  0.8854
 3858TIP3    H233134   5.853   1.447   0.119 -0.0093 -0.4646  0.4871
 3859TIP3   OH233135   6.483   0.545   0.969 -0.1739 -0.2145 -0.3082
 3859TIP3    H133136   6.491   0.521   1.062  2.9933  2.0547  0.1661
 3859TIP3    H233137   6.549   0.492   0.925  0.4749  0.8964 -0.7101
 3860TIP3   OH233138   0.633   0.095   7.679 -0.6646 -0.1512 -0.0831
 3860TIP3    H133139   0.607   0.137   7.597 -2.1637  1.2930  1.0561
 3860TIP3    H233140   0.649   0.168   7.738  0.0397 -1.1723  1.0235
 3861TIP3   OH233141   1.353   3.653   1.428 -0.8894 -0.0495  0.1301
 3861TIP3    H133142   1.312   3.568   1.413 -3.6535  0.6168  2.7407
 3861TIP3    H233143   1.334   3.704   1.350 -0.7882 -1.2639 -0.7029
 3862TIP3   OH233144   0.071   0.945   0.494 -0.1440  0.5217 -0.1295
 3862TIP3    H133145   0.060   0.906   0.407 -2.5837  2.2541 -0.7173
 3862TIP3    H233146   0.034   0.881   0.554  1.4645 -0.6453 -0.3450
 3863TIP3   OH233147   5.574   1.197   0.051 -0.2069 -0.1084 -0.3956
 3863TIP3    H133148   5.526   1.279   0.046  0.4289  0.2376 -1.1425
 3863TIP3    H233149   5.506   1.130   0.057 -0.7178  0.4989  1.0191
 3864TIP3   OH233150   6.806   6.560   8.418 -0.0487  0.2968 -0.8246
 3864TIP3    H133151   6.852   6.535   8.337 -3.7594 -2.1527 -2.4271
 3864TIP3    H233152   6.731   6.610   8.388 -0.7150  0.6203  1.2820
 3865TIP3   OH233153   4.576   6.220   6.933  0.1694 -0.1959  0.1273
 3865TIP3    H133154   4.579   6.287   6.865  3.6062  0.8379  1.0586
 3865TIP3    H233155   4.626   6.147   6.896 -3.5899 -2.4795 -0.9121
 3866TIP3   OH233156   5.611   5.898   7.619  0.1986  0.5402  0.1393
 3866TIP3    H133157   5.544   5.866   7.558  0.2900 -0.3743  0.5080
 3866TIP3    H233158   5.582   5.868   7.705  1.4899 -0.6196  0.2125
 3867TIP3   OH233159   6.585   1.394   7.564 -0.0075  0.2971 -0.1986
 3867TIP3    H133160   6.504   1.443   7.553 -0.5733 -0.6869 -0.5150
 3867TIP3    H233161   6.601   1.354   7.479  1.0532  0.8149 -0.2620
 3868TIP3   OH233162   5.463   1.372   2.741  0.5060 -0.4346 -0.7472
 3868TIP3    H133163   5.442   1.461   2.715  0.2067 -0.3547 -0.2532
 3868TIP3    H233164   5.380   1.336   2.774  0.3023 -1.3374 -2.1559
 3869TIP3   OH233165   0.513   4.049   8.505  0.3112  0.5106 -0.1444
 3869TIP3    H133166   0.599   4.081   8.531 -0.3641  1.4357  1.0564
 3869TIP3    H233167   0.526   4.016   8.416  1.4691  2.4268 -0.7427
 3870TIP3   OH233168   3.703   1.094   0.443 -0.0220  0.5888 -0.8325
 3870TIP3    H133169   3.740   1.079   0.356 -0.6513  1.0712 -1.1898
 3870TIP3    H233170   3.765   1.053   0.502  0.9131  1.0902 -1.4381
 3871TIP3   OH233171   0.477   6.311   1.382 -0.2488  0.2250  0.4404
 3871TIP3    H133172   0.505   6.237   1.329  2.3597  2.3224 -1.3629
 3871TIP3    H233173   0.414   6.358   1.327  0.3020  0.8839  0.3687
 3872TIP3   OH233174   3.441   2.499   7.514 -0.2674 -0.4344 -0.1866
 3872TIP3    H133175   3.366   2.521   7.570  1.4811  0.5285  1.9195
 3872TIP3    H233176   3.471   2.582   7.479  1.3797 -0.4108  1.1546
 3873TIP3   OH233177   4.052   3.800   0.712  0.6155 -0.5056 -0.4575
 3873TIP3    H133178   4.076   3.715   0.673  3.1345 -0.3292  0.5049
 3873TIP3    H233179   4.104   3.864   0.663 -1.3597  0.5695 -1.2563
 3874TIP3   OH233180   3.730   5.710   6.515  0.0860  0.1677 -0.1012
 3874TIP3    H133181   3.697   5.625   6.485 -0.1867 -0.4268  1.7692
 3874TIP3    H233182   3.775   5.746   6.438  0.7080 -1.9208 -0.7945
 3875TIP3   OH233183   5.808   4.570   8.275  0.1702  0.5852 -0.6640
 3875TIP3    H133184   5.811   4.518   8.195 -0.8585 -1.1789  0.3849
 3875TIP3    H233185   5.743   4.638   8.258 -0.1469  0.1385 -1.2498
 3876TIP3   OH233186   1.163   6.386   7.540  0.3133 -0.0443 -0.0029
 3876TIP3    H133187   1.192   6.477   7.547 -1.6339  0.6935 -0.7484
 3876TIP3    H233188   1.115   6.383   7.457 -0.9630 -1.3576  0.7379
 3877TIP3   OH233189   2.694   5.878   8.008 -0.0446 -0.4054  0.0386
 3877TIP3    H133190   2.651   5.837   8.083  0.7828 -0.4246  0.5128
 3877TIP3    H233191   2.651   5.963   7.999  0.2008 -0.1879  0.8633
 3878TIP3   OH233192   0.862   1.354   2.593 -0.2214  0.7269 -0.3425
 3878TIP3    H133193   0.881   1.332   2.502  0.2738  0.3580 -0.1544
 3878TIP3    H233194   0.808   1.282   2.625  0.3184  0.4208 -0.1024
 3879TIP3   OH233195   2.050   4.852   7.853  0.1573  0.3041 -0.1314
 3879TIP3    H133196   1.992   4.819   7.922 -1.0266  0.9831 -0.7722
 3879TIP3    H233197   2.073   4.940   7.882 -0.5690  0.6988 -0.7092
 3880TIP3   OH233198   3.966   5.514   0.991  0.3957  0.4085  0.3674
 3880TIP3    H133199   3.873   5.538   0.991  0.5693  1.1332 -0.9254
 3880TIP3    H233200   3.966   5.422   0.964 -0.0265 -0.1167  1.9914
 3881TIP3   OH233201   5.441   3.909   2.004  0.5115 -0.4427 -0.1443
 3881TIP3    H133202   5.412   3.881   1.918  2.5069 -3.0983 -0.0787
 3881TIP3    H233203   5.383   3.862   2.065  0.2932 -0.0121 -0.0139
 3882TIP3   OH233204   6.700   6.062   0.484  0.1769 -0.6452 -0.2283
 3882TIP3    H133205   6.636   5.991   0.483  0.4934 -1.1266  2.9737
 3882TIP3    H233206   6.784   6.018   0.500  0.4743  0.3371  1.0916
 3883TIP3   OH233207   6.771   3.259   0.473 -0.0978  0.2110 -0.4769
 3883TIP3    H133208   6.836   3.254   0.404  1.7851 -2.6144  1.2919
 3883TIP3    H233209   6.822   3.269   0.554 -1.8598 -1.2599  0.9085
 3884TIP3   OH233210   0.997   6.530   0.225 -0.0189  0.0632  0.3226
 3884TIP3    H133211   0.928   6.580   0.182 -0.0905 -0.8987 -0.6910
 3884TIP3    H233212   0.973   6.533   0.318  0.1547  2.1796  0.3578
 3885TIP3   OH233213   4.153   5.166   0.551  0.1505 -0.2018 -0.1209
 3885TIP3    H133214   4.214   5.236   0.526  0.0336 -0.4624 -1.2057
 3885TIP3    H233215   4.090   5.163   0.478  0.0329 -1.2925  0.0191
 3886TIP3   OH233216   3.891   4.812   6.670  0.0716 -0.2058  0.0113
 3886TIP3    H133217   3.888   4.864   6.590 -1.4556 -0.5349 -0.1603
 3886TIP3    H233218   3.826   4.852   6.727  0.0557 -0.9246  0.5018
 3887TIP3   OH233219   0.967   3.276   7.601 -0.7506 -0.2204 -0.0819
 3887TIP3    H133220   0.979   3.230   7.518 -0.5674  0.4579 -0.4412
 3887TIP3    H233221   0.891   3.234   7.641 -1.3480 -0.0177 -0.9672
 3888TIP3   OH233222   0.013   6.235   1.568 -0.3185 -0.1878  0.1904
 3888TIP3    H133223  -0.061   6.183   1.597 -0.1364 -0.1316  0.7780
 3888TIP3    H233224   0.084   6.172   1.555 -0.9109 -0.4920 -2.0731
 3889TIP3   OH233225   0.247   6.455   7.935 -0.1376 -0.6123 -0.1502
 3889TIP3    H133226   0.285   6.466   7.848  0.3148 -0.7940  0.0193
 3889TIP3    H233227   0.315   6.409   7.985 -0.0480  0.2279  0.5333
 3890TIP3   OH233228   0.079   1.840   0.061  0.2106 -0.2627  0.0460
 3890TIP3    H133229   0.158   1.893   0.065  0.7060 -1.0313  0.7490
 3890TIP3    H233230   0.109   1.750   0.074 -0.6607 -0.6824 -0.7299
 3891TIP3   OH233231   3.230   1.283   0.746  0.5392  0.0828  0.1458
 3891TIP3    H133232   3.304   1.279   0.685 -1.6074  1.4532 -2.7703
 3891TIP3    H233233   3.211   1.377   0.755 -0.8641 -0.2336  0.8113
 3892TIP3   OH233234   2.824   2.173   1.365 -0.0432 -0.3993 -0.3090
 3892TIP3    H133235   2.731   2.149   1.365 -0.2274  0.2847 -0.4496
 3892TIP3    H233236   2.830   2.245   1.428  0.3463 -0.2783 -0.4813
 3893TIP3   OH233237   3.656   0.572   7.420 -0.0951 -0.3044  0.7048
 3893TIP3    H133238   3.699   0.657   7.407  0.1268 -0.4751  0.3149
 3893TIP3    H233239   3.581   0.574   7.361 -0.2495 -0.2730  0.8993
 3894TIP3   OH233240   4.850   0.841   8.113  0.2800 -0.2505 -0.4054
 3894TIP3    H133241   4.797   0.920   8.119 -0.3554 -0.5748 -1.4887
 3894TIP3    H233242   4.790   0.770   8.137  0.1903 -0.6254 -1.6719
 3895TIP3   OH233243   3.186   2.787   0.203  0.0844 -0.3665 -0.1465
 3895TIP3    H133244   3.238   2.777   0.123  1.9639  0.8161  0.8410
 3895TIP3    H233245   3.143   2.873   0.193  2.3416  1.0108  1.0884
 3896TIP3   OH233246   1.376   0.067   0.011  0.4326  0.0661 -0.0922
 3896TIP3    H133247   1.374   0.065   0.107 -0.2040  0.3005 -0.0947
 3896TIP3    H233248   1.468   0.055  -0.011  0.6669  0.5622  0.5671
 3897TIP3   OH233249   6.247   1.424   8.406  0.3129 -0.0271 -0.2913
 3897TIP3    H133250   6.194   1.437   8.485 -0.5129 -1.5358 -0.5655
 3897TIP3    H233251   6.199   1.359   8.355  1.4333  0.0522 -1.4993
 3898TIP3   OH233252   2.879   4.507   0.151  0.3320  0.3633  0.0186
 3898TIP3    H133253   2.949   4.443   0.164 -0.0648 -0.1337 -0.2667
 3898TIP3    H233254   2.897   4.576   0.215  0.9047  0.0858  0.1551
 3899TIP3   OH233255   4.354   2.823   1.533  0.2887  0.4180  0.3290
 3899TIP3    H133256   4.349   2.890   1.601 -0.9153  1.0280 -0.3283
 3899TIP3    H233257   4.266   2.818   1.497  0.5637 -0.9083 -0.2409
 3900TIP3   OH233258   5.289   0.267   2.705  0.0165 -0.3729  1.1164
 3900TIP3    H133259   5.283   0.290   2.797  0.4941  2.0150  0.6156
 3900TIP3    H233260   5.268   0.348   2.658 -1.1788 -1.7378 -0.9166
 3901TIP3   OH233261   4.344   6.244   0.058  0.4025  0.1133  0.1670
 3901TIP3    H133262   4.270   6.269   0.114 -0.8505 -0.6461 -1.0931
 3901TIP3    H233263   4.319   6.160   0.020  1.2621  0.5384 -1.4412
 3902TIP3   OH233264   5.131   0.021   0.160  0.2442 -0.1245  0.2095
 3902TIP3    H133265   5.144   0.005   0.066 -0.2895  0.2791  0.0641
 3902TIP3    H233266   5.161   0.111   0.173  1.0268 -0.4325  0.5737
 3903TIP3   OH233267   5.176   0.801   1.371 -0.2391 -0.0594 -0.0790
 3903TIP3    H133268   5.167   0.859   1.446 -1.6186 -0.5097  0.1286
 3903TIP3    H233269   5.261   0.759   1.383 -0.9479 -1.0688  1.9363
 3904TIP3   OH233270   2.047   3.342   1.087 -0.3755  0.0279  0.2278
 3904TIP3    H133271   2.048   3.325   1.181  0.2074 -1.1485  0.0297
 3904TIP3    H233272   2.002   3.425   1.078  0.0293  0.4227  1.5967
 3905TIP3   OH233273   3.654   1.689   8.377 -0.5098  0.0104 -0.9211
 3905TIP3    H133274   3.702   1.742   8.441 -0.5990 -1.3479  0.3397
 3905TIP3    H233275   3.573   1.739   8.361 -0.0339  0.8581 -0.7670
 3906TIP3   OH233276   1.981   3.412   2.815  0.6629  0.7485  1.1936
 3906TIP3    H133277   2.056   3.353   2.800 -1.4906 -1.6521 -1.1242
 3906TIP3    H233278   2.019   3.500   2.812  3.1368 -0.2372 -2.2602
 3907TIP3   OH233279   0.146   3.187   8.390 -0.2686 -0.3742  0.2036
 3907TIP3    H133280   0.200   3.161   8.464  0.8080 -1.6894 -0.9729
 3907TIP3    H233281   0.097   3.108   8.367 -0.7210  0.0657 -0.3732
 3908TIP3   OH233282   0.395   6.822   2.583  0.5576  0.2047  0.0812
 3908TIP3    H133283   0.473   6.877   2.586 -0.0146  1.0119  1.7873
 3908TIP3    H233284   0.331   6.867   2.638 -0.4457 -1.4210  0.3427
 3909TIP3   OH233285   5.970   6.076   2.104  0.2432 -0.0878  0.1909
 3909TIP3    H133286   5.895   6.017   2.105  1.1094 -1.2095  0.4306
 3909TIP3    H233287   5.934   6.160   2.134 -0.9083 -0.6027  0.3124
 3910TIP3   OH233288   2.198   4.935   7.478 -0.3209 -0.2485  0.5935
 3910TIP3    H133289   2.187   4.973   7.391  1.4005 -1.0377 -0.0142
 3910TIP3    H233290   2.233   5.006   7.531 -1.5496  0.2881  0.7178
 3911TIP3   OH233291   3.523   5.243   0.963 -0.2027  0.3608 -0.3114
 3911TIP3    H133292   3.434   5.271   0.941 -0.5410 -0.5122 -0.1198
 3911TIP3    H233293   3.554   5.198   0.884 -0.3365 -0.2645 -0.0120
 3912TIP3   OH233294   4.430   1.353   8.363 -0.3781 -0.2752  0.5521
 3912TIP3    H133295   4.511   1.337   8.411  1.0010 -0.4653 -1.6543
 3912TIP3    H233296   4.435   1.446   8.337  0.0474 -0.7082 -1.0590
 3913TIP3   OH233297   6.897   1.959   8.262 -0.4518  0.3544 -0.0853
 3913TIP3    H133298   6.894   1.864   8.275  1.5460 -0.0780 -2.0947
 3913TIP3    H233299   6.841   1.994   8.331  0.0036 -2.1768  1.7352
 3914TIP3   OH233300   0.525   3.660   2.991 -0.1584 -0.2244 -0.2178
 3914TIP3    H133301   0.482   3.623   3.067  2.0981 -1.4302  0.5699
 3914TIP3    H233302   0.514   3.594   2.922  2.3373 -1.7229  0.6793
 3915TIP3   OH233303   1.228   5.317   0.847 -0.4048 -0.0667  0.2879
 3915TIP3    H133304   1.278   5.398   0.860 -1.5960  1.3488 -2.8594
 3915TIP3    H233305   1.192   5.296   0.933  1.8848  1.3388  1.7043
 3916TIP3   OH233306   6.414   4.298   0.796  0.1876 -0.3229  0.0048
 3916TIP3    H133307   6.353   4.353   0.846  0.0306 -1.1378  0.7235
 3916TIP3    H233308   6.484   4.359   0.770  0.3318  0.1078  1.3135
 3917TIP3   OH233309   2.027   1.332   1.901  0.3199 -0.1074 -0.1805
 3917TIP3    H133310   2.095   1.326   1.833  0.4052  0.4337 -0.1481
 3917TIP3    H233311   1.975   1.252   1.890  3.0564 -2.3886  2.1071
 3918TIP3   OH233312   1.757   6.872   1.580  0.1527 -0.2190 -0.2868
 3918TIP3    H133313   1.811   6.855   1.503  0.8175 -1.9050  0.5007
 3918TIP3    H233314   1.815   6.918   1.641  0.2939 -0.8151  0.0334
 3919TIP3   OH233315   4.108   4.875   0.499  0.3253 -0.4116  0.0849
 3919TIP3    H133316   4.168   4.926   0.554 -0.1602 -0.4988  0.7041
 3919TIP3    H233317   4.025   4.923   0.502 -0.2814 -1.4954  1.0891
 3920TIP3   OH233318   2.271   2.732   6.806 -0.0803  0.5934 -0.0195
 3920TIP3    H133319   2.196   2.684   6.842  0.4321  0.8742  1.4895
 3920TIP3    H233320   2.348   2.687   6.842  0.5012  0.4913 -1.3090
 3921TIP3   OH233321   2.295   0.544   2.600  0.4401 -0.0544  0.1432
 3921TIP3    H133322   2.258   0.621   2.644  0.9554  1.1360 -1.4225
 3921TIP3    H233323   2.225   0.512   2.544  0.4466 -0.3102  0.2826
 3922TIP3   OH233324   3.859   3.446   0.284 -0.2102  0.2541 -0.4911
 3922TIP3    H133325   3.880   3.540   0.281 -1.0410  0.5730  1.6670
 3922TIP3    H233326   3.785   3.441   0.345  1.0669 -2.0141  0.9713
 3923TIP3   OH233327   1.324   5.399   8.117  0.2601 -0.5617  0.2574
 3923TIP3    H133328   1.403   5.428   8.163  1.0888 -1.5661 -0.4824
 3923TIP3    H233329   1.308   5.311   8.152 -0.0026 -0.7120 -0.2323
 3924TIP3   OH233330   6.286   2.531   8.444  0.6558  0.1741  0.2359
 3924TIP3    H133331   6.374   2.566   8.456  1.1054 -1.0936  0.8925
 3924TIP3    H233332   6.240   2.552   8.525  1.4273 -2.0335  1.3406
 3925TIP3   OH233333   2.136   2.377   0.316 -0.1516  0.2161 -0.4078
 3925TIP3    H133334   2.046   2.399   0.292  0.1452  1.9367 -0.0811
 3925TIP3    H233335   2.157   2.437   0.387  1.8308  1.0626 -1.6306
 3926TIP3   OH233336   6.517   4.739   7.678  0.0297 -0.0961  0.0506
 3926TIP3    H133337   6.545   4.682   7.606 -1.5342 -0.0136 -0.6806
 3926TIP3    H233338   6.537   4.690   7.757  1.2083 -0.4624 -0.4502
 3927TIP3   OH233339   5.162   1.750   1.280 -0.2367  0.1138 -0.2998
 3927TIP3    H133340   5.163   1.771   1.187  0.7904  1.1771 -0.0710
 3927TIP3    H233341   5.254   1.743   1.304 -0.2953  3.0606  1.2805
 3928TIP3   OH233342   0.057   4.821   8.388  0.1359  0.3047  0.3740
 3928TIP3    H133343   0.026   4.739   8.349  0.6249 -1.0496  2.6540
 3928TIP3    H233344  -0.008   4.843   8.454 -0.2663  2.0929 -0.5609
 3929TIP3   OH233345   4.616   1.312   0.661 -0.4860  0.2204 -0.4169
 3929TIP3    H133346   4.586   1.275   0.744 -1.6908  0.6681 -0.6327
 3929TIP3    H233347   4.622   1.406   0.678  1.3586  0.1046 -0.2327
 3930TIP3   OH233348   1.229   4.345   7.114 -0.4565  0.6367 -0.2551
 3930TIP3    H133349   1.276   4.380   7.039  0.8990  3.3272  1.6668
 3930TIP3    H233350   1.147   4.394   7.116 -0.8578 -0.0247 -0.4508
 3931TIP3   OH233351   1.794   0.442   0.871  0.4352  0.0881 -0.1289
 3931TIP3    H133352   1.849   0.378   0.826  2.1197  0.4157  1.3656
 3931TIP3    H233353   1.724   0.390   0.911  0.3109 -0.4815 -1.0588
 3932TIP3   OH233354   5.609   3.786   0.251  0.2242  0.4418  0.3263
 3932TIP3    H133355   5.595   3.692   0.237 -0.9432  0.6309  0.1985
 3932TIP3    H233356   5.594   3.825   0.165 -2.0738  1.0498  0.9423
 3933TIP3   OH233357   2.700   5.912   0.532 -0.0797  0.4529  0.1573
 3933TIP3    H133358   2.697   5.965   0.452  0.8415 -0.0547 -0.2229
 3933TIP3    H233359   2.750   5.965   0.594  2.5714 -0.7108 -0.8354
 3934TIP3   OH233360   5.261   3.963   1.356 -0.1192  0.6867 -0.1032
 3934TIP3    H133361   5.191   3.900   1.373  0.4823  0.6117  2.4942
 3934TIP3    H233362   5.292   3.942   1.268 -1.2469 -1.3450 -0.0658
 3935TIP3   OH233363   1.031   1.123   1.260  0.1834 -0.4637  0.2552
 3935TIP3    H133364   0.962   1.173   1.217 -0.9529 -0.1839  2.2602
 3935TIP3    H233365   1.105   1.184   1.268 -0.2181  0.0265  0.2396
 3936TIP3   OH233366   3.521   5.875   2.547 -0.7486  0.0075 -0.3412
 3936TIP3    H133367   3.526   5.867   2.452 -1.0330 -0.2727 -0.3320
 3936TIP3    H233368   3.489   5.965   2.562  0.0802  0.3364 -0.4879
 3937TIP3   OH233369   5.892   5.678   1.952 -0.0866 -0.1308  0.1093
 3937TIP3    H133370   5.874   5.722   1.869 -0.5964  0.2261  0.3947
 3937TIP3    H233371   5.813   5.694   2.004  0.5101  0.2657  0.9141
 3938TIP3   OH233372   6.009   0.578   1.846  0.1427  0.0231  0.3982
 3938TIP3    H133373   5.930   0.542   1.887  0.1856  2.3285  2.7797
 3938TIP3    H233374   6.019   0.665   1.885  2.8452  0.5631 -1.2178
 3939TIP3   OH233375   5.953   6.910   7.848  0.0235  0.3670  0.7112
 3939TIP3    H133376   6.017   6.966   7.892  0.7246  0.4885 -0.4442
 3939TIP3    H233377   5.907   6.969   7.789  1.3402 -0.3857 -1.1544
 3940TIP3   OH233378   6.514   3.312   0.312 -0.4757 -0.1220 -0.4180
 3940TIP3    H133379   6.582   3.316   0.379 -0.8741  0.3058 -0.0350
 3940TIP3    H233380   6.507   3.402   0.280 -1.7842  0.1124  0.4713
 3941TIP3   OH233381   0.288   4.686   0.269  0.0904  0.0844  0.2409
 3941TIP3    H133382   0.267   4.749   0.338  1.2373  2.4689 -1.4132
 3941TIP3    H233383   0.371   4.647   0.296 -0.1849 -0.0603  0.8790
 3942TIP3   OH233384   5.747   3.549   1.248  0.1943  0.8599  0.1407
 3942TIP3    H133385   5.758   3.644   1.250  0.9569  0.7902  2.5803
 3942TIP3    H233386   5.823   3.515   1.295  0.6067 -1.0744 -1.7758
 3943TIP3   OH233387   4.177   1.273   8.543  0.2079  0.0275  0.7724
 3943TIP3    H133388   4.153   1.317   8.624 -0.2768 -0.2761  0.7926
 3943TIP3    H233389   4.273   1.282   8.539 -0.0080  2.9873 -0.2901
 3944TIP3   OH233390   3.671   4.590   1.897 -0.6000 -0.1504  0.5067
 3944TIP3    H133391   3.736   4.660   1.901  0.3462 -0.9762 -0.0848
 3944TIP3    H233392   3.594   4.631   1.858  0.1752  0.3915 -0.4918
 3945TIP3   OH233393   2.830   4.687   8.481  0.2434  0.0492  0.1920
 3945TIP3    H133394   2.912   4.654   8.442  0.5775  2.1817 -1.1015
 3945TIP3    H233395   2.800   4.616   8.537  2.4592 -1.2036 -0.0692
 3946TIP3   OH233396   1.775   2.453   1.579  0.0447  0.2511  0.2101
 3946TIP3    H133397   1.742   2.524   1.525  1.9334 -1.1146 -3.0412
 3946TIP3    H233398   1.700   2.395   1.592 -0.3499  0.3324 -1.5275
 3947TIP3   OH233399   2.187   0.485   1.744  0.0834  0.0701 -0.2318
 3947TIP3    H133400   2.126   0.545   1.787 -0.6768  0.6194 -1.9840
 3947TIP3    H233401   2.140   0.401   1.740 -0.5088  0.4335 -1.3730
 3948TIP3   OH233402   0.004   4.877   1.235  0.5104 -0.7664 -0.7047
 3948TIP3    H133403   0.031   4.806   1.176  1.5149 -0.5908 -0.4796
 3948TIP3    H233404  -0.002   4.835   1.321 -1.1602 -1.0704 -0.9300
 3949TIP3   OH233405   1.972   1.073   8.179 -0.3019  0.2618 -0.3106
 3949TIP3    H133406   1.927   1.042   8.101  1.3137 -0.6295 -0.9338
 3949TIP3    H233407   1.903   1.077   8.246 -1.3111 -1.0372 -1.2104
 3950TIP3   OH233408   0.021   3.822   6.554  0.1996 -0.6058 -0.2254
 3950TIP3    H133409  -0.021   3.863   6.630  0.4275 -0.8286  0.0248
 3950TIP3    H233410   0.113   3.850   6.560  0.2792 -0.8555 -0.2567
 3951TIP3   OH233411   6.881   0.550   8.151 -0.2721 -0.2659 -1.2602
 3951TIP3    H133412   6.928   0.616   8.100  1.5245  2.0206  2.8756
 3951TIP3    H233413   6.942   0.476   8.157  0.7113  0.6079 -0.1583
 3952TIP3   OH233414   4.208   1.810   8.105 -0.0990  0.4489  0.3120
 3952TIP3    H133415   4.179   1.871   8.172  0.7704  1.0140  0.1895
 3952TIP3    H233416   4.178   1.847   8.023 -1.7281 -0.5749  0.4159
 3953TIP3   OH233417   0.694   2.539   0.351 -0.1224 -0.5868  0.1794
 3953TIP3    H133418   0.710   2.531   0.445  0.5203  2.0750  0.3744
 3953TIP3    H233419   0.772   2.582   0.317 -0.4593 -1.2803 -1.5491
 3954TIP3   OH233420   0.037   3.257   0.976 -0.4801  0.5086  0.5513
 3954TIP3    H133421  -0.014   3.258   1.057  0.7951  0.5407  1.3789
 3954TIP3    H233422   0.123   3.289   1.001 -0.0041  0.3521 -0.7917
 3955TIP3   OH233423   2.717   4.611   1.291  0.0374 -0.0030 -0.4346
 3955TIP3    H133424   2.766   4.634   1.212 -0.3522  0.7417 -0.4709
 3955TIP3    H233425   2.736   4.683   1.352  0.2171 -0.4960  0.1031
 3956TIP3   OH233426   1.033   5.742   0.826 -0.5515  0.5775 -0.3200
 3956TIP3    H133427   0.959   5.789   0.788 -2.3877 -2.0102 -0.1719
 3956TIP3    H233428   1.058   5.794   0.902 -4.0375  0.2560  1.2420
 3957TIP3   OH233429   1.508   0.799   0.676  0.2180 -0.2612  0.1587
 3957TIP3    H133430   1.600   0.775   0.680  0.2018 -0.4300 -0.3951
 3957TIP3    H233431   1.488   0.835   0.763  0.8353 -0.0945  0.2318
 3958TIP3   OH233432   2.220   1.825   0.313 -0.4999  0.8605 -0.6988
 3958TIP3    H133433   2.273   1.756   0.273  0.2621  1.2666 -0.4293
 3958TIP3    H233434   2.223   1.807   0.407  1.3350  2.2999 -0.4124
 3959TIP3   OH233435   0.153   0.672   7.888 -0.0289 -0.1530 -0.2857
 3959TIP3    H133436   0.225   0.624   7.847 -0.6330  0.3283 -2.0184
 3959TIP3    H233437   0.185   0.762   7.894  0.8474 -0.5466  2.3437
 3960TIP3   OH233438   4.262   5.987   1.389 -0.3464 -0.0695 -0.3452
 3960TIP3    H133439   4.225   5.916   1.441  0.5738  0.4360  1.0707
 3960TIP3    H233440   4.329   5.946   1.335  1.3178 -0.0999  1.6419
 3961TIP3   OH233441   5.522   5.829   0.871  0.7654 -0.2224  0.3618
 3961TIP3    H133442   5.572   5.897   0.825 -1.5885  0.1801 -1.8318
 3961TIP3    H233443   5.550   5.747   0.830  0.0041 -0.0367 -0.5751
 3962TIP3   OH233444   3.377   0.725   7.862  0.3162 -0.4709 -0.0135
 3962TIP3    H133445   3.423   0.655   7.816  0.7169 -1.4074  1.7314
 3962TIP3    H233446   3.441   0.758   7.925 -0.0727  1.0873 -0.3913
 3963TIP3   OH233447   1.932   1.966   0.689 -0.1196 -0.4544 -0.0187
 3963TIP3    H133448   1.927   1.915   0.770  1.1805  0.1254  0.4503
 3963TIP3    H233449   1.973   2.049   0.715  0.5332 -0.3490 -1.3126
 3964TIP3   OH233450   3.949   2.310   8.376 -0.3119 -0.0361 -0.0148
 3964TIP3    H133451   3.958   2.292   8.282 -0.9567  1.4097 -0.3782
 3964TIP3    H233452   4.000   2.389   8.390  1.6709 -1.4519  1.3494
 3965TIP3   OH233453   0.394   1.311   1.984 -0.1975 -0.2122  0.4165
 3965TIP3    H133454   0.302   1.299   2.005 -0.5559 -1.0561 -1.4280
 3965TIP3    H233455   0.397   1.393   1.933  0.1474  0.0188  0.7942
 3966TIP3   OH233456   2.324   6.360   2.489 -0.3813  0.4553  0.8109
 3966TIP3    H133457   2.280   6.370   2.573  2.2069  0.8809  2.2209
 3966TIP3    H233458   2.410   6.399   2.502 -0.5138  2.2648 -2.6565
 3967TIP3   OH233459   0.319   3.073   1.845  0.3547 -0.0989 -0.7406
 3967TIP3    H133460   0.360   3.133   1.907  2.2440 -1.0022 -1.0277
 3967TIP3    H233461   0.230   3.061   1.878  1.1686 -0.2715  1.6217
 3968TIP3   OH233462   3.592   4.721   7.303  0.1152  0.0696 -0.5622
 3968TIP3    H133463   3.679   4.751   7.276  0.9998 -0.5339  1.3884
 3968TIP3    H233464   3.576   4.643   7.249 -0.5029  1.7172 -2.9002
 3969TIP3   OH233465   3.265   2.213   1.863 -0.1662 -0.1845  0.1108
 3969TIP3    H133466   3.175   2.196   1.892 -0.1442  2.9129  2.4180
 3969TIP3    H233467   3.320   2.187   1.936  0.5403  0.9027 -0.0068
 3970TIP3   OH233468   6.374   3.910   2.215 -0.3770 -0.5332  0.5950
 3970TIP3    H133469   6.309   3.933   2.148  0.1580 -1.7448 -0.3660
 3970TIP3    H233470   6.455   3.897   2.166  0.4689  0.3333  1.7058
 3971TIP3   OH233471   0.519   4.632   8.454 -0.1150  0.5292  0.5669
 3971TIP3    H133472   0.478   4.718   8.454  0.8720  1.0261  1.5144
 3971TIP3    H233473   0.473   4.583   8.522 -0.8749  0.1895 -0.1740
 3972TIP3   OH233474   2.066   3.123   8.443 -0.0500  0.3323  0.3756
 3972TIP3    H133475   2.135   3.176   8.404 -0.7059 -0.4331 -1.9610
 3972TIP3    H233476   1.995   3.184   8.460 -0.6226  0.3666 -1.8507
 3973TIP3   OH233477   1.446   4.259   6.841 -0.8135  0.5882 -0.0943
 3973TIP3    H133478   1.492   4.334   6.804  0.0117 -0.0303 -0.3413
 3973TIP3    H233479   1.456   4.268   6.935  0.0142  0.3438 -0.1530
 3974TIP3   OH233480   3.411   4.918   7.237  0.3240 -0.1834 -1.0045
 3974TIP3    H133481   3.376   4.977   7.304  0.2021 -0.4903 -0.7985
 3974TIP3    H233482   3.472   4.861   7.284 -0.1015 -0.6959 -1.0693
 3975TIP3   OH233483   1.904   0.130   0.355 -0.0558 -0.4551 -0.2357
 3975TIP3    H133484   1.825   0.183   0.354  0.1711 -0.0938  0.4785
 3975TIP3    H233485   1.881   0.053   0.407  0.1389 -0.2207  0.2024
 3976TIP3   OH233486   5.653   5.240   0.271  0.1661 -0.0291  0.1303
 3976TIP3    H133487   5.665   5.146   0.287 -3.3666 -0.9028 -1.3271
 3976TIP3    H233488   5.695   5.256   0.187 -0.9341 -0.8545 -0.6090
 3977TIP3   OH233489   5.884   0.898   8.456 -0.0473  0.0368  0.3273
 3977TIP3    H133490   5.828   0.933   8.388 -0.7730 -3.1002 -0.8522
 3977TIP3    H233491   5.973   0.923   8.430 -0.4889  0.7320 -0.5480
 3978TIP3   OH233492   2.964   5.810   7.938  0.0213 -0.2141 -0.0551
 3978TIP3    H133493   2.949   5.722   7.905 -1.5378  0.4019 -1.1436
 3978TIP3    H233494   2.878   5.839   7.969  0.3099  1.1921 -0.4887
 3979TIP3   OH233495   5.188   2.022   6.544  0.6742  0.1164  0.3336
 3979TIP3    H133496   5.103   2.032   6.501  1.6247 -1.1457 -2.0541
 3979TIP3    H233497   5.175   2.055   6.632 -2.1202  0.5301 -0.1557
 3980TIP3   OH233498   6.523   1.792   7.556 -0.2399 -0.5473  0.3580
 3980TIP3    H133499   6.469   1.866   7.583  0.7777  0.2149  0.3899
 3980TIP3    H233500   6.474   1.750   7.486 -0.4456  0.6896 -0.2587
 3981TIP3   OH233501   1.291   0.332   8.203  0.0236 -0.0482  0.1872
 3981TIP3    H133502   1.222   0.393   8.227 -2.0865 -2.8084  1.7260
 3981TIP3    H233503   1.323   0.364   8.118 -2.4797  1.8895 -0.1327
 3982TIP3   OH233504   5.263   5.508   0.308 -0.0875 -0.2206 -0.3071
 3982TIP3    H133505   5.348   5.477   0.338  0.3864 -0.3547 -1.6951
 3982TIP3    H233506   5.243   5.583   0.364  1.6382  0.7395 -0.8985
 3983TIP3   OH233507   0.081   6.176   7.702 -0.0262 -0.2895  0.0673
 3983TIP3    H133508   0.053   6.248   7.759  0.8030 -0.2980  0.5002
 3983TIP3    H233509   0.095   6.102   7.762 -0.8315 -0.8074 -0.3696
 3984TIP3   OH233510   5.826   2.648   1.937 -0.0143 -0.7008  0.7742
 3984TIP3    H133511   5.916   2.638   1.967 -0.1132 -0.8404  1.0262
 3984TIP3    H233512   5.808   2.741   1.947 -0.2152 -0.8238  1.6407
 3985TIP3   OH233513   0.520   0.299   1.025 -0.3385 -0.8290  0.2279
 3985TIP3    H133514   0.443   0.257   0.987 -1.1156 -0.1454  0.9918
 3985TIP3    H233515   0.544   0.367   0.963 -0.9000 -0.4728  0.3892
 3986TIP3   OH233516   2.520   6.011   7.659 -0.3511  0.1327  0.4979
 3986TIP3    H133517   2.469   5.936   7.630 -0.8758  0.1694  1.3035
 3986TIP3    H233518   2.455   6.072   7.694 -0.0648  1.4203 -1.0488
 3987TIP3   OH233519   6.069   6.499   2.257  0.0769 -0.0122  0.6600
 3987TIP3    H133520   6.021   6.454   2.326  0.4386  0.1083  0.9963
 3987TIP3    H233521   6.126   6.560   2.304  0.4795 -0.0805  0.2647
 3988TIP3   OH233522   6.377   2.193   7.810  0.6906 -0.4338  0.1794
 3988TIP3    H133523   6.349   2.275   7.850 -0.5206 -0.0936 -1.2746
 3988TIP3    H233524   6.462   2.212   7.771  0.2678  0.2379 -0.4275
 3989TIP3   OH233525   0.290   1.686   2.028 -0.2633  0.3735  0.0457
 3989TIP3    H133526   0.291   1.776   2.061 -0.9547  0.3919  0.0239
 3989TIP3    H233527   0.198   1.661   2.030 -0.1593 -0.0817 -0.6461
 3990TIP3   OH233528   1.463   4.376   1.794 -0.0774 -0.0713 -0.2954
 3990TIP3    H133529   1.442   4.461   1.832  2.1377  0.7093 -0.6429
 3990TIP3    H233530   1.487   4.321   1.868 -0.5235 -0.0825 -0.1582
 3991TIP3   OH233531   2.203   2.226   2.347 -0.0330  0.4976 -0.1031
 3991TIP3    H133532   2.275   2.165   2.331 -1.1647 -0.5827 -1.3666
 3991TIP3    H233533   2.190   2.225   2.441  0.2476 -0.8961 -0.0655
 3992TIP3   OH233534   3.982   5.198   0.976 -0.6487 -0.5528  0.1662
 3992TIP3    H133535   4.052   5.153   0.928 -0.0102  0.4917  0.0874
 3992TIP3    H233536   4.007   5.191   1.068 -1.6498 -2.1748  0.3560
 3993TIP3   OH233537   4.910   5.375   1.025 -0.2523  0.4899 -0.2451
 3993TIP3    H133538   4.923   5.392   0.932 -3.2058 -0.0740 -0.8384
 3993TIP3    H233539   4.837   5.314   1.029  0.7685 -0.7382  2.4179
 3994TIP3   OH233540   3.284   6.567   0.183 -0.0828 -0.2234 -0.1673
 3994TIP3    H133541   3.368   6.573   0.230 -0.6775 -1.1862  1.0772
 3994TIP3    H233542   3.281   6.646   0.129  2.2473 -0.8192 -1.3150
 3995TIP3   OH233543   4.771   4.924   1.877  0.4164 -0.1309 -0.7067
 3995TIP3    H133544   4.840   4.952   1.817 -0.5634  3.6348 -0.3296
 3995TIP3    H233545   4.815   4.909   1.960  1.2086 -1.3076 -1.3150
 3996TIP3   OH233546   5.255   5.040   7.437 -0.1449 -0.2676 -0.2971
 3996TIP3    H133547   5.301   4.965   7.474 -0.7363  0.0517  1.1468
 3996TIP3    H233548   5.324   5.093   7.398  0.6591 -0.1241  1.2351
 3997TIP3   OH233549   2.398   4.773   7.936  0.5132  0.0194 -0.6369
 3997TIP3    H133550   2.490   4.795   7.920  0.0588  1.6988 -1.0919
 3997TIP3    H233551   2.363   4.753   7.850  0.3521 -0.2880 -0.5035
 3998TIP3   OH233552   3.905   1.806   2.371 -0.0983  0.1134  0.3942
 3998TIP3    H133553   3.904   1.711   2.367 -1.3169  0.1544 -0.7293
 3998TIP3    H233554   3.957   1.826   2.449  1.6839 -1.4156 -0.3348
 3999TIP3   OH233555   5.688   6.372   2.699 -0.0704  0.3432 -0.3725
 3999TIP3    H133556   5.730   6.411   2.622  2.6338  0.5144  1.0569
 3999TIP3    H233557   5.626   6.439   2.728  2.1485  2.3760  0.1267
 4000TIP3   OH233558   4.681   2.645   8.064  0.5999  0.3005  0.0388
 4000TIP3    H133559   4.765   2.644   8.018  0.5816  2.1830 -0.0998
 4000TIP3    H233560   4.684   2.724   8.118 -0.3038 -0.6559  1.5551
 4001TIP3   OH233561   3.865   3.356   6.783  0.0425  1.0933 -0.3545
 4001TIP3    H133562   3.894   3.335   6.694 -0.6818  1.9400 -0.8052
 4001TIP3    H233563   3.880   3.450   6.792  0.0770  1.0208  0.4143
 4002TIP3   OH233564   0.576   0.301   8.317  0.3253 -0.5771  0.2636
 4002TIP3    H133565   0.559   0.207   8.323 -0.2795 -0.5671 -1.0317
 4002TIP3    H233566   0.659   0.307   8.270 -0.7303 -0.4619 -1.7071
 4003TIP3   OH233567   3.002   1.034   8.487 -0.3967  0.0995 -0.1206
 4003TIP3    H133568   3.073   1.007   8.546 -1.2850 -1.3101  0.3631
 4003TIP3    H233569   2.922   1.005   8.531 -1.1534 -0.0370 -1.5273
 4004TIP3   OH233570   5.527   0.695   2.596  0.3884 -0.1629  0.1330
 4004TIP3    H133571   5.580   0.658   2.666  0.0408  1.3798  1.2789
 4004TIP3    H233572   5.442   0.652   2.604 -0.2146  1.2066  1.8546
 4005TIP3   OH233573   3.799   2.504   2.186 -0.5306 -0.3101 -0.3055
 4005TIP3    H133574   3.746   2.428   2.209 -0.3720  0.0404  1.3538
 4005TIP3    H233575   3.883   2.490   2.230  0.4908 -0.4184 -2.1421
 4006TIP3   OH233576   6.451   0.188   1.544  0.3422 -0.4043 -0.3652
 4006TIP3    H133577   6.464   0.281   1.529 -0.3394 -0.5099 -1.7873
 4006TIP3    H233578   6.431   0.181   1.638  2.3331  0.6142  0.1875
 4007TIP3   OH233579   4.368   2.951   6.999  0.4179  0.4717  0.0055
 4007TIP3    H133580   4.449   2.971   7.046 -0.4724  0.3272  1.6787
 4007TIP3    H233581   4.386   2.868   6.954  0.8518 -0.1681  1.3046
 4008TIP3   OH233582   2.947   2.011   0.112 -0.4426  0.2103  0.2089
 4008TIP3    H133583   3.030   1.963   0.119 -1.1435 -1.1464 -0.2499
 4008TIP3    H233584   2.970   2.093   0.069  0.7436  0.1293  0.6295
 4009TIP3   OH233585   1.379   2.503   0.783 -0.2369 -0.1728  0.2739
 4009TIP3    H133586   1.315   2.516   0.853 -1.5355 -0.9312 -0.7402
 4009TIP3    H233587   1.360   2.572   0.720 -1.5566 -1.7186 -1.0844
 4010TIP3   OH233588   2.941   2.396   0.610 -0.1178  0.4195  0.6230
 4010TIP3    H133589   2.885   2.415   0.685 -0.8319  3.4695 -0.5275
 4010TIP3    H233590   2.904   2.447   0.539  2.1420 -0.1747 -1.1083
 4011TIP3   OH233591   4.291   5.023   2.215 -0.6508  0.2847 -0.4886
 4011TIP3    H133592   4.306   4.934   2.246 -2.0509 -0.0820 -0.7761
 4011TIP3    H233593   4.374   5.068   2.231 -0.5276 -0.5291  1.5249
 4012TIP3   OH233594   5.982   3.160   8.498  0.2690 -0.2934  0.1705
 4012TIP3    H133595   6.004   3.206   8.579  2.4491 -0.5648 -0.1957
 4012TIP3    H233596   6.007   3.221   8.429  2.0033 -1.4440 -0.2965
 4013TIP3   OH233597   1.950   3.368   7.939 -0.3006 -0.6646  0.3929
 4013TIP3    H133598   2.020   3.327   7.990 -0.1102  0.4836  1.0748
 4013TIP3    H233599   1.932   3.305   7.869  2.2913 -0.4552 -0.5660
 4014TIP3   OH233600   4.213   5.439   6.537 -0.0889 -0.3754  0.6060
 4014TIP3    H133601   4.147   5.391   6.587  0.4874  0.4723  2.2246
 4014TIP3    H233602   4.240   5.511   6.594 -0.8291  1.8514 -1.6783
 4015TIP3   OH233603   6.719   1.514   0.840  0.3173  0.0851  0.5663
 4015TIP3    H133604   6.638   1.466   0.822  0.4826  0.4159 -1.2305
 4015TIP3    H233605   6.764   1.518   0.756  2.1479  0.0595  1.4881
 4016TIP3   OH233606   2.180   2.558   0.538  0.1080  0.0925  0.4471
 4016TIP3    H133607   2.118   2.609   0.590 -0.1453  0.1613  0.0797
 4016TIP3    H233608   2.245   2.622   0.508  0.1597  0.0836  0.5426
 4017TIP3   OH233609   4.379   5.454   7.705  0.5317  0.1874 -0.2331
 4017TIP3    H133610   4.378   5.549   7.700 -2.1190  0.1872 -2.3988
 4017TIP3    H233611   4.288   5.430   7.721  0.9181 -1.9939 -0.9628
 4018TIP3   OH233612   4.824   0.156   1.489  0.1695 -0.2038 -0.1205
 4018TIP3    H133613   4.780   0.073   1.508  0.3862  0.0940  1.8671
 4018TIP3    H233614   4.757   0.209   1.446 -1.0727 -0.2315  1.6544
 4019TIP3   OH233615   3.911   1.785   7.555 -0.6888  0.2947  0.2338
 4019TIP3    H133616   3.855   1.817   7.485  0.8568 -0.3255 -1.3420
 4019TIP3    H233617   3.977   1.732   7.511  0.4990  0.1052  2.1351
 4020TIP3   OH233618   4.958   1.658   1.453  0.2886  0.6889 -0.1770
 4020TIP3    H133619   5.012   1.710   1.393 -0.8221  1.9373 -0.1100
 4020TIP3    H233620   4.913   1.722   1.507  0.2199 -0.3954  1.0906
 4021TIP3   OH233621   1.161   5.037   7.147 -0.2840  0.7691 -0.7996
 4021TIP3    H133622   1.221   5.110   7.130 -1.1559  1.5655 -0.5092
 4021TIP3    H233623   1.093   5.074   7.204 -0.9505 -0.1665 -0.9649
 4022TIP3   OH233624   2.186   3.505   7.914 -0.5290 -0.2430 -0.2005
 4022TIP3    H133625   2.191   3.565   7.989 -1.9529  2.7157 -2.2865
 4022TIP3    H233626   2.096   3.474   7.915 -0.6389  0.0511 -0.8451
 4023TIP3   OH233627   4.276   2.116   0.650  0.2692  0.7389  0.0319
 4023TIP3    H133628   4.241   2.200   0.680  2.2463  1.6190  0.0120
 4023TIP3    H233629   4.371   2.129   0.649  0.6011 -1.4542 -0.1390
 4024TIP3   OH233630   3.368   5.320   7.187 -0.0261 -0.3642  0.0494
 4024TIP3    H133631   3.420   5.385   7.232  0.5039 -1.7400  1.5079
 4024TIP3    H233632   3.308   5.371   7.131 -1.2745  1.4891  2.8587
 4025TIP3   OH233633   6.205   1.715   8.303  0.2205 -0.1535  0.3033
 4025TIP3    H133634   6.166   1.684   8.221 -0.7982 -0.0177  0.7201
 4025TIP3    H233635   6.238   1.636   8.345 -0.8577 -0.4549  0.5865
 4026TIP3   OH233636   4.166   3.696   1.263 -0.2785  0.2055  0.0548
 4026TIP3    H133637   4.081   3.662   1.293  0.1536  0.1008  1.1977
 4026TIP3    H233638   4.230   3.634   1.298  0.3242  0.6930 -0.1711
 4027TIP3   OH233639   5.894   0.134   1.885 -0.0351  0.2268 -0.0555
 4027TIP3    H133640   5.886   0.088   1.801  0.2306 -1.3346  0.7475
 4027TIP3    H233641   5.979   0.178   1.880 -1.4185  2.9862 -1.9133
 4028TIP3   OH233642   3.716   1.784   1.884 -0.0833 -0.4096 -0.0930
 4028TIP3    H133643   3.786   1.817   1.828  0.8589 -0.6057  0.9387
 4028TIP3    H233644   3.649   1.853   1.882  1.0157  0.7236  0.4832
 4029TIP3   OH233645   3.268   5.451   6.546 -0.0169 -0.2026  0.5394
 4029TIP3    H133646   3.310   5.534   6.572  0.4708 -0.5108  0.7489
 4029TIP3    H233647   3.187   5.449   6.598 -0.3752  0.4679  0.0215
 4030TIP3   OH233648   6.725   1.641   8.083  0.1544 -0.4128 -0.2794
 4030TIP3    H133649   6.802   1.644   8.026  0.5828  0.5552  0.3256
 4030TIP3    H233650   6.760   1.617   8.168 -0.2731 -0.3461 -0.0848
 4031TIP3   OH233651   1.448   2.680   8.421 -0.3276  0.0626 -0.6969
 4031TIP3    H133652   1.378   2.712   8.364 -0.4126  0.3381 -0.4443
 4031TIP3    H233653   1.404   2.662   8.504 -0.0180  0.7236 -0.3762
 4032TIP3   OH233654   1.354   4.485   8.430  0.0135 -0.0664 -0.6807
 4032TIP3    H133655   1.272   4.495   8.480  0.0169 -0.6662 -0.5449
 4032TIP3    H233656   1.422   4.484   8.497  0.1936  0.9580 -0.8251
 4033TIP3   OH233657   1.034   3.647   1.394 -0.2705 -0.0431 -0.5539
 4033TIP3    H133658   1.008   3.584   1.461 -0.5948  1.6842  1.0129
 4033TIP3    H233659   1.000   3.611   1.313 -1.4076 -1.3316  0.4461
 4034TIP3   OH233660   1.641   5.653   2.115  0.2855  0.0809 -0.6876
 4034TIP3    H133661   1.681   5.717   2.056  0.6436  0.0318 -0.5011
 4034TIP3    H233662   1.560   5.627   2.071 -0.3290  1.3490 -0.3336
 4035TIP3   OH233663   3.242   2.877   8.121 -0.0964 -0.4065  0.0437
 4035TIP3    H133664   3.334   2.875   8.095  0.6730 -0.0962  2.5151
 4035TIP3    H233665   3.235   2.813   8.191 -1.2799  0.9641  1.2532
 4036TIP3   OH233666   5.751   3.843   1.257  0.6346  0.3847 -0.0292
 4036TIP3    H133667   5.672   3.792   1.277  2.9478 -2.7403  2.1165
 4036TIP3    H233668   5.750   3.914   1.322  0.0716 -0.2460  0.6771
 4037TIP3   OH233669   0.590   1.443   7.740 -0.3215 -0.2844  0.5210
 4037TIP3    H133670   0.523   1.376   7.727 -0.2676 -0.5054  1.3167
 4037TIP3    H233671   0.669   1.406   7.701 -0.7088  0.0678 -0.6085
 4038TIP3   OH233672   1.160   1.147   1.834  0.1589  0.1338  1.0470
 4038TIP3    H133673   1.198   1.223   1.789  1.7468 -0.9005  0.5714
 4038TIP3    H233674   1.116   1.185   1.910  1.0109  1.5370  0.8831
 4039TIP3   OH233675   3.616   0.331   2.454  0.2333  0.2121 -0.0889
 4039TIP3    H133676   3.586   0.240   2.450 -0.3209  0.3526  0.7323
 4039TIP3    H233677   3.662   0.338   2.537  1.0723  0.4608 -0.5585
 4040TIP3   OH233678   2.794   0.670   0.987 -0.5362  0.3381  0.5860
 4040TIP3    H133679   2.880   0.712   0.988  0.2628 -1.2040  2.4763
 4040TIP3    H233680   2.743   0.717   1.053 -0.7919  0.5336  0.2540
 4041TIP3   OH233681   6.163   1.485   0.093 -0.2250  0.3991  0.1458
 4041TIP3    H133682   6.199   1.403   0.127 -0.6822  0.5644  1.0478
 4041TIP3    H233683   6.184   1.550   0.160 -2.6294  0.4061  0.9824
 4042TIP3   OH233684   0.607   1.825   0.547  0.6628  0.2343  0.5935
 4042TIP3    H133685   0.548   1.857   0.615 -0.6103 -0.4349 -0.1658
 4042TIP3    H233686   0.550   1.794   0.477  1.8452 -1.6669  0.3700
 4043TIP3   OH233687   0.779   0.458   0.841 -0.7416 -0.2746 -0.2798
 4043TIP3    H133688   0.759   0.532   0.783 -0.1424 -1.2699 -1.8082
 4043TIP3    H233689   0.719   0.389   0.814 -1.4329 -0.3332  1.2636
 4044TIP3   OH233690   3.625   2.512   1.849  0.2077 -0.2427 -0.7697
 4044TIP3    H133691   3.555   2.540   1.909  0.5403  0.7058 -0.8088
 4044TIP3    H233692   3.701   2.564   1.875  0.8372 -1.0835 -0.8969
 4045TIP3   OH233693   4.179   6.001   2.305 -0.3435  0.0563 -0.2297
 4045TIP3    H133694   4.195   5.978   2.397 -2.3794  0.4755  0.2673
 4045TIP3    H233695   4.087   5.978   2.290 -0.0610  0.0237 -2.1748
 4046TIP3   OH233696   5.046   1.175   6.767 -0.0626 -0.3227  0.8551
 4046TIP3    H133697   5.048   1.084   6.737 -1.5459 -0.6465  1.6462
 4046TIP3    H233698   5.128   1.212   6.735  0.1560 -1.6791 -0.2833
 4047TIP3   OH233699   6.512   2.849   1.987  0.5761  0.6157  0.4407
 4047TIP3    H133700   6.472   2.769   1.953 -1.3425  1.1826  1.1820
 4047TIP3    H233701   6.600   2.850   1.950  0.7063 -1.8853  0.5170
 4048TIP3   OH233702   4.332   6.006   7.096  0.3395  0.1675  0.0254
 4048TIP3    H133703   4.378   5.922   7.105 -0.0703  0.0881  2.0072
 4048TIP3    H233704   4.241   5.982   7.083  0.2613  0.2841  0.3348
 4049TIP3   OH233705   2.406   2.768   7.347 -0.2365  0.2767 -0.2808
 4049TIP3    H133706   2.362   2.825   7.410  0.1147 -0.4130  0.6067
 4049TIP3    H233707   2.460   2.827   7.295  1.4542  0.6019  1.7382
 4050TIP3   OH233708   2.185   2.898   7.779 -0.0877 -0.5194 -0.9073
 4050TIP3    H133709   2.168   2.929   7.868 -1.3892  0.9828 -1.6362
 4050TIP3    H233710   2.136   2.816   7.772 -0.2938 -0.4461 -0.3615
 4051TIP3   OH233711   4.569   2.689   8.354 -0.0336  0.0820  0.4008
 4051TIP3    H133712   4.605   2.776   8.336 -1.3204  0.7502  0.9897
 4051TIP3    H233713   4.625   2.654   8.423  0.9699  0.0985 -0.3756
 4052TIP3   OH233714   2.838   1.781   0.760 -0.5618 -0.5350  0.6034
 4052TIP3    H133715   2.751   1.814   0.735  0.2984  1.3191 -0.1057
 4052TIP3    H233716   2.822   1.691   0.788 -2.7114 -0.2416  0.4878
 4053TIP3   OH233717   6.086   2.385   1.272 -0.4445 -0.3193  0.0562
 4053TIP3    H133718   5.995   2.369   1.246 -0.4663  1.0065 -0.7980
 4053TIP3    H233719   6.101   2.326   1.345 -1.7775 -1.0643 -0.2441
 4054TIP3   OH233720   1.159   0.590   0.774 -0.2326  0.6579 -0.0231
 4054TIP3    H133721   1.128   0.680   0.784  0.7398  0.9375  0.7357
 4054TIP3    H233722   1.229   0.582   0.840 -1.1160 -1.0249  0.7651
 4055TIP3   OH233723   0.906   6.872   0.296 -0.2560 -0.3487  0.1098
 4055TIP3    H133724   0.903   6.815   0.219  0.6953  0.1713 -0.3429
 4055TIP3    H233725   0.822   6.858   0.340 -1.3020  0.1420 -1.6161
 4056TIP3   OH233726   2.039   3.931   7.141  0.5837  0.3450  0.1028
 4056TIP3    H133727   2.059   4.016   7.101 -0.4131  1.0593  1.0601
 4056TIP3    H233728   2.094   3.869   7.093  3.8095  1.9010  1.4240
 4057TIP3   OH233729   1.469   4.136   7.825  0.4322 -0.1008 -0.2196
 4057TIP3    H133730   1.495   4.194   7.897  1.6293  1.7310 -2.0162
 4057TIP3    H233731   1.546   4.132   7.769 -0.9697 -0.0887 -2.2555
 4058TIP3   OH233732   5.271   4.562   7.103  0.2309  0.0541 -1.0524
 4058TIP3    H133733   5.238   4.648   7.130 -0.5816 -0.6780  0.3993
 4058TIP3    H233734   5.197   4.521   7.060  0.1959 -0.4098 -0.5628
 4059TIP3   OH233735   1.332   6.093   1.983 -0.0155 -0.3429  0.2005
 4059TIP3    H133736   1.419   6.102   2.024  0.0511 -2.7118  0.6927
 4059TIP3    H233737   1.294   6.016   2.025 -2.1390  0.2934 -0.4658
 4060TIP3   OH233738   5.569   0.788   1.984 -0.0632 -0.1649  0.2400
 4060TIP3    H133739   5.516   0.868   1.985  0.6316  0.3478 -1.4392
 4060TIP3    H233740   5.634   0.803   1.916  1.6451 -1.1850  1.5818
 4061TIP3   OH233741   2.716   0.737   0.304  0.5072 -0.2680 -0.6870
 4061TIP3    H133742   2.716   0.810   0.243  1.6662  1.3816  1.1398
 4061TIP3    H233743   2.687   0.775   0.387  0.8556 -1.9567  0.2690
 4062TIP3   OH233744   3.961   6.561   1.707 -0.1378 -0.6721 -0.0518
 4062TIP3    H133745   3.911   6.606   1.638  0.9613  0.3506 -0.2195
 4062TIP3    H233746   4.003   6.488   1.663  1.2549  0.4695 -0.7220
 4063TIP3   OH233747   0.093   6.152   8.028  0.1661  0.0039 -0.0687
 4063TIP3    H133748   0.131   6.080   7.978 -1.6953 -0.3152 -1.0930
 4063TIP3    H233749   0.050   6.110   8.102 -0.2650  0.1133 -0.2520
 4064TIP3   OH233750   4.918   3.868   1.538 -0.3102  0.4831  0.0523
 4064TIP3    H133751   4.918   3.963   1.548 -1.8164  0.4601  0.5683
 4064TIP3    H233752   4.916   3.854   1.444 -0.4446  0.9758 -0.0219
 4065TIP3   OH233753   5.013   3.140   7.208 -0.5268  0.0149  0.5358
 4065TIP3    H133754   4.932   3.181   7.177 -0.1710 -0.7339 -1.5945
 4065TIP3    H233755   5.077   3.210   7.205 -0.8437  0.3283  1.0679
 4066TIP3   OH233756   6.684   3.758   8.096  0.0029  0.0324 -0.4405
 4066TIP3    H133757   6.697   3.789   8.006 -1.0454  1.0980 -0.2543
 4066TIP3    H233758   6.631   3.678   8.086  0.1987 -0.0591 -0.7814
 4067TIP3   OH233759   0.351   3.650   0.128 -0.6520  0.4753  0.8463
 4067TIP3    H133760   0.266   3.607   0.137 -0.0557 -1.0755 -0.4530
 4067TIP3    H233761   0.351   3.688   0.040  0.1341  0.1164  0.6780
 4068TIP3   OH233762   0.615   3.843   1.006  0.0503 -0.4853  0.5623
 4068TIP3    H133763   0.658   3.854   1.091 -0.6194 -0.2569  0.8842
 4068TIP3    H233764   0.617   3.749   0.990  3.8560 -0.2733 -1.1451
 4069TIP3   OH233765   3.783   0.342   7.150 -0.2574 -0.2712 -0.5092
 4069TIP3    H133766   3.798   0.308   7.062 -1.1839  1.0694 -1.2099
 4069TIP3    H233767   3.761   0.434   7.137  0.1936  0.1056  1.1791
 4070TIP3   OH233768   6.577   0.469   8.453  0.7168  0.4651  0.2069
 4070TIP3    H133769   6.498   0.490   8.503  0.9333  0.6462  0.4723
 4070TIP3    H233770   6.563   0.379   8.423  1.2241 -0.1829  1.8311
 4071TIP3   OH233771   2.805   6.062   1.210  0.4481 -0.2255 -0.0398
 4071TIP3    H133772   2.876   6.071   1.274  0.2068  0.5211  0.1299
 4071TIP3    H233773   2.797   6.149   1.170 -0.2787 -0.3371 -0.1506
 4072TIP3   OH233774   3.845   0.966   8.507  0.2723 -0.2473  0.1836
 4072TIP3    H133775   3.850   0.871   8.515  1.5369 -0.3420 -1.2847
 4072TIP3    H233776   3.922   0.990   8.457 -0.5828  1.4523 -0.4000
 4073TIP3   OH233777   4.356   5.138   2.554  0.1344 -0.7046  0.2128
 4073TIP3    H133778   4.417   5.069   2.530 -0.8829 -1.5725  0.0653
 4073TIP3    H233779   4.398   5.183   2.628  1.1413 -0.9893 -0.1749
 4074TIP3   OH233780   3.956   0.482   0.465  0.6348  0.1086 -0.1622
 4074TIP3    H133781   3.928   0.560   0.418  3.3611  1.0711 -0.3892
 4074TIP3    H233782   3.972   0.417   0.397 -0.6291 -0.3351 -0.0578
 4075TIP3   OH233783   6.520   4.179   8.084  0.3585  0.3896 -0.4458
 4075TIP3    H133784   6.527   4.247   8.017  1.0171  1.9703  1.1290
 4075TIP3    H233785   6.472   4.220   8.155  0.1608 -1.0534  0.2948
 4076TIP3   OH233786   3.702   2.455   8.145  0.1260 -0.0266 -0.0704
 4076TIP3    H133787   3.732   2.516   8.212  1.0317  0.1385 -0.6089
 4076TIP3    H233788   3.716   2.502   8.062  1.6402 -1.2449 -0.5599
 4077TIP3   OH233789   1.316   2.496   1.859  0.1494 -0.0704 -0.2780
 4077TIP3    H133790   1.411   2.492   1.865  0.1893  1.0066  0.0619
 4077TIP3    H233791   1.288   2.542   1.939 -0.6414 -0.2905 -0.4173
 4078TIP3   OH233792   2.081   3.892   2.460 -0.0145  0.1812 -0.0425
 4078TIP3    H133793   2.042   3.806   2.476  1.5289 -0.8911 -1.6360
 4078TIP3    H233794   2.136   3.908   2.537 -0.2036 -0.3264  0.2011
 4079TIP3   OH233795   5.676   5.207   0.007 -0.1120  0.2454  0.2504
 4079TIP3    H133796   5.689   5.256  -0.075  1.7668 -1.8643 -0.8527
 4079TIP3    H233797   5.584   5.182   0.006 -0.7794  2.4586  0.1664
 4080TIP3   OH233798   2.201   2.983   6.716 -0.5365  0.0874  0.4636
 4080TIP3    H133799   2.268   2.998   6.650 -2.4107 -1.5897 -2.0405
 4080TIP3    H233800   2.229   2.903   6.761  0.3003  0.7448  1.1505
 4081TIP3   OH233801   3.905   1.951   1.758 -0.1304  0.4200 -0.0141
 4081TIP3    H133802   3.989   1.978   1.722  1.1857 -0.2294  2.3301
 4081TIP3    H233803   3.896   2.003   1.838 -1.9692  0.4534 -0.2067
 4082TIP3   OH233804   2.399   4.104   0.421 -0.0186 -0.3073  0.4807
 4082TIP3    H133805   2.475   4.160   0.404  0.0525 -0.3239  0.7292
 4082TIP3    H233806   2.326   4.148   0.378  0.5528 -1.5625 -1.9103
 4083TIP3   OH233807   0.505   5.761   0.898  0.3608 -0.0762 -0.5154
 4083TIP3    H133808   0.510   5.714   0.815  0.2898 -2.2436  0.6281
 4083TIP3    H233809   0.422   5.733   0.937  1.0287 -0.2101  0.8830
 4084TIP3   OH233810   0.898   0.299   1.867 -0.7282  0.3702  0.5651
 4084TIP3    H133811   0.842   0.277   1.792 -1.3708  1.2573  0.7635
 4084TIP3    H233812   0.927   0.388   1.849 -1.9423  1.0930  1.9652
 4085TIP3   OH233813   0.481   4.054   7.545  0.2422 -0.2148  0.4546
 4085TIP3    H133814   0.394   4.073   7.512  0.8657 -1.5555 -2.2108
 4085TIP3    H233815   0.503   4.130   7.600 -1.3860  1.6355 -1.2973
 4086TIP3   OH233816   6.815   5.804   1.831  0.0593  0.1422 -0.1034
 4086TIP3    H133817   6.798   5.799   1.925  0.9472 -1.0957  0.0004
 4086TIP3    H233818   6.897   5.853   1.824  0.7332 -0.9571 -0.1327
 4087TIP3   OH233819   2.472   4.319   8.234  0.2013 -0.1849  0.0446
 4087TIP3    H133820   2.448   4.226   8.242 -0.7172  0.0552  0.1582
 4087TIP3    H233821   2.557   4.318   8.190  0.0227 -1.0652 -0.2987
 4088TIP3   OH233822   4.419   3.072   1.096 -0.2630  0.4363 -0.9332
 4088TIP3    H133823   4.358   3.009   1.135  0.9998 -1.8767 -2.4556
 4088TIP3    H233824   4.495   3.071   1.154 -0.7378  1.6326 -0.2467
 4089TIP3   OH233825   2.907   4.254   7.785 -0.5073 -0.1293  0.5530
 4089TIP3    H133826   2.910   4.316   7.712 -0.4321 -0.6000  0.1460
 4089TIP3    H233827   2.905   4.168   7.743  2.2016 -0.5551  1.0853
 4090TIP3   OH233828   1.887   3.585   1.097  0.0190  0.2621 -0.9841
 4090TIP3    H133829   1.842   3.577   1.181 -0.3649 -2.9760 -1.3932
 4090TIP3    H233830   1.905   3.679   1.089 -2.7525  1.1228  1.1984
 4091TIP3   OH233831   2.236   0.105   8.017  0.1917 -0.2508  0.1531
 4091TIP3    H133832   2.225   0.165   8.091  0.2435  0.2111 -0.2090
 4091TIP3    H233833   2.322   0.128   7.981 -0.2411  0.1776 -0.6283
 4092TIP3   OH233834   2.788   5.775   2.088 -0.1958  0.1419 -0.0408
 4092TIP3    H133835   2.818   5.686   2.103 -0.9546 -0.2540 -0.7962
 4092TIP3    H233836   2.759   5.806   2.174 -0.2036 -0.4371  0.1653
 4093TIP3   OH233837   3.509   2.921   7.219  0.2315  0.5856 -0.1720
 4093TIP3    H133838   3.508   3.014   7.196 -0.3267  1.8059  3.9580
 4093TIP3    H233839   3.419   2.903   7.247  0.6875 -0.7600  0.4918
 4094TIP3   OH233840   6.012   2.481   0.752  0.1202 -0.2026  0.1876
 4094TIP3    H133841   5.986   2.406   0.805 -1.1660  0.7650  0.9998
 4094TIP3    H233842   6.028   2.445   0.665 -3.0868 -1.0779 -0.1541
 4095TIP3   OH233843   3.308   0.882   8.360 -0.6002  0.1782 -0.5032
 4095TIP3    H133844   3.390   0.931   8.368  0.6092 -1.9606  1.4159
 4095TIP3    H233845   3.287   0.885   8.267  2.6978 -0.7779 -1.4013
 4096TIP3   OH233846   0.735   5.659   0.343 -0.0395  0.6697 -0.6929
 4096TIP3    H133847   0.769   5.571   0.356  0.4829  0.5324 -2.7460
 4096TIP3    H233848   0.805   5.717   0.373  0.2514  0.3934 -0.8360
 4097TIP3   OH233849   6.719   1.106   8.037 -0.0169 -0.5661 -0.1036
 4097TIP3    H133850   6.715   1.198   8.062  0.1492 -0.0352 -1.8806
 4097TIP3    H233851   6.645   1.094   7.977  1.8278 -0.7053 -2.4664
 4098TIP3   OH233852   2.003   4.900   0.604 -0.5310 -0.4881  0.2669
 4098TIP3    H133853   2.014   4.984   0.560 -1.0869 -0.0249  0.9907
 4098TIP3    H233854   1.916   4.905   0.643  0.7356  0.0254  3.2741
 4099TIP3   OH233855   0.762   2.766   7.671 -0.4792 -0.0207 -0.0871
 4099TIP3    H133856   0.822   2.823   7.622  0.0474 -0.0050  0.5657
 4099TIP3    H233857   0.701   2.734   7.605 -0.3924  0.7966 -0.5741
 4100TIP3   OH233858   0.662   3.578   7.763 -0.0937  0.3309  0.2906
 4100TIP3    H133859   0.677   3.526   7.684  0.9405 -0.0217  0.7043
 4100TIP3    H233860   0.600   3.646   7.735  0.5336  0.4374 -0.9279
 4101TIP3   OH233861   2.239   5.558   1.211  0.4778 -0.3027  0.5085
 4101TIP3    H133862   2.219   5.490   1.276 -0.9679 -0.1335  0.2633
 4101TIP3    H233863   2.324   5.533   1.176  1.9185  0.2387  3.3011
 4102TIP3   OH233864   6.407   1.581   0.516 -0.0601  0.3895  0.2917
 4102TIP3    H133865   6.378   1.490   0.522 -0.8717  0.6283  0.0231
 4102TIP3    H233866   6.443   1.589   0.427 -1.2199  0.6796 -0.1641
 4103TIP3   OH233867   5.379   5.463   1.104 -0.0648  0.3084 -0.2852
 4103TIP3    H133868   5.441   5.391   1.109 -1.4709 -1.0842 -1.7259
 4103TIP3    H233869   5.434   5.541   1.091  1.4415 -0.5996  0.3716
 4104TIP3   OH233870   6.114   5.524   0.544 -0.1803  0.6500 -0.4091
 4104TIP3    H133871   6.141   5.501   0.455 -0.0225  0.1020 -0.2281
 4104TIP3    H233872   6.093   5.440   0.585 -1.5139  0.9993 -0.3273
 4105TIP3   OH233873   5.335   4.378   7.293 -0.6483  0.0685  0.8749
 4105TIP3    H133874   5.412   4.339   7.253 -1.4060 -0.2152 -0.3654
 4105TIP3    H233875   5.306   4.444   7.230 -2.0660 -0.6166  0.7618
 4106TIP3   OH233876   0.919   3.812   0.530  0.5005 -0.0504 -0.3409
 4106TIP3    H133877   0.886   3.746   0.469 -2.1886  1.6833 -0.9349
 4106TIP3    H233878   0.886   3.784   0.615 -0.3100  0.2732 -0.5348
 4107TIP3   OH233879   1.373   0.469   1.317 -0.5429  0.3105  0.1851
 4107TIP3    H133880   1.354   0.378   1.295  0.2877 -0.3216  1.8506
 4107TIP3    H233881   1.373   0.515   1.234  1.3710 -1.6787 -1.0129
 4108TIP3   OH233882   2.278   4.456   7.916 -0.2122  1.3447 -0.1745
 4108TIP3    H133883   2.333   4.386   7.880 -0.8290 -0.0345  1.4676
 4108TIP3    H233884   2.289   4.528   7.854  0.9159  0.0200 -1.6089
 4109TIP3   OH233885   0.963   0.463   1.041  0.1462 -0.0659 -0.2144
 4109TIP3    H133886   0.914   0.418   1.109 -0.1192  2.5813  1.4938
 4109TIP3    H233887   0.904   0.463   0.965 -0.9123 -0.2698  0.5827
 4110TIP3   OH233888   1.079   4.919   1.639  0.7544  0.2120 -0.1776
 4110TIP3    H133889   1.115   4.905   1.727 -1.4382  0.6879  0.8506
 4110TIP3    H233890   0.990   4.951   1.654  0.3431  0.3727 -2.5900
 4111TIP3   OH233891   3.298   4.441   2.984 -0.3402 -0.8153 -0.2256
 4111TIP3    H133892   3.331   4.510   2.926  1.6950 -1.1002  0.5381
 4111TIP3    H233893   3.233   4.394   2.930  0.1016  0.0916 -1.6144
 4112TIP3   OH233894   4.000   3.040   7.226  0.3618  0.6624 -0.7919
 4112TIP3    H133895   3.957   3.111   7.273 -1.0665  1.0084 -2.5583
 4112TIP3    H233896   3.942   2.964   7.238 -0.0174  0.7524 -1.9508
 4113TIP3   OH233897   3.416   1.922   8.050 -0.1135 -0.4307 -0.5121
 4113TIP3    H133898   3.469   2.001   8.039  1.5907 -1.5214 -0.4279
 4113TIP3    H233899   3.442   1.866   7.977 -1.1774 -0.9996 -0.4692
 4114TIP3   OH233900   3.263   5.604   1.970  0.0491 -0.0443  0.5455
 4114TIP3    H133901   3.260   5.698   1.953 -0.3631 -0.1454  0.0315
 4114TIP3    H233902   3.171   5.579   1.980  0.1638 -0.3779  0.7752
 4115TIP3   OH233903   5.268   0.085   0.633 -0.3896  0.5139 -0.5755
 4115TIP3    H133904   5.223   0.164   0.603 -1.1082  0.5429  0.5243
 4115TIP3    H233905   5.208   0.045   0.696  0.6534 -0.0420  0.1029
 4116TIP3   OH233906   6.879   4.327   1.282 -0.0712 -0.0898 -0.4110
 4116TIP3    H133907   6.801   4.309   1.334  0.9607  0.8781  1.6038
 4116TIP3    H233908   6.849   4.326   1.192 -2.5591  0.8585  0.3229
 4117TIP3   OH233909   0.438   0.890   0.457 -0.0003  0.1214 -0.2211
 4117TIP3    H133910   0.459   0.797   0.466  1.7291  0.6061  1.3544
 4117TIP3    H233911   0.417   0.901   0.365  2.7499 -1.2782 -1.1080
 4118TIP3   OH233912   5.898   2.971   0.117  0.0758 -0.2281  0.7359
 4118TIP3    H133913   5.851   2.893   0.089  2.2730 -1.2551 -0.3224
 4118TIP3    H233914   5.914   3.020   0.036 -0.5706  0.9490  1.2887
 4119TIP3   OH233915   5.625   2.765   8.276 -0.0003 -0.0105 -0.1255
 4119TIP3    H133916   5.574   2.807   8.207  2.5868  0.8404 -1.6472
 4119TIP3    H233917   5.606   2.671   8.267  1.1621 -0.0617 -2.8541
 4120TIP3   OH233918   0.548   0.340   7.985  0.5520  0.2087  0.5426
 4120TIP3    H133919   0.607   0.290   8.042  1.8850  1.0243 -0.1037
 4120TIP3    H233920   0.484   0.275   7.956  1.5390 -0.8628  0.6812
 4121TIP3   OH233921   4.687   0.429   2.073  0.7195 -1.0259  0.1315
 4121TIP3    H133922   4.617   0.410   2.135 -0.0425  1.0412 -0.0141
 4121TIP3    H233923   4.660   0.385   1.992 -0.1173 -0.7144  0.2385
 4122TIP3   OH233924   0.141   5.187   6.817 -0.0481  0.2241  0.1770
 4122TIP3    H133925   0.170   5.105   6.855  0.9175 -0.9978 -2.8731
 4122TIP3    H233926   0.210   5.249   6.837  3.3017 -1.7350 -3.7933
 4123TIP3   OH233927   1.471   0.516   1.823  0.0164  0.3946  0.4886
 4123TIP3    H133928   1.413   0.520   1.747  2.1448 -0.7779 -1.3491
 4123TIP3    H233929   1.430   0.573   1.888 -2.6174  0.3804 -1.0174
 4124TIP3   OH233930   6.476   2.040   8.380  0.3791  0.1491 -0.2870
 4124TIP3    H133931   6.492   2.004   8.292 -1.9553  0.0828 -0.7323
 4124TIP3    H233932   6.564   2.059   8.413  1.3280  0.6112 -2.8074
 4125TIP3   OH233933   6.610   4.658   7.944 -0.0527  0.3600 -0.3746
 4125TIP3    H133934   6.685   4.718   7.945  1.2548 -1.2216  0.5900
 4125TIP3    H233935   6.563   4.678   8.025 -0.0083  0.5442 -0.3937
 4126TIP3   OH233936   5.672   5.615   0.761 -0.3022  0.0019  0.3273
 4126TIP3    H133937   5.686   5.641   0.670  1.6889  0.4541  0.7285
 4126TIP3    H233938   5.637   5.526   0.755  0.0706 -0.0771 -0.8813
 4127TIP3   OH233939   0.567   3.641   0.297  0.3656  0.3108 -0.5579
 4127TIP3    H133940   0.636   3.676   0.240 -1.5102  3.6839 -1.0020
 4127TIP3    H233941   0.492   3.628   0.239 -0.5966  0.6112  0.5838
 4128TIP3   OH233942   3.075   0.096   0.258 -0.3150 -0.0120 -0.4575
 4128TIP3    H133943   3.009   0.029   0.280  0.1782 -0.2418  0.3650
 4128TIP3    H233944   3.091   0.083   0.165  0.9415 -2.1616 -0.0238
 4129TIP3   OH233945   5.648   3.252   7.957 -0.4720 -0.3364  1.5278
 4129TIP3    H133946   5.648   3.157   7.969 -1.0589 -0.6161 -0.3644
 4129TIP3    H233947   5.621   3.265   7.866  2.6999  1.5325  0.7129
 4130TIP3   OH233948   6.082   6.502   0.806 -0.3520 -0.0392  0.3725
 4130TIP3    H133949   5.997   6.520   0.847 -0.0070  1.7694  0.3655
 4130TIP3    H233950   6.101   6.411   0.830 -1.9073 -0.2234  1.0451
 4131TIP3   OH233951   2.960   3.357   1.321 -0.3092 -0.1239  0.1519
 4131TIP3    H133952   2.891   3.422   1.305  1.0427  1.6107  1.0585
 4131TIP3    H233953   2.992   3.376   1.409  1.1638 -1.0342 -0.1475
 4132TIP3   OH233954   6.563   1.529   6.737  0.2405  0.0116 -0.4131
 4132TIP3    H133955   6.506   1.483   6.798 -0.7274  0.6970 -0.7830
 4132TIP3    H233956   6.531   1.619   6.738  4.1597  1.7231  2.9336
 4133TIP3   OH233957   2.901   3.537   8.389 -0.2588 -0.4914 -0.5841
 4133TIP3    H133958   2.843   3.499   8.323  1.0806 -3.6872 -0.0872
 4133TIP3    H233959   2.918   3.465   8.450  1.2072  1.4221  1.4022
 4134TIP3   OH233960   0.146   5.549   1.607 -0.4838 -0.5155  0.0712
 4134TIP3    H133961   0.053   5.532   1.594 -0.4370 -0.1430 -0.7977
 4134TIP3    H233962   0.184   5.462   1.623 -1.0489 -0.6098  0.9726
 4135TIP3   OH233963   2.491   3.253   0.316  0.3577 -0.2582  0.5238
 4135TIP3    H133964   2.485   3.349   0.321  0.9306 -0.0353 -1.8540
 4135TIP3    H233965   2.413   3.227   0.266 -0.4223 -1.2008  2.1547
 4136TIP3   OH233966   2.167   5.283   0.752  0.3545  0.1647 -0.2134
 4136TIP3    H133967   2.207   5.367   0.730 -2.7926  1.3685 -1.8293
 4136TIP3    H233968   2.241   5.229   0.782  2.6201  3.1623  0.0678
 4137TIP3   OH233969   4.181   2.661   6.840  0.2585 -0.0018  1.0765
 4137TIP3    H133970   4.252   2.644   6.902 -0.7747  0.2597  2.3745
 4137TIP3    H233971   4.216   2.633   6.756  2.7182  2.1277  1.2697
 4138TIP3   OH233972   5.913   5.109   2.173  0.0703 -0.3610  0.2399
 4138TIP3    H133973   5.830   5.112   2.219  0.4836  2.1416  0.9970
 4138TIP3    H233974   5.976   5.077   2.239 -0.1354 -1.5411 -0.1141
 4139TIP3   OH233975   4.710   6.584   7.890 -0.1798  0.1300 -0.3352
 4139TIP3    H133976   4.771   6.511   7.881  2.2207  2.0344 -0.6482
 4139TIP3    H233977   4.714   6.607   7.983 -1.3829 -0.4350 -0.1170
 4140TIP3   OH233978   6.824   5.634   7.360  0.0024  0.2135  0.1874
 4140TIP3    H133979   6.752   5.698   7.362  1.5275  2.0281 -0.5937
 4140TIP3    H233980   6.797   5.571   7.293  0.0474  2.0603 -1.6586
 4141TIP3   OH233981   5.183   3.302   1.407 -0.1675 -0.0018  0.0625
 4141TIP3    H133982   5.137   3.376   1.368 -2.5577 -0.7793  1.1823
 4141TIP3    H233983   5.184   3.321   1.501 -0.7501 -1.3169  0.3583
 4142TIP3   OH233984   1.168   5.038   0.719  0.3856  0.4224  0.7296
 4142TIP3    H133985   1.200   5.125   0.740  3.3755 -0.2719 -0.5020
 4142TIP3    H233986   1.183   5.028   0.625 -0.3749 -1.2535  0.7398
 4143TIP3   OH233987   5.172   1.487   0.127  0.5743 -0.2915  0.3178
 4143TIP3    H133988   5.140   1.432   0.199  0.5666 -0.3781  0.2499
 4143TIP3    H233989   5.163   1.431   0.049  1.1210 -0.4068  0.3306
 4144TIP3   OH233990   3.999   4.778   7.102 -0.4099  0.1509 -0.0755
 4144TIP3    H133991   4.046   4.862   7.097  1.2521 -0.6933  0.6239
 4144TIP3    H233992   3.952   4.782   7.185 -3.0674  1.6667 -1.4912
 4145TIP3   OH233993   0.216   5.743   2.937 -0.5315  0.2795  0.0436
 4145TIP3    H133994   0.147   5.681   2.914 -0.7525  0.8994 -1.0081
 4145TIP3    H233995   0.287   5.688   2.971 -1.4576 -0.3808  0.9997
 4146TIP3   OH233996   1.871   6.708   8.026  0.2873  0.2755  0.0637
 4146TIP3    H133997   1.944   6.761   8.056  0.3330  0.4232 -0.3014
 4146TIP3    H233998   1.819   6.691   8.104  0.4351  0.6038  0.2315
 4147TIP3   OH233999   6.563   4.532   0.713 -0.0549 -0.0798 -0.2228
 4147TIP3    H134000   6.476   4.552   0.679 -0.6692 -1.8556  0.2125
 4147TIP3    H234001   6.623   4.559   0.643 -1.0064  0.3478 -0.8856
 4148TIP3   OH234002   3.355   0.103   1.899 -0.0977 -0.0326  0.1665
 4148TIP3    H134003   3.265   0.128   1.921 -0.0338  0.6618 -0.3065
 4148TIP3    H234004   3.359   0.114   1.804  0.9879  1.6832  0.3720
 4149TIP3   OH234005   4.412   0.191   7.523 -0.0044  0.2974 -0.2635
 4149TIP3    H134006   4.430   0.119   7.462  0.3010  0.5619 -0.4937
 4149TIP3    H234007   4.364   0.255   7.471  2.7165  1.8330 -1.1313
 4150TIP3   OH234008   5.378   4.522   2.500  0.5151  0.2572  0.4347
 4150TIP3    H134009   5.400   4.435   2.531 -0.2410  0.4532  1.5915
 4150TIP3    H234010   5.426   4.581   2.558 -0.4563  0.6234  0.8899
 4151TIP3   OH234011   5.118   0.806   8.142 -0.1719  0.0814 -0.1293
 4151TIP3    H134012   5.147   0.716   8.159 -0.8272 -0.1507 -0.2028
 4151TIP3    H234013   5.024   0.798   8.128  0.1189  0.4019 -2.7576
 4152TIP3   OH234014   1.434   5.728   2.437 -0.0098  0.4458 -0.0395
 4152TIP3    H134015   1.441   5.660   2.370  0.4301 -0.7745  1.1884
 4152TIP3    H234016   1.442   5.680   2.520  0.8523  2.0624  0.8593
 4153TIP3   OH234017   2.442   0.705   8.508 -0.0531 -0.2043 -0.4008
 4153TIP3    H134018   2.442   0.738   8.597  2.1223 -0.3515 -0.2890
 4153TIP3    H234019   2.419   0.781   8.454  1.4638  0.6589  0.1069
 4154TIP3   OH234020   3.677   3.667   1.380  0.1878 -0.2763  0.1532
 4154TIP3    H134021   3.651   3.756   1.353 -0.7611  0.2295  2.5377
 4154TIP3    H234022   3.754   3.648   1.326 -0.6221  1.2546 -1.6830
 4155TIP3   OH234023   1.827   4.600   7.797  0.0216  0.4449  0.0382
 4155TIP3    H134024   1.856   4.666   7.735 -0.5005  0.9011  0.2668
 4155TIP3    H234025   1.732   4.596   7.786 -0.4977  2.4644  2.5760
 4156TIP3   OH234026   2.966   0.372   1.624 -0.4381  0.0344  0.1351
 4156TIP3    H134027   2.904   0.374   1.551 -0.2766  0.9945  0.0051
 4156TIP3    H234028   2.976   0.464   1.649  0.7221 -0.1337  0.3359
 4157TIP3   OH234029   4.495   5.950   1.247  0.4738  0.2145  0.5362
 4157TIP3    H134030   4.500   6.031   1.196 -0.3113 -0.0502  0.0194
 4157TIP3    H234031   4.576   5.949   1.298  0.4079  1.4323  0.7086
 4158TIP3   OH234032   2.999   0.570   8.003 -0.2287  0.5485 -0.3667
 4158TIP3    H134033   2.997   0.477   8.024  0.2154  0.2433 -1.6327
 4158TIP3    H234034   2.907   0.597   8.006 -0.8670 -0.7867 -3.5389
 4159TIP3   OH234035   3.954   4.265   7.434  0.2603 -0.3757  0.0683
 4159TIP3    H134036   3.983   4.356   7.441  1.4492 -0.7029 -0.3954
 4159TIP3    H234037   4.017   4.224   7.374 -1.2047 -1.1181 -1.0202
 4160TIP3   OH234038   6.538   4.669   7.094 -0.1196  0.7007  0.1019
 4160TIP3    H134039   6.626   4.670   7.057 -0.2284  1.2061 -0.1623
 4160TIP3    H234040   6.484   4.708   7.026 -0.9534 -1.6973 -0.7149
 4161TIP3   OH234041   0.623   4.633   1.178 -0.0856 -0.0643 -0.1929
 4161TIP3    H134042   0.646   4.555   1.128 -4.1579 -1.4262 -0.3313
 4161TIP3    H234043   0.671   4.705   1.136  1.0160 -1.9580 -2.3753
 4162TIP3   OH234044   3.662   0.388   7.608 -0.3296  0.2123 -0.1811
 4162TIP3    H134045   3.663   0.434   7.524  0.1958  0.2512 -0.1520
 4162TIP3    H234046   3.719   0.438   7.664  3.4206 -2.4545 -1.2161
 4163TIP3   OH234047   0.273   3.801   8.040 -0.4757 -0.4165  0.5538
 4163TIP3    H134048   0.306   3.890   8.027 -0.6662 -0.1757  1.6621
 4163TIP3    H234049   0.188   3.813   8.084 -0.8277 -1.1260  0.0860
 4164TIP3   OH234050   0.886   5.785   1.207  0.3433 -0.1882  0.2389
 4164TIP3    H134051   0.979   5.774   1.185  0.6365  0.3834  1.1361
 4164TIP3    H234052   0.839   5.741   1.135  1.2740  0.5137 -0.8275
 4165TIP3   OH234053   0.721   2.739   2.124  0.0230  0.6485 -0.3777
 4165TIP3    H134054   0.691   2.720   2.213  1.6181 -1.4113 -0.2031
 4165TIP3    H234055   0.687   2.827   2.105 -2.4046  0.1631  1.3170
 4166TIP3   OH234056   1.278   6.614   8.442  0.1525 -0.8490  0.2700
 4166TIP3    H134057   1.225   6.571   8.375 -1.4189  0.3569  0.6671
 4166TIP3    H234058   1.293   6.547   8.508 -0.4114 -1.3671 -0.1203
 4167TIP3   OH234059   5.327   5.958   0.368 -0.5288 -0.3865  0.5375
 4167TIP3    H134060   5.258   6.007   0.323  1.1035 -0.0690 -1.8158
 4167TIP3    H234061   5.284   5.880   0.401 -1.8371 -0.8131 -1.9286
 4168TIP3   OH234062   5.373   3.945   1.115  0.2187 -0.0385  0.2654
 4168TIP3    H134063   5.424   3.994   1.050  1.1275 -0.1009  0.9177
 4168TIP3    H234064   5.284   3.944   1.079  1.0863 -2.0251 -2.1362
 4169TIP3   OH234065   0.285   1.701   7.727  0.1637 -0.7964  0.8064
 4169TIP3    H134066   0.223   1.629   7.717  0.4449 -1.3919  2.9247
 4169TIP3    H234067   0.328   1.708   7.641 -3.0020 -0.1132 -0.8690
 4170TIP3   OH234068   6.802   3.893   7.880  0.4543 -0.5329  0.1225
 4170TIP3    H134069   6.871   3.859   7.824  0.5032  1.6790 -1.2872
 4170TIP3    H234070   6.847   3.956   7.937 -0.2360  0.4399 -0.3684
 4171TIP3   OH234071   0.984   2.619   0.586 -0.0603 -0.2034  0.7127
 4171TIP3    H134072   0.893   2.603   0.609 -0.2276  0.3011  0.4341
 4171TIP3    H234073   0.980   2.666   0.503  0.5046 -1.3172  0.0276
 4172TIP3   OH234074   0.008   4.873   2.991 -0.5426  0.1398 -0.4678
 4172TIP3    H134075  -0.032   4.865   3.078 -0.9101  4.4699 -0.0068
 4172TIP3    H234076  -0.064   4.897   2.933  0.3822  2.7150 -0.7152
 4173TIP3   OH234077   6.455   4.853   3.224  0.4342  0.3392 -0.0850
 4173TIP3    H134078   6.425   4.941   3.203 -0.1881  0.1785  0.1159
 4173TIP3    H234079   6.389   4.795   3.187  1.0650 -0.0668 -0.6044
 4174TIP3   OH234080   2.334   2.963   3.156  0.2412  0.4689 -0.1486
 4174TIP3    H134081   2.427   2.971   3.135  0.1208  3.0675  0.0846
 4174TIP3    H234082   2.294   2.930   3.075  1.4888 -2.3238  0.2361
 4175TIP3   OH234083   5.314   2.739   7.561  0.7726  0.4190 -0.2720
 4175TIP3    H134084   5.379   2.673   7.536  0.6309  0.6192 -1.2183
 4175TIP3    H234085   5.280   2.772   7.477  0.2655  1.1184  0.1973
 4176TIP3   OH234086   2.420   6.264   2.819  0.2291  0.4844  0.2841
 4176TIP3    H134087   2.418   6.251   2.914  1.1262 -0.1219  0.2348
 4176TIP3    H234088   2.333   6.298   2.798 -0.2034  0.0104  1.2279
 4177TIP3   OH234089   3.238   1.816   0.781  0.0394 -0.7355  0.4821
 4177TIP3    H134090   3.226   1.897   0.830  4.4772  0.9437 -0.7362
 4177TIP3    H234091   3.197   1.832   0.696  2.1548  1.0083 -0.2985
 4178TIP3   OH234092   5.938   6.086   1.778  0.0536  0.3846 -0.0860
 4178TIP3    H134093   5.971   6.175   1.783  0.0189  0.5522 -2.0761
 4178TIP3    H234094   5.844   6.096   1.763  0.0965  0.0377 -0.6199
 4179TIP3   OH234095   2.531   5.661   7.847 -0.0558 -0.2939  0.7405
 4179TIP3    H134096   2.597   5.730   7.853  1.0572 -1.1518 -0.8350
 4179TIP3    H234097   2.510   5.639   7.937  0.6825  1.0536  1.2594
 4180TIP3   OH234098   5.429   3.212   1.395 -0.2855  0.3827 -1.0397
 4180TIP3    H134099   5.480   3.267   1.335  1.1177 -0.9348 -1.1259
 4180TIP3    H234100   5.351   3.264   1.415 -0.4198  1.1961 -3.3487
 4181TIP3   OH234101   5.190   4.212   1.037  0.2596 -0.6650  0.0694
 4181TIP3    H134102   5.257   4.179   1.098 -0.2450 -3.2433 -0.6255
 4181TIP3    H234103   5.200   4.158   0.959 -1.7170 -0.1889 -0.5834
 4182TIP3   OH234104   0.443   6.501   0.926 -0.5788  0.2494 -0.0815
 4182TIP3    H134105   0.494   6.566   0.973 -0.4855  0.1749 -0.0796
 4182TIP3    H234106   0.353   6.514   0.956 -0.5306  0.2532  0.0585
 4183TIP3   OH234107   3.298   0.334   6.938  0.1046 -0.7055 -0.0159
 4183TIP3    H134108   3.305   0.366   6.848  0.9662 -1.0291 -0.0748
 4183TIP3    H234109   3.204   0.335   6.957 -0.6156 -4.4274 -2.3160
 4184TIP3   OH234110   1.750   0.749   1.305  0.1202 -0.1685  0.3819
 4184TIP3    H134111   1.820   0.698   1.262 -0.3613  1.2199 -2.2306
 4184TIP3    H234112   1.711   0.687   1.366  1.0829 -2.2344 -0.9427
 4185TIP3   OH234113   1.622   1.369   7.673 -0.2054 -0.5714  0.2036
 4185TIP3    H134114   1.545   1.423   7.653 -0.2188 -0.5720  0.2523
 4185TIP3    H234115   1.694   1.413   7.628 -0.5180 -1.5222 -1.2908
 4186TIP3   OH234116   5.650   2.336   0.726 -0.0822 -0.0212  0.7220
 4186TIP3    H134117   5.587   2.401   0.695  0.2240 -0.3160 -0.6301
 4186TIP3    H234118   5.691   2.375   0.803 -0.4439  1.0587  0.3802
 4187TIP3   OH234119   0.921   5.949   0.694 -0.6358  0.4471  0.0800
 4187TIP3    H134120   0.867   5.976   0.769 -2.0521  1.5089 -1.2538
 4187TIP3    H234121   0.989   6.016   0.688  0.7144 -0.7144  1.5658
 4188TIP3   OH234122   4.069   6.191   0.539  0.9801 -0.4085 -0.1275
 4188TIP3    H134123   4.091   6.281   0.515  0.8253 -0.8088 -1.9040
 4188TIP3    H234124   4.076   6.141   0.457 -5.4277 -0.8325 -0.9897
 4189TIP3   OH234125   6.402   0.046   0.933  0.1415  0.1160 -0.1650
 4189TIP3    H134126   6.439   0.069   1.019 -3.2645  3.0563  0.7555
 4189TIP3    H234127   6.463   0.084   0.870  1.5164 -0.0812  1.0022
 4190TIP3   OH234128   5.926   6.383   1.040 -0.4135  0.4336 -0.6159
 4190TIP3    H134129   5.884   6.319   1.098 -1.0333  0.5954 -0.8699
 4190TIP3    H234130   5.858   6.403   0.975 -0.1580  1.1942 -0.6562
 4191TIP3   OH234131   6.156   2.031   8.328 -0.2561 -0.0232  0.4088
 4191TIP3    H134132   6.216   1.962   8.356 -1.1524 -0.9476  0.1003
 4191TIP3    H234133   6.183   2.108   8.378  0.0393 -0.8833  1.6192
 4192TIP3   OH234134   1.014   4.699   8.287  0.1648 -0.1795  0.6169
 4192TIP3    H134135   0.953   4.703   8.361 -0.2446 -0.4291  0.2950
 4192TIP3    H234136   0.966   4.737   8.214 -0.0434 -1.4356  0.0767
 4193TIP3   OH234137   6.730   4.607   7.420 -0.5491  0.0255 -0.3318
 4193TIP3    H134138   6.789   4.673   7.383  1.3448 -1.3320  0.1110
 4193TIP3    H234139   6.763   4.594   7.509 -1.6686 -0.6358 -0.0041
 4194TIP3   OH234140   0.416   0.450   2.068  0.5246 -0.5367  0.3548
 4194TIP3    H134141   0.464   0.474   1.989 -1.4471  1.5050 -0.3213
 4194TIP3    H234142   0.424   0.525   2.126 -0.4094 -0.8599  0.9291
 4195TIP3   OH234143   4.283   0.748   1.924  0.0221 -0.1127  0.1147
 4195TIP3    H134144   4.278   0.839   1.894  0.8533 -0.3338 -0.7272
 4195TIP3    H234145   4.373   0.737   1.953 -0.5039 -0.2028  1.8334
 4196TIP3   OH234146   6.464   3.714   2.397 -0.8584 -0.4491 -0.6731
 4196TIP3    H134147   6.414   3.786   2.359 -0.5370 -1.1360 -2.5211
 4196TIP3    H234148   6.516   3.754   2.466 -0.6197  1.1059 -1.7149
 4197TIP3   OH234149   1.927   0.224   7.262 -0.4643  0.1030 -0.3245
 4197TIP3    H134150   1.955   0.144   7.307  0.6491 -0.1936 -1.4739
 4197TIP3    H234151   1.882   0.275   7.329 -1.8365 -1.7836  0.2568
 4198TIP3   OH234152   0.657   5.803   1.644  0.2589 -0.0208 -0.2411
 4198TIP3    H134153   0.714   5.783   1.719 -0.0960  1.8351  0.5967
 4198TIP3    H234154   0.576   5.836   1.684 -0.4136 -0.1597 -1.4429
 4199TIP3   OH234155   3.347   1.194   2.609 -1.3325  0.3305  0.7405
 4199TIP3    H134156   3.348   1.206   2.514  0.0018 -0.5463  0.6195
 4199TIP3    H234157   3.355   1.282   2.645 -2.1891  0.7037  0.0549
 4200TIP3   OH234158   6.809   2.797   1.060  0.5578  0.0026  0.0960
 4200TIP3    H134159   6.782   2.877   1.015 -0.4381 -1.1862 -1.5113
 4200TIP3    H234160   6.818   2.732   0.991  1.0805 -1.3626  1.3929
 4201TIP3   OH234161   0.155   0.670   0.682 -0.0617  0.6463 -0.0553
 4201TIP3    H134162   0.063   0.695   0.669 -0.4193  0.0609  1.2069
 4201TIP3    H234163   0.174   0.610   0.610 -1.3100 -0.8380  0.7938
 4202TIP3   OH234164   5.549   0.825   2.359 -0.3610  0.0249 -0.2373
 4202TIP3    H134165   5.551   0.778   2.443  1.2215 -0.1107 -0.3087
 4202TIP3    H234166   5.605   0.901   2.373  0.3383 -0.2659 -1.2861
 4203TIP3   OH234167   2.856   1.769   0.207 -0.2047  0.0244  0.4091
 4203TIP3    H134168   2.891   1.837   0.149 -0.6361  0.8684  1.1103
 4203TIP3    H234169   2.842   1.814   0.291 -0.7329 -0.8724  0.8169
 4204TIP3   OH234170   6.810   3.932   2.765 -0.7021 -0.4299 -0.0867
 4204TIP3    H134171   6.781   3.921   2.674 -0.3217  1.3861 -0.4746
 4204TIP3    H234172   6.768   4.013   2.793 -0.9654 -1.0695  1.4511
 4205TIP3   OH234173   4.375   2.131   7.788  0.1146 -0.1396  0.3558
 4205TIP3    H134174   4.372   2.123   7.883 -0.2311  1.5520  0.5143
 4205TIP3    H234175   4.446   2.072   7.762  0.4806 -0.3292  1.6850
 4206TIP3   OH234176   3.599   2.801   1.136  1.0180 -0.0010  0.4307
 4206TIP3    H134177   3.524   2.755   1.097  0.1732  2.7978 -1.4998
 4206TIP3    H234178   3.670   2.790   1.072 -0.2806  4.3304 -2.1296
 4207TIP3   OH234179   1.812   1.134   8.446  0.2770  0.2463  0.4933
 4207TIP3    H134180   1.906   1.120   8.459  0.0821 -0.3163  1.3678
 4207TIP3    H234181   1.787   1.195   8.516 -0.2650 -0.6701  1.1155
 4208TIP3   OH234182   3.712   2.752   0.238 -0.2119 -0.1930  0.4737
 4208TIP3    H134183   3.777   2.817   0.264 -0.2355  0.1545 -0.3123
 4208TIP3    H234184   3.710   2.756   0.143 -1.4066 -0.1840  0.4791
 4209TIP3   OH234185   5.284   6.498   7.255  0.2774 -0.0749  0.7533
 4209TIP3    H134186   5.200   6.517   7.213  0.4125 -0.5098  0.2826
 4209TIP3    H234187   5.290   6.562   7.326 -0.0910  0.4777  0.2947
 4210TIP3   OH234188   2.827   4.965   1.771 -0.3652  0.0636  0.4024
 4210TIP3    H134189   2.823   5.059   1.759 -0.8907 -0.0235 -0.1026
 4210TIP3    H234190   2.841   4.930   1.683 -0.4576 -0.3465  0.5491
 4211TIP3   OH234191   3.095   3.626   7.230 -0.5876 -0.4460  0.3116
 4211TIP3    H134192   3.101   3.569   7.306  1.4546  1.5958  1.8352
 4211TIP3    H234193   3.175   3.609   7.180  0.0010  0.8818  0.7299
 4212TIP3   OH234194   4.416   4.825   0.617 -0.2731  1.0225  0.2032
 4212TIP3    H134195   4.394   4.790   0.703 -1.9000  1.9939  0.2202
 4212TIP3    H234196   4.428   4.747   0.562 -1.7943  0.3950  0.7147
 4213TIP3   OH234197   6.868   1.112   1.910 -0.3945  0.0010  0.0956
 4213TIP3    H134198   6.780   1.111   1.946  0.0553  1.2804  1.3679
 4213TIP3    H234199   6.856   1.128   1.817 -1.4964  1.0505  0.3907
 4214TIP3   OH234200   2.120   4.220   8.516  0.3188  0.4617  0.2968
 4214TIP3    H134201   2.104   4.314   8.516  0.7288  0.5451  1.1258
 4214TIP3    H234202   2.033   4.180   8.512 -0.0574  0.8977  2.6565
 4215TIP3   OH234203   6.301   5.442   7.990 -0.3582  0.0621 -0.3531
 4215TIP3    H134204   6.360   5.447   8.065 -0.5649  0.2659 -0.2028
 4215TIP3    H234205   6.348   5.486   7.919 -0.6385  0.8784 -0.0311
 4216TIP3   OH234206   5.139   1.530   1.600 -0.5441  0.3456 -0.9497
 4216TIP3    H134207   5.074   1.573   1.544  0.0702  0.3484 -1.6914
 4216TIP3    H234208   5.088   1.485   1.667 -1.2846  0.7091 -1.2576
 4217TIP3   OH234209   0.344   6.117   2.688  0.4140  0.1302 -0.1573
 4217TIP3    H134210   0.371   6.161   2.607  1.4112 -0.4383 -0.1453
 4217TIP3    H234211   0.374   6.174   2.758 -0.7918  0.8173 -0.1749
 4218TIP3   OH234212   1.290   3.766   2.233 -0.5345  0.0155  0.3684
 4218TIP3    H134213   1.249   3.707   2.295  0.0072 -0.0036  0.7128
 4218TIP3    H234214   1.276   3.853   2.270 -0.3907  0.0198  0.4125
 4219TIP3   OH234215   4.001   6.912   1.733  0.5040 -0.5249  0.3129
 4219TIP3    H134216   4.044   6.829   1.715 -0.5008 -1.0983  0.4438
 4219TIP3    H234217   4.071   6.977   1.733  1.3521 -1.4267  0.5737
 4220TIP3   OH234218   3.393   4.021   1.101 -0.7370  0.2512  0.0042
 4220TIP3    H134219   3.385   4.029   1.006  1.0953  0.2595 -0.1950
 4220TIP3    H234220   3.485   4.043   1.119 -0.9763 -0.0259  1.7504
 4221TIP3   OH234221   6.287   4.410   2.024 -0.3289  0.3722  0.1490
 4221TIP3    H134222   6.305   4.495   1.984 -1.3537  0.5673  0.0698
 4221TIP3    H234223   6.287   4.428   2.118  0.1173  0.3179  0.1614
 4222TIP3   OH234224   2.226   4.338   0.265 -0.7636  0.4337 -0.1154
 4222TIP3    H134225   2.148   4.393   0.262 -1.5624 -0.7240 -1.2579
 4222TIP3    H234226   2.268   4.351   0.180 -0.5600 -0.1498 -0.1053
 4223TIP3   OH234227   4.847   5.337   2.195 -0.7310  0.2648  0.4268
 4223TIP3    H134228   4.880   5.371   2.278  2.2164 -0.5800 -0.2816
 4223TIP3    H234229   4.835   5.243   2.211  0.6325 -0.0524 -0.2552
 4224TIP3   OH234230   6.452   6.125   7.631 -0.2208 -0.8342 -0.3346
 4224TIP3    H134231   6.373   6.139   7.578 -0.6163 -1.1224  0.1751
 4224TIP3    H234232   6.489   6.212   7.642 -1.4110 -0.4522  0.8794
 4225TIP3   OH234233   1.519   3.986   7.065  0.1144  0.0173 -0.1833
 4225TIP3    H134234   1.607   3.955   7.089 -0.4634 -0.5121  1.3895
 4225TIP3    H234235   1.529   4.081   7.056  1.0949 -0.1670 -1.2159
 4226TIP3   OH234236   4.308   6.351   0.393 -0.5151 -0.4594  0.0712
 4226TIP3    H134237   4.229   6.335   0.342 -0.9560  2.7637 -0.4547
 4226TIP3    H234238   4.353   6.422   0.347  1.8026 -0.9698  1.3496
 4227TIP3   OH234239   2.727   4.827   2.002 -0.2640  0.2946 -0.0370
 4227TIP3    H134240   2.729   4.878   1.921 -0.2211 -0.8142 -0.7661
 4227TIP3    H234241   2.635   4.824   2.027 -0.4840 -0.5915 -0.8829
 4228TIP3   OH234242   5.802   0.607   2.788 -0.3201  0.1909 -0.3176
 4228TIP3    H134243   5.755   0.663   2.850 -0.6564  0.0398 -0.4309
 4228TIP3    H234244   5.892   0.606   2.819  0.0703  2.1650 -1.2569
 4229TIP3   OH234245   1.444   4.687   1.402 -0.3373  0.0565  0.0453
 4229TIP3    H134246   1.484   4.765   1.364  0.7967 -0.0209  1.0133
 4229TIP3    H234247   1.517   4.638   1.440 -1.2968 -0.2768  1.5812
 4230TIP3   OH234248   2.039   3.780   1.441 -0.3291  0.3259 -0.2249
 4230TIP3    H134249   2.009   3.696   1.476 -0.6275  0.3298 -0.4685
 4230TIP3    H234250   2.114   3.803   1.496  0.4232 -0.6190 -0.8137
 4231TIP3   OH234251   2.113   5.688   0.114  0.1398  0.4222 -0.6641
 4231TIP3    H134252   2.153   5.763   0.070  1.6634 -0.5677 -1.0659
 4231TIP3    H234253   2.119   5.617   0.051 -1.6265  0.0186 -0.4323
 4232TIP3   OH234254   4.588   0.059   0.800  0.1401  0.4741 -0.1198
 4232TIP3    H134255   4.596   0.060   0.895 -0.5123  0.6532 -0.0686
 4232TIP3    H234256   4.554  -0.028   0.780  2.3514 -0.4108 -0.3677
 4233TIP3   OH234257   0.286   3.575   0.414 -0.1332  0.0257  0.3375
 4233TIP3    H134258   0.232   3.651   0.392 -0.2083 -0.7516 -2.5204
 4233TIP3    H234259   0.371   3.594   0.375  0.2017 -0.8436  0.6229
 4234TIP3   OH234260   6.730   3.827   2.998 -0.1874  0.3688 -0.3367
 4234TIP3    H134261   6.704   3.742   2.962 -0.7324  0.2433  0.3532
 4234TIP3    H234262   6.748   3.881   2.920 -0.8862 -0.0439 -0.7894
 4235TIP3   OH234263   6.240   3.598   0.722 -0.1949  0.4011 -0.3204
 4235TIP3    H134264   6.257   3.692   0.718 -1.9659  0.8514  1.1602
 4235TIP3    H234265   6.193   3.578   0.641 -0.2176  0.8890 -0.4271
 4236TIP3   OH234266   6.872   5.827   0.783  0.1863  0.1832  0.5271
 4236TIP3    H134267   6.813   5.772   0.836  0.2255  0.1724  0.5595
 4236TIP3    H234268   6.956   5.823   0.829  0.4205 -0.4347  0.0571
 4237TIP3   OH234269   5.412   1.871   7.658  0.0496  0.1173 -0.1793
 4237TIP3    H134270   5.465   1.893   7.734  1.9935 -2.1553 -0.7488
 4237TIP3    H234271   5.414   1.776   7.654 -1.4048  0.1015 -2.1247
 4238TIP3   OH234272   0.753   4.102   0.086  0.3479 -0.4357  0.2587
 4238TIP3    H134273   0.793   4.081   0.001  0.7145 -1.2854  0.6336
 4238TIP3    H234274   0.781   4.192   0.103  0.2087 -0.2278 -0.5563
 4239TIP3   OH234275   2.848   0.040   7.904  0.4333 -1.0139  0.0005
 4239TIP3    H134276   2.830   0.105   7.836  0.7205  1.7114  2.3397
 4239TIP3    H234277   2.935   0.007   7.883  1.4786  1.4167  0.1684
 4240TIP3   OH234278   3.469   5.307   0.192  0.5656  0.0256 -0.1829
 4240TIP3    H134279   3.440   5.270   0.108 -0.8276 -1.4851  0.9077
 4240TIP3    H234280   3.404   5.277   0.255  2.6020 -0.4974  1.7829
 4241TIP3   OH234281   0.224   4.530   1.088  0.3641  0.2129 -0.5931
 4241TIP3    H134282   0.146   4.581   1.108  0.3129 -0.6900  1.7982
 4241TIP3    H234283   0.297   4.592   1.096  0.0149  0.7619 -1.5543
 4242TIP3   OH234284   2.870   4.377   2.800  0.3599 -0.1505 -0.7406
 4242TIP3    H134285   2.902   4.341   2.883  1.2883 -1.4020 -1.5930
 4242TIP3    H234286   2.943   4.365   2.739  0.0943  1.7394 -1.4969
 4243TIP3   OH234287   0.369   4.996   1.935  0.4750 -0.4416 -0.4781
 4243TIP3    H134288   0.406   5.012   2.022  0.8595  1.2848 -0.9095
 4243TIP3    H234289   0.306   5.068   1.923 -1.5895 -2.1721 -0.5687
 4244TIP3   OH234290   3.483   6.326   1.214  0.1908  0.8478 -0.2988
 4244TIP3    H134291   3.458   6.380   1.140  0.5695  0.8436 -0.4332
 4244TIP3    H234292   3.541   6.382   1.266  0.7658  0.4982 -0.5583
 4245TIP3   OH234293   1.602   5.511   7.576 -0.1542 -0.7141  0.1790
 4245TIP3    H134294   1.569   5.599   7.557 -0.6087 -0.9053  0.0579
 4245TIP3    H234295   1.666   5.524   7.646  1.5248  0.0031 -1.4148
 4246TIP3   OH234296   1.590   1.621   0.469 -0.3396  0.5127  0.5095
 4246TIP3    H134297   1.518   1.586   0.417  0.1889  0.1266  0.0267
 4246TIP3    H234298   1.570   1.595   0.559 -0.3537 -0.3587  0.2647
 4247TIP3   OH234299   3.343   4.860   1.555 -0.6666 -0.2213  0.1408
 4247TIP3    H134300   3.290   4.897   1.484 -0.7228 -1.0250 -0.2426
 4247TIP3    H234301   3.415   4.922   1.566 -0.4091 -0.3068 -0.9280
 4248TIP3   OH234302   0.823   5.085   2.311  0.2106 -0.4626  0.5990
 4248TIP3    H134303   0.845   5.161   2.366  1.4925 -2.0346  2.3574
 4248TIP3    H234304   0.889   5.085   2.242  1.0377 -0.7336  1.3798
 4249TIP3   OH234305   5.986   0.010   1.614 -0.4463  0.4666  0.2490
 4249TIP3    H134306   5.924   0.054   1.556 -0.4039  0.0595 -0.1105
 4249TIP3    H234307   5.991  -0.080   1.580 -0.5089  0.1921  0.9525
 4250TIP3   OH234308   3.187   2.558   7.336 -0.3043  0.2264 -0.1272
 4250TIP3    H134309   3.135   2.484   7.304 -1.7231  1.3569 -0.6041
 4250TIP3    H234310   3.194   2.544   7.430 -2.0983  0.3477  0.0658
 4251TIP3   OH234311   0.566   3.697   7.267  0.0746  0.1978 -0.7539
 4251TIP3    H134312   0.553   3.605   7.244 -0.7315 -0.1966  1.0930
 4251TIP3    H234313   0.518   3.746   7.200 -0.9138 -0.8043 -0.8096
 4252TIP3   OH234314   6.338   4.165   1.894  0.4077 -0.5322  0.2037
 4252TIP3    H134315   6.330   4.249   1.938 -1.4238 -0.6376  0.1617
 4252TIP3    H234316   6.287   4.105   1.948 -0.9317 -0.9213 -1.4048
 4253TIP3   OH234317   4.205   3.516   1.567 -0.3776 -0.4003 -0.2008
 4253TIP3    H134318   4.148   3.578   1.522 -2.2859 -0.1842  2.3199
 4253TIP3    H234319   4.253   3.569   1.630 -0.2023 -1.1332  0.3008
 4254TIP3   OH234320   1.670   5.795   7.214 -0.0571 -0.2929  0.8132
 4254TIP3    H134321   1.657   5.816   7.121  0.3779 -1.3038  0.5224
 4254TIP3    H234322   1.685   5.881   7.255 -0.9217  0.2383  0.0755
 4255TIP3   OH234323   4.753   2.885   8.268 -0.0834  0.2839 -0.4887
 4255TIP3    H134324   4.682   2.937   8.229 -0.3356 -1.1430 -2.0452
 4255TIP3    H234325   4.798   2.947   8.326 -2.4416  1.3053  0.4037
 4256TIP3   OH234326   1.841   2.119   8.021  0.1608  0.3243  0.3893
 4256TIP3    H134327   1.762   2.173   8.023 -0.1695 -0.1319 -0.1011
 4256TIP3    H234328   1.832   2.060   8.096  0.0607  0.3029  0.3611
 4257TIP3   OH234329   4.462   0.909   1.720 -0.8235 -0.4915  0.1365
 4257TIP3    H134330   4.551   0.876   1.731 -1.2590 -1.9332 -0.4657
 4257TIP3    H234331   4.436   0.879   1.633 -1.3173  1.3726 -0.3983
 4258TIP3   OH234332   5.780   5.996   0.013  0.3693  0.3258  0.3441
 4258TIP3    H134333   5.710   5.978   0.076 -1.0363 -0.7495 -1.3962
 4258TIP3    H234334   5.799   6.089   0.023 -2.0673  0.9034  0.2279
 4259TIP3   OH234335   2.136   6.152   0.714 -0.0170  0.2108 -0.3961
 4259TIP3    H134336   2.087   6.077   0.680  0.5719 -0.5446  0.3774
 4259TIP3    H234337   2.069   6.217   0.734 -0.4844  0.1516 -1.6705
 4260TIP3   OH234338   1.628   3.772   7.585  0.7758  0.1828  0.0853
 4260TIP3    H134339   1.574   3.815   7.519 -0.2337 -0.2719  0.5907
 4260TIP3    H234340   1.602   3.813   7.668  1.1983 -0.0592  0.3434
 4261TIP3   OH234341   3.935   4.860   2.652  0.3202  0.1277  0.2989
 4261TIP3    H134342   3.897   4.828   2.570  0.6137  1.8524 -0.5614
 4261TIP3    H234343   4.014   4.908   2.625  0.8807  0.0380  1.6781
 4262TIP3   OH234344   5.886   4.477   7.758 -0.4050  0.1543 -0.3737
 4262TIP3    H134345   5.854   4.566   7.774  1.3023  0.9435 -1.0481
 4262TIP3    H234346   5.948   4.486   7.686 -0.0256 -1.5522 -0.3109
 4263TIP3   OH234347   6.735   2.195   1.296 -0.1332  0.2076 -0.1203
 4263TIP3    H134348   6.810   2.136   1.302 -0.5559 -0.3209  0.0023
 4263TIP3    H234349   6.671   2.147   1.243 -1.2706 -0.2874  1.6312
 4264TIP3   OH234350   3.280   1.935   0.371 -0.2543  0.1028 -0.4018
 4264TIP3    H134351   3.202   1.889   0.403  1.0969 -1.2673  1.0757
 4264TIP3    H234352   3.261   1.950   0.278 -0.4003 -4.5343 -1.3930
 4265TIP3   OH234353   4.767   6.058   6.810 -0.3087 -0.5065 -0.3243
 4265TIP3    H134354   4.818   5.997   6.862 -2.9315 -1.6281  1.1487
 4265TIP3    H234355   4.770   6.022   6.721  2.4730  0.2584 -0.6340
 4266TIP3   OH234356   2.498   6.363   2.060 -0.3585 -0.1617  0.2982
 4266TIP3    H134357   2.416   6.354   2.109 -0.9941  0.5314 -0.6046
 4266TIP3    H234358   2.524   6.454   2.073  0.0968 -0.2855  0.2946
 4267TIP3   OH234359   2.140   3.534   8.541  0.0987 -0.0039 -0.0354
 4267TIP3    H134360   2.119   3.506   8.630 -0.3437  0.0122 -0.1316
 4267TIP3    H234361   2.058   3.570   8.507  0.4212  0.5716 -0.2290
 4268TIP3   OH234362   5.573   0.114   2.887  0.9936  0.4741  0.1304
 4268TIP3    H134363   5.568   0.196   2.838  1.4352  0.0830 -0.5831
 4268TIP3    H234364   5.563   0.046   2.820 -0.5018 -0.0538  0.8476
 4269TIP3   OH234365   4.555   1.997   8.198  0.5259 -0.1615  0.3806
 4269TIP3    H134366   4.586   2.054   8.127 -0.2238 -1.4290 -1.0138
 4269TIP3    H234367   4.573   1.908   8.167  0.0876 -0.7552  1.7559
 4270TIP3   OH234368   3.807   4.610   0.831 -0.6135 -0.2221  0.2835
 4270TIP3    H134369   3.884   4.665   0.819  0.4518 -2.0973 -2.4720
 4270TIP3    H234370   3.747   4.637   0.762 -1.2344 -0.7084  0.6177
 4271TIP3   OH234371   4.278   0.559   7.930 -0.4093 -0.8382  0.4590
 4271TIP3    H134372   4.303   0.644   7.892 -1.0352 -0.2814  1.2435
 4271TIP3    H234373   4.212   0.525   7.869 -0.3162 -0.6538  0.2519
 4272TIP3   OH234374   4.104   2.959   0.053 -0.8553 -0.2583 -0.4086
 4272TIP3    H134375   4.040   2.994   0.115  0.4127  0.5361  0.5051
 4272TIP3    H234376   4.099   2.864   0.064 -2.0062 -0.2267 -0.5097
 4273TIP3   OH234377   3.357   3.102   8.304 -0.0924 -0.4679 -0.0200
 4273TIP3    H134378   3.374   3.060   8.220 -0.4476 -1.0036  0.1674
 4273TIP3    H234379   3.370   3.195   8.288  1.6236 -0.7175 -0.2096
 4274TIP3   OH234380   6.070   6.688   7.746  0.1496 -0.0929  0.0146
 4274TIP3    H134381   6.002   6.626   7.771  0.3704 -0.6575 -0.7413
 4274TIP3    H234382   6.031   6.774   7.761 -1.2698 -0.3729 -1.7228
 4275TIP3   OH234383   2.649   2.217   1.717  0.5183  0.0338 -0.1165
 4275TIP3    H134384   2.679   2.290   1.663 -2.3552  1.8644  0.5007
 4275TIP3    H234385   2.584   2.173   1.662  1.4350 -1.4424 -0.0633
 4276TIP3   OH234386   6.875   0.423   0.676 -0.3247  0.0159  0.1589
 4276TIP3    H134387   6.816   0.444   0.604 -0.8739  0.2848  0.6778
 4276TIP3    H234388   6.874   0.328   0.682 -0.6880  0.0202  0.1477
 4277TIP3   OH234389   5.258   2.270   2.344 -0.4554  0.1047  0.1419
 4277TIP3    H134390   5.349   2.282   2.318 -0.4763 -1.2352 -0.6414
 4277TIP3    H234391   5.259   2.190   2.397 -1.1285  0.2598  0.3981
 4278TIP3   OH234392   6.430   4.538   2.471 -0.1401  0.1058  0.0099
 4278TIP3    H134393   6.378   4.617   2.488  0.0531  0.0838  0.7514
 4278TIP3    H234394   6.512   4.553   2.519  1.0976  0.7131 -2.1861
 4279TIP3   OH234395   5.896   6.395   7.652  0.2983 -0.1375  0.2384
 4279TIP3    H134396   5.954   6.329   7.614  1.1003  0.6962 -0.0165
 4279TIP3    H234397   5.837   6.345   7.708 -0.5331 -1.3181 -1.6196
 4280TIP3   OH234398   5.465   5.315   1.656  0.4069 -0.4023 -0.2068
 4280TIP3    H134399   5.400   5.376   1.689  0.6463 -0.3093  0.0960
 4280TIP3    H234400   5.422   5.272   1.582  0.3672  0.3922 -0.6518
 4281TIP3   OH234401   0.472   3.190   2.820  0.4562 -0.1211 -0.3132
 4281TIP3    H134402   0.424   3.108   2.836  0.2095  0.2158  0.7971
 4281TIP3    H234403   0.555   3.163   2.780  0.0897 -0.8534 -0.5855
 4282TIP3   OH234404   3.837   1.879   7.237  0.7097  0.8299 -0.4833
 4282TIP3    H134405   3.753   1.921   7.221  0.6894  1.1418  0.4301
 4282TIP3    H234406   3.900   1.950   7.239  0.6564  0.8729  1.2021
 4283TIP3   OH234407   5.573   1.378   1.297 -1.0313 -0.2283  0.3412
 4283TIP3    H134408   5.569   1.332   1.213  1.1603 -2.5346  1.3718
 4283TIP3    H234409   5.513   1.328   1.353 -1.5804  0.5870  0.4947
 4284TIP3   OH234410   4.387   1.606   8.147  0.2223  0.2531  0.1118
 4284TIP3    H134411   4.399   1.575   8.058 -1.1601  1.1420 -0.4079
 4284TIP3    H234412   4.313   1.666   8.143  1.7559  2.4101  1.3744
 4285TIP3   OH234413   4.190   2.031   7.593  0.6768 -0.3314  0.6533
 4285TIP3    H134414   4.117   2.092   7.585  1.1858  0.2534  0.4394
 4285TIP3    H234415   4.250   2.072   7.656 -0.1481 -1.7859  2.4772
 4286TIP3   OH234416   5.624   3.336   1.949  0.5755  0.2084  1.0625
 4286TIP3    H134417   5.620   3.241   1.962 -0.0757  0.1273  0.2884
 4286TIP3    H234418   5.680   3.347   1.872 -0.6115  0.3572  0.1977
 4287TIP3   OH234419   0.596   0.731   7.640 -0.1675 -0.0558 -0.2451
 4287TIP3    H134420   0.641   0.766   7.563  0.3129  0.7085  0.3713
 4287TIP3    H234421   0.646   0.764   7.714 -1.7468  0.8708  0.4657
 4288TIP3   OH234422   0.387   2.793   1.405 -0.5239  0.4116  0.5225
 4288TIP3    H134423   0.393   2.753   1.492 -0.2112  0.4441  0.5138
 4288TIP3    H234424   0.434   2.733   1.348 -2.2766 -0.5808  0.0377
 4289TIP3   OH234425   4.905   3.168   8.248  0.1787 -0.4648  0.2342
 4289TIP3    H134426   4.908   3.235   8.316  0.1914 -1.1252  0.9015
 4289TIP3    H234427   4.950   3.207   8.174 -0.6343  0.6158  0.2845
 4290TIP3   OH234428   2.595   3.166   7.921  0.3112 -0.0247 -0.2752
 4290TIP3    H134429   2.648   3.211   7.854  0.5890  0.2245  0.1089
 4290TIP3    H234430   2.647   3.089   7.944  2.2363  1.8851  2.5332
 4291TIP3   OH234431   4.761   3.601   7.546  0.3876 -0.2502  0.2186
 4291TIP3    H134432   4.724   3.576   7.462  0.0926  0.3857  0.1487
 4291TIP3    H234433   4.830   3.537   7.563 -1.9520 -2.6539  1.2789
 4292TIP3   OH234434   0.175   5.854   2.159 -0.3582  0.0968  0.4445
 4292TIP3    H134435   0.187   5.894   2.074 -0.9065  0.1382  0.3865
 4292TIP3    H234436   0.129   5.919   2.211  1.6035  0.8189  1.3705
 4293TIP3   OH234437   6.367   5.082   0.927 -0.6668  0.1504  0.2695
 4293TIP3    H134438   6.370   5.171   0.961 -2.5891  1.4183 -2.5526
 4293TIP3    H234439   6.453   5.068   0.888 -1.3433  2.0772 -2.0972
 4294TIP3   OH234440   0.820   3.967   1.669  0.0397 -0.4587  0.1659
 4294TIP3    H134441   0.874   4.004   1.599 -0.7395 -0.0750 -0.2467
 4294TIP3    H234442   0.776   4.043   1.708 -0.2882 -0.7728  0.4195
 4295TIP3   OH234443   1.870   2.821   2.110  0.2998  0.0320 -0.0231
 4295TIP3    H134444   1.879   2.775   2.026 -0.0691 -0.5381  0.2437
 4295TIP3    H234445   1.787   2.788   2.146  0.8774 -0.3820  0.9650
 4296TIP3   OH234446   0.890   4.134   7.593  0.3401 -0.6626 -0.0220
 4296TIP3    H134447   0.898   4.039   7.597 -1.6422 -0.8524  0.6379
 4296TIP3    H234448   0.868   4.152   7.501 -0.5184 -0.9926  0.1073
 4297TIP3   OH234449   5.929   6.291   2.825  0.0426 -0.3338 -0.2500
 4297TIP3    H134450   6.013   6.330   2.800 -0.9976  1.3807 -1.2903
 4297TIP3    H234451   5.864   6.357   2.799 -1.5476 -1.0687  1.6649
 4298TIP3   OH234452   4.212   1.676   7.070 -0.0144 -0.2787 -0.7533
 4298TIP3    H134453   4.275   1.611   7.101 -0.5842 -1.1956 -1.4762
 4298TIP3    H234454   4.265   1.741   7.024  0.5868 -0.0825  0.1854
 4299TIP3   OH234455   2.711   6.320   1.169  0.0841  0.4306  0.0324
 4299TIP3    H134456   2.733   6.413   1.180  0.0509  0.7338 -2.0422
 4299TIP3    H234457   2.630   6.309   1.219 -0.3352  1.7270 -0.3087
 4300TIP3   OH234458   6.023   0.525   8.247  0.7328  0.3645  0.2792
 4300TIP3    H134459   6.029   0.560   8.158  0.4330  1.3820  0.6408
 4300TIP3    H234460   5.981   0.440   8.237 -2.2719  1.7974 -0.2800
 4301TIP3   OH234461   6.133   6.019   0.078 -0.3392 -0.3909 -0.3445
 4301TIP3    H134462   6.092   5.933   0.082  0.6313 -0.8728 -0.5068
 4301TIP3    H234463   6.126   6.052   0.168 -2.0558  0.0242 -0.6015
 4302TIP3   OH234464   3.116   6.348   2.138  0.1238  0.1434 -0.1675
 4302TIP3    H134465   3.148   6.293   2.209  0.0946  0.2630 -0.0621
 4302TIP3    H234466   3.193   6.396   2.107  0.0144  0.5815  0.2192
 4303TIP3   OH234467   4.737   3.487   7.270  0.3716  0.5519 -0.2274
 4303TIP3    H134468   4.824   3.472   7.308 -0.5490 -0.9641  1.4305
 4303TIP3    H234469   4.749   3.471   7.176  1.5180 -1.5461  0.2074
 4304TIP3   OH234470   0.967   5.925   8.049  0.1950 -0.0326 -0.2813
 4304TIP3    H134471   1.032   5.864   8.014  1.0989  1.2666 -0.9228
 4304TIP3    H234472   0.978   5.920   8.144 -0.3162 -1.4659 -0.2794
 4305TIP3   OH234473   6.285   4.773   1.028  0.0528 -0.3375 -0.4375
 4305TIP3    H134474   6.218   4.840   1.019  0.8301  0.3756 -1.1220
 4305TIP3    H234475   6.364   4.813   0.992  0.8635 -1.1361  0.3984
 4306TIP3   OH234476   4.125   0.185   8.302 -0.0121  0.7416  0.4728
 4306TIP3    H134477   4.203   0.165   8.251 -1.1039  0.5050 -1.1785
 4306TIP3    H234478   4.107   0.105   8.351  0.7859  0.8103  0.8910
 4307TIP3   OH234479   1.619   2.903   7.915 -0.1679 -0.3712  0.2837
 4307TIP3    H134480   1.628   2.990   7.875 -0.2910 -0.5774 -0.2008
 4307TIP3    H234481   1.538   2.908   7.965 -0.6921 -0.4997 -0.5240
 4308TIP3   OH234482   2.920   6.463   8.385  0.2529 -0.1114 -0.3937
 4308TIP3    H134483   2.918   6.508   8.301 -0.4111  3.1003  1.1852
 4308TIP3    H234484   2.834   6.421   8.391 -0.0896  0.5022 -0.8931
 4309TIP3   OH234485   1.092   5.900   1.056  0.1428 -0.2016  0.1944
 4309TIP3    H134486   1.078   5.992   1.034  1.2113  0.5862  2.5785
 4309TIP3    H234487   1.159   5.900   1.124 -0.0881 -2.7347  0.5455
 4310TIP3   OH234488   6.345   2.781   8.259 -0.0975  0.1324 -0.1036
 4310TIP3    H134489   6.412   2.794   8.326 -0.0959  1.9789 -0.3943
 4310TIP3    H234490   6.263   2.771   8.307 -0.2262  2.3133  0.2165
 4311TIP3   OH234491   5.841   1.279   8.056 -0.1171 -0.1479  0.1920
 4311TIP3    H134492   5.833   1.198   8.007  1.0388 -0.8301  1.0910
 4311TIP3    H234493   5.922   1.319   8.025  0.2596 -0.2395  1.0298
 4312TIP3   OH234494   6.299   2.389   2.060  0.3450  0.5986 -0.6032
 4312TIP3    H134495   6.337   2.364   2.144  1.9904  0.4130 -1.3763
 4312TIP3    H234496   6.311   2.312   2.004  0.5485  1.2079 -1.4117
 4313TIP3   OH234497   1.843   2.074   6.768  0.2914 -0.0946  0.0839
 4313TIP3    H134498   1.747   2.075   6.770  0.1694  3.6740  0.4037
 4313TIP3    H234499   1.867   1.983   6.783 -3.2180 -1.4511 -1.4693
 4314TIP3   OH234500   2.344   6.261   8.511 -0.4979  0.4427  0.1249
 4314TIP3    H134501   2.264   6.232   8.554 -0.5980 -0.0323 -0.3663
 4314TIP3    H234502   2.415   6.238   8.571 -0.6465 -0.1087  0.0974
 4315TIP3   OH234503   2.404   6.278   1.677  1.0101 -0.6754  0.3993
 4315TIP3    H134504   2.419   6.217   1.605 -0.4937 -0.4324 -0.1525
 4315TIP3    H234505   2.485   6.276   1.727  1.8763 -1.2818 -0.9764
 4316TIP3   OH234506   5.790   6.487   8.251 -0.4582 -0.4537  0.6510
 4316TIP3    H134507   5.759   6.509   8.164  2.3313  1.4173 -0.0157
 4316TIP3    H234508   5.834   6.403   8.241 -0.3903 -0.3776  0.2956
 4317TIP3   OH234509   6.443   5.836   8.136  0.4440  0.1332  0.7693
 4317TIP3    H134510   6.516   5.892   8.108  0.2732 -0.0900 -0.1417
 4317TIP3    H234511   6.368   5.870   8.089  0.3549 -0.9245  0.1245
 4318TIP3   OH234512   2.367   5.321   2.444 -0.1551  0.9290 -0.0215
 4318TIP3    H134513   2.446   5.373   2.432 -0.2186  0.9478 -0.3513
 4318TIP3    H234514   2.307   5.380   2.492  0.2806  0.6712  0.8682
 4319TIP3   OH234515   3.215   1.331   2.106 -0.0392 -0.0585 -0.4908
 4319TIP3    H134516   3.189   1.329   2.014 -1.3110  1.0517 -0.1853
 4319TIP3    H234517   3.140   1.370   2.151  1.1806  0.8611  0.8146
 4320TIP3   OH234518   0.160   2.435   0.092 -0.4178  0.4806  0.2357
 4320TIP3    H134519   0.227   2.487   0.048  1.8409 -0.6857  2.0670
 4320TIP3    H234520   0.140   2.364   0.031  0.3913  0.5720 -0.1415
 4321TIP3   OH234521   1.077   4.770   0.299  0.3780 -0.1606  0.2407
 4321TIP3    H134522   1.037   4.780   0.212 -0.5597 -0.5309  0.6208
 4321TIP3    H234523   1.130   4.691   0.292  1.8734  0.8588 -0.5559
 4322TIP3   OH234524   0.551   5.570   3.407  0.5113 -0.5361 -0.0443
 4322TIP3    H134525   0.506   5.647   3.441  3.0562  0.4206  1.5258
 4322TIP3    H234526   0.521   5.498   3.463  2.5777  0.5289  2.6779
 4323TIP3   OH234527   3.297   2.809   6.998  0.3798  0.4119  0.7937
 4323TIP3    H134528   3.284   2.714   7.002 -0.7034  0.4760 -0.5976
 4323TIP3    H234529   3.263   2.841   7.082  0.0656 -0.3589  0.9683
 4324TIP3   OH234530   1.318   5.070   2.022 -0.1285  0.2210  0.2841
 4324TIP3    H134531   1.411   5.067   2.044 -0.1440  2.4549  0.8339
 4324TIP3    H234532   1.315   5.102   1.932 -0.3614  0.4283  0.3628
 4325TIP3   OH234533   5.253   2.400   0.461 -0.3021  0.1570  0.3116
 4325TIP3    H134534   5.163   2.425   0.442  0.3576  2.2305 -0.3866
 4325TIP3    H234535   5.257   2.391   0.556 -1.3026 -0.2868  0.3213
 4326TIP3   OH234536   0.562   3.560   1.251  0.2321 -0.3635  0.7680
 4326TIP3    H134537   0.540   3.545   1.159  1.4505  1.6156  0.0880
 4326TIP3    H234538   0.539   3.651   1.267  1.2164 -0.3044  2.0576
 4327TIP3   OH234539   5.305   0.644   7.774  0.0316 -0.6720  0.1492
 4327TIP3    H134540   5.277   0.732   7.797 -1.3379 -0.8998 -0.5527
 4327TIP3    H234541   5.398   0.653   7.751  0.4457  0.2061  2.0157
 4328TIP3   OH234542   0.431   4.725   2.864 -0.2856  0.1624  0.0949
 4328TIP3    H134543   0.428   4.633   2.835 -1.7640 -1.5535  4.8044
 4328TIP3    H234544   0.342   4.757   2.850 -0.0632  0.5320 -0.5009
 4329TIP3   OH234545   5.522   6.327   1.930  0.3981 -0.1685  0.2975
 4329TIP3    H134546   5.487   6.348   1.843 -0.0670 -0.3624  0.4350
 4329TIP3    H234547   5.519   6.409   1.978  2.3789  0.3775 -0.4423
 4330TIP3   OH234548   5.580   0.830   1.423 -0.0981  0.0017 -0.0892
 4330TIP3    H134549   5.553   0.818   1.514  1.4839  1.5210  0.6235
 4330TIP3    H234550   5.674   0.812   1.422 -0.0093  0.4020 -1.3443
 4331TIP3   OH234551   0.197   6.254   1.195  0.2026  0.3080  0.3349
 4331TIP3    H134552   0.289   6.260   1.169 -0.1452  0.4742 -0.9117
 4331TIP3    H234553   0.161   6.185   1.140 -0.5868  0.7072  0.3367
 4332TIP3   OH234554   1.572   1.131   1.248  0.4643 -0.3394  0.2233
 4332TIP3    H134555   1.478   1.118   1.257  0.4974 -3.0703 -2.1260
 4332TIP3    H234556   1.588   1.217   1.287 -2.8742 -0.0450  1.2236
 4333TIP3   OH234557   5.846   0.601   2.294  0.0613  0.6708 -0.5646
 4333TIP3    H134558   5.934   0.630   2.269  1.0513 -2.5237 -1.2420
 4333TIP3    H234559   5.848   0.597   2.389  0.7277  0.5053 -0.5773
 4334TIP3   OH234560   2.514   4.217   7.384  0.5001 -0.4056  0.7412
 4334TIP3    H134561   2.457   4.159   7.333 -0.0047 -0.5642  1.4865
 4334TIP3    H234562   2.548   4.279   7.319 -0.4321 -0.3682  0.2773
 4335TIP3   OH234563   4.552   6.330   1.975 -0.3647 -0.2085  0.2202
 4335TIP3    H134564   4.541   6.390   1.901  0.6517  0.5962  0.6907
 4335TIP3    H234565   4.488   6.360   2.039  0.3881  0.6413  0.5991
 4336TIP3   OH234566   3.504   4.942   1.971 -0.7165  0.4695 -0.1255
 4336TIP3    H134567   3.417   4.912   1.943 -1.0356  0.4561  0.8391
 4336TIP3    H234568   3.526   5.012   1.909 -1.0293 -0.1127 -0.9078
 4337TIP3   OH234569   1.015   6.016   1.801 -0.0776  0.3005  0.0802
 4337TIP3    H134570   0.979   6.022   1.712  3.1746 -0.4753 -1.4264
 4337TIP3    H234571   1.024   6.107   1.829 -0.8329  0.5661 -0.5179
 4338TIP3   OH234572   3.827   0.478   1.942 -0.6368 -0.0413 -1.1050
 4338TIP3    H134573   3.888   0.406   1.926 -0.4718  0.1135 -1.1613
 4338TIP3    H234574   3.863   0.552   1.895 -0.3720  0.3016 -0.3714
 4339TIP3   OH234575   2.329   5.618   2.288 -0.3925  0.0775 -0.9251
 4339TIP3    H134576   2.389   5.688   2.315  0.8959 -1.8938  1.7295
 4339TIP3    H234577   2.385   5.557   2.239 -0.7842 -0.5966 -0.5394
 4340TIP3   OH234578   3.473   1.367   2.813  0.1786 -0.3048 -0.1947
 4340TIP3    H134579   3.546   1.306   2.813 -0.1068 -0.7047  1.6437
 4340TIP3    H234580   3.510   1.449   2.847 -0.2664 -0.6165  1.1112
 4341TIP3   OH234581   5.580   0.366   7.839 -0.1609 -0.1926  0.1781
 4341TIP3    H134582   5.501   0.314   7.845 -0.4855  0.3743  1.1465
 4341TIP3    H234583   5.568   0.420   7.761 -0.2869 -0.8163 -0.2315
 4342TIP3   OH234584   3.027   4.935   0.555  0.0780  0.0314 -0.2992
 4342TIP3    H134585   2.973   5.012   0.540 -1.0905 -1.0408 -1.9416
 4342TIP3    H234586   2.995   4.899   0.638  0.5861  1.2390  0.4436
 4343TIP3   OH234587   5.080   0.498   2.099 -0.7572 -0.0328  0.4090
 4343TIP3    H134588   5.161   0.539   2.068 -0.2947  0.3794  2.0862
 4343TIP3    H234589   5.073   0.524   2.191 -4.1222  2.1387 -0.2369
 4344TIP3   OH234590   4.634   4.042   1.374  0.2040  0.3167  0.1197
 4344TIP3    H134591   4.556   4.086   1.407 -1.0333 -2.3368  0.9293
 4344TIP3    H234592   4.693   4.038   1.450 -1.6469 -3.5518  1.5999
 4345TIP3   OH234593   2.649   2.735   1.809 -0.3807 -0.5655  0.3664
 4345TIP3    H134594   2.699   2.816   1.810 -0.3030 -0.6096  1.6768
 4345TIP3    H234595   2.711   2.668   1.837 -0.7815 -0.8657  0.5464
 4346TIP3   OH234596   0.970   2.149   1.380 -0.7309 -0.1056  0.3345
 4346TIP3    H134597   1.008   2.236   1.391  1.3799 -1.0728  1.2833
 4346TIP3    H234598   0.961   2.115   1.469  0.3081 -1.5502 -0.0684
 4347TIP3   OH234599   0.992   0.757   7.880  0.2038 -0.2200  0.7620
 4347TIP3    H134600   0.998   0.689   7.812  2.9261 -0.5256  1.2008
 4347TIP3    H234601   0.988   0.839   7.832  3.3111 -0.3434  0.0903
 4348TIP3   OH234602   6.733   6.149   1.013  0.2692  0.1770 -0.4785
 4348TIP3    H134603   6.643   6.164   0.986  0.0276 -1.7863 -0.9326
 4348TIP3    H234604   6.725   6.105   1.098  0.7995  0.1342 -0.4487
 4349TIP3   OH234605   5.261   6.778   2.222  0.1560  0.2273  0.1684
 4349TIP3    H134606   5.277   6.745   2.133  0.4024 -0.7748  0.5788
 4349TIP3    H234607   5.334   6.746   2.274 -0.3638  0.1890  0.8975
 4350TIP3   OH234608   2.479   5.145   0.906 -0.0401  0.0707  0.0527
 4350TIP3    H134609   2.551   5.083   0.917 -1.1430 -1.0848  1.1673
 4350TIP3    H234610   2.400   5.093   0.920 -1.0192  1.7257  1.1267
 4351TIP3   OH234611   2.938   3.420   0.359 -0.4421  0.0143 -0.2231
 4351TIP3    H134612   3.014   3.366   0.380  1.0864  2.1573  0.1083
 4351TIP3    H234613   2.920   3.402   0.267  1.2741  0.3214 -0.6619
 4352TIP3   OH234614   3.169   5.517   8.429 -0.0417  0.4155 -0.5417
 4352TIP3    H134615   3.107   5.502   8.357 -0.1677 -2.2972  0.0335
 4352TIP3    H234616   3.253   5.530   8.386 -0.2593 -0.3435 -1.2237
 4353TIP3   OH234617   1.033   1.804   1.041  0.8172  0.4734  0.4095
 4353TIP3    H134618   1.035   1.890   0.998 -1.9020  1.0157  1.1260
 4353TIP3    H234619   1.001   1.823   1.130 -1.2873 -1.3487  0.1393
 4354TIP3   OH234620   1.582   4.437   7.763  0.5327 -0.3419 -0.3892
 4354TIP3    H134621   1.493   4.416   7.792  0.5429 -0.0342 -0.1309
 4354TIP3    H234622   1.577   4.433   7.668  0.2236 -0.2611 -0.3795
 4355TIP3   OH234623   5.176   4.582   2.055 -0.1107  0.5053 -0.3518
 4355TIP3    H134624   5.121   4.534   2.118  2.4699 -0.6927  1.1712
 4355TIP3    H234625   5.196   4.518   1.987  0.1367  0.6278 -0.3966
 4356TIP3   OH234626   1.877   5.651   7.305  0.6879 -0.4573  0.5306
 4356TIP3    H134627   1.800   5.683   7.258  1.9809  0.1450 -1.2744
 4356TIP3    H234628   1.951   5.693   7.261  2.0114  0.1496  3.1567
 4357TIP3   OH234629   3.958   3.633   6.749 -0.1094  0.0934 -0.0524
 4357TIP3    H134630   3.992   3.670   6.831 -0.7708  0.6453 -0.0206
 4357TIP3    H234631   3.995   3.689   6.681 -0.0623  0.0105 -0.0956
 4358TIP3   OH234632   0.662   6.216   8.229  0.2196 -0.0536  0.5707
 4358TIP3    H134633   0.613   6.227   8.310 -0.8078 -0.0575 -0.0386
 4358TIP3    H234634   0.643   6.126   8.201 -0.4161  0.3344 -0.2984
 4359TIP3   OH234635   2.346   6.616   1.155 -0.0380  0.2679 -0.1552
 4359TIP3    H134636   2.299   6.566   1.088 -0.5160 -1.0498  1.1123
 4359TIP3    H234637   2.409   6.668   1.106 -1.0620  0.1240 -1.7106
 4360TIP3   OH234638   5.573   1.541   2.214  0.0858  0.3332 -0.1830
 4360TIP3    H134639   5.559   1.614   2.275 -0.8811 -0.7024  0.9097
 4360TIP3    H234640   5.556   1.578   2.128  1.2007  1.7774  0.1813
 4361TIP3   OH234641   2.338   0.916   7.537 -0.1573  0.2745 -0.4422
 4361TIP3    H134642   2.401   0.980   7.503 -1.5511  1.5834 -0.6571
 4361TIP3    H234643   2.276   0.903   7.465 -0.7356 -0.1807  0.1278
 4362TIP3   OH234644   5.513   1.978   0.138  0.1503 -0.3614 -0.2030
 4362TIP3    H134645   5.593   1.947   0.097  0.5363 -1.0328  1.0068
 4362TIP3    H234646   5.457   2.006   0.065  0.9702 -1.0994 -1.1336
 4363TIP3   OH234647   1.695   0.163   1.399  0.2620  0.2848 -0.0853
 4363TIP3    H134648   1.670   0.096   1.463 -2.2141  0.5685 -0.6420
 4363TIP3    H234649   1.682   0.120   1.314 -0.4349  1.1555 -0.4313
 4364TIP3   OH234650   1.950   5.172   0.877  0.3612 -0.5110 -1.1112
 4364TIP3    H134651   2.017   5.224   0.832  1.4127 -1.4486 -0.6593
 4364TIP3    H234652   1.943   5.212   0.963  0.6398 -0.6627 -1.0174
 4365TIP3   OH234653   0.202   0.754   0.030 -0.1009  0.1605 -0.4558
 4365TIP3    H134654   0.174   0.806  -0.046 -0.8959  2.1791  1.1353
 4365TIP3    H234655   0.141   0.778   0.099  0.1164 -2.2345  0.6619
 4366TIP3   OH234656   4.411   0.107   2.293 -0.3916 -0.1594 -0.5534
 4366TIP3    H134657   4.464   0.028   2.286 -0.6516 -0.2780 -1.2602
 4366TIP3    H234658   4.331   0.086   2.245 -0.6114  0.4138 -0.4440
 4367TIP3   OH234659   2.743   1.105   1.726 -0.0072 -0.3199 -0.2167
 4367TIP3    H134660   2.777   1.068   1.644  0.9857 -2.7256  1.1999
 4367TIP3    H234661   2.656   1.067   1.735  0.0097 -0.3101 -0.0061
 4368TIP3   OH234662   4.065   3.276   0.867 -0.1534 -0.6211  0.2403
 4368TIP3    H134663   4.137   3.326   0.830 -0.0168 -1.3264 -0.4756
 4368TIP3    H234664   4.022   3.336   0.928 -0.1665  0.4692 -0.8081
 4369TIP3   OH234665   4.597   1.068   0.494 -0.3596  0.0695  0.0185
 4369TIP3    H134666   4.592   1.148   0.546 -1.6967 -1.0843  1.8139
 4369TIP3    H234667   4.676   1.024   0.525 -0.4280  0.0084  0.1068
 4370TIP3   OH234668   4.166   4.762   1.546 -0.9233  0.2716 -0.1973
 4370TIP3    H134669   4.102   4.775   1.617 -0.9584 -0.0551 -0.1673
 4370TIP3    H234670   4.160   4.668   1.525 -1.4502  0.5046 -1.1459
 4371TIP3   OH234671   5.848   2.974   7.721  0.3420  0.2494  0.0858
 4371TIP3    H134672   5.767   2.948   7.766  0.7675 -0.3808  0.5035
 4371TIP3    H234673   5.874   2.897   7.671  0.9503  0.2783  0.3491
 4372TIP3   OH234674   1.715   2.201   1.079  0.0220  1.2758 -0.3708
 4372TIP3    H134675   1.726   2.213   1.173  1.4404  1.3886 -0.5219
 4372TIP3    H234676   1.641   2.257   1.055 -1.3690  0.0611  0.8997
 4373TIP3   OH234677   0.998   0.994   7.748  0.0770 -0.0719  0.4424
 4373TIP3    H134678   0.956   1.073   7.714 -0.3023 -0.5399 -0.1795
 4373TIP3    H234679   1.092   1.012   7.741  0.0158  1.0743  2.0656
 4374TIP3   OH234680   1.681   5.522   1.789 -0.3885  0.4927 -0.4103
 4374TIP3    H134681   1.642   5.607   1.812 -1.1830  0.0226  0.0104
 4374TIP3    H234682   1.720   5.491   1.870 -1.5826 -0.3186 -0.1280
 4375TIP3   OH234683   6.017   6.392   1.784 -0.2766  0.1445  0.2685
 4375TIP3    H134684   5.993   6.470   1.834 -0.6672 -0.6988  1.4521
 4375TIP3    H234685   6.073   6.342   1.843  0.6877 -0.0766 -0.7946
 4376TIP3   OH234686   4.049   3.584   7.466  0.0633 -0.1167  0.4024
 4376TIP3    H134687   4.131   3.563   7.421  0.0643 -2.0303  1.2008
 4376TIP3    H234688   4.021   3.501   7.504 -1.4433  0.8411  1.4756
 4377TIP3   OH234689   6.241   0.989   1.998 -0.5581  0.1718 -0.9336
 4377TIP3    H134690   6.181   1.061   1.978 -0.3515 -0.0315 -2.4270
 4377TIP3    H234691   6.328   1.026   1.985 -0.4143 -0.0302 -0.5574
 4378TIP3   OH234692   2.580   6.825   1.240  0.1396 -0.2749 -0.4303
 4378TIP3    H134693   2.572   6.782   1.325  1.0450  0.1376 -0.1217
 4378TIP3    H234694   2.552   6.915   1.256 -0.4311 -0.3872 -0.7578
 4379TIP3   OH234695   0.752   5.472   7.964 -0.3111  0.4788  0.0063
 4379TIP3    H134696   0.688   5.427   8.018 -1.4505  0.0757 -1.5906
 4379TIP3    H234697   0.735   5.440   7.875  0.8268  1.8309 -0.7470
 4380TIP3   OH234698   2.202   0.593   0.027  0.0455 -0.5146 -0.1337
 4380TIP3    H134699   2.286   0.622  -0.009  1.0532 -3.6295 -0.6051
 4380TIP3    H234700   2.199   0.631   0.115  0.6167  1.8484 -1.0415
 4381TIP3   OH234701   6.021   2.327   0.261 -0.0842 -0.2249 -0.1253
 4381TIP3    H134702   6.060   2.413   0.274 -1.6710  0.5536 -0.3584
 4381TIP3    H234703   5.928   2.339   0.278 -0.5280 -1.6261 -1.3250
 4382TIP3   OH234704   5.574   6.469   0.720 -0.3080  0.0706  0.3371
 4382TIP3    H134705   5.510   6.486   0.651 -0.7220 -0.8095  0.4938
 4382TIP3    H234706   5.532   6.405   0.778 -0.8099  2.2525  2.5813
 4383TIP3   OH234707   5.005   0.692   0.859 -0.0211 -0.3279 -0.0400
 4383TIP3    H134708   5.037   0.623   0.917  0.7244  0.9011  1.0931
 4383TIP3    H234709   5.055   0.770   0.885 -1.3184  0.8028 -0.7704
 4384TIP3   OH234710   1.797   2.322   2.150 -0.0073  0.0416 -0.0896
 4384TIP3    H134711   1.861   2.252   2.139 -0.7330 -0.6851  0.2284
 4384TIP3    H234712   1.815   2.357   2.237 -0.7336 -0.8897  0.4481
 4385TIP3   OH234713   5.597   3.015   2.327  0.1942  0.1311 -0.6054
 4385TIP3    H134714   5.577   2.921   2.326 -0.4795  0.2686 -0.9817
 4385TIP3    H234715   5.682   3.022   2.285  1.3062 -0.5235  1.3760
 4386TIP3   OH234716   3.563   2.838   2.150  0.9123  0.2539  0.0454
 4386TIP3    H134717   3.657   2.855   2.152  0.9930  0.2490 -1.8141
 4386TIP3    H234718   3.555   2.743   2.158  1.2997 -0.0785 -2.5118
 4387TIP3   OH234719   1.089   2.359   1.035 -0.2067  0.0293 -0.2286
 4387TIP3    H134720   1.115   2.429   0.975 -1.0481 -0.0546 -0.6963
 4387TIP3    H234721   1.029   2.400   1.096 -1.4135 -0.4527 -1.0425
 4388TIP3   OH234722   4.306   5.962   8.549  0.1503 -0.2914  0.1008
 4388TIP3    H134723   4.365   5.942   8.622  3.3184  2.5027 -1.3616
 4388TIP3    H234724   4.358   5.944   8.471 -2.4355 -1.3433 -1.5040
 4389TIP3   OH234725   2.292   5.281   8.213 -0.1652  0.8353  0.5011
 4389TIP3    H134726   2.382   5.313   8.215 -0.1938  1.0851 -1.2799
 4389TIP3    H234727   2.238   5.360   8.210 -0.4058  0.6745  0.5364
 4390TIP3   OH234728   1.145   2.577   0.895 -0.6335 -0.3137  0.4566
 4390TIP3    H134729   1.109   2.626   0.968 -2.4114  0.3229 -0.7673
 4390TIP3    H234730   1.079   2.585   0.826  2.3017  1.9322 -2.4273
 4391TIP3   OH234731   5.817   0.502   6.487  0.4610  0.6205 -0.2065
 4391TIP3    H134732   5.778   0.582   6.522  1.5021  0.4081  1.5233
 4391TIP3    H234733   5.743   0.444   6.471 -0.1267  1.1436  0.5838
 4392TIP3   OH234734   0.779   4.165   0.997  0.5156 -0.1611  0.7577
 4392TIP3    H134735   0.828   4.144   0.918 -1.0167 -0.1290 -0.2345
 4392TIP3    H234736   0.844   4.159   1.068  1.4067 -2.6298 -0.1652
 4393TIP3   OH234737   1.090   4.017   2.278 -0.7491  0.6461 -0.4803
 4393TIP3    H134738   1.176   4.042   2.312 -1.4754  1.3782  0.9091
 4393TIP3    H234739   1.100   4.018   2.183  0.8304  0.4952 -0.3399
 4394TIP3   OH234740   2.779   3.094   0.179  0.4719  0.0257  0.0768
 4394TIP3    H134741   2.794   3.180   0.140 -2.8127 -0.5452 -3.0649
 4394TIP3    H234742   2.828   3.033   0.123  0.3972 -0.3737  0.4417
 4395TIP3   OH234743   5.375   3.959   8.259 -0.3041 -0.2526  0.2761
 4395TIP3    H134744   5.384   3.883   8.201 -2.6896  1.3322 -2.4107
 4395TIP3    H234745   5.460   3.966   8.302  0.1626 -4.1143  0.3158
 4396TIP3   OH234746   2.907   0.595   2.165  0.5778  0.0104 -0.0719
 4396TIP3    H134747   2.951   0.653   2.102  0.3362  1.1475  0.7683
 4396TIP3    H234748   2.933   0.629   2.250  1.8815 -2.2505  0.5006
 4397TIP3   OH234749   4.294   3.747   0.468  0.1690 -0.5335  0.3400
 4397TIP3    H134750   4.311   3.825   0.521  1.5786 -1.2924  1.0543
 4397TIP3    H234751   4.251   3.686   0.527 -1.8855  0.0129 -0.4868
 4398TIP3   OH234752   2.990   2.334   7.357 -0.0925  0.7198 -0.2636
 4398TIP3    H134753   2.920   2.300   7.413 -0.8767  1.4427 -0.7817
 4398TIP3    H234754   2.960   2.315   7.268  0.2241  1.3239 -0.5016
 4399TIP3   OH234755   6.403   5.783   2.242 -0.6527  0.6320  0.3991
 4399TIP3    H134756   6.385   5.707   2.296 -0.6328  1.3965  1.5211
 4399TIP3    H234757   6.317   5.807   2.206 -0.8949  0.8429  1.0955
 4400TIP3   OH234758   3.527   6.532   7.840  0.5211  0.0546 -0.2187
 4400TIP3    H134759   3.561   6.444   7.858  0.0024  0.0643  0.8292
 4400TIP3    H234760   3.606   6.586   7.827  0.8415 -0.7201 -1.7562
 4401TIP3   OH234761   3.578   2.013   7.441 -0.1789  0.2790 -0.3784
 4401TIP3    H134762   3.571   1.938   7.500  2.4352 -0.1243 -0.4762
 4401TIP3    H234763   3.564   1.975   7.354  2.4707 -0.4518 -0.5617
 4402TIP3   OH234764   2.976   4.412   0.445 -0.3114  0.0271  0.6476
 4402TIP3    H134765   2.959   4.323   0.413 -1.1053 -0.7161  2.9526
 4402TIP3    H234766   2.897   4.461   0.423 -0.9040 -0.5092  1.4997
 4403TIP3   OH234767   4.373   3.464   6.974 -0.2690 -0.5192  0.5876
 4403TIP3    H134768   4.421   3.399   7.026  1.8631  1.3706  1.1547
 4403TIP3    H234769   4.380   3.545   7.026 -3.1972  0.1222  0.1313
 4404TIP3   OH234770   2.406   2.276   0.454  0.0420  0.4106  0.6912
 4404TIP3    H134771   2.402   2.195   0.505  0.1618  0.7313  1.2163
 4404TIP3    H234772   2.339   2.265   0.386 -2.0204  1.0525  2.5034
 4405TIP3   OH234773   3.975   4.946   1.441 -0.2910  0.4484 -0.0058
 4405TIP3    H134774   4.047   4.889   1.469 -0.3538 -0.5552 -1.6906
 4405TIP3    H234775   3.966   5.010   1.510  1.3932 -0.1709  0.8409
 4406TIP3   OH234776   1.141   0.192   1.006  0.5621  0.2869  0.5354
 4406TIP3    H134777   1.058   0.198   1.052 -0.4905 -0.9444 -1.1025
 4406TIP3    H234778   1.132   0.253   0.932  1.4250  0.7063  0.7575
 4407TIP3   OH234779   6.641   5.615   1.779 -0.2341 -0.2923  0.1550
 4407TIP3    H134780   6.624   5.564   1.858 -1.1913  1.5453  1.1982
 4407TIP3    H234781   6.710   5.677   1.804  0.4648 -0.6111 -0.8957
 4408TIP3   OH234782   6.390   1.889   0.391 -0.4034 -0.3097  0.4930
 4408TIP3    H134783   6.376   1.896   0.485  0.8815 -0.2265  0.6963
 4408TIP3    H234784   6.465   1.830   0.382 -0.9224 -0.8556 -0.5130
 4409TIP3   OH234785   4.296   5.616   6.743  0.0864 -0.1555  0.3711
 4409TIP3    H134786   4.226   5.676   6.770  0.0216  0.5628 -1.2544
 4409TIP3    H234787   4.376   5.665   6.759  0.0023  0.8090 -1.7879
 4410TIP3   OH234788   1.731   0.407   2.832  0.4848  0.2227 -0.4197
 4410TIP3    H134789   1.699   0.405   2.742 -2.9079  0.8093  0.6334
 4410TIP3    H234790   1.660   0.446   2.882  2.3855  0.2568  2.5098
 4411TIP3   OH234791   3.812   1.727   2.684  0.1276 -0.2363 -0.0465
 4411TIP3    H134792   3.746   1.780   2.640  1.7018  2.3108  0.4603
 4411TIP3    H234793   3.895   1.755   2.644  1.2864 -0.2513  2.2074
 4412TIP3   OH234794   3.519   5.757   0.682 -0.3940  0.6695 -0.3234
 4412TIP3    H134795   3.446   5.771   0.743  0.3343 -0.2673  0.7991
 4412TIP3    H234796   3.553   5.670   0.704  0.7433  0.8791 -1.1627
 4413TIP3   OH234797   4.043   1.695   1.903 -0.3362 -0.1000  0.6742
 4413TIP3    H134798   4.024   1.774   1.953  1.5069  0.9660 -0.2064
 4413TIP3    H234799   4.107   1.648   1.957  1.4189  0.8999 -0.4430
 4414TIP3   OH234800   3.987   4.433   2.023 -0.6297 -0.8963  0.2802
 4414TIP3    H134801   4.032   4.348   2.018  1.6673  0.1879  0.9750
 4414TIP3    H234802   4.006   4.475   1.939  1.9387  0.5437  1.4533
 4415TIP3   OH234803   1.399   4.533   6.962 -0.3166  0.1995  0.3586
 4415TIP3    H134804   1.483   4.550   6.920  0.6869  0.4995  2.3549
 4415TIP3    H234805   1.364   4.619   6.983 -1.1870  0.0815 -0.5111
 4416TIP3   OH234806   1.636   0.682   1.032  0.0909 -0.1921 -0.2178
 4416TIP3    H134807   1.622   0.697   1.125 -1.7485 -0.9683 -0.3379
 4416TIP3    H234808   1.624   0.588   1.020 -1.8440  0.1694 -1.5331
 4417TIP3   OH234809   0.629   1.687   2.302 -0.4490  0.1783  0.6602
 4417TIP3    H134810   0.691   1.698   2.374  1.7098 -0.3319 -1.0236
 4417TIP3    H234811   0.559   1.750   2.320  1.0979  1.5669  2.0863
 4418TIP3   OH234812   5.366   5.174   1.197  0.5682 -0.0971 -0.1530
 4418TIP3    H134813   5.295   5.180   1.133  0.3823  1.0918  0.1456
 4418TIP3    H234814   5.446   5.185   1.145  0.5366 -1.0613 -0.4345
 4419TIP3   OH234815   6.697   4.290   8.420 -0.2695  0.1486  0.0349
 4419TIP3    H134816   6.699   4.194   8.420 -0.3583  0.1396 -0.6683
 4419TIP3    H234817   6.618   4.312   8.370 -0.9660  0.5912  1.2770
 4420TIP3   OH234818   5.539   1.426   0.520  0.0236  0.4086 -0.6388
 4420TIP3    H134819   5.544   1.341   0.477  0.1677  0.1433 -0.1107
 4420TIP3    H234820   5.613   1.427   0.580 -0.8875  0.2270  0.5377
 4421TIP3   OH234821   0.152   4.829   2.227 -0.2513  0.2767 -0.1437
 4421TIP3    H134822   0.075   4.863   2.181 -1.6221 -1.5915  0.6199
 4421TIP3    H234823   0.142   4.860   2.317 -1.0326 -1.2179  0.3393
 4422TIP3   OH234824   2.357   4.641   1.387  0.4188 -0.4482  0.4288
 4422TIP3    H134825   2.374   4.735   1.377  0.8580 -0.4067  1.4314
 4422TIP3    H234826   2.406   4.617   1.466  1.6612 -1.8639 -0.7176
 4423TIP3   OH234827   4.014   0.672   1.840  0.1622  0.0461  0.4478
 4423TIP3    H134828   4.099   0.630   1.849  1.3324  2.1885 -0.0254
 4423TIP3    H234829   3.999   0.676   1.745  0.0892  0.7399  0.4885
 4424TIP3   OH234830   5.843   4.088   6.872  0.6135 -0.1894 -0.1996
 4424TIP3    H134831   5.805   4.156   6.928  0.8709 -0.4901  0.3412
 4424TIP3    H234832   5.824   4.118   6.783 -2.2369 -1.0939  0.0427
 4425TIP3   OH234833   4.945   5.272   8.010 -0.3875 -0.1244  0.5583
 4425TIP3    H134834   4.920   5.292   7.920  1.0565  1.3769  0.4546
 4425TIP3    H234835   4.964   5.178   8.009  1.0918  0.1449 -1.0998
 4426TIP3   OH234836   3.305   5.102   7.016  0.3191  0.5979 -0.0551
 4426TIP3    H134837   3.289   5.163   7.087 -1.7393 -0.3572  0.3645
 4426TIP3    H234838   3.344   5.155   6.947  1.6107  1.7069  1.4441
 4427TIP3   OH234839   1.154   4.932   8.319 -0.2828  0.0979 -0.4212
 4427TIP3    H134840   1.232   4.882   8.343 -0.0835  0.2799 -0.6967
 4427TIP3    H234841   1.086   4.865   8.306 -1.0471  0.0492  2.8662
 4428TIP3   OH234842   6.488   5.385   1.888  0.2161  0.4841  0.1363
 4428TIP3    H134843   6.505   5.441   1.964  1.3589  2.1807 -1.3129
 4428TIP3    H234844   6.434   5.438   1.830  0.9767 -0.0408 -1.0995
 4429TIP3   OH234845   1.464   4.070   1.003 -0.5478  0.3111  0.5902
 4429TIP3    H134846   1.403   4.143   1.011  0.6729  1.5636 -1.0661
 4429TIP3    H234847   1.516   4.074   1.084 -2.6581 -0.9102  2.1386
 4430TIP3   OH234848   0.957   2.023   0.652  0.1843 -0.1967 -0.0597
 4430TIP3    H134849   0.935   2.000   0.742  0.0574  1.6882  0.4382
 4430TIP3    H234850   1.052   2.034   0.651  0.1410  0.2002 -0.0408
 4431TIP3   OH234851   0.301   6.895   1.067 -0.1546 -0.3889 -0.2484
 4431TIP3    H134852   0.218   6.924   1.103  0.6916  3.0701 -0.6390
 4431TIP3    H234853   0.291   6.802   1.052 -2.9648 -0.6101  2.2418
 4432TIP3   OH234854   0.230   4.709   8.147  0.4501  0.1435  0.0482
 4432TIP3    H134855   0.247   4.633   8.202 -0.6871  0.2592  0.5990
 4432TIP3    H234856   0.134   4.712   8.140  0.5272  0.9056 -0.8394
 4433TIP3   OH234857   3.789   4.173   1.915  0.1897  0.1265  0.1865
 4433TIP3    H134858   3.770   4.267   1.906 -3.3893 -0.5014 -0.2192
 4433TIP3    H234859   3.781   4.139   1.826 -2.5353 -1.1138  0.8329
 4434TIP3   OH234860   3.001   4.268   3.045  0.0957  0.9871  0.1218
 4434TIP3    H134861   3.043   4.217   2.975  0.0712  0.4686  0.4769
 4434TIP3    H234862   3.072   4.293   3.103 -0.0780  0.0389  0.7669
 4435TIP3   OH234863   0.265   4.632   7.842 -0.3052 -0.0894 -0.2825
 4435TIP3    H134864   0.273   4.692   7.916  0.3230  1.4496 -1.5239
 4435TIP3    H234865   0.300   4.549   7.874  0.6138  0.7295  0.9373
 4436TIP3   OH234866   0.848   3.621   2.045  0.2418 -0.0811 -0.4679
 4436TIP3    H134867   0.842   3.621   1.949  2.2237 -0.3282 -0.6334
 4436TIP3    H234868   0.876   3.710   2.068  0.1661 -0.1378 -0.1464
 4437TIP3   OH234869   4.834   1.559   7.456 -0.2068 -0.5196 -0.4732
 4437TIP3    H134870   4.852   1.527   7.368 -0.3106 -1.3615 -0.1971
 4437TIP3    H234871   4.742   1.539   7.471 -0.1113 -0.6753 -0.0581
 4438TIP3   OH234872   1.294   3.815   1.652 -0.2477  0.0871 -0.3967
 4438TIP3    H134873   1.303   3.906   1.621 -2.7273  0.3103 -0.6336
 4438TIP3    H234874   1.281   3.764   1.572 -0.3588 -0.2724 -0.1491
 4439TIP3   OH234875   2.507   2.953   8.317 -0.6895 -0.3341 -0.0992
 4439TIP3    H134876   2.462   3.034   8.339 -0.7443 -0.5296  0.5348
 4439TIP3    H234877   2.579   2.979   8.259  0.6578  0.4728  1.8389
 4440TIP3   OH234878   2.623   6.446   2.411  0.2421 -0.9663 -0.1571
 4440TIP3    H134879   2.666   6.495   2.480 -1.0998 -2.0907  1.5790
 4440TIP3    H234880   2.668   6.362   2.409  0.1759 -0.9973 -0.5446
 4441TIP3   OH234881   2.553   5.033   1.910  0.0220  0.2422 -0.5573
 4441TIP3    H134882   2.459   5.045   1.916  0.0350 -0.2448  1.5453
 4441TIP3    H234883   2.575   5.058   1.820 -2.1478 -0.0830 -1.2387
 4442TIP3   OH234884   0.969   4.753   7.776 -0.2845  0.0910  0.2860
 4442TIP3    H134885   0.896   4.701   7.743 -0.9256  1.0751  0.1249
 4442TIP3    H234886   1.023   4.690   7.824 -0.4123 -0.9496 -0.8831
 4443TIP3   OH234887   4.460   2.599   1.790 -0.4405 -0.5900 -0.0458
 4443TIP3    H134888   4.436   2.547   1.866  1.1569 -2.1296 -0.5283
 4443TIP3    H234889   4.383   2.596   1.733 -1.1428 -0.5920  0.8784
 4444TIP3   OH234890   0.047   2.450   7.257  0.4365  0.6033 -0.2615
 4444TIP3    H134891   0.030   2.445   7.351 -0.2056 -0.0992 -0.4040
 4444TIP3    H234892  -0.022   2.507   7.224 -2.2177 -2.6624 -0.9190
 4445TIP3   OH234893   1.720   4.405   1.988 -0.0742  0.0131 -0.4412
 4445TIP3    H134894   1.674   4.320   1.987 -0.1646  0.0598 -0.2990
 4445TIP3    H234895   1.787   4.395   2.056 -1.4503  0.7660  1.1057
 4446TIP3   OH234896   0.031   3.557   1.683 -0.2665  0.5506  0.2887
 4446TIP3    H134897   0.073   3.481   1.723 -0.1811  0.2027 -0.4456
 4446TIP3    H234898  -0.038   3.582   1.746 -1.2645 -1.0415 -0.1122
 4447TIP3   OH234899   3.347   3.658   0.662 -0.8871 -0.2158 -0.5125
 4447TIP3    H134900   3.397   3.583   0.694 -1.0764 -0.4079 -0.6617
 4447TIP3    H234901   3.360   3.655   0.567  1.2127  1.4303 -0.3549
 4448TIP3   OH234902   5.534   6.415   2.384  0.0602  0.5078  0.7025
 4448TIP3    H134903   5.456   6.360   2.390  0.0069  0.3517 -0.8701
 4448TIP3    H234904   5.538   6.461   2.468 -0.9000 -0.5539  1.3604
 4449TIP3   OH234905   1.774   6.384   0.341  0.0398 -0.0194 -0.2657
 4449TIP3    H134906   1.857   6.369   0.387 -0.6075  1.0821  1.3553
 4449TIP3    H234907   1.736   6.297   0.332  0.7832 -0.4014  0.1510
 4450TIP3   OH234908   1.305   6.307   0.823 -0.3616 -0.5256  0.4779
 4450TIP3    H134909   1.393   6.301   0.859  0.0187  1.1128 -0.0707
 4450TIP3    H234910   1.314   6.367   0.749 -2.1217  0.5432  1.0745
 4451TIP3   OH234911   2.374   5.847   8.536  0.6391  0.3184  0.0783
 4451TIP3    H134912   2.443   5.899   8.495 -0.5809  0.0544 -2.5084
 4451TIP3    H234913   2.293   5.878   8.496 -0.3764 -1.9323  0.2030
 4452TIP3   OH234914   6.702   4.376   6.873 -0.1186  0.5556  0.1586
 4452TIP3    H134915   6.676   4.298   6.922  0.4283 -0.3438 -0.9493
 4452TIP3    H234916   6.794   4.389   6.897 -0.3745  1.2533  0.8204
 4453TIP3   OH234917   0.032   4.738   7.314  0.0328 -0.4277  0.0875
 4453TIP3    H134918   0.019   4.828   7.345 -1.6118 -1.2815  2.1714
 4453TIP3    H234919   0.011   4.741   7.221 -1.2976  1.1324  0.3922
 4454TIP3   OH234920   2.523   2.594   6.890 -0.4223 -0.0289 -0.3756
 4454TIP3    H134921   2.594   2.548   6.846 -0.5793 -0.5298 -0.1184
 4454TIP3    H234922   2.518   2.553   6.977 -0.6768  0.3609 -0.2005
 4455TIP3   OH234923   5.287   1.909   8.528 -0.0023  0.6197  0.8561
 4455TIP3    H134924   5.272   1.879   8.618 -1.5915  1.8607  1.0473
 4455TIP3    H234925   5.200   1.933   8.496  0.3288 -0.9864 -1.4926
 4456TIP3   OH234926   6.247   5.693   8.322  0.5869 -0.4828  0.0458
 4456TIP3    H134927   6.179   5.744   8.279  1.0208  0.7387  0.7633
 4456TIP3    H234928   6.328   5.720   8.279  1.0174  0.6960  1.5292
 4457TIP3   OH234929   1.293   5.049   2.455  0.2813 -0.3224 -0.1642
 4457TIP3    H134930   1.289   5.125   2.513 -0.1229 -0.2667 -0.2667
 4457TIP3    H234931   1.266   4.975   2.510 -2.5673  0.0781 -0.8999
 4458TIP3   OH234932   6.706   5.873   2.587  0.2094  0.3117 -0.0582
 4458TIP3    H134933   6.619   5.833   2.581  0.1164  0.3778  0.7616
 4458TIP3    H234934   6.751   5.824   2.657  0.8294  0.2860 -0.4641
 4459TIP3   OH234935   0.441   5.998   0.187 -0.3582  0.4035  1.0295
 4459TIP3    H134936   0.358   6.035   0.218  0.3187  1.6745  1.4230
 4459TIP3    H234937   0.506   6.065   0.209  0.7471 -0.4910  0.5665
 4460TIP3   OH234938   4.148   4.212   2.028  0.1105  0.5478 -0.0963
 4460TIP3    H134939   4.189   4.231   1.944  1.3061  2.4921  0.8541
 4460TIP3    H234940   4.220   4.188   2.086 -0.1551  2.5985  1.2211
 4461TIP3   OH234941   3.681   0.720   0.546  0.0973  0.3107  0.0471
 4461TIP3    H134942   3.767   0.761   0.537  0.4144  0.0093  1.5150
 4461TIP3    H234943   3.619   0.792   0.539  0.5780  0.8453  1.0822
 4462TIP3   OH234944   6.754   4.656   0.551 -0.6719 -0.1876  0.0152
 4462TIP3    H134945   6.720   4.644   0.463 -0.4532 -2.1720  0.1430
 4462TIP3    H234946   6.846   4.628   0.546  0.1756  2.3191  0.3089
 4463TIP3   OH234947   4.050   4.576   6.556 -0.0504  0.0275 -0.0754
 4463TIP3    H134948   4.015   4.585   6.467 -4.0967 -0.6599  1.2305
 4463TIP3    H234949   3.997   4.637   6.608 -0.3810 -2.1717  2.3902
 4464TIP3   OH234950   4.544   0.036   8.267  0.5411 -0.2185  0.2039
 4464TIP3    H134951   4.481   0.029   8.195  0.4355 -0.6473  0.3317
 4464TIP3    H234952   4.544   0.129   8.290  0.8590 -0.0096 -0.5955
 4465TIP3   OH234953   6.725   5.736   0.002  0.4949 -0.1963  0.4806
 4465TIP3    H134954   6.716   5.656  -0.051  2.0754 -0.9634  1.2810
 4465TIP3    H234955   6.645   5.741   0.053  0.7817 -1.8723  1.1627
 4466TIP3   OH234956   3.018   4.820   1.883 -0.1453 -0.6487  0.2673
 4466TIP3    H134957   2.995   4.813   1.975 -2.4909  0.2779 -0.1951
 4466TIP3    H234958   2.952   4.878   1.845  1.4620 -0.0044 -1.7704
 4467TIP3   OH234959   2.349   0.968   1.039 -0.2382 -0.3787  0.1547
 4467TIP3    H134960   2.439   1.000   1.034 -0.7456  1.2356  0.7462
 4467TIP3    H234961   2.310   0.993   0.955 -0.2125 -0.8801 -0.0120
 4468TIP3   OH234962   2.133   5.877   2.186 -0.1047 -0.0644  0.0510
 4468TIP3    H134963   2.214   5.926   2.178  0.5606 -1.2254 -0.6433
 4468TIP3    H234964   2.073   5.916   2.122  0.1575  0.3075  0.0346
 4469TIP3   OH234965   6.453   3.649   7.392 -0.7363  1.1246  0.4486
 4469TIP3    H134966   6.435   3.572   7.447  0.7413 -0.5322 -1.2291
 4469TIP3    H234967   6.438   3.724   7.450  1.1842 -0.4820  3.3229
 4470TIP3   OH234968   0.947   5.196   7.875 -0.7143 -0.0033  0.3872
 4470TIP3    H134969   0.953   5.137   7.800 -1.1356  0.3773  0.0508
 4470TIP3    H234970   0.982   5.279   7.843  1.5421 -0.5003  1.3584
 4471TIP3   OH234971   4.301   5.973   0.659 -0.0345 -0.1470 -0.5156
 4471TIP3    H134972   4.326   6.065   0.668  1.9400 -0.8517  4.0104
 4471TIP3    H234973   4.221   5.965   0.711 -1.3406 -0.7584 -2.4958
 4472TIP3   OH234974   2.740   3.870   7.449 -0.4682  0.0211  0.1115
 4472TIP3    H134975   2.779   3.942   7.398  1.2536 -0.6902  0.3336
 4472TIP3    H234976   2.680   3.827   7.388  0.2591  0.2302 -0.7885
 4473TIP3   OH234977   2.837   2.360   1.567  0.3216  0.4587  0.2767
 4473TIP3    H134978   2.827   2.452   1.540 -0.1988  0.5975  0.9224
 4473TIP3    H234979   2.894   2.363   1.643 -0.8758  0.4077  1.2061
 4474TIP3   OH234980   1.115   5.215   7.515 -0.3225 -0.0688  0.0082
 4474TIP3    H134981   1.116   5.309   7.496  0.7287  0.0323  0.5302
 4474TIP3    H234982   1.049   5.180   7.455 -0.2571  0.9013 -0.6577
 4475TIP3   OH234983   3.920   0.380   8.367  0.1926 -0.5344 -0.2634
 4475TIP3    H134984   3.828   0.374   8.342 -0.2211 -1.9022  1.3603
 4475TIP3    H234985   3.964   0.310   8.318 -0.1073 -1.4350  0.7164
 4476TIP3   OH234986   2.491   5.824   2.412  0.4074 -0.2099  0.2248
 4476TIP3    H134987   2.493   5.918   2.395 -0.1101 -0.3526 -0.6207
 4476TIP3    H234988   2.579   5.794   2.390  0.2046 -0.1310 -0.7057
 4477TIP3   OH234989   4.095   1.116   7.849  0.0885 -0.0723  0.0378
 4477TIP3    H134990   4.141   1.038   7.877  1.0698  0.3037 -0.4899
 4477TIP3    H234991   4.148   1.152   7.778 -0.2775  1.1415  0.3481
 4478TIP3   OH234992   0.198   1.322   7.352  0.4956  0.2472 -0.3127
 4478TIP3    H134993   0.203   1.417   7.359  0.3046  0.3134 -1.0289
 4478TIP3    H234994   0.104   1.304   7.343 -0.0677 -0.3404  4.1727
 4479TIP3   OH234995   5.432   4.078   7.121  0.1730  0.0070  0.2823
 4479TIP3    H134996   5.491   4.147   7.089  0.1068 -0.7465 -1.5367
 4479TIP3    H234997   5.371   4.063   7.050 -0.4024 -1.3033  1.0190
 4480TIP3   OH234998   3.089   3.357   0.950  0.4447 -0.4111  0.2156
 4480TIP3    H134999   3.059   3.269   0.974 -2.0958  0.5914  0.9610
 4480TIP3    H235000   3.096   3.354   0.854  1.1118 -1.5925  0.2701
 4481TIP3   OH235001   5.202   6.619   1.572  0.6484  0.1670  0.1068
 4481TIP3    H135002   5.290   6.622   1.533  0.4223  0.7904 -0.3785
 4481TIP3    H235003   5.198   6.697   1.627 -0.0657  0.8854 -0.9265
 4482TIP3   OH235004   6.365   4.837   0.059 -0.1277  0.6108  0.7299
 4482TIP3    H135005   6.363   4.751   0.100  2.6774 -0.4987 -1.2155
 4482TIP3    H235006   6.403   4.894   0.126  0.8246 -0.3347  1.0152
 4483TIP3   OH235007   2.164   4.930   0.277 -0.4400  0.6156  0.1951
 4483TIP3    H135008   2.154   4.942   0.183 -0.3273  2.8941  0.4001
 4483TIP3    H235009   2.116   4.850   0.297  0.1648 -0.3158 -1.8762
 4484TIP3   OH235010   6.341   6.761   7.759  0.1095 -0.1220 -0.2636
 4484TIP3    H135011   6.383   6.754   7.845  1.2825 -0.3384 -0.8444
 4484TIP3    H235012   6.255   6.720   7.772  0.4538 -0.5876  0.6863
 4485TIP3   OH235013   4.314   0.232   0.538  0.0295  0.4387  0.2798
 4485TIP3    H135014   4.312   0.258   0.446 -1.2693  1.3990  0.5522
 4485TIP3    H235015   4.406   0.213   0.556  0.4541  1.2235 -0.9470
 4486TIP3   OH235016   1.670   4.703   0.566  0.3051  0.2362  0.3460
 4486TIP3    H135017   1.721   4.622   0.564  0.3869  0.2808  0.5249
 4486TIP3    H235018   1.579   4.675   0.557  0.3619  0.1567 -0.0046
 4487TIP3   OH235019   6.278   1.876   0.656  0.6038  0.3904 -0.4513
 4487TIP3    H135020   6.275   1.934   0.732 -0.8544 -0.1587 -0.0661
 4487TIP3    H235021   6.303   1.791   0.692 -3.3973 -0.7434  0.0745
 4488TIP3   OH235022   2.633   5.018   1.303  0.0899 -0.1269  0.0181
 4488TIP3    H135023   2.676   4.954   1.359 -0.3497  0.2089  0.7432
 4488TIP3    H235024   2.542   4.987   1.297 -0.2066  0.5947  0.6367
 4489TIP3   OH235025   5.138   0.680   0.618 -0.1658 -0.2440  0.2261
 4489TIP3    H135026   5.085   0.731   0.679 -0.0339 -0.7204  0.7469
 4489TIP3    H235027   5.087   0.600   0.603  0.9030 -1.2259  1.6254
 4490TIP3   OH235028   1.895   6.459   8.239 -0.0841  0.3981 -0.1632
 4490TIP3    H135029   1.842   6.423   8.167 -0.4393  0.4662  0.0612
 4490TIP3    H235030   1.850   6.539   8.264  1.1195  1.4285 -1.1560
 4491TIP3   OH235031   5.901   5.574   7.336  0.1049  0.1801 -0.6877
 4491TIP3    H135032   5.948   5.652   7.364  0.4968 -0.1517 -0.4003
 4491TIP3    H235033   5.845   5.551   7.411 -0.0561  0.2198 -0.7946
 4492TIP3   OH235034   5.469   2.394   1.026  0.4915 -0.5698 -0.2547
 4492TIP3    H135035   5.546   2.447   1.045 -0.9792  1.8139 -0.5781
 4492TIP3    H235036   5.498   2.335   0.956  2.1106  0.0339 -0.1393
 4493TIP3   OH235037   2.517   3.366   2.321 -0.1489 -0.2853  0.5360
 4493TIP3    H135038   2.440   3.343   2.373 -1.0018  1.7569  0.2719
 4493TIP3    H235039   2.566   3.428   2.375 -0.4477  0.9770 -0.5634
 4494TIP3   OH235040   6.646   3.005   0.461 -0.0933  0.1149 -0.7686
 4494TIP3    H135041   6.689   3.083   0.427 -0.2786 -0.5591 -2.6538
 4494TIP3    H235042   6.563   3.037   0.498  0.3855  0.9399 -0.3686
 4495TIP3   OH235043   6.356   1.437   1.258 -0.4142 -0.1238 -0.2470
 4495TIP3    H135044   6.414   1.407   1.187 -1.0937  1.1598 -1.3908
 4495TIP3    H235045   6.318   1.357   1.293 -0.6808 -0.7658 -1.8979
 4496TIP3   OH235046   2.021   0.620   7.683  0.0264 -0.3907 -0.1748
 4496TIP3    H135047   2.078   0.645   7.756  2.1068 -0.1323 -1.8116
 4496TIP3    H235048   2.029   0.525   7.677 -1.1859 -0.5773  0.6991
 4497TIP3   OH235049   1.426   0.547   0.620  0.2445  0.3402 -0.4521
 4497TIP3    H135050   1.403   0.522   0.710  0.1047 -1.5597 -0.9780
 4497TIP3    H235051   1.472   0.630   0.630 -1.2548  1.0349  1.2036
 4498TIP3   OH235052   5.157   4.096   0.790 -0.4029 -0.2491  0.1615
 4498TIP3    H135053   5.090   4.080   0.724 -0.1059  0.9498 -0.4593
 4498TIP3    H235054   5.233   4.047   0.759 -0.0435  0.8697 -0.7854
 4499TIP3   OH235055   0.409   0.628   2.294  0.3735 -0.0728  0.1474
 4499TIP3    H135056   0.470   0.648   2.366  2.6232  0.2946 -1.7295
 4499TIP3    H235057   0.365   0.711   2.277  1.1731  0.3248 -0.0529
 4500TIP3   OH235058   4.392   1.742   1.076 -0.4012 -0.1427 -0.4151
 4500TIP3    H135059   4.431   1.789   1.002 -0.5044  0.8614  0.1412
 4500TIP3    H235060   4.370   1.656   1.041 -1.1735  0.5727 -1.7840
 4501TIP3   OH235061   6.002   5.526   1.688 -0.0495 -0.4425 -0.3535
 4501TIP3    H135062   5.952   5.458   1.641 -0.0596  0.1497 -1.2321
 4501TIP3    H235063   5.943   5.555   1.757 -0.2054 -1.0420 -0.2286
 4502TIP3   OH235064   3.231   1.676   8.006  0.3545 -0.2905  0.3649
 4502TIP3    H135065   3.302   1.724   7.964  0.4502 -0.6679  0.0887
 4502TIP3    H235066   3.154   1.695   7.952  1.1685 -3.8246 -2.4040
 4503TIP3   OH235067   3.596   0.021   1.751 -0.0168  0.2633 -0.0814
 4503TIP3    H135068   3.561  -0.055   1.704 -2.7688  1.2085  0.2492
 4503TIP3    H235069   3.536   0.034   1.824  1.5282  1.6021  1.0247
 4504TIP3   OH235070   2.622   6.185   2.655 -0.2186 -0.8052 -0.0340
 4504TIP3    H135071   2.699   6.140   2.691 -1.2982 -2.6838  0.0840
 4504TIP3    H235072   2.573   6.214   2.732  0.6046  0.8704 -0.1133
 4505TIP3   OH235073   0.126   4.043   6.744  0.4581 -0.0903  0.2278
 4505TIP3    H135074   0.036   4.012   6.751  0.5585 -0.5738 -0.5313
 4505TIP3    H235075   0.165   3.987   6.677  1.6677 -0.6740  1.3829
 4506TIP3   OH235076   6.376   1.336   7.170  0.0464 -0.1088 -0.6278
 4506TIP3    H135077   6.366   1.263   7.109  1.2407 -1.4232  0.6789
 4506TIP3    H235078   6.459   1.319   7.214 -0.8870  0.6563  1.5426
 4507TIP3   OH235079   1.298   0.362   2.672  0.1276 -0.8034 -0.1640
 4507TIP3    H135080   1.236   0.353   2.599 -1.2105  0.5888  0.7457
 4507TIP3    H235081   1.269   0.296   2.735 -0.0121 -0.6152 -0.0297
 4508TIP3   OH235082   2.033   0.720   0.225  0.4432  0.1307 -0.4549
 4508TIP3    H135083   1.982   0.780   0.170  0.9428 -1.3744 -2.7305
 4508TIP3    H235084   1.967   0.664   0.266 -0.0248  2.0825  1.6476
 4509TIP3   OH235085   4.599   4.436   0.632  0.1248  0.1697 -0.0214
 4509TIP3    H135086   4.520   4.384   0.620 -1.0325  1.4698  1.3940
 4509TIP3    H235087   4.594   4.504   0.566 -0.9290  1.3080  1.1717
 4510TIP3   OH235088   6.684   2.118   2.120  0.2429  0.3914  0.1995
 4510TIP3    H135089   6.757   2.170   2.088 -1.1537  0.8650 -2.5902
 4510TIP3    H235090   6.663   2.154   2.205  1.2552  2.3591 -0.3337
 4511TIP3   OH235091   6.420   4.067   1.639  0.3305 -0.3881 -0.6332
 4511TIP3    H135092   6.356   4.027   1.579 -0.4682  0.3569 -0.3112
 4511TIP3    H235093   6.370   4.085   1.719  1.0300 -0.0858 -0.2557
 4512TIP3   OH235094   0.010   4.798   2.477 -0.0212  0.2312 -0.4991
 4512TIP3    H135095   0.071   4.866   2.504 -0.6226  1.2705 -1.6064
 4512TIP3    H235096  -0.004   4.744   2.555 -0.5878  2.2078  0.8364
 4513TIP3   OH235097   3.893   2.475   1.704  0.1468  0.0202  0.8125
 4513TIP3    H135098   3.817   2.516   1.663  0.7694  0.8607  0.4595
 4513TIP3    H235099   3.911   2.530   1.780  1.9041  1.3697 -0.4906
 4514TIP3   OH235100   1.828   1.061   0.870  0.4439  0.0479 -0.1196
 4514TIP3    H135101   1.741   1.038   0.840  0.3766  2.4382 -2.1287
 4514TIP3    H235102   1.819   1.073   0.965 -1.2966 -0.1770 -0.2310
 4515TIP3   OH235103   4.197   5.204   1.627  0.6874 -0.3264  0.0552
 4515TIP3    H135104   4.211   5.191   1.721 -0.3630  0.4634  0.3362
 4515TIP3    H235105   4.114   5.161   1.609  0.2103  0.6723 -0.2204
 4516TIP3   OH235106   3.386   6.003   2.133  0.5575 -0.2077 -0.1770
 4516TIP3    H135107   3.388   5.986   2.039 -1.2491 -0.3939 -0.2241
 4516TIP3    H235108   3.419   6.093   2.142  1.5466 -0.4875 -0.8848
 4517TIP3   OH235109   1.334   5.651   1.434 -0.6291 -0.2977  0.2974
 4517TIP3    H135110   1.416   5.612   1.465 -1.1193 -1.1661  0.5624
 4517TIP3    H235111   1.334   5.739   1.470 -0.2325 -0.6043  1.0833
 4518TIP3   OH235112   0.787   3.270   0.208  0.1676  0.0536  0.0060
 4518TIP3    H135113   0.722   3.227   0.152  0.6357 -0.5030 -0.1113
 4518TIP3    H235114   0.803   3.354   0.165 -1.0733  0.5538  0.4699
 4519TIP3   OH235115   6.548   5.861   6.797 -0.6079 -0.4897 -0.2601
 4519TIP3    H135116   6.502   5.849   6.880 -0.1505  0.4803  0.1557
 4519TIP3    H235117   6.562   5.773   6.763  2.2394 -1.2293  2.3900
 4520TIP3   OH235118   2.966   0.552   2.520 -0.0490 -0.5653  0.6945
 4520TIP3    H135119   2.895   0.518   2.573  1.1950 -1.3015  1.9672
 4520TIP3    H235120   2.994   0.632   2.564 -0.9723  0.5253 -0.5984
 4521TIP3   OH235121   1.224   2.780   8.311 -0.0770  0.3062  0.2346
 4521TIP3    H135122   1.160   2.709   8.310  0.6939 -0.3916 -0.0309
 4521TIP3    H235123   1.204   2.828   8.392 -1.3215  0.4709 -0.1468
 4522TIP3   OH235124   5.183   0.093   1.954 -0.5554  0.3022 -0.1281
 4522TIP3    H135125   5.168   0.084   2.048  0.2022  1.8075  0.1647
 4522TIP3    H235126   5.278   0.087   1.944 -0.6121  0.4178 -0.7710
 4523TIP3   OH235127   6.175   6.348   2.027  0.1713 -0.7654  0.8809
 4523TIP3    H135128   6.259   6.394   2.019  0.6673 -1.6533  0.7905
 4523TIP3    H235129   6.124   6.400   2.089  0.9518 -0.4363  1.2578
 4524TIP3   OH235130   6.409   3.189   8.141  0.1136 -0.0606  0.0735
 4524TIP3    H135131   6.489   3.145   8.112  0.7238 -0.2177  1.8793
 4524TIP3    H235132   6.340   3.154   8.083  1.0737 -1.1434 -0.4477
 4525TIP3   OH235133   6.570   1.998   7.065  0.0263  0.3425  0.1383
 4525TIP3    H135134   6.556   1.969   7.155  0.5837  0.4889  0.2718
 4525TIP3    H235135   6.489   2.045   7.042  0.1491  0.8780  0.7889
 4526TIP3   OH235136   3.792   2.225   0.167  0.4140  0.8246  0.4265
 4526TIP3    H135137   3.863   2.198   0.226  0.4357  0.6919  0.3405
 4526TIP3    H235138   3.797   2.320   0.166  0.8201  0.8016  0.1388
 4527TIP3   OH235139   2.303   0.784   1.265 -0.7496 -0.0922 -0.0471
 4527TIP3    H135140   2.288   0.699   1.223 -1.9331  0.6288 -1.1357
 4527TIP3    H235141   2.319   0.844   1.193 -0.0669  0.6600  0.7073
 4528TIP3   OH235142   0.642   6.889   0.046  0.3777  0.2789 -0.4091
 4528TIP3    H135143   0.692   6.812   0.072  0.5960  0.2339 -0.9499
 4528TIP3    H235144   0.599   6.918   0.126  2.9795  1.5961  0.6189
 4529TIP3   OH235145   6.578   3.468   8.160 -0.1603 -0.1089 -0.0377
 4529TIP3    H135146   6.504   3.409   8.144  0.3062 -0.6198 -0.3893
 4529TIP3    H235147   6.641   3.414   8.208  0.2495  0.1234 -0.3076
 4530TIP3   OH235148   0.801   0.539   1.702  0.4854  0.3139  0.1502
 4530TIP3    H135149   0.830   0.606   1.764 -0.8299  0.5245  0.5649
 4530TIP3    H235150   0.862   0.547   1.629  0.2103  2.1496  0.0627
 4531TIP3   OH235151   3.233   6.811   6.633 -0.0869 -0.0113  0.0138
 4531TIP3    H135152   3.257   6.720   6.616 -2.2392 -0.5560 -0.4635
 4531TIP3    H235153   3.191   6.809   6.719  0.5541  0.6754  0.3480
 4532TIP3   OH235154   6.410   4.060   7.858 -0.2535  0.2005  0.0076
 4532TIP3    H135155   6.473   4.089   7.925  0.1669  2.8002 -1.3886
 4532TIP3    H235156   6.331   4.037   7.907  0.6243  0.2949  1.5185
 4533TIP3   OH235157   6.814   1.287   0.054  0.1549 -0.2964 -0.0445
 4533TIP3    H135158   6.812   1.356  -0.013 -1.2412 -0.0539  0.2291
 4533TIP3    H235159   6.815   1.206   0.004  0.9483 -0.1079 -0.3596
 4534TIP3   OH235160   3.466   0.126   0.173 -0.1034 -0.0085 -0.0182
 4534TIP3    H135161   3.536   0.177   0.215  0.3974 -0.6856 -0.0079
 4534TIP3    H235162   3.510   0.080   0.101 -0.9474  1.1398 -1.3201
 4535TIP3   OH235163   2.901   3.888   1.756 -0.3501  0.4551 -0.2735
 4535TIP3    H135164   2.863   3.833   1.688  0.1548 -0.1978 -0.0437
 4535TIP3    H235165   2.983   3.921   1.718  0.2645 -0.4430  0.2385
 4536TIP3   OH235166   5.094   0.349   1.848 -0.8018 -0.4780 -0.2688
 4536TIP3    H135167   5.133   0.271   1.888  0.0886  0.3818  0.6044
 4536TIP3    H235168   5.072   0.405   1.922  0.0964  0.7921 -0.9347
 4537TIP3   OH235169   4.986   6.880   1.200 -0.4537  0.2159 -0.4063
 4537TIP3    H135170   4.950   6.791   1.204 -0.0521  0.1013  2.0885
 4537TIP3    H235171   4.910   6.937   1.207 -0.5282  0.0266  0.4051
 4538TIP3   OH235172   3.919   0.778   1.576 -0.2984 -0.3984  0.2113
 4538TIP3    H135173   4.010   0.803   1.593 -1.1756  4.0289 -0.4603
 4538TIP3    H235174   3.913   0.772   1.481 -1.0739  1.6479  0.0699
 4539TIP3   OH235175   0.774   6.461   8.368  0.4548  0.5982 -0.0179
 4539TIP3    H135176   0.712   6.389   8.373  2.9893 -1.7025  0.8648
 4539TIP3    H235177   0.813   6.453   8.281  1.1445  0.5569  0.2909
 4540TIP3   OH235178   4.862   2.974   0.017  0.2931 -0.0712 -0.3893
 4540TIP3    H135179   4.797   3.029  -0.026  2.2968  0.8186 -2.5472
 4540TIP3    H235180   4.929   3.036   0.048 -0.1455 -0.8661  2.5001
 4541TIP3   OH235181   0.239   0.438   0.543 -0.4841 -0.0383  0.2144
 4541TIP3    H135182   0.301   0.365   0.533  1.4811  1.6096 -0.2731
 4541TIP3    H235183   0.164   0.399   0.588  1.7108 -1.7584  2.7003
 4542TIP3   OH235184   5.294   0.644   7.388  0.7475 -0.0811 -0.1600
 4542TIP3    H135185   5.258   0.585   7.322  0.3362 -1.3366  1.1403
 4542TIP3    H235186   5.230   0.715   7.394  0.7900  0.0422 -1.0976
 4543TIP3   OH235187   5.782   2.889   1.564  0.6003  0.2801 -0.0219
 4543TIP3    H135188   5.709   2.950   1.575 -0.8029 -1.5864  1.9132
 4543TIP3    H235189   5.847   2.917   1.628  1.0368  1.1307 -0.8090
 4544TIP3   OH235190   0.714   6.129   1.269 -0.2995 -0.1392  0.7887
 4544TIP3    H135191   0.684   6.096   1.184  1.3790 -0.4916  0.3120
 4544TIP3    H235192   0.729   6.051   1.322  0.9662 -0.0553  0.5880
 4545TIP3   OH235193   6.376   1.465   0.964  0.2497 -0.1273 -0.5029
 4545TIP3    H135194   6.332   1.386   0.994 -1.0844  0.2528 -1.3302
 4545TIP3    H235195   6.437   1.435   0.898  1.5389 -0.7063  0.8877
 4546TIP3   OH235196   3.215   6.167   2.329  0.7029  0.0538 -0.1627
 4546TIP3    H135197   3.252   6.109   2.263  0.8414  0.1016 -0.1273
 4546TIP3    H235198   3.195   6.109   2.403  0.8520  0.0516 -0.1230
 4547TIP3   OH235199   2.914   5.221   1.722  0.4848  0.3019  0.1662
 4547TIP3    H135200   2.835   5.275   1.721  1.6502  2.1115 -1.2937
 4547TIP3    H235201   2.979   5.274   1.676  1.4920 -2.7421 -2.2104
 4548TIP3   OH235202   4.647   4.333   8.148  0.2214 -0.2941  0.1646
 4548TIP3    H135203   4.594   4.305   8.222 -0.4433  2.2906  0.7685
 4548TIP3    H235204   4.736   4.335   8.181  0.0758 -0.2169  0.5524
 4549TIP3   OH235205   4.253   5.600   8.504 -0.5927 -0.2096 -0.5580
 4549TIP3    H135206   4.307   5.634   8.433 -1.1379  1.7886 -0.0773
 4549TIP3    H235207   4.315   5.573   8.572 -0.1541  0.7963 -0.5526
 4550TIP3   OH235208   3.516   5.241   1.223 -0.2411 -0.6926 -0.1170
 4550TIP3    H135209   3.464   5.321   1.219 -0.2252 -0.7211 -1.2143
 4550TIP3    H235210   3.523   5.212   1.131  2.5526 -0.1312 -0.1711
 4551TIP3   OH235211   2.948   3.586   1.100  0.3714  0.2343 -0.6552
 4551TIP3    H135212   3.017   3.521   1.085  1.5492  1.6654 -1.9509
 4551TIP3    H235213   2.903   3.593   1.016 -1.3660 -0.6281  0.1615
 4552TIP3   OH235214   0.758   0.500   8.172 -0.4557  0.6648 -0.4047
 4552TIP3    H135215   0.832   0.461   8.126 -1.8661 -1.3392 -1.0924
 4552TIP3    H235216   0.722   0.563   8.110 -1.0839 -0.5095 -1.2605
 4553TIP3   OH235217   0.995   4.642   1.970 -0.0591  0.3400  0.1210
 4553TIP3    H135218   0.983   4.570   2.033  0.4996  1.3499  1.4242
 4553TIP3    H235219   0.993   4.599   1.884  1.4612 -1.4077  0.8974
 4554TIP3   OH235220   2.175   5.252   7.799  0.0098  0.1751 -0.4761
 4554TIP3    H135221   2.136   5.216   7.879  0.6100  0.6859  0.0560
 4554TIP3    H235222   2.101   5.292   7.753 -0.1503  0.9455  0.4155
 4555TIP3   OH235223   3.189   4.622   1.788 -0.0522 -0.2319  0.2094
 4555TIP3    H135224   3.164   4.568   1.713 -1.2490 -0.8083  0.9834
 4555TIP3    H235225   3.113   4.678   1.804 -0.7077 -1.5889  2.2477
 4556TIP3   OH235226   5.065   1.175   1.513  0.0213 -0.1098  0.0696
 4556TIP3    H135227   5.098   1.094   1.552 -1.5989 -1.0083 -0.3672
 4556TIP3    H235228   5.013   1.216   1.582  1.4695  1.0228  0.5637
 4557TIP3   OH235229   1.409   3.076   8.314  0.7699  0.0463 -0.0996
 4557TIP3    H135230   1.358   3.074   8.233  1.5201  3.2002 -0.7933
 4557TIP3    H235231   1.366   3.143   8.367  2.4102  0.6284  0.5543
 4558TIP3   OH235232   6.091   1.669   7.927  0.5570 -0.2164 -0.3865
 4558TIP3    H135233   6.126   1.594   7.975  0.6421  0.2713  0.3161
 4558TIP3    H235234   6.095   1.742   7.988 -1.5771 -0.0977 -0.3072
 4559TIP3   OH235235   0.992   4.136   1.531  0.0742  0.3877 -0.4559
 4559TIP3    H135236   1.026   4.059   1.487 -0.2214  0.6168 -1.0949
 4559TIP3    H235237   0.948   4.186   1.462  2.1951  2.2741 -0.5785
 4560TIP3   OH235238   5.173   3.285   8.372  0.5895 -0.0110  0.3870
 4560TIP3    H135239   5.199   3.198   8.344 -1.2500 -0.0891 -1.2876
 4560TIP3    H235240   5.136   3.326   8.294 -0.4612  1.5375  1.6144
 4561TIP3   OH235241   0.433   1.968   0.721  0.0852 -0.4915 -0.9025
 4561TIP3    H135242   0.488   2.022   0.778 -0.2480  0.7334 -1.7033
 4561TIP3    H235243   0.368   2.028   0.687 -1.8597 -1.9408  0.0913
 4562TIP3   OH235244   4.564   4.584   6.589  0.0909 -0.1476  0.2778
 4562TIP3    H135245   4.636   4.522   6.598 -0.8801 -1.2881  0.5443
 4562TIP3    H235246   4.486   4.529   6.580 -0.9166  1.0203  1.3386
 4563TIP3   OH235247   3.603   2.056   7.804  0.3919 -0.1015  0.1940
 4563TIP3    H135248   3.659   1.980   7.791 -0.2174 -0.2158 -2.1799
 4563TIP3    H235249   3.656   2.117   7.855  2.4310 -0.4971 -1.3628
 4564TIP3   OH235250   0.308   2.616   7.914 -0.3196  0.0067 -0.5819
 4564TIP3    H135251   0.362   2.540   7.938 -2.1124 -1.0311  0.4132
 4564TIP3    H235252   0.357   2.659   7.844  1.6893 -0.9582  0.1445
 4565TIP3   OH235253   2.594   5.646   0.859  0.2725  0.0984 -0.7272
 4565TIP3    H135254   2.547   5.569   0.827 -0.1048  0.3109 -0.7016
 4565TIP3    H235255   2.664   5.611   0.914  0.6486 -0.2537 -1.4235
 4566TIP3   OH235256   2.440   1.366   1.121  0.0936  0.7074  0.0683
 4566TIP3    H135257   2.353   1.399   1.099  0.2520  1.3024  0.3344
 4566TIP3    H235258   2.489   1.371   1.038 -0.6728 -1.4570 -0.5828
 4567TIP3   OH235259   1.507   2.632   1.712 -0.4076  0.2727  0.1774
 4567TIP3    H135260   1.522   2.678   1.794  0.3638 -0.3344  0.3908
 4567TIP3    H235261   1.580   2.570   1.705 -0.7537 -0.0607 -0.6987
 4568TIP3   OH235262   4.672   0.458   8.074  0.2326 -0.1850  0.3174
 4568TIP3    H135263   4.607   0.441   8.006  1.9021 -3.5622 -0.6750
 4568TIP3    H235264   4.756   0.449   8.029  1.3964 -0.8419  2.5002
 4569TIP3   OH235265   1.440   3.469   2.815  0.1059  0.1369  0.1857
 4569TIP3    H135266   1.441   3.549   2.763  1.3806  1.7032  2.4272
 4569TIP3    H235267   1.421   3.400   2.752  1.1277  1.9129 -2.2484
 4570TIP3   OH235268   1.282   0.147   1.572  0.4254 -0.0306 -0.7286
 4570TIP3    H135269   1.194   0.111   1.566 -0.0094  1.2013 -2.3112
 4570TIP3    H235270   1.281   0.223   1.514  1.9191  1.2879  0.8819
 4571TIP3   OH235271   4.792   4.541   8.313 -0.0350 -0.7969  0.4891
 4571TIP3    H135272   4.706   4.503   8.332 -0.1419 -0.3830  0.8366
 4571TIP3    H235273   4.777   4.635   8.309 -0.0660 -0.8453 -1.8944
 4572TIP3   OH235274   4.789   3.944   0.091  0.2384  0.3440 -0.4707
 4572TIP3    H135275   4.705   3.989   0.100 -0.5683 -1.3216  0.6556
 4572TIP3    H235276   4.776   3.881   0.021  0.0703 -0.9253  0.6795
 4573TIP3   OH235277   0.178   4.107   0.279 -0.1812 -0.5212  0.0598
 4573TIP3    H135278   0.148   4.170   0.213  1.0505 -1.8545 -1.8630
 4573TIP3    H235279   0.273   4.103   0.267  0.0993 -0.7263  2.0245
 4574TIP3   OH235280   3.002   4.366   6.984  0.1527  0.8360  0.2032
 4574TIP3    H135281   3.038   4.450   6.954  0.0001  0.2576 -1.6969
 4574TIP3    H235282   2.915   4.363   6.946  0.2384 -0.2773  0.0689
 4575TIP3   OH235283   0.223   1.276   8.097 -0.1751 -0.2488 -0.2720
 4575TIP3    H135284   0.176   1.321   8.027  0.7106 -1.1064 -1.4842
 4575TIP3    H235285   0.157   1.222   8.140 -0.3857 -1.3805 -1.8891
 4576TIP3   OH235286   2.514   2.258   6.767 -0.1415  0.4645 -0.5801
 4576TIP3    H135287   2.602   2.292   6.752  1.3654 -1.8300  2.0134
 4576TIP3    H235288   2.506   2.184   6.707  0.5519 -0.5154  0.4852
 4577TIP3   OH235289   3.774   4.052   2.895  0.6472 -0.0272 -0.3883
 4577TIP3    H135290   3.766   4.009   2.980 -0.8372  1.8898  0.5363
 4577TIP3    H235291   3.691   4.032   2.851  0.5272  0.6890 -0.5015
 4578TIP3   OH235292   5.657   2.963   0.765 -0.3925 -0.0826 -0.1924
 4578TIP3    H135293   5.570   2.931   0.740  0.4689 -2.5175 -0.3887
 4578TIP3    H235294   5.677   2.916   0.846  1.4554 -1.0167 -1.1377
 4579TIP3   OH235295   3.854   1.898   0.967 -0.1050  0.0261 -0.0677
 4579TIP3    H135296   3.877   1.973   0.911  1.0839  0.1535  0.5549
 4579TIP3    H235297   3.884   1.924   1.054 -2.0722 -0.1019  0.6907
 4580TIP3   OH235298   4.795   6.295   8.458  0.4389  0.2612  0.0892
 4580TIP3    H135299   4.814   6.264   8.547  1.6160 -1.2574 -0.6504
 4580TIP3    H235300   4.879   6.289   8.412 -0.4222 -0.3134 -1.4899
 4581TIP3   OH235301   2.459   2.280   1.082  0.0966 -0.6890 -0.5470
 4581TIP3    H135302   2.377   2.295   1.035  0.7261  0.1068 -1.4298
 4581TIP3    H235303   2.447   2.323   1.166 -1.3018 -2.6943  0.3589
 4582TIP3   OH235304   1.455   5.058   0.383 -0.3629  0.1199  0.8535
 4582TIP3    H135305   1.498   5.058   0.468 -0.7758 -3.0087  1.1844
 4582TIP3    H235306   1.518   5.101   0.324  1.9120 -1.5285  1.9233
 4583TIP3   OH235307   0.975   6.633   7.084 -1.1172 -0.7471  0.7121
 4583TIP3    H135308   0.959   6.727   7.080 -0.2230 -0.5917  0.6084
 4583TIP3    H235309   0.894   6.596   7.120 -1.1669  0.1541  1.5716
 4584TIP3   OH235310   2.905   3.799   2.103 -0.1658 -0.1626 -0.1278
 4584TIP3    H135311   2.986   3.755   2.079  0.7891  1.9920 -0.9950
 4584TIP3    H235312   2.897   3.785   2.198 -0.1325 -2.4725 -0.4064
 4585TIP3   OH235313   1.700   2.699   7.750  0.6904 -0.3180 -0.4727
 4585TIP3    H135314   1.736   2.628   7.805  3.9572  0.5600 -1.2503
 4585TIP3    H235315   1.673   2.766   7.813  0.8908 -0.8382  0.1856
 4586TIP3   OH235316   1.227   6.180   8.202 -0.1145  0.2488 -0.9111
 4586TIP3    H135317   1.256   6.090   8.218  0.2637  0.5609  0.3061
 4586TIP3    H235318   1.166   6.199   8.274  1.1343  1.5217 -0.1356
 4587TIP3   OH235319   1.009   1.332   8.325  0.4157 -0.2387 -0.4866
 4587TIP3    H135320   0.979   1.307   8.238  0.1440 -0.8614 -0.2218
 4587TIP3    H235321   1.082   1.272   8.343  1.6638  1.0621 -1.0027
 4588TIP3   OH235322   6.551   0.725   0.727 -0.6271 -0.5862 -0.6516
 4588TIP3    H135323   6.475   0.675   0.757 -3.3312  2.6577 -1.4106
 4588TIP3    H235324   6.597   0.751   0.807 -0.2062 -2.6161 -0.1797
 4589TIP3   OH235325   4.634   3.329   7.609  0.1740 -0.9546 -0.2117
 4589TIP3    H135326   4.582   3.273   7.666 -0.6551 -0.6492 -0.6456
 4589TIP3    H235327   4.719   3.335   7.652 -0.0036 -1.8228  0.2888
 4590TIP3   OH235328   1.818   3.025   2.834  0.1392 -0.5854  0.6155
 4590TIP3    H135329   1.791   3.099   2.889 -0.4485  0.5022 -1.0276
 4590TIP3    H235330   1.757   3.028   2.760 -0.1688 -3.0134  0.7148
 4591TIP3   OH235331   0.798   6.669   0.035  0.3185 -0.3674  0.2557
 4591TIP3    H135332   0.842   6.696  -0.045  0.8353  0.1812  0.7124
 4591TIP3    H235333   0.779   6.577   0.023  0.0597 -0.1996 -0.6492
 4592TIP3   OH235334   5.979   1.383   7.036 -0.2191 -0.3983  0.3058
 4592TIP3    H135335   5.918   1.436   6.984  1.0207  0.3373 -0.4527
 4592TIP3    H235336   5.937   1.377   7.122 -0.0120  2.6583  0.7397
 4593TIP3   OH235337   0.684   5.672   7.745 -0.4693 -0.2394  0.1365
 4593TIP3    H135338   0.692   5.737   7.815 -0.6539  1.0766 -1.0213
 4593TIP3    H235339   0.772   5.635   7.737 -0.2779  0.1059  0.5743
 4594TIP3   OH235340   6.798   0.619   1.413 -0.5820 -0.0518  0.0154
 4594TIP3    H135341   6.743   0.693   1.440 -0.9487  0.0977 -1.1183
 4594TIP3    H235342   6.871   0.621   1.475 -0.8672  0.9319  0.3432
 4595TIP3   OH235343   6.362   4.391   8.176 -0.8675  0.4226  0.4988
 4595TIP3    H135344   6.286   4.354   8.131 -0.7939  0.1652  0.5840
 4595TIP3    H235345   6.375   4.477   8.135 -1.2883  0.5281  0.5765
 4596TIP3   OH235346   3.924   0.594   1.007  0.2404 -0.5702 -0.3776
 4596TIP3    H135347   3.830   0.596   1.028  0.1621 -1.0939 -0.6554
 4596TIP3    H235348   3.931   0.641   0.923  0.4514  0.8559  0.4007
 4597TIP3   OH235349   3.290   2.676   7.896 -0.6508 -0.0097 -0.3301
 4597TIP3    H135350   3.285   2.603   7.958 -0.1393 -0.0335 -0.3178
 4597TIP3    H235351   3.200   2.710   7.892 -0.5099  0.6160  1.1714
 4598TIP3   OH235352   3.532   6.424   0.421 -0.0375  0.2305 -0.5350
 4598TIP3    H135353   3.562   6.461   0.338  0.3373  0.2901 -0.3785
 4598TIP3    H235354   3.437   6.419   0.413  0.0299 -0.1594 -1.1257
 4599TIP3   OH235355   6.235   0.845   1.709 -0.4114  0.0688  0.2488
 4599TIP3    H135356   6.203   0.825   1.621 -1.1648 -0.8477  0.7192
 4599TIP3    H235357   6.204   0.934   1.726 -1.1749 -0.1463  0.0036
 4600TIP3   OH235358   4.610   4.816   6.956 -0.5424 -0.2440  0.4851
 4600TIP3    H135359   4.643   4.803   6.867 -2.8494  0.3990 -0.5371
 4600TIP3    H235360   4.614   4.729   6.995 -1.9668 -1.1479 -1.2015
 4601TIP3   OH235361   3.666   2.762   7.722 -0.3043 -0.1070 -0.2244
 4601TIP3    H135362   3.738   2.823   7.706 -1.7213  1.6199 -0.2700
 4601TIP3    H235363   3.661   2.710   7.642 -0.1578  0.8815 -0.8913
 4602TIP3   OH235364   1.291   3.952   0.469 -0.5144 -0.6338  0.1369
 4602TIP3    H135365   1.245   4.017   0.416  0.1583  0.2770  0.6452
 4602TIP3    H235366   1.253   3.961   0.557 -0.7870 -1.3110  0.0999
 4603TIP3   OH235367   0.494   5.168   8.516  0.2246  0.4913 -0.0788
 4603TIP3    H135368   0.451   5.131   8.594 -0.1490 -0.3764 -0.6802
 4603TIP3    H235369   0.478   5.262   8.522 -1.8479  0.1968 -0.3111
 4604TIP3   OH235370   4.135   2.507   1.327 -0.8953  0.2506  0.2309
 4604TIP3    H135371   4.116   2.589   1.283  0.5065  1.3782  1.6038
 4604TIP3    H235372   4.133   2.441   1.258  1.5569  1.9852 -1.6646
 4605TIP3   OH235373   2.927   4.005   7.673  0.3854 -0.3744 -0.1929
 4605TIP3    H135374   2.869   3.963   7.609 -0.3123  1.0238 -0.5382
 4605TIP3    H235375   3.012   4.011   7.628  0.3094 -0.7832 -0.3961
 4606TIP3   OH235376   4.134   3.543   0.576  0.4176  0.5684  0.1199
 4606TIP3    H135377   4.106   3.484   0.645  0.1906 -0.9910 -1.2467
 4606TIP3    H235378   4.159   3.486   0.503 -0.3539  2.1402 -1.4697
 4607TIP3   OH235379   4.352   0.162   7.778  0.1870  0.0691  0.2238
 4607TIP3    H135380   4.382   0.165   7.687 -0.2935  0.1509  0.0627
 4607TIP3    H235381   4.256   0.170   7.771  0.2168  0.9378  0.7858
 4608TIP3   OH235382   0.419   6.770   1.952 -0.4396 -0.2041  0.4650
 4608TIP3    H135383   0.339   6.760   1.900  0.5088  1.0602 -1.3463
 4608TIP3    H235384   0.473   6.831   1.901  1.9741 -1.5215  1.3043
 4609TIP3   OH235385   0.538   5.756   3.104 -0.0929 -0.6188  0.7220
 4609TIP3    H135386   0.487   5.816   3.159 -1.2859  1.0727 -2.0136
 4609TIP3    H235387   0.473   5.700   3.062  0.6387 -0.9764  0.0369
 4610TIP3   OH235388   6.213   5.625   0.049  0.4510 -0.0247 -0.0734
 4610TIP3    H135389   6.138   5.683   0.042  1.3297  1.1504 -0.1020
 4610TIP3    H235390   6.218   5.581  -0.036  0.5982  0.9113 -0.5599
 4611TIP3   OH235391   0.373   3.294   1.357  0.3672 -0.2919  0.4590
 4611TIP3    H135392   0.289   3.338   1.349 -0.2444 -1.6122 -1.3267
 4611TIP3    H235393   0.417   3.337   1.430 -0.4018  2.7983 -0.7474
 4612TIP3   OH235394   4.369   4.201   8.411 -0.3507 -0.6414  0.0117
 4612TIP3    H135395   4.432   4.129   8.404  0.3303  0.1123 -2.4541
 4612TIP3    H235396   4.284   4.159   8.396  0.0414 -0.9874 -1.4539
 4613TIP3   OH235397   1.767   5.535   7.830 -0.9228 -0.0324 -0.5366
 4613TIP3    H135398   1.737   5.580   7.909  0.0491 -1.8437  0.9473
 4613TIP3    H235399   1.862   5.535   7.838 -0.7826  0.3494 -2.0801
 4614TIP3   OH235400   1.299   3.381   8.072 -0.1467  0.7190 -0.3930
 4614TIP3    H135401   1.225   3.320   8.066  0.0203  0.5404 -0.6577
 4614TIP3    H235402   1.264   3.464   8.040 -0.9630  1.3033  1.8586
 4615TIP3   OH235403   3.441   4.600   1.378 -0.3002 -0.2915 -0.1616
 4615TIP3    H135404   3.358   4.558   1.355  0.7451 -2.3656 -0.4342
 4615TIP3    H235405   3.416   4.675   1.431 -2.3618 -0.5338 -0.6919
 4616TIP3   OH235406   1.220   0.267   1.810 -0.0447  0.2935  0.1026
 4616TIP3    H135407   1.229   0.353   1.768  0.8133  1.0369  1.7043
 4616TIP3    H235408   1.278   0.210   1.760 -1.8480  0.1793 -2.0113
 4617TIP3   OH235409   1.139   4.334   0.490 -0.6010  0.3426 -0.0705
 4617TIP3    H135410   1.093   4.250   0.487  1.2529 -0.7115 -0.4900
 4617TIP3    H235411   1.208   4.321   0.555  0.3325  1.1805 -0.8706
 4618TIP3   OH235412   6.235   0.717   7.349 -0.1431 -0.1710 -0.5350
 4618TIP3    H135413   6.270   0.636   7.311  0.2622 -0.2437 -0.0108
 4618TIP3    H235414   6.312   0.762   7.384  0.0059  1.5020 -2.7308
 4619TIP3   OH235415   0.547   3.541   0.680 -0.2884 -0.2187  0.0710
 4619TIP3    H135416   0.572   3.483   0.608  0.1019 -0.0252  0.0501
 4619TIP3    H235417   0.566   3.629   0.649  2.9588 -0.2562  1.5506
 4620TIP3   OH235418   6.362   6.467   0.403 -0.1282  0.3523 -0.1894
 4620TIP3    H135419   6.404   6.382   0.387  0.9339  0.3665  2.0934
 4620TIP3    H235420   6.270   6.445   0.418  0.1272 -0.4078  0.3414
 4621TIP3   OH235421   2.063   6.734   7.833 -0.1156 -0.0543 -0.1615
 4621TIP3    H135422   1.990   6.694   7.880  0.2613 -2.5765 -1.5423
 4621TIP3    H235423   2.140   6.716   7.886 -0.2932  1.5715  0.7053
 4622TIP3   OH235424   3.394   2.420   1.417 -0.9425  0.3300 -0.6975
 4622TIP3    H135425   3.318   2.461   1.457  0.2062  0.4888  1.5256
 4622TIP3    H235426   3.469   2.465   1.458  0.3342 -1.1802 -1.2875
 4623TIP3   OH235427   4.675   4.138   6.742  0.8072 -0.2427  0.3304
 4623TIP3    H135428   4.669   4.053   6.697 -0.5190 -0.5655  1.0626
 4623TIP3    H235429   4.604   4.190   6.705  0.8202  0.1139  0.7943
 4624TIP3   OH235430   1.533   3.936   0.240 -0.8832  0.4276  0.0736
 4624TIP3    H135431   1.490   3.955   0.323 -1.1937 -1.0568  0.2856
 4624TIP3    H235432   1.479   3.981   0.174 -1.0789  0.9739  0.5983
 4625TIP3   OH235433   3.845   2.549   2.477 -0.1660 -0.5523  0.7049
 4625TIP3    H135434   3.782   2.478   2.486  0.4638 -1.0233  1.4662
 4625TIP3    H235435   3.929   2.510   2.500  0.1090  0.5794  1.6841
 4626TIP3   OH235436   6.835   6.365   2.243  0.2841 -0.0530 -0.6120
 4626TIP3    H135437   6.766   6.368   2.309 -1.7643 -1.3831 -2.5458
 4626TIP3    H235438   6.800   6.414   2.169  1.3467 -0.8607 -1.7057
 4627TIP3   OH235439   0.078   1.425   1.202 -0.5599 -0.1736 -0.2638
 4627TIP3    H135440   0.150   1.467   1.156  0.0734  1.7532  2.2550
 4627TIP3    H235441   0.000   1.475   1.179  0.2003  2.7643  2.7807
 4628TIP3   OH235442   3.711   2.561   7.891 -0.4058  0.3308 -0.2758
 4628TIP3    H135443   3.709   2.647   7.849 -1.2895  0.1899 -0.5618
 4628TIP3    H235444   3.677   2.502   7.824 -1.0630 -0.0257  0.3617
 4629TIP3   OH235445   5.975   0.581   7.561 -0.0765 -0.0544  0.4299
 4629TIP3    H135446   5.934   0.630   7.489 -1.6583 -1.5430  0.2387
 4629TIP3    H235447   6.056   0.547   7.523 -0.0163  0.6448 -0.0922
 4630TIP3   OH235448   5.980   0.180   0.082  0.3783 -0.3022 -0.6690
 4630TIP3    H135449   6.056   0.124   0.062  1.8016  0.9891  0.9088
 4630TIP3    H235450   5.936   0.191  -0.003  1.0291 -2.3564 -1.3343
 4631TIP3   OH235451   5.123   2.348   1.121 -0.0264 -0.1517  0.6048
 4631TIP3    H135452   5.140   2.265   1.167  0.2854 -1.3593 -1.5634
 4631TIP3    H235453   5.057   2.391   1.175  0.0988 -1.6199  2.0259
 4632TIP3   OH235454   0.624   6.218   7.926  0.3243 -0.8730  0.3922
 4632TIP3    H135455   0.593   6.227   7.836  0.0381  2.9590  0.7103
 4632TIP3    H235456   0.719   6.217   7.918  0.3139 -0.0290  0.0254
 4633TIP3   OH235457   3.648   1.934   0.137 -0.3864 -0.4771  0.1644
 4633TIP3    H135458   3.728   1.901   0.098 -0.5160 -1.1095  0.4293
 4633TIP3    H235459   3.605   1.857   0.174 -0.2159  0.1000  1.6531
 4634TIP3   OH235460   0.202   6.793   1.334 -0.1725 -0.4740  0.0743
 4634TIP3    H135461   0.289   6.754   1.340  1.1088  2.2395  0.3587
 4634TIP3    H235462   0.164   6.781   1.421  1.0273  0.6862  0.7860
 4635TIP3   OH235463   4.547   3.800   6.923  0.2834  0.1770 -0.3767
 4635TIP3    H135464   4.611   3.846   6.868 -0.1648  1.3717  0.0707
 4635TIP3    H235465   4.514   3.730   6.867 -0.7376  1.8231 -1.9734
 4636TIP3   OH235466   6.792   1.155   2.917  0.9479  0.1773  0.2645
 4636TIP3    H135467   6.766   1.174   2.827  1.3706 -1.6762 -0.2911
 4636TIP3    H235468   6.713   1.169   2.969  0.7611  1.4760 -0.3317
 4637TIP3   OH235469   6.832   3.051   2.131  0.5081 -0.0150  0.0052
 4637TIP3    H135470   6.741   3.044   2.160  0.1581  0.2200 -1.0111
 4637TIP3    H235471   6.871   3.114   2.191  0.6397 -1.8018  1.9149
 4638TIP3   OH235472   0.035   0.497   0.305  0.2356 -0.3478  0.1376
 4638TIP3    H135473   0.058   0.464   0.218  1.4478  1.6763 -0.3839
 4638TIP3    H235474  -0.007   0.423   0.349 -1.2509 -1.1668 -2.4586
 4639TIP3   OH235475   0.629   1.701   7.856 -0.1734  0.0040 -0.6056
 4639TIP3    H135476   0.619   1.619   7.809 -0.8835 -0.4264  0.2542
 4639TIP3    H235477   0.724   1.715   7.860  0.0790 -1.7074  0.7521
 4640TIP3   OH235478   5.735   1.877   7.543 -0.7018  0.2408  0.1223
 4640TIP3    H135479   5.650   1.845   7.515 -0.1883 -1.6741  0.6369
 4640TIP3    H235480   5.727   1.886   7.638  0.1674 -1.7168  0.4281
 4641TIP3   OH235481   0.121   2.310   0.346  0.3566 -0.6449  1.0529
 4641TIP3    H135482   0.082   2.344   0.427 -1.8731 -0.1123 -0.1719
 4641TIP3    H235483   0.143   2.387   0.295 -0.5842 -0.9554  0.1355
 4642TIP3   OH235484   5.134   5.031   7.888 -0.2984  0.0246 -0.4103
 4642TIP3    H135485   5.088   4.952   7.914 -1.2312  0.1674 -1.5858
 4642TIP3    H235486   5.099   5.053   7.802 -1.1457  2.5399  0.4843
 4643TIP3   OH235487   5.764   3.338   7.466 -0.6830  0.8164 -0.5909
 4643TIP3    H135488   5.816   3.418   7.473 -0.5671  0.8203 -1.4669
 4643TIP3    H235489   5.825   3.268   7.486 -0.9029  0.9615  0.6887
 4644TIP3   OH235490   6.622   5.479   7.618 -0.2993 -0.0691  0.0029
 4644TIP3    H135491   6.685   5.545   7.589 -0.8209 -0.5387 -2.3279
 4644TIP3    H235492   6.675   5.415   7.666  0.5057  0.9997  0.5970
 4645TIP3   OH235493   0.699   0.146   0.460 -0.3467  0.3457  0.3419
 4645TIP3    H135494   0.644   0.098   0.398  1.6223 -1.4666 -0.1257
 4645TIP3    H235495   0.730   0.223   0.411 -1.2311  0.5671  0.1229
 4646TIP3   OH235496   2.182   5.445   8.551  0.3636  0.2394 -0.7445
 4646TIP3    H135497   2.113   5.428   8.488 -1.4779 -0.5039  1.3578
 4646TIP3    H235498   2.215   5.359   8.575  0.1827  0.4170  0.1892
 4647TIP3   OH235499   2.440   0.837   6.770 -0.3928 -0.2638  0.2036
 4647TIP3    H135500   2.466   0.830   6.862 -0.7098  0.1038  0.3259
 4647TIP3    H235501   2.520   0.815   6.721  0.1554  0.8207  0.5704
 4648TIP3   OH235502   2.954   3.935   6.758  0.0078 -0.2427 -1.0463
 4648TIP3    H135503   2.992   3.848   6.746  0.2208 -0.0721 -1.6113
 4648TIP3    H235504   3.026   3.996   6.740 -0.3048  0.0648 -1.2568
 4649TIP3   OH235505   6.716   2.330   7.930  0.1999 -0.2297 -0.0191
 4649TIP3    H135506   6.717   2.318   8.025 -1.2310 -0.7327 -0.0366
 4649TIP3    H235507   6.662   2.408   7.916 -0.2815 -0.6280 -0.4432
 4650TIP3   OH235508   5.108   3.704   7.815 -0.4388  0.2736  0.3896
 4650TIP3    H135509   5.164   3.782   7.813  0.6512 -0.4925 -1.3694
 4650TIP3    H235510   5.133   3.659   7.896  0.5633  0.6288  0.2930
 4651TIP3   OH235511   6.653   4.813   1.509  0.4587  0.0613 -0.7525
 4651TIP3    H135512   6.561   4.835   1.499  0.3566  0.1893  0.3277
 4651TIP3    H235513   6.689   4.885   1.562  0.5859 -1.2632  1.0650
 4652TIP3   OH235514   1.162   6.561   1.420 -0.0892  0.3870 -0.1184
 4652TIP3    H135515   1.238   6.564   1.478 -0.1640 -1.9310  0.1601
 4652TIP3    H235516   1.091   6.526   1.474 -0.0055 -2.4212 -1.6788
 4653TIP3   OH235517   1.429   0.879   2.303 -0.4976 -0.2102  0.2467
 4653TIP3    H135518   1.362   0.818   2.273 -0.1835 -0.9973  1.0934
 4653TIP3    H235519   1.438   0.862   2.397  0.3726  0.3699  0.2871
 4654TIP3   OH235520   2.882   2.435   2.168 -0.7812  0.0238 -0.3130
 4654TIP3    H135521   2.828   2.501   2.211 -0.8961 -0.4612  0.3098
 4654TIP3    H235522   2.930   2.393   2.239  1.3421  1.2276 -0.9547
 4655TIP3   OH235523   3.560   5.771   0.137  0.3088  0.5540  0.5497
 4655TIP3    H135524   3.599   5.688   0.108 -3.2367 -1.1178 -0.0087
 4655TIP3    H235525   3.547   5.758   0.231 -0.9132  0.1171  0.3359
 4656TIP3   OH235526   4.290   1.388   7.357 -0.4615 -0.1302 -1.0588
 4656TIP3    H135527   4.326   1.316   7.305  1.6360 -0.6837  0.9666
 4656TIP3    H235528   4.327   1.467   7.318  0.2687 -0.4662 -1.0692
 4657TIP3   OH235529   5.216   4.904   1.932  0.3355  0.2941 -0.1263
 4657TIP3    H135530   5.266   4.825   1.953  0.4924  0.1956 -0.8391
 4657TIP3    H235531   5.282   4.973   1.925  0.5516 -0.0702 -2.2639
 4658TIP3   OH235532   3.809   0.109   0.658  0.0379  0.8776  0.3204
 4658TIP3    H135533   3.723   0.075   0.681 -1.1409  1.8466 -2.2643
 4658TIP3    H235534   3.817   0.191   0.708 -0.1479  0.3659  1.2057
 4659TIP3   OH235535   2.013   6.910   1.505 -0.1877  0.4211  0.2099
 4659TIP3    H135536   2.041   6.884   1.592 -2.1280 -0.6049  0.5819
 4659TIP3    H235537   2.089   6.892   1.449  0.1611 -1.5127  1.2459
 4660TIP3   OH235538   3.005   0.039   1.445 -0.1586  0.1039 -0.6880
 4660TIP3    H135539   3.078   0.085   1.402  0.1902 -0.7106 -0.9932
 4660TIP3    H235540   2.931   0.099   1.436  0.5787  1.1665  0.0744
 4661TIP3   OH235541   0.993   0.863   8.116 -0.0397  0.0756 -0.0591
 4661TIP3    H135542   0.984   0.822   8.031  1.1243  0.7408 -0.5183
 4661TIP3    H235543   1.080   0.839   8.147 -0.4340 -0.1423  0.9460
 4662TIP3   OH235544   2.648   2.076   8.302  0.2167  0.1201 -0.3058
 4662TIP3    H135545   2.613   2.161   8.328  1.8561  0.8517 -0.3465
 4662TIP3    H235546   2.705   2.050   8.375  0.8446 -0.2631 -0.9186
 4663TIP3   OH235547   6.859   3.291   0.178 -0.5886 -0.0142 -0.1047
 4663TIP3    H135548   6.865   3.380   0.142  0.0654 -0.1196 -0.2638
 4663TIP3    H235549   6.794   3.248   0.123 -1.7508  0.6937  0.6764
 4664TIP3   OH235550   6.318   3.506   2.540 -0.0802 -0.2096 -0.0988
 4664TIP3    H135551   6.375   3.499   2.617  1.1805  0.6698 -0.8944
 4664TIP3    H235552   6.363   3.570   2.484 -0.5633 -1.3957 -1.9054
 4665TIP3   OH235553   6.742   6.545   2.040  0.0103  0.0162 -0.6709
 4665TIP3    H135554   6.714   6.544   1.948 -1.4880 -0.0731 -0.2461
 4665TIP3    H235555   6.751   6.638   2.061 -3.4425  0.3307  0.0973
 4666TIP3   OH235556   4.894   4.362   1.680  0.3899  0.2850 -0.4531
 4666TIP3    H135557   4.832   4.412   1.733  2.5629  0.8597  1.7577
 4666TIP3    H235558   4.952   4.428   1.642  1.0258 -0.3405 -0.5989
 4667TIP3   OH235559   4.851   4.191   7.920 -0.3483 -0.3813 -0.4868
 4667TIP3    H135560   4.881   4.282   7.926  1.2856 -0.9635  1.2352
 4667TIP3    H235561   4.796   4.179   7.997  1.4909 -1.4853  0.7298
 4668TIP3   OH235562   3.781   6.779   1.895  0.2886  0.3271 -0.1641
 4668TIP3    H135563   3.795   6.836   1.819 -0.8559  1.1247  0.2084
 4668TIP3    H235564   3.758   6.694   1.856  0.9856  0.3673 -0.7014
 4669TIP3   OH235565   6.902   0.023   8.430 -0.0076  0.3955  0.3139
 4669TIP3    H135566   6.837  -0.036   8.393  1.8748 -1.9273  0.4681
 4669TIP3    H235567   6.930   0.077   8.356 -1.1299  0.5318 -0.0325
 4670TIP3   OH235568   1.518   6.458   7.510  0.4502  0.1068 -0.2095
 4670TIP3    H135569   1.598   6.512   7.509  0.4372  0.1445  0.3623
 4670TIP3    H235570   1.454   6.513   7.554  0.0688  0.1201 -0.7729
 4671TIP3   OH235571   6.105   1.344   6.746  0.2666 -0.6495 -0.0640
 4671TIP3    H135572   6.130   1.337   6.654 -3.0068 -2.9164 -0.9790
 4671TIP3    H235573   6.081   1.436   6.758  1.5996 -0.1218 -1.1679
 4672TIP3   OH235574   2.449   4.920   2.996 -0.4727  0.0837 -0.1810
 4672TIP3    H135575   2.438   5.009   3.031 -1.4243 -0.3008  0.5712
 4672TIP3    H235576   2.372   4.907   2.940 -1.3485 -0.8850  1.1629
 4673TIP3   OH235577   5.596   6.326   6.924  0.6246  0.9617  0.2493
 4673TIP3    H135578   5.560   6.310   7.011 -1.2866  0.1884 -0.6160
 4673TIP3    H235579   5.685   6.356   6.940  0.4464  0.5084  2.4439
 4674TIP3   OH235580   2.480   1.219   2.000  0.1630  0.4748  0.1577
 4674TIP3    H135581   2.424   1.168   2.058 -1.1672  1.7881  0.1057
 4674TIP3    H235582   2.473   1.175   1.915  1.2142 -0.7972  0.7111
 4675TIP3   OH235583   2.410   4.465   7.524 -0.1438  0.2083  0.2655
 4675TIP3    H135584   2.331   4.496   7.480 -0.5341 -0.0484  0.7862
 4675TIP3    H235585   2.434   4.385   7.477 -0.3656  0.1189  0.3091
 4676TIP3   OH235586   5.294   1.875   8.164  0.3899  0.5555  0.2213
 4676TIP3    H135587   5.338   1.790   8.167  0.6214  0.6851  0.6101
 4676TIP3    H235588   5.246   1.875   8.082  0.7369  0.2172  0.0171
 4677TIP3   OH235589   3.893   3.591   1.156  0.4444  0.2527 -0.1051
 4677TIP3    H135590   3.845   3.521   1.112  0.6574  0.4839 -0.7160
 4677TIP3    H235591   3.907   3.656   1.088 -3.0123  2.6666  1.1960
 4678TIP3   OH235592   0.847   5.035   1.749 -0.9229  0.4994  0.0335
 4678TIP3    H135593   0.755   5.062   1.749 -1.9206 -2.5689 -0.5583
 4678TIP3    H235594   0.857   4.986   1.830 -0.3528 -0.7744 -0.7888
 4679TIP3   OH235595   2.616   0.913   0.486  0.2107  0.6414  0.3015
 4679TIP3    H135596   2.530   0.877   0.504  0.3108  0.8582  1.3427
 4679TIP3    H235597   2.599   0.995   0.440 -0.0890  0.1389 -0.4843
 4680TIP3   OH235598   4.506   3.246   7.928  0.6395 -0.3561 -0.5684
 4680TIP3    H135599   4.423   3.294   7.924  0.6930 -0.1865  0.3008
 4680TIP3    H235600   4.572   3.312   7.904  0.5054 -0.5689 -1.5686
 4681TIP3   OH235601   4.899   2.249   8.369  0.2182  0.0137 -0.1082
 4681TIP3    H135602   4.807   2.226   8.380  0.5539 -1.0880  0.6701
 4681TIP3    H235603   4.922   2.215   8.283 -0.6775  2.4550 -1.4003
 4682TIP3   OH235604   4.714   6.249   0.489 -0.4207 -0.4991  0.1903
 4682TIP3    H135605   4.799   6.256   0.533 -1.1804 -0.1541  1.6915
 4682TIP3    H235606   4.723   6.303   0.411  0.4368  0.3394  0.8361
 4683TIP3   OH235607   0.517   5.325   1.015 -0.8696  0.1111  0.0428
 4683TIP3    H135608   0.561   5.264   1.073 -0.9555 -1.0144 -1.0352
 4683TIP3    H235609   0.584   5.349   0.951 -0.6295  1.7196  0.8354
 4684TIP3   OH235610   6.062   4.182   0.977 -0.5692  0.1598 -0.5157
 4684TIP3    H135611   5.992   4.176   1.043 -0.4552 -0.9558 -0.4816
 4684TIP3    H235612   6.119   4.108   0.996  0.5873  1.0117 -0.6026
 4685TIP3   OH235613   6.136   2.960   0.775  0.1324 -0.4542 -0.0471
 4685TIP3    H135614   6.204   3.022   0.799 -0.5800  0.4876 -0.3934
 4685TIP3    H235615   6.076   3.010   0.720 -1.4888 -0.9064  1.2317
 4686TIP3   OH235616   6.451   3.583   8.498  0.0049  0.1522  0.5924
 4686TIP3    H135617   6.439   3.631   8.580 -1.4519  0.8402  0.0087
 4686TIP3    H235618   6.506   3.641   8.445  1.9668 -0.8156  1.4669
 4687TIP3   OH235619   1.819   1.365   1.602  0.3420  0.3449 -0.2071
 4687TIP3    H135620   1.847   1.275   1.621  0.6420  0.2702 -1.0009
 4687TIP3    H235621   1.834   1.412   1.684  3.3468  0.4493 -0.7016
 4688TIP3   OH235622   3.819   3.735   0.048 -0.1850  0.1214  0.0279
 4688TIP3    H135623   3.901   3.714   0.002 -0.5241  0.9317 -0.9903
 4688TIP3    H235624   3.811   3.830   0.039 -0.2288  0.3262  1.8782
 4689TIP3   OH235625   3.703   5.556   1.034  0.3187  0.3166 -0.0486
 4689TIP3    H135626   3.654   5.588   0.959 -0.4041  2.5691  1.2910
 4689TIP3    H235627   3.635   5.521   1.093  0.6688  0.3121  0.3565
 4690TIP3   OH235628   5.872   2.520   1.641 -0.4551 -0.4562 -0.6915
 4690TIP3    H135629   5.809   2.561   1.582 -1.0976 -0.5040 -0.0578
 4690TIP3    H235630   5.901   2.592   1.698  0.4565 -0.3277 -1.3079
 4691TIP3   OH235631   3.920   1.282   7.642 -0.8786  0.1832 -0.3598
 4691TIP3    H135632   3.914   1.336   7.563 -1.6327  0.8994  0.1776
 4691TIP3    H235633   3.910   1.344   7.714 -0.7485 -0.5414  0.2911
 4692TIP3   OH235634   6.223   0.099   0.711  0.2646 -0.5043  0.3836
 4692TIP3    H135635   6.135   0.108   0.747  0.0135  2.5800 -0.7093
 4692TIP3    H235636   6.278   0.079   0.787 -0.8685  1.4667  1.8243
 4693TIP3   OH235637   3.196   2.282   0.450  0.3818  0.2650  0.4471
 4693TIP3    H135638   3.194   2.377   0.442 -0.1893  0.5243  2.9937
 4693TIP3    H235639   3.105   2.257   0.461  0.7193 -0.2442  2.4995
 4694TIP3   OH235640   4.450   4.419   7.008 -0.0069  0.3405 -0.0747
 4694TIP3    H135641   4.505   4.477   6.954  0.2036 -0.8062 -1.1445
 4694TIP3    H235642   4.491   4.333   7.000  0.3275  0.1964  2.3801
 4695TIP3   OH235643   4.364   4.091   7.171  0.6986  0.1444 -0.1368
 4695TIP3    H135644   4.423   4.018   7.187 -0.0273 -0.1462  1.4658
 4695TIP3    H235645   4.411   4.168   7.204  1.1507  0.3110 -1.1239
 4696TIP3   OH235646   4.029   6.722   1.093 -0.2028 -0.3479 -0.1359
 4696TIP3    H135647   4.002   6.767   1.014  0.6565 -1.6377 -1.2162
 4696TIP3    H235648   4.124   6.731   1.096 -0.1431 -0.9808  0.3138
 4697TIP3   OH235649   5.539   4.322   0.735 -0.1504 -0.2381  0.0880
 4697TIP3    H135650   5.626   4.343   0.700 -0.2776  0.2919  0.0784
 4697TIP3    H235651   5.486   4.307   0.657  0.3048 -2.2095  0.0989
 4698TIP3   OH235652   1.802   0.168   7.900 -0.4819 -0.0452 -0.2142
 4698TIP3    H135653   1.860   0.182   7.974 -1.4025  0.1162  0.4905
 4698TIP3    H235654   1.772   0.256   7.875  2.3798  0.3472 -2.9630
 4699TIP3   OH235655   3.004   1.724   2.314  0.5707  0.2554  0.0995
 4699TIP3    H135656   2.984   1.761   2.400  1.9121  1.7685 -0.2029
 4699TIP3    H235657   3.079   1.774   2.282 -0.0475 -0.0810 -2.0868
 4700TIP3   OH235658   6.270   0.309   6.734 -0.7814 -0.6997  0.5404
 4700TIP3    H135659   6.325   0.379   6.699  0.5925 -1.3460  1.3186
 4700TIP3    H235660   6.217   0.281   6.660 -0.1972  0.0824 -0.1968
 4701TIP3   OH235661   5.755   1.808   2.451  0.0671  0.6257 -0.2766
 4701TIP3    H135662   5.741   1.885   2.506  0.9815  0.0712  0.7858
 4701TIP3    H235663   5.668   1.771   2.438 -0.2503  1.1968  0.1777
 4702TIP3   OH235664   3.170   1.296   7.697 -0.4134  0.0005  0.2045
 4702TIP3    H135665   3.157   1.217   7.645 -1.4432 -0.1762  0.7180
 4702TIP3    H235666   3.090   1.347   7.684 -0.4860  0.1699  1.2324
 4703TIP3   OH235667   2.930   5.298   0.732  0.0513  0.1015 -0.9089
 4703TIP3    H135668   2.873   5.319   0.806 -0.7326  4.4454 -2.4385
 4703TIP3    H235669   3.008   5.260   0.773 -1.3508 -0.1049  1.8480
 4704TIP3   OH235670   6.770   6.409   0.944 -0.1856  0.1971 -0.4496
 4704TIP3    H135671   6.775   6.316   0.966  0.8389  0.5451  0.9250
 4704TIP3    H235672   6.787   6.454   1.027 -0.5667  1.6124 -1.1165
 4705TIP3   OH235673   3.887   1.276   7.998 -0.4824  0.5323  0.2226
 4705TIP3    H135674   3.951   1.221   7.954  0.2282  0.6644  1.0541
 4705TIP3    H235675   3.857   1.224   8.073 -1.5979  0.3471 -0.3249
 4706TIP3   OH235676   6.154   3.445   1.958  0.6655  0.0971  1.1261
 4706TIP3    H135677   6.107   3.521   1.922 -1.9933 -1.4762  0.9657
 4706TIP3    H235678   6.233   3.481   1.996 -0.3875  2.9233  0.8819
 4707TIP3   OH235679   0.106   0.267   1.277  0.1464 -0.0384  0.2093
 4707TIP3    H135680   0.123   0.349   1.232 -0.7125  0.5818  0.9805
 4707TIP3    H235681   0.018   0.242   1.250  0.5404 -0.9244 -0.3209
 4708TIP3   OH235682   1.800   5.545   8.438 -0.0357  0.1887 -0.0145
 4708TIP3    H135683   1.864   5.504   8.380  0.7371  0.8449  0.3571
 4708TIP3    H235684   1.716   5.507   8.411  0.4126 -0.1490 -0.9917
 4709TIP3   OH235685   5.526   4.122   6.775  0.2682  0.2260  0.4671
 4709TIP3    H135686   5.496   4.210   6.753 -0.6092 -0.1714  0.0242
 4709TIP3    H235687   5.557   4.129   6.865 -0.1983  0.8985  0.5840
 4710TIP3   OH235688   1.157   0.115   2.372  0.4626 -0.3173 -0.2027
 4710TIP3    H135689   1.246   0.101   2.341  1.0548 -1.1198  1.7127
 4710TIP3    H235690   1.153   0.208   2.393  0.3871  0.0071 -1.5424
 4711TIP3   OH235691   2.519   5.621   0.363 -0.1028  0.2264  0.2121
 4711TIP3    H135692   2.526   5.659   0.450 -1.1932  0.6252  0.1273
 4711TIP3    H235693   2.603   5.576   0.351  0.2391  0.5419  1.2783
 4712TIP3   OH235694   3.346   1.245   0.447 -0.9836  0.4532  0.3119
 4712TIP3    H135695   3.414   1.254   0.513 -1.8453  1.9178  1.0350
 4712TIP3    H235696   3.368   1.164   0.401 -0.4056 -0.6663  2.4246
 4713TIP3   OH235697   5.386   6.501   1.172 -0.3916 -0.6348  0.8831
 4713TIP3    H135698   5.311   6.557   1.151  0.6661 -0.0617 -1.6484
 4713TIP3    H235699   5.385   6.432   1.106  2.7123  0.8247 -0.8939
 4714TIP3   OH235700   5.255   5.913   2.645  0.4178 -0.1957  0.0131
 4714TIP3    H135701   5.288   5.901   2.734 -0.6410 -2.6922  0.1669
 4714TIP3    H235702   5.303   5.848   2.593 -1.6713 -1.4867 -0.4251
 4715TIP3   OH235703   3.129   3.914   1.595 -0.8508  0.7219  0.1202
 4715TIP3    H135704   3.158   3.930   1.506 -0.0926 -0.8172  0.0554
 4715TIP3    H235705   3.187   3.967   1.650  0.9799 -0.9041 -0.1267
 4716TIP3   OH235706   5.467   1.152   8.204 -0.7182  0.2968  0.0699
 4716TIP3    H135707   5.372   1.137   8.210 -0.7496 -0.6084 -1.9024
 4716TIP3    H235708   5.478   1.200   8.121  0.6456 -0.7281 -0.3672
 4717TIP3   OH235709   3.768   1.184   8.211 -0.0666 -0.5226  0.0252
 4717TIP3    H135710   3.791   1.210   8.300  1.0158  1.9499 -0.8971
 4717TIP3    H235711   3.687   1.231   8.192  1.2245  1.3205 -1.2242
 4718TIP3   OH235712   1.285   0.844   6.856 -0.1810 -0.4786 -0.2321
 4718TIP3    H135713   1.358   0.782   6.863  1.3377  1.2132 -0.2278
 4718TIP3    H235714   1.220   0.810   6.918 -0.6467 -3.5419 -2.1767
 4719TIP3   OH235715   3.316   0.717   0.454  0.0200 -0.0944  0.1573
 4719TIP3    H135716   3.230   0.725   0.412  0.7283  0.1571 -1.3010
 4719TIP3    H235717   3.325   0.624   0.473 -0.1357 -0.2853 -0.6797
 4720TIP3   OH235718   3.952   0.043   1.270  0.1623 -0.7177  0.7983
 4720TIP3    H135719   3.862   0.055   1.302  0.1014  0.9127  0.1090
 4720TIP3    H235720   3.942   0.002   1.184  0.0431 -0.1233  0.5244
 4721TIP3   OH235721   4.780   2.549   8.484  0.0357  0.5640 -0.0767
 4721TIP3    H135722   4.825   2.490   8.546 -0.5039 -0.3331 -0.5145
 4721TIP3    H235723   4.845   2.615   8.462  0.2381  0.9300  1.4668
 4722TIP3   OH235724   5.350   4.204   1.262  0.0220  0.0648  0.0301
 4722TIP3    H135725   5.300   4.136   1.307 -1.4994  1.6657  0.8410
 4722TIP3    H235726   5.369   4.269   1.330  0.6891  0.8853 -0.9132
 4723TIP3   OH235727   0.579   5.130   1.795  0.5185 -0.2380 -0.1600
 4723TIP3    H135728   0.547   5.159   1.709  0.7229 -1.6786 -0.7524
 4723TIP3    H235729   0.509   5.075   1.830  1.6831 -2.2924 -0.8656
 4724TIP3   OH235730   0.160   4.764   2.804 -0.0341 -0.4985  0.2485
 4724TIP3    H135731   0.093   4.717   2.754 -0.8901  0.5768  0.3558
 4724TIP3    H235732   0.113   4.800   2.880  0.5451  0.6965  0.0636
 4725TIP3   OH235733   0.047   6.545   7.454  0.4824 -0.1205  0.3138
 4725TIP3    H135734   0.055   6.451   7.441  1.1120  0.0907 -0.9966
 4725TIP3    H235735  -0.005   6.575   7.380  1.3115  0.7156  0.0495
 4726TIP3   OH235736   1.024   6.429   7.297 -0.3221  0.1056 -0.9243
 4726TIP3    H135737   0.975   6.504   7.329  0.7860  1.2325 -1.7626
 4726TIP3    H235738   1.075   6.463   7.224  2.0246 -0.8632  0.1400
 4727TIP3   OH235739   6.411   5.618   7.752 -0.3496  0.4279 -0.4454
 4727TIP3    H135740   6.462   5.671   7.813 -0.6515  1.4629 -1.0511
 4727TIP3    H235741   6.476   5.569   7.702 -0.1346 -1.1127  1.2641
 4728TIP3   OH235742   2.089   0.733   1.436  0.3691  0.0516  0.1849
 4728TIP3    H135743   2.051   0.821   1.433  0.2311 -0.0030  0.3340
 4728TIP3    H235744   2.173   0.742   1.391  1.0851  0.6283  1.5704
 4729TIP3   OH235745   4.881   3.213   1.581 -0.2283 -0.3061 -0.1580
 4729TIP3    H135746   4.955   3.249   1.533 -0.6110  0.2742 -0.3326
 4729TIP3    H235747   4.899   3.120   1.588  0.6344 -0.1302  0.0233
 4730TIP3   OH235748   4.686   1.010   0.949  0.0723 -0.2277  0.3452
 4730TIP3    H135749   4.704   1.092   0.904 -0.9447 -0.6281 -0.8382
 4730TIP3    H235750   4.601   1.025   0.993  0.3004 -0.3654  0.8457
 4731TIP3   OH235751   5.148   5.248   6.676  0.2667  0.1160  0.3114
 4731TIP3    H135752   5.197   5.276   6.599  1.3895  2.2440  1.6867
 4731TIP3    H235753   5.148   5.153   6.672  0.3978  0.1708 -2.2195
 4732TIP3   OH235754   3.425   6.623   7.477 -0.1921  0.2067 -0.5502
 4732TIP3    H135755   3.490   6.569   7.522 -1.3101 -0.2070  0.6089
 4732TIP3    H235756   3.429   6.593   7.386 -1.6299 -2.8039  0.2323
 4733TIP3   OH235757   4.765   2.289   0.289 -0.0502 -0.0921  0.2563
 4733TIP3    H135758   4.743   2.381   0.273  1.3444  0.1828 -0.1602
 4733TIP3    H235759   4.824   2.266   0.217 -0.2218 -1.2587  0.4812
 4734TIP3   OH235760   6.293   0.903   7.632 -0.1467 -0.6307 -0.3752
 4734TIP3    H135761   6.210   0.943   7.606  0.9531  3.3817  1.5329
 4734TIP3    H235762   6.360   0.955   7.588  1.4278 -1.3582  1.0543
 4735TIP3   OH235763   3.306   3.848   1.287  0.3578 -0.6521  0.2519
 4735TIP3    H135764   3.255   3.783   1.238 -0.1730 -1.1749  1.4582
 4735TIP3    H235765   3.352   3.898   1.219  0.3638 -1.9310 -0.7400
 4736TIP3   OH235766   0.156   5.562   2.022 -0.0694 -0.0403  0.3206
 4736TIP3    H135767   0.113   5.477   2.014  0.8082 -0.5020  0.3664
 4736TIP3    H235768   0.166   5.575   2.116 -1.3780  0.7382  0.3775
 4737TIP3   OH235769   6.754   1.830   1.847  0.0337 -0.7876  0.3237
 4737TIP3    H135770   6.668   1.869   1.828  0.8862  0.6246 -0.8911
 4737TIP3    H235771   6.770   1.772   1.773  0.3834 -0.5631  0.2200
 4738TIP3   OH235772   4.210   2.362   8.115  0.4506  0.4600  0.2892
 4738TIP3    H135773   4.255   2.362   8.199  0.8001 -1.3599  0.1568
 4738TIP3    H235774   4.131   2.309   8.130 -0.4517  1.6649 -0.0690
 4739TIP3   OH235775   4.234   5.320   1.343 -0.1184 -0.4797  0.0900
 4739TIP3    H135776   4.245   5.282   1.430 -0.4585  1.2630  0.9319
 4739TIP3    H235777   4.172   5.262   1.299 -2.3109  0.2100  2.0686
 4740TIP3   OH235778   5.309   2.414   8.165 -0.3905  0.4538  0.0825
 4740TIP3    H135779   5.269   2.343   8.115 -0.1066  1.2020 -1.2325
 4740TIP3    H235780   5.235   2.457   8.209 -0.9252  1.1095 -1.4041
 4741TIP3   OH235781   4.346   4.847   1.902 -0.6412  0.7885  0.1088
 4741TIP3    H135782   4.415   4.852   1.968 -0.4111  0.8261 -0.1297
 4741TIP3    H235783   4.273   4.805   1.946  0.0795 -0.7389 -0.0810
 4742TIP3   OH235784   4.610   2.820   1.455  0.7347 -0.3229 -0.1780
 4742TIP3    H135785   4.640   2.893   1.510  1.6190  0.5794 -1.7851
 4742TIP3    H235786   4.531   2.789   1.498  1.3628  0.3644  1.5786
 4743TIP3   OH235787   0.458   3.366   7.316 -0.3289  0.3465  0.5978
 4743TIP3    H135788   0.526   3.409   7.264  1.3161 -0.9490  1.5894
 4743TIP3    H235789   0.437   3.286   7.266 -1.2194  0.7777  0.2551
 4744TIP3   OH235790   3.316   3.456   2.082  0.4301 -0.6161  0.1275
 4744TIP3    H135791   3.338   3.445   1.989 -1.8033 -1.5654 -0.3477
 4744TIP3    H235792   3.296   3.550   2.091  1.1731 -0.4197 -0.2098
 4745TIP3   OH235793   2.906   2.876   2.254  0.0226 -0.0747 -0.0021
 4745TIP3    H135794   2.994   2.876   2.293 -0.0576 -0.0580  0.1812
 4745TIP3    H235795   2.847   2.877   2.329 -0.1366 -0.3347 -0.1245
 4746TIP3   OH235796   5.814   6.684   8.466  0.8000  0.1084  0.4651
 4746TIP3    H135797   5.767   6.763   8.442  1.7487  0.7665  0.7270
 4746TIP3    H235798   5.787   6.619   8.401 -0.3996  0.4828  0.5697
 4747TIP3   OH235799   1.968   2.794   2.389 -0.7675  0.4041 -0.6830
 4747TIP3    H135800   1.928   2.813   2.304 -2.1481  1.6278  0.1782
 4747TIP3    H235801   2.050   2.751   2.368 -0.2620  2.1817 -2.7056
 4748TIP3   OH235802   4.913   6.616   1.143  0.4730  0.0321 -0.6871
 4748TIP3    H135803   4.906   6.532   1.188  0.4356 -0.5247 -1.7004
 4748TIP3    H235804   4.826   6.633   1.109 -0.5843  2.4155  2.7400
 4749TIP3   OH235805   3.621   6.246   2.156  0.5461 -0.1212  0.1698
 4749TIP3    H135806   3.640   6.165   2.107 -1.3618 -0.1751 -0.5466
 4749TIP3    H235807   3.629   6.316   2.091  0.8523  0.1302  0.4737
 4750TIP3   OH235808   4.833   3.682   1.078  0.1374 -0.1332 -0.2032
 4750TIP3    H135809   4.779   3.747   1.123 -1.1982 -0.4854 -1.2315
 4750TIP3    H235810   4.771   3.634   1.023  1.0938 -2.2455  0.4792
 4751TIP3   OH235811   5.014   3.216   0.446 -0.5606  0.2089 -0.0518
 4751TIP3    H135812   4.946   3.176   0.500 -0.6416 -0.5092 -0.6721
 4751TIP3    H235813   4.969   3.238   0.364  0.1234 -1.0205 -0.7820
 4752TIP3   OH235814   5.862   0.321   2.233 -0.4265 -0.1207 -0.4920
 4752TIP3    H135815   5.950   0.324   2.195  0.2171 -0.0011  0.9485
 4752TIP3    H235816   5.846   0.411   2.262 -1.0671 -0.1237 -0.8387
 4753TIP3   OH235817   5.948   4.909   8.493  0.5406  0.4996 -0.2838
 4753TIP3    H135818   5.980   4.822   8.517  1.6440  1.5503  2.4028
 4753TIP3    H235819   5.854   4.897   8.480  0.8340 -1.2803 -1.1674
 4754TIP3   OH235820   1.676   2.624   1.373  0.1248 -0.5685  0.1997
 4754TIP3    H135821   1.583   2.627   1.354  0.2839  0.1016 -0.5540
 4754TIP3    H235822   1.715   2.684   1.310  0.8943  0.4274  1.5729
 4755TIP3   OH235823   4.936   3.476   8.284 -0.2318 -0.1740  0.0793
 4755TIP3    H135824   5.008   3.538   8.275  0.2344 -0.6508  0.4185
 4755TIP3    H235825   4.921   3.444   8.195  0.5720 -0.7166  0.1288
 4756TIP3   OH235826   4.299   1.154   8.206 -0.0460 -0.2034  0.2037
 4756TIP3    H135827   4.328   1.192   8.124  1.2678 -1.4516  0.0309
 4756TIP3    H235828   4.343   1.206   8.274 -1.0266  0.7415  0.1412
 4757TIP3   OH235829   0.404   3.276   8.276 -0.1626 -0.0290 -0.2494
 4757TIP3    H135830   0.339   3.274   8.346 -0.4919 -0.9914 -0.5620
 4757TIP3    H235831   0.386   3.197   8.225  2.4175 -1.3912  0.7268
 4758TIP3   OH235832   2.956   3.165   8.116  0.2128  0.2922  0.0588
 4758TIP3    H135833   3.048   3.141   8.103  0.5983  1.9226 -0.4338
 4758TIP3    H235834   2.942   3.239   8.058 -1.1461  0.7043  0.8617
 4759TIP3   OH235835   6.273   0.726   0.977 -0.0304 -0.6103  0.1596
 4759TIP3    H135836   6.338   0.657   0.987  0.7596  0.0025 -0.4997
 4759TIP3    H235837   6.224   0.726   1.059  0.2214 -1.6762  0.3189
 4760TIP3   OH235838   4.406   1.750   7.352  0.4012 -0.5800 -0.0806
 4760TIP3    H135839   4.439   1.668   7.315 -0.1762 -0.8105 -0.0812
 4760TIP3    H235840   4.427   1.816   7.286 -0.8576 -1.0258 -0.9608
 4761TIP3   OH235841   3.544   5.873   1.460  0.0984  0.1030  0.0448
 4761TIP3    H135842   3.639   5.884   1.457  0.3109 -0.9094  1.7956
 4761TIP3    H235843   3.511   5.936   1.396  1.9660  0.0086 -1.0870
 4762TIP3   OH235844   5.540   4.635   8.343  0.2394 -0.3445 -0.6597
 4762TIP3    H135845   5.529   4.578   8.266  0.6971 -0.4700 -0.6336
 4762TIP3    H235846   5.561   4.575   8.414  2.3250 -0.0251 -0.9577
 4763TIP3   OH235847   4.273   3.526   7.338 -0.0335  0.0063  0.4335
 4763TIP3    H135848   4.276   3.595   7.272 -1.5404  0.2926  0.6295
 4763TIP3    H235849   4.365   3.501   7.351  0.3224 -0.1375 -1.8303
 4764TIP3   OH235850   5.578   6.065   0.213  0.4039  0.1801 -0.4004
 4764TIP3    H135851   5.645   6.094   0.275 -0.3622 -0.0960  0.5860
 4764TIP3    H235852   5.535   5.992   0.257 -1.6735  1.4180 -0.2530
 4765TIP3   OH235853   3.924   4.427   8.338 -0.2773  0.3675 -0.3291
 4765TIP3    H135854   3.896   4.518   8.347 -0.6950  0.0609  2.0940
 4765TIP3    H235855   3.882   4.382   8.411 -0.2309 -1.8340 -1.5899
 4766TIP3   OH235856   5.420   2.944   7.702 -0.4073 -0.2535  0.1662
 4766TIP3    H135857   5.488   2.959   7.636 -2.0641 -0.7473 -1.7370
 4766TIP3    H235858   5.360   2.882   7.661 -3.0495  1.6002  1.0059
 4767TIP3   OH235859   3.148   2.543   1.491  0.3764 -0.6870 -0.8526
 4767TIP3    H135860   3.102   2.469   1.532 -0.0651 -0.6370 -1.2550
 4767TIP3    H235861   3.197   2.584   1.563  0.5699 -1.3277 -0.6142
 4768TIP3   OH235862   1.522   6.188   2.464  0.1487 -1.0487  0.0945
 4768TIP3    H135863   1.553   6.104   2.430  1.2878 -0.9344  0.7951
 4768TIP3    H235864   1.562   6.194   2.551  1.4147  0.9468 -0.5574
 4769TIP3   OH235865   2.037   1.039   7.788  0.2560  0.2238  0.1201
 4769TIP3    H135866   1.989   0.982   7.728  0.9187  0.6428 -0.8400
 4769TIP3    H235867   1.978   1.051   7.862 -0.6839 -0.1340 -0.5469
 4770TIP3   OH235868   6.751   0.151   2.291 -0.3792  0.2140  0.2358
 4770TIP3    H135869   6.678   0.200   2.327  1.0600  1.1812  2.0060
 4770TIP3    H235870   6.784   0.206   2.220  0.0946  0.9730  1.0237
 4771TIP3   OH235871   3.477   4.102   2.049 -0.1452  0.1641 -0.6423
 4771TIP3    H135872   3.454   4.009   2.041  0.7888 -0.1840  0.3478
 4771TIP3    H235873   3.407   4.140   2.101  0.6960 -0.5618  1.1016
 4772TIP3   OH235874   5.682   1.405   2.929 -0.2674 -0.3089  0.0520
 4772TIP3    H135875   5.611   1.432   2.871  1.9924  1.2361 -2.1932
 4772TIP3    H235876   5.713   1.323   2.891  0.9401  0.4840 -0.7221
 4773TIP3   OH235877   6.450   6.188   0.374 -0.2684 -0.2376  0.5266
 4773TIP3    H135878   6.476   6.139   0.451 -1.6743 -0.7526  0.7122
 4773TIP3    H235879   6.487   6.140   0.300  1.1809  0.3243  0.8600
 4774TIP3   OH235880   1.571   3.519   0.998  0.2553  0.2251  0.4352
 4774TIP3    H135881   1.566   3.444   1.058  2.8917 -0.4729 -0.1023
 4774TIP3    H235882   1.573   3.595   1.056 -1.9937 -0.0628  1.0030
 4775TIP3   OH235883   5.862   3.780   8.395  0.2649 -0.1769 -0.2036
 4775TIP3    H135884   5.853   3.765   8.489  0.5002  1.8740  0.1979
 4775TIP3    H235885   5.836   3.698   8.355  0.8540 -1.3368  1.6719
 4776TIP3   OH235886   5.566   2.322   7.970 -0.1774  0.3452  0.4526
 4776TIP3    H135887   5.662   2.325   7.969 -0.1478 -0.3386  0.7423
 4776TIP3    H235888   5.545   2.241   8.017 -0.8958  0.3799  0.2002
 4777TIP3   OH235889   0.246   4.546   7.077 -0.0711 -0.5712  0.6137
 4777TIP3    H135890   0.176   4.607   7.098  0.4772  0.2630  0.0733
 4777TIP3    H235891   0.203   4.474   7.030 -0.8016 -0.8968  1.7443
 4778TIP3   OH235892   2.620   6.660   1.468  0.7169  0.1623  0.3268
 4778TIP3    H135893   2.687   6.613   1.517 -0.8115 -1.8356  0.6470
 4778TIP3    H235894   2.540   6.609   1.481 -0.4647  1.3546 -1.6152
 4779TIP3   OH235895   6.385   6.444   1.126 -0.2620 -0.0007 -0.3350
 4779TIP3    H135896   6.311   6.405   1.171 -0.3686  1.0383  0.4288
 4779TIP3    H235897   6.355   6.532   1.103  0.5129  0.2057 -0.5923
 4780TIP3   OH235898   1.006   2.997   8.482 -0.1233 -0.3905  0.0005
 4780TIP3    H135899   0.951   2.992   8.404 -1.4165 -0.8205  0.9024
 4780TIP3    H235900   1.060   3.075   8.469 -0.5448 -0.2806 -1.1711
 4781TIP3   OH235901   1.185   1.315   0.331 -0.1348  0.2346 -0.2105
 4781TIP3    H135902   1.092   1.335   0.342 -0.2263  0.9612 -1.9724
 4781TIP3    H235903   1.187   1.247   0.264  0.5180 -1.5599  1.5341
 4782TIP3   OH235904   0.718   6.310   2.885  0.6140 -0.2168  0.4749
 4782TIP3    H135905   0.724   6.247   2.957  0.8500 -1.5242 -0.6390
 4782TIP3    H235906   0.808   6.343   2.875  0.4222  0.5672  1.2826
 4783TIP3   OH235907   5.173   2.405   7.564 -0.2911  0.5131 -0.1317
 4783TIP3    H135908   5.147   2.371   7.479  0.1729  1.0425 -0.4991
 4783TIP3    H235909   5.189   2.328   7.618  0.3727  0.1458 -0.8278
 4784TIP3   OH235910   2.830   5.113   0.565  0.7568 -0.0893 -0.9171
 4784TIP3    H135911   2.865   5.165   0.637 -1.0374 -1.4311  1.0598
 4784TIP3    H235912   2.735   5.111   0.581  0.5185 -1.9902 -2.2189
 4785TIP3   OH235913   4.614   6.547   8.385  0.4380 -0.3996 -0.3678
 4785TIP3    H135914   4.522   6.525   8.372  0.5942 -0.3244 -1.7450
 4785TIP3    H235915   4.651   6.471   8.429 -0.2513 -0.4824  0.0773
 4786TIP3   OH235916   1.297   2.916   7.609 -0.4319  0.3675  0.2825
 4786TIP3    H135917   1.353   2.839   7.618 -1.2963 -0.2293  0.5982
 4786TIP3    H235918   1.233   2.908   7.679 -1.4138  0.6256 -0.5614
 4787TIP3   OH235919   2.309   4.828   1.711  0.4418 -0.0661  0.4107
 4787TIP3    H135920   2.239   4.765   1.698  2.1995 -1.6551 -2.4080
 4787TIP3    H235921   2.349   4.804   1.794 -0.8254 -0.6872  0.8535
 4788TIP3   OH235922   1.216   4.376   1.399  0.0852 -0.1583  0.3934
 4788TIP3    H135923   1.129   4.404   1.373 -0.2743 -0.5790  1.1352
 4788TIP3    H235924   1.220   4.391   1.493  0.6011 -0.7099  0.4669
 4789TIP3   OH235925   4.007   1.092   1.433 -0.1355 -0.3990 -0.4255
 4789TIP3    H135926   4.056   1.070   1.512  0.4618  0.3567 -0.5761
 4789TIP3    H235927   3.938   1.152   1.463  0.0551 -0.1590 -0.4588
 4790TIP3   OH235928   1.643   2.484   0.220  1.1513  0.2798 -0.1174
 4790TIP3    H135929   1.559   2.485   0.174  2.0096 -3.6531 -2.1447
 4790TIP3    H235930   1.691   2.558   0.184 -0.3410  0.8094 -1.1232
 4791TIP3   OH235931   0.825   1.924   0.440  0.4221 -0.5474  0.3834
 4791TIP3    H135932   0.873   1.953   0.518 -1.9388  2.1272  0.9944
 4791TIP3    H235933   0.747   1.879   0.475 -0.9025  1.0928 -0.3465
 4792TIP3   OH235934   2.123   5.397   1.409 -0.2800 -0.2946  0.2250
 4792TIP3    H135935   2.047   5.352   1.370  0.2307 -0.6845 -0.3338
 4792TIP3    H235936   2.152   5.339   1.479 -0.4159 -0.2089  0.3526
 4793TIP3   OH235937   0.397   0.515   8.198  0.8129  0.3529  0.2154
 4793TIP3    H135938   0.432   0.471   8.120  0.4973  0.0192  0.2580
 4793TIP3    H235939   0.302   0.505   8.190  0.7484  0.8529  0.3318
 4794TIP3   OH235940   6.326   0.066   7.613 -0.0363 -0.0262  0.1825
 4794TIP3    H135941   6.327  -0.012   7.669 -0.0676 -0.0115  0.2035
 4794TIP3    H235942   6.417   0.077   7.586  0.2923  0.9559  1.5910
 4795TIP3   OH235943   6.817   3.003   7.596  0.1200 -0.0892 -0.0274
 4795TIP3    H135944   6.907   3.003   7.628  0.9329 -2.0315 -2.0903
 4795TIP3    H235945   6.819   3.055   7.516 -0.7077  0.2093  0.1263
 4796TIP3   OH235946   5.963   4.141   1.626 -0.7315  0.1509 -0.1489
 4796TIP3    H135947   5.989   4.049   1.627 -0.8352  0.1225  1.1414
 4796TIP3    H235948   5.917   4.154   1.709 -1.1733  1.2401 -0.5466
 4797TIP3   OH235949   3.506   3.231   7.286  0.7118 -0.0384 -0.7443
 4797TIP3    H135950   3.540   3.307   7.334  1.7121 -1.1842  0.4173
 4797TIP3    H235951   3.416   3.255   7.265 -0.1323  0.1696  2.6119
 4798TIP3   OH235952   4.721   6.509   0.631 -0.2846  1.0502 -0.0526
 4798TIP3    H135953   4.779   6.468   0.696 -0.8333 -1.2007 -0.9329
 4798TIP3    H235954   4.713   6.445   0.561 -4.0962  1.1410  0.1382
 4799TIP3   OH235955   1.659   4.919   8.406 -0.0059  0.3020 -0.1334
 4799TIP3    H135956   1.577   4.895   8.448  0.3317  1.5686  1.3270
 4799TIP3    H235957   1.701   4.980   8.467  1.1408  1.1758 -1.7120
 4800TIP3   OH235958   5.526   6.069   0.692 -0.2416 -0.6055  0.4828
 4800TIP3    H135959   5.598   6.020   0.654 -0.5344  0.4150 -1.4758
 4800TIP3    H235960   5.482   6.111   0.618 -1.2122  0.9990  1.8699
 4801TIP3   OH235961   1.827   1.509   1.989 -0.0894  0.2983  0.1714
 4801TIP3    H135962   1.910   1.460   1.992  0.0929  0.5842 -0.1080
 4801TIP3    H235963   1.784   1.487   2.072  0.4599  0.4807  0.5154
 4802TIP3   OH235964   5.267   4.379   1.839  0.7815 -0.2967  0.9328
 4802TIP3    H135965   5.208   4.342   1.905  0.7901  0.4044  1.3498
 4802TIP3    H235966   5.253   4.326   1.761  0.6188 -1.0149  1.4375
 4803TIP3   OH235967   0.808   6.448   0.892  0.3668 -0.5863  0.1055
 4803TIP3    H135968   0.892   6.471   0.852 -0.1691  0.5530 -0.4305
 4803TIP3    H235969   0.831   6.404   0.974  1.5686  2.1418  1.3839
 4804TIP3   OH235970   4.280   2.674   8.282  0.2528  0.3662 -0.4189
 4804TIP3    H135971   4.274   2.743   8.348  0.9171 -0.1722  0.2208
 4804TIP3    H235972   4.373   2.668   8.261  0.3252 -0.8724  0.1434
 4805TIP3   OH235973   3.779   3.151   7.497  0.3953  0.6712 -0.4619
 4805TIP3    H135974   3.798   3.209   7.571 -0.4728 -0.0332  0.3555
 4805TIP3    H235975   3.804   3.201   7.420 -0.1239  2.0447  0.2232
 4806TIP3   OH235976   0.845   1.314   8.551  0.4831  0.3010  0.0253
 4806TIP3    H135977   0.857   1.392   8.606  0.9763 -0.1032  0.4919
 4806TIP3    H235978   0.914   1.321   8.485  0.2060  0.5214 -0.2470
 4807TIP3   OH235979   5.978   2.197   0.832 -0.1669  0.0266 -0.5397
 4807TIP3    H135980   5.930   2.123   0.795  0.3620 -1.5246  1.6400
 4807TIP3    H235981   5.912   2.245   0.883  0.0836 -0.7478  0.5404
 4808TIP3   OH235982   2.042   3.586   2.501  0.0700 -0.7264  0.1594
 4808TIP3    H135983   1.984   3.611   2.573  1.1186 -1.7709  1.4378
 4808TIP3    H235984   1.993   3.520   2.453 -1.7609  1.8904 -1.8420
 4809TIP3   OH235985   1.975   2.216   7.819 -0.0939  0.4782 -0.2825
 4809TIP3    H135986   1.944   2.192   7.906 -0.3026 -0.9403 -0.7184
 4809TIP3    H235987   2.015   2.302   7.830  0.3922  0.0728  1.3179
 4810TIP3   OH235988   1.893   2.380   2.389  0.3012 -0.5823 -0.2876
 4810TIP3    H135989   1.966   2.425   2.433 -0.0301 -0.3462  0.0323
 4810TIP3    H235990   1.873   2.305   2.446  0.3214 -0.6676 -0.3936
 4811TIP3   OH235991   3.773   3.035   0.754  0.2764 -0.0844 -0.0247
 4811TIP3    H135992   3.729   2.953   0.733 -0.7454  0.2466  0.7559
 4811TIP3    H235993   3.728   3.067   0.832  1.6451  0.4745  0.5729
 4812TIP3   OH235994   6.241   4.818   6.974 -0.1048 -1.2856 -0.0227
 4812TIP3    H135995   6.182   4.891   6.954 -1.0504 -1.3257  2.3596
 4812TIP3    H235996   6.184   4.742   6.979  0.4950 -1.7306  0.0923
 4813TIP3   OH235997   5.443   5.688   1.487  0.4670 -0.3872 -0.4668
 4813TIP3    H135998   5.435   5.594   1.473  1.2698 -0.2877 -1.7516
 4813TIP3    H235999   5.480   5.697   1.575  0.1009 -1.2554 -0.2190
 4814TIP3   OH236000   1.719   0.125   0.750  0.5116  0.3190 -0.0261
 4814TIP3    H136001   1.730   0.074   0.670 -2.3407 -2.0123  0.8852
 4814TIP3    H236002   1.634   0.168   0.738  0.7769  1.1925  1.1378
 4815TIP3   OH236003   4.561   5.784   1.556  0.0025 -0.3346  0.2307
 4815TIP3    H136004   4.637   5.828   1.518  0.5941 -1.0663  0.5524
 4815TIP3    H236005   4.587   5.760   1.644 -0.8370 -0.0184  0.5804
 4816TIP3   OH236006   0.213   3.268   1.657  0.2135 -0.0620 -0.1407
 4816TIP3    H136007   0.230   3.185   1.702 -0.3947 -0.7404 -1.1196
 4816TIP3    H236008   0.183   3.327   1.726  1.3311 -0.4390  0.6884
 4817TIP3   OH236009   6.292   1.234   7.657  0.2690 -0.7137 -0.2766
 4817TIP3    H136010   6.286   1.321   7.617  1.4694  0.3173  1.6035
 4817TIP3    H236011   6.373   1.197   7.623 -0.0250 -0.9371 -0.7480
 4818TIP3   OH236012   6.498   3.583   0.261  0.2144 -0.4643 -0.8230
 4818TIP3    H136013   6.563   3.651   0.281 -1.3901  1.3818 -1.5993
 4818TIP3    H236014   6.416   3.615   0.298 -0.5494 -2.1741 -0.8985
 4819TIP3   OH236015   4.225   4.723   0.052 -0.0454 -0.1884  0.0287
 4819TIP3    H136016   4.232   4.628   0.048 -0.7921 -0.3428  1.6231
 4819TIP3    H236017   4.276   4.747   0.129 -1.0471  0.5540  0.4678
 4820TIP3   OH236018   1.858   5.721   1.037  0.2839 -0.8659  0.4355
 4820TIP3    H136019   1.805   5.647   1.069 -1.4859 -0.0677 -0.5133
 4820TIP3    H236020   1.830   5.733   0.947  0.0412  1.3645  0.7453
 4821TIP3   OH236021   4.051   6.053   8.429  0.1332 -0.5352  0.0129
 4821TIP3    H136022   4.122   6.034   8.490  0.4098  1.1963  0.2803
 4821TIP3    H236023   4.077   6.134   8.386 -1.2651 -0.3436 -0.5318
 4822TIP3   OH236024   4.694   4.645   8.020  0.0721 -0.3664  0.0218
 4822TIP3    H136025   4.734   4.710   8.078 -0.2877 -0.1055 -0.0206
 4822TIP3    H236026   4.723   4.561   8.055 -1.2880 -0.2797  1.4490
 4823TIP3   OH236027   3.168   4.240   2.812  0.0201  0.5051  0.1473
 4823TIP3    H136028   3.221   4.174   2.767 -1.9636 -1.9257  1.1403
 4823TIP3    H236029   3.145   4.303   2.743 -0.8602 -1.7368 -1.7294
 4824TIP3   OH236030   6.910   6.442   7.841  0.6516 -0.8498 -0.8371
 4824TIP3    H136031   6.998   6.449   7.878 -0.3567 -0.9060  1.7772
 4824TIP3    H236032   6.886   6.533   7.819  0.1550 -0.3067  1.6509
 4825TIP3   OH236033   5.287   6.269   2.454 -0.5542  0.1784  0.5717
 4825TIP3    H136034   5.276   6.254   2.548  0.1381  1.8455  0.9591
 4825TIP3    H236035   5.215   6.222   2.413 -0.6357 -0.9176  1.8939
 4826TIP3   OH236036   4.942   6.729   1.894 -0.1510  0.4292 -0.1919
 4826TIP3    H136037   5.015   6.764   1.842  0.8760  0.3192  1.1374
 4826TIP3    H236038   4.912   6.654   1.844  2.2937 -1.0557  0.4073
 4827TIP3   OH236039   0.041   5.296   2.305 -0.5181  0.3155 -0.4610
 4827TIP3    H136040   0.050   5.280   2.211 -0.6874  0.5375 -0.5149
 4827TIP3    H236041  -0.030   5.238   2.333  0.9659 -1.4190 -0.0400
 4828TIP3   OH236042   1.429   1.769   1.347  0.3549 -0.3209 -0.0132
 4828TIP3    H136043   1.464   1.720   1.273 -1.8308  0.0297 -1.3584
 4828TIP3    H236044   1.484   1.741   1.421  1.6801 -1.7890 -1.4458
 4829TIP3   OH236045   1.454   3.706   2.685  0.2470 -0.4828  0.7491
 4829TIP3    H136046   1.470   3.755   2.766  0.6582  2.1639 -0.8314
 4829TIP3    H236047   1.373   3.743   2.650  0.0194 -1.6729 -0.0258
 4830TIP3   OH236048   4.316   4.490   6.655 -0.2103  0.1835  0.2702
 4830TIP3    H136049   4.311   4.569   6.708  1.0306  1.2688 -1.1502
 4830TIP3    H236050   4.228   4.480   6.618  0.1008  2.0640 -1.1069
 4831TIP3   OH236051   4.967   6.106   2.019  0.0883 -0.5913  0.0453
 4831TIP3    H136052   4.999   6.156   1.944 -0.0308 -0.8389 -0.1684
 4831TIP3    H236053   5.029   6.033   2.028 -0.7708 -1.4494 -0.7729
 4832TIP3   OH236054   4.289   6.693   1.356 -0.0262 -0.8698  0.3319
 4832TIP3    H136055   4.284   6.668   1.263  0.9984 -0.1352  0.0664
 4832TIP3    H236056   4.244   6.622   1.401 -0.6082 -1.2084 -0.7303
 4833TIP3   OH236057   6.631   3.612   2.862  1.1121  0.6004 -0.5609
 4833TIP3    H136058   6.579   3.556   2.806  1.1603  2.3266 -2.4481
 4833TIP3    H236059   6.685   3.551   2.913 -2.0627 -1.2220  0.9482
 4834TIP3   OH236060   5.371   2.116   1.179  0.2211  0.0025  0.1362
 4834TIP3    H136061   5.284   2.075   1.176 -0.5504  1.5993 -2.0693
 4834TIP3    H236062   5.396   2.125   1.087  1.6685  1.6848  0.6431
 4835TIP3   OH236063   3.582   3.418   1.902  0.0675  0.1040 -0.0659
 4835TIP3    H136064   3.532   3.494   1.871 -0.9512 -0.4429  0.1686
 4835TIP3    H236065   3.567   3.352   1.835 -0.6868 -0.5102  0.6862
 4836TIP3   OH236066   3.074   3.057   0.267 -0.0318 -0.0300  0.0934
 4836TIP3    H136067   2.985   3.090   0.263  0.8583  2.6296  0.1018
 4836TIP3    H236068   3.118   3.095   0.191  1.1704 -1.1163  0.1996
 4837TIP3   OH236069   4.244   1.771   7.566 -0.1675  0.3992 -0.9439
 4837TIP3    H136070   4.301   1.776   7.490  0.6169  0.8843 -0.3378
 4837TIP3    H236071   4.208   1.859   7.576  0.8479  0.7123  0.0755
 4838TIP3   OH236072   0.487   3.441   1.585  0.3146 -0.7255  0.4015
 4838TIP3    H136073   0.411   3.499   1.588  0.6429 -0.3166  0.8831
 4838TIP3    H236074   0.512   3.429   1.676  2.3448  1.1556  0.1649
 4839TIP3   OH236075   5.495   3.765   1.273 -0.7862 -0.8135  0.2149
 4839TIP3    H136076   5.456   3.844   1.236 -0.9627 -0.6329  0.7749
 4839TIP3    H236077   5.450   3.693   1.230 -1.5164 -0.6088  0.6183
 4840TIP3   OH236078   3.410   3.294   7.565  0.8087 -0.3739 -0.2002
 4840TIP3    H136079   3.493   3.328   7.533  0.3204  0.1505 -0.9412
 4840TIP3    H236080   3.344   3.338   7.512  0.1386 -2.5697 -1.3381
 4841TIP3   OH236081   2.664   0.499   7.088  0.3864  0.7564  0.1425
 4841TIP3    H136082   2.598   0.450   7.039 -1.2712  2.9403  0.0559
 4841TIP3    H236083   2.672   0.451   7.171 -1.8354  0.7619  0.4254
 4842TIP3   OH236084   0.182   0.471   1.879  0.3219  0.4642 -0.4196
 4842TIP3    H136085   0.255   0.482   1.941  1.3502  0.4503 -1.5922
 4842TIP3    H236086   0.210   0.399   1.822  0.2028  1.6207 -2.0010
 4843TIP3   OH236087   5.523   6.775   0.172 -0.6182 -0.2088 -0.8554
 4843TIP3    H136088   5.485   6.806   0.090 -0.5428 -0.1899 -0.8832
 4843TIP3    H236089   5.608   6.820   0.177 -0.6906 -0.0911 -0.6914
 4844TIP3   OH236090   3.651   1.367   1.688  0.4916  0.5851  0.3686
 4844TIP3    H136091   3.715   1.428   1.652  0.2613 -0.0998 -1.3266
 4844TIP3    H236092   3.703   1.295   1.724  0.7609 -0.3078 -1.6193
 4845TIP3   OH236093   6.116   5.798   2.195  0.0827  0.0487  0.0910
 4845TIP3    H136094   6.092   5.890   2.179 -0.8059 -0.1120  0.4503
 4845TIP3    H236095   6.089   5.782   2.285  1.0771 -0.3126  0.3400
 4846TIP3   OH236096   5.375   4.912   7.755 -0.4585  0.0662  0.1717
 4846TIP3    H136097   5.294   4.946   7.793  0.4993  1.6491  0.8992
 4846TIP3    H236098   5.419   4.870   7.829 -0.2548 -0.0810 -0.0348
 4847TIP3   OH236099   1.079   0.335   0.716  0.0078  0.3838 -0.0904
 4847TIP3    H136100   1.100   0.425   0.738  1.1915 -0.3512  2.0749
 4847TIP3    H236101   0.987   0.337   0.688  0.1304  2.2727 -0.4745
 4848TIP3   OH236102   4.578   6.161   6.609 -0.1132  0.4406  0.2507
 4848TIP3    H136103   4.650   6.146   6.671  0.8573 -3.3870 -1.4657
 4848TIP3    H236104   4.505   6.111   6.645 -0.3658  0.3475 -0.3795
 4849TIP3   OH236105   6.677   4.477   7.667  0.0802  0.3246 -0.3074
 4849TIP3    H136106   6.744   4.534   7.704  0.7645  0.3783 -1.6009
 4849TIP3    H236107   6.622   4.453   7.742  0.6591  1.4775  0.5033
 4850TIP3   OH236108   5.720   3.851   7.174 -0.6675  0.3667 -0.3515
 4850TIP3    H136109   5.733   3.941   7.205  1.6387  0.1355 -0.4655
 4850TIP3    H236110   5.775   3.846   7.095 -2.5112 -0.5218 -1.6569
 4851TIP3   OH236111   1.838   1.678   0.130 -0.4633  0.1882  0.1745
 4851TIP3    H136112   1.885   1.607   0.086 -1.4637 -0.6884  0.4786
 4851TIP3    H236113   1.751   1.642   0.147 -1.0817  1.6002  0.0836
 4852TIP3   OH236114   4.602   4.042   0.417 -0.1272  0.1207  0.0990
 4852TIP3    H136115   4.672   4.091   0.460 -0.2407  2.7493 -2.4103
 4852TIP3    H236116   4.646   3.966   0.379  0.8184  0.2684  0.8590
 4853TIP3   OH236117   4.519   4.759   2.120  0.3270 -0.0657  0.3454
 4853TIP3    H136118   4.610   4.788   2.118 -0.2185  1.7790  0.4797
 4853TIP3    H236119   4.508   4.722   2.207  0.8085  0.1964  0.5230
 4854TIP3   OH236120   1.116   2.350   0.559  0.7977 -0.0641 -0.0297
 4854TIP3    H136121   1.028   2.330   0.528  1.6650 -0.8474 -2.1779
 4854TIP3    H236122   1.130   2.441   0.536  1.4437 -0.6423 -2.1981
 4855TIP3   OH236123   4.528   4.072   0.091 -0.2763 -0.6728 -0.9905
 4855TIP3    H136124   4.478   4.143   0.132 -1.4841  0.1029 -3.5344
 4855TIP3    H236125   4.493   3.992   0.130 -1.3090  0.0212 -0.4405
 4856TIP3   OH236126   2.588   6.591   2.184  0.0431  0.2484 -0.0645
 4856TIP3    H136127   2.582   6.523   2.252 -1.7989 -0.7045 -1.0868
 4856TIP3    H236128   2.554   6.670   2.226 -1.2120 -0.3659  0.1184
 4857TIP3   OH236129   1.116   5.919   3.181  0.0145 -0.6180  0.0137
 4857TIP3    H136130   1.028   5.957   3.178  0.6570  1.0129 -3.6511
 4857TIP3    H236131   1.114   5.847   3.118  0.8637 -1.7892  1.2653
 4858TIP3   OH236132   6.398   4.445   8.440  0.0852  0.2510  0.4663
 4858TIP3    H136133   6.315   4.433   8.486 -0.8550  2.6016 -0.4291
 4858TIP3    H236134   6.379   4.418   8.350  0.3849  0.4706  0.3374
 4859TIP3   OH236135   5.629   4.903   2.440 -0.1775  0.1170  0.7606
 4859TIP3    H136136   5.631   4.947   2.526  0.3918 -0.1926  0.9095
 4859TIP3    H236137   5.546   4.856   2.439 -0.3242  0.3714  1.0211
 4860TIP3   OH236138   5.544   2.501   8.221 -0.7128 -0.1731  0.4478
 4860TIP3    H136139   5.577   2.417   8.187 -0.5875 -0.1581  0.5330
 4860TIP3    H236140   5.449   2.493   8.214 -0.6916 -0.1888  0.1330
 4861TIP3   OH236141   1.834   5.879   8.086 -0.1171  0.2360  0.0023
 4861TIP3    H136142   1.921   5.908   8.058 -0.4902  2.8977  1.2718
 4861TIP3    H236143   1.776   5.948   8.055 -1.7002 -1.1101 -0.1235
 4862TIP3   OH236144   4.407   5.514   0.184 -0.0225  0.1461  0.5752
 4862TIP3    H136145   4.476   5.489   0.246  0.9556 -1.0701 -0.9046
 4862TIP3    H236146   4.380   5.431   0.144 -0.4008  0.9111 -0.8229
 4863TIP3   OH236147   5.841   3.727   7.748  0.3390  0.0928  0.2451
 4863TIP3    H136148   5.787   3.798   7.712  0.0393 -0.6378 -0.7840
 4863TIP3    H236149   5.779   3.669   7.791  0.5913  0.4653  1.1303
 4864TIP3   OH236150   2.791   4.018   1.978 -0.3624  0.1616 -0.3023
 4864TIP3    H136151   2.812   3.946   2.037 -1.1036 -0.1256 -0.3736
 4864TIP3    H236152   2.789   3.977   1.891 -2.0507 -0.0313 -0.2109
 4865TIP3   OH236153   3.876   4.384   1.493  0.2090  0.0528 -0.3083
 4865TIP3    H136154   3.797   4.345   1.531  1.6540 -2.6535  0.1434
 4865TIP3    H236155   3.871   4.361   1.400 -1.2577  3.0996 -1.1195
 4866TIP3   OH236156   4.180   5.601   1.309 -0.2292 -0.0943 -0.3095
 4866TIP3    H136157   4.264   5.639   1.337  0.5835 -0.3686 -2.2358
 4866TIP3    H236158   4.200   5.508   1.297 -0.8428 -0.1760 -0.7005
 4867TIP3   OH236159   5.510   3.618   8.504 -0.6005 -0.0124  0.1139
 4867TIP3    H136160   5.541   3.543   8.453 -1.2337  0.2749 -0.7354
 4867TIP3    H236161   5.462   3.579   8.577 -0.9639 -0.4429 -0.3439
 4868TIP3   OH236162   5.533   2.841   1.388 -0.1480  0.1288  0.4247
 4868TIP3    H136163   5.525   2.879   1.475  1.2020  2.2821 -0.3257
 4868TIP3    H236164   5.493   2.905   1.330  1.2016 -0.0745 -0.7881
 4869TIP3   OH236165   1.620   1.403   0.719 -0.4313  0.1713  0.0135
 4869TIP3    H136166   1.535   1.364   0.742 -0.1886 -0.5068 -0.2103
 4869TIP3    H236167   1.671   1.330   0.685  0.0726  0.6765 -0.3310
 4870TIP3   OH236168   1.604   6.518   0.530 -0.3471 -0.0056  0.1022
 4870TIP3    H136169   1.644   6.462   0.463  1.9549  1.4662  0.1662
 4870TIP3    H236170   1.650   6.601   0.523 -2.1298  1.1767  1.5324
 4871TIP3   OH236171   5.508   5.422   0.399 -0.1001 -0.0307 -0.1915
 4871TIP3    H136172   5.544   5.427   0.488 -1.2870 -0.9894  0.3668
 4871TIP3    H236173   5.570   5.368   0.351 -0.2052 -0.7393  0.4590
 4872TIP3   OH236174   6.328   1.281   0.124  1.0378  0.2454 -0.0991
 4872TIP3    H136175   6.385   1.357   0.131  0.3016  0.8071 -0.1202
 4872TIP3    H236176   6.383   1.208   0.153  0.8518  1.1826  2.9764
 4873TIP3   OH236177   5.890   4.636   1.377 -0.1090 -0.6189  0.9339
 4873TIP3    H136178   5.903   4.570   1.445 -0.6941 -1.4848  0.2382
 4873TIP3    H236179   5.836   4.703   1.418  1.3877 -0.0190  1.9830
 4874TIP3   OH236180   3.610   3.787   8.366  0.6487  0.4090  0.1316
 4874TIP3    H136181   3.609   3.797   8.461 -0.6370 -2.2385  0.4898
 4874TIP3    H236182   3.682   3.844   8.336  2.4043 -0.1792  2.8936
 4875TIP3   OH236183   0.380   4.431   8.012  0.2563 -0.1578 -0.6327
 4875TIP3    H136184   0.338   4.442   8.097 -2.5180  0.0710 -1.9121
 4875TIP3    H236185   0.473   4.423   8.032 -0.3726 -1.2803  2.5070
 4876TIP3   OH236186   4.038   1.807   7.847  0.1584  0.1741  0.1704
 4876TIP3    H136187   4.048   1.712   7.841  0.9726  0.3131 -0.8911
 4876TIP3    H236188   4.037   1.837   7.756 -0.5795  1.1472  0.4765
 4877TIP3   OH236189   6.881   1.682   0.577 -0.1813  0.3372  0.2663
 4877TIP3    H136190   6.947   1.745   0.546 -1.9716  2.2184  0.0814
 4877TIP3    H236191   6.885   1.610   0.514  0.3720  1.3186 -0.8639
 4878TIP3   OH236192   1.622   6.465   0.816  0.0600  0.0149  0.0934
 4878TIP3    H136193   1.565   6.471   0.739  0.9637  1.1009 -0.5224
 4878TIP3    H236194   1.589   6.534   0.874 -0.5916 -0.7728  0.6866
 4879TIP3   OH236195   6.080   6.781   8.259 -0.2244 -0.3155 -0.4785
 4879TIP3    H136196   6.018   6.739   8.199 -0.5194 -1.0707  0.3353
 4879TIP3    H236197   6.106   6.711   8.319  1.1983  0.0532 -0.6172
 4880TIP3   OH236198   2.326   1.912   1.347  0.3401 -0.3301 -0.0637
 4880TIP3    H136199   2.351   1.840   1.290  0.0791 -0.4454 -0.0333
 4880TIP3    H236200   2.357   1.885   1.434  1.2427  0.1003 -0.2460
 4881TIP3   OH236201   0.776   5.676   0.983  0.5543  0.3128  0.1807
 4881TIP3    H136202   0.768   5.600   0.926 -0.8647  1.1228 -0.7767
 4881TIP3    H236203   0.693   5.723   0.971 -0.0213  0.3089  3.2588
 4882TIP3   OH236204   1.059   2.287   7.938  0.1965 -0.2280  0.0529
 4882TIP3    H136205   1.092   2.232   7.867  0.6432  0.2821 -0.1393
 4882TIP3    H236206   1.012   2.357   7.894  0.5042  0.1094  0.2553
 4883TIP3   OH236207   5.060   3.160   0.048 -0.1148 -0.5229 -0.2226
 4883TIP3    H136208   5.135   3.105   0.072  1.5354  1.7804  0.1995
 4883TIP3    H236209   5.089   3.208  -0.029 -0.5701  1.4777  0.7877
 4884TIP3   OH236210   2.695   2.319   7.377  0.0354  0.6251 -0.3735
 4884TIP3    H136211   2.609   2.315   7.419  0.5465  1.5767  0.8187
 4884TIP3    H236212   2.683   2.380   7.304 -0.8788 -1.1139 -1.7946
 4885TIP3   OH236213   5.690   1.087   1.384  0.1232 -0.1410  0.4756
 4885TIP3    H136214   5.656   1.003   1.416  2.4293 -1.1904  0.3548
 4885TIP3    H236215   5.681   1.082   1.289  1.4522 -0.8512  0.3657
 4886TIP3   OH236216   1.253   0.776   0.306  0.2053  0.1457 -0.0321
 4886TIP3    H136217   1.217   0.746   0.389 -0.7663 -0.0409 -0.5085
 4886TIP3    H236218   1.253   0.872   0.312 -3.4021  0.3681 -1.1833
 4887TIP3   OH236219   0.474   2.913   7.687  0.0333 -0.2900 -0.0304
 4887TIP3    H136220   0.566   2.920   7.712 -0.3378  1.2380  1.0692
 4887TIP3    H236221   0.475   2.910   7.591  1.1532  1.6950 -0.1352
 4888TIP3   OH236222   3.357   4.679   7.981 -0.0413 -0.1646  0.2082
 4888TIP3    H136223   3.334   4.677   8.074  1.4812 -1.3449  0.6094
 4888TIP3    H236224   3.398   4.765   7.968 -0.3159  0.0279  0.6072
 4889TIP3   OH236225   2.542   5.083   2.303  0.2900 -0.3758 -0.0630
 4889TIP3    H136226   2.589   5.161   2.272 -0.5415 -0.2830 -1.1549
 4889TIP3    H236227   2.453   5.094   2.270  0.2226 -1.9364 -0.4802
 4890TIP3   OH236228   6.310   5.488   1.696  0.3606  0.1501  0.4977
 4890TIP3    H136229   6.334   5.561   1.638 -0.2653 -1.2299 -1.6064
 4890TIP3    H236230   6.232   5.519   1.742 -0.6433  0.4251 -1.2798
 4891TIP3   OH236231   6.214   5.186   1.899 -1.0675 -0.1116  0.2943
 4891TIP3    H136232   6.197   5.202   1.806 -0.2576 -1.3299 -0.0897
 4891TIP3    H236233   6.127   5.182   1.939 -1.3952  1.9419 -0.1036
 4892TIP3   OH236234   3.103   3.090   0.802  0.4929 -0.0080  0.4390
 4892TIP3    H136235   3.169   3.078   0.734 -0.5376 -0.6497 -0.4985
 4892TIP3    H236236   3.020   3.096   0.754 -0.1307  0.8641  1.5653
 4893TIP3   OH236237   5.544   4.623   2.671 -0.1797 -0.2958  0.2014
 4893TIP3    H136238   5.610   4.664   2.727 -1.0921  1.2414  0.1948
 4893TIP3    H236239   5.587   4.544   2.637  0.9829 -0.3495  1.6850
 4894TIP3   OH236240   4.775   6.283   2.524  0.2849  0.2494 -0.8193
 4894TIP3    H136241   4.782   6.323   2.611 -0.0604 -1.0804 -0.1533
 4894TIP3    H236242   4.830   6.338   2.468  1.1324  0.6853  0.3965
 4895TIP3   OH236243   2.649   6.247   1.783 -0.1309  0.7879 -0.5087
 4895TIP3    H136244   2.701   6.213   1.710  1.8320  1.2360  0.6224
 4895TIP3    H236245   2.658   6.342   1.777  0.7047  0.8123  0.7249
 4896TIP3   OH236246   2.351   4.563   2.587  0.4627  0.0685 -0.1755
 4896TIP3    H136247   2.271   4.605   2.618  0.3745  0.0399 -0.3643
 4896TIP3    H236248   2.346   4.474   2.621  2.2789  1.0918  3.2131
 4897TIP3   OH236249   2.003   4.797   3.004  0.3273  0.4682  0.2269
 4897TIP3    H136250   2.095   4.789   3.029  1.1690  2.1020 -2.0565
 4897TIP3    H236251   1.986   4.721   2.949 -0.2010 -0.6826  1.9172
 4898TIP3   OH236252   4.512   4.632   0.439 -0.0207  0.1017 -0.4132
 4898TIP3    H136253   4.606   4.634   0.417 -0.1998  0.2199 -1.2021
 4898TIP3    H236254   4.470   4.682   0.370 -0.8675 -1.5611 -1.1670
 4899TIP3   OH236255   5.662   5.393   2.112  0.6199  0.0271 -0.3878
 4899TIP3    H136256   5.684   5.384   2.019 -0.0214  2.5040 -0.8354
 4899TIP3    H236257   5.567   5.403   2.114  0.3927 -1.8356  0.7509
 4900TIP3   OH236258   1.032   3.501   0.731 -0.1710  0.4200  0.1790
 4900TIP3    H136259   1.073   3.425   0.772  1.6515  1.0002 -0.4370
 4900TIP3    H236260   0.960   3.465   0.679  0.5835 -0.8874 -0.0148
 4901TIP3   OH236261   3.093   1.528   2.722  0.8847  0.0025 -0.8121
 4901TIP3    H136262   3.002   1.557   2.732  0.9088 -0.0896 -0.2748
 4901TIP3    H236263   3.145   1.605   2.741  0.9210 -0.0149 -0.8418
 4902TIP3   OH236264   2.970   5.985   0.017  0.7870  0.4288 -0.0276
 4902TIP3    H136265   2.999   5.894   0.026 -2.2821 -0.8551 -1.7315
 4902TIP3    H236266   3.034   6.024  -0.043  0.1479 -1.7723 -2.3334
 4903TIP3   OH236267   5.808   6.306   2.323 -0.1644 -0.0378  0.0957
 4903TIP3    H136268   5.874   6.350   2.376 -0.2895  0.2739 -0.0081
 4903TIP3    H236269   5.730   6.359   2.333 -0.7945 -1.1246  1.2898
 4904TIP3   OH236270   4.844   4.460   7.818 -0.1752  0.2998 -0.2132
 4904TIP3    H136271   4.891   4.481   7.737 -0.7116 -0.2304 -0.6715
 4904TIP3    H236272   4.908   4.473   7.887  0.4007  0.3944 -0.7575
 4905TIP3   OH236273   4.279   4.860   6.954 -0.1332 -0.1976 -0.7740
 4905TIP3    H136274   4.212   4.917   6.991 -0.0188  0.0764 -0.9824
 4905TIP3    H236275   4.231   4.800   6.898 -0.2202 -0.1008 -0.8036
 4906TIP3   OH236276   3.756   5.536   0.043  0.0457 -0.7457  0.5254
 4906TIP3    H136277   3.733   5.474  -0.027 -1.2067 -0.9527  1.0922
 4906TIP3    H236278   3.827   5.589   0.006  0.7905 -2.1603 -0.1669
 4907TIP3   OH236279   4.956   0.682   1.258  0.1570 -0.2628  1.1353
 4907TIP3    H136280   4.896   0.703   1.330 -0.2308  1.7251  0.3235
 4907TIP3    H236281   5.041   0.712   1.289 -0.1219  1.2286  0.5956
 4908TIP3   OH236282   5.757   1.674   2.867  0.1300  0.6382 -0.3196
 4908TIP3    H136283   5.671   1.717   2.866  0.0329  0.4369 -0.9204
 4908TIP3    H236284   5.739   1.585   2.900  0.2049  0.7844  0.1270
 4909TIP3   OH236285   5.225   3.350   7.758  0.2614 -0.3147 -0.2548
 4909TIP3    H136286   5.301   3.340   7.701 -0.9188 -1.8715 -1.6262
 4909TIP3    H236287   5.215   3.265   7.801  1.4637  0.9445  2.8803
 4910TIP3   OH236288   5.639   2.943   7.911  0.3137 -0.0651  0.4108
 4910TIP3    H136289   5.551   2.943   7.873 -0.2168  1.2577  1.5590
 4910TIP3    H236290   5.652   2.854   7.941 -0.4868 -0.3690 -0.1002
 4911TIP3   OH236291   0.524   5.170   1.479  0.2976 -0.1176  0.4484
 4911TIP3    H136292   0.500   5.262   1.491 -1.2098 -0.5750  1.0493
 4911TIP3    H236293   0.609   5.174   1.434 -0.1914  1.5631 -0.4233
 4912TIP3   OH236294   6.290   0.436   7.185 -0.0230  0.0698 -0.2051
 4912TIP3    H136295   6.248   0.391   7.258 -2.5360  0.5650 -1.2507
 4912TIP3    H236296   6.340   0.368   7.140 -0.5348 -0.7945  0.5113
 4913TIP3   OH236297   0.925   3.825   2.188 -0.2319  0.0878  0.2937
 4913TIP3    H136298   0.907   3.748   2.242  3.6360 -0.9302  0.4600
 4913TIP3    H236299   0.967   3.886   2.249  2.5458 -0.3480 -1.0473
 4914TIP3   OH236300   3.649   2.732   2.735 -0.5155  0.1083 -0.4159
 4914TIP3    H136301   3.652   2.827   2.742 -1.1540  0.1518 -0.6526
 4914TIP3    H236302   3.716   2.711   2.669  2.1348  0.0670  2.0782
 4915TIP3   OH236303   4.074   4.814   7.653  0.0629  0.2658 -0.0492
 4915TIP3    H136304   4.084   4.857   7.568  0.4308  0.1303 -0.0729
 4915TIP3    H236305   4.162   4.787   7.677 -0.1234 -0.1957  0.1172
 4916TIP3   OH236306   2.666   4.392   7.250  0.0250  0.2943 -0.0327
 4916TIP3    H136307   2.749   4.361   7.286  0.4222 -0.9356 -1.8942
 4916TIP3    H236308   2.651   4.476   7.294  0.6582 -0.8726  2.6181
 4917TIP3   OH236309   5.372   4.240   8.453 -0.4665  0.3761 -0.3442
 4917TIP3    H136310   5.401   4.215   8.541  0.1798  0.2151 -0.5974
 4917TIP3    H236311   5.396   4.166   8.398  0.2789  0.9920 -0.8726
 4918TIP3   OH236312   3.874   3.755   0.307  0.3064 -0.4830 -0.1083
 4918TIP3    H136313   3.788   3.794   0.326  0.8984  1.2835 -0.8514
 4918TIP3    H236314   3.868   3.730   0.215  1.5951  2.7235 -1.2064
 4919TIP3   OH236315   6.880   6.872   1.233 -1.1290  0.2860 -0.3449
 4919TIP3    H136316   6.974   6.862   1.253 -0.9969  0.9717 -0.5825
 4919TIP3    H236317   6.846   6.922   1.307 -1.3171  0.0046 -0.2410
 4920TIP3   OH236318   4.750   0.518   2.310  0.2904  0.4434 -0.4424
 4920TIP3    H136319   4.673   0.514   2.367  1.1338  0.7326  0.7298
 4920TIP3    H236320   4.714   0.504   2.222 -1.2128  1.3308 -0.0079
 4921TIP3   OH236321   3.748   3.005   1.480 -0.2004  0.7494  0.0359
 4921TIP3    H136322   3.824   3.015   1.537 -0.8097  1.4868  0.7217
 4921TIP3    H236323   3.771   2.930   1.424  0.9708  0.8773  0.3117
 4922TIP3   OH236324   0.518   4.103   1.494  0.1703 -0.2580  0.3772
 4922TIP3    H136325   0.603   4.135   1.522  0.0595  0.0418  0.3737
 4922TIP3    H236326   0.491   4.043   1.564 -0.5197  1.1876  1.3954
 4923TIP3   OH236327   5.185   5.320   0.639 -0.3724  0.3718 -0.4226
 4923TIP3    H136328   5.108   5.265   0.626  0.3417 -0.6944 -0.3144
 4923TIP3    H236329   5.156   5.391   0.696 -1.2648 -0.0106 -0.3936
 4924TIP3   OH236330   5.088   6.667   7.882  0.0948  0.3975  0.4588
 4924TIP3    H136331   5.078   6.663   7.787 -0.6519 -1.0459  0.5773
 4924TIP3    H236332   5.129   6.584   7.906  0.0014  0.6176  1.4267
 4925TIP3   OH236333   2.679   1.576   1.134  0.0354 -0.1423 -0.3359
 4925TIP3    H136334   2.704   1.654   1.084 -0.3596  0.2029 -0.0007
 4925TIP3    H236335   2.760   1.551   1.180 -0.2023  0.9778  0.7457
 4926TIP3   OH236336   5.779   0.848   2.169  0.8462  0.6988  0.7936
 4926TIP3    H136337   5.736   0.800   2.239 -0.1746  1.8079  0.9499
 4926TIP3    H236338   5.722   0.837   2.093  1.1124  0.8552  0.5676
 4927TIP3   OH236339   5.954   2.691   1.225  0.0348  1.2370  0.3676
 4927TIP3    H136340   6.031   2.722   1.274  0.9937  2.6467 -1.8660
 4927TIP3    H236341   5.977   2.706   1.133 -2.5074  0.6640 -0.4252
 4928TIP3   OH236342   3.084   1.137   1.566 -0.0933 -0.2141 -0.2892
 4928TIP3    H136343   3.124   1.149   1.480  0.4311 -1.3779 -0.2284
 4928TIP3    H236344   3.032   1.057   1.558 -2.7008  1.3710 -0.4344
 4929TIP3   OH236345   2.163   5.899   6.815 -0.6252  0.0738 -0.3131
 4929TIP3    H136346   2.068   5.885   6.814 -0.6443  0.0868  0.6253
 4929TIP3    H236347   2.197   5.832   6.874  0.2152 -1.3273 -2.2846
 4930TIP3   OH236348   4.654   4.057   8.311  0.1217  0.2010  0.3137
 4930TIP3    H136349   4.719   3.995   8.277  0.5558  0.3407  0.8798
 4930TIP3    H236350   4.706   4.126   8.352 -0.3761 -0.4652  2.1742
 4931TIP3   OH236351   1.624   6.755   3.059 -0.7494  0.1563 -0.2447
 4931TIP3    H136352   1.711   6.732   3.024 -0.3425  2.0907 -0.6587
 4931TIP3    H236353   1.639   6.836   3.107 -2.0876 -0.2940  0.9964
 4932TIP3   OH236354   0.462   2.234   7.099 -0.0074 -0.2256 -0.4426
 4932TIP3    H136355   0.421   2.283   7.028  1.3538  1.0303 -0.4090
 4932TIP3    H236356   0.496   2.155   7.057 -1.4398 -0.7459 -0.6701
 4933TIP3   OH236357   3.422   1.555   1.724 -0.2480  0.1579  0.1229
 4933TIP3    H136358   3.432   1.633   1.670 -1.3596  0.2462  0.0153
 4933TIP3    H236359   3.484   1.492   1.688  0.4514  0.8780  0.0229
 4934TIP3   OH236360   3.813   4.827   7.697  0.4013  0.0079  0.3818
 4934TIP3    H136361   3.777   4.738   7.699  1.2724 -0.3438  1.7690
 4934TIP3    H236362   3.902   4.817   7.664  0.0681  0.5746 -0.7663
 4935TIP3   OH236363   0.253   4.169   6.936  0.5337 -0.5469 -0.1933
 4935TIP3    H136364   0.342   4.185   6.904  0.0862  1.2749 -0.6947
 4935TIP3    H236365   0.216   4.106   6.875  1.4780 -1.3657  0.0535
 4936TIP3   OH236366   6.165   2.861   1.286  1.0219 -0.0209  0.0367
 4936TIP3    H136367   6.241   2.804   1.284  0.9635 -0.0910 -0.1628
 4936TIP3    H236368   6.169   2.904   1.372  2.9266  2.1887 -1.0506
 4937TIP3   OH236369   0.965   4.101   2.522 -0.3949 -0.3427 -0.0742
 4937TIP3    H136370   0.992   4.083   2.612 -1.7268  0.1333  0.4385
 4937TIP3    H236371   1.013   4.037   2.470 -0.5872 -1.4967  1.1140
 4938TIP3   OH236372   3.363   1.711   1.463 -0.2059 -0.0879 -0.0174
 4938TIP3    H136373   3.446   1.697   1.418  0.6880  0.6211  1.3499
 4938TIP3    H236374   3.297   1.706   1.393  1.0739  0.4308 -1.3185
 4939TIP3   OH236375   6.757   3.023   1.636 -0.0014 -0.2404 -0.5032
 4939TIP3    H136376   6.698   3.017   1.561 -0.7556  0.2075  0.0416
 4939TIP3    H236377   6.706   3.068   1.703  1.0612  0.4457 -0.1251
 4940TIP3   OH236378   4.718   0.060   3.210  0.6585 -0.4763 -0.2457
 4940TIP3    H136379   4.627   0.034   3.227  1.2023 -1.5033  1.2657
 4940TIP3    H236380   4.765   0.040   3.291  1.7149  2.7072  0.0755
 4941TIP3   OH236381   4.576   2.608   7.829  0.3248  0.2754 -0.3311
 4941TIP3    H136382   4.510   2.543   7.854  1.3100 -0.3833  0.6711
 4941TIP3    H236383   4.625   2.624   7.910  0.5001  1.8055 -0.7179
 4942TIP3   OH236384   0.944   6.355   0.559  0.1637 -0.7022 -0.3332
 4942TIP3    H136385   0.902   6.425   0.509  0.5227  0.0657  0.4236
 4942TIP3    H236386   0.888   6.279   0.545 -1.4080  0.2378  0.5032
 4943TIP3   OH236387   6.884   0.537   2.419 -0.0854 -0.4250  0.3504
 4943TIP3    H136388   6.843   0.534   2.506 -1.2513 -2.3542 -0.2198
 4943TIP3    H236389   6.820   0.580   2.363 -0.1964 -0.9919  0.0331
 4944TIP3   OH236390   2.555   2.505   0.490  0.1229 -0.5480  0.1294
 4944TIP3    H136391   2.499   2.429   0.499  0.5729 -0.9747 -0.5483
 4944TIP3    H236392   2.541   2.535   0.400 -0.3403  0.4033  0.5136
 4945TIP3   OH236393   4.298   4.180   1.271 -0.6317  0.1821 -0.1849
 4945TIP3    H136394   4.335   4.199   1.357  1.2171 -0.8070 -0.7231
 4945TIP3    H236395   4.265   4.090   1.278  1.7317 -0.8355 -1.1485
 4946TIP3   OH236396   3.839   2.940   2.593  0.3897 -0.4576  0.4782
 4946TIP3    H136397   3.900   2.874   2.626 -2.6329 -2.1006  3.3915
 4946TIP3    H236398   3.804   2.981   2.672 -1.1273  1.5148 -1.1315
 4947TIP3   OH236399   6.213   3.614   1.280 -0.3563  0.1823  0.1698
 4947TIP3    H136400   6.275   3.615   1.206  0.0965  0.3775  0.5454
 4947TIP3    H236401   6.153   3.687   1.261  0.5845  1.1136  0.6699
 4948TIP3   OH236402   6.867   6.352   7.020 -0.0306  0.1841  0.0763
 4948TIP3    H136403   6.825   6.353   7.106 -2.3500 -0.1866 -0.9933
 4948TIP3    H236404   6.877   6.444   6.996 -0.0810  0.2779  0.4141
 4949TIP3   OH236405   3.811   2.012   8.011 -0.8763  0.4326  0.7401
 4949TIP3    H136406   3.782   1.931   8.051  1.3147 -0.1636  1.2848
 4949TIP3    H236407   3.870   1.984   7.941 -1.3142  1.5437 -0.1033
 4950TIP3   OH236408   1.278   3.129   2.121  0.6352 -0.2813  0.1094
 4950TIP3    H136409   1.282   3.215   2.080 -0.9039 -0.2514 -0.0236
 4950TIP3    H236410   1.339   3.075   2.069 -0.2601  0.0965 -1.4137
 4951TIP3   OH236411   5.209   5.717   1.159 -0.1962 -0.0177  0.1863
 4951TIP3    H136412   5.197   5.684   1.070  0.0651  0.1593  0.0834
 4951TIP3    H236413   5.301   5.697   1.180  0.2346  1.4350 -0.2147
 4952TIP3   OH236414   1.474   6.678   1.326 -0.0388 -0.0404 -0.3322
 4952TIP3    H136415   1.517   6.604   1.284  0.0758 -0.1783  0.0293
 4952TIP3    H236416   1.483   6.662   1.420 -0.8380 -0.0467 -0.2499
 4953TIP3   OH236417   5.653   0.362   2.763 -0.0118 -0.7298 -0.0605
 4953TIP3    H136418   5.674   0.451   2.734  0.6484 -0.3825  1.3864
 4953TIP3    H236419   5.646   0.312   2.682 -1.6616  0.8799 -0.9940
 4954TIP3   OH236420   6.696   5.747   1.227  0.1639  0.2519 -0.0646
 4954TIP3    H136421   6.767   5.684   1.240  0.1971 -0.0691 -1.6834
 4954TIP3    H236422   6.627   5.716   1.286  1.3135  0.5384  1.4916
 4955TIP3   OH236423   3.598   6.829   1.401  0.1733  0.7192 -0.2905
 4955TIP3    H136424   3.635   6.909   1.364  0.3499 -0.0388 -1.8455
 4955TIP3    H236425   3.515   6.816   1.353  0.7065 -0.6178 -0.9178
 4956TIP3   OH236426   0.958   3.024   0.757  0.4990 -0.2122  0.0196
 4956TIP3    H136427   0.999   2.951   0.804  0.5754 -1.0227 -1.2712
 4956TIP3    H236428   1.009   3.034   0.677  1.8184  2.6692  1.0661
 4957TIP3   OH236429   1.856   2.878   8.516  0.7328 -0.3850  0.0947
 4957TIP3    H136430   1.947   2.848   8.512  0.3487 -1.8152  1.1737
 4957TIP3    H236431   1.862   2.969   8.544  1.7925 -1.0910  2.3967
 4958TIP3   OH236432   5.090   5.624   1.400 -0.1191  0.1990  0.3390
 4958TIP3    H136433   5.141   5.650   1.323 -0.6798  0.4297  0.0473
 4958TIP3    H236434   5.074   5.531   1.388 -1.7145  0.5843 -0.7088
 4959TIP3   OH236435   5.018   1.955   8.489  0.6204 -0.2817 -0.0235
 4959TIP3    H136436   5.053   2.004   8.415 -0.1279  0.6650  0.2221
 4959TIP3    H236437   4.927   1.936   8.464  0.8486 -1.4380 -0.0465
 4960TIP3   OH236438   0.493   0.040   0.266  0.3872  0.2083 -0.0588
 4960TIP3    H136439   0.432  -0.026   0.300  0.3925  0.4806  0.4954
 4960TIP3    H236440   0.437   0.113   0.241  0.2281 -0.5430 -2.0611
 4961TIP3   OH236441   3.300   0.041   0.385  0.7539 -0.2086 -0.5706
 4961TIP3    H136442   3.367   0.042   0.316  0.4759 -2.4964 -0.9615
 4961TIP3    H236443   3.220   0.067   0.341  0.7907 -0.6006 -0.8793
 4962TIP3   OH236444   5.711   0.778   6.482  0.3532 -0.4119  0.1208
 4962TIP3    H136445   5.719   0.873   6.487  1.8818 -0.4919 -0.3617
 4962TIP3    H236446   5.618   0.761   6.494  0.0006  1.1701 -0.2082
 4963TIP3   OH236447   4.944   0.366   6.956 -0.1103  0.4547  0.1666
 4963TIP3    H136448   5.034   0.397   6.945  0.2210 -0.4543  0.2028
 4963TIP3    H236449   4.902   0.432   7.011  0.8941  0.2685  1.1977
 4964TIP3   OH236450   3.102   6.286   1.665  0.6903  0.0173 -0.0572
 4964TIP3    H136451   3.019   6.279   1.711  1.3589  0.0782  1.1938
 4964TIP3    H236452   3.094   6.225   1.592  0.3154 -1.6165  1.2785
 4965TIP3   OH236453   4.091   6.290   0.212 -0.0610 -0.8397  0.7351
 4965TIP3    H136454   4.037   6.212   0.203 -1.4798  0.3506 -2.1980
 4965TIP3    H236455   4.043   6.345   0.275 -0.3731 -1.2525  0.8601
 4966TIP3   OH236456   5.232   2.806   0.694  0.3217 -0.2040 -0.6778
 4966TIP3    H136457   5.309   2.853   0.663  0.4775 -0.8472 -1.2645
 4966TIP3    H236458   5.192   2.769   0.616 -1.9102  2.0261 -0.7521
 4967TIP3   OH236459   0.731   2.819   1.688  0.2696 -0.3878  0.2218
 4967TIP3    H136460   0.818   2.844   1.719  0.2943 -0.1277 -0.0506
 4967TIP3    H236461   0.671   2.853   1.754  0.2573  0.9801 -0.4644
 4968TIP3   OH236462   2.733   0.644   8.527 -0.0631  0.5671  0.4334
 4968TIP3    H136463   2.719   0.580   8.596  0.7505  0.1168  0.1986
 4968TIP3    H236464   2.649   0.690   8.519  0.1459  1.4066  2.4744
 4969TIP3   OH236465   1.968   3.923   8.463 -0.1010  0.1594  0.3756
 4969TIP3    H136466   1.946   3.830   8.451  1.1854 -0.2787  1.2754
 4969TIP3    H236467   1.903   3.956   8.525 -0.6039 -0.1157 -0.0002
 4970TIP3   OH236468   6.730   3.831   0.863  0.0353  0.4119  0.5121
 4970TIP3    H136469   6.733   3.924   0.886 -0.1501  1.8881 -4.3327
 4970TIP3    H236470   6.821   3.808   0.844  0.0802 -0.5063  1.6756
 4971TIP3   OH236471   2.741   3.771   1.106 -0.7140 -0.1765 -0.2128
 4971TIP3    H136472   2.816   3.717   1.128 -0.8805  0.3772  1.9707
 4971TIP3    H236473   2.676   3.710   1.071 -1.0004 -1.5021  2.4295
 4972TIP3   OH236474   3.246   0.974   2.127 -0.4698 -0.3025  0.3668
 4972TIP3    H136475   3.326   0.982   2.178  0.1567  0.5715 -0.7137
 4972TIP3    H236476   3.272   0.996   2.038 -1.6873 -1.0891 -0.2059
 4973TIP3   OH236477   6.432   1.678   2.029  0.0526 -0.2185 -0.5617
 4973TIP3    H136478   6.500   1.630   2.076  1.1351  0.6975 -1.1377
 4973TIP3    H236479   6.476   1.756   1.995 -1.2995  0.4351 -0.9151
 4974TIP3   OH236480   5.334   3.085   2.218  0.4238 -0.9459  0.2131
 4974TIP3    H136481   5.410   3.065   2.273  0.1496 -2.2701  0.1548
 4974TIP3    H236482   5.347   3.176   2.190  0.6512 -0.2760  2.3319
 4975TIP3   OH236483   0.101   0.145   0.576  0.0399 -0.1111 -0.3770
 4975TIP3    H136484   0.009   0.127   0.561 -0.3423  1.3944 -0.0585
 4975TIP3    H236485   0.110   0.154   0.671  0.2784  0.7934 -0.4708
 4976TIP3   OH236486   5.357   5.167   0.782  1.0301  0.1731  0.0514
 4976TIP3    H136487   5.301   5.159   0.859 -0.2654  1.9045 -0.6271
 4976TIP3    H236488   5.308   5.226   0.724  2.3555 -0.4039 -1.7272
 4977TIP3   OH236489   6.526   1.122   1.346 -0.3578 -0.2448  0.4132
 4977TIP3    H136490   6.534   1.027   1.356  0.2375 -0.0980  1.4374
 4977TIP3    H236491   6.563   1.158   1.427 -0.1478  0.8727 -0.1610
 4978TIP3   OH236492   4.377   4.874   7.340  0.4164  0.3924 -0.0959
 4978TIP3    H136493   4.444   4.935   7.310  0.6615  0.5172  0.6740
 4978TIP3    H236494   4.388   4.796   7.286 -0.4055  1.2947 -1.6195
 4979TIP3   OH236495   1.336   1.507   8.095 -0.1639 -0.9368 -0.0211
 4979TIP3    H136496   1.319   1.454   8.017 -0.6780 -0.0686 -0.5208
 4979TIP3    H236497   1.279   1.584   8.084 -0.8661 -1.1835  1.6063
 4980TIP3   OH236498   2.087   6.475   8.031  0.7511 -0.2282 -0.4342
 4980TIP3    H136499   2.051   6.386   8.032 -0.4445  0.2462 -0.1075
 4980TIP3    H236500   2.036   6.522   8.096  2.4891  0.2867  0.6062
 4981TIP3   OH236501   6.286   0.261   8.424 -0.2404 -0.0030 -0.4149
 4981TIP3    H136502   6.358   0.216   8.381  0.1388  0.8151 -0.6415
 4981TIP3    H236503   6.207   0.223   8.385 -0.0120 -2.0413  0.9536
 4982TIP3   OH236504   0.452   6.268   1.101  0.6382  0.1622  0.0451
 4982TIP3    H136505   0.488   6.336   1.044  1.4248 -0.8869 -0.7531
 4982TIP3    H236506   0.481   6.186   1.061 -0.7689 -0.6631  0.6571
 4983TIP3   OH236507   0.790   6.875   8.216  0.4739  0.7178 -0.5696
 4983TIP3    H136508   0.702   6.894   8.250  0.7955  2.6834 -0.7187
 4983TIP3    H236509   0.776   6.809   8.149 -0.5433 -1.0319  1.2684
 4984TIP3   OH236510   6.862   1.565   7.472 -0.5108 -0.0104 -0.2979
 4984TIP3    H136511   6.856   1.480   7.428 -1.4564 -0.2119  0.1974
 4984TIP3    H236512   6.952   1.593   7.457 -1.3023  0.9536 -4.2367
 4985TIP3   OH236513   4.173   5.371   7.470  0.5658  0.0525  0.2928
 4985TIP3    H136514   4.082   5.371   7.441  0.2141  1.7693  1.2501
 4985TIP3    H236515   4.220   5.325   7.401 -0.7337  0.9508 -1.2767
 4986TIP3   OH236516   3.375   5.260   8.461  0.8504 -0.5826 -0.5924
 4986TIP3    H136517   3.281   5.264   8.480  1.2112  0.2087  1.3072
 4986TIP3    H236518   3.396   5.348   8.429  1.2517 -0.0855  0.9129
 4987TIP3   OH236519   4.398   4.619   7.528 -0.0908 -0.5075  0.4387
 4987TIP3    H136520   4.369   4.551   7.590 -0.8728 -0.9324 -0.3790
 4987TIP3    H236521   4.376   4.701   7.571 -0.6733 -0.7985  0.7100
 4988TIP3   OH236522   0.979   4.510   1.338  0.1161 -0.3446 -0.1911
 4988TIP3    H136523   0.953   4.561   1.415  0.8183 -0.6994  0.2883
 4988TIP3    H236524   1.011   4.576   1.276 -0.6689 -0.0371 -0.2758
 4989TIP3   OH236525   0.312   3.313   1.070  0.0659 -0.4086 -0.0115
 4989TIP3    H136526   0.291   3.406   1.068  0.2125 -0.3454  1.0958
 4989TIP3    H236527   0.375   3.304   1.142 -0.9971 -1.5720  0.8059
 4990TIP3   OH236528   4.666   6.059   7.732 -0.5062 -0.0782 -0.6471
 4990TIP3    H136529   4.675   6.094   7.821 -0.9178  0.7070 -0.9070
 4990TIP3    H236530   4.602   5.988   7.740 -1.4449  0.7630 -0.5142
 4991TIP3   OH236531   6.357   4.646   1.252 -0.1952  1.0047  0.7609
 4991TIP3    H136532   6.279   4.606   1.291  0.4140 -0.1420  0.8458
 4991TIP3    H236533   6.323   4.705   1.185 -1.1200 -0.5398 -0.2049
 4992TIP3   OH236534   4.125   6.581   3.194 -0.7887 -0.0561 -0.5659
 4992TIP3    H136535   4.118   6.546   3.106 -2.3662  0.3856 -0.6508
 4992TIP3    H236536   4.075   6.663   3.192  0.4852  0.8053  0.3383
 4993TIP3   OH236537   0.596   2.698   7.913  0.3102 -0.2224  0.3273
 4993TIP3    H136538   0.666   2.759   7.934 -0.0802  0.3716 -0.0428
 4993TIP3    H236539   0.637   2.631   7.858  0.6333 -0.0006  0.2991
 4994TIP3   OH236540   1.097   5.262   1.059  0.2124 -0.1635 -0.1661
 4994TIP3    H136541   1.054   5.346   1.076  0.3922 -0.0340 -0.3652
 4994TIP3    H236542   1.092   5.216   1.143 -0.5630 -0.2593 -0.2583
 4995TIP3   OH236543   1.386   3.127   1.495 -0.3387  0.2634  0.2063
 4995TIP3    H136544   1.454   3.060   1.495 -0.7881 -0.1984  0.3576
 4995TIP3    H236545   1.317   3.091   1.439  0.8790  2.1268 -2.6786
 4996TIP3   OH236546   1.946   3.271   7.658 -0.8521 -0.0314  0.0604
 4996TIP3    H136547   1.900   3.247   7.577 -1.7123  1.5687  0.0325
 4996TIP3    H236548   2.028   3.310   7.628  0.1255 -1.9393  0.0830
 4997TIP3   OH236549   4.289   6.318   7.449 -0.4383  0.3827 -1.1023
 4997TIP3    H136550   4.244   6.348   7.370  0.4054 -1.7073 -2.4678
 4997TIP3    H236551   4.348   6.250   7.418 -0.4850 -0.9198  1.4333
 4998TIP3   OH236552   5.042   0.334   1.388 -0.0966  0.1680  0.3469
 4998TIP3    H136553   4.961   0.284   1.397 -0.0763  0.0440 -0.1257
 4998TIP3    H236554   5.042   0.394   1.462 -0.0187 -0.6770  1.0452
 4999TIP3   OH236555   4.875   4.664   1.604 -0.1848  0.3486 -0.6585
 4999TIP3    H136556   4.937   4.704   1.666  0.7152  0.8902 -1.8613
 4999TIP3    H236557   4.798   4.720   1.607  0.1556  0.8155 -0.6029
 5000TIP3   OH236558   5.240   0.841   1.002  0.0117  0.3654 -0.7740
 5000TIP3    H136559   5.268   0.778   1.068 -1.8384 -0.8418 -1.0734
 5000TIP3    H236560   5.299   0.827   0.928  1.1194  0.6671  0.0357
 5001TIP3   OH236561   4.504   6.570   1.677  0.2426 -0.3166 -0.0588
 5001TIP3    H136562   4.591   6.568   1.638  0.3498 -0.6170  0.1979
 5001TIP3    H236563   4.476   6.479   1.679  0.9564 -0.5319  2.1805
 5002TIP3   OH236564   2.590   0.077   0.305 -0.4622  0.1087  0.5006
 5002TIP3    H136565   2.507   0.073   0.352 -0.0917  0.3302  1.1928
 5002TIP3    H236566   2.641   0.143   0.353  1.3086 -2.2101  2.0518
 5003TIP3   OH236567   4.891   3.433   8.039  0.6551  0.1174  0.3355
 5003TIP3    H136568   4.904   3.526   8.026 -0.5536  0.2266 -0.3029
 5003TIP3    H236569   4.823   3.409   7.975  2.7660 -1.7387 -1.3720
 5004TIP3   OH236570   3.069   1.877   0.558 -0.6944  0.9805  0.1945
 5004TIP3    H136571   2.989   1.844   0.599 -0.6233 -1.3718 -1.3793
 5004TIP3    H236572   3.075   1.968   0.588 -2.5917  0.4994  2.3330
 5005TIP3   OH236573   0.622   4.635   3.272 -0.3079 -0.0938 -0.2433
 5005TIP3    H136574   0.696   4.628   3.212 -0.8433 -0.5631 -0.8628
 5005TIP3    H236575   0.546   4.605   3.221 -0.8200 -0.2378  0.5754
 5006TIP3   OH236576   0.886   3.526   8.172  0.0021  0.5029 -0.6336
 5006TIP3    H136577   0.960   3.483   8.214 -0.6909 -0.1226 -0.0353
 5006TIP3    H236578   0.810   3.476   8.200 -0.7178  1.5146 -0.7500
 5007TIP3   OH236579   5.839   2.963   1.264  0.0994  0.1871  0.0890
 5007TIP3    H136580   5.899   2.889   1.279 -0.5434 -0.1087  1.2965
 5007TIP3    H236581   5.800   2.980   1.349  0.0119  1.7552 -0.2329
 5008TIP3   OH236582   1.880   6.275   2.070  0.2923  0.6413 -0.1320
 5008TIP3    H136583   1.817   6.332   2.026 -0.7086 -1.2477 -1.2816
 5008TIP3    H236584   1.938   6.335   2.117 -1.7615  2.5013  0.1695
 5009TIP3   OH236585   1.914   6.332   0.740  0.1585 -0.4033 -0.4915
 5009TIP3    H136586   1.946   6.383   0.665  1.5489 -0.6739 -0.1078
 5009TIP3    H236587   1.823   6.361   0.751  0.8053  1.7956 -0.4754
 5010TIP3   OH236588   4.104   4.068   8.384  0.2515 -0.1129  0.1099
 5010TIP3    H136589   4.106   4.133   8.314 -0.2565  0.3743  0.5368
 5010TIP3    H236590   4.110   3.984   8.338  1.3978  0.2322 -0.4109
 5011TIP3   OH236591   4.430   1.084   7.435 -0.3364 -0.1521  0.2287
 5011TIP3    H136592   4.422   1.033   7.355 -1.5207 -0.4942  0.5476
 5011TIP3    H236593   4.348   1.070   7.481 -0.2672  1.2243  0.8176
 5012TIP3   OH236594   0.569   6.883   1.148  0.4539  0.6369  0.7647
 5012TIP3    H136595   0.485   6.905   1.108  0.4353  0.5399  0.7516
 5012TIP3    H236596   0.586   6.954   1.210  0.6746  1.0020  0.2900
 5013TIP3   OH236597   5.916   1.465   7.305  0.3453  0.0181 -0.0789
 5013TIP3    H136598   5.904   1.429   7.392  1.3402  2.3383  1.1150
 5013TIP3    H236599   5.839   1.521   7.292  0.6164  0.3386 -0.3213
 5014TIP3   OH236600   6.845   1.376   8.151  0.4543  0.6504  0.0717
 5014TIP3    H136601   6.816   1.332   8.230 -0.3765 -0.4598 -0.8107
 5014TIP3    H236602   6.919   1.429   8.178  0.4197  0.0028  1.5067
 5015TIP3   OH236603   0.942   3.670   7.803  0.6957  0.3245 -0.1688
 5015TIP3    H136604   0.963   3.601   7.740  0.2904 -0.7540  0.8423
 5015TIP3    H236605   0.847   3.664   7.814  0.6810  0.9430  0.0551
 5016TIP3   OH236606   1.585   5.072   2.080  0.3476  0.0625  0.3257
 5016TIP3    H136607   1.617   5.155   2.114 -0.4307  0.0678  1.0813
 5016TIP3    H236608   1.577   5.015   2.157  0.1532 -0.4696 -0.0776
 5017TIP3   OH236609   2.884   1.261   0.707  0.0669  0.1247 -0.3871
 5017TIP3    H136610   2.957   1.258   0.645  0.2098 -0.3856 -0.1997
 5017TIP3    H236611   2.843   1.174   0.699  0.2964 -0.0714  0.4886
 5018TIP3   OH236612   2.246   1.214   0.270  0.3948 -0.2981 -0.2847
 5018TIP3    H136613   2.221   1.287   0.213 -0.1019 -0.6092 -0.4777
 5018TIP3    H236614   2.285   1.255   0.347  1.4416  0.1105 -1.0166
 5019TIP3   OH236615   6.158   1.176   3.029  0.5075  0.2240  0.1218
 5019TIP3    H136616   6.197   1.187   2.942  1.0817  0.3154  0.3832
 5019TIP3    H236617   6.203   1.241   3.083 -0.8720  1.1735  0.1659
 5020TIP3   OH236618   0.413   3.049   2.541 -0.5471  0.3279  0.0251
 5020TIP3    H136619   0.347   3.034   2.608 -2.7893  0.3775 -2.0723
 5020TIP3    H236620   0.383   3.127   2.494  2.3428  1.9002  0.4856
 5021TIP3   OH236621   2.607   1.019   8.450 -0.5411 -0.5696  0.4442
 5021TIP3    H136622   2.664   0.979   8.384 -0.7596  0.0984 -0.1525
 5021TIP3    H236623   2.524   1.032   8.405 -1.2300 -1.6513  1.3485
 5022TIP3   OH236624   6.268   3.468   8.222 -0.5810 -0.3648  0.2156
 5022TIP3    H136625   6.312   3.549   8.196 -1.8434 -0.4805 -2.6400
 5022TIP3    H236626   6.339   3.403   8.226  0.0540  0.2801 -0.2383
 5023TIP3   OH236627   4.777   3.739   0.641  0.0229 -0.6798 -0.4660
 5023TIP3    H136628   4.849   3.803   0.641 -1.3584  1.0139  1.1315
 5023TIP3    H236629   4.804   3.673   0.705  1.1246 -1.3188 -1.5542
 5024TIP3   OH236630   6.001   1.152   7.446  0.1155  0.4970 -0.0954
 5024TIP3    H136631   6.075   1.213   7.455  0.6365 -0.1889  0.4547
 5024TIP3    H236632   6.018   1.085   7.513 -0.9182  0.2326 -0.0877
 5025TIP3   OH236633   3.157   5.744   8.244 -0.3789  0.6747  0.0317
 5025TIP3    H136634   3.067   5.773   8.260 -0.5278  0.3205 -0.1359
 5025TIP3    H236635   3.197   5.741   8.331 -1.5139 -2.3286  0.5705
 5026TIP3   OH236636   5.642   4.885   8.418 -0.5210  0.4274  0.2404
 5026TIP3    H136637   5.587   4.808   8.404  0.9198 -0.7004  0.5400
 5026TIP3    H236638   5.582   4.951   8.453 -1.4586 -1.1837  1.8373
 5027TIP3   OH236639   1.298   5.335   1.442  0.3160  0.0696 -0.2166
 5027TIP3    H136640   1.345   5.412   1.408  0.2818 -0.1652 -0.8065
 5027TIP3    H236641   1.206   5.356   1.428  0.3455 -1.0056 -2.5104
 5028TIP3   OH236642   2.342   0.248   2.096 -0.4535 -0.4205 -0.0815
 5028TIP3    H136643   2.328   0.326   2.042  1.7477 -0.6993 -1.1337
 5028TIP3    H236644   2.346   0.282   2.185  0.7001  0.7270 -0.5454
 5029TIP3   OH236645   3.590   3.553   0.129  0.2823  0.4013 -0.8391
 5029TIP3    H136646   3.660   3.614   0.105  1.5975 -1.4864 -2.1695
 5029TIP3    H236647   3.610   3.528   0.219  1.8023 -0.6153 -1.4127
 5030TIP3   OH236648   3.818   0.880   0.906 -0.5322 -0.5500  0.0464
 5030TIP3    H136649   3.724   0.862   0.900 -0.0900 -2.8657 -1.0365
 5030TIP3    H236650   3.857   0.823   0.840  1.4949  1.9628 -1.0928
 5031TIP3   OH236651   5.650   6.040   6.916 -0.3376  0.5759  0.4359
 5031TIP3    H136652   5.608   6.125   6.906  0.0964  0.8477  0.9067
 5031TIP3    H236653   5.742   6.059   6.933 -0.1129 -0.0050 -0.0921
 5032TIP3   OH236654   0.188   3.769   2.411 -0.4045  0.2029 -0.5744
 5032TIP3    H136655   0.177   3.689   2.359 -0.3807 -0.1774 -0.0032
 5032TIP3    H236656   0.185   3.840   2.347  3.3255 -0.4000 -1.6255
 5033TIP3   OH236657   5.697   2.489   2.377  0.0014  0.0663  0.4759
 5033TIP3    H136658   5.784   2.506   2.340 -0.3594 -1.2545 -1.1047
 5033TIP3    H236659   5.659   2.576   2.391  0.2214  0.6900 -2.2353
 5034TIP3   OH236660   0.849   0.842   0.769  0.1288  0.4190 -0.2577
 5034TIP3    H136661   0.920   0.830   0.706  1.1344 -0.6680  1.0106
 5034TIP3    H236662   0.883   0.806   0.850 -1.9099 -0.1587  0.3986
 5035TIP3   OH236663   1.002   2.137   2.542 -0.5065 -0.3736  0.0935
 5035TIP3    H136664   1.019   2.047   2.516 -0.7241 -0.5854  0.6589
 5035TIP3    H236665   0.943   2.129   2.617  0.8639  0.1690  1.2855
 5036TIP3   OH236666   4.651   4.711   7.745  1.0622 -0.0057 -0.0131
 5036TIP3    H136667   4.614   4.795   7.771  1.0951 -0.0581  0.2047
 5036TIP3    H236668   4.686   4.674   7.826  0.4705 -0.5239  0.0194
 5037TIP3   OH236669   3.036   5.464   0.259  0.1610 -0.4144 -0.3509
 5037TIP3    H136670   3.008   5.374   0.242 -0.3274 -0.4868  0.7357
 5037TIP3    H236671   3.042   5.470   0.355  1.1607  0.4252 -0.4451
 5038TIP3   OH236672   3.034   3.164   8.371 -0.6565  0.2898 -0.0644
 5038TIP3    H136673   2.988   3.230   8.423  0.7464  2.4951 -1.4553
 5038TIP3    H236674   2.998   3.175   8.282 -1.2351 -1.6904 -0.1364
 5039TIP3   OH236675   1.576   1.722   2.058 -0.4053 -0.5867  0.1848
 5039TIP3    H136676   1.520   1.732   2.135 -0.4778  2.0084 -0.1151
 5039TIP3    H236677   1.659   1.689   2.092 -0.0180  1.6369  1.6464
 5040TIP3   OH236678   5.462   5.778   0.021  0.0600 -0.0162 -0.1190
 5040TIP3    H136679   5.370   5.802   0.033 -0.0917 -0.2520 -0.7521
 5040TIP3    H236680   5.503   5.795   0.106 -0.3987  0.8634 -0.0604
 5041TIP3   OH236681   5.850   3.150   0.842  0.1996 -0.1438  0.1825
 5041TIP3    H136682   5.913   3.094   0.888  0.9449  0.7201  0.2486
 5041TIP3    H236683   5.793   3.089   0.796  3.0142 -1.0229 -2.5044
 5042TIP3   OH236684   0.914   4.853   8.054 -0.1018  0.4000 -0.0552
 5042TIP3    H136685   0.892   4.945   8.060  0.3276  0.5949 -1.2492
 5042TIP3    H236686   0.928   4.837   7.961  1.7890 -0.3869  0.3000
 5043TIP3   OH236687   6.087   3.138   1.977  0.2934  0.0286 -0.3097
 5043TIP3    H136688   6.093   3.091   2.060  2.6396  1.3540  0.3701
 5043TIP3    H236689   6.070   3.229   2.001 -0.6696  0.1743 -1.4097
 5044TIP3   OH236690   1.162   0.626   2.171 -0.4593  0.3452  0.1695
 5044TIP3    H136691   1.132   0.623   2.262  0.9065  0.3103  0.6470
 5044TIP3    H236692   1.164   0.534   2.143 -3.4006  0.4850 -0.8208
 5045TIP3   OH236693   0.295   6.914   0.803 -0.1464  0.1165  0.0999
 5045TIP3    H136694   0.202   6.938   0.806 -0.2156 -0.0145 -0.7935
 5045TIP3    H236695   0.324   6.919   0.894 -0.8763  0.7554  0.3018
 5046TIP3   OH236696   6.723   4.014   8.451  0.1113  0.0736  0.0180
 5046TIP3    H136697   6.812   4.029   8.417  0.4422  0.0024  0.8241
 5046TIP3    H236698   6.737   3.972   8.536 -0.7141 -0.4727 -0.1034
 5047TIP3   OH236699   0.247   0.486   1.189  0.8795 -0.1328  0.1660
 5047TIP3    H136700   0.222   0.579   1.183 -0.7742 -0.5617  0.0633
 5047TIP3    H236701   0.331   0.488   1.236  1.5734  1.4940 -1.0298
 5048TIP3   OH236702   5.068   0.578   8.558  0.3211 -0.2752 -0.0022
 5048TIP3    H136703   5.035   0.509   8.500 -1.1925 -0.2441  0.8053
 5048TIP3    H236704   5.003   0.585   8.627  2.1291 -0.3728  1.7991
 5049TIP3   OH236705   4.728   5.816   2.659 -0.1308  0.5362  0.3523
 5049TIP3    H136706   4.780   5.736   2.656 -1.6387 -0.4445 -1.4203
 5049TIP3    H236707   4.661   5.799   2.725 -1.9758 -0.7443 -1.7224
 5050TIP3   OH236708   4.792   4.394   0.238  0.0362 -0.0458  0.3362
 5050TIP3    H136709   4.708   4.417   0.197 -1.1695  0.0805  2.7181
 5050TIP3    H236710   4.806   4.462   0.304  1.6598 -0.4975  0.4966
 5051TIP3   OH236711   2.251   2.131   1.683  0.8396 -0.2767 -0.4464
 5051TIP3    H136712   2.215   2.219   1.671  1.0410  0.1351  1.6345
 5051TIP3    H236713   2.185   2.073   1.644  0.0645  0.7233 -0.6719
 5052TIP3   OH236714   3.664   3.116   1.003  0.0847 -0.3914 -0.1398
 5052TIP3    H136715   3.653   3.122   1.098 -0.5141 -1.2187 -0.1468
 5052TIP3    H236716   3.588   3.067   0.973 -0.1502  0.5543 -1.1544
 5053TIP3   OH236717   4.138   0.774   0.558 -0.4692  0.0042 -0.2245
 5053TIP3    H136718   4.188   0.696   0.580  0.4784  0.5550 -0.3555
 5053TIP3    H236719   4.203   0.844   0.552 -1.1310  0.5563 -1.3823
 5054TIP3   OH236720   2.411   2.487   7.187  0.4161 -0.0872 -0.4057
 5054TIP3    H136721   2.506   2.479   7.176  0.6267  0.5933  0.7518
 5054TIP3    H236722   2.398   2.573   7.226 -0.3484 -1.3999  2.5604
 5055TIP3   OH236723   2.414   1.614   0.336  0.3216  0.0627  0.0354
 5055TIP3    H136724   2.504   1.580   0.334  0.7774  1.2774 -1.1198
 5055TIP3    H236725   2.378   1.580   0.418  0.8539 -2.8502 -0.8178
 5056TIP3   OH236726   6.375   3.961   1.296  0.8441 -0.6571 -0.0802
 5056TIP3    H136727   6.465   3.940   1.271  0.7708 -0.8733 -0.1583
 5056TIP3    H236728   6.371   4.057   1.292  0.9894 -0.6632 -0.3504
 5057TIP3   OH236729   1.378   0.119   0.284 -0.5979  0.7738  0.1188
 5057TIP3    H136730   1.312   0.180   0.316 -0.7096  0.2061  1.0198
 5057TIP3    H236731   1.390   0.056   0.356 -0.9265 -0.6252 -0.9972
 5058TIP3   OH236732   1.238   6.568   7.130 -0.4203 -0.4458  0.1148
 5058TIP3    H136733   1.276   6.573   7.042 -2.3147  1.6178 -0.6970
 5058TIP3    H236734   1.169   6.635   7.129 -0.3763 -0.2345  3.2469
 5059TIP3   OH236735   6.160   0.382   7.454 -0.4409  0.4265  0.0204
 5059TIP3    H136736   6.207   0.300   7.435 -1.0407  0.2659 -0.8330
 5059TIP3    H236737   6.207   0.420   7.528  0.4359 -0.2155 -0.1886
 5060TIP3   OH236738   2.649   0.767   2.091  0.5519  0.2179  0.2857
 5060TIP3    H136739   2.636   0.678   2.125  1.6384 -0.8998 -1.9950
 5060TIP3    H236740   2.582   0.819   2.135 -1.7714 -2.2343 -0.0560
 5061TIP3   OH236741   0.439   6.847   0.575 -0.1125  0.2717  0.5924
 5061TIP3    H136742   0.370   6.808   0.520  0.4329  1.1753 -0.7845
 5061TIP3    H236743   0.396   6.864   0.658 -1.1319 -0.6203  0.2833
 5062TIP3   OH236744   1.049   6.365   7.800 -0.0904 -0.1238  0.5073
 5062TIP3    H136745   1.097   6.285   7.822  0.7588  0.2100 -0.0745
 5062TIP3    H236746   1.043   6.364   7.704 -0.7295  0.1496  0.5336
 5063TIP3   OH236747   3.053   4.945   1.071 -0.6576 -0.6157 -0.4959
 5063TIP3    H136748   3.107   4.894   1.132  0.0200  0.7687  0.1158
 5063TIP3    H236749   3.021   5.018   1.123 -1.1364 -0.1050 -1.4826
 5064TIP3   OH236750   5.080   0.980   0.713 -0.5994 -0.1561 -0.5760
 5064TIP3    H136751   5.016   0.973   0.643 -0.4826  0.2916 -0.7309
 5064TIP3    H236752   5.028   0.989   0.793 -0.7355 -1.0271 -0.5611
 5065TIP3   OH236753   0.535   2.422   7.292  0.6550 -0.4900  0.1156
 5065TIP3    H136754   0.574   2.499   7.250  1.5887 -0.8756  0.2523
 5065TIP3    H236755   0.508   2.366   7.220 -0.3065  0.0864  0.0101
 5066TIP3   OH236756   0.561   0.753   8.276 -0.7437  0.4291 -0.1088
 5066TIP3    H136757   0.472   0.788   8.278 -0.6056  0.8661 -1.0906
 5066TIP3    H236758   0.618   0.830   8.280 -0.3789  0.1176  1.3783
 5067TIP3   OH236759   2.297   3.741   2.044  0.5457 -0.1228 -0.2566
 5067TIP3    H136760   2.347   3.819   2.069 -1.7702  1.5539 -0.5156
 5067TIP3    H236761   2.259   3.710   2.126 -2.0959  1.7483 -0.6439
 5068TIP3   OH236762   5.186   5.240   7.595 -0.2481  0.2195  0.5020
 5068TIP3    H136763   5.203   5.170   7.532  1.4136  0.4858  0.6185
 5068TIP3    H236764   5.261   5.238   7.654 -0.4757  1.6887  0.8839
 5069TIP3   OH236765   5.177   5.059   7.106  0.0620 -0.3588  0.0869
 5069TIP3    H136766   5.196   5.141   7.059  0.0587 -0.8142 -0.7302
 5069TIP3    H236767   5.156   5.087   7.195  3.3588  0.2957  0.7982
 5070TIP3   OH236768   6.307   1.954   7.516 -0.4480  0.1399 -0.2764
 5070TIP3    H136769   6.225   1.988   7.551 -0.9640 -1.1966 -0.1578
 5070TIP3    H236770   6.285   1.925   7.427 -0.0708 -0.1341 -0.2829
 5071TIP3   OH236771   5.159   2.127   0.492 -0.1505 -0.4692 -0.5469
 5071TIP3    H136772   5.160   2.203   0.550  0.1052 -0.0639 -1.0792
 5071TIP3    H236773   5.250   2.098   0.489 -0.2960 -0.9814 -0.1084
 5072TIP3   OH236774   0.001   2.497   7.530  0.1112 -0.1539 -0.1072
 5072TIP3    H136775   0.029   2.462   7.615  0.9440  1.2941  0.2441
 5072TIP3    H236776  -0.008   2.591   7.545 -3.7084 -0.2892 -0.5666
 5073TIP3   OH236777   0.355   6.206   6.754 -0.6284  0.5033  0.2908
 5073TIP3    H136778   0.421   6.160   6.807 -1.4972 -0.5294  0.5309
 5073TIP3    H236779   0.347   6.292   6.794  1.1262  0.9428 -0.2268
 5074TIP3   OH236780   5.994   2.423   2.035 -0.0823  0.1307  0.6388
 5074TIP3    H136781   5.934   2.363   1.990  1.7595 -0.5811 -1.0748
 5074TIP3    H236782   6.081   2.385   2.018  0.8393  0.6776  3.6439
 5075TIP3   OH236783   5.274   6.088   7.121  0.5973 -0.3044 -0.0541
 5075TIP3    H136784   5.327   6.166   7.138  0.5829 -0.3048 -0.0081
 5075TIP3    H236785   5.314   6.049   7.044 -0.3821  0.6285 -1.0716
 5076TIP3   OH236786   2.250   6.461   1.878  0.6789 -0.2540 -0.4218
 5076TIP3    H136787   2.290   6.375   1.870  0.0631 -0.7982  1.7563
 5076TIP3    H236788   2.306   6.508   1.939 -0.0656  0.1961 -0.0685
 5077TIP3   OH236789   5.278   3.284   0.287 -0.4505  0.4175  0.1390
 5077TIP3    H136790   5.321   3.202   0.313 -1.3831  0.0031  0.4266
 5077TIP3    H236791   5.189   3.275   0.320 -0.2282  2.1093  1.2970
 5078TIP3   OH236792   1.720   6.381   0.011  0.4666  0.0520 -0.1657
 5078TIP3    H136793   1.704   6.294   0.047  3.3164 -1.1190 -1.4718
 5078TIP3    H236794   1.651   6.436   0.050 -1.0753 -2.6172  1.1393
 5079TIP3   OH236795   0.932   0.017   2.157 -0.1689  0.0923  0.4657
 5079TIP3    H136796   0.986   0.020   2.236  0.3158  0.9217  0.1176
 5079TIP3    H236797   0.994   0.029   2.086 -0.3215 -2.6193 -0.1964
 5080TIP3   OH236798   3.923   5.157   1.631 -0.2171  0.5505 -0.4653
 5080TIP3    H136799   3.842   5.189   1.591  0.0789  0.0379 -1.5141
 5080TIP3    H236800   3.911   5.173   1.725 -0.4831  2.7815 -0.8414
 5081TIP3   OH236801   1.146   2.164   7.725 -0.2423 -0.4937  0.0561
 5081TIP3    H136802   1.161   2.085   7.673 -1.0781 -0.3151 -0.4902
 5081TIP3    H236803   1.141   2.234   7.660 -2.0992 -0.3769  0.2742
 5082TIP3   OH236804   2.176   5.446   2.025  0.0036 -0.1649 -0.2252
 5082TIP3    H136805   2.138   5.489   1.948  0.4448  2.4239  0.9067
 5082TIP3    H236806   2.270   5.441   2.006  0.0917  0.3350  0.0737
 5083TIP3   OH236807   3.038   1.016   8.205  0.0779 -0.1059  0.2953
 5083TIP3    H136808   3.056   0.937   8.155 -0.5213  0.2517 -0.5195
 5083TIP3    H236809   3.064   0.995   8.295 -1.4017 -1.7267  0.3961
 5084TIP3   OH236810   3.904   6.910   7.996  0.4311 -0.2685  0.1046
 5084TIP3    H136811   3.905   6.853   7.919 -0.6904  0.6769 -0.6488
 5084TIP3    H236812   3.876   6.853   8.067  0.9349 -1.0352 -0.2964
 5085TIP3   OH236813   4.420   6.337   0.851 -0.5820 -0.4528  0.2194
 5085TIP3    H136814   4.337   6.384   0.857 -0.5307 -0.3949  0.5064
 5085TIP3    H236815   4.417   6.293   0.766  0.3101  1.8627 -1.1006
 5086TIP3   OH236816   3.195   1.889   0.110  0.0733  0.0535 -0.2464
 5086TIP3    H136817   3.221   1.901   0.019  0.2129 -0.3273 -0.2575
 5086TIP3    H236818   3.224   1.801   0.132  0.0089  0.1310  0.1569
 5087TIP3   OH236819   3.430   6.658   0.762 -0.5930  0.6841  0.0698
 5087TIP3    H136820   3.490   6.611   0.704  0.0270  0.5418  0.8078
 5087TIP3    H236821   3.417   6.743   0.720  0.4529  0.8725  0.0996
 5088TIP3   OH236822   1.458   3.284   0.101 -0.4860  0.3020  0.4582
 5088TIP3    H136823   1.429   3.195   0.119  0.9808 -0.6043 -1.3586
 5088TIP3    H236824   1.399   3.339   0.152 -2.3233 -1.6272  0.5359
 5089TIP3   OH236825   0.285   6.117   7.545  0.4324  0.4626 -0.1436
 5089TIP3    H136826   0.271   6.168   7.466  1.7074 -0.1970 -0.8323
 5089TIP3    H236827   0.201   6.120   7.592  0.4469  3.1289 -0.1525
 5090TIP3   OH236828   3.431   2.529   8.145 -0.2139 -0.3553  0.1219
 5090TIP3    H136829   3.374   2.463   8.104  1.5436 -1.7110 -0.2618
 5090TIP3    H236830   3.520   2.498   8.127  0.6545  1.4249  1.1306
 5091TIP3   OH236831   2.825   2.634   1.538 -0.6777 -0.4679 -0.3539
 5091TIP3    H136832   2.914   2.670   1.535 -0.0860 -1.9538 -1.9101
 5091TIP3    H236833   2.770   2.709   1.563  0.9586  0.5221  0.4616
 5092TIP3   OH236834   2.554   2.574   0.227  0.2369  0.0438 -0.0769
 5092TIP3    H136835   2.529   2.649   0.172 -0.9665 -1.3661 -1.5662
 5092TIP3    H236836   2.583   2.508   0.164  1.4247 -0.7032  1.2203
 5093TIP3   OH236837   3.460   2.767   0.367 -0.0489 -0.3070  0.4641
 5093TIP3    H136838   3.536   2.740   0.314  0.5106  0.6200  0.7620
 5093TIP3    H236839   3.431   2.848   0.326  1.7320  1.6384  2.7720
 5094TIP3   OH236840   2.464   4.213   8.500  0.7266  0.0957 -0.1320
 5094TIP3    H136841   2.396   4.152   8.472  0.7287  0.1156 -0.1803
 5094TIP3    H236842   2.417   4.284   8.544  0.4641  1.3975 -2.3532
 5095TIP3   OH236843   6.218   0.057   1.446 -0.2360  0.2046 -0.4883
 5095TIP3    H136844   6.154   0.030   1.512 -1.6923  0.1729 -1.8529
 5095TIP3    H236845   6.299   0.069   1.495 -0.9229 -1.1326  1.0841
 5096TIP3   OH236846   4.677   4.026   2.214  0.3509 -0.2672  0.7139
 5096TIP3    H136847   4.625   3.949   2.192  0.6016 -0.2847  0.1455
 5096TIP3    H236848   4.630   4.099   2.173 -1.4537  0.3382  3.6008
 5097TIP3   OH236849   1.154   2.274   6.815 -0.1106  0.4959 -1.1973
 5097TIP3    H136850   1.152   2.352   6.760 -0.7744 -0.0992 -2.0570
 5097TIP3    H236851   1.073   2.279   6.866 -0.4331  0.1008 -1.6594
 5098TIP3   OH236852   6.273   2.887   7.629  0.4599  0.6536  0.5882
 5098TIP3    H136853   6.342   2.834   7.668  0.2515 -0.9514 -1.0775
 5098TIP3    H236854   6.243   2.836   7.554 -2.3901  1.3886  1.0903
 5099TIP3   OH236855   5.751   4.717   7.805 -0.4951 -0.6553 -0.3147
 5099TIP3    H136856   5.758   4.756   7.718 -1.0105  0.1249 -0.0131
 5099TIP3    H236857   5.786   4.783   7.865 -1.0634 -0.7800  0.1682
 5100TIP3   OH236858   2.317   1.330   8.073  0.5080  0.3690  0.0252
 5100TIP3    H136859   2.320   1.425   8.089  0.6220  0.6157 -1.3607
 5100TIP3    H236860   2.396   1.311   8.023  1.9023 -0.9557  2.5228
 5101TIP3   OH236861   2.002   6.725   0.154  0.2377 -0.0565 -0.1167
 5101TIP3    H136862   2.027   6.647   0.105 -1.1742 -0.3733 -0.3615
 5101TIP3    H236863   1.910   6.711   0.177 -0.0252  1.5016 -0.1069
 5102TIP3   OH236864   4.630   4.304   8.465 -0.5252 -0.9411 -0.0800
 5102TIP3    H136865   4.592   4.238   8.523  0.2042 -0.6916  0.7112
 5102TIP3    H236866   4.565   4.373   8.460 -0.9118 -1.3086 -0.1778
 5103TIP3   OH236867   5.185   1.809   1.719 -0.1986  0.4680 -0.2177
 5103TIP3    H136868   5.184   1.714   1.712 -0.1214  0.5623 -1.9128
 5103TIP3    H236869   5.179   1.840   1.628  0.8798  2.0565  0.2030
 5104TIP3   OH236870   6.768   3.499   0.016  0.0824  0.9419 -0.0288
 5104TIP3    H136871   6.773   3.454  -0.069  0.9568  0.4608  0.2633
 5104TIP3    H236872   6.675   3.500   0.037 -0.0819  0.4635 -0.6808
 5105TIP3   OH236873   1.986   0.835   1.059 -0.0555 -0.0681 -0.3472
 5105TIP3    H136874   2.067   0.881   1.081 -1.1708  0.7015  2.7306
 5105TIP3    H236875   1.917   0.897   1.080 -1.5256 -1.9599  0.7832
 5106TIP3   OH236876   0.221   0.957   7.819  0.1726  0.0009 -0.3277
 5106TIP3    H136877   0.307   0.988   7.847  0.4718 -2.9068  2.4361
 5106TIP3    H236878   0.162   0.984   7.889 -0.8933  0.4198 -1.3462
 5107TIP3   OH236879   1.807   3.319   7.420 -0.0429  0.2046 -0.2312
 5107TIP3    H136880   1.800   3.405   7.464  0.1861  0.4300 -0.6354
 5107TIP3    H236881   1.823   3.340   7.328 -1.3374 -0.2582 -0.5867
 5108TIP3   OH236882   6.422   5.384   0.965  0.2527  0.5317 -0.4881
 5108TIP3    H136883   6.404   5.350   1.052 -0.5702 -2.1263 -1.5912
 5108TIP3    H236884   6.511   5.419   0.971  1.0069 -1.4191  0.9665
 5109TIP3   OH236885   0.736   3.167   1.674  0.2849  0.1006  0.2879
 5109TIP3    H136886   0.764   3.223   1.601  3.0182 -0.2398  0.9498
 5109TIP3    H236887   0.642   3.158   1.662  0.3357  1.6247 -2.0836
 5110TIP3   OH236888   4.424   4.684   7.137 -0.7593 -0.4460  0.1283
 5110TIP3    H136889   4.406   4.594   7.108  1.0323 -0.4005 -1.3213
 5110TIP3    H236890   4.384   4.739   7.070  0.7935 -0.2718 -0.7042
 5111TIP3   OH236891   5.413   4.605   1.641 -0.0304 -0.3883 -0.0222
 5111TIP3    H136892   5.411   4.700   1.649 -1.1770 -0.2914 -1.1294
 5111TIP3    H236893   5.394   4.573   1.730  1.3339  0.3669  0.5820
 5112TIP3   OH236894   6.503   2.776   8.465  0.3629 -0.3765  0.0314
 5112TIP3    H136895   6.592   2.792   8.496 -0.3175  0.6118  1.6133
 5112TIP3    H236896   6.460   2.734   8.540 -0.4117 -1.1533 -0.8374
 5113TIP3   OH236897   4.393   4.236   0.264 -0.3523  0.5298  0.8443
 5113TIP3    H136898   4.431   4.207   0.347  0.2969 -0.2224  0.3052
 5113TIP3    H236899   4.433   4.321   0.248 -1.5252  1.3235  1.9643
 5114TIP3   OH236900   4.895   5.392   8.493 -0.0933 -0.9219  0.1898
 5114TIP3    H136901   4.869   5.310   8.534 -1.5835  0.4853  2.2581
 5114TIP3    H236902   4.925   5.367   8.405  0.1706 -3.7039  0.9909
 5115TIP3   OH236903   4.611   1.833   0.888  0.2891  0.4958  0.0669
 5115TIP3    H136904   4.600   1.741   0.863 -0.8499  0.8893 -0.9366
 5115TIP3    H236905   4.703   1.852   0.869  0.7567 -0.6219  1.0041
 5116TIP3   OH236906   4.872   2.629   1.744  0.1254 -0.1596  0.0541
 5116TIP3    H136907   4.867   2.616   1.649  1.2723 -0.1320 -0.0353
 5116TIP3    H236908   4.785   2.657   1.770 -0.3401 -0.6561 -0.9159
 5117TIP3   OH236909   6.071   1.244   7.830 -0.4192 -0.0275  0.2279
 5117TIP3    H136910   6.084   1.281   7.742  1.0011 -1.4968 -0.2290
 5117TIP3    H236911   6.003   1.177   7.817 -0.6590  0.1803  0.3944
 5118TIP3   OH236912   4.085   4.504   7.416  0.3826 -0.2733 -0.6716
 5118TIP3    H136913   4.063   4.587   7.374 -1.8161 -0.6323 -0.3171
 5118TIP3    H236914   4.177   4.490   7.393  0.0040  0.8206 -3.1401
 5119TIP3   OH236915   6.061   2.381   8.411  0.2135 -0.5116  0.1141
 5119TIP3    H136916   6.117   2.458   8.405  0.3194 -0.6282 -0.5032
 5119TIP3    H236917   6.122   2.308   8.417  0.1123 -0.5459  0.7586
 5120TIP3   OH236918   1.063   3.703   8.402 -0.0691 -0.1612  0.3362
 5120TIP3    H136919   1.126   3.726   8.334 -0.4373  0.7481  0.2947
 5120TIP3    H236920   1.037   3.787   8.440 -0.6034 -0.5922  0.9354
 5121TIP3   OH236921   5.322   2.213   6.998  0.0054  0.3360 -0.2984
 5121TIP3    H136922   5.265   2.262   7.057  2.8148  3.5068  0.0755
 5121TIP3    H236923   5.371   2.153   7.054  0.3371  0.9853  0.1140
 5122TIP3   OH236924   0.066   2.022   2.273 -0.1127 -0.0961 -0.5246
 5122TIP3    H136925   0.002   1.970   2.322  0.6450 -1.9573 -1.4172
 5122TIP3    H236926   0.082   2.098   2.328  0.2975 -1.8232  1.9456
 5123TIP3   OH236927   5.580   6.704   6.923  0.4353  0.1488 -0.0210
 5123TIP3    H136928   5.537   6.729   6.842  1.0174  0.7182 -0.1599
 5123TIP3    H236929   5.518   6.645   6.966 -0.3617  0.7310 -0.3482
 5124TIP3   OH236930   0.897   2.108   8.456 -0.8512  0.0012  1.0817
 5124TIP3    H136931   0.900   2.017   8.426 -3.0285  0.3996 -0.6509
 5124TIP3    H236932   0.988   2.135   8.460 -0.2096 -1.9403  0.5325
 5125TIP3   OH236933   6.254   3.946   8.251 -0.1109 -0.2578 -0.6090
 5125TIP3    H136934   6.195   3.889   8.200 -1.1939 -0.3255  0.6374
 5125TIP3    H236935   6.201   3.971   8.327  1.5626 -0.4949  0.6780
 5126TIP3   OH236936   0.648   5.979   8.453  0.4044  0.1326  0.2393
 5126TIP3    H136937   0.642   5.895   8.407  0.6462 -0.0867  0.5961
 5126TIP3    H236938   0.560   6.016   8.446 -0.2329 -0.9921  1.6287
 5127TIP3   OH236939   3.554   6.820   2.032  0.0265  0.2228 -0.2221
 5127TIP3    H136940   3.585   6.908   2.054  1.4418 -0.0060 -1.1243
 5127TIP3    H236941   3.616   6.790   1.965 -0.1029 -1.6714  0.4640
 5128TIP3   OH236942   0.189   5.868   1.117 -0.6317  0.4042 -0.1284
 5128TIP3    H136943   0.148   5.928   1.055  0.5711  0.9832 -0.4001
 5128TIP3    H236944   0.153   5.891   1.202 -3.0496 -1.0254 -0.6528
 5129TIP3   OH236945   0.794   1.599   1.480  0.3401 -0.3022 -0.0190
 5129TIP3    H136946   0.789   1.550   1.398  1.8262  0.2679 -0.4863
 5129TIP3    H236947   0.709   1.642   1.487 -0.1766 -1.1498 -0.7309
 5130TIP3   OH236948   0.577   0.743   1.580 -0.0136  0.4646  0.3659
 5130TIP3    H136949   0.666   0.725   1.549 -0.4021  2.2051 -2.0192
 5130TIP3    H236950   0.589   0.812   1.645  0.4561 -0.1483  0.9453
 5131TIP3   OH236951   0.063   3.614   0.778 -0.0290 -0.7678  0.2945
 5131TIP3    H136952   0.141   3.561   0.764  0.3832 -0.5159  1.5300
 5131TIP3    H236953  -0.001   3.554   0.817 -0.3349 -0.8806 -0.3622
 5132TIP3   OH236954   6.553   2.386   8.386 -1.1940 -0.1756  0.0971
 5132TIP3    H136955   6.600   2.354   8.463  1.0994 -0.3142 -1.2737
 5132TIP3    H236956   6.609   2.455   8.351 -3.2118  1.3086 -0.3136
 5133TIP3   OH236957   0.034   3.829   1.202  0.4928 -0.3016  0.4921
 5133TIP3    H136958   0.008   3.902   1.258  1.5918  0.4933 -0.0049
 5133TIP3    H236959   0.126   3.813   1.225  0.0675 -2.0836  1.1762
 5134TIP3   OH236960   1.525   3.870   2.117 -0.7090  0.0291  0.3306
 5134TIP3    H136961   1.437   3.854   2.152  0.6947 -0.5642  4.0556
 5134TIP3    H236962   1.576   3.898   2.193  2.4900 -0.2669 -1.5336
 5135TIP3   OH236963   2.612   4.441   1.464  0.1977 -0.1230 -0.0678
 5135TIP3    H136964   2.665   4.494   1.404 -0.8723  1.7900  0.5857
 5135TIP3    H236965   2.564   4.505   1.516 -1.4437 -1.7600  0.5348
 5136TIP3   OH236966   6.441   6.768   1.253  0.1685  0.1124  0.1856
 5136TIP3    H136967   6.490   6.728   1.181  0.2116 -0.4738  0.5336
 5136TIP3    H236968   6.410   6.694   1.305 -0.9439  0.4750  0.0707
 5137TIP3   OH236969   5.918   6.869   0.518  0.5228  0.1310 -0.4503
 5137TIP3    H136970   5.910   6.942   0.579 -1.7824  0.0798 -0.6005
 5137TIP3    H236971   6.012   6.859   0.504  0.9294  3.4897 -0.9371
 5138TIP3   OH236972   1.406   6.910   2.277 -0.2334 -0.1820  0.5045
 5138TIP3    H136973   1.419   6.869   2.363  1.9248  0.3937  0.5296
 5138TIP3    H236974   1.409   6.837   2.215  4.0727 -0.2856  0.4987
 5139TIP3   OH236975   2.954   3.696   0.422  0.0829  0.0282  0.1388
 5139TIP3    H136976   2.930   3.605   0.406 -0.5934  0.4371 -1.3198
 5139TIP3    H236977   3.008   3.720   0.346 -0.0495  0.9425  0.3205
 5140TIP3   OH236978   3.628   6.491   2.011  0.0353 -0.2710  0.3045
 5140TIP3    H136979   3.590   6.534   1.935  0.1899 -0.7434 -0.0424
 5140TIP3    H236980   3.718   6.471   1.986 -0.5160 -2.3606 -0.2087
 5141TIP3   OH236981   0.077   2.964   0.119  0.6939 -0.3730  0.0327
 5141TIP3    H136982   0.093   2.942   0.210  0.8442  1.5537  0.5156
 5141TIP3    H236983   0.080   2.880   0.073  2.6567 -1.1773  1.4930
 5142TIP3   OH236984   3.265   4.949   1.817 -0.1607  0.3816  0.3582
 5142TIP3    H136985   3.183   4.903   1.834  0.0666 -0.2165 -0.1309
 5142TIP3    H236986   3.271   4.952   1.722  0.3365  0.5151  0.3936
 5143TIP3   OH236987   0.590   0.279   0.681 -0.1310 -0.1611  0.0963
 5143TIP3    H136988   0.498   0.251   0.676  0.3586 -2.3780  1.9200
 5143TIP3    H236989   0.632   0.232   0.609 -0.0949 -0.8041  0.5216
 5144TIP3   OH236990   0.130   5.993   1.882  0.1386  0.0576  0.4008
 5144TIP3    H136991   0.206   6.019   1.830 -0.6189  0.5501 -0.4946
 5144TIP3    H236992   0.126   6.059   1.951 -0.0133  0.5931 -0.1039
 5145TIP3   OH236993   4.197   6.459   1.445 -0.3185 -0.0887 -0.0556
 5145TIP3    H136994   4.253   6.381   1.445 -1.4759 -0.9637 -1.0112
 5145TIP3    H236995   4.112   6.427   1.473 -0.5155  1.1074  0.7931
 5146TIP3   OH236996   1.789   5.245   7.849 -0.1008  0.1382 -0.3751
 5146TIP3    H136997   1.780   5.340   7.861 -1.3450  0.0497 -0.4382
 5146TIP3    H236998   1.833   5.236   7.765  0.6305  0.6636 -0.0577
 5147TIP3   OH236999   3.580   0.857   1.005  0.1157 -0.1304 -0.3406
 5147TIP3    H137000   3.570   0.847   1.099  1.8297  0.1101 -0.1002
 5147TIP3    H237001   3.543   0.943   0.985  0.8943  0.3677  0.3227
 5148TIP3   OH237002   0.593   1.170   1.892 -0.0692 -0.2661 -0.2000
 5148TIP3    H137003   0.504   1.195   1.918 -0.9402 -1.4981 -1.7579
 5148TIP3    H237004   0.627   1.247   1.847 -0.2288  0.3102  0.6496
 5149TIP3   OH237005   0.244   2.962   2.722  0.2547  0.1520 -0.1853
 5149TIP3    H137006   0.167   2.915   2.754  0.2004  0.0120 -0.5180
 5149TIP3    H237007   0.315   2.933   2.780 -0.3493  2.0327  1.6308
 5150TIP3   OH237008   3.076   5.086   1.359 -0.3322 -0.2314  0.3235
 5150TIP3    H137009   3.065   5.093   1.454  0.3955  1.6598  0.3158
 5150TIP3    H237010   3.165   5.054   1.348 -0.4979 -0.6774  0.2783
 5151TIP3   OH237011   3.432   4.812   2.235 -0.0091  0.4292  0.6454
 5151TIP3    H137012   3.468   4.845   2.153  1.3286  0.2265  1.1298
 5151TIP3    H237013   3.352   4.863   2.248 -0.0073  0.7598 -0.5617
 5152TIP3   OH237014   1.655   2.755   0.378 -0.4631  0.3571  0.1229
 5152TIP3    H137015   1.726   2.692   0.378  0.0747  0.9566 -0.0904
 5152TIP3    H237016   1.607   2.738   0.460  0.6988  0.8162  0.9178
 5153TIP3   OH237017   1.816   1.146   7.296 -0.4457 -0.1841  0.1267
 5153TIP3    H137018   1.880   1.095   7.246 -0.9987 -0.6650 -0.1033
 5153TIP3    H237019   1.823   1.112   7.385 -1.3422 -1.2142 -0.1740
 5154TIP3   OH237020   3.303   2.696   1.671  0.3338 -0.0453 -0.1254
 5154TIP3    H137021   3.359   2.769   1.647 -1.6438  1.8032  0.5803
 5154TIP3    H237022   3.307   2.692   1.767  0.8314 -1.2441 -0.1726
 5155TIP3   OH237023   1.622   0.404   1.117  0.6520  0.2908 -0.2469
 5155TIP3    H137024   1.542   0.357   1.143 -0.0853  2.2293  1.2404
 5155TIP3    H237025   1.670   0.418   1.199  1.9635  0.1605 -0.9678
 5156TIP3   OH237026   2.936   2.375   2.857 -0.0042  0.1119  0.0006
 5156TIP3    H137027   2.982   2.346   2.935  1.0537 -1.3972 -1.1236
 5156TIP3    H237028   2.864   2.312   2.847 -0.1371  0.2993 -0.2498
 5157TIP3   OH237029   0.149   2.883   1.591 -0.4776  0.5332  0.0463
 5157TIP3    H137030   0.221   2.871   1.653 -0.2886 -0.8849 -0.4065
 5157TIP3    H237031   0.074   2.909   1.646  0.3275  1.9749  0.5289
 5158TIP3   OH237032   0.202   4.116   1.795  0.2798 -0.5942  0.0230
 5158TIP3    H137033   0.215   4.048   1.729 -0.0661 -0.4405 -0.2095
 5158TIP3    H237034   0.167   4.190   1.746  1.9306  0.2363  0.0480
 5159TIP3   OH237035   2.651   1.164   7.386  0.2904  0.4731  0.2651
 5159TIP3    H137036   2.665   1.236   7.325  1.6467  0.9690  1.0942
 5159TIP3    H237037   2.596   1.102   7.339 -0.9833  2.0741 -0.4483
 5160TIP3   OH237038   1.467   3.561   7.839  0.4587 -0.3166  0.4608
 5160TIP3    H137039   1.482   3.655   7.828  3.6152 -0.8737 -1.3580
 5160TIP3    H237040   1.387   3.543   7.789  1.3909  1.0243 -1.6531
 5161TIP3   OH237041   3.134   5.985   0.293  0.2570 -0.5978 -0.3089
 5161TIP3    H137042   3.175   5.902   0.316  0.0285 -0.5087  0.4388
 5161TIP3    H237043   3.041   5.971   0.309  0.4006  0.3861  1.7088
 5162TIP3   OH237044   2.396   3.990   7.281  0.6933  0.6079  0.6419
 5162TIP3    H137045   2.332   3.988   7.210 -1.6241  3.1537  2.4282
 5162TIP3    H237046   2.465   3.930   7.254 -0.0436  1.4281 -3.7200
 5163TIP3   OH237047   1.552   4.892   1.269  0.3222 -0.0635  0.5974
 5163TIP3    H137048   1.504   4.962   1.225 -1.7830 -1.3090  0.8007
 5163TIP3    H237049   1.612   4.937   1.328  0.0251  1.5724 -0.3064
 5164TIP3   OH237050   0.715   0.979   1.042 -0.1188 -0.2632  0.7197
 5164TIP3    H137051   0.753   0.893   1.025  1.6514  0.5988  0.0313
 5164TIP3    H237052   0.700   0.981   1.136 -1.1823 -1.7002  0.5949
 5165TIP3   OH237053   1.419   5.443   1.217  0.6221  0.4186  0.1696
 5165TIP3    H137054   1.367   5.511   1.175 -0.6546 -0.3661  0.4188
 5165TIP3    H237055   1.433   5.378   1.148  0.6550  0.2978  0.2893
 5166TIP3   OH237056   4.693   0.496   8.511 -0.1386  0.2501 -0.2168
 5166TIP3    H137057   4.612   0.445   8.506  0.4247 -0.7601  0.6340
 5166TIP3    H237058   4.758   0.434   8.544  1.0470  0.9806 -1.1162
 5167TIP3   OH237059   4.976   0.701   7.522 -0.1155 -0.0605  0.9143
 5167TIP3    H137060   5.028   0.779   7.541 -0.7813  0.5087  0.4649
 5167TIP3    H237061   5.020   0.630   7.570  1.9184  0.0878 -0.5861
 5168TIP3   OH237062   2.621   0.062   2.747  0.2097  0.3242 -0.3601
 5168TIP3    H137063   2.713   0.070   2.770  0.3876 -1.1060 -0.4318
 5168TIP3    H237064   2.608  -0.033   2.735 -1.0227  0.5865 -1.3307
 5169TIP3   OH237065   1.761   4.342   0.402 -0.3117  0.2116 -0.3799
 5169TIP3    H137066   1.837   4.294   0.369  1.0756  0.6398  1.9257
 5169TIP3    H237067   1.748   4.414   0.340  0.6732 -0.3224 -1.2274
 5170TIP3   OH237068   1.591   4.760   1.968 -0.1842  0.1485 -0.3096
 5170TIP3    H137069   1.600   4.792   2.058 -0.9361  1.9014 -0.8061
 5170TIP3    H237070   1.505   4.719   1.966 -1.2489  2.2948 -0.7927
 5171TIP3   OH237071   2.331   1.097   2.398 -0.2789  0.5910  0.1269
 5171TIP3    H137072   2.289   1.155   2.335 -0.1569 -1.4960 -2.0037
 5171TIP3    H237073   2.424   1.118   2.391 -0.2610  0.3437 -0.4448
 5172TIP3   OH237074   2.001   4.559   0.725 -0.4663 -0.4059 -0.8065
 5172TIP3    H137075   1.915   4.530   0.755  0.3328 -1.8429  0.2045
 5172TIP3    H237076   2.029   4.625   0.789 -0.3998 -0.6511 -0.5838
 5173TIP3   OH237077   4.350   4.973   8.053 -0.3064  0.3585 -0.1600
 5173TIP3    H137078   4.363   5.028   8.130 -0.3070  2.0986 -1.3602
 5173TIP3    H237079   4.340   5.034   7.980 -0.3285 -1.2312 -1.5637
 5174TIP3   OH237080   1.556   5.784   6.780 -0.0982  0.3496  0.0396
 5174TIP3    H137081   1.481   5.757   6.727 -0.7029  0.4536  0.8205
 5174TIP3    H237082   1.559   5.879   6.770 -0.6133  0.4472  0.6745
 5175TIP3   OH237083   1.699   0.438   8.339  0.1112 -0.6004  0.4349
 5175TIP3    H137084   1.654   0.392   8.268  1.6913 -0.5424 -0.6486
 5175TIP3    H237085   1.702   0.375   8.411 -3.0505 -0.0810  1.1562
 5176TIP3   OH237086   3.754   0.450   1.420  0.3914 -0.0632  0.3178
 5176TIP3    H137087   3.791   0.524   1.468 -1.8622  0.8758  0.6982
 5176TIP3    H237088   3.830   0.410   1.377  1.7944  1.9400  0.7692
 5177TIP3   OH237089   4.199   1.298   0.722 -0.5063 -0.1530  0.5918
 5177TIP3    H137090   4.169   1.236   0.657 -0.9984  0.9153 -0.2359
 5177TIP3    H237091   4.251   1.246   0.783 -1.2868 -1.4398  0.1950
 5178TIP3   OH237092   6.588   3.229   1.035 -0.5107 -0.0466  0.3896
 5178TIP3    H137093   6.562   3.313   1.073 -0.1875 -0.1338  0.8215
 5178TIP3    H237094   6.526   3.166   1.071 -1.5231  0.1825 -0.9062
 5179TIP3   OH237095   4.049   6.348   7.870 -0.5538 -0.1080 -0.3629
 5179TIP3    H137096   4.049   6.444   7.865 -0.1247 -0.1151 -0.4892
 5179TIP3    H237097   3.973   6.322   7.817 -2.0046  0.2364  1.4260
 5180TIP3   OH237098   4.426   1.249   1.136 -0.1763 -0.7682 -0.2236
 5180TIP3    H137099   4.443   1.290   1.221 -1.9621  1.7384 -0.9747
 5180TIP3    H237100   4.342   1.205   1.147  0.7107 -2.5029 -0.0649
 5181TIP3   OH237101   1.741   5.668   6.927 -0.0477 -0.3179 -0.5027
 5181TIP3    H137102   1.662   5.667   6.874  0.9814  1.6293 -2.2322
 5181TIP3    H237103   1.804   5.615   6.878  0.4415  0.1679 -0.4154
 5182TIP3   OH237104   3.240   6.351   1.335  0.5897  0.2864  0.5602
 5182TIP3    H137105   3.210   6.264   1.363 -0.3752  0.4402  0.0258
 5182TIP3    H237106   3.314   6.333   1.277  1.0920 -0.1236  1.2988
 5183TIP3   OH237107   4.654   2.783   1.803  0.2330 -0.2120  0.0928
 5183TIP3    H137108   4.588   2.713   1.802  0.7410 -0.7320 -1.6079
 5183TIP3    H237109   4.605   2.863   1.822 -0.3588 -0.9998  2.1102
 5184TIP3   OH237110   0.723   5.501   1.203 -0.0091  0.1633 -0.2442
 5184TIP3    H137111   0.627   5.498   1.210 -0.0579  0.5086 -0.7592
 5184TIP3    H237112   0.741   5.576   1.146  0.6470  1.1400  1.1909
 5185TIP3   OH237113   5.797   5.454   6.546 -0.4573 -0.2319  0.0831
 5185TIP3    H137114   5.815   5.535   6.499 -1.7917 -0.6552 -1.2238
 5185TIP3    H237115   5.837   5.467   6.632  1.5578  0.7878 -0.9510
 5186TIP3   OH237116   1.811   2.699   8.074  0.2175 -0.1702  0.6771
 5186TIP3    H137117   1.807   2.763   8.003 -1.0047 -0.2330  0.6692
 5186TIP3    H237118   1.765   2.739   8.147  2.9043  0.5956  2.0826
 5187TIP3   OH237119   4.604   5.387   0.380 -0.0721 -0.2787  0.2745
 5187TIP3    H137120   4.659   5.324   0.333 -0.2918 -0.2477 -0.0262
 5187TIP3    H237121   4.663   5.428   0.443  1.1107  2.1276 -2.2084
 5188TIP3   OH237122   4.867   1.743   0.481 -0.5964  0.1412 -0.3912
 5188TIP3    H137123   4.821   1.659   0.474  0.8375 -0.9689  2.1954
 5188TIP3    H237124   4.951   1.729   0.437 -0.6513  0.4862 -0.6126
 5189TIP3   OH237125   4.579   6.125   2.834 -0.6089 -0.6328 -0.7984
 5189TIP3    H137126   4.667   6.153   2.861 -1.1165  0.6906 -0.3802
 5189TIP3    H237127   4.573   6.034   2.862  0.1780 -0.3540  0.3787
 5190TIP3   OH237128   5.360   4.301   0.409  0.7262 -0.2808 -0.0134
 5190TIP3    H137129   5.335   4.321   0.319 -1.7072 -0.2917  0.5809
 5190TIP3    H237130   5.362   4.386   0.453  1.7627 -0.2895 -0.0289
 5191TIP3   OH237131   4.273   3.308   1.100 -0.1500 -0.2227  0.4134
 5191TIP3    H137132   4.348   3.247   1.102  0.2386  0.2099 -0.3612
 5191TIP3    H237133   4.260   3.326   1.007 -0.4822  0.6053  0.6130
 5192TIP3   OH237134   2.984   2.386   8.007 -0.0245  0.2168  0.2973
 5192TIP3    H137135   3.006   2.395   8.099 -1.4442 -1.8442  0.9199
 5192TIP3    H237136   2.907   2.328   8.006 -0.2918  0.4909 -2.1484
 5193TIP3   OH237137   3.481   2.203   2.056 -0.0387  0.3798 -0.4410
 5193TIP3    H137138   3.530   2.173   2.132 -1.2781  1.1911  0.7158
 5193TIP3    H237139   3.547   2.208   1.986  0.8151 -1.9621  0.0911
 5194TIP3   OH237140   0.850   3.122   7.968 -0.1066 -0.4512  0.4612
 5194TIP3    H137141   0.816   3.138   7.880  0.7644  0.5571  0.2839
 5194TIP3    H237142   0.844   3.028   7.979 -0.1219 -0.6087 -0.7297
 5195TIP3   OH237143   1.940   4.736   1.632  0.0976  0.0931  0.3628
 5195TIP3    H137144   1.862   4.701   1.675 -0.8886  1.2049 -0.4718
 5195TIP3    H237145   1.939   4.830   1.653  0.9038  0.2188 -0.1129
 5196TIP3   OH237146   1.029   6.359   8.512 -0.2676  0.6896  0.1568
 5196TIP3    H137147   0.940   6.325   8.514  0.3663 -1.0462  0.4927
 5196TIP3    H237148   1.046   6.386   8.603  0.0380 -0.3973  0.4416
 5197TIP3   OH237149   1.374   3.742   6.980  0.3324  0.2978 -0.3555
 5197TIP3    H137150   1.448   3.691   6.948 -0.3682 -0.2573 -1.1363
 5197TIP3    H237151   1.413   3.822   7.013  1.4011 -0.4723  0.3318
 5198TIP3   OH237152   0.394   4.879   8.465 -0.2934  0.2327  0.5594
 5198TIP3    H137153   0.307   4.909   8.442 -0.0508  0.0187 -0.7233
 5198TIP3    H237154   0.452   4.953   8.445  0.0480 -0.3194 -0.6067
 5199TIP3   OH237155   6.448   2.949   0.804 -0.6275 -0.3433  0.1878
 5199TIP3    H137156   6.440   2.907   0.889 -0.0331  1.4328  1.1723
 5199TIP3    H237157   6.518   2.900   0.760  0.6769  0.1254  1.6457
 5200TIP3   OH237158   1.249   2.573   1.609  0.4399  0.6052 -0.0348
 5200TIP3    H137159   1.344   2.580   1.606  0.3423  2.7428  0.5675
 5200TIP3    H237160   1.230   2.549   1.700  0.3354  1.7847  0.2581
 5201TIP3   OH237161   2.004   6.450   0.501 -0.1830  0.4127 -0.4444
 5201TIP3    H137162   2.026   6.541   0.483 -0.2988  0.5195 -0.0456
 5201TIP3    H237163   2.065   6.400   0.448  0.6577  0.7130  0.2286
 5202TIP3   OH237164   3.357   0.140   2.200  0.2357 -0.2835  0.5077
 5202TIP3    H137165   3.338   0.234   2.191 -0.8443 -0.4737  0.6444
 5202TIP3    H237166   3.412   0.135   2.279  2.7502  0.5046 -1.0697
 5203TIP3   OH237167   3.023   6.644   0.020  0.0140  0.3026 -0.4339
 5203TIP3    H137168   3.019   6.596  -0.063 -0.2175 -1.5887  0.6111
 5203TIP3    H237169   2.932   6.656   0.046  0.0796  1.0450 -0.5268
 5204TIP3   OH237170   6.639   0.605   1.699  0.2153  0.4894  0.4980
 5204TIP3    H137171   6.708   0.652   1.745 -0.4220  3.2961 -1.1526
 5204TIP3    H237172   6.567   0.600   1.762  0.5852  1.0378  0.9767
 5205TIP3   OH237173   1.059   0.354   2.120 -0.0576  0.0259 -0.2710
 5205TIP3    H137174   1.079   0.386   2.032  1.7362  0.4956  0.2754
 5205TIP3    H237175   1.049   0.259   2.109  3.4709 -0.4462 -0.5186
 5206TIP3   OH237176   5.871   1.938   0.842  0.5048 -0.1901 -0.0883
 5206TIP3    H137177   5.863   1.970   0.932 -1.3331 -1.3784  0.2241
 5206TIP3    H237178   5.941   1.873   0.846  0.6686  0.0121  0.4030
 5207TIP3   OH237179   1.751   0.678   0.702  0.2895  0.1161 -0.6700
 5207TIP3    H137180   1.830   0.731   0.713  0.8852 -0.5328 -1.6409
 5207TIP3    H237181   1.772   0.595   0.744 -0.5241  0.5076  0.5634
 5208TIP3   OH237182   6.800   2.431   1.432  0.3910 -0.1369 -0.3028
 5208TIP3    H137183   6.774   2.341   1.413  0.5842 -0.3766  0.5289
 5208TIP3    H237184   6.829   2.429   1.523 -1.0859  1.0799  0.2498
 5209TIP3   OH237185   4.551   3.926   7.435  0.2935 -0.1593 -0.0811
 5209TIP3    H137186   4.524   3.848   7.387  0.2173 -0.8404  1.0485
 5209TIP3    H237187   4.472   3.955   7.481  0.1800  0.9070 -0.8906
 5210TIP3   OH237188   5.627   4.363   0.196  0.1922  0.1444 -0.7213
 5210TIP3    H137189   5.587   4.280   0.224 -0.8425  1.0384  0.6039
 5210TIP3    H237190   5.560   4.403   0.141  0.4875  0.3141 -0.9509
 5211TIP3   OH237191   2.064   1.309   7.724 -0.2778  0.2163 -0.5477
 5211TIP3    H137192   2.028   1.221   7.727 -1.8435  0.8555  1.1511
 5211TIP3    H237193   2.078   1.332   7.816 -0.1262  1.8364 -0.9550
 5212TIP3   OH237194   3.690   5.015   8.250 -0.3238  0.0957 -0.4401
 5212TIP3    H137195   3.731   5.099   8.230  0.1117  0.2026  0.7818
 5212TIP3    H237196   3.753   4.949   8.221 -0.6417  0.1866 -1.3504
 5213TIP3   OH237197   3.388   3.831   2.014 -0.0155 -0.3353  0.3490
 5213TIP3    H137198   3.402   3.797   2.102 -2.6116  0.1871  1.0564
 5213TIP3    H237199   3.294   3.851   2.011  0.2043  0.6741 -2.1842
 5214TIP3   OH237200   4.459   4.522   8.342  0.2925 -0.8279 -0.0473
 5214TIP3    H137201   4.369   4.493   8.358  0.1959 -2.2957 -2.7280
 5214TIP3    H237202   4.450   4.596   8.282  0.8581 -0.5777  0.1718
 5215TIP3   OH237203   0.451   3.128   1.607 -0.0697 -0.0913  0.3705
 5215TIP3    H137204   0.402   3.095   1.683 -1.5780  0.9624 -0.1014
 5215TIP3    H237205   0.406   3.209   1.583  0.7711 -0.0814 -1.2757
 5216TIP3   OH237206   5.973   5.294   2.527 -0.5892 -0.0044  0.2301
 5216TIP3    H137207   6.026   5.359   2.574 -2.8050  0.5902  2.0882
 5216TIP3    H237208   6.017   5.211   2.544 -0.7089  0.3401  2.5395
 5217TIP3   OH237209   6.095   1.643   0.523  0.0134 -0.1261 -0.4032
 5217TIP3    H137210   6.094   1.638   0.427  0.3032 -0.4064 -0.3914
 5217TIP3    H237211   6.187   1.648   0.546 -0.0137 -0.9293 -0.0973
 5218TIP3   OH237212   1.266   3.692   8.156 -0.2144  0.0253 -0.1632
 5218TIP3    H137213   1.248   3.703   8.063 -0.4399  2.7676  0.1256
 5218TIP3    H237214   1.240   3.775   8.196  0.2285 -0.9283  2.3102
 5219TIP3   OH237215   4.060   4.306   0.522  0.7825 -0.2985 -1.0107
 5219TIP3    H137216   4.001   4.311   0.597 -1.4170 -0.8186 -2.6189
 5219TIP3    H237217   4.082   4.397   0.502  0.3053 -0.0800 -0.5558
 5220TIP3   OH237218   2.921   3.390   2.426 -0.4948 -0.0480 -0.3954
 5220TIP3    H137219   2.990   3.371   2.362 -1.0830 -0.3233 -0.9621
 5220TIP3    H237220   2.966   3.439   2.495  0.6035 -1.5424  0.0178
 5221TIP3   OH237221   2.679   1.778   2.117  0.4279  0.0837 -0.4682
 5221TIP3    H137222   2.642   1.734   2.193  0.3758  1.2408  0.1990
 5221TIP3    H237223   2.715   1.860   2.151  2.4312 -0.3705 -1.3120
 5222TIP3   OH237224   4.789   4.014   0.940 -0.1032  0.9613 -0.1838
 5222TIP3    H137225   4.750   3.935   0.977  0.0845 -0.2340 -2.3767
 5222TIP3    H237226   4.728   4.084   0.966 -1.0200 -0.0958  0.6424
 5223TIP3   OH237227   5.010   5.698   8.211 -0.4690 -0.4394  0.1277
 5223TIP3    H137228   4.999   5.604   8.228  3.1043 -0.5523  2.8791
 5223TIP3    H237229   5.039   5.735   8.294  2.1607  2.3277 -1.7948
 5224TIP3   OH237230   5.977   0.252   8.130 -0.3190  0.1439  0.1535
 5224TIP3    H137231   5.919   0.306   8.077  0.2799  0.6558  0.0051
 5224TIP3    H237232   6.004   0.181   8.072 -0.1788  0.3432 -0.0277
 5225TIP3   OH237233   2.553   3.335   0.019  0.1206  0.2440  0.4371
 5225TIP3    H137234   2.467   3.315   0.057 -0.1022  0.3310 -0.0185
 5225TIP3    H237235   2.611   3.267   0.054  0.5258  1.7911  3.0501
 5226TIP3   OH237236   4.027   5.036   2.059 -0.0851 -0.4757 -0.0616
 5226TIP3    H137237   4.104   5.030   2.115  0.8964 -0.1890 -1.3350
 5226TIP3    H237238   4.052   4.992   1.978 -0.7821  0.7690 -0.9977
 5227TIP3   OH237239   5.110   1.130   7.827 -0.1589 -0.5738 -0.3435
 5227TIP3    H137240   5.097   1.194   7.896 -1.3944 -0.8533 -0.2959
 5227TIP3    H237241   5.047   1.154   7.759  1.2478 -0.1017 -1.5472
 5228TIP3   OH237242   0.591   6.255   0.797 -0.0631  0.3480 -0.1650
 5228TIP3    H137243   0.659   6.203   0.841  0.1492 -0.0583 -0.9419
 5228TIP3    H237244   0.637   6.333   0.767 -0.4763  1.2323  1.3827
 5229TIP3   OH237245   1.781   6.678   2.114 -0.4558 -0.3647 -0.1728
 5229TIP3    H137246   1.747   6.767   2.112 -2.0063 -0.9307 -0.6322
 5229TIP3    H237247   1.704   6.623   2.098  0.6070 -1.7500 -0.6739
 5230TIP3   OH237248   3.035   2.102   6.769  0.8441  0.1142 -0.0026
 5230TIP3    H137249   3.097   2.114   6.698  0.5116  0.0001 -0.3122
 5230TIP3    H237250   2.996   2.016   6.753 -1.4299  1.3229 -1.3999
 5231TIP3   OH237251   0.428   4.501   1.952  0.1679 -0.5493 -0.0682
 5231TIP3    H137252   0.456   4.548   1.874 -1.9679  2.5856  0.8270
 5231TIP3    H237253   0.495   4.519   2.017 -0.0588  0.3540 -0.0712
 5232TIP3   OH237254   1.166   2.250   7.295 -0.3392 -0.0050  0.1514
 5232TIP3    H137255   1.228   2.194   7.249  2.6709  1.0264  2.5918
 5232TIP3    H237256   1.146   2.320   7.232 -0.0068 -1.0034 -1.1025
 5233TIP3   OH237257   5.947   3.151   7.515 -0.3395  0.1623  0.3064
 5233TIP3    H137258   5.910   3.095   7.583 -0.3236 -0.3914 -0.1339
 5233TIP3    H237259   5.947   3.097   7.436  2.6576 -0.3998  0.5527
 5234TIP3   OH237260   6.575   2.373   6.756  0.2350  0.4031  0.0925
 5234TIP3    H137261   6.484   2.402   6.765 -0.1768  0.8148 -3.8013
 5234TIP3    H237262   6.581   2.338   6.667  3.5981 -0.9298  0.6773
 5235TIP3   OH237263   5.469   3.013   1.141  0.2185  0.4798 -0.0105
 5235TIP3    H137264   5.465   3.100   1.181 -2.5775 -0.8488  2.9483
 5235TIP3    H237265   5.403   3.015   1.072  0.4175  0.7757 -0.1962
 5236TIP3   OH237266   5.555   4.146   1.936  0.2272 -0.4750 -0.3811
 5236TIP3    H137267   5.525   4.055   1.941  0.6718 -0.6955 -1.4230
 5236TIP3    H237268   5.502   4.192   2.000 -1.0757 -1.1876 -0.8950
 5237TIP3   OH237269   3.388   2.128   0.568 -0.4846  0.3055  0.4030
 5237TIP3    H137270   3.365   2.037   0.553  1.4140 -0.2302  0.5246
 5237TIP3    H237271   3.317   2.178   0.527 -0.1864 -1.1966 -2.1376
 5238TIP3   OH237272   6.096   3.728   7.824 -0.2911  0.9178 -0.2931
 5238TIP3    H137273   6.080   3.751   7.915 -0.3098 -2.3834  0.6620
 5238TIP3    H237274   6.008   3.719   7.786 -0.3224  0.6686 -0.1635
 5239TIP3   OH237275   0.742   4.246   0.424  0.3527  0.4353 -0.0166
 5239TIP3    H137276   0.756   4.324   0.479 -1.0498  1.5094 -1.0817
 5239TIP3    H237277   0.766   4.274   0.336 -1.5031  0.1478 -0.6569
 5240TIP3   OH237278   2.640   3.262   1.871 -0.4413 -0.7173 -0.0912
 5240TIP3    H137279   2.618   3.351   1.900 -0.1748 -0.0142 -1.9328
 5240TIP3    H237280   2.574   3.207   1.912 -2.5550  0.7092 -1.4059
 5241TIP3   OH237281   1.607   1.155   7.888  0.0982  0.0388 -0.4643
 5241TIP3    H137282   1.582   1.247   7.874  0.2054  0.1503  0.0482
 5241TIP3    H237283   1.557   1.128   7.965  0.5586 -0.1329 -0.2194
 5242TIP3   OH237284   3.582   1.273   8.458 -0.2593 -0.7667 -0.5426
 5242TIP3    H137285   3.500   1.317   8.437  0.1822  1.1763  1.4137
 5242TIP3    H237286   3.648   1.342   8.455  0.5412 -1.2605  2.3534
 5243TIP3   OH237287   4.709   6.701   2.517 -0.0582  0.0109  0.1615
 5243TIP3    H137288   4.772   6.752   2.467  0.4671 -0.9143 -0.1623
 5243TIP3    H237289   4.729   6.721   2.608  1.2785 -0.8666  0.1028
 5244TIP3   OH237290   5.683   5.152   7.873 -0.0478 -0.1830  0.0398
 5244TIP3    H137291   5.709   5.124   7.785  0.7013 -0.7571  0.4298
 5244TIP3    H237292   5.758   5.129   7.928 -1.0292 -1.0555  1.0604
 5245TIP3   OH237293   2.849   3.292   3.070  0.2720  0.1071  0.1986
 5245TIP3    H137294   2.849   3.381   3.034 -0.0932  0.0951  0.1649
 5245TIP3    H237295   2.927   3.288   3.124 -0.0982  0.6946  0.7930
 5246TIP3   OH237296   0.910   3.513   1.615 -0.3043 -0.9888 -0.2958
 5246TIP3    H137297   0.851   3.486   1.544 -0.3039 -0.6331 -0.4336
 5246TIP3    H237298   0.859   3.575   1.666 -1.1396 -2.9097  1.3676
 5247TIP3   OH237299   4.275   2.841   7.422 -0.0893 -0.5920 -0.0311
 5247TIP3    H137300   4.365   2.874   7.420 -0.4503  0.5046  0.7044
 5247TIP3    H237301   4.239   2.876   7.503 -1.7440  0.5433 -1.1802
 5248TIP3   OH237302   3.236   5.550   7.625  0.1862 -0.5320 -0.7993
 5248TIP3    H137303   3.295   5.475   7.619  0.9223  0.0966 -1.7141
 5248TIP3    H237304   3.288   5.624   7.592 -0.0496  0.6726  1.3196
 5249TIP3   OH237305   4.666   4.684   1.119 -0.9539 -0.1149 -0.6253
 5249TIP3    H137306   4.596   4.626   1.090 -0.3041 -0.4458 -1.5949
 5249TIP3    H237307   4.690   4.652   1.206 -1.5768 -0.3817 -0.5477
 5250TIP3   OH237308   3.404   4.966   1.044 -0.2541 -0.2458 -0.0479
 5250TIP3    H137309   3.377   4.949   0.954  1.0528 -1.4088 -0.2477
 5250TIP3    H237310   3.494   4.995   1.037 -0.5794  1.0482  0.7978
 5251TIP3   OH237311   0.028   5.562   2.964  0.4379  0.8542 -0.2343
 5251TIP3    H137312   0.081   5.491   2.927 -1.0059 -1.2811  1.5235
 5251TIP3    H237313   0.026   5.544   3.058 -0.4986  2.9020  0.1889
 5252TIP3   OH237314   0.681   4.778   0.496  0.0399 -0.2738  0.1054
 5252TIP3    H137315   0.775   4.792   0.507  0.1046 -0.6757  0.0688
 5252TIP3    H237316   0.671   4.754   0.404 -0.0180 -0.8750  0.2634
 5253TIP3   OH237317   2.683   5.428   1.824 -0.4508 -0.4925  0.1870
 5253TIP3    H137318   2.764   5.468   1.792 -1.8534  2.1037 -0.3492
 5253TIP3    H237319   2.691   5.430   1.919 -0.8214  1.9498  0.2101
 5254TIP3   OH237320   4.095   2.414   0.146  0.1697  0.3949 -0.3608
 5254TIP3    H137321   4.009   2.439   0.181  1.7518  3.2779  1.8258
 5254TIP3    H237322   4.122   2.340   0.201  0.2188  1.2624  0.8203
 5255TIP3   OH237323   6.165   1.164   7.019 -0.0656 -0.4645 -0.1696
 5255TIP3    H137324   6.199   1.119   7.097  2.2809  0.5967 -0.5023
 5255TIP3    H237325   6.103   1.229   7.054  0.4853 -0.4239  0.7678
 5256TIP3   OH237326   4.512   1.512   0.434  0.0920 -0.8301 -0.0766
 5256TIP3    H137327   4.595   1.520   0.480 -0.6938 -0.9165  1.4260
 5256TIP3    H237328   4.446   1.528   0.501 -1.1092 -0.6235 -1.2643
 5257TIP3   OH237329   1.911   2.185   0.162 -0.6823 -0.1872 -0.8234
 5257TIP3    H137330   1.901   2.202   0.256  1.5240  1.3741 -0.8102
 5257TIP3    H237331   1.934   2.092   0.157  0.4408  0.0133  0.3023
 5258TIP3   OH237332   1.853   4.117   0.619  0.2335  0.7339 -0.4741
 5258TIP3    H137333   1.760   4.138   0.626  0.0895  0.8329 -2.2412
 5258TIP3    H237334   1.896   4.202   0.608  0.4680  0.6515 -0.1941
 5259TIP3   OH237335   2.461   3.794   1.313 -0.4656 -0.3806  0.0723
 5259TIP3    H137336   2.501   3.776   1.228  1.3847  0.4030  0.7304
 5259TIP3    H237337   2.374   3.755   1.307  0.3781 -2.2121 -1.4264
 5260TIP3   OH237338   3.259   0.547   1.576  0.4030 -0.7058 -0.1761
 5260TIP3    H137339   3.321   0.616   1.554 -0.3655  0.6970  1.8304
 5260TIP3    H237340   3.314   0.474   1.606  1.1522 -0.3757 -0.7202
 5261TIP3   OH237341   5.051   2.692   1.483 -0.5319  0.0113  0.2887
 5261TIP3    H137342   5.064   2.781   1.451  0.4269  0.4928  1.9088
 5261TIP3    H237343   4.963   2.669   1.455 -1.1848  1.8441  0.6998
 5262TIP3   OH237344   3.819   2.833   7.236 -0.4193 -0.4040  0.2854
 5262TIP3    H137345   3.733   2.862   7.204  0.7402  1.2909 -1.4952
 5262TIP3    H237346   3.839   2.755   7.185  0.1761  0.6806 -1.2143
 5263TIP3   OH237347   3.705   5.013   1.026  0.4054 -0.0508 -0.0112
 5263TIP3    H137348   3.751   5.094   1.047  0.5369 -0.0416 -0.3230
 5263TIP3    H237349   3.734   4.951   1.092  0.3931  0.1262  0.1598
 5264TIP3   OH237350   0.985   4.952   0.997  0.0328 -0.3697 -0.1164
 5264TIP3    H137351   0.965   5.004   0.919 -1.6318 -0.8111 -0.0207
 5264TIP3    H237352   1.024   5.014   1.058 -2.0032  0.8552  0.0403
 5265TIP3   OH237353   0.728   0.326   7.351  0.2957 -1.0832 -0.5578
 5265TIP3    H137354   0.771   0.374   7.422 -1.0781 -0.4460 -0.1103
 5265TIP3    H237355   0.800   0.296   7.295  1.3057 -0.1087  0.1663
 5266TIP3   OH237356   4.928   3.058   1.157 -0.5032 -0.2775  0.2195
 5266TIP3    H137357   4.887   3.014   1.083  0.4344  1.1713 -1.2280
 5266TIP3    H237358   4.866   3.126   1.182 -0.6906 -0.5813  0.5913
 5267TIP3   OH237359   6.032   1.034   2.253  0.0601 -0.2758  0.0533
 5267TIP3    H137360   6.048   0.961   2.312  2.0774 -1.0632 -1.3486
 5267TIP3    H237361   5.959   1.006   2.198 -1.9620  0.5373  2.1638
 5268TIP3   OH237362   2.076   2.598   7.885  0.0479 -0.3334 -0.3719
 5268TIP3    H137363   1.995   2.560   7.919  0.0058 -1.1543 -1.3357
 5268TIP3    H237364   2.128   2.522   7.857  0.9959  0.2042 -0.0935
 5269TIP3   OH237365   3.105   0.000   2.063 -0.0952 -0.4817  0.0026
 5269TIP3    H137366   3.095   0.094   2.083  0.2531 -0.3352 -0.4855
 5269TIP3    H237367   3.029  -0.021   2.010  0.6195 -0.0867 -1.2114
 5270TIP3   OH237368   6.031   4.643   0.466 -0.5264  0.2193  0.2395
 5270TIP3    H137369   6.013   4.704   0.395 -1.8322  0.9674  1.1727
 5270TIP3    H237370   6.051   4.560   0.422  2.4247  1.5006 -1.1076
 5271TIP3   OH237371   2.960   2.073   2.452 -0.3852  0.5792  0.1532
 5271TIP3    H137372   3.043   2.024   2.449 -1.0958 -0.6769  0.2074
 5271TIP3    H237373   2.902   2.019   2.505 -1.7340  0.6425 -1.1650
 5272TIP3   OH237374   4.369   2.585   0.253  0.7611  1.0375 -0.2537
 5272TIP3    H137375   4.461   2.565   0.235  0.7149  0.3468  0.2620
 5272TIP3    H237376   4.323   2.559   0.173  0.7749 -0.4149  0.1960
 5273TIP3   OH237377   5.269   3.769   1.753  0.0836  0.1031 -0.5232
 5273TIP3    H137378   5.328   3.720   1.695  0.5913 -1.8778  1.5219
 5273TIP3    H237379   5.185   3.724   1.745  0.4870 -1.0421  1.1756
 5274TIP3   OH237380   4.070   3.920   7.878 -0.5752  0.0221 -0.3424
 5274TIP3    H137381   4.013   3.847   7.904 -0.8149  0.0375 -0.8185
 5274TIP3    H237382   4.023   3.963   7.807 -0.6523  0.9364  0.2398
 5275TIP3   OH237383   0.195   0.752   1.246  0.4141 -0.5136  0.3747
 5275TIP3    H137384   0.220   0.768   1.337  0.5944  1.3991  0.0315
 5275TIP3    H237385   0.115   0.802   1.233  0.4156 -0.7252 -0.5309
 5276TIP3   OH237386   3.888   0.951   0.578  0.4753 -0.3719 -0.5841
 5276TIP3    H137387   3.953   0.942   0.508  1.3746 -1.6593  0.3761
 5276TIP3    H237388   3.913   0.886   0.643 -1.7733 -0.8960 -0.1475
 5277TIP3   OH237389   4.213   4.147   1.610  0.2376  0.3012 -0.1716
 5277TIP3    H137390   4.274   4.091   1.562 -0.2744 -0.0712 -0.4027
 5277TIP3    H237391   4.144   4.087   1.639  0.3447  0.5914  0.7022
 5278TIP3   OH237392   4.638   3.472   7.865  0.4546 -0.4953  0.0607
 5278TIP3    H137393   4.568   3.486   7.800  0.5227 -0.6471 -0.0445
 5278TIP3    H237394   4.703   3.539   7.844  1.5953 -2.0332 -1.5518
 5279TIP3   OH237395   5.953   5.863   7.346  0.0393  0.0136  0.1956
 5279TIP3    H137396   5.881   5.920   7.374 -0.0967  0.2045 -0.5126
 5279TIP3    H237397   6.022   5.877   7.411  0.1117  1.1885 -0.1025
 5280TIP3   OH237398   2.278   1.372   1.790  0.6527 -0.2691  0.7457
 5280TIP3    H137399   2.339   1.299   1.799  0.6424 -0.2922  0.6377
 5280TIP3    H237400   2.325   1.447   1.824  1.0378 -0.1365 -0.0484
 5281TIP3   OH237401   5.842   0.623   0.465  0.3235 -0.1449  0.4309
 5281TIP3    H137402   5.852   0.586   0.378  0.5005  0.4362  0.2040
 5281TIP3    H237403   5.787   0.700   0.453  0.4847  0.0330  0.8034
 5282TIP3   OH237404   5.964   6.359   1.501  0.1095 -0.0126 -0.0099
 5282TIP3    H137405   5.965   6.369   1.596  0.8923  1.0554 -0.1144
 5282TIP3    H237406   6.053   6.329   1.480 -0.4713 -1.6465 -0.2911
 5283TIP3   OH237407   1.755   2.129   8.460  0.1253  0.7105 -0.3337
 5283TIP3    H137408   1.793   2.124   8.548  0.1520  0.1846 -0.3729
 5283TIP3    H237409   1.764   2.221   8.436  1.7079  0.5376 -0.4848
 5284TIP3   OH237410   0.859   5.505   1.502  0.0568 -0.4748  0.2412
 5284TIP3    H137411   0.796   5.548   1.446 -0.4498 -3.4932 -1.7596
 5284TIP3    H237412   0.814   5.495   1.586 -0.0561  2.0288  0.5324
 5285TIP3   OH237413   0.109   2.506   1.304 -0.2661  0.5639  0.0373
 5285TIP3    H137414   0.033   2.505   1.362  0.8693  1.1159  1.6202
 5285TIP3    H237415   0.127   2.599   1.290  1.4992  0.5432  1.6838
 5286TIP3   OH237416   5.791   1.865   8.244 -0.2468  0.3028  0.2612
 5286TIP3    H137417   5.809   1.815   8.324 -1.4930 -1.8727 -0.7351
 5286TIP3    H237418   5.698   1.889   8.251  0.6029  3.8766  1.3635
 5287TIP3   OH237419   6.142   5.964   1.407 -0.1318 -0.7906  0.3382
 5287TIP3    H137420   6.198   6.005   1.342 -1.3603  0.4066 -0.0245
 5287TIP3    H237421   6.057   5.955   1.364 -1.0095  0.1411  1.7738
 5288TIP3   OH237422   3.709   5.657   2.762  0.1905 -0.0451  0.0058
 5288TIP3    H137423   3.791   5.646   2.811  0.2749 -0.1305 -0.1537
 5288TIP3    H237424   3.685   5.568   2.736 -0.8958 -0.2617  1.5726
 5289TIP3   OH237425   6.265   0.041   2.025  0.1925 -0.0932  0.3283
 5289TIP3    H137426   6.232  -0.048   2.014 -0.3079  0.2614 -1.4104
 5289TIP3    H237427   6.305   0.042   2.111 -0.8815 -1.6582  0.8832
 5290TIP3   OH237428   4.498   5.857   2.866  0.4828  0.1281  0.4303
 5290TIP3    H137429   4.518   5.815   2.950 -1.2002  1.0825  1.3457
 5290TIP3    H237430   4.421   5.811   2.834  1.2893 -0.4326 -0.7806
 5291TIP3   OH237431   5.826   1.639   0.490 -0.1402 -0.5843  0.0404
 5291TIP3    H137432   5.916   1.644   0.522 -0.4799 -0.2689  0.9867
 5291TIP3    H237433   5.772   1.643   0.569 -0.9639 -2.4388 -0.3790
 5292TIP3   OH237434   6.101   5.666   1.481 -0.2540 -0.1458  0.1820
 5292TIP3    H137435   6.124   5.611   1.407 -1.1041 -0.0318 -0.1795
 5292TIP3    H237436   6.063   5.606   1.545 -0.5839 -0.0824  0.0497
 5293TIP3   OH237437   5.694   6.359   1.434 -0.1531  0.0064  0.3907
 5293TIP3    H137438   5.783   6.336   1.460 -0.1879 -1.0679 -0.3238
 5293TIP3    H237439   5.703   6.442   1.387  0.1681  0.9437  2.0491
 5294TIP3   OH237440   5.561   6.520   7.281  0.0573  0.1453  0.6277
 5294TIP3    H137441   5.541   6.594   7.339  0.1016 -0.3192  1.2383
 5294TIP3    H237442   5.479   6.501   7.237  0.3684  1.4744 -0.6128
 5295TIP3   OH237443   2.333   4.439   0.027 -0.3377 -0.1829  0.4609
 5295TIP3    H137444   2.266   4.454  -0.039 -0.5438  0.1167  0.7325
 5295TIP3    H237445   2.347   4.526   0.067  0.5477 -0.1345  0.0840
 5296TIP3   OH237446   4.035   2.810   2.166 -0.6789  0.3931  0.6439
 5296TIP3    H137447   4.026   2.905   2.157  1.1486  0.5959  0.5580
 5296TIP3    H237448   3.948   2.780   2.194 -1.3927  2.0285  0.2905
 5297TIP3   OH237449   3.773   3.993   1.058  0.7712  0.3942 -0.3462
 5297TIP3    H137450   3.763   3.942   1.138 -0.5521 -0.3617 -0.9483
 5297TIP3    H237451   3.709   4.063   1.066  1.4027  0.9741 -0.2729
 5298TIP3   OH237452   6.060   5.998   2.697  0.9177  0.0454 -1.1061
 5298TIP3    H137453   6.096   6.060   2.761  0.6946 -0.6748 -0.2765
 5298TIP3    H237454   6.128   5.932   2.687  0.4660 -0.4783 -0.7200
 5299TIP3   OH237455   6.880   0.798   2.623  0.0875  0.4750 -0.5136
 5299TIP3    H137456   6.807   0.741   2.646 -0.6896  1.3372 -0.7864
 5299TIP3    H237457   6.883   0.863   2.694 -0.1024  1.0811 -1.0566
 5300TIP3   OH237458   3.191   2.103   8.124 -0.3393  0.0383  0.3898
 5300TIP3    H137459   3.233   2.180   8.162 -0.8976  1.2235 -1.2347
 5300TIP3    H237460   3.262   2.040   8.113  0.3624  0.7429  0.7546
 5301TIP3   OH237461   5.796   1.523   6.699 -0.3247  0.4068 -0.2135
 5301TIP3    H137462   5.710   1.557   6.674  0.0867  0.3432 -1.8304
 5301TIP3    H237463   5.802   1.540   6.793 -1.5889  1.5534 -0.3034
 5302TIP3   OH237464   5.800   5.696   2.612  0.3055 -0.9448 -0.1314
 5302TIP3    H137465   5.832   5.629   2.672 -1.4536 -1.0418  0.7620
 5302TIP3    H237466   5.745   5.649   2.550 -1.0635 -0.3455  0.5905
 5303TIP3   OH237467   2.795   4.578   2.060 -0.3065  0.1206 -0.3898
 5303TIP3    H137468   2.822   4.533   1.980 -2.3327  0.0679 -1.1157
 5303TIP3    H237469   2.774   4.667   2.032 -0.1578  0.3650  0.2610
 5304TIP3   OH237470   4.798   0.270   1.755  0.6230  0.1228  0.6586
 5304TIP3    H137471   4.889   0.283   1.782  1.1672 -1.6010 -0.1880
 5304TIP3    H237472   4.804   0.226   1.671 -1.0233  2.9946 -1.1299
 5305TIP3   OH237473   6.597   5.660   8.274 -0.2254 -0.0241  1.1039
 5305TIP3    H137474   6.614   5.696   8.362 -0.7492 -2.5119  2.3162
 5305TIP3    H237475   6.550   5.730   8.228  2.7229  2.5674  1.6541
 5306TIP3   OH237476   4.093   0.170   7.847 -0.4265 -0.5505  0.0437
 5306TIP3    H137477   4.069   0.080   7.824 -0.5614 -0.2150 -1.2383
 5306TIP3    H237478   4.100   0.170   7.942 -2.0803 -1.5111  0.1951
 5307TIP3   OH237479   2.329   6.670   7.687 -0.4337 -0.2165 -0.0713
 5307TIP3    H137480   2.249   6.696   7.642 -0.4718 -0.1833  0.0145
 5307TIP3    H237481   2.299   6.638   7.772 -0.3485 -0.1271 -0.0075
 5308TIP3   OH237482   5.679   5.317   7.156 -0.2980  0.2203  0.3957
 5308TIP3    H137483   5.642   5.315   7.068  0.8545 -0.3122 -0.0934
 5308TIP3    H237484   5.659   5.405   7.188 -0.5025  0.5086 -0.5019
 5309TIP3   OH237485   3.067   3.766   0.190  0.0261  0.2312 -0.0579
 5309TIP3    H137486   3.009   3.842   0.196  0.2133  0.4870 -1.2077
 5309TIP3    H237487   3.077   3.752   0.096  2.6662  0.8630  0.0474
 5310TIP3   OH237488   1.390   3.294   2.624 -0.2163  0.4313  0.2177
 5310TIP3    H137489   1.379   3.201   2.604 -0.7857  0.6361 -0.4741
 5310TIP3    H237490   1.397   3.336   2.539  0.2443  1.0067  0.5299
 5311TIP3   OH237491   1.123   4.765   0.789 -0.5854  0.6136 -0.3569
 5311TIP3    H137492   1.051   4.752   0.852 -0.6225  0.1180 -0.5005
 5311TIP3    H237493   1.120   4.859   0.770 -0.8312  0.7000  0.0746
 5312TIP3   OH237494   1.850   6.792   8.466 -0.0473 -0.0326 -0.1459
 5312TIP3    H137495   1.942   6.817   8.463 -0.4246  1.3295 -1.8317
 5312TIP3    H237496   1.841   6.745   8.549  1.6692  1.7939  1.1796
 5313TIP3   OH237497   5.097   2.016   1.160  0.0440  0.1860 -0.3164
 5313TIP3    H137498   5.018   2.068   1.148 -0.5893 -0.9539 -1.4331
 5313TIP3    H237499   5.099   1.957   1.084  0.9736 -1.0770  0.6232
 5314TIP3   OH237500   0.979   1.225   7.274 -0.4618  0.3326  0.5715
 5314TIP3    H137501   0.940   1.289   7.215 -1.0917 -0.5898 -0.0356
 5314TIP3    H237502   0.977   1.143   7.226 -0.4604 -0.3281  1.6569
 5315TIP3   OH237503   2.042   1.292   8.006  0.6552 -0.3019  0.7037
 5315TIP3    H137504   2.001   1.245   8.078  1.0760 -0.6624  0.7104
 5315TIP3    H237505   2.135   1.296   8.029  0.6341  0.4950  0.6831
 5316TIP3   OH237506   6.451   4.044   8.456  0.3899 -0.4032  0.7324
 5316TIP3    H137507   6.418   4.003   8.376  1.3484 -1.8348  1.0293
 5316TIP3    H237508   6.546   4.035   8.449  0.5387  0.4880  1.5111
 5317TIP3   OH237509   3.753   0.601   7.053 -0.1015  0.2545 -0.7145
 5317TIP3    H137510   3.674   0.592   7.000 -0.0957  0.3005 -0.7306
 5317TIP3    H237511   3.824   0.608   6.989 -0.2782  2.2754 -0.7365
 5318TIP3   OH237512   4.842   3.560   0.181  0.3006  0.5015 -0.2721
 5318TIP3    H137513   4.776   3.491   0.182  0.0485  0.7415 -0.5075
 5318TIP3    H237514   4.833   3.602   0.095 -0.9872  2.2174  0.6365
 5319TIP3   OH237515   5.523   3.663   1.558 -0.3563  0.3462 -0.0900
 5319TIP3    H137516   5.552   3.735   1.615  0.4663 -0.3764  0.4352
 5319TIP3    H237517   5.514   3.704   1.472 -1.1144  1.3492  0.4415
 5320TIP3   OH237518   3.715   2.011   2.265 -0.1390 -0.0287 -0.2049
 5320TIP3    H137519   3.684   2.054   2.344  2.4516  2.3210 -0.2973
 5320TIP3    H237520   3.766   1.936   2.296 -2.1921 -1.3956  0.0825
 5321TIP3   OH237521   3.468   3.011   1.883 -0.2489 -0.1799 -0.0765
 5321TIP3    H137522   3.547   2.983   1.930 -0.6054  1.4049  1.5848
 5321TIP3    H237523   3.500   3.047   1.801  0.5062 -1.9381 -0.5992
 5322TIP3   OH237524   1.143   4.326   2.370 -0.0428 -0.4163 -0.0415
 5322TIP3    H137525   1.074   4.276   2.413 -0.5824  0.4013  0.0722
 5322TIP3    H237526   1.224   4.285   2.399 -0.4012  0.0027  1.6406
 5323TIP3   OH237527   3.015   6.476   7.533  0.3936  0.1999 -0.5650
 5323TIP3    H137528   3.038   6.386   7.558  0.5252  0.3100 -0.2953
 5323TIP3    H237529   2.962   6.465   7.454 -1.7185 -0.2587  0.8501
 5324TIP3   OH237530   3.845   4.992   0.539  0.1422 -0.3058 -1.0190
 5324TIP3    H137531   3.798   5.075   0.548 -0.1587 -0.5378 -0.3570
 5324TIP3    H237532   3.841   4.953   0.627 -0.5717 -1.4721 -1.5492
 5325TIP3   OH237533   0.680   3.979   0.507 -0.2029 -0.2392  0.0136
 5325TIP3    H137534   0.690   4.064   0.464  0.8985 -0.7671 -0.8570
 5325TIP3    H237535   0.769   3.942   0.506 -0.5687 -1.1733  0.8489
 5326TIP3   OH237536   0.055   3.364   8.197 -0.2354 -0.1785 -0.3457
 5326TIP3    H137537   0.090   3.309   8.267  0.3450  0.8642  0.2113
 5326TIP3    H237538   0.131   3.413   8.165 -0.6097 -0.1930 -1.2976
 5327TIP3   OH237539   5.944   2.195   0.031  0.6723 -0.1247  0.0808
 5327TIP3    H137540   5.953   2.282  -0.009 -0.4242 -0.1694 -0.2971
 5327TIP3    H237541   5.991   2.203   0.114  0.4301  0.9044  0.1427
 5328TIP3   OH237542   0.331   5.204   7.962 -0.1135  0.1995  0.2320
 5328TIP3    H137543   0.319   5.126   8.016 -2.3376  0.6296  0.4640
 5328TIP3    H237544   0.348   5.171   7.874 -1.3995 -0.5697  0.2601
 5329TIP3   OH237545   5.201   0.388   0.815 -0.3161 -0.0019 -0.1317
 5329TIP3    H137546   5.163   0.328   0.879 -0.9066  1.4240  0.9107
 5329TIP3    H237547   5.186   0.475   0.852 -2.4286  1.0570 -3.0675
 5330TIP3   OH237548   1.104   2.862   0.997  0.1735 -0.0825  0.1027
 5330TIP3    H137549   1.191   2.831   0.973  1.0367  1.7119  0.8006
 5330TIP3    H237550   1.119   2.946   1.040 -1.9085  0.2677  0.2344
 5331TIP3   OH237551   5.962   2.914   0.461  0.4952  0.1490  0.4822
 5331TIP3    H137552   5.973   2.826   0.498  0.0076 -0.0849  0.0749
 5331TIP3    H237553   6.011   2.911   0.379  0.7436  0.3582  0.6227
 5332TIP3   OH237554   2.339   4.577   7.210 -0.2345  0.5088 -0.0261
 5332TIP3    H137555   2.371   4.552   7.123  2.1718 -0.0072  0.9169
 5332TIP3    H237556   2.260   4.524   7.222 -0.9768  1.0471 -2.1033
 5333TIP3   OH237557   2.260   5.936   0.513  0.5215 -0.4807 -0.5553
 5333TIP3    H137558   2.237   6.020   0.552  0.6085 -1.2173  1.1547
 5333TIP3    H237559   2.252   5.950   0.419 -3.3243  0.3335 -0.2449
 5334TIP3   OH237560   6.711   5.238   1.794 -0.7716  0.0301 -0.3718
 5334TIP3    H137561   6.782   5.228   1.857 -0.0727 -1.4172 -1.3475
 5334TIP3    H237562   6.644   5.287   1.841  0.9599  1.7126  0.5006
 5335TIP3   OH237563   3.260   0.922   2.415 -0.4715 -0.1890  0.0285
 5335TIP3    H137564   3.169   0.947   2.398 -0.0747  1.1379 -0.2783
 5335TIP3    H237565   3.306   1.005   2.426  0.4235 -0.8601  1.7868
 5336TIP3   OH237566   1.584   3.381   1.994 -0.2739  0.1173 -0.1904
 5336TIP3    H137567   1.598   3.475   2.003  0.3264  0.1484 -1.2705
 5336TIP3    H237568   1.490   3.369   2.010 -0.5712  1.0637 -1.1212
 5337TIP3   OH237569   1.680   6.669   7.817  0.3749 -0.5254 -0.5277
 5337TIP3    H137570   1.621   6.602   7.851  2.5885 -3.2507 -1.6530
 5337TIP3    H237571   1.726   6.702   7.895 -0.4151 -0.6431  0.0002
 5338TIP3   OH237572   2.574   4.643   2.420  0.1637 -0.6110  0.4480
 5338TIP3    H137573   2.493   4.623   2.468 -0.0036 -1.1920 -0.0610
 5338TIP3    H237574   2.642   4.646   2.488 -0.5657  1.8313  1.1630
 5339TIP3   OH237575   2.634   4.515   0.402 -0.3358 -0.0376 -0.3571
 5339TIP3    H137576   2.541   4.527   0.421 -0.0671 -1.7593  2.7786
 5339TIP3    H237577   2.640   4.426   0.367  0.3373 -1.2853  2.6257
 5340TIP3   OH237578   2.438   5.750   1.726 -0.4721 -0.0567  0.2871
 5340TIP3    H137579   2.425   5.711   1.812  1.1877  1.0287  1.0781
 5340TIP3    H237580   2.431   5.676   1.665  1.2691 -1.3814  1.6049
 5341TIP3   OH237581   1.046   1.396   1.373 -0.2056  0.1828 -0.2413
 5341TIP3    H137582   1.113   1.423   1.309 -0.9482 -2.0285 -2.0987
 5341TIP3    H237583   0.963   1.420   1.332 -0.6721 -0.4112  0.3363
 5342TIP3   OH237584   1.789   0.740   3.369 -0.5623 -0.0704  0.4041
 5342TIP3    H137585   1.746   0.824   3.382  0.5614  0.6454 -0.3014
 5342TIP3    H237586   1.756   0.709   3.284  1.0994  1.0431 -0.7212
 5343TIP3   OH237587   3.123   4.339   0.192  0.0323  0.7446  0.1416
 5343TIP3    H137588   3.163   4.278   0.254  0.6978  0.3806 -0.6306
 5343TIP3    H237589   3.194   4.397   0.166 -0.3605  1.2083  0.0871
 5344TIP3   OH237590   1.920   6.197   8.386 -0.1978 -0.6443 -0.3122
 5344TIP3    H137591   1.918   6.292   8.380 -2.6360 -0.5820  0.2488
 5344TIP3    H237592   1.977   6.178   8.461  1.2765  0.2665 -1.1587
 5345TIP3   OH237593   3.251   2.691   8.304  0.3846 -0.1366 -0.9536
 5345TIP3    H137594   3.270   2.610   8.257 -0.5469 -1.7101  1.2126
 5345TIP3    H237595   3.302   2.684   8.385 -0.7455  0.8052 -0.1249
 5346TIP3   OH237596   5.825   6.603   7.072 -0.6934  0.7498 -0.4659
 5346TIP3    H137597   5.856   6.515   7.047 -0.2335  0.2712  1.5693
 5346TIP3    H237598   5.736   6.607   7.039 -0.5988 -0.3650 -0.9117
 5347TIP3   OH237599   0.679   0.691   7.983 -0.0196  0.4449 -0.0676
 5347TIP3    H137600   0.764   0.726   7.958  0.6626 -1.7936 -1.0852
 5347TIP3    H237601   0.621   0.767   7.982  1.4525  1.6246 -1.6666
 5348TIP3   OH237602   4.497   5.142   1.557  0.0441 -0.1788  0.4987
 5348TIP3    H137603   4.459   5.055   1.567  0.2336 -0.3691 -0.3766
 5348TIP3    H237604   4.429   5.202   1.586 -0.6130 -0.5566 -0.2299
 5349TIP3   OH237605   5.838   4.882   6.977 -0.0007 -0.3698  0.0180
 5349TIP3    H137606   5.887   4.950   6.931  3.0403 -0.6587  2.4768
 5349TIP3    H237607   5.843   4.805   6.920  2.0186 -0.2239 -0.0533
 5350TIP3   OH237608   4.847   1.382   6.703  0.4522  0.4688  0.5539
 5350TIP3    H137609   4.816   1.428   6.781 -1.7672 -1.1088  0.6887
 5350TIP3    H237610   4.916   1.324   6.736 -1.7256 -1.5747  1.8406
 5351TIP3   OH237611   0.840   4.276   8.274  0.1478  0.6434  0.4248
 5351TIP3    H137612   0.829   4.329   8.353 -1.0326 -0.1136  0.7873
 5351TIP3    H237613   0.864   4.189   8.306  1.0761  0.6785 -0.1235
 5352TIP3   OH237614   6.076   1.236   1.994  0.0811 -0.1057  0.0733
 5352TIP3    H137615   6.026   1.253   2.073 -0.2515 -0.6978 -0.0078
 5352TIP3    H237616   6.090   1.323   1.955  1.4146  0.3522  1.4710
 5353TIP3   OH237617   4.960   3.853   0.290 -0.3238  0.0074  0.0941
 5353TIP3    H137618   4.991   3.768   0.258 -1.2737 -0.3954  0.2195
 5353TIP3    H237619   4.917   3.893   0.214  0.1499  0.3971  0.0264
 5354TIP3   OH237620   2.913   4.699   0.356 -0.0074 -0.6047  0.1520
 5354TIP3    H137621   2.817   4.701   0.367  0.1867 -0.9625  2.4816
 5354TIP3    H237622   2.946   4.756   0.426  1.4955 -0.2232 -0.8282
 5355TIP3   OH237623   6.697   5.364   1.131 -0.1308 -0.0005  0.5697
 5355TIP3    H137624   6.786   5.369   1.168  1.8410  0.1261 -3.5784
 5355TIP3    H237625   6.684   5.271   1.112 -0.5625  0.0816  0.4619
 5356TIP3   OH237626   2.403   4.068   8.158 -0.1047 -0.0105  0.2567
 5356TIP3    H137627   2.408   4.034   8.069 -0.7670 -0.6593  0.4570
 5356TIP3    H237628   2.455   4.007   8.210  1.1373  0.9375  0.1684
 5357TIP3   OH237629   5.234   0.005   8.110 -0.0162  0.8094  0.4023
 5357TIP3    H137630   5.175   0.046   8.046 -0.8854  0.2662  0.8336
 5357TIP3    H237631   5.209  -0.087   8.111  1.3637  0.4050  0.0560
 5358TIP3   OH237632   0.176   5.150   1.529 -0.3812  0.2487  0.0017
 5358TIP3    H137633   0.257   5.099   1.530 -0.1468  0.5958  1.6068
 5358TIP3    H237634   0.198   5.229   1.578 -1.7327  0.2608  0.6206
 5359TIP3   OH237635   6.803   4.081   1.902  0.5834  0.4310 -0.0663
 5359TIP3    H137636   6.765   4.119   1.982  0.1441  0.3775 -0.2474
 5359TIP3    H237637   6.811   4.155   1.842  2.0750  0.7247  0.4392
 5360TIP3   OH237638   2.791   0.901   8.233  0.6624 -0.3488 -0.4910
 5360TIP3    H137639   2.869   0.956   8.222  1.1364 -0.6766  0.9223
 5360TIP3    H237640   2.825   0.813   8.248  0.0491 -0.4522  0.4085
 5361TIP3   OH237641   2.227   4.295   2.606 -0.5579  0.2722 -0.7896
 5361TIP3    H137642   2.191   4.264   2.689 -2.6853 -0.1738 -1.7928
 5361TIP3    H237643   2.312   4.252   2.599 -0.9560 -0.8169  0.5137
 5362TIP3   OH237644   3.216   2.086   7.392  0.0560 -0.5627  0.2969
 5362TIP3    H137645   3.191   2.137   7.469 -0.5751  1.2732 -1.0511
 5362TIP3    H237646   3.305   2.117   7.371 -0.1289 -0.3721 -0.2280
 5363TIP3   OH237647   0.459   6.624   0.090 -0.6595 -0.1326 -0.3832
 5363TIP3    H137648   0.479   6.684   0.018 -1.3747  0.0637 -0.4253
 5363TIP3    H237649   0.401   6.558   0.051  0.4615 -1.1204 -0.4511
 5364TIP3   OH237650   6.578   2.517   1.307  0.1095  0.0861 -0.3634
 5364TIP3    H137651   6.606   2.490   1.220  1.7454  0.0269  0.1520
 5364TIP3    H237652   6.656   2.509   1.361 -0.2070  2.4457  0.5818
 5365TIP3   OH237653   2.252   6.830   1.363 -0.0965  0.4021  0.6772
 5365TIP3    H137654   2.253   6.913   1.315  1.2216  0.3345  0.5487
 5365TIP3    H237655   2.267   6.763   1.297  0.8812  0.2421  1.0288
 5366TIP3   OH237656   5.812   3.874   0.981 -0.1622  0.5605  0.5535
 5366TIP3    H137657   5.782   3.851   1.069 -0.6127  0.9869  0.5133
 5366TIP3    H237658   5.834   3.790   0.940 -2.8257  0.0365  0.0236
 5367TIP3   OH237659   3.591   3.245   0.586 -0.2294  0.0202 -0.3726
 5367TIP3    H137660   3.579   3.151   0.580 -0.2357  0.1239 -3.1202
 5367TIP3    H237661   3.685   3.259   0.571 -0.4678  0.4983 -1.5700
 5368TIP3   OH237662   5.925   0.457   1.278  0.0067  0.6311  0.1622
 5368TIP3    H137663   5.941   0.509   1.200  0.4985  0.2576  0.0093
 5368TIP3    H237664   5.859   0.506   1.327  1.3021  1.9916  0.6019
 5369TIP3   OH237665   5.415   1.601   1.219  0.4824  0.1536  0.0370
 5369TIP3    H137666   5.466   1.656   1.159  1.8539 -0.8606  0.2281
 5369TIP3    H237667   5.479   1.542   1.258 -0.7955 -0.9222  0.5876
 5370TIP3   OH237668   6.485   5.908   0.944 -0.0985  0.1158  0.1329
 5370TIP3    H137669   6.436   5.925   0.863 -1.2251  0.5795  0.8891
 5370TIP3    H237670   6.425   5.934   1.014  0.7049 -0.6662  1.1377
 5371TIP3   OH237671   3.716   0.647   2.428  0.6195  0.0105  0.6215
 5371TIP3    H137672   3.629   0.684   2.412  1.5244  2.3663  0.6592
 5371TIP3    H237673   3.716   0.626   2.521 -0.4716 -1.7332  0.2664
 5372TIP3   OH237674   4.442   4.967   0.098  0.0446 -0.1669  0.0804
 5372TIP3    H137675   4.500   5.040   0.076  0.4344 -0.4134  0.2687
 5372TIP3    H237676   4.375   5.005   0.154 -0.5890  0.3423 -0.9895
 5373TIP3   OH237677   6.398   6.561   7.966 -0.3689 -0.6416 -0.6706
 5373TIP3    H137678   6.414   6.642   8.014 -1.1740 -0.1654 -1.1718
 5373TIP3    H237679   6.484   6.524   7.950  0.2144  1.3107 -2.4747
 5374TIP3   OH237680   0.561   2.852   7.248  0.1065 -0.7175 -0.8548
 5374TIP3    H137681   0.640   2.800   7.233  1.0232  0.8800 -1.8544
 5374TIP3    H237682   0.528   2.872   7.161 -0.0805  0.5467 -0.5210
 5375TIP3   OH237683   4.370   2.453   2.226  0.0639 -0.0533 -0.1264
 5375TIP3    H137684   4.450   2.456   2.278  1.1410 -1.8066 -1.5564
 5375TIP3    H237685   4.308   2.402   2.279  0.5170 -0.2239  0.2377
 5376TIP3   OH237686   2.712   3.416   8.202  0.2552  0.5146  0.2995
 5376TIP3    H137687   2.710   3.470   8.123 -1.4391  1.4151  0.8979
 5376TIP3    H237688   2.687   3.329   8.172  0.8698  0.5549 -0.3416
 5377TIP3   OH237689   0.457   5.181   0.272  0.4097  0.5294  0.0973
 5377TIP3    H137690   0.547   5.160   0.252  0.3198  1.4232 -1.3947
 5377TIP3    H237691   0.434   5.124   0.345  2.2245  0.4246  0.6231
 5378TIP3   OH237692   3.018   5.311   7.242  0.0134 -0.0976  0.9469
 5378TIP3    H137693   2.979   5.224   7.235 -1.4479  0.6089 -0.3641
 5378TIP3    H237694   2.992   5.355   7.161 -1.4378  2.3856  2.6306
 5379TIP3   OH237695   5.129   6.031   0.096 -0.0295  0.3352  0.2209
 5379TIP3    H137696   5.144   5.937   0.101  1.3876  0.5001 -0.4706
 5379TIP3    H237697   5.085   6.052   0.179 -2.7491 -1.2955 -0.6800
 5380TIP3   OH237698   1.591   5.023   0.598 -0.6042 -0.7467 -0.6178
 5380TIP3    H137699   1.649   4.948   0.605 -1.1284 -1.0999  0.1218
 5380TIP3    H237700   1.562   5.040   0.688  0.1131  0.8456 -0.6450
 5381TIP3   OH237701   3.639   5.479   7.916 -0.3592  0.6069  0.8322
 5381TIP3    H137702   3.726   5.487   7.877 -0.8423 -0.7966 -0.5900
 5381TIP3    H237703   3.642   5.539   7.991  0.6711  3.2446 -1.1536
 5382TIP3   OH237704   0.328   1.976   0.022 -0.6227 -0.3481  0.0815
 5382TIP3    H137705   0.417   2.010   0.014 -0.8645  0.2452 -0.1587
 5382TIP3    H237706   0.298   2.006   0.108 -1.2143  0.9774 -0.5694
 5383TIP3   OH237707   4.907   4.381   8.546 -0.3925 -0.3935  0.1632
 5383TIP3    H137708   4.887   4.405   8.637  0.7446  0.1811  0.2722
 5383TIP3    H237709   4.821   4.367   8.507 -0.9812  0.8693  0.9238
 5384TIP3   OH237710   0.586   3.560   0.961  0.1102 -0.3350 -0.1078
 5384TIP3    H137711   0.581   3.572   0.866 -1.2581 -0.0713 -0.0303
 5384TIP3    H237712   0.595   3.466   0.972  2.1577 -0.2421 -0.5117
 5385TIP3   OH237713   3.372   1.074   1.308 -0.3185 -0.0285 -0.3465
 5385TIP3    H137714   3.289   1.085   1.261 -1.1628  0.5776  1.2027
 5385TIP3    H237715   3.347   1.078   1.401  1.5319  0.7723  0.1564
 5386TIP3   OH237716   5.932   0.516   0.206 -0.2798 -0.8194  0.3186
 5386TIP3    H137717   5.915   0.539   0.114  1.5739  1.3008  0.4215
 5386TIP3    H237718   6.001   0.450   0.201 -1.6351 -2.3012  0.1967
 5387TIP3   OH237719   0.311   1.289   0.551  0.2627  0.1191 -0.3567
 5387TIP3    H137720   0.299   1.317   0.460  0.1168 -0.5861 -0.5532
 5387TIP3    H237721   0.386   1.231   0.548 -0.2068 -0.5063 -0.1531
 5388TIP3   OH237722   0.679   3.046   7.446  0.4634 -0.2886 -0.4327
 5388TIP3    H137723   0.761   3.072   7.404  0.8257 -0.9068 -0.1408
 5388TIP3    H237724   0.630   3.000   7.378  0.5227 -0.2359 -0.5104
 5389TIP3   OH237725   5.533   6.601   7.825 -0.3486  0.0215  0.9542
 5389TIP3    H137726   5.456   6.646   7.859  1.4184  3.0717  1.2726
 5389TIP3    H237727   5.519   6.597   7.730 -1.1184  0.0889  1.0648
 5390TIP3   OH237728   4.862   6.649   7.433 -0.3855 -0.2007  0.4081
 5390TIP3    H137729   4.786   6.612   7.477  0.1659 -3.2400 -0.9688
 5390TIP3    H237730   4.837   6.655   7.341  1.0504 -1.5327 -0.1230
 5391TIP3   OH237731   5.468   4.708   6.885 -1.0136 -0.1328  0.0223
 5391TIP3    H137732   5.430   4.679   6.803  0.7718 -1.6918 -0.3228
 5391TIP3    H237733   5.399   4.695   6.950 -2.8626  2.1829 -1.3020
 5392TIP3   OH237734   0.596   5.900   7.279  0.3087  0.4810 -0.2788
 5392TIP3    H137735   0.547   5.875   7.201 -1.0367  0.2712  0.5912
 5392TIP3    H237736   0.685   5.916   7.248 -0.4606  1.6001 -2.0547
 5393TIP3   OH237737   0.349   5.869   8.230  0.2166  0.4590 -0.1872
 5393TIP3    H137738   0.356   5.811   8.306  2.5109  0.7583 -0.0980
 5393TIP3    H237739   0.256   5.867   8.207 -0.5453  0.2090  2.5035
 5394TIP3   OH237740   6.828   1.666   1.556  0.1985  0.4325 -0.1688
 5394TIP3    H137741   6.821   1.647   1.462  2.9787 -2.0569 -0.0251
 5394TIP3    H237742   6.756   1.617   1.596 -0.0960  0.2562 -0.9013
 5395TIP3   OH237743   0.499   4.482   0.300  0.2430 -0.2868 -0.1879
 5395TIP3    H137744   0.578   4.534   0.307  0.1361 -0.3018  1.3873
 5395TIP3    H237745   0.511   4.430   0.220  0.0557  2.5677 -2.2304
 5396TIP3   OH237746   2.113   4.291   8.237 -0.1822  0.5947 -0.1400
 5396TIP3    H137747   2.179   4.308   8.170 -0.0135  1.7247  0.2828
 5396TIP3    H237748   2.161   4.300   8.320 -0.3617 -0.8789  0.1596
 5397TIP3   OH237749   5.829   1.433   1.762  0.1628  0.1302  0.8953
 5397TIP3    H137750   5.754   1.477   1.801  0.2853  0.7251  0.4642
 5397TIP3    H237751   5.825   1.457   1.669  0.3056 -0.6559  0.6785
 5398TIP3   OH237752   0.526   1.382   0.882  0.3079  0.1471 -0.2064
 5398TIP3    H137753   0.621   1.391   0.878  0.2599  0.2734 -2.6683
 5398TIP3    H237754   0.510   1.289   0.869  0.0754  0.5378 -3.4285
 5399TIP3   OH237755   6.010   3.035   1.049 -0.2547 -0.0638 -0.2582
 5399TIP3    H137756   6.024   2.958   1.104 -1.3299 -1.4146 -1.7872
 5399TIP3    H237757   6.092   3.084   1.056 -0.1677 -0.4176  2.0883
 5400TIP3   OH237758   0.125   4.319   0.087  0.0061 -0.3042  0.2597
 5400TIP3    H137759   0.187   4.268   0.034 -0.3901  0.2479 -0.7793
 5400TIP3    H237760   0.041   4.274   0.075  0.0149 -0.5058  0.9048
 5401TIP3   OH237761   2.610   4.988   2.756 -0.0038 -0.0920 -0.4104
 5401TIP3    H137762   2.577   4.934   2.828  1.9111 -0.9829 -0.1481
 5401TIP3    H237763   2.636   5.071   2.797  2.1036 -0.9859  0.1952
 5402TIP3   OH237764   0.627   1.984   1.110 -0.0174  0.1470  0.2222
 5402TIP3    H137765   0.671   1.952   1.189  3.4733  0.2962 -1.4451
 5402TIP3    H237766   0.567   1.913   1.085  0.2937 -0.7504  1.8892
 5403TIP3   OH237767   3.438   2.968   0.954  0.4425  0.1400  0.3356
 5403TIP3    H137768   3.424   2.874   0.955  3.4091 -0.4033 -0.0424
 5403TIP3    H237769   3.374   3.002   0.891  1.3235 -2.0483 -1.8690
 5404TIP3   OH237770   4.832   3.263   7.816  0.3567  0.8247 -0.1449
 5404TIP3    H137771   4.838   3.225   7.903 -1.3049  1.9958  0.5174
 5404TIP3    H237772   4.888   3.207   7.762  0.3004 -0.7759  1.3685
 5405TIP3   OH237773   1.858   1.806   1.467  0.6700 -0.0583  0.9214
 5405TIP3    H137774   1.821   1.868   1.405  1.6942  0.7693  1.1158
 5405TIP3    H237775   1.782   1.767   1.511 -0.0087  0.4059  0.1716
 5406TIP3   OH237776   0.646   3.823   7.504  0.2537 -0.3034 -0.5379
 5406TIP3    H137777   0.597   3.905   7.504  0.1790 -0.3216  0.8991
 5406TIP3    H237778   0.603   3.769   7.438  0.2952  0.7985 -1.4843
 5407TIP3   OH237779   6.571   1.193   7.774  0.3850 -0.2320 -0.2278
 5407TIP3    H137780   6.581   1.248   7.696 -0.4246  0.4104  0.0972
 5407TIP3    H237781   6.608   1.245   7.845  1.3841 -0.9359 -0.2085
 5408TIP3   OH237782   5.714   1.041   6.467  0.4375  0.8062  0.2740
 5408TIP3    H137783   5.734   1.078   6.382 -0.5456 -0.4205 -0.5354
 5408TIP3    H237784   5.624   1.068   6.485  0.3435  0.3511  0.5141
 5409TIP3   OH237785   6.578   1.271   3.088 -0.3000  0.2030  0.0074
 5409TIP3    H137786   6.510   1.301   3.027 -0.3854  0.8962  0.4253
 5409TIP3    H237787   6.541   1.288   3.175  0.0063 -0.3461  0.2490
 5410TIP3   OH237788   3.400   2.157   1.621  0.1118 -0.3203 -0.1787
 5410TIP3    H137789   3.349   2.200   1.690 -0.2929  0.6069 -1.0346
 5410TIP3    H237790   3.376   2.065   1.628 -1.3333  0.0259 -0.2404
 5411TIP3   OH237791   5.433   1.640   8.090  0.4854  0.3747  0.3072
 5411TIP3    H137792   5.381   1.571   8.132 -2.3451  2.4969  0.5994
 5411TIP3    H237793   5.495   1.668   8.157 -0.2655 -0.0002  1.1781
 5412TIP3   OH237794   5.791   1.844   0.251 -0.0797  0.7313 -0.9407
 5412TIP3    H137795   5.718   1.897   0.282 -0.8844 -0.4104 -0.8208
 5412TIP3    H237796   5.789   1.766   0.307  0.7673  0.3437 -1.4327
 5413TIP3   OH237797   6.677   3.873   2.161 -0.4851 -0.7304  0.6689
 5413TIP3    H137798   6.728   3.820   2.099 -0.9947  1.8649 -2.2008
 5413TIP3    H237799   6.739   3.895   2.230  0.9634 -1.4422 -0.3339
 5414TIP3   OH237800   6.489   3.410   7.859 -0.2675 -0.1073 -0.5695
 5414TIP3    H137801   6.432   3.333   7.866 -0.3891 -0.1026 -1.4093
 5414TIP3    H237802   6.430   3.485   7.871 -0.2493 -0.1270 -0.3485
 5415TIP3   OH237803   0.808   1.638   2.533  0.4542  0.2289  0.2448
 5415TIP3    H137804   0.799   1.543   2.545  0.1506  0.0876 -0.9299
 5415TIP3    H237805   0.894   1.659   2.570  0.8711 -0.6397 -0.1907
 5416TIP3   OH237806   5.796   6.792   0.267 -0.4376  0.3203 -0.2910
 5416TIP3    H137807   5.815   6.824   0.355  0.7940 -1.6435  0.2144
 5416TIP3    H237808   5.882   6.788   0.224 -0.8660  0.0048 -1.1483
 5417TIP3   OH237809   0.624   4.352   7.500  0.1341 -0.0356  0.2003
 5417TIP3    H137810   0.665   4.273   7.464  0.2112  0.3496 -0.5831
 5417TIP3    H237811   0.581   4.393   7.425 -1.4642 -0.2685  0.9512
 5418TIP3   OH237812   5.007   1.748   7.381  0.0039 -0.3652  0.0108
 5418TIP3    H137813   4.952   1.678   7.415  0.3502 -0.4695  0.3570
 5418TIP3    H237814   4.984   1.825   7.434  1.7028 -0.9062  1.6068
 5419TIP3   OH237815   1.970   1.081   2.445  0.4035 -0.0341  0.0456
 5419TIP3    H137816   2.063   1.083   2.469  0.7580 -2.6826 -0.7294
 5419TIP3    H237817   1.970   1.049   2.355 -1.2945 -1.4016  0.4815
 5420TIP3   OH237818   3.115   0.977   0.245 -0.2753  0.7402 -0.0513
 5420TIP3    H137819   3.049   0.942   0.306 -1.0692 -0.2688 -1.4407
 5420TIP3    H237820   3.188   1.002   0.302 -0.5861 -1.0722  1.2543
 5421TIP3   OH237821   0.202   2.132   0.708  0.4506  0.1712  0.4383
 5421TIP3    H137822   0.142   2.200   0.740 -2.3665 -2.7209  2.0155
 5421TIP3    H237823   0.155   2.090   0.636  0.6877 -1.8839  1.3896
 5422TIP3   OH237824   0.585   2.398   8.138  0.0093  0.2990  0.0664
 5422TIP3    H137825   0.513   2.422   8.197  1.2592 -0.6347  2.0524
 5422TIP3    H237826   0.612   2.311   8.166  1.8825  0.5964 -0.6493
 5423TIP3   OH237827   3.948   6.632   1.347 -0.3353 -0.3250 -0.1489
 5423TIP3    H137828   3.931   6.703   1.410 -2.1378 -1.0064  0.1844
 5423TIP3    H237829   3.982   6.677   1.270  0.8776  0.6495  0.8964
 5424TIP3   OH237830   1.818   2.402   0.622 -0.1249  0.1258 -0.2204
 5424TIP3    H137831   1.893   2.380   0.566 -0.3175  2.2883 -1.4091
 5424TIP3    H237832   1.839   2.362   0.706  1.0621 -1.6253 -1.2769
 5425TIP3   OH237833   1.247   5.870   0.641  0.7211  0.4510  0.7095
 5425TIP3    H137834   1.228   5.896   0.551 -0.5038 -0.0111  0.8185
 5425TIP3    H237835   1.182   5.803   0.662  1.5418 -0.0964  1.6492
 5426TIP3   OH237836   5.122   4.563   7.636 -0.2027 -0.6324 -0.0917
 5426TIP3    H137837   5.164   4.606   7.710 -1.1206 -1.9751  1.2557
 5426TIP3    H237838   5.194   4.517   7.592  0.5370  1.0398 -0.7318
 5427TIP3   OH237839   4.742   1.767   7.228  0.7578  0.2872 -0.3858
 5427TIP3    H137840   4.833   1.779   7.202  0.2122  0.6529 -2.3152
 5427TIP3    H237841   4.709   1.699   7.169 -0.3865  0.6474 -0.1959
 5428TIP3   OH237842   0.565   4.379   8.309  0.1115  0.5317  0.2186
 5428TIP3    H137843   0.653   4.346   8.289 -0.5288 -0.2922 -1.3670
 5428TIP3    H237844   0.577   4.474   8.316  0.7244  0.7542 -2.6695
 5429TIP3   OH237845   0.141   3.352   0.386 -0.6451  0.4925  0.1001
 5429TIP3    H137846   0.078   3.368   0.316  1.6563  2.6107 -1.6456
 5429TIP3    H237847   0.184   3.436   0.400  0.8660 -0.5344  2.1762
 5430TIP3   OH237848   6.324   1.027   0.370  0.0975 -0.6838 -0.1218
 5430TIP3    H137849   6.302   1.032   0.463 -2.0648 -1.6137 -0.5135
 5430TIP3    H237850   6.244   1.052   0.324  0.7145 -1.4544 -1.7347
 5431TIP3   OH237851   2.486   3.669   1.069  0.3309  0.7458 -0.0660
 5431TIP3    H137852   2.444   3.600   1.120 -0.6660  0.5452 -1.1124
 5431TIP3    H237853   2.430   3.680   0.992  1.0601  1.9685 -0.4595
 5432TIP3   OH237854   2.590   0.828   7.413 -0.5406  0.6141  0.1201
 5432TIP3    H137855   2.513   0.825   7.355 -0.7984 -0.8560  0.5064
 5432TIP3    H237856   2.605   0.737   7.437  1.1245  0.9255  0.3368
 5433TIP3   OH237857   6.592   1.788   1.002  0.0462 -0.2766 -0.0095
 5433TIP3    H137858   6.675   1.747   0.977  0.2635 -0.0822  0.3942
 5433TIP3    H237859   6.533   1.767   0.929  0.7442  0.5268 -0.8357
 5434TIP3   OH237860   1.104   4.843   2.259  0.4103  0.0028  0.8098
 5434TIP3    H137861   1.087   4.910   2.193 -0.9858 -1.4587 -0.3884
 5434TIP3    H237862   1.122   4.893   2.339 -0.8007  1.7975  0.0337
 5435TIP3   OH237863   3.650   6.225   8.434 -0.4447  0.2333  0.2617
 5435TIP3    H137864   3.608   6.224   8.520 -0.3844 -1.5428  0.3125
 5435TIP3    H237865   3.592   6.173   8.378  0.8557 -0.9122 -0.0732
 5436TIP3   OH237866   2.847   4.517   1.792  0.1336  0.3467  0.5055
 5436TIP3    H137867   2.818   4.598   1.750 -1.1319 -0.0204  0.6322
 5436TIP3    H237868   2.811   4.447   1.738  1.7751 -0.1638  0.0190
 5437TIP3   OH237869   4.881   1.908   1.617 -0.4099  0.5772  0.1890
 5437TIP3    H137870   4.853   1.911   1.526 -0.4422 -0.4694  0.1539
 5437TIP3    H237871   4.959   1.964   1.620  0.6234 -0.7280 -0.8801
 5438TIP3   OH237872   0.953   1.600   0.018  0.6143  0.2415  0.1368
 5438TIP3    H137873   0.910   1.643   0.091  3.0894 -0.7861  2.3724
 5438TIP3    H237874   0.974   1.671  -0.043 -2.3735  0.9822 -0.1623
 5439TIP3   OH237875   3.368   3.673   8.278  0.0898  0.1234 -0.0033
 5439TIP3    H137876   3.366   3.724   8.359  0.3271 -1.8297  1.3194
 5439TIP3    H237877   3.458   3.682   8.246 -0.6906  3.2063 -1.7262
 5440TIP3   OH237878   6.042   2.748   0.953 -0.2095  0.2222  0.1747
 5440TIP3    H137879   6.006   2.690   0.885 -0.8853  0.3434  0.4175
 5440TIP3    H237880   6.067   2.827   0.906  0.0801 -0.0035 -0.0559
 5441TIP3   OH237881   3.961   0.791   1.310 -0.3485  0.2449 -0.3195
 5441TIP3    H137882   3.870   0.770   1.292 -0.7909  1.6595  0.1955
 5441TIP3    H237883   3.967   0.886   1.299  0.5787  0.4519  1.6106
 5442TIP3   OH237884   0.577   1.002   0.004  0.2299  0.3266  0.3314
 5442TIP3    H137885   0.554   0.963   0.088 -1.4094 -0.2729 -0.3529
 5442TIP3    H237886   0.652   0.951  -0.027  0.1776 -0.1264  0.9481
 5443TIP3   OH237887   3.413   4.302   8.085  0.5134 -0.3876 -0.1884
 5443TIP3    H137888   3.325   4.323   8.117 -0.0990 -0.3878 -1.7699
 5443TIP3    H237889   3.444   4.233   8.143 -0.4110 -0.1740  0.5783
 5444TIP3   OH237890   4.274   0.435   7.436 -0.1078  0.4760 -0.4424
 5444TIP3    H137891   4.239   0.480   7.359 -2.2870 -0.4420 -0.0811
 5444TIP3    H237892   4.207   0.448   7.504 -0.9116 -3.1407 -0.3024
 5445TIP3   OH237893   6.781   3.062   0.907 -0.5177 -0.2708 -0.6580
 5445TIP3    H137894   6.852   3.127   0.915  0.0070 -0.9928  1.2156
 5445TIP3    H237895   6.702   3.111   0.929 -0.1977 -0.0980  0.1751
 5446TIP3   OH237896   0.595   1.988   1.785  0.0649  0.4248 -0.3473
 5446TIP3    H137897   0.554   1.991   1.699 -0.0681  2.2482 -0.2602
 5446TIP3    H237898   0.633   1.900   1.790 -0.1489  0.1816 -2.1489
 5447TIP3   OH237899   0.141   1.256   2.058 -0.1034  0.4210 -0.1127
 5447TIP3    H137900   0.090   1.184   2.020  0.6650 -0.2180  0.0557
 5447TIP3    H237901   0.079   1.299   2.118 -1.1842  1.1447 -1.6676
 5448TIP3   OH237902   1.764   1.897   1.236 -0.3577 -0.4212 -0.1696
 5448TIP3    H137903   1.691   1.845   1.204 -0.8172 -0.2766  0.6268
 5448TIP3    H237904   1.732   1.987   1.233  0.1350 -0.2572 -0.7364
 5449TIP3   OH237905   1.277   0.931   1.030  0.2210  0.2099 -0.1396
 5449TIP3    H137906   1.272   0.861   1.095 -0.1340  0.9584  0.6416
 5449TIP3    H237907   1.197   0.981   1.042  0.2834  0.5193 -0.9735
 5450TIP3   OH237908   4.154   6.807   8.386 -0.1762  0.1440 -0.3934
 5450TIP3    H137909   4.092   6.752   8.434  0.2567  0.6299  0.7662
 5450TIP3    H237910   4.206   6.745   8.335 -0.8329 -0.3626 -0.4680
 5451TIP3   OH237911   3.564   0.945   2.315  0.4095  0.1387  0.1149
 5451TIP3    H137912   3.602   0.932   2.402  0.8350 -3.0553 -0.4443
 5451TIP3    H237913   3.582   1.037   2.295 -0.1608  1.1711  3.5459
 5452TIP3   OH237914   0.904   5.905   2.188 -0.5727 -0.4168 -0.4019
 5452TIP3    H137915   0.857   5.865   2.260 -0.4320 -0.4387 -0.3214
 5452TIP3    H237916   0.963   5.837   2.157 -0.3794 -0.2948 -0.3071
 5453TIP3   OH237917   4.300   0.008   8.130  0.6813 -0.2778  0.1342
 5453TIP3    H137918   4.236  -0.054   8.167 -0.1493  0.1312 -0.5679
 5453TIP3    H237919   4.347  -0.043   8.064 -0.3829 -0.0408 -0.8390
 5454TIP3   OH237920   0.288   1.512   1.045 -0.4923 -0.4686 -0.3523
 5454TIP3    H137921   0.338   1.558   1.112 -1.7186  1.6011 -0.7863
 5454TIP3    H237922   0.309   1.557   0.964 -1.8073 -0.6099 -0.7879
 5455TIP3   OH237923   1.571   2.321   1.991  0.1023 -0.1430  0.1424
 5455TIP3    H137924   1.661   2.309   2.023  0.5887  1.2121 -0.6273
 5455TIP3    H237925   1.546   2.407   2.025  0.1170  0.7075 -1.8604
 5456TIP3   OH237926   6.009   3.468   1.417  0.5478 -0.2973 -0.5436
 5456TIP3    H137927   6.079   3.517   1.375  1.5023 -2.1072 -1.1745
 5456TIP3    H237928   5.992   3.395   1.359 -3.8666  1.4433 -1.8536
 5457TIP3   OH237929   0.012   0.780   0.270  0.6260 -0.2306 -0.2384
 5457TIP3    H137930  -0.070   0.783   0.220  0.3609  1.3918  0.2218
 5457TIP3    H237931   0.015   0.691   0.305 -1.6113  0.0199  0.7690
 5458TIP3   OH237932   2.262   2.571   1.879 -0.5777 -0.2557  0.0162
 5458TIP3    H137933   2.293   2.627   1.808  1.1537 -1.0026  0.1473
 5458TIP3    H237934   2.227   2.631   1.944  1.8557  0.7932  0.4609
 5459TIP3   OH237935   5.759   4.102   7.295 -0.8970 -0.0988  0.2170
 5459TIP3    H137936   5.693   4.076   7.359 -0.7055  0.3482  0.6023
 5459TIP3    H237937   5.722   4.179   7.252 -0.7611 -0.0374  0.2107
 5460TIP3   OH237938   2.458   2.103   2.370 -0.0320  0.6939 -0.6048
 5460TIP3    H137939   2.493   2.034   2.426 -1.0551  1.4096  0.9731
 5460TIP3    H237940   2.474   2.184   2.418  1.2208  1.6132 -2.4553
 5461TIP3   OH237941   5.922   5.823   1.726  0.7340 -0.3859 -0.0265
 5461TIP3    H137942   5.924   5.919   1.728  1.6173 -0.4005  0.3701
 5461TIP3    H237943   6.014   5.797   1.720  0.5005 -1.2097 -0.2198
 5462TIP3   OH237944   0.083   2.978   1.911 -0.3104  0.1393 -0.5938
 5462TIP3    H137945   0.012   3.022   1.958 -0.2334 -0.5184  0.1475
 5462TIP3    H237946   0.050   2.891   1.892  0.0625  0.0428 -0.8184
 5463TIP3   OH237947   4.191   5.879   8.222  0.7438 -0.4032 -0.2065
 5463TIP3    H137948   4.148   5.921   8.296  1.7309 -0.6357  0.5156
 5463TIP3    H237949   4.132   5.807   8.198 -1.1944  1.5459 -1.7482
 5464TIP3   OH237950   4.346   0.039   1.961 -0.6164  0.1062 -0.3528
 5464TIP3    H137951   4.361   0.092   1.883  0.6005  0.6596  0.2359
 5464TIP3    H237952   4.412  -0.030   1.957 -0.8716 -0.1628 -0.0617
 5465TIP3   OH237953   1.197   1.185   7.453  0.1815 -0.0484  0.0619
 5465TIP3    H137954   1.118   1.222   7.414  0.1744  1.7998  1.6948
 5465TIP3    H237955   1.215   1.106   7.402 -2.1134  0.0622 -1.0003
 5466TIP3   OH237956   2.708   1.287   0.471 -0.1784 -0.4631  0.1963
 5466TIP3    H137957   2.708   1.221   0.402  0.7783 -1.1732  0.8492
 5466TIP3    H237958   2.801   1.304   0.487 -0.3725 -0.6415  1.6137
 5467TIP3   OH237959   5.092   4.985   6.631  0.1039  0.3542 -0.2016
 5467TIP3    H137960   5.011   4.945   6.599  1.9979 -2.8177 -1.4340
 5467TIP3    H237961   5.105   4.946   6.718  0.6615  0.2997 -0.3067
 5468TIP3   OH237962   2.708   4.950   2.470 -0.1853  0.1151  0.1891
 5468TIP3    H137963   2.666   4.944   2.556  1.2933  2.6289  1.2184
 5468TIP3    H237964   2.641   4.986   2.412 -1.1014 -1.2918  0.3408
 5469TIP3   OH237965   0.115   4.517   0.599  0.0414  0.1639  0.6676
 5469TIP3    H137966   0.153   4.474   0.523 -0.1643 -0.0923  0.7073
 5469TIP3    H237967   0.154   4.472   0.674 -0.2377 -0.0109  0.7094
 5470TIP3   OH237968   3.431   2.803   1.397 -0.1025 -0.0463  0.8045
 5470TIP3    H137969   3.363   2.758   1.347 -0.3591 -0.3448  1.4185
 5470TIP3    H237970   3.487   2.842   1.330 -1.0994  0.5426  0.2891
 5471TIP3   OH237971   5.419   3.517   0.189 -0.0122 -0.1886  0.1126
 5471TIP3    H137972   5.509   3.502   0.217  0.8487  2.7798 -0.6891
 5471TIP3    H237973   5.370   3.441   0.222  2.5270 -1.2891  1.6197
 5472TIP3   OH237974   5.923   4.287   1.413 -0.0309 -0.1873  0.0429
 5472TIP3    H137975   5.962   4.215   1.463  1.2013 -0.0725 -0.7176
 5472TIP3    H237976   5.860   4.327   1.474 -0.4152 -1.6156  0.6242
 5473TIP3   OH237977   2.459   3.029   0.484 -0.3709 -0.3669  0.5260
 5473TIP3    H137978   2.388   3.068   0.432  0.5796 -0.0422 -0.5804
 5473TIP3    H237979   2.538   3.067   0.447  0.4225 -1.2107  1.3220
 5474TIP3   OH237980   3.469   5.996   7.713  0.0618 -0.0573  0.2905
 5474TIP3    H137981   3.412   5.957   7.647  1.5329 -0.0847 -1.0153
 5474TIP3    H237982   3.443   5.954   7.795 -2.3289  0.5214 -0.0741
 5475TIP3   OH237983   0.891   2.912   1.472  0.2819  0.2261 -0.2099
 5475TIP3    H137984   0.796   2.907   1.476  0.3533 -2.0132  0.3091
 5475TIP3    H237985   0.919   2.918   1.563  0.6449  2.0369 -0.4069
 5476TIP3   OH237986   6.502   3.467   1.146 -0.4149 -0.7849 -0.0160
 5476TIP3    H137987   6.542   3.554   1.155  0.4056 -1.0933 -0.5186
 5476TIP3    H237988   6.435   3.478   1.079 -2.7256  0.2380  2.3281
 5477TIP3   OH237989   5.681   1.876   2.211 -0.5787  0.1710  0.7401
 5477TIP3    H137990   5.718   1.814   2.274 -0.2853 -0.0042  0.4025
 5477TIP3    H237991   5.627   1.935   2.264  1.5039  1.4846  1.5390
 5478TIP3   OH237992   5.893   1.215   1.569  0.2685  0.8535 -0.4446
 5478TIP3    H137993   5.831   1.156   1.527 -1.1257  0.2108  2.2772
 5478TIP3    H237994   5.849   1.300   1.568  0.6536  1.0524 -1.0817
 5479TIP3   OH237995   4.856   2.115   1.114  0.0412 -0.6256  0.3130
 5479TIP3    H137996   4.834   2.178   1.046 -0.8039 -0.6227  0.5752
 5479TIP3    H237997   4.793   2.131   1.183 -0.1917 -1.7562  0.3907
 5480TIP3   OH237998   6.861   5.793   0.314 -0.0975 -0.6204 -0.5008
 5480TIP3    H137999   6.952   5.811   0.288  0.1019 -1.0731 -0.1173
 5480TIP3    H238000   6.811   5.866   0.276  0.7978  1.2470  1.6747
 5481TIP3   OH238001   0.108   1.604   8.187  0.3238  0.0978 -0.0246
 5481TIP3    H138002   0.155   1.679   8.225 -1.1273  0.1234  1.8860
 5481TIP3    H238003   0.122   1.613   8.093  1.4744  1.8946  0.2537
 5482TIP3   OH238004   1.028   6.170   0.999  0.1086  0.7543  0.0040
 5482TIP3    H138005   1.061   6.259   1.011  1.9239  0.2611 -0.9566
 5482TIP3    H238006   1.013   6.163   0.905 -1.0987  0.3811  0.2127
 5483TIP3   OH238007   5.817   5.734   1.479 -0.4263 -0.4276 -0.5006
 5483TIP3    H138008   5.862   5.785   1.545 -1.9805 -0.6063  0.7530
 5483TIP3    H238009   5.887   5.688   1.432  0.7227 -0.0547  0.7983
 5484TIP3   OH238010   0.210   3.584   1.036  0.1079  0.0715  0.4120
 5484TIP3    H138011   0.249   3.647   1.096  0.1308  1.7466 -1.2971
 5484TIP3    H238012   0.250   3.602   0.951 -0.1899 -1.9976 -0.2405
 5485TIP3   OH238013   3.931   4.505   1.723  0.0845 -1.6270  0.2050
 5485TIP3    H138014   3.889   4.468   1.645  0.9066  0.3640 -1.2704
 5485TIP3    H238015   4.024   4.512   1.699 -0.0153  1.2342  0.3954
 5486TIP3   OH238016   6.606   3.407   7.574 -0.2102 -0.2681 -0.3561
 5486TIP3    H138017   6.617   3.489   7.622 -0.7147  0.0081 -0.7111
 5486TIP3    H238018   6.654   3.343   7.626 -0.1335  0.1767  0.1288
 5487TIP3   OH238019   0.362   2.967   7.415  1.1199 -0.2194  0.1343
 5487TIP3    H138020   0.423   2.898   7.390  0.3197 -1.2152  0.8775
 5487TIP3    H238021   0.279   2.943   7.375  1.5805  2.1689 -2.5820
 5488TIP3   OH238022   5.802   5.166   0.957  0.2252 -0.2370 -0.3683
 5488TIP3    H138023   5.869   5.098   0.961  0.1327 -0.3445 -0.6582
 5488TIP3    H238024   5.727   5.125   0.914  0.5909  0.3849 -1.6577
 5489TIP3   OH238025   0.670   2.156   7.729  0.0558  0.2071  0.1537
 5489TIP3    H138026   0.704   2.240   7.758 -0.7695  0.6164 -0.0336
 5489TIP3    H238027   0.619   2.176   7.651 -2.2490 -0.0476  1.4980
 5490TIP3   OH238028   5.042   6.623   0.392  0.6996  0.2370  0.3375
 5490TIP3    H138029   5.132   6.657   0.389  0.5762  0.7000  1.2727
 5490TIP3    H238030   5.011   6.649   0.479 -0.8035  1.2460 -0.4715
 5491TIP3   OH238031   1.547   6.413   8.336  0.3139 -0.3064  0.2423
 5491TIP3    H138032   1.470   6.371   8.375 -0.5125  1.4988  0.6316
 5491TIP3    H238033   1.618   6.396   8.399  0.0519 -1.2340  0.3061
 5492TIP3   OH238034   6.316   4.168   7.200 -0.0558  0.5011 -0.1108
 5492TIP3    H138035   6.221   4.165   7.209 -0.0698 -2.2348 -0.4361
 5492TIP3    H238036   6.331   4.171   7.105  0.1482 -0.6200 -0.1298
 5493TIP3   OH238037   3.933   6.203   0.835  0.1306  0.5510  0.2341
 5493TIP3    H138038   4.000   6.134   0.838 -1.3191 -0.9775 -0.8120
 5493TIP3    H238039   3.980   6.279   0.801  1.7255  0.0535  1.1929
 5494TIP3   OH238040   5.481   1.184   0.896 -0.3363  0.3342 -0.1950
 5494TIP3    H138041   5.393   1.184   0.858 -1.7756 -1.2611  2.7587
 5494TIP3    H238042   5.486   1.266   0.945 -0.1940  0.3973 -0.3143
 5495TIP3   OH238043   5.172   0.062   8.366  0.1133  0.4487  0.4033
 5495TIP3    H138044   5.196   0.047   8.275  0.9114  0.7035  0.5618
 5495TIP3    H238045   5.089   0.016   8.377  1.3346 -1.9354  0.2624
 5496TIP3   OH238046   0.921   4.985   7.685 -0.2874  0.3777  0.4090
 5496TIP3    H138047   0.897   4.929   7.611 -1.1251  0.5775  0.5094
 5496TIP3    H238048   0.983   4.934   7.736 -0.9865 -0.4441  0.4672
 5497TIP3   OH238049   5.027   2.932   0.841 -0.1642  0.0178  0.8978
 5497TIP3    H138050   5.100   2.900   0.788 -0.0507  0.9167  0.4895
 5497TIP3    H238051   4.962   2.862   0.837 -0.5414  0.4145 -1.2099
 5498TIP3   OH238052   6.005   6.406   2.542 -0.7756  0.1709  0.0359
 5498TIP3    H138053   6.056   6.397   2.622 -0.5064 -0.5203 -0.2052
 5498TIP3    H238054   5.988   6.500   2.534 -0.9343  0.2277  0.9796
 5499TIP3   OH238055   5.248   5.275   8.313  1.0947 -0.3412 -0.4489
 5499TIP3    H138056   5.328   5.323   8.293  1.5010 -1.4908 -1.7083
 5499TIP3    H238057   5.272   5.215   8.383  0.9260  0.3344  0.2054
 5500TIP3   OH238058   5.914   5.040   6.759 -0.1480  0.3524 -0.6189
 5500TIP3    H138059   5.942   5.081   6.677  0.2909  0.4223 -0.4371
 5500TIP3    H238060   5.818   5.036   6.753 -0.1774  1.1858 -0.7428
 5501TIP3   OH238061   1.418   0.437   0.868  0.0446  0.2428  0.1199
 5501TIP3    H138062   1.361   0.439   0.945  0.3050  0.1745  0.3158
 5501TIP3    H238063   1.507   0.441   0.903  0.2142 -1.2056 -0.0966
 5502TIP3   OH238064   2.787   4.510   8.211 -0.2664  0.2498  0.6036
 5502TIP3    H138065   2.863   4.479   8.258  0.3081  0.2933 -0.2657
 5502TIP3    H238066   2.733   4.553   8.277  0.9657  1.1563  1.0602
 5503TIP3   OH238067   6.221   4.395   0.961 -0.1380 -0.3459 -0.5525
 5503TIP3    H138068   6.166   4.465   0.996  1.3557  0.0378  1.1607
 5503TIP3    H238069   6.163   4.319   0.956 -1.2907  0.5110 -0.5947
 5504TIP3   OH238070   1.939   4.754   7.617  0.0444 -0.1709  0.4966
 5504TIP3    H138071   1.991   4.763   7.697 -0.9456 -0.4931  1.2075
 5504TIP3    H238072   1.956   4.835   7.568 -0.0057  0.4346  1.4534
 5505TIP3   OH238073   5.528   0.291   1.921 -0.3623 -0.0787  0.2541
 5505TIP3    H138074   5.497   0.209   1.883  0.5418 -0.0684 -0.5437
 5505TIP3    H238075   5.534   0.274   2.014 -0.0829 -0.9623  0.0806
 5506TIP3   OH238076   1.082   4.579   1.720 -0.0073 -0.5036  0.4593
 5506TIP3    H138077   1.134   4.649   1.681 -1.9275 -0.5674 -2.6351
 5506TIP3    H238078   1.141   4.504   1.723  0.7587  0.0052 -0.8214
 5507TIP3   OH238079   0.964   1.943   2.258  0.3547 -0.5742 -0.2475
 5507TIP3    H138080   1.009   1.930   2.341 -1.0554 -0.9167  0.4702
 5507TIP3    H238081   0.932   1.857   2.233  0.8265 -0.4955 -1.2116
 5508TIP3   OH238082   3.598   1.840   2.513  0.0428 -0.1960  0.2926
 5508TIP3    H138083   3.508   1.826   2.543 -0.2079  2.0454  0.7912
 5508TIP3    H238084   3.607   1.935   2.510  3.0265 -0.2975  2.1359
 5509TIP3   OH238085   0.844   4.509   7.603 -0.4422 -0.0073 -0.6346
 5509TIP3    H138086   0.879   4.498   7.514  1.3301  0.3177 -0.0178
 5509TIP3    H238087   0.762   4.459   7.602  0.3671 -1.4384 -1.9824
 5510TIP3   OH238088   0.717   6.711   8.006 -0.2049  0.0491 -0.5512
 5510TIP3    H138089   0.798   6.686   7.962  1.4289  1.2105  1.6160
 5510TIP3    H238090   0.670   6.628   8.018 -0.4140 -0.3855 -3.7161
 5511TIP3   OH238091   2.344   6.482   7.368 -0.1823  0.7762 -0.0927
 5511TIP3    H138092   2.317   6.572   7.350 -1.0721  0.5183 -0.1196
 5511TIP3    H238093   2.425   6.471   7.320 -1.2962  0.8216 -2.0749
 5512TIP3   OH238094   3.231   1.487   8.523 -0.2046 -0.4112  0.9966
 5512TIP3    H138095   3.266   1.414   8.574  2.6694  1.5366  2.1561
 5512TIP3    H238096   3.203   1.449   8.441  1.8155 -2.7661  1.2728
 5513TIP3   OH238097   5.064   4.911   8.257 -0.2248 -0.1300 -0.1930
 5513TIP3    H138098   5.066   4.816   8.261 -2.4723 -0.2425 -0.2170
 5513TIP3    H238099   5.155   4.938   8.272  0.3325 -2.2353  0.6011
 5514TIP3   OH238100   0.514   3.775   0.525 -0.3386 -0.0646  0.0664
 5514TIP3    H138101   0.519   3.727   0.443  1.8918 -3.6151  2.0261
 5514TIP3    H238102   0.578   3.845   0.517  0.0410 -0.5308 -1.1075
 5515TIP3   OH238103   1.296   6.230   0.415  0.4383 -0.2997  0.1568
 5515TIP3    H138104   1.209   6.196   0.395  0.7592 -0.6368 -0.6923
 5515TIP3    H238105   1.316   6.289   0.343 -0.5217  2.6036  2.0427
 5516TIP3   OH238106   4.681   0.627   7.568 -0.2020  0.1503 -0.7573
 5516TIP3    H138107   4.605   0.679   7.541 -0.1444  0.4484 -0.3469
 5516TIP3    H238108   4.751   0.654   7.509  0.1145  1.3172  0.1345
 5517TIP3   OH238109   6.394   5.851   1.303 -0.0235  0.0145 -0.0433
 5517TIP3    H138110   6.372   5.938   1.270 -2.1372  0.3989  2.1403
 5517TIP3    H238111   6.383   5.793   1.228 -1.0700  1.2995 -0.9163
 5518TIP3   OH238112   0.727   3.815   0.161 -0.4898  0.2569  0.5430
 5518TIP3    H138113   0.697   3.788   0.075  0.8200 -0.3645  0.2460
 5518TIP3    H238114   0.753   3.906   0.149  0.1865  0.0204  0.1226
 5519TIP3   OH238115   0.098   5.044   7.668 -0.1942  0.1684 -0.0759
 5519TIP3    H138116   0.068   4.996   7.591 -1.0332 -0.9620  0.9241
 5519TIP3    H238117   0.170   4.990   7.704  1.0030  1.2878 -0.7071
 5520TIP3   OH238118   3.331   5.747   0.906  0.0130 -0.0348 -0.0540
 5520TIP3    H138119   3.252   5.749   0.853 -0.3517 -0.7820  0.4379
 5520TIP3    H238120   3.346   5.838   0.932  0.1290  0.3179 -1.3162
 5521TIP3   OH238121   1.624   3.444   3.015  0.4739 -0.0222 -0.9507
 5521TIP3    H138122   1.553   3.444   2.951  0.0848 -1.7473 -0.5732
 5521TIP3    H238123   1.608   3.521   3.069 -0.9867 -0.2602 -1.0151
 5522TIP3   OH238124   0.936   6.497   1.591  0.3023  0.8713  0.0414
 5522TIP3    H138125   0.929   6.478   1.685 -0.1605 -0.1976 -0.1937
 5522TIP3    H238126   0.865   6.446   1.551  0.8556  0.8543 -0.9503
 5523TIP3   OH238127   2.015   5.270   1.738  0.1450 -0.0844  0.1300
 5523TIP3    H138128   1.949   5.282   1.670  1.1072  1.4344 -0.5693
 5523TIP3    H238129   2.090   5.232   1.693  0.7350  0.7920  0.3370
 5524TIP3   OH238130   0.500   4.995   6.905  0.0966  0.0871  0.0112
 5524TIP3    H138131   0.564   5.056   6.940 -0.1638  0.2128  0.2722
 5524TIP3    H238132   0.550   4.937   6.847  0.4085  0.3030  0.0677
 5525TIP3   OH238133   1.322   4.690   1.665  0.0868  0.7652  0.2225
 5525TIP3    H138134   1.368   4.676   1.582  0.7351  0.2236  0.6545
 5525TIP3    H238135   1.307   4.784   1.669  2.0343  1.1136  0.4875
 5526TIP3   OH238136   3.812   0.125   7.701 -0.0819 -0.3964 -0.2232
 5526TIP3    H138137   3.898   0.125   7.658  0.7184  1.8777  1.2029
 5526TIP3    H238138   3.831   0.108   7.793 -1.2532 -0.6537 -0.0136
 5527TIP3   OH238139   1.990   1.267   0.521 -0.3485  0.1606 -0.5574
 5527TIP3    H138140   1.895   1.261   0.518 -0.2963 -0.4901 -0.9577
 5527TIP3    H238141   2.013   1.243   0.611 -0.6917  2.4338  0.2079
 5528TIP3   OH238142   6.307   0.464   2.033 -0.1805  0.5579  0.0492
 5528TIP3    H138143   6.391   0.418   2.029  0.3548  1.4930  0.3008
 5528TIP3    H238144   6.317   0.538   1.973 -1.4373 -0.2752 -1.2313
 5529TIP3   OH238145   1.810   6.104   0.590 -0.2494  0.1111 -0.4647
 5529TIP3    H138146   1.854   6.094   0.506 -2.2117  0.1038 -1.5458
 5529TIP3    H238147   1.825   6.196   0.615 -1.4609  0.7480 -1.9348
 5530TIP3   OH238148   4.966   4.633   7.237 -0.1400 -0.0722 -0.0027
 5530TIP3    H138149   4.984   4.574   7.165 -0.4498 -0.4325  0.2119
 5530TIP3    H238150   5.050   4.675   7.256  0.0744 -0.4248 -0.1712
 5531TIP3   OH238151   5.736   1.190   2.760  0.4268 -0.0818  0.0805
 5531TIP3    H138152   5.669   1.123   2.746  1.3867 -0.9446 -0.5851
 5531TIP3    H238153   5.751   1.227   2.673 -0.5545  1.4808  0.5440
 5532TIP3   OH238154   3.858   2.871   7.534  0.1337 -0.3780 -0.4753
 5532TIP3    H138155   3.816   2.957   7.526 -1.5343 -1.0618  0.5598
 5532TIP3    H238156   3.837   2.827   7.451 -0.8346 -0.5503 -0.1465
 5533TIP3   OH238157   0.138   0.942   2.047 -0.2577  0.9351  0.1281
 5533TIP3    H138158   0.071   1.004   2.020 -1.3463  0.2593  1.1549
 5533TIP3    H238159   0.093   0.857   2.050  0.9674  0.2360 -0.3981
 5534TIP3   OH238160   2.414   5.058   0.388 -0.4945  0.6871  0.4891
 5534TIP3    H138161   2.474   4.985   0.375  0.7675  1.8698 -0.5662
 5534TIP3    H238162   2.362   5.061   0.308 -0.3251  1.1283  0.3923
 5535TIP3   OH238163   3.584   5.979   0.365  0.7448 -0.6376  0.1167
 5535TIP3    H138164   3.668   5.992   0.409  0.9775  1.0878 -0.7412
 5535TIP3    H238165   3.607   5.969   0.273 -0.0017  0.5351 -0.2187
 5536TIP3   OH238166   2.866   3.620   1.834 -0.6204 -0.1354 -0.2914
 5536TIP3    H138167   2.891   3.710   1.855 -0.1202 -0.1602 -0.7759
 5536TIP3    H238168   2.781   3.608   1.877 -0.9609  0.7540 -0.7027
 5537TIP3   OH238169   2.159   3.644   2.259  0.0539 -0.1759  0.0696
 5537TIP3    H138170   2.100   3.718   2.278  2.9876  2.4073 -0.1649
 5537TIP3    H238171   2.140   3.581   2.329 -0.7333  2.0059  1.9805
 5538TIP3   OH238172   4.855   2.718   0.800 -0.4529 -0.6215 -0.4220
 5538TIP3    H138173   4.802   2.672   0.734  0.3830 -0.9662 -0.8704
 5538TIP3    H238174   4.904   2.648   0.844  2.0239 -0.1065 -2.1631
 5539TIP3   OH238175   1.079   1.712   1.925  0.4189 -0.1165 -0.4764
 5539TIP3    H138176   1.067   1.626   1.885 -0.6568  0.5710 -1.7349
 5539TIP3    H238177   1.004   1.721   1.984  1.3271 -0.6151  0.7914
 5540TIP3   OH238178   1.627   4.852   0.228  0.0274  0.1322  0.2783
 5540TIP3    H138179   1.702   4.910   0.244 -0.6705  1.8611 -2.1399
 5540TIP3    H238180   1.598   4.826   0.315  4.9136 -2.7906  1.4286
 5541TIP3   OH238181   1.030   4.499   7.841  0.2305  0.3903  0.3617
 5541TIP3    H138182   0.971   4.471   7.770  0.2923  2.5803 -0.6322
 5541TIP3    H238183   1.117   4.492   7.803  0.3736  0.2081  0.7232
 5542TIP3   OH238184   2.334   4.756   1.097 -0.3916 -0.5174 -0.6769
 5542TIP3    H138185   2.345   4.801   1.013 -0.5963 -0.3730 -0.6274
 5542TIP3    H238186   2.394   4.681   1.092  1.3406  0.7553 -0.0308
 5543TIP3   OH238187   6.744   0.200   0.051 -0.1200  0.0036  0.1256
 5543TIP3    H138188   6.656   0.167   0.068 -0.2464 -0.6969 -1.6618
 5543TIP3    H238189   6.793   0.124   0.020  0.9479  0.5293  0.4465
 5544TIP3   OH238190   3.535   4.196   8.395 -0.7343 -0.2142  1.3940
 5544TIP3    H138191   3.458   4.250   8.416 -1.9830 -1.7217  0.8977
 5544TIP3    H238192   3.498   4.117   8.355  1.0427 -1.3754  1.9553
 5545TIP3   OH238193   4.153   3.408   8.397 -0.2860  0.0276 -0.2587
 5545TIP3    H138194   4.064   3.374   8.406 -0.2747  0.3800  1.7430
 5545TIP3    H238195   4.197   3.382   8.478  0.9746  1.1970 -0.5292
 5546TIP3   OH238196   0.146   6.436   1.673  0.7417 -0.4571 -0.2119
 5546TIP3    H138197   0.158   6.435   1.768 -1.6545 -0.8655  0.1529
 5546TIP3    H238198   0.090   6.361   1.655  3.0750 -1.8241 -2.3096
 5547TIP3   OH238199   0.613   6.746   2.890 -0.1498  0.5510  0.4344
 5547TIP3    H138200   0.534   6.691   2.894  0.7306 -0.8606 -0.5054
 5547TIP3    H238201   0.580   6.836   2.894 -2.1707  0.1634 -2.9927
 5548TIP3   OH238202   0.382   0.552   0.836 -0.0970  0.5530  0.1190
 5548TIP3    H138203   0.329   0.473   0.845  0.2060  0.3704  0.3294
 5548TIP3    H238204   0.329   0.611   0.782  0.2685 -0.3341 -1.2788
 5549TIP3   OH238205   4.162   1.719   2.264  0.1843 -0.4353  0.3890
 5549TIP3    H138206   4.121   1.640   2.228  1.6274 -0.7046 -0.7716
 5549TIP3    H238207   4.095   1.786   2.258  0.2085 -0.5418 -2.6227
 5550TIP3   OH238208   0.187   5.058   8.327 -0.4806 -0.1936  0.4881
 5550TIP3    H138209   0.121   4.989   8.325 -0.6371 -0.0388  0.3019
 5550TIP3    H238210   0.138   5.139   8.341 -0.2251 -0.2033  1.5292
 5551TIP3   OH238211   0.604   5.502   6.869 -0.2231 -0.3281  0.7145
 5551TIP3    H138212   0.655   5.490   6.950 -2.6160 -3.1415  2.0115
 5551TIP3    H238213   0.625   5.425   6.816 -0.4822  0.2725 -0.2794
 5552TIP3   OH238214   0.048   5.079   6.576  0.1950 -0.4613 -0.0065
 5552TIP3    H138215   0.070   5.134   6.501  1.5016 -0.2777  0.4812
 5552TIP3    H238216   0.095   5.119   6.650 -1.9949  0.0726  1.1937
 5553TIP3   OH238217   1.121   2.379   2.571  0.4025  0.0336 -0.6719
 5553TIP3    H138218   1.043   2.432   2.588  0.8160  0.5725 -0.4359
 5553TIP3    H238219   1.087   2.296   2.538 -0.2913  0.1252 -0.2013
 5554TIP3   OH238220   1.503   0.646   7.876 -0.6666  0.5981 -0.2645
 5554TIP3    H138221   1.529   0.688   7.958 -2.0098  0.5934  0.1803
 5554TIP3    H238222   1.533   0.706   7.808 -0.6434  1.2116  0.2767
 5555TIP3   OH238223   1.520   5.311   0.991 -0.1459  0.3362  0.2687
 5555TIP3    H138224   1.545   5.223   0.960 -3.4019 -0.6562  0.1035
 5555TIP3    H238225   1.490   5.356   0.913 -0.8948  0.6581  0.7325
 5556TIP3   OH238226   3.780   3.956   0.700  0.1544 -0.5653  0.2527
 5556TIP3    H138227   3.870   3.943   0.730 -0.0649 -1.9642  0.3741
 5556TIP3    H238228   3.766   3.887   0.636 -0.0368  1.1663 -1.7070
 5557TIP3   OH238229   3.705   4.563   1.268  0.0793  0.2854  0.0189
 5557TIP3    H138230   3.694   4.525   1.181 -0.4194  0.1800  0.1265
 5557TIP3    H238231   3.618   4.559   1.308 -0.0767  1.8609 -0.1035
 5558TIP3   OH238232   0.061   0.063   6.983  0.2555  0.0779 -0.3198
 5558TIP3    H138233   0.036  -0.014   7.035 -0.7984  0.1879 -0.6479
 5558TIP3    H238234  -0.019   0.090   6.939  0.7584  0.9990 -0.7041
 5559TIP3   OH238235   0.723   3.420   1.454 -0.3667  0.2084  0.2834
 5559TIP3    H138236   0.637   3.421   1.496 -0.3645  1.6445  0.3044
 5559TIP3    H238237   0.710   3.470   1.373 -0.0144 -1.2444 -0.7021
 5560TIP3   OH238238   2.957   4.108   0.113 -0.6689 -0.0381  0.2981
 5560TIP3    H138239   2.917   4.032   0.069  1.2852 -1.1737  0.3686
 5560TIP3    H238240   2.963   4.175   0.045 -1.7536 -0.1888  0.0363
 5561TIP3   OH238241   5.309   6.008   6.860  0.2230  0.1921 -0.3091
 5561TIP3    H138242   5.352   5.941   6.807  0.3603 -0.7145  0.9076
 5561TIP3    H238243   5.216   5.989   6.850  0.2991 -1.0269  1.0619
 5562TIP3   OH238244   1.025   6.167   2.199  0.8935 -0.3454 -0.0981
 5562TIP3    H138245   1.102   6.163   2.256  1.3692 -0.7306 -0.7551
 5562TIP3    H238246   0.998   6.077   2.188 -0.0233 -0.1628  0.6091
 5563TIP3   OH238247   3.476   2.229   0.291  0.8859  0.7971  0.9408
 5563TIP3    H138248   3.426   2.166   0.343  2.4640 -1.1318  0.2494
 5563TIP3    H238249   3.558   2.240   0.338  1.5498  0.5301 -0.1161
 5564TIP3   OH238250   2.349   6.718   0.841 -0.1118  0.1111 -0.2719
 5564TIP3    H138251   2.257   6.702   0.862 -0.4086  0.1330 -1.4799
 5564TIP3    H238252   2.363   6.674   0.757  0.4103  1.7873 -1.1262
 5565TIP3   OH238253   2.168   0.038   2.321 -0.6210  0.2541 -0.1011
 5565TIP3    H138254   2.104   0.086   2.373 -0.0705 -0.4629  1.3087
 5565TIP3    H238255   2.213  -0.018   2.385  0.4632 -0.2657 -1.2786
 5566TIP3   OH238256   2.693   0.412   1.103  0.2812  0.0229  0.3666
 5566TIP3    H138257   2.638   0.452   1.171 -0.0531 -1.3876  0.9716
 5566TIP3    H238258   2.722   0.486   1.050 -0.3961  1.0504  1.3508
 5567TIP3   OH238259   5.066   4.766   8.561 -0.4441 -0.3975 -0.1458
 5567TIP3    H138260   5.032   4.705   8.626  1.4287 -1.9327 -0.5071
 5567TIP3    H238261   5.066   4.716   8.479  1.0970  0.0606 -0.4591
 5568TIP3   OH238262   2.293   3.283   6.486 -0.0679 -0.5071  0.0179
 5568TIP3    H138263   2.346   3.362   6.476 -0.4934 -0.0795  1.0451
 5568TIP3    H238264   2.350   3.222   6.532  0.4663 -1.0269 -1.2913
 5569TIP3   OH238265   4.735   5.595   8.531  0.0990 -0.5010 -0.2158
 5569TIP3    H138266   4.675   5.558   8.466  1.5053 -0.4127 -1.6078
 5569TIP3    H238267   4.807   5.533   8.536 -0.6443 -1.2999  2.4534
 5570TIP3   OH238268   1.770   3.845   7.090  0.3385  0.2331 -0.7180
 5570TIP3    H138269   1.859   3.875   7.104  0.4071 -0.4727  0.5370
 5570TIP3    H238270   1.779   3.754   7.060  0.0521 -0.3839  0.9302
 5571TIP3   OH238271   4.791   0.871   7.842  0.1164  0.3134  0.3714
 5571TIP3    H138272   4.851   0.877   7.768 -1.8504  1.6072 -1.2453
 5571TIP3    H238273   4.847   0.867   7.919  2.2563 -0.9766 -1.1411
 5572TIP3   OH238274   4.950   0.371   8.345  0.0147  0.1479  0.1456
 5572TIP3    H138275   4.925   0.278   8.340 -0.9415  0.3836  0.2442
 5572TIP3    H238276   4.872   0.418   8.315  0.9138  0.8966 -1.1250
 5573TIP3   OH238277   4.376   5.783   0.191  0.0713 -0.3814  0.4501
 5573TIP3    H138278   4.370   5.688   0.192  0.4095 -0.4011  0.9214
 5573TIP3    H238279   4.359   5.809   0.282  0.4622 -0.0260  0.4237
 5574TIP3   OH238280   0.985   5.238   0.449  0.1964  0.3124 -0.4214
 5574TIP3    H138281   1.045   5.165   0.436 -1.0288 -0.8741  0.3772
 5574TIP3    H238282   1.034   5.299   0.504  2.2033  1.3871 -3.1436
 5575TIP3   OH238283   2.059   1.184   2.691  0.1842  0.2060  0.2948
 5575TIP3    H138284   2.052   1.261   2.748 -2.1165 -1.2403  2.1878
 5575TIP3    H238285   2.121   1.126   2.735 -0.4037 -0.2517  0.5481
 5576TIP3   OH238286   3.318   1.325   0.155  0.0769 -0.1942 -0.9689
 5576TIP3    H138287   3.407   1.353   0.138  0.3176  0.6808  1.3685
 5576TIP3    H238288   3.322   1.283   0.241 -1.3928 -2.0720 -1.7498
 5577TIP3   OH238289   3.098   4.242   1.561 -0.3614  0.1019  0.4931
 5577TIP3    H138290   3.149   4.205   1.488 -0.0448 -0.1778  0.8513
 5577TIP3    H238291   3.008   4.213   1.544 -0.3833  0.4783 -0.0674
 5578TIP3   OH238292   4.669   2.136   1.306 -0.1210 -0.6515  0.0307
 5578TIP3    H138293   4.697   2.145   1.397 -0.9484 -1.8134  0.4308
 5578TIP3    H238294   4.590   2.082   1.311  0.3417 -1.5257 -1.4486
 5579TIP3   OH238295   0.890   6.616   0.475  0.4759 -0.1812 -0.3018
 5579TIP3    H138296   0.834   6.657   0.541  2.0758  0.1501  0.8986
 5579TIP3    H238297   0.971   6.666   0.478  1.3412 -1.4873 -1.0568
 5580TIP3   OH238298   2.968   3.739   7.516 -0.6284  0.3026 -0.4172
 5580TIP3    H138299   3.012   3.726   7.432 -0.9589 -0.5785 -0.4661
 5580TIP3    H238300   2.877   3.759   7.492 -0.2283  2.4007 -0.3271
 5581TIP3   OH238301   0.597   6.566   0.697  0.9377  0.3783  0.3055
 5581TIP3    H138302   0.584   6.659   0.714  2.4438  0.7625 -0.4968
 5581TIP3    H238303   0.566   6.523   0.777  0.0071  1.5268  0.5990
 5582TIP3   OH238304   6.652   0.153   1.876 -0.1413  0.1850 -0.2465
 5582TIP3    H138305   6.566   0.162   1.836 -0.6156 -1.0576  0.4146
 5582TIP3    H238306   6.661   0.231   1.932  0.7291  2.1800 -2.9714
 5583TIP3   OH238307   0.230   0.175   8.327 -0.1481 -0.2614  0.1761
 5583TIP3    H138308   0.246   0.145   8.417  1.4205 -0.6731 -0.2099
 5583TIP3    H238309   0.264   0.104   8.272 -1.9379 -0.4429 -0.7720
 5584TIP3   OH238310   6.560   0.164   2.740 -0.1777 -0.0623  0.1580
 5584TIP3    H138311   6.603   0.218   2.807  2.1910 -2.7813  1.0417
 5584TIP3    H238312   6.620   0.168   2.665 -0.3975 -0.7800 -0.0568
 5585TIP3   OH238313   5.785   0.357   7.497 -0.4419  0.3707  0.2870
 5585TIP3    H138314   5.869   0.398   7.477 -0.5145 -0.0549 -0.9938
 5585TIP3    H238315   5.808   0.269   7.527 -0.3817  0.6682  1.1334
 5586TIP3   OH238316   2.060   5.555   7.806 -0.1415  0.8992 -0.4312
 5586TIP3    H138317   2.011   5.556   7.724 -0.0065 -0.7153 -0.5487
 5586TIP3    H238318   2.142   5.601   7.785 -0.4693  1.2564 -0.9541
 5587TIP3   OH238319   0.694   4.835   8.362  0.2395  0.0691  0.6341
 5587TIP3    H138320   0.763   4.840   8.428 -0.3451  2.6905  1.1600
 5587TIP3    H238321   0.659   4.746   8.371  1.7297 -0.4125  2.2326
 5588TIP3   OH238322   3.746   6.239   1.777 -0.4324 -0.4249 -0.0304
 5588TIP3    H138323   3.778   6.319   1.817  1.4445 -1.7775  1.3522
 5588TIP3    H238324   3.711   6.267   1.692  2.6257  1.5315 -0.8080
 5589TIP3   OH238325   0.968   1.984   1.947 -0.4874 -0.0927  0.1710
 5589TIP3    H138326   0.928   1.922   2.008 -0.8591 -0.5515 -0.5384
 5589TIP3    H238327   1.044   2.018   1.995  0.1100 -1.5695  0.3307
 5590TIP3   OH238328   1.519   2.382   0.479 -0.6291 -0.1741  0.5414
 5590TIP3    H138329   1.565   2.406   0.399 -0.7686 -1.0389  0.1946
 5590TIP3    H238330   1.502   2.466   0.523 -1.6794  0.4459 -0.9447
 5591TIP3   OH238331   1.116   5.596   1.605  0.0734 -0.2737  0.1139
 5591TIP3    H138332   1.046   5.595   1.540  0.3872 -0.1235 -0.2314
 5591TIP3    H238333   1.196   5.611   1.554  0.2639  0.3449  0.5922
 5592TIP3   OH238334   0.650   0.698   1.269  0.2593 -0.1863  0.0336
 5592TIP3    H138335   0.661   0.785   1.305  0.1317 -0.3779  0.5385
 5592TIP3    H238336   0.589   0.709   1.196 -1.9775 -0.2555  1.7873
 5593TIP3   OH238337   0.376   0.439   2.671 -0.1152 -0.0785 -0.1639
 5593TIP3    H138338   0.350   0.356   2.631 -0.7931 -0.4589  1.0084
 5593TIP3    H238339   0.303   0.498   2.656  0.2060  0.1983 -0.6649
 5594TIP3   OH238340   6.443   1.656   2.972  0.6929 -0.0819 -0.6780
 5594TIP3    H138341   6.441   1.561   2.958  0.1731  0.1071 -2.0279
 5594TIP3    H238342   6.380   1.671   3.043  3.7045 -1.1291  2.5011
 5595TIP3   OH238343   1.735   1.959   7.808  0.7756 -0.3016  0.0743
 5595TIP3    H138344   1.762   1.987   7.895  1.7651  0.9127 -0.5847
 5595TIP3    H238345   1.732   1.864   7.812 -0.6439 -0.2371  1.8340
 5596TIP3   OH238346   1.699   1.594   2.305 -0.4484 -0.2319 -0.0050
 5596TIP3    H138347   1.623   1.541   2.280  0.2725 -0.9628 -0.7214
 5596TIP3    H238348   1.670   1.642   2.383 -1.4166 -1.0278  0.1546
 5597TIP3   OH238349   3.155   0.269   1.762 -0.2987  0.4961  0.1456
 5597TIP3    H138350   3.110   0.328   1.702  1.4201  0.1362 -1.6465
 5597TIP3    H238351   3.220   0.324   1.806  0.4541  0.2282 -0.5931
 5598TIP3   OH238352   1.254   5.569   0.438 -0.7759 -0.3765  0.0086
 5598TIP3    H138353   1.206   5.547   0.517 -1.0840 -0.7299 -0.2700
 5598TIP3    H238354   1.189   5.561   0.368 -0.8854  1.3818 -0.1188
 5599TIP3   OH238355   6.003   3.376   8.166  0.3903 -0.5579 -0.1310
 5599TIP3    H138356   6.092   3.411   8.169  0.1239  0.1500 -0.2447
 5599TIP3    H238357   5.983   3.368   8.073 -0.1262  0.5183 -0.1251
 5600TIP3   OH238358   3.218   3.428   0.130 -0.3095  0.3427  0.5054
 5600TIP3    H138359   3.131   3.409   0.094 -0.5548  1.0906  0.6820
 5600TIP3    H238360   3.227   3.366   0.202 -0.5735  0.0538  0.2943
 5601TIP3   OH238361   3.082   3.041   2.100  0.1248  0.1628 -0.7404
 5601TIP3    H138362   3.005   2.993   2.129  0.1545  0.6768  0.2393
 5601TIP3    H238363   3.156   2.997   2.144  0.2253  0.6126 -0.4470
 5602TIP3   OH238364   5.669   3.148   8.443  0.1414  0.5615  0.0594
 5602TIP3    H138365   5.734   3.162   8.374 -0.2405  2.1756 -0.0061
 5602TIP3    H238366   5.598   3.208   8.421 -1.0481 -0.6113  0.5692
 5603TIP3   OH238367   2.665   1.604   7.833 -0.0322  0.3809  0.1126
 5603TIP3    H138368   2.686   1.674   7.771 -1.1119  1.2647  0.7265
 5603TIP3    H238369   2.749   1.581   7.872  0.4257  0.9008 -0.5421
 5604TIP3   OH238370   2.680   0.441   1.548  0.6774 -0.2641 -0.1438
 5604TIP3    H138371   2.644   0.398   1.470 -2.3780  1.2525  0.2635
 5604TIP3    H238372   2.670   0.376   1.617  1.3922 -0.8628 -0.5953
 5605TIP3   OH238373   4.851   2.405   1.934  0.2533  0.0692  0.1725
 5605TIP3    H138374   4.862   2.398   2.029 -2.4914 -0.5319  0.5075
 5605TIP3    H238375   4.898   2.486   1.911  0.4769  0.5497  2.1122
 5606TIP3   OH238376   2.286   5.200   0.073  0.3382  0.2319 -0.3561
 5606TIP3    H138377   2.318   5.234   0.157  0.1262  2.6860 -1.1833
 5606TIP3    H238378   2.357   5.146   0.040  0.3802 -0.8922  1.4289
 5607TIP3   OH238379   6.725   4.336   1.054 -0.1932 -0.2558 -0.4062
 5607TIP3    H138380   6.644   4.387   1.053 -0.1305 -0.1462  0.0978
 5607TIP3    H238381   6.793   4.397   1.025 -0.1631 -0.1312 -0.0726
 5608TIP3   OH238382   3.014   5.334   7.604 -0.1258  0.0785  0.6783
 5608TIP3    H138383   3.027   5.337   7.699  0.6564  0.7439  0.5598
 5608TIP3    H238384   2.957   5.408   7.585  0.3002  0.3756  0.5465
 5609TIP3   OH238385   2.864   3.560   1.573 -0.7162 -0.0763 -0.2462
 5609TIP3    H138386   2.852   3.585   1.665  1.0709  0.2022 -0.0599
 5609TIP3    H238387   2.796   3.494   1.557 -2.9162  1.8818  0.4351
 5610TIP3   OH238388   0.277   5.200   7.227 -0.3448 -0.1293  0.0199
 5610TIP3    H138389   0.257   5.202   7.321  0.1994  0.3872  0.1315
 5610TIP3    H238390   0.347   5.265   7.216 -0.1569 -0.4409 -0.6851
 5611TIP3   OH238391   1.451   1.603   0.019  0.1118 -0.0154  0.0579
 5611TIP3    H138392   1.414   1.515   0.010 -0.0751 -0.0564  1.1469
 5611TIP3    H238393   1.542   1.593  -0.007 -0.4113 -0.0700 -1.9336
 5612TIP3   OH238394   2.718   3.329   1.531 -0.5185 -0.4091  0.1858
 5612TIP3    H138395   2.656   3.269   1.572  0.0102  0.4130  2.3352
 5612TIP3    H238396   2.801   3.283   1.533 -0.4931 -0.3701  0.0289
 5613TIP3   OH238397   5.752   4.572   0.368 -0.3747 -0.6306 -0.1598
 5613TIP3    H138398   5.838   4.562   0.409  0.1642  2.1090 -0.4377
 5613TIP3    H238399   5.751   4.506   0.299  2.8634  1.1183 -2.1681
 5614TIP3   OH238400   1.351   2.087   7.178  0.0903 -0.1346  0.0169
 5614TIP3    H138401   1.408   2.073   7.103 -1.5485 -1.4474 -1.0799
 5614TIP3    H238402   1.331   1.999   7.209 -1.7551  0.2353 -0.0091
 5615TIP3   OH238403   1.429   2.824   8.132  0.1601 -0.4328  0.0645
 5615TIP3    H138404   1.346   2.809   8.178  0.0304  1.4782  0.5642
 5615TIP3    H238405   1.488   2.859   8.199  0.5014  0.7777 -0.8267
 5616TIP3   OH238406   6.142   5.090   1.598  0.1028 -0.7354 -0.0445
 5616TIP3    H138407   6.094   5.009   1.616  0.5598 -0.6067  1.9828
 5616TIP3    H238408   6.230   5.075   1.632  0.9884 -0.2585 -1.9547
 5617TIP3   OH238409   3.168   5.969   7.996 -0.9305  1.0749 -0.2251
 5617TIP3    H138410   3.095   5.908   8.009 -1.4328  1.5418 -0.8037
 5617TIP3    H238411   3.131   6.041   7.945 -0.0028  1.1946 -0.7670
 5618TIP3   OH238412   5.269   6.184   1.094  0.1586 -0.1249 -0.5942
 5618TIP3    H138413   5.221   6.104   1.075 -0.0399 -0.2174  0.2321
 5618TIP3    H238414   5.361   6.157   1.096  0.0917 -0.3410 -0.3090
 5619TIP3   OH238415   6.099   0.941   8.037  0.0361  0.4434  0.1085
 5619TIP3    H138416   6.090   0.998   8.114  0.7575 -0.7004  1.0847
 5619TIP3    H238417   6.194   0.930   8.028 -0.1081 -1.4638  0.6264
 5620TIP3   OH238418   3.821   0.641   8.223 -0.2392  0.1402 -0.1348
 5620TIP3    H138419   3.887   0.579   8.193 -0.3424 -0.6466  1.1910
 5620TIP3    H238420   3.869   0.723   8.235  0.1804 -0.0355 -0.5871
 5621TIP3   OH238421   2.178   2.417   7.648 -0.3054  0.2073 -0.5758
 5621TIP3    H138422   2.257   2.465   7.670  0.1428 -0.5090 -0.5844
 5621TIP3    H238423   2.126   2.477   7.595 -0.1992  1.0167  0.2236
 5622TIP3   OH238424   0.993   5.363   2.247  0.2326 -0.4388 -0.2428
 5622TIP3    H138425   1.043   5.334   2.324  0.4294  2.0876  0.6905
 5622TIP3    H238426   1.008   5.295   2.182  0.3083 -2.5373  1.8326
 5623TIP3   OH238427   1.571   6.913   8.009  0.3166 -0.3417 -0.3283
 5623TIP3    H138428   1.593   6.820   8.012 -0.1446 -0.4518 -0.3201
 5623TIP3    H238429   1.649   6.955   7.974 -0.0233 -0.9042 -1.8425
 5624TIP3   OH238430   2.831   6.164   8.145 -0.0685 -0.4487 -0.7472
 5624TIP3    H138431   2.904   6.182   8.084 -0.3125  2.8184 -0.2575
 5624TIP3    H238432   2.756   6.150   8.088  0.4321 -1.3793 -1.2119
 5625TIP3   OH238433   4.748   6.179   7.485  0.1327  0.3450 -0.2641
 5625TIP3    H138434   4.723   6.136   7.567  0.4839 -1.5906 -1.1068
 5625TIP3    H238435   4.794   6.258   7.512 -0.4616  0.1694  1.3869
 5626TIP3   OH238436   4.983   5.902   0.724 -0.0017 -0.1209  0.1700
 5626TIP3    H138437   4.933   5.947   0.792  1.3813  0.8007  0.6197
 5626TIP3    H238438   5.073   5.931   0.736  0.8468 -2.3939 -0.0541
 5627TIP3   OH238439   2.504   6.027   1.959 -0.1645  0.2335  0.3093
 5627TIP3    H138440   2.520   5.933   1.949 -0.7496  0.1988 -0.3902
 5627TIP3    H238441   2.468   6.036   2.047  1.7765  0.0757  1.1844
 5628TIP3   OH238442   5.715   6.855   7.203  0.2425 -0.5956  0.2821
 5628TIP3    H138443   5.628   6.825   7.226 -0.2589  1.1697  0.8971
 5628TIP3    H238444   5.773   6.815   7.269 -0.3753 -0.2776  1.0355
 5629TIP3   OH238445   4.542   3.745   1.924  0.0734  0.4503  0.4109
 5629TIP3    H138446   4.513   3.811   1.987 -2.6521  0.6115 -0.8680
 5629TIP3    H238447   4.635   3.765   1.909 -0.2474  2.9484  1.2866
 5630TIP3   OH238448   3.243   2.236   0.137 -0.3470  0.3436  0.2779
 5630TIP3    H138449   3.324   2.241   0.189  0.3197 -1.1377 -0.5296
 5630TIP3    H238450   3.174   2.218   0.201 -0.0213  1.4787  0.9648
 5631TIP3   OH238451   5.090   0.970   0.187 -0.1956  0.3774  0.1577
 5631TIP3    H138452   5.110   0.947   0.277  1.0086 -1.2377 -0.4815
 5631TIP3    H238453   5.016   0.915   0.163 -0.7175  1.0322  0.2496
 5632TIP3   OH238454   4.730   6.685   8.162 -0.4212  0.0348 -0.3100
 5632TIP3    H138455   4.659   6.743   8.136 -0.5131 -0.2406 -0.6748
 5632TIP3    H238456   4.691   6.626   8.227  0.1427  1.5916  1.5234
 5633TIP3   OH238457   3.823   2.812   8.147 -0.1322  0.2202 -0.3041
 5633TIP3    H138458   3.841   2.732   8.197  1.9542  0.6818 -0.2636
 5633TIP3    H238459   3.727   2.813   8.139 -0.1977 -2.5864 -0.8151
 5634TIP3   OH238460   3.705   0.169   1.372 -0.0621 -0.0342 -0.4528
 5634TIP3    H138461   3.695   0.254   1.330 -0.7190 -0.5856 -1.4620
 5634TIP3    H238462   3.715   0.189   1.465  0.1250  1.1545 -0.7152
 5635TIP3   OH238463   4.675   0.081   2.153  0.4360 -0.1663 -0.0916
 5635TIP3    H138464   4.700   0.043   2.069 -1.1022 -0.6112 -0.3734
 5635TIP3    H238465   4.629   0.011   2.199 -2.8056  1.2905 -0.7709
 5636TIP3   OH238466   5.379   2.458   7.239  0.6117  0.1040  0.2792
 5636TIP3    H138467   5.387   2.373   7.283 -0.4969  0.3006  0.9081
 5636TIP3    H238468   5.362   2.520   7.310 -1.0906  0.4498 -0.3863
 5637TIP3   OH238469   0.227   0.210   1.749 -0.2324 -0.4624 -0.0714
 5637TIP3    H138470   0.285   0.233   1.676 -0.2708 -0.9124 -0.2450
 5637TIP3    H238471   0.170   0.142   1.713 -0.1297 -0.8140  0.4353
 5638TIP3   OH238472   6.864   4.134   8.088  0.3185 -0.2521  0.3316
 5638TIP3    H138473   6.789   4.173   8.133 -0.2765 -0.5938 -0.3469
 5638TIP3    H238474   6.859   4.169   7.999  1.2706  0.1247  0.4184
 5639TIP3   OH238475   2.768   2.393   0.856 -0.3675  0.0112 -0.1346
 5639TIP3    H138476   2.753   2.474   0.906  0.8661  0.8144 -1.0203
 5639TIP3    H238477   2.680   2.363   0.832 -0.9508  0.0671  1.7548
 5640TIP3   OH238478   1.985   2.570   7.483  0.7374  0.4063  0.5422
 5640TIP3    H138479   1.915   2.550   7.545  1.5457  1.9177  2.0197
 5640TIP3    H238480   1.944   2.563   7.397 -1.1143  0.8540  1.3509
 5641TIP3   OH238481   4.869   2.910   7.766  0.0062 -0.0228 -0.2144
 5641TIP3    H138482   4.926   2.959   7.706 -0.1594 -0.1773 -0.5009
 5641TIP3    H238483   4.835   2.977   7.826  1.2548 -0.0839  0.5763
 5642TIP3   OH238484   5.791   5.539   8.522 -0.2732 -0.5226 -0.3307
 5642TIP3    H138485   5.701   5.528   8.554 -0.2449 -0.5007 -0.2422
 5642TIP3    H238486   5.822   5.449   8.509  0.6917 -0.7005  2.4693
 5643TIP3   OH238487   4.170   2.060   1.073  0.7494  0.0045  0.4334
 5643TIP3    H138488   4.115   2.040   0.997 -0.2495 -2.3976  1.6828
 5643TIP3    H238489   4.257   2.028   1.048  0.1696 -1.8628  0.6794
 5644TIP3   OH238490   2.774   3.272   7.749  0.7754  0.4857  0.2336
 5644TIP3    H138491   2.867   3.257   7.763  0.9723  0.7858 -0.6602
 5644TIP3    H238492   2.766   3.366   7.732  0.3527  0.4138  0.0055
 5645TIP3   OH238493   0.767   3.094   7.700  0.1905  0.1496  0.6995
 5645TIP3    H138494   0.707   3.115   7.628  0.8736  1.0766  0.3899
 5645TIP3    H238495   0.816   3.018   7.668 -0.1814 -0.0527  0.5945
 5646TIP3   OH238496   6.539   6.568   8.303  0.1328  0.1212  0.0322
 5646TIP3    H138497   6.564   6.582   8.212 -0.5265 -0.1275 -0.1987
 5646TIP3    H238498   6.532   6.473   8.312  1.4089  0.0638  0.6960
 5647TIP3   OH238499   5.059   6.699   2.406  0.3838 -0.1764  0.5523
 5647TIP3    H138500   5.124   6.719   2.339  1.3519  4.1360  2.4176
 5647TIP3    H238501   4.980   6.745   2.378 -0.7948 -2.2390  0.2157
 5648TIP3   OH238502   6.894   1.114   1.608  0.5124  0.0240  0.2267
 5648TIP3    H138503   6.981   1.084   1.633  0.2128 -0.8090  0.2792
 5648TIP3    H238504   6.909   1.165   1.528  0.9402 -0.8928 -0.2976
 5649TIP3   OH238505   0.875   1.858   7.858  0.4963 -0.1129 -0.1727
 5649TIP3    H138506   0.919   1.873   7.774  0.0409  0.2853 -0.3471
 5649TIP3    H238507   0.877   1.944   7.901 -1.9826  0.4825 -1.0963
 5650TIP3   OH238508   3.548   0.192   0.597 -0.0426  0.3164 -0.5219
 5650TIP3    H138509   3.576   0.250   0.526  1.4638 -0.3881 -0.5461
 5650TIP3    H238510   3.560   0.243   0.676  5.2015 -1.0186 -0.0847
 5651TIP3   OH238511   2.668   1.354   7.607  0.2258  0.2044  0.0362
 5651TIP3    H138512   2.647   1.292   7.537 -0.1956 -0.0455  0.3722
 5651TIP3    H238513   2.761   1.343   7.623  0.6897  1.4358 -1.6025
 5652TIP3   OH238514   0.445   6.805   8.000  0.0159  0.2144 -0.6152
 5652TIP3    H138515   0.427   6.851   8.083  2.0438  0.9362 -0.5221
 5652TIP3    H238516   0.540   6.794   7.999 -0.2524 -2.8518 -1.2857
 5653TIP3   OH238517   5.234   2.636   0.914  0.5599 -0.5821 -0.0856
 5653TIP3    H138518   5.234   2.724   0.951  1.4114 -0.5580 -0.1280
 5653TIP3    H238519   5.233   2.649   0.820 -0.3772 -0.6346 -0.0917
 5654TIP3   OH238520   5.550   0.645   0.276 -0.5490 -0.5682  0.3324
 5654TIP3    H138521   5.575   0.674   0.188  2.4220 -2.8445  0.2651
 5654TIP3    H238522   5.576   0.717   0.333 -0.4842  0.0383 -0.4373
 5655TIP3   OH238523   6.643   0.376   0.259 -0.4566 -0.1736  0.4459
 5655TIP3    H138524   6.664   0.358   0.167 -1.0471 -0.4893  0.3703
 5655TIP3    H238525   6.570   0.317   0.279  0.1407 -0.6280  1.3325
 5656TIP3   OH238526   1.891   2.523   8.346  0.3166 -0.0095  0.0582
 5656TIP3    H138527   1.958   2.562   8.289 -0.7068 -1.7077 -2.4758
 5656TIP3    H238528   1.826   2.592   8.357  1.9973  1.4007  1.9003
 5657TIP3   OH238529   3.714   2.473   2.829 -0.1488 -0.0624  0.3547
 5657TIP3    H138530   3.645   2.466   2.896  1.3155 -1.2864  1.8230
 5657TIP3    H238531   3.719   2.567   2.810 -1.6136  0.1502  0.8373
 5658TIP3   OH238532   1.874   1.686   8.387  0.4124 -0.3769  0.1463
 5658TIP3    H138533   1.938   1.758   8.392  0.2464 -0.2306  0.1718
 5658TIP3    H238534   1.905   1.631   8.314  1.2847 -1.0054  0.9681
 5659TIP3   OH238535   0.990   4.104   0.479  0.4736  0.1476  0.4599
 5659TIP3    H138536   0.984   4.016   0.515 -1.1723 -0.6668 -1.5929
 5659TIP3    H238537   0.902   4.140   0.487  0.7550  1.0170 -0.1427
 5660TIP3   OH238538   1.811   2.871   7.568  0.0639  0.1215 -0.4978
 5660TIP3    H138539   1.844   2.937   7.629  0.9554 -2.1794  1.7010
 5660TIP3    H238540   1.774   2.803   7.624 -1.1097 -1.1339 -2.6477
 5661TIP3   OH238541   1.315   5.485   1.762 -0.5276  0.1847 -0.3279
 5661TIP3    H138542   1.367   5.565   1.776 -0.8421  0.2647  0.3831
 5661TIP3    H238543   1.242   5.514   1.708 -0.2787  0.2382 -0.6404
 5662TIP3   OH238544   5.376   2.227   7.381  0.1398 -0.0025 -0.7043
 5662TIP3    H138545   5.469   2.215   7.401 -0.1175 -1.0228 -0.0378
 5662TIP3    H238546   5.338   2.139   7.389 -0.6883  0.2018 -2.0540
 5663TIP3   OH238547   1.451   0.283   2.348  0.3863 -0.4770  0.2962
 5663TIP3    H138548   1.442   0.341   2.272 -0.1429  0.6960  1.2357
 5663TIP3    H238549   1.454   0.195   2.310 -2.5001 -0.1377 -0.9407
 5664TIP3   OH238550   2.551   5.532   8.134  0.6687 -0.1644  0.2392
 5664TIP3    H138551   2.625   5.543   8.194  1.0386 -2.5533  0.3119
 5664TIP3    H238552   2.542   5.437   8.124 -2.3077  0.0461  0.1087
 5665TIP3   OH238553   2.349   2.683   1.222 -0.5151 -0.0283  0.2144
 5665TIP3    H138554   2.335   2.616   1.289  0.4024  0.0901  0.5345
 5665TIP3    H238555   2.401   2.639   1.155 -1.6102 -0.2119 -0.5548
 5666TIP3   OH238556   3.390   6.274   7.645 -0.1045  0.3117  0.1088
 5666TIP3    H138557   3.337   6.281   7.565 -2.6664 -1.0228  1.5638
 5666TIP3    H238558   3.404   6.180   7.656  0.3326  0.4867  1.1369
 5667TIP3   OH238559   5.566   6.177   7.434  0.2751 -0.0403 -0.5159
 5667TIP3    H138560   5.508   6.106   7.405 -1.9221  1.1810  0.6074
 5667TIP3    H238561   5.541   6.193   7.525  0.8575  2.0018 -0.6633
 5668TIP3   OH238562   6.197   1.531   7.271 -0.5729  0.8411  0.4543
 5668TIP3    H138563   6.253   1.473   7.220 -1.3738  0.7410 -0.3482
 5668TIP3    H238564   6.109   1.494   7.261 -0.5774 -0.0656  3.2007
 5669TIP3   OH238565   1.864   5.221   0.032 -0.6514  0.2810  0.1023
 5669TIP3    H138566   1.930   5.284   0.063 -1.3385  0.8700  0.4063
 5669TIP3    H238567   1.902   5.184  -0.048  0.5792 -0.3026  0.9309
 5670TIP3   OH238568   4.273   3.223   2.231  0.3832  0.3037 -0.2330
 5670TIP3    H138569   4.212   3.155   2.203  0.8728 -1.0136  1.6961
 5670TIP3    H238570   4.230   3.263   2.307  0.2191  2.0284 -1.1887
 5671TIP3   OH238571   4.105   2.508   8.455 -0.5036 -0.1878 -0.3207
 5671TIP3    H138572   4.187   2.553   8.436 -0.0662 -0.6788  0.3530
 5671TIP3    H238573   4.118   2.470   8.542 -2.0651  1.1212  0.5357
 5672TIP3   OH238574   2.094   4.278   1.113 -0.2826  0.6421  0.3166
 5672TIP3    H138575   2.075   4.342   1.181 -0.5554  0.6948  0.1928
 5672TIP3    H238576   2.159   4.321   1.058 -0.9348  1.0800 -0.1375
 5673TIP3   OH238577   4.383   0.980   0.657  0.1085  0.4179 -0.2145
 5673TIP3    H138578   4.413   0.889   0.649 -0.1716  0.3987 -1.1671
 5673TIP3    H238579   4.429   1.026   0.588 -0.4702  0.8137 -0.3359
 5674TIP3   OH238580   5.035   3.335   0.718  0.0764 -0.6347  0.6524
 5674TIP3    H138581   5.129   3.351   0.721  0.1231 -0.8592  0.3990
 5674TIP3    H238582   5.016   3.315   0.626 -0.3828  0.3934  0.5135
 5675TIP3   OH238583   4.097   2.779   1.026 -0.5397  0.0595 -0.7288
 5675TIP3    H138584   4.143   2.760   0.945 -2.2437  0.4217 -1.8248
 5675TIP3    H238585   4.115   2.871   1.043  0.2419 -0.1477 -0.3964
 5676TIP3   OH238586   5.725   5.330   1.813  1.0837 -0.4216 -0.5753
 5676TIP3    H138587   5.638   5.345   1.777  0.8249 -1.3390 -0.3535
 5676TIP3    H238588   5.781   5.316   1.737  1.1537  0.7148 -0.7427
 5677TIP3   OH238589   2.793   6.528   0.652 -0.2562 -0.3325  0.2478
 5677TIP3    H138590   2.733   6.464   0.690 -0.7692 -0.7579 -1.2079
 5677TIP3    H238591   2.762   6.540   0.562  0.7982  0.7601 -0.0008
 5678TIP3   OH238592   0.541   0.769   2.046  0.1600  0.1606 -0.2466
 5678TIP3    H138593   0.602   0.831   2.087  0.3653  0.2407 -0.6707
 5678TIP3    H238594   0.454   0.809   2.058 -0.0313 -0.7918  1.9294
 5679TIP3   OH238595   3.612   3.489   7.741 -0.5771  0.6288 -0.1840
 5679TIP3    H138596   3.698   3.521   7.714 -0.6139 -0.7898 -2.2415
 5679TIP3    H238597   3.551   3.556   7.711 -0.4153  0.1326 -1.7047
 5680TIP3   OH238598   3.647   3.942   6.861 -0.8336 -0.3649 -0.2625
 5680TIP3    H138599   3.599   3.955   6.943  1.4090 -0.0682  1.0940
 5680TIP3    H238600   3.649   4.029   6.821 -0.7902 -0.2200  0.0504
 5681TIP3   OH238601   4.044   2.535   0.884 -0.0952 -0.5323 -0.2531
 5681TIP3    H138602   3.960   2.490   0.890 -0.7692  0.8672  1.6821
 5681TIP3    H238603   4.040   2.604   0.950  2.0085  0.5353 -1.1217
 5682TIP3   OH238604   0.364   2.544   8.522  0.1050  0.5681  0.0907
 5682TIP3    H138605   0.422   2.578   8.590  0.5643  1.1849 -0.5796
 5682TIP3    H238606   0.411   2.563   8.440  0.2651 -1.4626 -0.3527
 5683TIP3   OH238607   6.876   1.823   2.459  0.4951  0.3962 -0.1150
 5683TIP3    H138608   6.834   1.899   2.499  1.9154  1.2707 -0.2109
 5683TIP3    H238609   6.809   1.755   2.461 -0.5289  1.3827  0.7758
 5684TIP3   OH238610   0.854   2.565   8.134  0.6709 -0.1435 -0.0068
 5684TIP3    H138611   0.797   2.624   8.184  0.4775 -0.7805  0.5407
 5684TIP3    H238612   0.793   2.504   8.092  0.8660  0.0863 -0.6365
 5685TIP3   OH238613   6.505   5.986   8.393  0.2574 -0.2916  0.0189
 5685TIP3    H138614   6.476   6.033   8.471  2.3565  1.5348 -0.2124
 5685TIP3    H238615   6.434   5.999   8.330 -0.1267  0.8023  0.6460
 5686TIP3   OH238616   0.585   0.772   0.757  0.3976  0.1185 -0.5580
 5686TIP3    H138617   0.675   0.800   0.743  1.5006 -1.2101  2.7832
 5686TIP3    H238618   0.581   0.684   0.719  1.7045 -1.2593  2.1895
 5687TIP3   OH238619   2.577   5.584   7.430 -0.0764 -0.0810 -0.0766
 5687TIP3    H138620   2.532   5.669   7.434 -2.0872 -0.8142 -3.4316
 5687TIP3    H238621   2.634   5.591   7.353 -1.0347 -2.0512 -1.0270
 5688TIP3   OH238622   2.103   5.923   1.639 -0.2058 -0.0241  0.1980
 5688TIP3    H138623   2.148   5.956   1.716  0.9051 -0.5083 -0.2176
 5688TIP3    H238624   2.173   5.886   1.585 -0.6833  2.0211 -1.9636
 5689TIP3   OH238625   4.022   5.382   0.156  0.4360 -0.7735  0.0357
 5689TIP3    H138626   4.059   5.414   0.239  0.4472 -0.7040  0.0039
 5689TIP3    H238627   3.930   5.368   0.175  0.6354 -1.6994  0.3351
 5690TIP3   OH238628   2.821   6.825   0.622 -0.7917  0.3597  0.7312
 5690TIP3    H138629   2.799   6.812   0.714  0.4454 -0.6975  0.8911
 5690TIP3    H238630   2.778   6.753   0.576  0.6916 -0.6188  0.8193
 5691TIP3   OH238631   5.298   5.189   1.485  0.6124 -0.1318  0.2117
 5691TIP3    H138632   5.216   5.144   1.465  0.6152  0.4438 -1.1899
 5691TIP3    H238633   5.347   5.188   1.402  1.7053  0.1903  0.8310
 5692TIP3   OH238634   1.919   0.259   2.981 -0.0814 -0.1218  0.2077
 5692TIP3    H138635   1.873   0.186   3.025  1.9895 -2.7032 -1.6368
 5692TIP3    H238636   1.856   0.291   2.917 -0.8504 -0.5950  0.6984
 5693TIP3   OH238637   6.505   5.303   1.584 -0.3085 -1.0078 -0.8416
 5693TIP3    H138638   6.428   5.345   1.623  0.5798  1.4620 -1.6097
 5693TIP3    H238639   6.561   5.282   1.659  0.6973  2.3107 -0.5101
 5694TIP3   OH238640   6.673   0.608   2.599  0.7162 -0.0295 -0.2893
 5694TIP3    H138641   6.646   0.625   2.689 -0.0889  0.3922 -0.6056
 5694TIP3    H238642   6.591   0.589   2.553  0.9850  0.9202 -1.1905
 5695TIP3   OH238643   5.820   2.291   2.528 -0.2015 -0.1346 -0.0931
 5695TIP3    H138644   5.858   2.349   2.594  0.5330 -1.0995  0.3483
 5695TIP3    H238645   5.763   2.349   2.476  1.5714  1.3002 -0.5626
 5696TIP3   OH238646   2.316   2.895   0.150  0.1387  0.2649  0.5344
 5696TIP3    H138647   2.274   2.884   0.064  0.0121 -3.0654  0.8936
 5696TIP3    H238648   2.404   2.860   0.138  0.1604 -0.1319  1.7144
 5697TIP3   OH238649   3.888   5.542   7.774 -0.0288 -0.3074 -0.0616
 5697TIP3    H138650   3.846   5.498   7.700 -0.3244 -0.8510  0.4181
 5697TIP3    H238651   3.910   5.629   7.741  1.0851 -0.9883 -1.2070
 5698TIP3   OH238652   1.016   6.395   6.926 -0.5737  0.3467 -0.1558
 5698TIP3    H138653   1.019   6.490   6.922 -1.9561  0.4944  1.2821
 5698TIP3    H238654   0.922   6.374   6.925 -0.3075 -0.9508  0.2286
 5699TIP3   OH238655   2.067   2.615   0.882  0.3870 -0.1438  0.3973
 5699TIP3    H138656   2.017   2.570   0.950 -0.5918  0.5981  0.2012
 5699TIP3    H238657   2.110   2.687   0.927  1.0365 -0.5951  0.5086
 5700TIP3   OH238658   4.049   0.149   7.533  0.3638 -0.4338 -0.0786
 5700TIP3    H138659   3.990   0.212   7.491  0.2537 -0.9621 -0.7250
 5700TIP3    H238660   4.136   0.177   7.506  0.3566 -0.1819  0.1534
 5701TIP3   OH238661   2.453   2.749   2.037  0.1321 -0.2724  0.6216
 5701TIP3    H138662   2.536   2.769   2.082 -0.0142  0.5224  0.5608
 5701TIP3    H238663   2.480   2.713   1.953  0.4630  1.6705 -0.1545
 5702TIP3   OH238664   0.092   5.456   7.421 -0.1993 -0.4318 -0.2279
 5702TIP3    H138665   0.085   5.442   7.327  1.1522  2.9872 -0.9845
 5702TIP3    H238666   0.032   5.529   7.438  0.1113 -0.5332  1.4662
 5703TIP3   OH238667   4.835   3.823   8.208  0.0876 -0.2481  0.0141
 5703TIP3    H138668   4.832   3.810   8.113 -1.8491  0.1096 -0.0222
 5703TIP3    H238669   4.785   3.750   8.244 -1.1305  0.8394  0.5821
 5704TIP3   OH238670   6.545   4.789   0.978 -0.7019  0.0611  0.5228
 5704TIP3    H138671   6.616   4.740   0.937  0.0231  2.3860 -1.2176
 5704TIP3    H238672   6.585   4.831   1.054 -0.5317  0.4157  0.2357
 5705TIP3   OH238673   5.798   3.678   6.737  0.4070  0.3427 -0.1451
 5705TIP3    H138674   5.722   3.729   6.708  0.2291 -0.3434 -0.9290
 5705TIP3    H238675   5.761   3.606   6.787  0.5167 -0.1072 -0.7001
 5706TIP3   OH238676   2.811   2.579   0.459  0.0914 -1.1412  0.2803
 5706TIP3    H138677   2.717   2.562   0.468 -0.3466 -1.3919 -3.2116
 5706TIP3    H238678   2.823   2.665   0.498 -1.7925 -0.7132  0.0472
 5707TIP3   OH238679   2.916   4.600   7.237  0.2534 -0.4266  0.0956
 5707TIP3    H138680   2.841   4.633   7.288 -0.3036 -1.6536  0.1223
 5707TIP3    H238681   2.919   4.506   7.258  3.1199 -0.0832  1.7526
 5708TIP3   OH238682   0.858   6.794   1.633  0.0584  0.0327  0.3960
 5708TIP3    H138683   0.874   6.756   1.719 -0.9826 -1.7372 -0.1421
 5708TIP3    H238684   0.838   6.719   1.577  0.9633  1.1165 -1.4560
 5709TIP3   OH238685   4.456   5.115   0.639 -0.7417  0.4378 -0.1007
 5709TIP3    H138686   4.390   5.046   0.646  0.7496 -0.8979  2.3677
 5709TIP3    H238687   4.523   5.079   0.580 -0.2638  0.0005  0.6925
 5710TIP3   OH238688   3.637   0.007   0.874 -0.4192  0.3045  0.0130
 5710TIP3    H138689   3.625   0.075   0.941  2.4071  0.3166  0.6127
 5710TIP3    H238690   3.598  -0.071   0.913 -0.6111  0.7706  0.7914
 5711TIP3   OH238691   3.168   1.763   1.842 -0.2295 -0.2475 -0.2096
 5711TIP3    H138692   3.155   1.669   1.832 -2.5912 -0.0821  0.6447
 5711TIP3    H238693   3.083   1.795   1.874  1.2147  1.8155  1.8216
 5712TIP3   OH238694   3.123   0.661   0.282  0.0670  0.3566 -0.0161
 5712TIP3    H138695   3.093   0.571   0.272  0.0205  0.3632  0.0645
 5712TIP3    H238696   3.142   0.690   0.193  0.2928  0.1958 -0.0224
 5713TIP3   OH238697   4.208   6.556   7.670  0.1136  0.2568 -0.1364
 5713TIP3    H138698   4.280   6.495   7.689 -0.5611 -0.7543 -0.6970
 5713TIP3    H238699   4.170   6.522   7.589 -0.7846  0.9689 -0.0167
 5714TIP3   OH238700   1.760   6.863   0.960  1.0306  0.0724  0.6027
 5714TIP3    H138701   1.747   6.927   0.890 -0.5943 -0.5193  0.3127
 5714TIP3    H238702   1.797   6.786   0.917 -1.2879 -0.8187  0.0516
 5715TIP3   OH238703   4.376   2.821   7.743  0.0428 -0.2638 -0.3571
 5715TIP3    H138704   4.298   2.776   7.710  0.6231 -0.3367 -1.7085
 5715TIP3    H238705   4.440   2.751   7.756 -0.2132 -0.2539  1.1154
 5716TIP3   OH238706   3.700   0.639   1.650  0.2129 -0.0723  0.2431
 5716TIP3    H138707   3.767   0.707   1.639 -1.3031  1.5842  0.6449
 5716TIP3    H238708   3.746   0.566   1.690  2.8009 -0.8872 -3.6680
 5717TIP3   OH238709   0.101   4.416   7.525 -0.2658 -1.1993  0.0819
 5717TIP3    H138710   0.124   4.401   7.617  0.5112 -1.0684 -0.0823
 5717TIP3    H238711   0.159   4.488   7.498 -0.5158 -1.2164 -0.4974
 5718TIP3   OH238712   2.246   6.087   0.941  0.4387  0.4707  0.2775
 5718TIP3    H138713   2.332   6.052   0.915  0.5221  1.5709 -1.0980
 5718TIP3    H238714   2.198   6.093   0.858 -1.4370 -1.2347  1.1636
 5719TIP3   OH238715   4.905   2.429   6.905 -0.0621 -0.1691 -0.5643
 5719TIP3    H138716   4.873   2.518   6.888  1.1103  0.3540 -0.1827
 5719TIP3    H238717   4.951   2.404   6.825  0.9866  0.2296 -0.1124
 5720TIP3   OH238718   5.800   1.398   0.669  0.0607 -0.0274  0.5752
 5720TIP3    H138719   5.787   1.473   0.727 -0.4311 -1.3788  2.3007
 5720TIP3    H238720   5.888   1.367   0.688  0.3624  0.2425 -0.3242
 5721TIP3   OH238721   5.795   1.542   2.531  0.8104 -0.4866  0.3148
 5721TIP3    H138722   5.831   1.542   2.620 -1.0166  0.0429  1.1082
 5721TIP3    H238723   5.781   1.635   2.511 -2.9219 -0.6468  1.3562
 5722TIP3   OH238724   3.320   0.181   0.963 -0.3838  0.5856  0.7910
 5722TIP3    H138725   3.303   0.248   0.897  0.3524  0.0313  0.0193
 5722TIP3    H238726   3.286   0.100   0.924  0.0952  0.2479  1.0674
 5723TIP3   OH238727   3.442   0.584   0.221  0.0831  0.3186  0.0015
 5723TIP3    H138728   3.382   0.629   0.280 -0.1880  0.4604 -0.3732
 5723TIP3    H238729   3.461   0.500   0.263 -1.3663 -0.2633 -0.4540
 5724TIP3   OH238730   6.683   3.659   7.112 -0.1854 -0.1534 -0.5916
 5724TIP3    H138731   6.681   3.576   7.063 -1.0594 -0.2457 -0.4225
 5724TIP3    H238732   6.752   3.710   7.070  1.3101 -1.4753  0.1713
 5725TIP3   OH238733   4.103   6.626   0.225 -0.2563 -0.3407  0.3465
 5725TIP3    H138734   4.086   6.714   0.191 -2.1445  0.5307  3.1507
 5725TIP3    H238735   4.197   6.614   0.213 -0.4191  0.7441 -2.8752
 5726TIP3   OH238736   2.297   2.018   0.559  0.3370  0.3380 -0.3637
 5726TIP3    H138737   2.282   1.978   0.645 -0.1624  0.5024 -0.3722
 5726TIP3    H238738   2.370   1.969   0.522  0.5283  0.2382  0.1382
 5727TIP3   OH238739   6.378   4.227   2.405  0.3569  0.0460  0.7801
 5727TIP3    H138740   6.287   4.200   2.397 -0.2027  0.8215  3.6014
 5727TIP3    H238741   6.427   4.145   2.413  0.0206 -0.3866 -1.0665
 5728TIP3   OH238742   3.626   5.980   2.817 -0.0348 -0.2696 -0.0835
 5728TIP3    H138743   3.621   6.073   2.794 -0.3824  0.1787  1.6338
 5728TIP3    H238744   3.712   5.970   2.858 -0.2017 -0.5795  0.1978
 5729TIP3   OH238745   0.195   5.975   7.843 -0.1773  0.1846  0.1637
 5729TIP3    H138746   0.168   5.885   7.825 -1.4166  0.5833 -0.0655
 5729TIP3    H238747   0.280   5.984   7.800 -0.2410 -0.7528 -0.1685
 5730TIP3   OH238748   5.928   5.262   1.616  0.3125 -0.0953 -0.3745
 5730TIP3    H138749   6.016   5.227   1.628  0.6994  0.2571 -2.0202
 5730TIP3    H238750   5.886   5.202   1.554 -0.8650 -0.6344  0.8739
 5731TIP3   OH238751   2.082   4.550   0.182 -0.1468 -0.2156  0.1007
 5731TIP3    H138752   2.026   4.616   0.221  0.5497 -0.3510  1.3899
 5731TIP3    H238753   2.159   4.598   0.150  0.5346 -0.4246  1.3802
 5732TIP3   OH238754   1.092   0.097   0.013  0.7135  0.4314  0.7570
 5732TIP3    H138755   1.062   0.077   0.101  0.4164 -0.0054  0.5605
 5732TIP3    H238756   1.014   0.124  -0.034  0.3435 -1.9404 -0.1071
 5733TIP3   OH238757   6.639   6.511   0.728 -0.6207  0.0356 -0.1515
 5733TIP3    H138758   6.668   6.484   0.815 -1.5143 -0.3898  0.0254
 5733TIP3    H238759   6.561   6.458   0.711 -0.7828  0.5203 -0.9745
 5734TIP3   OH238760   3.495   1.762   7.547 -0.5582  0.2609  0.3895
 5734TIP3    H138761   3.428   1.750   7.480 -0.6327  0.3211  0.4527
 5734TIP3    H238762   3.577   1.748   7.502 -0.5902  0.6744  0.1968
 5735TIP3   OH238763   2.580   5.649   2.608  0.3820 -0.0587  0.0420
 5735TIP3    H138764   2.577   5.703   2.687  0.9303  0.0865 -0.0356
 5735TIP3    H238765   2.526   5.698   2.545 -0.1748 -0.2487  0.3671
 5736TIP3   OH238766   2.398   0.460   1.905 -0.1798 -0.6662  0.5792
 5736TIP3    H138767   2.486   0.482   1.875 -0.0678 -0.5563  0.9844
 5736TIP3    H238768   2.340   0.522   1.861 -0.3332 -2.2271 -1.5568
 5737TIP3   OH238769   5.933   2.927   7.352 -0.6415 -0.3974  0.5835
 5737TIP3    H138770   5.891   2.850   7.390 -4.0983 -0.7410 -3.2137
 5737TIP3    H238771   5.994   2.891   7.287 -0.4731  0.0766  0.4760
 5738TIP3   OH238772   1.861   2.400   0.335 -0.0862 -0.4183 -0.0692
 5738TIP3    H138773   1.782   2.410   0.283 -0.4915 -1.7276  0.2681
 5738TIP3    H238774   1.891   2.490   0.351 -1.1448  0.0638 -0.7241
 5739TIP3   OH238775   2.445   3.223   8.339  0.6870 -0.3349  0.1661
 5739TIP3    H138776   2.479   3.272   8.414 -0.6791 -0.4763  0.9047
 5739TIP3    H238777   2.364   3.268   8.316  0.0646 -1.4795  0.0595
 5740TIP3   OH238778   1.206   2.311   8.195 -0.1260  0.5008  0.3939
 5740TIP3    H138779   1.167   2.396   8.216  0.6372  0.7289  0.9191
 5740TIP3    H238780   1.171   2.290   8.109  0.9505  2.1319 -0.4940
 5741TIP3   OH238781   5.696   1.167   7.413  0.0707 -0.1655 -0.0590
 5741TIP3    H138782   5.791   1.175   7.405  0.1430  0.7914  1.3946
 5741TIP3    H238783   5.683   1.081   7.452  0.3410 -0.2286 -0.1048
 5742TIP3   OH238784   3.707   4.692   7.961  0.5112  0.1339  0.3116
 5742TIP3    H138785   3.655   4.682   7.881  0.7179  0.7237  0.0970
 5742TIP3    H238786   3.724   4.603   7.990 -0.9515 -0.0815  0.5948
 5743TIP3   OH238787   3.643   0.959   1.532  0.4525  0.1409  0.7868
 5743TIP3    H138788   3.701   0.995   1.466 -0.4310 -0.1072 -0.1557
 5743TIP3    H238789   3.701   0.933   1.604  1.6387 -1.1847 -0.5967
 5744TIP3   OH238790   1.540   1.732   1.072 -0.0749 -0.1043  0.1422
 5744TIP3    H138791   1.478   1.673   1.030 -0.6096  0.2150  0.4710
 5744TIP3    H238792   1.533   1.814   1.023 -1.3801  0.5712  1.3888
 5745TIP3   OH238793   5.397   6.640   8.355  0.1593  0.0134  0.1444
 5745TIP3    H138794   5.460   6.678   8.293 -0.0112 -0.7681 -0.5303
 5745TIP3    H238795   5.434   6.555   8.378 -0.4966 -0.3240 -0.0252
 5746TIP3   OH238796   5.963   5.354   0.893  0.3435 -0.3258 -0.1009
 5746TIP3    H138797   5.915   5.437   0.900  0.2723 -0.4299  0.8680
 5746TIP3    H238798   5.895   5.287   0.900  0.5191 -0.4654  0.3466
 5747TIP3   OH238799   5.915   4.894   7.965  0.3302  0.1245  0.0346
 5747TIP3    H138800   5.964   4.976   7.957 -1.4566  1.1757 -0.7273
 5747TIP3    H238801   5.902   4.884   8.059  1.2980  0.2353  0.1950
 5748TIP3   OH238802   5.799   4.092   0.833  0.3229  0.3480 -0.3192
 5748TIP3    H138803   5.766   4.013   0.875  0.7082 -0.5037 -1.5476
 5748TIP3    H238804   5.826   4.149   0.905 -0.5081 -0.3918  0.5993
 5749TIP3   OH238805   1.795   2.799   1.210 -0.2205 -0.9730 -0.2627
 5749TIP3    H138806   1.754   2.856   1.146 -1.2074 -1.7695 -0.3571
 5749TIP3    H238807   1.887   2.795   1.184 -0.2101  0.2943 -0.4443
 5750TIP3   OH238808   5.758   2.742   8.529  0.2805 -0.0152  0.5432
 5750TIP3    H138809   5.772   2.780   8.442  0.9683  1.8392  1.3976
 5750TIP3    H238810   5.804   2.658   8.526 -0.7216 -0.5396 -1.2379
 5751TIP3   OH238811   4.230   5.179   2.938 -0.0258 -0.1969 -0.0729
 5751TIP3    H138812   4.163   5.111   2.930 -1.1259  1.0574 -2.5799
 5751TIP3    H238813   4.181   5.259   2.960  1.1035  0.0617  1.6666
 5752TIP3   OH238814   1.086   6.182   0.724 -0.3788  0.3056  0.1130
 5752TIP3    H138815   1.043   6.252   0.676  1.7469  0.0759 -2.3898
 5752TIP3    H238816   1.174   6.217   0.743  0.3883 -1.3005 -0.3330
 5753TIP3   OH238817   2.133   4.062   1.590  0.0983 -0.3697  0.2565
 5753TIP3    H138818   2.194   4.044   1.661  1.9972  0.8021 -1.0100
 5753TIP3    H238819   2.170   4.137   1.544 -1.4021 -0.6889 -1.6092
 5754TIP3   OH238820   5.459   2.790   1.883 -0.1848 -0.1725  0.6479
 5754TIP3    H138821   5.498   2.730   1.820 -2.8259  0.0592 -1.3610
 5754TIP3    H238822   5.483   2.755   1.969  0.5471 -2.5425 -0.4620
 5755TIP3   OH238823   6.503   4.911   7.454 -0.2231 -0.5528 -0.3692
 5755TIP3    H138824   6.486   4.865   7.536  0.5960  0.4934  0.4096
 5755TIP3    H238825   6.471   5.000   7.469 -2.0840 -0.8828 -1.9673
 5756TIP3   OH238826   2.184   0.368   0.210 -0.2638  0.6192  0.7990
 5756TIP3    H138827   2.156   0.283   0.176  0.1226  0.8541 -0.1546
 5756TIP3    H238828   2.161   0.430   0.141 -0.9185  1.3537  1.6593
 5757TIP3   OH238829   0.727   6.017   2.023  0.2355  0.1219 -0.1704
 5757TIP3    H138830   0.791   5.967   2.074  0.0518 -0.9648 -0.9794
 5757TIP3    H238831   0.772   6.038   1.942  0.0601  0.6538 -0.1347
 5758TIP3   OH238832   5.242   6.302   6.840 -0.1106  0.0268  0.5710
 5758TIP3    H138833   5.296   6.328   6.766  2.2659  1.6031  2.6811
 5758TIP3    H238834   5.258   6.208   6.850 -0.1714 -0.1266 -0.6244
 5759TIP3   OH238835   3.662   1.785   1.364 -0.3132  0.0517  0.3924
 5759TIP3    H138836   3.755   1.761   1.361 -0.1340  0.8184 -0.2560
 5759TIP3    H238837   3.657   1.851   1.433 -0.2122  0.6826 -0.1939
 5760TIP3   OH238838   5.707   5.544   7.567  0.3234 -0.4353  0.3602
 5760TIP3    H138839   5.688   5.524   7.658  0.0410  2.1937  0.9607
 5760TIP3    H238840   5.622   5.547   7.524  0.3220 -0.0593  0.3883
 5761TIP3   OH238841   4.314   2.115   8.063  0.4502  0.0516  0.1500
 5761TIP3    H138842   4.253   2.078   8.127  0.5277  0.6245  0.5695
 5761TIP3    H238843   4.359   2.185   8.111  0.3444  0.6468 -0.5926
 5762TIP3   OH238844   2.421   6.602   3.063  0.4025  0.7323 -0.2161
 5762TIP3    H138845   2.455   6.690   3.084  0.3596  0.8016 -0.4361
 5762TIP3    H238846   2.487   6.564   3.006 -0.8152  1.6374 -2.3414
 5763TIP3   OH238847   2.670   5.904   1.431 -0.2334 -0.0800 -0.0182
 5763TIP3    H138848   2.748   5.921   1.379 -0.3546 -1.0493 -0.5350
 5763TIP3    H238849   2.613   5.854   1.374 -1.0763  0.2651  0.4918
 5764TIP3   OH238850   2.471   3.223   1.062  0.3703  0.7681 -0.1067
 5764TIP3    H138851   2.559   3.256   1.050  0.4425  0.7252  0.2875
 5764TIP3    H238852   2.474   3.133   1.030  0.8212  0.3141  1.1574
 5765TIP3   OH238853   5.307   3.569   2.092  0.8754 -0.4901  0.1930
 5765TIP3    H138854   5.364   3.582   2.017  2.6846  0.5741  1.6693
 5765TIP3    H238855   5.331   3.482   2.125  1.2122 -0.2979  0.4567
 5766TIP3   OH238856   2.181   1.473   2.080 -0.5262 -0.3203 -0.3621
 5766TIP3    H138857   2.112   1.440   2.021  1.3221 -2.5282 -1.4597
 5766TIP3    H238858   2.243   1.517   2.021 -0.4670  0.7627  0.4821
 5767TIP3   OH238859   3.792   3.996   8.277 -0.3581  0.3466  0.3237
 5767TIP3    H138860   3.832   4.010   8.363  0.8782 -0.2219 -0.1267
 5767TIP3    H238861   3.790   4.083   8.236  0.6458  0.3594  0.2773
 5768TIP3   OH238862   5.415   4.559   0.104  0.1202  0.2188 -0.7345
 5768TIP3    H138863   5.333   4.510   0.114  0.8345 -0.8422  0.2785
 5768TIP3    H238864   5.459   4.517   0.030 -0.1943  0.7039 -1.1968
 5769TIP3   OH238865   6.336   0.567   0.026 -0.0023  0.4667 -0.3855
 5769TIP3    H138866   6.266   0.525   0.077  0.1728  2.1521  1.3316
 5769TIP3    H238867   6.295   0.590  -0.057 -0.7267 -0.9674 -0.4516
 5770TIP3   OH238868   6.005   2.207   8.134  0.6923  0.5291 -0.0736
 5770TIP3    H138869   6.010   2.122   8.178  0.1830  0.6908  0.3082
 5770TIP3    H238870   6.091   2.246   8.147  0.5771  0.5364  0.7182
 5771TIP3   OH238871   2.816   3.867   0.597 -0.2752  0.4637  0.1962
 5771TIP3    H138872   2.883   3.834   0.657  0.3212  0.3342 -0.5218
 5771TIP3    H238873   2.827   3.815   0.518 -0.6659  1.0133 -0.2281
 5772TIP3   OH238874   5.583   2.715   0.284  0.2324  0.0329  0.6134
 5772TIP3    H138875   5.494   2.703   0.250  0.0371  0.9643  0.7546
 5772TIP3    H238876   5.637   2.732   0.207  0.3124 -0.6031  0.5202
 5773TIP3   OH238877   0.722   3.858   7.918  0.2202  0.0582 -0.3288
 5773TIP3    H138878   0.765   3.941   7.894 -1.2703  0.4881 -1.6488
 5773TIP3    H238879   0.794   3.802   7.948  1.3935  1.4968 -0.3285
 5774TIP3   OH238880   5.270   2.305   0.711 -0.2916 -0.3168  0.0822
 5774TIP3    H138881   5.188   2.324   0.755  0.1887  0.6155  0.6014
 5774TIP3    H238882   5.292   2.216   0.739 -1.4155 -0.8152 -0.5579
 5775TIP3   OH238883   1.841   4.006   7.383 -0.0020 -0.0528 -0.1267
 5775TIP3    H138884   1.853   3.913   7.401  0.9621  0.0681 -0.0740
 5775TIP3    H238885   1.922   4.032   7.338  0.1453  0.9635  0.6783
 5776TIP3   OH238886   3.834   1.378   1.324 -0.1941  0.3768  0.0212
 5776TIP3    H138887   3.764   1.334   1.372 -1.3672 -0.4140 -2.2930
 5776TIP3    H238888   3.793   1.408   1.243  1.7319  1.5249 -0.5952
 5777TIP3   OH238889   1.920   4.062   8.101  0.1119  0.3015  0.2113
 5777TIP3    H138890   1.995   4.004   8.082 -0.8823 -1.2782  0.8953
 5777TIP3    H238891   1.952   4.119   8.171  1.5166  1.4765 -1.3031
 5778TIP3   OH238892   3.243   3.438   8.426 -0.9139  0.1125  0.1856
 5778TIP3    H138893   3.287   3.523   8.426 -0.2974 -0.2032  0.2125
 5778TIP3    H238894   3.231   3.417   8.518 -2.7314  1.0053  0.1998
 5779TIP3   OH238895   4.330   5.060   7.535 -0.0310 -0.2429  0.3415
 5779TIP3    H138896   4.376   4.991   7.487 -0.2472  0.4391 -0.8847
 5779TIP3    H238897   4.275   5.103   7.469 -0.6096  0.5082  1.2767
 5780TIP3   OH238898   4.734   0.609   1.412  0.7877  0.3107  0.2471
 5780TIP3    H138899   4.654   0.647   1.374  0.1145 -0.5461  0.7607
 5780TIP3    H238900   4.736   0.644   1.501  0.3497 -0.5695  0.6101
 5781TIP3   OH238901   6.095   0.775   1.490 -0.6276  0.1340 -0.6761
 5781TIP3    H138902   6.001   0.775   1.505 -0.7050  0.4475 -1.1424
 5781TIP3    H238903   6.116   0.683   1.471 -0.5536 -0.2604  1.0738
 5782TIP3   OH238904   1.071   4.101   7.979  0.2174 -0.1098  0.2150
 5782TIP3    H138905   1.149   4.119   8.033  0.5788 -0.2795 -0.2483
 5782TIP3    H238906   1.051   4.009   7.996  0.7374 -0.3523 -0.4551
 5783TIP3   OH238907   4.745   6.438   0.286  1.1732 -0.3054  0.0953
 5783TIP3    H138908   4.840   6.450   0.285  0.9639  1.7460  0.0446
 5783TIP3    H238909   4.724   6.394   0.204  2.0129 -0.2397 -0.1563
 5784TIP3   OH238910   0.255   5.021   7.014  0.3945 -0.1185 -0.5334
 5784TIP3    H138911   0.342   5.023   6.975  0.3669 -2.0515 -0.8037
 5784TIP3    H238912   0.260   5.081   7.088  1.6951  0.4099 -1.0227
 5785TIP3   OH238913   0.129   0.331   8.110  0.4473  0.2862 -0.4068
 5785TIP3    H138914   0.131   0.268   8.037 -0.4061  0.2218 -0.3778
 5785TIP3    H238915   0.164   0.281   8.184  0.5661  0.1057 -0.5796
 5786TIP3   OH238916   3.897   3.025   0.206 -0.3319  0.8775 -0.7287
 5786TIP3    H138917   3.832   3.082   0.164 -0.4501  0.6616 -0.8395
 5786TIP3    H238918   3.898   3.054   0.297  1.9048  3.2294 -1.3594
 5787TIP3   OH238919   6.754   2.978   7.906 -0.4820  0.0365  0.1208
 5787TIP3    H138920   6.773   2.967   7.813  0.2253  0.4655  0.2063
 5787TIP3    H238921   6.819   3.042   7.936 -0.0874 -0.8140  1.1161
 5788TIP3   OH238922   2.412   2.523   8.026  0.7887 -0.3500  0.2430
 5788TIP3    H138923   2.394   2.604   8.074 -0.1204  0.0585 -0.7473
 5788TIP3    H238924   2.458   2.468   8.088  0.5718  0.5693  1.2434
 5789TIP3   OH238925   2.082   0.448   7.964 -0.1210 -0.4191  0.2086
 5789TIP3    H138926   2.177   0.459   7.968 -0.1433 -0.5422  1.4313
 5789TIP3    H238927   2.067   0.403   7.881  0.8277  0.1461 -0.2934
 5790TIP3   OH238928   6.834   1.928   1.406 -0.5919 -0.0689  0.4285
 5790TIP3    H138929   6.848   1.845   1.360  3.4877  1.1188 -0.9420
 5790TIP3    H238930   6.862   1.910   1.496 -0.7600 -0.4532  0.4053
 5791TIP3   OH238931   3.021   4.794   1.578 -0.3649  0.0699 -0.3433
 5791TIP3    H138932   3.038   4.709   1.536  0.7020  1.0516 -2.0340
 5791TIP3    H238933   3.068   4.789   1.661  0.2076 -0.7748 -0.6993
 5792TIP3   OH238934   0.453   2.250   8.439 -0.4313  0.0561 -0.0749
 5792TIP3    H138935   0.478   2.271   8.529  0.8305  0.7072 -0.5534
 5792TIP3    H238936   0.498   2.168   8.420 -0.8794 -0.2016 -0.0533
 5793TIP3   OH238937   0.612   1.048   8.061  0.0972  0.0637 -0.3216
 5793TIP3    H138938   0.662   1.125   8.087 -1.4536  0.6582  1.0781
 5793TIP3    H238939   0.628   0.984   8.131 -1.4724  0.4568  0.4279
 5794TIP3   OH238940   4.605   2.257   1.825  0.4344  0.4812 -0.2934
 5794TIP3    H138941   4.678   2.274   1.884  0.7905 -3.1691  0.5513
 5794TIP3    H238942   4.530   2.299   1.866  1.0602 -0.3351  1.8064
 5795TIP3   OH238943   6.641   4.621   1.294 -0.2262 -0.1114  0.0215
 5795TIP3    H138944   6.648   4.687   1.363 -0.6713  2.3856 -2.1488
 5795TIP3    H238945   6.550   4.624   1.266 -0.3261 -1.9073  0.0567
 5796TIP3   OH238946   0.573   3.047   8.228 -0.2216  0.1890 -0.7363
 5796TIP3    H138947   0.634   3.088   8.167  0.5052  0.5889  0.2222
 5796TIP3    H238948   0.533   3.120   8.275  0.6313 -0.1316  0.5537
 5797TIP3   OH238949   6.676   4.554   0.254  0.1812 -0.1904  0.4432
 5797TIP3    H138950   6.764   4.591   0.253 -0.0169  0.4866 -2.7731
 5797TIP3    H238951   6.682   4.480   0.314  2.4650  0.8027  1.5857
 5798TIP3   OH238952   6.799   6.686   8.138  0.0740 -0.5630  0.2940
 5798TIP3    H138953   6.879   6.731   8.108  0.4541 -0.6062  1.2031
 5798TIP3    H238954   6.738   6.757   8.157  0.1294 -0.4997  0.2411
 5799TIP3   OH238955   1.424   3.666   3.061 -0.1804 -0.0411  0.1944
 5799TIP3    H138956   1.345   3.619   3.034 -1.3242  1.2201  1.1999
 5799TIP3    H238957   1.441   3.726   2.988 -0.2030 -0.2467  0.0177
 5800TIP3   OH238958   0.572   6.557   2.264  0.0184 -0.5067  0.5236
 5800TIP3    H138959   0.636   6.618   2.228 -1.9600  0.9252 -0.7844
 5800TIP3    H238960   0.530   6.518   2.187 -1.4639 -0.4927  1.2774
 5801TIP3   OH238961   0.552   2.055   2.733 -0.0248 -0.1162  0.7291
 5801TIP3    H138962   0.509   2.006   2.802 -0.0637 -0.7873  0.2390
 5801TIP3    H238963   0.481   2.095   2.683 -0.0790 -0.9609  0.1129
 5802TIP3   OH238964   4.549   3.474   8.278 -0.7793 -0.2600  0.4393
 5802TIP3    H138965   4.511   3.403   8.331  1.1044 -0.8442  1.0708
 5802TIP3    H238966   4.594   3.530   8.341  1.4830 -0.9477 -0.4573
 5803TIP3   OH238967   0.521   3.126   0.797 -0.4711  0.4206 -0.0653
 5803TIP3    H138968   0.581   3.058   0.767  0.5362  0.6051  1.4721
 5803TIP3    H238969   0.574   3.184   0.850 -1.8954  0.8666  0.9440
 5804TIP3   OH238970   5.293   3.023   0.096 -0.0797 -0.2370  0.3637
 5804TIP3    H138971   5.357   3.013   0.166  0.5521  0.8635 -0.0268
 5804TIP3    H238972   5.345   3.039   0.018 -0.8208  1.4259  0.1706
 5805TIP3   OH238973   4.262   0.459   0.728 -0.3827  0.2069 -0.2640
 5805TIP3    H138974   4.259   0.491   0.638  0.5680  0.4236 -0.2321
 5805TIP3    H238975   4.336   0.399   0.730 -0.1917  0.4552  0.4554
 5806TIP3   OH238976   2.497   5.537   1.148  0.0952 -0.0752  1.0474
 5806TIP3    H138977   2.575   5.586   1.123  0.6004 -0.8152  1.1293
 5806TIP3    H238978   2.524   5.445   1.142 -0.9502 -0.3556  0.5002
 5807TIP3   OH238979   5.697   2.238   0.472  0.1955  0.0897 -0.3980
 5807TIP3    H138980   5.782   2.196   0.482  0.5167  0.9049  0.3865
 5807TIP3    H238981   5.675   2.269   0.559  0.3259  2.1941 -1.0494
 5808TIP3   OH238982   0.609   2.645   7.485  0.0967  0.6176 -0.3137
 5808TIP3    H138983   0.634   2.661   7.394  0.8937 -0.5718 -0.3308
 5808TIP3    H238984   0.519   2.611   7.480  0.3855 -0.1139 -0.7329
 5809TIP3   OH238985   1.908   3.024   7.772 -0.3331  0.6150 -0.2574
 5809TIP3    H138986   1.913   3.028   7.868 -1.6656  1.2374 -0.2001
 5809TIP3    H238987   1.927   3.113   7.743  1.8308  0.0617 -0.6955
 5810TIP3   OH238988   5.639   5.147   2.279 -0.4347 -0.2616 -0.2161
 5810TIP3    H138989   5.633   5.219   2.342  1.6935 -1.7907  1.9273
 5810TIP3    H238990   5.637   5.068   2.333 -1.8120 -1.8236 -2.4117
 5811TIP3   OH238991   2.239   5.097   2.559  0.4213  0.2002  0.5332
 5811TIP3    H138992   2.315   5.137   2.517 -1.2476  0.9699 -1.9968
 5811TIP3    H238993   2.187   5.171   2.590 -0.5477 -0.1363 -0.1993
 5812TIP3   OH238994   2.327   6.167   7.789 -0.1325 -0.4751  0.0173
 5812TIP3    H138995   2.336   6.261   7.771  0.2375 -0.3863  0.6473
 5812TIP3    H238996   2.298   6.162   7.880  2.5103 -1.0136  0.9398
 5813TIP3   OH238997   1.350   0.233   1.161  0.1698 -0.1645 -0.4228
 5813TIP3    H138998   1.277   0.220   1.100 -0.7935  2.7069 -0.0377
 5813TIP3    H238999   1.371   0.145   1.193  0.0248 -1.6911 -4.0326
 5814TIP3   OH239000   5.566   6.775   8.196 -0.1107  0.1435 -0.2082
 5814TIP3    H139001   5.660   6.775   8.177 -0.2998  2.7804 -1.7128
 5814TIP3    H239002   5.559   6.824   8.278 -0.1721  0.4719 -0.4039
 5815TIP3   OH239003   0.199   2.533   0.808  0.2036 -0.1388 -0.4913
 5815TIP3    H139004   0.121   2.547   0.862  0.1507 -0.7762 -0.3967
 5815TIP3    H239005   0.229   2.622   0.786  0.6423  0.1438  1.1686
 5816TIP3   OH239006   5.954   3.594   0.326  0.2024  0.3394 -0.5565
 5816TIP3    H139007   6.019   3.527   0.306  0.2572 -0.6738  2.5365
 5816TIP3    H239008   5.955   3.602   0.421 -0.8455  3.7419 -0.6720
 5817TIP3   OH239009   6.294   4.919   8.115 -0.5569  0.7944 -0.6006
 5817TIP3    H139010   6.263   5.006   8.138  1.8224  1.7316 -0.6064
 5817TIP3    H239011   6.329   4.883   8.197 -1.1085  0.0211 -0.6907
 5818TIP3   OH239012   4.235   5.188   0.829 -0.2116  0.1036  0.0326
 5818TIP3    H139013   4.252   5.156   0.740 -0.0733  0.0332  0.0849
 5818TIP3    H239014   4.223   5.282   0.818 -1.8042 -0.1113 -0.2988
 5819TIP3   OH239015   2.548   5.281   1.144 -0.0180  0.1860 -0.8498
 5819TIP3    H139016   2.497   5.227   1.083 -0.0447 -0.4947 -0.2436
 5819TIP3    H239017   2.633   5.237   1.149 -0.1682 -0.0247 -0.0510
 5820TIP3   OH239018   5.670   1.072   2.365 -0.0025 -0.3113 -0.2225
 5820TIP3    H139019   5.709   1.129   2.299 -1.1443  0.7331 -0.0277
 5820TIP3    H239020   5.653   1.130   2.439 -0.1530 -1.1474  0.4037
 5821TIP3   OH239021   2.417   4.440   2.039  0.4689 -0.5609  0.1717
 5821TIP3    H139022   2.335   4.467   1.997  0.7165 -0.3637 -0.1855
 5821TIP3    H239023   2.403   4.347   2.059  0.1109 -0.4983  0.2288
 5822TIP3   OH239024   0.365   3.293   7.558  0.3693  0.2748 -0.1019
 5822TIP3    H139025   0.411   3.279   7.475  2.6484 -0.7173  1.2477
 5822TIP3    H239026   0.362   3.388   7.568 -0.5543  0.4376 -1.5965
 5823TIP3   OH239027   4.752   0.247   6.753 -0.0871 -0.2006 -0.5998
 5823TIP3    H139028   4.814   0.238   6.680  1.7229  3.2752  0.2622
 5823TIP3    H239029   4.805   0.282   6.824 -2.1975 -1.6160  1.8419
 5824TIP3   OH239030   3.728   1.071   7.873 -0.4423  0.1645  0.0473
 5824TIP3    H139031   3.768   1.135   7.931  0.5573 -1.8401  1.7319
 5824TIP3    H239032   3.797   1.049   7.810 -0.2620 -0.3080  0.4018
 5825TIP3   OH239033   3.258   1.153   7.218  0.0186 -0.2066 -0.1981
 5825TIP3    H139034   3.316   1.203   7.160 -0.8073  1.5029  0.4062
 5825TIP3    H239035   3.225   1.082   7.163 -0.1874  0.9522 -1.6153
 5826TIP3   OH239036   6.843   0.582   8.447  0.2958  0.0577 -1.2212
 5826TIP3    H139037   6.765   0.547   8.489  0.3015  2.2592  0.8550
 5826TIP3    H239038   6.830   0.566   8.354 -1.9677 -0.8714 -0.7890
 5827TIP3   OH239039   3.254   0.083   8.144  0.8109  0.1402 -0.2184
 5827TIP3    H139040   3.302   0.123   8.217  1.7454  1.5958 -1.5574
 5827TIP3    H239041   3.166   0.069   8.178  1.6714 -0.9309  1.7471
 5828TIP3   OH239042   3.482   6.722   7.195 -0.0904  0.1131 -0.0828
 5828TIP3    H139043   3.416   6.784   7.225 -0.3702 -0.8330  1.3789
 5828TIP3    H239044   3.431   6.648   7.163  0.2237 -0.4702  0.7196
 5829TIP3   OH239045   2.111   2.185   1.376  0.5715 -0.0452  0.1489
 5829TIP3    H139046   2.117   2.106   1.321 -0.8265  0.4467 -0.7568
 5829TIP3    H239047   2.066   2.156   1.455 -0.0620 -0.1432 -0.2403
 5830TIP3   OH239048   0.173   6.416   2.905  0.4237 -0.5951  0.7261
 5830TIP3    H139049   0.077   6.413   2.908  0.4073 -0.7240  0.1799
 5830TIP3    H239050   0.200   6.325   2.899  0.4938 -0.4906 -1.1084
 5831TIP3   OH239051   0.561   3.903   1.685 -0.0259  0.8982 -0.3605
 5831TIP3    H139052   0.545   3.866   1.772 -1.2244 -0.4698 -1.1260
 5831TIP3    H239053   0.656   3.918   1.683  0.4577 -1.6556  0.2194
 5832TIP3   OH239054   5.183   3.161   0.914  0.3830 -0.0348  0.2287
 5832TIP3    H139055   5.152   3.099   0.848 -0.6394  1.1570 -0.4516
 5832TIP3    H239056   5.258   3.204   0.872 -0.4731  0.9605 -0.3234
 5833TIP3   OH239057   4.742   2.576   1.483  0.6633 -0.4896 -0.1067
 5833TIP3    H139058   4.682   2.506   1.510  0.4953 -0.4907 -0.4832
 5833TIP3    H239059   4.716   2.651   1.537  2.5078 -1.3790  2.2235
 5834TIP3   OH239060   3.291   2.675   2.813  0.3061 -0.7577 -0.1826
 5834TIP3    H139061   3.240   2.751   2.840  2.3204  0.5402  0.1360
 5834TIP3    H239062   3.273   2.666   2.719 -1.1239 -0.8624  0.0755
 5835TIP3   OH239063   3.625   1.474   7.146 -0.2358 -0.0180  0.7385
 5835TIP3    H139064   3.535   1.442   7.145  0.5022 -2.3381  1.7188
 5835TIP3    H239065   3.676   1.400   7.178  2.2970  0.5410 -1.6047
 5836TIP3   OH239066   1.232   5.846   1.785 -0.0007  0.0407  0.5694
 5836TIP3    H139067   1.266   5.899   1.713  0.4589 -0.0491  0.7213
 5836TIP3    H239068   1.148   5.888   1.807 -0.6185 -0.5022 -0.6459
 5837TIP3   OH239069   1.288   2.315   0.159  0.3820  0.0190  0.6105
 5837TIP3    H139070   1.280   2.280   0.248 -0.7500 -1.3763  0.0011
 5837TIP3    H239071   1.218   2.272   0.110  0.7222  1.0741 -0.8734
 5838TIP3   OH239072   2.762   4.839   1.463 -0.3188 -0.3092 -0.2315
 5838TIP3    H139073   2.851   4.834   1.499 -0.0195 -0.6968 -1.0160
 5838TIP3    H239074   2.705   4.817   1.537  0.1244  1.5350  0.7345
 5839TIP3   OH239075   2.696   1.018   1.419 -0.0524  0.2741  0.4536
 5839TIP3    H139076   2.690   1.098   1.367 -0.2739  0.4347  0.7233
 5839TIP3    H239077   2.612   1.013   1.464 -0.6694 -0.9537 -0.7796
 5840TIP3   OH239078   2.832   5.170   8.561  0.4775  0.2031  0.1905
 5840TIP3    H139079   2.912   5.220   8.548  0.2799  0.5771  0.3929
 5840TIP3    H239080   2.771   5.206   8.496  0.7743 -0.7600 -0.6578
 5841TIP3   OH239081   3.130   1.737   7.735 -0.2486  0.2328 -0.3831
 5841TIP3    H139082   3.057   1.779   7.692 -2.5078  1.0396  3.7117
 5841TIP3    H239083   3.108   1.643   7.735 -0.4516  0.2809 -0.5621
 5842TIP3   OH239084   2.784   4.711   0.955  0.3565 -0.3721 -0.8021
 5842TIP3    H139085   2.774   4.616   0.956  1.5050 -0.5760  2.0455
 5842TIP3    H239086   2.850   4.728   0.887  0.7506 -1.7005 -0.7765
 5843TIP3   OH239087   4.517   5.446   2.481 -0.3496  0.7405  0.4995
 5843TIP3    H139088   4.602   5.489   2.470  0.4156 -0.6749  0.6690
 5843TIP3    H239089   4.515   5.419   2.573 -0.4668 -0.2384  0.2271
 5844TIP3   OH239090   4.847   6.487   1.793 -0.3092 -0.0123  0.0582
 5844TIP3    H139091   4.800   6.477   1.875  0.1781 -0.8690  0.2483
 5844TIP3    H239092   4.901   6.408   1.787  0.4457  0.5389 -0.5682
 5845TIP3   OH239093   0.373   2.338   1.378 -0.5210  0.1168  0.4622
 5845TIP3    H139094   0.372   2.379   1.291  0.6168 -0.0353  0.3630
 5845TIP3    H239095   0.285   2.300   1.388 -1.5670  2.3510  0.4587
 5846TIP3   OH239096   4.252   4.003   0.574  0.2132 -0.3862 -0.4399
 5846TIP3    H139097   4.236   4.073   0.637  0.7982 -0.6166 -0.0342
 5846TIP3    H239098   4.174   4.003   0.518 -0.3758 -0.2734  0.3664
 5847TIP3   OH239099   6.574   1.209   1.618  0.0635  0.3024 -0.2058
 5847TIP3    H139100   6.571   1.124   1.661 -0.1169 -0.6672 -2.0144
 5847TIP3    H239101   6.615   1.267   1.682  1.7322 -1.5102  0.4773
 5848TIP3   OH239102   0.112   6.231   3.205  0.0297  0.3868 -0.0434
 5848TIP3    H139103   0.028   6.185   3.201  0.3072 -0.0586 -1.2375
 5848TIP3    H239104   0.155   6.209   3.122  0.0994  2.9353 -0.7479
 5849TIP3   OH239105   0.141   4.127   1.016  0.3186  0.0613 -0.0380
 5849TIP3    H139106   0.165   4.136   1.108  4.3144 -0.8853 -0.8012
 5849TIP3    H239107   0.096   4.043   1.011  0.6423 -0.1856  0.9904
 5850TIP3   OH239108   0.317   2.327   0.939  0.2199  0.2817 -0.4208
 5850TIP3    H139109   0.319   2.376   1.021  1.7773 -0.6967  0.1784
 5850TIP3    H239110   0.258   2.377   0.882 -1.1621  0.7988  1.3793
 5851TIP3   OH239111   6.652   3.888   7.426 -0.1202 -0.8083  0.4596
 5851TIP3    H139112   6.747   3.888   7.431  0.0633  1.2130 -1.1634
 5851TIP3    H239113   6.623   3.941   7.501  0.2044  0.2406 -0.1328
 5852TIP3   OH239114   5.156   5.765   0.494 -0.4464  0.3661 -0.4211
 5852TIP3    H139115   5.077   5.760   0.547 -0.3294 -0.7373 -0.3174
 5852TIP3    H239116   5.219   5.710   0.541  0.1147  0.5520 -0.9434
 5853TIP3   OH239117   1.173   0.997   2.289 -0.0844 -0.2994  0.2151
 5853TIP3    H139118   1.098   1.056   2.289 -0.3270 -0.5795  1.6420
 5853TIP3    H239119   1.217   1.014   2.372  0.2842 -1.5541  0.2978
 5854TIP3   OH239120   5.233   2.954   1.487  0.2584  0.0213  0.5785
 5854TIP3    H139121   5.309   3.011   1.482  0.6147 -0.5227 -0.9141
 5854TIP3    H239122   5.232   2.923   1.578  0.3839  1.9026  1.2619
 5855TIP3   OH239123   5.391   4.454   7.554  0.9613 -0.3328 -0.2324
 5855TIP3    H139124   5.380   4.419   7.465 -1.3844  2.9158 -1.4108
 5855TIP3    H239125   5.477   4.497   7.552 -0.0896  1.8898 -1.8951
 5856TIP3   OH239126   6.799   0.792   2.342  0.1378 -0.5888 -0.5040
 5856TIP3    H139127   6.808   0.888   2.338  2.4926 -0.7438 -0.2351
 5856TIP3    H239128   6.820   0.770   2.433 -0.5947 -1.3604 -0.5103
 5857TIP3   OH239129   6.018   3.576   1.093  0.0932 -0.0136 -0.2173
 5857TIP3    H139130   5.964   3.507   1.054  2.0340 -1.6430 -0.1498
 5857TIP3    H239131   6.106   3.561   1.059  1.2362  0.4290  2.3292
 5858TIP3   OH239132   3.128   6.709   6.889 -0.1392 -0.1957  0.6328
 5858TIP3    H139133   3.063   6.650   6.926  0.0110  0.2187  1.5778
 5858TIP3    H239134   3.151   6.768   6.960 -1.5647  2.1684 -0.7166
 5859TIP3   OH239135   3.207   5.699   0.634  0.8929 -0.0515 -0.0625
 5859TIP3    H139136   3.115   5.682   0.615  0.5677  0.5394  0.9202
 5859TIP3    H239137   3.233   5.765   0.571  0.8736 -0.7875 -0.8591
 5860TIP3   OH239138   5.629   2.139   7.492 -0.2326  0.0630 -0.3882
 5860TIP3    H139139   5.680   2.211   7.528 -1.5566  1.3427 -0.9918
 5860TIP3    H239140   5.689   2.064   7.493  0.6385  0.7112  1.8713
 5861TIP3   OH239141   5.942   2.416   6.705 -0.3302 -0.0357 -0.2981
 5861TIP3    H139142   6.029   2.450   6.682 -1.1894  0.6156 -2.9720
 5861TIP3    H239143   5.888   2.494   6.719 -0.5329 -0.4329  1.3997
 5862TIP3   OH239144   0.823   4.533   1.657 -0.8962  0.2340 -0.1019
 5862TIP3    H139145   0.907   4.579   1.657  0.1121 -1.3953 -2.6646
 5862TIP3    H239146   0.823   4.483   1.739  0.0948  1.1426  0.4730
 5863TIP3   OH239147   3.506   4.042   0.208 -0.3800 -0.4289 -0.4498
 5863TIP3    H139148   3.526   4.136   0.208 -0.2782 -0.3466 -3.3607
 5863TIP3    H239149   3.480   4.024   0.117  0.4037 -3.3835 -0.1779
 5864TIP3   OH239150   6.000   0.681   8.021  0.1755  0.5662 -0.1700
 5864TIP3    H139151   6.009   0.775   8.039  0.7604  0.4666  0.0740
 5864TIP3    H239152   6.070   0.662   7.960  1.1817 -0.0688  1.1413
 5865TIP3   OH239153   5.164   3.052   7.429 -0.1073  0.3204  0.2853
 5865TIP3    H139154   5.204   2.973   7.394  1.0816  0.1569  1.9028
 5865TIP3    H239155   5.107   3.083   7.359  1.5197 -0.4189 -1.4639
 5866TIP3   OH239156   1.670   4.347   1.299  0.0611  0.3728  0.1807
 5866TIP3    H139157   1.638   4.408   1.366  0.2190  1.2590 -0.5292
 5866TIP3    H239158   1.687   4.402   1.222  0.7190 -0.4935 -0.3157
 5867TIP3   OH239159   1.679   0.223   1.782  0.7269  0.2167 -0.6718
 5867TIP3    H139160   1.661   0.317   1.784  2.4253  0.5417  0.9109
 5867TIP3    H239161   1.598   0.183   1.814  0.6779  1.2551  0.5633
 5868TIP3   OH239162   4.201   1.611   1.255 -1.1378 -0.3753 -0.1196
 5868TIP3    H139163   4.242   1.674   1.196 -0.2969 -1.9169 -1.2733
 5868TIP3    H239164   4.182   1.535   1.200  0.6391 -2.3240  1.7208
 5869TIP3   OH239165   0.594   5.407   0.393  0.3225 -0.2802  0.5060
 5869TIP3    H139166   0.530   5.342   0.365 -2.0877  1.1730  2.2958
 5869TIP3    H239167   0.545   5.489   0.397  3.0037  1.5386 -0.7394
 5870TIP3   OH239168   6.256   2.379   1.644  0.4277 -0.1201  0.0398
 5870TIP3    H139169   6.346   2.370   1.613  0.3138 -1.0368 -0.0554
 5870TIP3    H239170   6.219   2.291   1.636 -0.5283  0.2792 -0.0809
 5871TIP3   OH239171   0.506   3.335   1.840 -0.0330 -0.4284  0.5735
 5871TIP3    H139172   0.600   3.354   1.843 -0.0933 -0.2286  1.4875
 5871TIP3    H239173   0.483   3.312   1.930 -1.2963  1.7710  0.9090
 5872TIP3   OH239174   4.794   2.687   6.926 -0.0881  1.1582 -0.2426
 5872TIP3    H139175   4.735   2.711   6.854 -0.1318 -0.5740 -0.8281
 5872TIP3    H239176   4.740   2.633   6.984  0.6631  0.3206 -0.3044
 5873TIP3   OH239177   5.968   3.903   7.436 -0.1162 -0.0624  0.1073
 5873TIP3    H139178   6.042   3.875   7.382  1.2868 -0.0579  1.9031
 5873TIP3    H239179   5.928   3.974   7.387  1.0620 -0.0689 -0.9342
 5874TIP3   OH239180   2.533   3.553   8.371 -0.1926 -0.3446  0.2772
 5874TIP3    H139181   2.601   3.530   8.308  0.5033 -0.2631  0.9821
 5874TIP3    H239182   2.561   3.512   8.453  0.5522  2.0536  1.3123
 5875TIP3   OH239183   3.890   4.761   7.361 -0.1212  0.2053 -0.7632
 5875TIP3    H139184   3.859   4.710   7.435  1.5302 -0.8389 -0.7324
 5875TIP3    H239185   3.972   4.801   7.392 -0.4882  1.4786 -1.3565
 5876TIP3   OH239186   3.408   2.068   2.385 -0.2552 -0.0909  0.1178
 5876TIP3    H139187   3.493   2.108   2.401 -0.8612  1.4694 -0.3548
 5876TIP3    H239188   3.359   2.134   2.335 -0.8412 -1.9661 -1.9641
 5877TIP3   OH239189   3.896   1.884   0.377  0.5136 -0.4983 -0.3249
 5877TIP3    H139190   3.874   1.903   0.468 -0.3115  0.0716 -0.6330
 5877TIP3    H239191   3.895   1.970   0.334 -0.1867 -0.8861 -1.0973
 5878TIP3   OH239192   1.837   3.270   8.434 -0.2890 -0.4981  0.1910
 5878TIP3    H139193   1.799   3.214   8.366  0.3699  1.8655 -2.3269
 5878TIP3    H239194   1.767   3.330   8.458  0.2823  0.4951 -0.5591
 5879TIP3   OH239195   3.446   1.565   8.147 -0.5720 -0.2944  0.3837
 5879TIP3    H139196   3.469   1.624   8.218 -1.4768  0.1291  0.3343
 5879TIP3    H239197   3.375   1.609   8.100  1.1684  0.3074 -1.9218
 5880TIP3   OH239198   2.131   2.019   8.476  0.0259  0.6573  0.5196
 5880TIP3    H139199   2.095   2.102   8.445  1.6557  0.8992 -0.9084
 5880TIP3    H239200   2.197   2.044   8.541  0.8480  0.5369 -0.2528
 5881TIP3   OH239201   6.226   1.470   8.091  0.1573 -0.3680  0.0468
 5881TIP3    H139202   6.233   1.377   8.068  1.1913 -0.4521  0.6061
 5881TIP3    H239203   6.316   1.502   8.086 -0.3191  0.8751 -1.1473
 5882TIP3   OH239204   4.670   3.122   8.469 -0.0408 -0.0055  0.0064
 5882TIP3    H139205   4.579   3.128   8.439  0.1731 -0.6619 -0.8181
 5882TIP3    H239206   4.701   3.212   8.471 -0.4099  0.1387 -0.6656
 5883TIP3   OH239207   0.083   3.921   8.440  0.0290 -0.1321 -0.2891
 5883TIP3    H139208   0.060   3.900   8.349 -1.9052 -2.1626  0.5893
 5883TIP3    H239209   0.160   3.868   8.459  0.6458  0.5529 -0.8037
 5884TIP3   OH239210   1.962   0.315   0.710 -0.0752  0.2047 -0.3335
 5884TIP3    H139211   1.968   0.220   0.705 -0.8743  0.1408 -0.2921
 5884TIP3    H239212   1.982   0.346   0.622  1.0193  0.0564 -0.1469
 5885TIP3   OH239213   4.267   0.395   8.442 -0.6807  0.1111  0.3041
 5885TIP3    H139214   4.303   0.444   8.368 -0.2824 -0.4975  0.0864
 5885TIP3    H239215   4.207   0.333   8.402  1.6259 -2.1898  0.1396
 5886TIP3   OH239216   5.155   2.327   8.441  0.0857 -0.0408  0.3280
 5886TIP3    H139217   5.192   2.248   8.402 -0.8869 -0.6763  0.6336
 5886TIP3    H239218   5.071   2.339   8.395  0.9321  1.7838 -0.8761
 5887TIP3   OH239219   6.767   0.057   0.351 -0.0277  0.3390  0.7552
 5887TIP3    H139220   6.757   0.065   0.446 -1.2156  2.0497  0.5209
 5887TIP3    H239221   6.709  -0.015   0.326 -1.9778  1.7469  1.0217
 5888TIP3   OH239222   3.884   5.714   0.444 -0.3463 -0.0159  0.2348
 5888TIP3    H139223   3.966   5.670   0.422 -0.3810 -0.4697  0.9717
 5888TIP3    H239224   3.890   5.729   0.539 -0.8857  0.4340  0.2039
 5889TIP3   OH239225   0.211   1.956   0.989 -0.1710  0.4449 -0.2700
 5889TIP3    H139226   0.283   1.909   1.032 -1.4582 -0.7981  0.6477
 5889TIP3    H239227   0.252   2.000   0.915  1.2701 -1.5153 -0.7276
 5890TIP3   OH239228   6.763   2.560   8.253 -0.6249 -1.0855  0.0317
 5890TIP3    H139229   6.839   2.507   8.231  1.8398  2.0660  0.3506
 5890TIP3    H239230   6.783   2.596   8.340 -2.1162  0.4359 -0.2043
 5891TIP3   OH239231   3.563   0.908   8.005  0.2252  0.3941  0.5073
 5891TIP3    H139232   3.629   0.841   8.026 -0.2395  0.3763  2.0093
 5891TIP3    H239233   3.614   0.980   7.968  0.8994 -0.2178  0.1986
 5892TIP3   OH239234   2.199   0.632   8.302  0.5818 -0.5265 -0.3483
 5892TIP3    H139235   2.115   0.588   8.285  0.0114 -0.0260  1.0515
 5892TIP3    H239236   2.210   0.628   8.397  2.7773 -1.6749 -0.5774
 5893TIP3   OH239237   3.348   3.827   0.296  0.4588 -0.3125 -0.7264
 5893TIP3    H139238   3.271   3.807   0.243 -0.5770 -0.5147  0.8048
 5893TIP3    H239239   3.390   3.899   0.250 -1.5747  0.9404 -0.7378
 5894TIP3   OH239240   0.352   5.334   2.133 -0.4035 -0.2347  0.1890
 5894TIP3    H139241   0.270   5.323   2.086 -0.6435  1.0200  0.2744
 5894TIP3    H239242   0.333   5.402   2.198  0.4153 -0.6778  0.9181
 5895TIP3   OH239243   5.237   4.357   0.162  0.0789  0.6979  0.6606
 5895TIP3    H139244   5.146   4.334   0.181 -0.2447  0.6239 -0.8840
 5895TIP3    H239245   5.277   4.275   0.135  0.4683  0.8459  0.7791
 5896TIP3   OH239246   1.830   1.002   7.970 -0.1927 -0.6240  0.1062
 5896TIP3    H139247   1.776   1.081   7.960 -1.7937 -1.3281  2.2997
 5896TIP3    H239248   1.769   0.935   7.999  1.7043 -1.6764  2.0098
 5897TIP3   OH239249   1.846   3.755   0.316  0.2334  0.0685  0.6907
 5897TIP3    H139250   1.879   3.844   0.327 -0.3593  0.2881  0.7705
 5897TIP3    H239251   1.822   3.726   0.404 -0.3020  0.1300  0.5727
 5898TIP3   OH239252   4.684   1.875   7.514 -0.7692 -0.2459  0.2500
 5898TIP3    H139253   4.703   1.868   7.420 -1.3597  0.6043  0.0542
 5898TIP3    H239254   4.762   1.916   7.551 -1.6272  2.0531 -0.3461
 5899TIP3   OH239255   5.175   6.821   1.754  0.6096 -0.1585 -0.2906
 5899TIP3    H139256   5.159   6.883   1.683 -0.5834  0.3294  0.3639
 5899TIP3    H239257   5.199   6.877   1.829  1.2852 -0.6227 -0.1561
 5900TIP3   OH239258   6.374   3.248   2.272  0.0367 -0.0638 -0.3274
 5900TIP3    H139259   6.315   3.211   2.337  1.8779 -0.7147  1.0791
 5900TIP3    H239260   6.371   3.186   2.199  0.6728 -1.3430  0.6870
 5901TIP3   OH239261   2.080   1.474   0.146  0.7460  0.0001  0.1602
 5901TIP3    H139262   2.152   1.537   0.154  0.3451  0.4686  0.1010
 5901TIP3    H239263   2.026   1.490   0.223 -1.2010  2.0938 -1.5059
 5902TIP3   OH239264   2.880   3.886   8.231 -0.3065 -0.4340  0.8817
 5902TIP3    H139265   2.871   3.980   8.221  0.8096 -0.5406 -1.7997
 5902TIP3    H239266   2.827   3.865   8.309  1.7911  2.7359  3.4032
 5903TIP3   OH239267   5.286   1.432   8.217 -0.3111 -0.4467 -0.1527
 5903TIP3    H139268   5.242   1.489   8.280  1.8301  1.4438 -0.2498
 5903TIP3    H239269   5.352   1.386   8.268  0.2058 -0.3019 -0.6818
 5904TIP3   OH239270   1.648   0.036   8.543 -0.2345 -0.1998 -0.1266
 5904TIP3    H139271   1.626   0.083   8.462 -0.1588  1.2787  0.6807
 5904TIP3    H239272   1.724  -0.017   8.519 -0.7739 -0.5023 -1.2594
 5905TIP3   OH239273   6.734   5.200   7.456  0.1293 -0.0169  0.1535
 5905TIP3    H139274   6.642   5.188   7.479 -0.1930  1.6401 -0.1121
 5905TIP3    H239275   6.734   5.269   7.389  1.6149  0.8003  0.9150
 5906TIP3   OH239276   1.144   1.785   1.469 -0.1493 -0.1349 -0.1847
 5906TIP3    H139277   1.227   1.770   1.423 -0.7675 -0.0512 -1.3702
 5906TIP3    H239278   1.110   1.697   1.487 -1.1746 -0.2509 -2.3194
 5907TIP3   OH239279   6.773   1.733   8.454  0.0360 -0.3217  0.0667
 5907TIP3    H139280   6.829   1.787   8.509  2.0806 -2.7474  0.5356
 5907TIP3    H239281   6.686   1.739   8.494  0.7145  0.6790  1.4655
 5908TIP3   OH239282   2.291   3.275   0.640 -0.4651 -0.2927  0.2249
 5908TIP3    H139283   2.258   3.304   0.725  1.1978  0.1753  0.7421
 5908TIP3    H239284   2.382   3.250   0.656 -0.1392 -0.2838 -1.3929
 5909TIP3   OH239285   6.606   0.405   2.038 -0.0182 -0.0037 -0.6490
 5909TIP3    H139286   6.592   0.472   2.105  0.7178 -0.9151  0.4709
 5909TIP3    H239287   6.643   0.452   1.964  0.9243  0.7912  0.2822
 5910TIP3   OH239288   4.731   0.706   0.948 -0.5569  0.2914  0.2085
 5910TIP3    H139289   4.720   0.786   0.999 -0.9850 -0.0554  0.6647
 5910TIP3    H239290   4.825   0.703   0.929 -0.0944 -0.3779  2.3182
 5911TIP3   OH239291   4.494   0.387   1.183 -0.0884  0.5817 -0.0819
 5911TIP3    H139292   4.483   0.475   1.149 -1.0860 -0.3952 -2.5062
 5911TIP3    H239293   4.414   0.371   1.234 -0.4039  0.7187 -0.5273
 5912TIP3   OH239294   3.351   3.552   0.372 -0.1742  0.1856  0.1147
 5912TIP3    H139295   3.298   3.515   0.302 -1.1756  2.8736 -0.6404
 5912TIP3    H239296   3.370   3.642   0.345  1.6057  0.5162  2.1150
 5913TIP3   OH239297   0.413   5.721   2.737  0.0153 -0.4887 -0.3368
 5913TIP3    H139298   0.351   5.763   2.796 -1.5000  0.0654 -2.1876
 5913TIP3    H239299   0.443   5.791   2.679  2.2009 -0.8169  0.3255
 5914TIP3   OH239300   1.174   3.266   2.328 -0.0198  0.0031 -0.6216
 5914TIP3    H139301   1.215   3.218   2.256 -0.2361 -0.8492 -0.1914
 5914TIP3    H239302   1.095   3.305   2.289 -3.1033 -4.6545  0.1002
 5915TIP3   OH239303   2.529   5.728   1.995  0.2383  0.5382 -0.6361
 5915TIP3    H139304   2.489   5.677   2.066 -1.4474  1.9951 -0.4657
 5915TIP3    H239305   2.623   5.718   2.008 -0.0377 -0.0356  1.2232
 5916TIP3   OH239306   6.805   0.055   0.971 -0.7145  0.1340 -0.3234
 5916TIP3    H139307   6.805   0.015   1.058 -1.7190 -0.4423 -0.5641
 5916TIP3    H239308   6.808  -0.019   0.911  0.4886  0.5465 -0.7977
 5917TIP3   OH239309   0.403   4.701   1.752 -0.6008 -0.0093 -0.1380
 5917TIP3    H139310   0.420   4.794   1.763  1.0394 -0.1656 -0.9811
 5917TIP3    H239311   0.389   4.690   1.658 -0.6529 -0.6249 -0.0628
 5918TIP3   OH239312   2.152   5.692   7.200 -0.2213 -0.3451 -0.1126
 5918TIP3    H139313   2.220   5.738   7.249  0.6904 -1.2980 -0.4387
 5918TIP3    H239314   2.145   5.607   7.244 -0.8510 -0.4440 -0.3939
 5919TIP3   OH239315   1.826   1.492   7.523 -0.2825 -0.2082  0.8260
 5919TIP3    H139316   1.906   1.475   7.574  0.0466  1.1086  0.7871
 5919TIP3    H239317   1.848   1.569   7.470 -2.2264  1.4502  2.2847
 5920TIP3   OH239318   0.394   1.674   2.842 -0.3846 -0.5649  0.7184
 5920TIP3    H139319   0.387   1.760   2.883  0.1159  0.7781 -1.7900
 5920TIP3    H239320   0.314   1.628   2.868 -1.5707  1.3600  0.6871
 5921TIP3   OH239321   2.664   2.283   0.379  0.2761 -0.2404 -0.3299
 5921TIP3    H139322   2.692   2.372   0.401 -0.0535 -0.7322  2.4028
 5921TIP3    H239323   2.569   2.285   0.385  0.1813 -0.4978 -1.5321
 5922TIP3   OH239324   1.067   5.426   0.634 -0.6573  0.0565  0.6057
 5922TIP3    H139325   1.105   5.382   0.710  0.3496  0.1075  0.1429
 5922TIP3    H239326   1.006   5.489   0.672 -0.7511 -0.4584  1.3394
 5923TIP3   OH239327   3.351   2.275   8.275  0.1034  0.2832 -0.1410
 5923TIP3    H139328   3.366   2.345   8.339 -1.3519 -0.7070  1.3578
 5923TIP3    H239329   3.439   2.249   8.248  0.6994  3.1886 -1.4101
 5924TIP3   OH239330   2.237   3.285   2.404  0.5940  0.7189 -0.2975
 5924TIP3    H139331   2.220   3.200   2.445  0.0359  0.8414 -0.2689
 5924TIP3    H239332   2.151   3.315   2.375  0.8710  1.0208 -0.8064
 5925TIP3   OH239333   4.567   4.738   0.154 -0.0420 -0.0421 -0.1441
 5925TIP3    H139334   4.508   4.809   0.129 -0.9971 -0.5185  0.6985
 5925TIP3    H239335   4.652   4.780   0.163 -0.4590  0.8635 -0.3334
 5926TIP3   OH239336   2.488   4.265   2.585 -0.2798 -0.9002  0.1901
 5926TIP3    H139337   2.515   4.324   2.655  0.8872 -1.3820  0.1573
 5926TIP3    H239338   2.557   4.200   2.580  1.2851  0.7915 -3.4340
 5927TIP3   OH239339   0.275   4.384   0.399  0.0425 -0.2555  0.2130
 5927TIP3    H139340   0.365   4.406   0.377 -0.2497 -0.1312 -0.9079
 5927TIP3    H239341   0.233   4.366   0.315 -1.3419  1.0439  0.5748
 5928TIP3   OH239342   3.520   1.457   1.101  0.2173  0.1523  0.0473
 5928TIP3    H139343   3.598   1.512   1.104 -0.0191  0.6930 -2.0689
 5928TIP3    H239344   3.550   1.373   1.067  0.0846 -0.0846  0.5000
 5929TIP3   OH239345   4.296   0.321   1.355  0.3261  0.3770  0.1402
 5929TIP3    H139346   4.226   0.377   1.389 -0.9552  0.8214 -2.9186
 5929TIP3    H239347   4.259   0.233   1.357  0.7928  0.1948  1.1603
 5930TIP3   OH239348   5.136   2.262   0.226 -0.0357 -0.3089 -0.1129
 5930TIP3    H139349   5.144   2.247   0.320 -0.3623 -0.2202 -0.0673
 5930TIP3    H239350   5.226   2.263   0.194  0.1388  0.5482  0.3448
 5931TIP3   OH239351   1.262   6.854   0.947 -0.0003  0.3084 -0.0358
 5931TIP3    H139352   1.213   6.933   0.967  1.8300  1.3774  0.5448
 5931TIP3    H239353   1.299   6.827   1.032 -0.4959 -1.1248 -0.2461
 5932TIP3   OH239354   6.894   2.262   2.001 -0.1422  0.0821  0.0989
 5932TIP3    H139355   6.892   2.288   1.909 -0.2546 -2.9041 -0.8516
 5932TIP3    H239356   6.941   2.179   2.001 -1.5799 -0.8347  2.5128
 5933TIP3   OH239357   1.794   2.937   1.644 -0.7421 -0.1697  0.0920
 5933TIP3    H139358   1.830   3.019   1.676  0.4190 -0.5134 -0.2812
 5933TIP3    H239359   1.829   2.871   1.703 -2.7889 -0.2908  1.2544
 5934TIP3   OH239360   4.557   5.363   0.732  0.0727 -0.1195  0.1048
 5934TIP3    H139361   4.506   5.390   0.809  0.9482 -1.3804  1.1842
 5934TIP3    H239362   4.519   5.279   0.706 -0.1587  0.2592 -0.7966
 5935TIP3   OH239363   0.605   1.142   1.511 -0.0066 -0.1914 -0.1913
 5935TIP3    H139364   0.676   1.206   1.507  0.8278 -1.1352 -0.7600
 5935TIP3    H239365   0.562   1.160   1.594  0.9102  0.3766  0.1793
 5936TIP3   OH239366   0.380   6.548   3.014 -0.3375  0.7021 -0.1493
 5936TIP3    H139367   0.306   6.514   2.962  0.0202 -1.4392  0.6682
 5936TIP3    H239368   0.354   6.534   3.105  1.7501 -1.8556  0.1803
 5937TIP3   OH239369   4.766   5.458   1.686  0.0888 -0.2148 -0.1550
 5937TIP3    H139370   4.710   5.533   1.702  0.3196  0.0939 -0.7522
 5937TIP3    H239371   4.802   5.436   1.772  2.0852  2.0194 -0.3021
 5938TIP3   OH239372   2.302   1.674   7.363  0.0448 -0.0032  0.0538
 5938TIP3    H139373   2.221   1.672   7.312 -0.4907 -0.4330  0.9003
 5938TIP3    H239374   2.364   1.722   7.308 -0.9596  0.8723 -0.3388
 5939TIP3   OH239375   5.904   5.136   8.303  0.3299  0.2741  0.1462
 5939TIP3    H139376   5.904   5.231   8.299 -0.8821  0.3488  1.1008
 5939TIP3    H239377   5.907   5.116   8.396 -2.6969 -0.5017  0.1888
 5940TIP3   OH239378   4.167   4.471   1.562 -0.2089  0.0549  0.1415
 5940TIP3    H139379   4.189   4.389   1.607 -0.5705  0.1104  0.4195
 5940TIP3    H239380   4.093   4.448   1.507 -0.8694  0.4000  0.8706
 5941TIP3   OH239381   0.076   2.157   8.086  0.1640 -0.3603 -0.0453
 5941TIP3    H139382   0.038   2.123   8.005  2.4779 -0.6100 -1.0927
 5941TIP3    H239383   0.051   2.092   8.152 -1.0337 -0.5952 -0.6854
 5942TIP3   OH239384   5.450   5.549   7.491  0.1335  0.2495 -0.2195
 5942TIP3    H139385   5.383   5.545   7.559 -0.4479 -1.3971 -0.8354
 5942TIP3    H239386   5.401   5.569   7.411  0.7026  1.3201 -0.3248
 5943TIP3   OH239387   5.659   5.361   8.346 -0.2503  0.2694  0.2109
 5943TIP3    H139388   5.613   5.430   8.395 -0.4140  0.9627 -0.8844
 5943TIP3    H239389   5.703   5.407   8.275  1.5402 -0.4881  0.7767
 5944TIP3   OH239390   3.044   2.215   3.037 -0.2883  0.2361 -0.2774
 5944TIP3    H139391   2.989   2.141   3.012  0.0913  0.4265 -1.7345
 5944TIP3    H239392   3.113   2.175   3.091 -0.0126 -0.4951 -1.1522
 5945TIP3   OH239393   1.131   6.125   1.463  0.3924  0.0655 -0.2988
 5945TIP3    H139394   1.204   6.186   1.465  0.2536  0.2301 -0.2540
 5945TIP3    H239395   1.062   6.168   1.513 -0.5448  0.9332 -2.2449
 5946TIP3   OH239396   1.031   1.554   1.608 -0.4973  0.0473 -0.2943
 5946TIP3    H139397   0.953   1.596   1.573  0.2852  1.0033 -0.9744
 5946TIP3    H239398   1.055   1.489   1.542 -1.2360 -0.9143  0.3632
 5947TIP3   OH239399   5.694   0.270   6.677  0.1480  0.2489  0.2365
 5947TIP3    H139400   5.651   0.298   6.597  2.0876  1.3105 -0.5087
 5947TIP3    H239401   5.767   0.331   6.689 -0.0892  0.1632  2.8553
 5948TIP3   OH239402   3.799   6.737   1.566 -0.0616 -0.2386  0.0349
 5948TIP3    H139403   3.711   6.708   1.544 -0.3142 -0.1109  0.8255
 5948TIP3    H239404   3.798   6.832   1.553  0.8901 -0.5462 -2.9712
 5949TIP3   OH239405   4.778   6.627   2.078  0.2355  0.2815  1.2208
 5949TIP3    H139406   4.847   6.659   2.019 -0.0290 -1.4415 -0.1257
 5949TIP3    H239407   4.698   6.669   2.046  0.1170 -0.5321  0.3897
 5950TIP3   OH239408   3.118   2.928   1.748  0.9525 -0.0906  0.2414
 5950TIP3    H139409   3.180   2.895   1.812  0.3384  1.1190  1.5218
 5950TIP3    H239410   3.110   3.022   1.767 -1.4518 -0.2475  0.3306
 5951TIP3   OH239411   6.479   5.034   7.947 -0.3947  0.4228 -0.1101
 5951TIP3    H139412   6.455   4.992   7.863  2.2750 -0.8159 -0.3475
 5951TIP3    H239413   6.440   4.977   8.013  0.5018 -0.6587 -0.4880
 5952TIP3   OH239414   4.469   6.155   7.357  0.1642 -0.1453  0.3631
 5952TIP3    H139415   4.468   6.061   7.340 -0.1012 -0.1232  0.2666
 5952TIP3    H239416   4.556   6.171   7.395  0.2085 -0.4282  0.3820
 5953TIP3   OH239417   0.815   1.555   1.027 -0.1198 -0.8927 -0.0590
 5953TIP3    H139418   0.904   1.585   1.048  0.0633 -1.6466  0.2533
 5953TIP3    H239419   0.815   1.545   0.932 -1.0555  2.8941 -0.6367
 5954TIP3   OH239420   0.102   4.176   0.753  0.4307 -0.0390 -0.0516
 5954TIP3    H139421   0.094   4.155   0.846 -0.5955  2.1734  0.4471
 5954TIP3    H239422   0.036   4.122   0.710  3.0535 -3.5264 -0.0685
 5955TIP3   OH239423   1.192   5.872   0.378  0.3533  0.6490 -0.2984
 5955TIP3    H139424   1.241   5.792   0.360 -0.3839  0.3434 -1.0049
 5955TIP3    H239425   1.192   5.919   0.295 -0.5773  0.6241 -0.3200
 5956TIP3   OH239426   6.040   1.412   1.360  0.1688  0.5648 -0.3589
 5956TIP3    H139427   5.959   1.458   1.380  0.1082  0.6914 -0.8802
 5956TIP3    H239428   6.046   1.344   1.427 -0.7456  0.0935 -0.7355
 5957TIP3   OH239429   1.128   0.879   0.776  0.8635 -0.5700  0.0396
 5957TIP3    H139430   1.134   0.945   0.706  1.1524 -1.3623 -0.7061
 5957TIP3    H239431   1.129   0.929   0.857  2.0099  0.2916 -0.4898
 5958TIP3   OH239432   1.122   1.083   0.613  0.0019  0.1424  0.3769
 5958TIP3    H139433   1.083   1.083   0.526 -0.2332 -2.1383  0.4308
 5958TIP3    H239434   1.118   1.175   0.641 -0.6966  0.7795 -1.6428
 5959TIP3   OH239435   6.758   0.242   8.166  0.2092 -0.2001  0.2410
 5959TIP3    H139436   6.814   0.319   8.174  1.1232 -0.8107 -0.0394
 5959TIP3    H239437   6.756   0.224   8.072  1.0585 -1.2497  0.3999
 5960TIP3   OH239438   3.381   2.741   0.614  0.3171 -0.0301 -0.2109
 5960TIP3    H139439   3.292   2.709   0.602  0.6810 -1.1381 -0.0962
 5960TIP3    H239440   3.416   2.747   0.525  0.7297 -1.4696 -0.1851
 5961TIP3   OH239441   5.900   2.731   7.590  0.1264 -0.0618 -0.2277
 5961TIP3    H139442   5.944   2.670   7.650  0.7634  1.5375  0.9900
 5961TIP3    H239443   5.808   2.702   7.591  0.6807 -2.0337 -1.0393
 5962TIP3   OH239444   2.822   2.125   0.881  0.3165 -0.5153  0.1602
 5962TIP3    H139445   2.806   2.219   0.891 -0.3218 -0.4222 -1.3778
 5962TIP3    H239446   2.847   2.095   0.968  1.8844  1.3375  0.4132
 5963TIP3   OH239447   1.401   4.768   0.421  0.2030  0.7258  0.1112
 5963TIP3    H139448   1.396   4.864   0.416 -3.2004  0.7303  1.0153
 5963TIP3    H239449   1.404   4.750   0.515 -1.7954 -0.0133  0.0798
 5964TIP3   OH239450   0.566   1.785   0.130  0.1064  0.3526 -0.5929
 5964TIP3    H139451   0.587   1.719   0.065  0.3478  0.3238 -0.4846
 5964TIP3    H239452   0.490   1.749   0.177  0.1743  0.1975 -0.6004
 5965TIP3   OH239453   5.546   4.231   1.678 -0.5292 -0.5529  0.3579
 5965TIP3    H139454   5.460   4.205   1.646  0.2417 -4.1946  0.7797
 5965TIP3    H239455   5.548   4.203   1.769  0.8957 -0.0589  0.5043
 5966TIP3   OH239456   4.497   6.142   1.028  0.1048  0.1757  0.1204
 5966TIP3    H139457   4.469   6.227   0.994 -0.0133  0.3795  0.7122
 5966TIP3    H239458   4.513   6.089   0.950 -1.8833  0.0580 -0.2509
 5967TIP3   OH239459   5.794   2.039   1.372  0.2183  0.0613  0.1195
 5967TIP3    H139460   5.814   2.100   1.444 -0.9164 -2.1276  2.4514
 5967TIP3    H239461   5.701   2.055   1.353  0.4780  0.5268 -0.7783
 5968TIP3   OH239462   0.095   0.408   0.039  0.4555 -0.3141  0.1204
 5968TIP3    H139463   0.050   0.324   0.029 -0.4141  0.1336  0.1848
 5968TIP3    H239464   0.067   0.460  -0.036  0.9922 -0.0788  0.0804
 5969TIP3   OH239465   5.506   1.544   3.155  0.1915 -0.2497 -0.1343
 5969TIP3    H139466   5.501   1.450   3.138 -0.0213 -0.8392  2.6674
 5969TIP3    H239467   5.534   1.582   3.072  0.2715 -2.7719 -1.3541
 5970TIP3   OH239468   2.470   0.393   0.559  0.1263 -0.0773 -0.5458
 5970TIP3    H139469   2.397   0.453   0.544  1.9350  2.2851 -0.5206
 5970TIP3    H239470   2.517   0.430   0.635  1.2804 -1.5770 -0.4754
 5971TIP3   OH239471   2.122   1.851   2.935  0.1150  0.4496 -0.0154
 5971TIP3    H139472   2.172   1.920   2.891 -0.3040  1.1184  0.5285
 5971TIP3    H239473   2.164   1.769   2.908 -0.4908  0.7861 -2.1215
 5972TIP3   OH239474   1.472   4.525   7.241 -0.2389  0.4242 -0.3367
 5972TIP3    H139475   1.444   4.601   7.190 -0.1714  0.9731  0.4222
 5972TIP3    H239476   1.392   4.493   7.284  0.0481  1.2292  0.8374
 5973TIP3   OH239477   4.706   0.587   0.484  0.0233  0.1203 -0.2060
 5973TIP3    H139478   4.681   0.574   0.575  2.7592 -0.1163  0.5889
 5973TIP3    H239479   4.671   0.510   0.439 -1.4386  0.2827  0.5928
 5974TIP3   OH239480   4.609   0.292   1.418 -0.1701 -0.4849  0.2265
 5974TIP3    H139481   4.522   0.259   1.442 -0.3245 -0.5282 -0.3658
 5974TIP3    H239482   4.602   0.311   1.324 -0.4384  2.2443  0.6932
 5975TIP3   OH239483   5.316   1.066   1.265 -0.5533  0.7702 -0.5992
 5975TIP3    H139484   5.271   0.981   1.267 -0.9621  1.0033  1.6726
 5975TIP3    H239485   5.246   1.130   1.256 -0.5809  1.0429  1.3323
 5976TIP3   OH239486   3.572   3.948   1.794  0.2384 -0.8096  0.7399
 5976TIP3    H139487   3.614   3.931   1.878 -1.9883 -0.1132  2.0979
 5976TIP3    H239488   3.528   3.866   1.772 -1.0606 -0.3596  1.4882
 5977TIP3   OH239489   5.788   0.417   1.958  0.1516 -0.4474  0.4092
 5977TIP3    H139490   5.808   0.329   1.989  0.7875 -1.1808 -1.8966
 5977TIP3    H239491   5.694   0.414   1.938  0.2463 -0.7330 -0.0092
 5978TIP3   OH239492   3.500   1.946   1.867 -0.2684  0.0414 -0.1322
 5978TIP3    H139493   3.422   1.921   1.817  0.6325  0.8034 -2.0039
 5978TIP3    H239494   3.493   2.041   1.877  0.5473  0.1643 -0.5917
 5979TIP3   OH239495   5.735   0.013   8.382 -0.2565 -0.6576  0.6541
 5979TIP3    H139496   5.826   0.030   8.355 -0.7109 -1.6954 -1.7832
 5979TIP3    H239497   5.695   0.100   8.383  0.0085 -0.4364 -1.4980
 5980TIP3   OH239498   4.839   5.672   0.784  0.4898 -0.4819  0.4553
 5980TIP3    H139499   4.901   5.742   0.763 -1.8926  0.9963 -2.3371
 5980TIP3    H239500   4.867   5.598   0.729  1.2512 -0.7267  1.1553
 5981TIP3   OH239501   0.257   6.313   7.342  0.1282  0.3682 -0.3453
 5981TIP3    H139502   0.330   6.264   7.304  0.4216 -0.3582  1.0593
 5981TIP3    H239503   0.242   6.386   7.282  0.0766 -1.0998 -2.2071
 5982TIP3   OH239504   4.769   0.232   2.986  0.0628 -0.2547 -0.5793
 5982TIP3    H139505   4.749   0.198   3.073  1.3425  0.3798 -0.0073
 5982TIP3    H239506   4.781   0.153   2.932 -1.8978 -0.6557 -0.5141
 5983TIP3   OH239507   4.319   3.204   7.242  0.3153  0.0242 -0.5253
 5983TIP3    H139508   4.394   3.227   7.188  1.0908 -0.0745  0.4886
 5983TIP3    H239509   4.255   3.273   7.226  0.1434 -0.5010 -2.2743
 5984TIP3   OH239510   2.162   2.393   1.671  0.4853  0.4478 -0.0728
 5984TIP3    H139511   2.171   2.430   1.759  0.7798 -0.0068  0.0939
 5984TIP3    H239512   2.197   2.460   1.612  0.9387  0.4686  0.2165
 5985TIP3   OH239513   2.231   3.680   1.279  0.0259 -0.2468  0.1892
 5985TIP3    H139514   2.161   3.699   1.341  0.9654  2.3037  0.6079
 5985TIP3    H239515   2.209   3.731   1.201  1.3107  0.5180  0.2876
 5986TIP3   OH239516   6.809   6.877   7.952  0.3786 -0.0770 -0.2675
 5986TIP3    H139517   6.718   6.882   7.980 -0.2591  0.1639 -2.2470
 5986TIP3    H239518   6.829   6.964   7.918  0.8386 -0.5734 -1.2927
 5987TIP3   OH239519   0.857   4.218   7.344 -0.0846 -0.7869  0.2357
 5987TIP3    H139520   0.919   4.183   7.280 -0.8082 -1.1133 -0.3046
 5987TIP3    H239521   0.874   4.312   7.344 -0.5736 -0.6701 -1.0136
 5988TIP3   OH239522   1.482   6.683   2.036  0.0459  0.1794 -0.3141
 5988TIP3    H139523   1.412   6.646   1.982 -0.3948  0.8792 -0.2412
 5988TIP3    H239524   1.460   6.655   2.125  0.8659 -1.1168 -0.4944
 5989TIP3   OH239525   4.931   1.699   2.071  0.2389  0.1612  0.1951
 5989TIP3    H139526   4.868   1.698   1.999 -0.5292  0.4278  0.8480
 5989TIP3    H239527   4.892   1.757   2.137  1.2536  0.4850  0.5425
 5990TIP3   OH239528   4.665   4.845   0.870  0.3980  0.1921 -0.0821
 5990TIP3    H139529   4.667   4.795   0.952 -1.3399  0.2165  0.0115
 5990TIP3    H239530   4.576   4.879   0.865  1.2703  2.5946 -0.5827
 5991TIP3   OH239531   2.886   3.402   7.398  0.3759 -0.0538 -0.7419
 5991TIP3    H139532   2.852   3.489   7.420 -1.3515 -0.7025 -0.7471
 5991TIP3    H239533   2.859   3.388   7.307  0.7587 -0.5504 -0.7816
 5992TIP3   OH239534   6.304   2.602   0.779  0.0662 -0.1078 -0.0860
 5992TIP3    H139535   6.227   2.544   0.777  1.2389 -1.9844  2.7036
 5992TIP3    H239536   6.297   2.647   0.863  0.5875  1.9123 -1.0705
 5993TIP3   OH239537   6.887   1.483   2.631  0.1664  0.1922  0.1015
 5993TIP3    H139538   6.840   1.487   2.714 -1.7645 -0.5479 -0.9187
 5993TIP3    H239539   6.833   1.533   2.570  1.2867  0.2827 -0.8601
 5994TIP3   OH239540   2.859   4.249   1.241 -0.8967 -0.1111 -0.2235
 5994TIP3    H139541   2.915   4.199   1.300  0.2144 -0.5469 -1.5829
 5994TIP3    H239542   2.779   4.198   1.234 -0.7286 -0.4490  0.2780
 5995TIP3   OH239543   0.108   1.040   0.113 -0.5229  0.1526  0.2551
 5995TIP3    H139544   0.034   0.988   0.082 -0.9349  1.2512 -0.6330
 5995TIP3    H239545   0.069   1.109   0.165 -0.1614  0.9801 -0.5519
 5996TIP3   OH239546   3.370   4.340   0.571 -0.0317  0.3871 -0.4637
 5996TIP3    H139547   3.459   4.342   0.534  0.3884 -0.2873  0.4717
 5996TIP3    H239548   3.348   4.247   0.575 -1.2611  0.5900 -1.7600
 5997TIP3   OH239549   2.527   0.658   2.540  0.3955 -0.1668 -0.0081
 5997TIP3    H139550   2.436   0.631   2.550  0.0335  1.0802  0.1567
 5997TIP3    H239551   2.563   0.654   2.629  0.0928  0.7355  0.1619
 5998TIP3   OH239552   5.918   4.502   7.409 -0.6894 -0.2427 -0.3955
 5998TIP3    H139553   5.934   4.439   7.339 -0.9429 -3.4803  2.2166
 5998TIP3    H239554   6.005   4.522   7.444 -0.6508  0.4899 -0.8956
 5999TIP3   OH239555   1.377   2.287   0.978  0.0470  0.0359  0.3327
 5999TIP3    H139556   1.288   2.266   1.007  0.0839 -0.1025  0.3421
 5999TIP3    H239557   1.378   2.266   0.885 -0.3266  1.2652  0.0304
 6000TIP3   OH239558   4.741   6.149   1.727 -0.2241  0.0837 -0.2884
 6000TIP3    H139559   4.753   6.101   1.809 -1.7779  1.4348  0.8063
 6000TIP3    H239560   4.649   6.134   1.704  0.0389  0.2108 -1.4667
 6001TIP3   OH239561   5.233   6.171   1.653 -0.2579  0.2355  0.3265
 6001TIP3    H139562   5.255   6.103   1.590  1.5051 -0.4327  1.6032
 6001TIP3    H239563   5.138   6.180   1.645 -0.3347 -1.2369 -0.9848
 6002TIP3   OH239564   6.414   0.020   2.263 -0.0677  0.7228 -0.0226
 6002TIP3    H139565   6.485   0.082   2.276  0.1097  0.5470 -0.1392
 6002TIP3    H239566   6.423  -0.042   2.335  1.5428 -0.8454 -1.4487
 6003TIP3   OH239567   2.347   0.895   0.521  0.1589 -0.6474  0.0028
 6003TIP3    H139568   2.288   0.945   0.465 -1.1341 -1.7505  0.3441
 6003TIP3    H239569   2.335   0.932   0.608 -1.0375 -1.7288  0.3145
 6004TIP3   OH239570   6.191   6.142   2.915  0.0629  0.1397 -0.4578
 6004TIP3    H139571   6.199   6.228   2.874 -0.9126  0.7437  0.5479
 6004TIP3    H239572   6.116   6.151   2.974 -0.9341 -1.8239 -1.3538
 6005TIP3   OH239573   4.593   5.685   1.829 -0.5835 -0.5102 -0.1498
 6005TIP3    H139574   4.596   5.630   1.907  1.0389  1.7473  1.5187
 6005TIP3    H239575   4.500   5.692   1.808 -1.0403 -1.3538  1.4560
 6006TIP3   OH239576   4.297   3.405   7.676 -0.0445  0.2185 -0.4463
 6006TIP3    H139577   4.333   3.486   7.640  0.6733 -0.2485 -0.7887
 6006TIP3    H239578   4.272   3.354   7.599  1.1707 -0.6393 -0.2826
 6007TIP3   OH239579   1.909   0.947   0.139 -0.2331  0.4111  0.3717
 6007TIP3    H139580   1.829   0.971   0.093 -0.3111  0.5357  0.5735
 6007TIP3    H239581   1.957   1.029   0.148 -0.1422  0.3586  0.3693
 6008TIP3   OH239582   5.283   0.781   2.226  0.1355  0.3427 -0.0516
 6008TIP3    H139583   5.242   0.707   2.272  1.8450 -1.3409 -1.0681
 6008TIP3    H239584   5.359   0.804   2.279 -0.1533  1.1087  0.0401
 6009TIP3   OH239585   2.161   5.836   2.524 -0.0962  0.6786 -0.0188
 6009TIP3    H139586   2.189   5.903   2.587 -0.2361  0.0868  0.6930
 6009TIP3    H239587   2.235   5.826   2.464 -0.2933  1.8660 -0.4723
 6010TIP3   OH239588   1.200   3.998   2.014  0.0339  0.1925  0.3147
 6010TIP3    H139589   1.272   3.979   1.954 -0.1020  1.4468 -0.2854
 6010TIP3    H239590   1.128   4.025   1.957 -0.6299 -0.1968  0.9565
 6011TIP3   OH239591   0.822   2.189   1.158  0.4103 -0.1065  0.2689
 6011TIP3    H139592   0.760   2.121   1.132  1.2201 -0.7486 -0.0454
 6011TIP3    H239593   0.843   2.168   1.249 -0.6782  0.7769  0.7319
 6012TIP3   OH239594   4.197   2.310   0.393  0.0610 -0.5012  0.2739
 6012TIP3    H139595   4.138   2.344   0.460  0.0136  1.5088 -0.6820
 6012TIP3    H239596   4.285   2.325   0.428  0.0244 -1.4415  0.7739
 6013TIP3   OH239597   4.651   3.759   0.338  0.4387  0.4144 -0.5507
 6013TIP3    H139598   4.647   3.679   0.286  0.2519 -1.6313  2.3339
 6013TIP3    H239599   4.744   3.779   0.344  0.5683 -0.1513 -0.5571
 6014TIP3   OH239600   1.805   6.300   8.026 -0.0623  0.2286 -0.1983
 6014TIP3    H139601   1.715   6.271   8.038  0.0152 -0.1756 -0.5654
 6014TIP3    H239602   1.812   6.319   7.932  0.2990  0.0211 -0.2167
 6015TIP3   OH239603   0.678   0.553   0.603 -0.3659 -0.1392  0.1399
 6015TIP3    H139604   0.706   0.534   0.514 -1.1727  0.8070 -0.3380
 6015TIP3    H239605   0.631   0.475   0.631 -1.3264  0.0899 -0.7920
 6016TIP3   OH239606   4.857   4.629   2.013 -0.5545 -0.0593  0.1409
 6016TIP3    H139607   4.928   4.585   2.059 -1.6014 -1.0181  0.8901
 6016TIP3    H239608   4.828   4.697   2.073 -0.9821 -0.3795  0.2991
 6017TIP3   OH239609   1.542   3.053   0.429 -0.5443 -0.4114 -0.5701
 6017TIP3    H139610   1.612   3.019   0.373  0.1756 -0.3159  0.2510
 6017TIP3    H239611   1.556   3.147   0.429 -0.4423 -0.4234 -0.1158
 6018TIP3   OH239612   1.236   5.915   7.453  0.5543 -0.6123 -0.6691
 6018TIP3    H139613   1.255   5.861   7.376 -1.8274  0.5006 -2.1555
 6018TIP3    H239614   1.185   5.858   7.511 -0.9795 -0.3830 -1.7244
 6019TIP3   OH239615   0.893   3.626   0.280 -0.0616 -0.2770  0.3055
 6019TIP3    H139616   0.920   3.577   0.202 -0.4465 -1.0259  0.6308
 6019TIP3    H239617   0.847   3.703   0.245  1.7912  0.6325 -0.2342
 6020TIP3   OH239618   0.346   0.205   2.523  0.1552  0.2181 -0.1919
 6020TIP3    H139619   0.354   0.175   2.432  0.9313  1.2364 -0.4896
 6020TIP3    H239620   0.295   0.138   2.567 -0.4143 -0.1875 -1.4381
 6021TIP3   OH239621   3.459   4.681   1.767 -0.2576  0.5458  0.0873
 6021TIP3    H139622   3.375   4.652   1.804 -1.0881  3.5295  0.8237
 6021TIP3    H239623   3.434   4.732   1.690  0.9669  0.6614 -0.2478
 6022TIP3   OH239624   2.619   1.040   1.041  0.9135  0.6847 -0.1410
 6022TIP3    H139625   2.680   1.063   1.111  1.4039  0.6533 -0.5525
 6022TIP3    H239626   2.665   0.974   0.989  0.1190 -0.1043  0.1379
 6023TIP3   OH239627   6.254   2.914   0.057 -0.2449  0.4274 -0.9917
 6023TIP3    H139628   6.229   2.876   0.141 -0.7271  0.5233 -1.0909
 6023TIP3    H239629   6.192   2.877  -0.006 -0.3193  0.8852 -1.1927
 6024TIP3   OH239630   0.948   4.853   7.430  0.3396 -0.2879  0.0451
 6024TIP3    H139631   1.014   4.802   7.477 -1.7784 -2.2493  1.1253
 6024TIP3    H239632   0.937   4.806   7.347 -0.1693 -0.4034  0.1726
 6025TIP3   OH239633   1.834   1.541   1.156  0.1272 -0.4462 -0.0333
 6025TIP3    H139634   1.868   1.453   1.169  1.5101  0.0573 -0.1038
 6025TIP3    H239635   1.748   1.528   1.116  0.4064 -1.7552 -0.2355
 6026TIP3   OH239636   4.532   5.915   0.828  0.5658 -0.2576 -0.2608
 6026TIP3    H139637   4.606   5.929   0.769 -0.8461  1.8302 -1.7202
 6026TIP3    H239638   4.455   5.925   0.771 -0.8876  1.9159  1.8995
 6027TIP3   OH239639   3.181   3.109   7.758  0.3518  0.3352 -0.2152
 6027TIP3    H139640   3.115   3.143   7.698 -0.1748 -1.0565 -0.4709
 6027TIP3    H239641   3.160   3.148   7.843 -1.1527 -0.5063 -0.1740
 6028TIP3   OH239642   0.576   2.858   0.621 -0.4234 -0.2455 -0.0913
 6028TIP3    H139643   0.607   2.821   0.704  0.9902 -0.2453 -0.5966
 6028TIP3    H239644   0.621   2.807   0.554  1.3219  2.1201 -0.8171
 6029TIP3   OH239645   4.136   5.922   2.549 -0.2665  0.1473 -0.7263
 6029TIP3    H139646   4.104   5.987   2.611 -0.6349  0.4220 -1.2022
 6029TIP3    H239647   4.061   5.865   2.533  0.2770 -0.9338  0.3426
 6030TIP3   OH239648   0.201   0.380   2.952 -0.0726 -0.3216  0.7081
 6030TIP3    H139649   0.134   0.348   2.891 -1.3669 -0.4652  2.1604
 6030TIP3    H239650   0.220   0.469   2.922 -0.7156 -0.3734  0.1260
 6031TIP3   OH239651   4.269   0.026   3.020  0.0824 -0.2506  0.1024
 6031TIP3    H139652   4.220   0.076   3.085  1.1297  2.7722 -1.2620
 6031TIP3    H239653   4.214   0.026   2.942 -0.1036 -1.7526  0.1967
 6032TIP3   OH239654   5.355   3.138   7.925  1.0084  0.3104  0.7227
 6032TIP3    H139655   5.398   3.137   7.839  2.6606 -0.7310  1.5241
 6032TIP3    H239656   5.354   3.047   7.953  0.5194  0.6402  1.8340
 6033TIP3   OH239657   2.326   1.170   7.382  0.0378 -0.7570  0.3173
 6033TIP3    H139658   2.341   1.250   7.432 -1.2494 -0.4553  0.2700
 6033TIP3    H239659   2.232   1.153   7.392  0.0709 -1.6041 -0.6427
 6034TIP3   OH239660   1.178   6.155   7.944  0.7049  0.1787 -0.1529
 6034TIP3    H139661   1.249   6.091   7.933 -0.1166 -0.8925  0.5474
 6034TIP3    H239662   1.183   6.182   8.035 -0.2051 -0.4508  0.0992
 6035TIP3   OH239663   2.466   5.270   1.453 -0.0749 -0.8553  0.6365
 6035TIP3    H139664   2.541   5.326   1.477 -1.0707  0.3622  1.0038
 6035TIP3    H239665   2.473   5.261   1.358 -0.7387  1.2226  0.3397
 6036TIP3   OH239666   2.271   0.312   0.911 -0.1642  1.2695 -0.0358
 6036TIP3    H139667   2.249   0.314   0.817 -0.5729  0.4282  0.0357
 6036TIP3    H239668   2.326   0.234   0.921 -2.3358 -0.2377  0.8620
 6037TIP3   OH239669   0.587   0.219   1.265  0.5416  0.1097 -0.3149
 6037TIP3    H139670   0.510   0.194   1.317  0.1895  1.1720 -0.2896
 6037TIP3    H239671   0.552   0.275   1.196  1.2408  0.2517 -0.5659
 6038TIP3   OH239672   4.406   2.390   1.978 -0.2858  0.1077 -0.4925
 6038TIP3    H139673   4.407   2.295   1.984 -2.7904 -0.1408 -2.2851
 6038TIP3    H239674   4.421   2.420   2.067  2.3524 -1.8495 -0.1502
 6039TIP3   OH239675   5.933   6.259   8.202 -0.0996 -0.3407 -0.1417
 6039TIP3    H139676   5.968   6.193   8.262 -0.1022 -1.3003 -1.1590
 6039TIP3    H239677   5.970   6.236   8.117  0.6185  1.5217 -0.3787
 6040TIP3   OH239678   4.444   5.644   2.071 -0.4473 -0.3437  0.1451
 6040TIP3    H139679   4.474   5.718   2.122 -0.8331  1.3769 -1.9535
 6040TIP3    H239680   4.395   5.590   2.133 -0.1678  1.1508  1.7422
 6041TIP3   OH239681   2.562   2.857   1.196  0.1313  0.3886  0.1184
 6041TIP3    H139682   2.537   2.890   1.110  1.0348  2.7122  0.6879
 6041TIP3    H239683   2.490   2.799   1.221  1.5175 -3.5247 -3.7396
 6042TIP3   OH239684   1.458   0.269   0.611  0.4268 -0.1882  0.5527
 6042TIP3    H139685   1.429   0.346   0.661 -1.2247 -0.2338 -0.2476
 6042TIP3    H239686   1.532   0.300   0.560 -0.2829  0.9383  0.1562
 6043TIP3   OH239687   3.935   3.206   1.831  0.8237  0.4930  0.0758
 6043TIP3    H139688   3.933   3.211   1.927 -1.1485 -2.2182  0.2741
 6043TIP3    H239689   3.864   3.265   1.803  2.2047  2.2653  0.1380
 6044TIP3   OH239690   5.054   0.897   2.536 -0.5002 -0.0591 -0.2922
 6044TIP3    H139691   5.072   0.980   2.493  0.3772 -0.5313 -0.8855
 6044TIP3    H239692   5.095   0.904   2.621 -1.5202  0.5711  0.1653
 6045TIP3   OH239693   1.572   2.479   1.023 -0.5290  0.1305  0.0814
 6045TIP3    H139694   1.531   2.469   1.109 -0.6822 -0.8141 -0.0934
 6045TIP3    H239695   1.515   2.430   0.964 -0.1736  0.3978 -0.4876
 6046TIP3   OH239696   2.263   1.061   2.100  0.2028  0.0158 -0.6828
 6046TIP3    H139697   2.272   1.068   2.005 -1.5083 -0.0897 -0.8853
 6046TIP3    H239698   2.169   1.073   2.116  0.5956  1.1697  1.0992
 6047TIP3   OH239699   0.824   0.487   7.553  0.2207  0.8421 -0.5490
 6047TIP3    H139700   0.865   0.570   7.578 -1.0294  0.9184  1.5383
 6047TIP3    H239701   0.769   0.465   7.628 -0.8278 -1.0025 -1.7920
 6048TIP3   OH239702   3.031   6.676   7.271 -0.4251 -0.1331 -0.6165
 6048TIP3    H139703   3.045   6.700   7.362  3.0986 -1.2407 -0.7282
 6048TIP3    H239704   2.965   6.608   7.273 -1.8410  1.1990  0.8377
 6049TIP3   OH239705   2.305   1.876   8.118 -0.1080  0.1010  0.2942
 6049TIP3    H139706   2.321   1.784   8.098 -0.0080  0.1092  0.3342
 6049TIP3    H239707   2.316   1.922   8.035  1.7209  0.3176  0.6259
 6050TIP3   OH239708   0.310   6.784   7.196  0.8980  0.0896  0.5533
 6050TIP3    H139709   0.261   6.794   7.114 -0.0515 -0.0929  1.0953
 6050TIP3    H239710   0.393   6.829   7.179  1.2971 -1.1256 -0.9967
 6051TIP3   OH239711   6.328   4.915   7.751  0.7383 -0.4878  0.6052
 6051TIP3    H139712   6.381   4.836   7.744  2.3636  0.5341  0.9260
 6051TIP3    H239713   6.238   4.884   7.741  1.4619 -1.9780 -2.8555
 6052TIP3   OH239714   5.771   6.308   7.314 -0.0090 -0.2548  0.2194
 6052TIP3    H139715   5.697   6.276   7.366 -1.0157 -0.6135 -1.3674
 6052TIP3    H239716   5.738   6.386   7.270  1.7362  1.7835  2.2916
 6053TIP3   OH239717   6.375   0.158   7.286  0.1211 -0.2494 -0.2718
 6053TIP3    H139718   6.334   0.138   7.201 -1.8339 -1.4524  0.8685
 6053TIP3    H239719   6.400   0.072   7.321 -1.1080 -0.0362  1.2633
 6054TIP3   OH239720   1.079   2.539   8.331 -0.3865 -0.8036 -0.1520
 6054TIP3    H139721   1.045   2.473   8.391 -1.5823 -0.7540 -0.7459
 6054TIP3    H239722   1.014   2.544   8.261 -0.5503  1.2911  0.0909
 6055TIP3   OH239723   4.121   4.714   2.006 -0.4465 -0.1740  0.1657
 6055TIP3    H139724   4.063   4.679   2.073 -0.4087 -0.4406  0.0604
 6055TIP3    H239725   4.064   4.738   1.933 -0.3072 -1.6354 -0.4523
 6056TIP3   OH239726   4.040   4.775   0.804 -0.5359 -0.7980  0.8865
 6056TIP3    H139727   4.046   4.793   0.898 -1.5663  0.4789  0.7254
 6056TIP3    H239728   4.131   4.764   0.777 -0.0303  1.1570  1.6136
 6057TIP3   OH239729   2.025   4.912   0.896 -0.1499  0.2638 -0.0088
 6057TIP3    H139730   2.007   5.005   0.890  0.2855  0.4554  1.2547
 6057TIP3    H239731   1.999   4.876   0.812 -2.1250  1.2190  0.1460
 6058TIP3   OH239732   4.102   4.860   1.075  0.4857  0.4073 -0.6217
 6058TIP3    H139733   4.032   4.858   1.140  0.2905  1.0189 -0.8048
 6058TIP3    H239734   4.180   4.831   1.124 -0.1401 -1.6783 -0.7804
 6059TIP3   OH239735   1.900   4.191   1.945 -0.0559  0.5157  0.5781
 6059TIP3    H139736   1.969   4.246   1.907  0.8110 -0.0028  1.3548
 6059TIP3    H239737   1.941   4.105   1.954 -0.4771  0.4435  1.9962
 6060TIP3   OH239738   4.805   4.248   0.565 -0.2463 -0.2667 -0.4361
 6060TIP3    H139739   4.868   4.320   0.562 -0.0624 -0.3276  1.0970
 6060TIP3    H239740   4.726   4.287   0.604  0.0110 -0.9783  0.8403
 6061TIP3   OH239741   3.294   5.507   2.288 -0.0898 -0.3019 -0.7990
 6061TIP3    H139742   3.245   5.518   2.369  1.8343 -1.4504  0.6074
 6061TIP3    H239743   3.277   5.587   2.238 -0.9416  0.6613  0.9388
 6062TIP3   OH239744   4.494   6.449   6.779  0.1000 -0.1748  0.4983
 6062TIP3    H139745   4.421   6.509   6.794  1.1766  1.2565  0.2331
 6062TIP3    H239746   4.506   6.449   6.684 -1.2681 -2.5820  0.2338
 6063TIP3   OH239747   5.047   6.138   7.629  0.5853 -0.2501  0.2060
 6063TIP3    H139748   5.123   6.162   7.683  0.2374 -0.2209  0.6941
 6063TIP3    H239749   4.995   6.218   7.625  0.2156 -0.4696  0.5010
 6064TIP3   OH239750   4.325   5.437   6.947 -0.0991 -0.4332 -0.0763
 6064TIP3    H139751   4.328   5.492   6.868  1.2985  1.4543  1.1988
 6064TIP3    H239752   4.274   5.488   7.010  0.2760 -1.0931  0.7872
 6065TIP3   OH239753   0.877   1.488   7.215  0.2951 -0.1662  0.0211
 6065TIP3    H139754   0.795   1.511   7.172 -0.2364 -1.2043  0.4567
 6065TIP3    H239755   0.943   1.494   7.146 -0.3097 -0.3092 -0.5723
 6066TIP3   OH239756   2.258   2.592   1.480  0.3307  0.3531 -0.4522
 6066TIP3    H139757   2.320   2.644   1.530  0.0483 -0.0954  0.3734
 6066TIP3    H239758   2.187   2.654   1.459  1.2882  1.0127 -1.8835
 6067TIP3   OH239759   3.062   5.394   1.940 -0.5112 -0.1965 -0.0414
 6067TIP3    H139760   3.071   5.305   1.975 -1.2098 -0.4302 -0.4287
 6067TIP3    H239761   3.078   5.384   1.846  1.1407  0.3882  0.1293
 6068TIP3   OH239762   6.183   1.697   0.263  0.1883  0.3076 -0.6832
 6068TIP3    H139763   6.156   1.774   0.213  2.1592  0.9761 -0.8220
 6068TIP3    H239764   6.255   1.728   0.318 -0.0173 -1.0858  0.4466
 6069TIP3   OH239765   5.375   4.046   0.407  0.3977  0.4647  0.3140
 6069TIP3    H139766   5.369   4.136   0.438 -2.0043 -0.1222  1.8477
 6069TIP3    H239767   5.298   4.003   0.444  2.4092 -2.7028  1.1816
 6070TIP3   OH239768   4.939   4.171   1.140 -0.1759 -0.4464 -0.0928
 6070TIP3    H139769   5.032   4.151   1.150 -0.0703 -0.1719 -0.5016
 6070TIP3    H239770   4.931   4.205   1.051 -0.0819  2.8919  1.0491
 6071TIP3   OH239771   3.190   2.558   7.029  0.5935 -0.2349  0.2383
 6071TIP3    H139772   3.154   2.566   6.941  2.8177  0.4861 -0.6925
 6071TIP3    H239773   3.120   2.586   7.087  0.4103  3.7167 -1.5971
 6072TIP3   OH239774   1.773   1.128   7.569 -0.2143 -0.0836 -0.4724
 6072TIP3    H139775   1.725   1.055   7.609  1.4164 -0.7987  0.2687
 6072TIP3    H239776   1.749   1.204   7.621 -0.4119 -0.4585 -0.0081
 6073TIP3   OH239777   0.002   4.674   0.293 -0.1885 -0.5398  0.6546
 6073TIP3    H139778   0.091   4.677   0.257 -0.3032 -0.1469  0.3872
 6073TIP3    H239779  -0.019   4.766   0.310 -0.3909 -0.6678  1.0980
 6074TIP3   OH239780   5.415   6.431   8.136 -0.1886  0.1140  0.4127
 6074TIP3    H139781   5.398   6.402   8.226 -1.2570  0.8611  0.4605
 6074TIP3    H239782   5.468   6.510   8.146  0.1020 -0.0705  0.3611
 6075TIP3   OH239783   3.115   3.371   0.661 -0.6971 -0.5564  0.0358
 6075TIP3    H139784   3.198   3.414   0.679 -1.1464  1.1628 -1.7915
 6075TIP3    H239785   3.125   3.333   0.574 -1.5035 -1.2289  0.2184
 6076TIP3   OH239786   2.233   6.310   2.130 -0.3104  0.8013 -0.1138
 6076TIP3    H139787   2.155   6.279   2.084  1.7082 -0.8781 -2.6960
 6076TIP3    H239788   2.237   6.403   2.110 -1.7286  0.9696  0.2482
 6077TIP3   OH239789   4.316   6.442   8.436 -0.2625 -0.1208 -0.6692
 6077TIP3    H139790   4.313   6.360   8.485  1.4971  0.1188 -0.0887
 6077TIP3    H239791   4.316   6.510   8.503 -0.1938  0.2930 -1.0805
 6078TIP3   OH239792   1.158   2.696   7.893  0.1158 -0.0448  0.1826
 6078TIP3    H139793   1.240   2.650   7.913 -0.1009 -0.3696  0.3302
 6078TIP3    H239794   1.103   2.630   7.851 -0.2799  0.0171  0.5960
 6079TIP3   OH239795   3.935   3.086   7.793 -0.1213 -0.1788  0.6955
 6079TIP3    H139796   3.964   3.148   7.860 -1.4946  0.5960  0.6095
 6079TIP3    H239797   3.954   3.000   7.830  0.5949  0.2628  1.3882
 6080TIP3   OH239798   2.002   4.312   2.455  0.1432 -0.0451 -0.1145
 6080TIP3    H139799   1.986   4.385   2.515  1.3743  1.5769 -1.6892
 6080TIP3    H239800   2.092   4.285   2.474  0.1250 -0.3182 -0.4215
 6081TIP3   OH239801   3.656   4.371   1.684  0.1169  0.4950 -0.0550
 6081TIP3    H139802   3.650   4.438   1.752  1.9464  0.8557 -0.1880
 6081TIP3    H239803   3.568   4.365   1.648  0.0180  3.2795 -0.4712
 6082TIP3   OH239804   0.946   4.505   0.386 -0.3980 -0.4166  0.3741
 6082TIP3    H139805   0.921   4.543   0.470  1.8749  2.6667 -0.1643
 6082TIP3    H239806   1.026   4.455   0.405 -0.6245 -0.8398  0.2401
 6083TIP3   OH239807   4.377   6.150   8.165  0.1137 -0.0470  0.4252
 6083TIP3    H139808   4.410   6.061   8.177 -0.9038 -0.2966  1.5171
 6083TIP3    H239809   4.302   6.141   8.107 -1.2421 -0.2013  2.1443
 6084TIP3   OH239810   2.130   2.998   1.947 -0.2278  0.2197  0.5256
 6084TIP3    H139811   2.146   2.909   1.976  3.9071 -0.3362 -2.5644
 6084TIP3    H239812   2.144   3.052   2.024  1.1979 -1.5923  1.6001
 6085TIP3   OH239813   1.341   0.803   2.846  0.2356  0.0051  0.4368
 6085TIP3    H139814   1.389   0.886   2.845  0.8228 -0.2953 -2.0884
 6085TIP3    H239815   1.249   0.828   2.855  0.5575  0.7467  2.1268
 6086TIP3   OH239816   0.797   6.135   0.476  0.5891  0.4747 -0.0715
 6086TIP3    H139817   0.818   6.058   0.528  1.5867  0.8123  0.0524
 6086TIP3    H239818   0.704   6.127   0.456  1.1394 -1.9872 -2.1064
 6087TIP3   OH239819   5.874   1.037   7.918  0.4987 -0.3172 -0.1451
 6087TIP3    H139820   5.812   1.001   7.981  0.5406  0.7169  0.5017
 6087TIP3    H239821   5.955   0.988   7.933  0.9464  0.8508  1.6269
 6088TIP3   OH239822   6.211   4.007   0.360  0.6046  0.5433 -0.7359
 6088TIP3    H139823   6.222   4.053   0.277 -0.9388 -1.5225 -2.1950
 6088TIP3    H239824   6.116   3.999   0.371  0.7818  0.4642  1.0741
 6089TIP3   OH239825   6.348   2.670   1.255  0.0073 -0.1680 -0.1077
 6089TIP3    H139826   6.306   2.588   1.230  0.4720  0.0029 -1.4958
 6089TIP3    H239827   6.427   2.643   1.301  0.4582 -0.5214 -1.0674
 6090TIP3   OH239828   3.919   5.372   7.345 -0.4221 -0.1745 -0.6364
 6090TIP3    H139829   3.919   5.287   7.301 -0.0927  0.0638 -1.1113
 6090TIP3    H239830   3.898   5.435   7.276 -0.0793  0.1886 -0.4186
 6091TIP3   OH239831   1.505   4.562   2.577  0.2808  0.6099 -0.1564
 6091TIP3    H139832   1.489   4.491   2.638 -0.7388 -0.5362 -1.6843
 6091TIP3    H239833   1.423   4.571   2.528  1.3870  0.7171 -2.0925
 6092TIP3   OH239834   5.490   1.716   2.890 -0.2127  1.1911  0.1034
 6092TIP3    H139835   5.403   1.741   2.922 -0.3918  0.0339  0.5584
 6092TIP3    H239836   5.477   1.701   2.796 -0.5598  0.8087  0.2093
 6093TIP3   OH239837   0.654   4.765   2.466  0.5517 -0.4887  0.9803
 6093TIP3    H139838   0.626   4.676   2.445  2.5721 -0.9745  0.1983
 6093TIP3    H239839   0.734   4.779   2.416  0.8011  1.4497  1.8017
 6094TIP3   OH239840   0.714   6.398   1.488 -0.1028  0.2268  0.0069
 6094TIP3    H139841   0.710   6.455   1.411  0.7459  1.1978  0.6525
 6094TIP3    H239842   0.635   6.344   1.482 -1.4576  2.1242 -0.1369
 6095TIP3   OH239843   0.251   6.476   3.302 -0.4760  0.2436 -0.2554
 6095TIP3    H139844   0.338   6.441   3.319 -0.2278  0.8499 -0.2400
 6095TIP3    H239845   0.195   6.399   3.294 -0.0042 -0.1384  0.0846
 6096TIP3   OH239846   1.543   2.117   0.331 -0.3817  0.1239  0.7047
 6096TIP3    H139847   1.542   2.114   0.235  1.1351 -1.8354  0.6911
 6096TIP3    H239848   1.451   2.112   0.356 -0.7594 -0.1033 -0.6537
 6097TIP3   OH239849   4.169   5.539   1.676 -0.3079  0.1636 -0.1323
 6097TIP3    H139850   4.135   5.449   1.676  0.4824 -0.1460 -0.3045
 6097TIP3    H239851   4.264   5.528   1.685 -0.0996  0.9331 -1.2011
 6098TIP3   OH239852   6.691   1.528   2.809  0.2407 -0.0755  0.2008
 6098TIP3    H139853   6.638   1.596   2.766 -1.1619 -0.4021  1.3385
 6098TIP3    H239854   6.627   1.468   2.846  1.4493 -1.1075  0.6812
 6099TIP3   OH239855   0.901   5.319   8.446 -0.4834 -0.3255 -0.0899
 6099TIP3    H139856   0.928   5.236   8.484  0.6626 -0.6785 -1.5570
 6099TIP3    H239857   0.948   5.323   8.362 -0.5676  1.7644 -0.0918
 6100TIP3   OH239858   5.170   3.926   7.505  0.0404 -0.5408 -0.1977
 6100TIP3    H139859   5.210   3.935   7.591  0.2684  0.9728 -0.4305
 6100TIP3    H239860   5.115   4.004   7.496 -1.2491 -1.4670 -0.7906
 6101TIP3   OH239861   5.566   0.884   1.687 -0.1322 -0.1622 -0.3331
 6101TIP3    H139862   5.657   0.872   1.716 -0.5665 -1.8749  0.4144
 6101TIP3    H239863   5.557   0.979   1.677  0.9956  0.2842  2.0874
 6102TIP3   OH239864   2.831   2.917   1.827  0.4088  0.0503  0.3402
 6102TIP3    H139865   2.917   2.884   1.801 -0.1138 -0.2964 -1.0595
 6102TIP3    H239866   2.840   3.012   1.823  1.1286  0.0643  1.6699
 6103TIP3   OH239867   3.045   2.790   7.932 -0.2993  0.5959  0.3246
 6103TIP3    H139868   2.977   2.743   7.981  0.8673 -0.9586  0.5422
 6103TIP3    H239869   3.077   2.856   7.992 -0.9531  0.7036  0.5651
 6104TIP3   OH239870   5.232   3.512   7.989  0.2573  0.0749  0.1978
 6104TIP3    H139871   5.247   3.446   7.922  0.2659  0.6421 -0.3684
 6104TIP3    H239872   5.169   3.472   8.049  0.6473 -0.6295  0.1401
 6105TIP3   OH239873   4.331   4.735   8.221  0.2202 -0.2372 -0.1618
 6105TIP3    H139874   4.362   4.777   8.301 -0.3392 -1.9545  1.0180
 6105TIP3    H239875   4.343   4.801   8.152 -0.7595  1.8890  1.5944
 6106TIP3   OH239876   6.593   4.022   7.674  0.1024  0.5422  0.0070
 6106TIP3    H139877   6.509   4.048   7.712  0.5814  0.2567  1.2926
 6106TIP3    H239878   6.658   4.051   7.736  0.7827 -1.8935  0.5412
 6107TIP3   OH239879   2.748   0.234   0.083 -0.1793 -0.2636 -0.5401
 6107TIP3    H139880   2.725   0.325   0.099 -0.2023 -0.2594 -0.5972
 6107TIP3    H239881   2.838   0.237   0.050 -0.2942 -0.2357 -0.8538
 6108TIP3   OH239882   4.660   0.552   7.192  0.0579 -0.1645  0.4413
 6108TIP3    H139883   4.587   0.563   7.131  0.3695  0.0821  0.1097
 6108TIP3    H239884   4.638   0.473   7.242 -0.5735  0.0642  0.5377
 6109TIP3   OH239885   2.071   1.816   7.642 -0.0714  0.6147  0.7712
 6109TIP3    H139886   2.063   1.841   7.734  0.8523 -1.7112  1.5646
 6109TIP3    H239887   2.158   1.846   7.615  0.0275  0.5029  0.9623
 6110TIP3   OH239888   4.365   4.912   8.407 -0.3176  0.0753  0.6669
 6110TIP3    H139889   4.322   4.886   8.488 -2.3581  0.4294 -0.2565
 6110TIP3    H239890   4.325   4.996   8.385  0.5223  0.1904 -0.5035
 6111TIP3   OH239891   6.713   6.260   7.999  0.0215  0.0445  0.1114
 6111TIP3    H139892   6.658   6.337   7.987  1.9446  1.3059 -1.1149
 6111TIP3    H239893   6.798   6.284   7.961  0.6894 -2.6855 -0.3697
 6112TIP3   OH239894   6.053   1.453   2.426 -0.4928  0.3315 -0.1041
 6112TIP3    H139895   5.971   1.458   2.476  0.6451 -1.2434  2.1490
 6112TIP3    H239896   6.113   1.511   2.473  0.5229 -0.9524  0.2702
 6113TIP3   OH239897   0.830   6.466   1.837 -0.3878 -0.1104 -0.4856
 6113TIP3    H139898   0.911   6.438   1.878 -0.4450  1.4109  0.7717
 6113TIP3    H239899   0.773   6.389   1.840  1.3529 -1.6048 -2.5378
 6114TIP3   OH239900   2.984   4.816   8.048 -0.6732 -0.3828 -0.0594
 6114TIP3    H139901   3.014   4.764   7.974 -2.2320  0.7108 -1.5307
 6114TIP3    H239902   3.054   4.880   8.063  0.3561 -1.5863  0.4936
 6115TIP3   OH239903   1.264   5.220   2.677 -0.1841 -0.1155 -0.3289
 6115TIP3    H139904   1.281   5.156   2.746  2.7735  0.2447 -0.5961
 6115TIP3    H239905   1.279   5.305   2.719 -1.3475  0.2813 -0.6777
 6116TIP3   OH239906   4.042   1.313   0.236  0.6122 -0.2061 -0.3038
 6116TIP3    H139907   3.959   1.274   0.208 -0.1264  1.3025 -0.2945
 6116TIP3    H239908   4.020   1.403   0.258  2.3838  0.4240 -0.9459
 6117TIP3   OH239909   2.155   1.797   8.339  0.3800 -0.2295  0.1854
 6117TIP3    H139910   2.188   1.847   8.263  0.5935  2.1982  1.7541
 6117TIP3    H239911   2.154   1.861   8.410 -0.5801 -2.2233  2.0575
 6118TIP3   OH239912   4.531   0.965   6.604 -0.1474  0.4067  0.5983
 6118TIP3    H139913   4.618   1.000   6.582 -0.6949  0.9421 -0.8415
 6118TIP3    H239914   4.478   1.043   6.621 -0.2557  0.0659  1.9362
 6119TIP3   OH239915   0.464   2.484   0.653  0.2352 -0.6087 -1.0495
 6119TIP3    H139916   0.407   2.490   0.577 -1.9631  0.4619  0.5667
 6119TIP3    H239917   0.405   2.494   0.728  2.5576  0.6018  0.7436
 6120TIP3   OH239918   5.946   2.149   0.500 -0.3444  0.2191  0.1722
 6120TIP3    H139919   5.970   2.057   0.488 -1.5614  0.0771 -1.4255
 6120TIP3    H239920   6.028   2.192   0.524  0.0983 -1.3844  1.7171
 6121TIP3   OH239921   2.816   5.739   7.262  0.5733  0.0573  0.0319
 6121TIP3    H139922   2.742   5.798   7.277  0.0863 -0.4799 -0.1761
 6121TIP3    H239923   2.893   5.787   7.293  0.1664  0.7228  0.0189
 6122TIP3   OH239924   2.463   4.693   1.919  0.0038  0.0792 -0.7991
 6122TIP3    H139925   2.496   4.606   1.942 -1.9766 -1.0255 -1.9269
 6122TIP3    H239926   2.412   4.721   1.995  1.2784  0.6587 -0.1142
 6123TIP3   OH239927   3.788   1.518   7.952  0.1643  0.1976 -0.2022
 6123TIP3    H139928   3.824   1.434   7.982 -0.5968 -0.0619  0.0175
 6123TIP3    H239929   3.695   1.500   7.938 -0.1495  1.1760  0.5007
 6124TIP3   OH239930   3.800   1.128   0.174  0.7227  0.5639 -0.6912
 6124TIP3    H139931   3.723   1.140   0.117  2.2341  1.8208 -2.5993
 6124TIP3    H239932   3.848   1.057   0.133  0.3537 -0.5957  0.8159
 6125TIP3   OH239933   1.693   0.004   7.382  0.0695 -0.0761 -0.2635
 6125TIP3    H139934   1.736   0.072   7.330  3.4337  0.4296  2.6995
 6125TIP3    H239935   1.734  -0.078   7.353 -0.5591 -0.2450 -0.6860
 6126TIP3   OH239936   4.880   4.023   2.402  0.5593 -0.3851 -0.2341
 6126TIP3    H139937   4.800   4.009   2.352 -0.5632  0.6835  1.1777
 6126TIP3    H239938   4.915   3.935   2.417 -1.9033 -1.1772  1.5207
 6127TIP3   OH239939   5.672   3.972   8.352  0.2397 -0.4707  0.4407
 6127TIP3    H139940   5.661   3.938   8.441 -1.4175 -1.9018 -0.2513
 6127TIP3    H239941   5.743   3.920   8.315  0.4181 -0.3979  0.6811
 6128TIP3   OH239942   1.076   3.492   2.149 -0.6950 -0.3486 -0.2563
 6128TIP3    H139943   1.091   3.526   2.237 -1.8608  0.5599 -0.3812
 6128TIP3    H239944   1.015   3.555   2.109 -0.6613 -1.0714 -1.5012
 6129TIP3   OH239945   2.606   6.660   0.929 -0.3298 -0.1909  0.0166
 6129TIP3    H139946   2.623   6.572   0.895 -3.2655 -0.3070 -1.5154
 6129TIP3    H239947   2.519   6.682   0.894 -0.0697  2.9715  1.0867
 6130TIP3   OH239948   6.285   1.850   8.522 -0.4086 -0.1304 -0.3986
 6130TIP3    H139949   6.269   1.804   8.440 -0.1310  2.1231 -1.8032
 6130TIP3    H239950   6.197   1.860   8.561 -0.7283  0.0029 -1.1341
 6131TIP3   OH239951   5.693   2.975   0.441 -0.1200  0.1265 -0.2257
 6131TIP3    H139952   5.774   2.967   0.390  0.2525  1.0444  0.2024
 6131TIP3    H239953   5.721   2.968   0.532 -0.5481  0.3066 -0.0773
 6132TIP3   OH239954   3.266   1.318   1.401 -0.1993  0.4177 -0.0002
 6132TIP3    H139955   3.316   1.357   1.329 -0.8080  0.0516 -0.6282
 6132TIP3    H239956   3.242   1.392   1.456 -0.4077  0.8054 -0.6033
 6133TIP3   OH239957   0.404   3.562   2.189  0.1307  0.1972  0.0717
 6133TIP3    H139958   0.309   3.549   2.191 -0.0020  1.1452  0.7510
 6133TIP3    H239959   0.439   3.480   2.155 -0.8490 -0.6350  0.9849
 6134TIP3   OH239960   2.502   6.833   2.266 -0.0286  0.5951  0.3338
 6134TIP3    H139961   2.520   6.916   2.311  2.0101  0.6133 -0.4168
 6134TIP3    H239962   2.416   6.845   2.227 -0.4984  1.7232  1.6158
 6135TIP3   OH239963   2.542   1.301   7.891 -0.6018 -0.1385  0.2277
 6135TIP3    H139964   2.554   1.343   7.975  0.8421  0.3322 -0.1931
 6135TIP3    H239965   2.626   1.259   7.872 -1.5942 -2.2123  0.0628
 6136TIP3   OH239966   1.922   1.282   1.185 -0.4558  0.0592  0.3573
 6136TIP3    H139967   2.005   1.277   1.232  0.4738  1.4264 -1.0812
 6136TIP3    H239968   1.918   1.201   1.134  1.6585  1.4192 -2.1587
 6137TIP3   OH239969   4.146   0.347   1.060 -0.3032 -0.4168  0.8391
 6137TIP3    H139970   4.146   0.425   1.117 -0.5075 -0.1597  0.4914
 6137TIP3    H239971   4.092   0.373   0.986 -0.7676 -1.0585  0.9497
 6138TIP3   OH239972   4.888   1.231   0.724 -0.0883 -0.4260 -0.3650
 6138TIP3    H139973   4.813   1.288   0.707  0.2146 -0.7824 -3.3971
 6138TIP3    H239974   4.940   1.278   0.789 -0.9594  1.7160 -1.1518
 6139TIP3   OH239975   4.864   6.204   2.915  0.4353 -0.2883 -0.2072
 6139TIP3    H139976   4.864   6.284   2.864 -2.2081  0.0153  0.1337
 6139TIP3    H239977   4.912   6.141   2.861  1.7659  1.2529 -0.8841
 6140TIP3   OH239978   3.346   4.057   1.687  0.0036 -0.3393 -0.4159
 6140TIP3    H139979   3.413   4.043   1.754  1.2761  0.6314 -1.4278
 6140TIP3    H239980   3.329   4.151   1.690  0.7420 -0.1179 -2.0148
 6141TIP3   OH239981   1.670   0.410   0.049 -0.1584 -0.2418  0.1276
 6141TIP3    H139982   1.755   0.455   0.053 -0.9188  1.4862 -1.3401
 6141TIP3    H239983   1.689   0.321   0.077  2.2351 -0.0300 -0.5380
 6142TIP3   OH239984   1.851   1.137   1.742 -0.0274 -0.3474  0.0262
 6142TIP3    H139985   1.762   1.140   1.779  0.5607  1.2047  1.4566
 6142TIP3    H239986   1.874   1.044   1.743 -0.8473 -0.5854  1.6966
 6143TIP3   OH239987   4.640   5.232   8.229 -0.1769 -0.2550  0.5444
 6143TIP3    H139988   4.609   5.147   8.196 -0.5466  0.1941 -0.2926
 6143TIP3    H239989   4.726   5.244   8.188  0.1034 -0.4473  1.0625
 6144TIP3   OH239990   2.475   3.319   7.335 -0.0656 -0.3800 -0.1346
 6144TIP3    H139991   2.428   3.265   7.398  1.7827 -1.6451  0.2362
 6144TIP3    H239992   2.530   3.257   7.287  1.7174  1.0741 -0.0665
 6145TIP3   OH239993   3.424   3.972   8.295  0.2094 -0.0030 -0.4803
 6145TIP3    H139994   3.496   3.917   8.326  0.4870  0.8779  0.4825
 6145TIP3    H239995   3.421   3.956   8.201  0.8582 -0.9907 -0.3449
 6146TIP3   OH239996   2.078   5.852   7.950 -0.0175  0.5852  0.6257
 6146TIP3    H139997   2.146   5.802   7.906 -2.2246 -0.5082 -1.8192
 6146TIP3    H239998   2.089   5.942   7.918 -0.4511  0.1570 -0.8236
 6147TIP3   OH239999   5.956   2.060   7.875 -0.2639  0.0586 -0.4875
 6147TIP3    H140000   5.964   2.129   7.942 -3.9664  1.2229 -0.9971
 6147TIP3    H240001   5.957   1.978   7.925  2.1933  0.4863  0.3360
 6148TIP3   OH240002   6.613   6.799   8.493 -0.0926  0.4014  0.1054
 6148TIP3    H140003   6.636   6.708   8.514  1.2886  0.6056 -0.4627
 6148TIP3    H240004   6.554   6.792   8.418  0.2078 -0.0101 -0.0940
 6149TIP3   OH240005   6.205   4.340   7.388  0.8094  0.4824 -0.5938
 6149TIP3    H140006   6.279   4.292   7.350  0.4851 -1.4424  1.0494
 6149TIP3    H240007   6.142   4.347   7.316  0.7216 -1.9661 -0.8512
 6150TIP3   OH240008   1.420   0.462   0.231  0.3848  0.0485 -0.7031
 6150TIP3    H140009   1.493   0.518   0.259  0.6007  0.3885 -1.8502
 6150TIP3    H240010   1.449   0.428   0.146  0.3565 -2.0061  0.0502
 6151TIP3   OH240011   1.136   4.249   8.497 -0.2884 -0.4462 -0.3994
 6151TIP3    H140012   1.111   4.289   8.580  0.5286 -0.9796  0.1180
 6151TIP3    H240013   1.054   4.209   8.465 -0.8346  0.5986 -0.3555
 6152TIP3   OH240014   3.776   0.392   2.686  0.1206 -0.2627  0.4104
 6152TIP3    H140015   3.800   0.395   2.778 -0.2286  0.8627  0.4774
 6152TIP3    H240016   3.857   0.414   2.639 -0.1431  1.1000  0.5431
 6153TIP3   OH240017   4.918   2.006   0.598 -0.5659  0.1969  0.2432
 6153TIP3    H140018   4.916   1.919   0.556 -0.2122 -0.5558  1.7325
 6153TIP3    H240019   4.995   2.049   0.560 -1.9370  0.7577 -2.1326
 6154TIP3   OH240020   3.626   2.511   1.105 -0.0600 -0.1284  0.0582
 6154TIP3    H140021   3.692   2.553   1.160 -1.0197  0.2177  0.9782
 6154TIP3    H240022   3.624   2.420   1.134 -1.7884  0.4091  1.9149
 6155TIP3   OH240023   6.603   6.278   1.274 -0.0092 -0.4207  0.1326
 6155TIP3    H140024   6.515   6.276   1.238  0.1809  0.7827 -0.4365
 6155TIP3    H240025   6.639   6.191   1.254 -0.0364  0.0569 -2.3130
 6156TIP3   OH240026   0.128   5.975   2.580  0.3388  0.3879  0.2291
 6156TIP3    H140027   0.143   5.883   2.561  0.3198  0.5006 -0.3275
 6156TIP3    H240028   0.215   6.010   2.602  0.3379  0.2306  0.4905
 6157TIP3   OH240029   6.525   1.036   1.949 -0.4719 -0.2799  0.3279
 6157TIP3    H140030   6.548   0.945   1.927  0.4016  0.2613 -1.1492
 6157TIP3    H240031   6.587   1.061   2.017  2.5228  0.6510 -2.5106
 6158TIP3   OH240032   6.715   6.795   2.257 -0.5714  0.0254  0.0496
 6158TIP3    H140033   6.733   6.888   2.271  1.0775 -0.2029 -0.3692
 6158TIP3    H240034   6.788   6.750   2.298 -1.2582 -1.0997  0.0844
 6159TIP3   OH240035   4.101   1.541   7.574  0.7830  0.5608  0.1146
 6159TIP3    H140036   4.152   1.619   7.553 -1.4792  1.8456 -1.0748
 6159TIP3    H240037   4.093   1.543   7.670  2.0566  0.8864  0.2281
 6160TIP3   OH240038   0.667   5.051   0.919  0.2726 -0.8119  0.1556
 6160TIP3    H140039   0.745   5.105   0.916  0.4800 -0.9764  1.7484
 6160TIP3    H240040   0.604   5.096   0.863  1.8194 -1.2539 -2.0664
 6161TIP3   OH240041   2.483   5.816   8.186 -0.2759 -0.5661  0.4398
 6161TIP3    H140042   2.392   5.838   8.164  0.0562  0.0877 -0.3864
 6161TIP3    H240043   2.486   5.721   8.183 -1.0776 -0.6255  1.1075
 6162TIP3   OH240044   6.021   5.320   1.199 -0.0806 -0.2901  0.3033
 6162TIP3    H140045   6.050   5.229   1.214  0.2801 -0.3115 -0.4426
 6162TIP3    H240046   5.991   5.320   1.108  1.8592  0.7929 -0.4079
 6163TIP3   OH240047   1.620   5.023   7.498  0.3374 -0.4152  0.2415
 6163TIP3    H140048   1.551   5.072   7.454  0.7250 -0.7426 -0.7725
 6163TIP3    H240049   1.607   5.040   7.591 -1.3575 -0.7966  0.1057
 6164TIP3   OH240050   4.975   4.469   0.635 -0.1864  0.3437  0.0824
 6164TIP3    H140051   4.907   4.526   0.670  0.8668  0.3078  2.3545
 6164TIP3    H240052   5.034   4.527   0.589 -1.6046  0.3917 -1.8034
 6165TIP3   OH240053   3.260   1.806   7.379  0.3463 -0.3225 -0.0239
 6165TIP3    H140054   3.211   1.887   7.397 -0.3117 -0.5790 -0.6269
 6165TIP3    H240055   3.288   1.815   7.288  0.0817 -0.8690 -0.1623
 6166TIP3   OH240056   2.534   3.228   0.745 -0.1238 -0.8371  0.5364
 6166TIP3    H140057   2.599   3.256   0.680 -1.7678  1.6762 -0.1703
 6166TIP3    H240058   2.577   3.244   0.829  0.8282 -1.0131  0.1033
 6167TIP3   OH240059   5.384   0.520   1.846  0.0157  0.4738 -0.9245
 6167TIP3    H140060   5.347   0.569   1.920  0.1407  0.0174 -0.5582
 6167TIP3    H240061   5.436   0.451   1.887  2.3323  1.8288 -1.3662
 6168TIP3   OH240062   1.852   4.493   8.494  0.4207  0.4898  0.3513
 6168TIP3    H140063   1.816   4.562   8.438 -1.9943 -0.3494  0.7419
 6168TIP3    H240064   1.787   4.423   8.490  0.2380  0.2586  3.9307
 6169TIP3   OH240065   2.774   3.530   7.705  0.3661  0.2181 -0.2849
 6169TIP3    H140066   2.721   3.533   7.626  0.1836 -0.4205 -0.1957
 6169TIP3    H240067   2.769   3.618   7.742  0.6158  0.5743 -1.0903
 6170TIP3   OH240068   3.834   5.115   0.080 -0.2715 -0.0911  0.3280
 6170TIP3    H140069   3.854   5.031   0.040  0.5019  0.3493 -0.2191
 6170TIP3    H240070   3.836   5.177   0.008  2.1230  0.8875  1.1422
 6171TIP3   OH240071   5.649   3.978   7.860 -0.2549 -0.0125  0.2361
 6171TIP3    H140072   5.609   4.021   7.784  1.5118 -1.6353 -1.7363
 6171TIP3    H240073   5.621   3.887   7.853 -0.0951 -0.1815  1.5958
 6172TIP3   OH240074   1.346   3.762   1.170  0.0378  0.7217  0.3254
 6172TIP3    H140075   1.424   3.807   1.138 -1.7715  2.8659 -1.4522
 6172TIP3    H240076   1.302   3.730   1.091 -1.2843  0.2995  1.1902
 6173TIP3   OH240077   3.590   1.600   0.821  0.2983  0.3484 -0.4312
 6173TIP3    H140078   3.660   1.554   0.867  0.2709 -0.4967 -1.2068
 6173TIP3    H240079   3.551   1.657   0.887 -0.7200 -1.8959  1.0099
 6174TIP3   OH240080   5.226   3.311   1.125  0.1715 -0.7885 -0.0844
 6174TIP3    H140081   5.200   3.263   1.204 -0.4298 -0.7230 -0.2363
 6174TIP3    H240082   5.194   3.257   1.052  0.9403 -0.9721 -0.2965
 6175TIP3   OH240083   0.070   4.374   6.904 -0.1773 -0.1934 -0.3139
 6175TIP3    H140084   0.122   4.414   6.834  0.9477  0.2006  0.7177
 6175TIP3    H240085   0.099   4.283   6.906 -2.5460 -1.1280 -2.4804
 6176TIP3   OH240086   0.955   3.389   1.087  0.4027  0.0215 -0.1937
 6176TIP3    H140087   0.896   3.352   1.021 -0.4282 -0.4177  0.7696
 6176TIP3    H240088   1.016   3.318   1.107  0.8784  0.2697 -0.7283
 6177TIP3   OH240089   2.314   3.878   1.738  0.2122  0.9309 -0.7983
 6177TIP3    H140090   2.406   3.904   1.728  0.8870 -0.0843  1.8295
 6177TIP3    H240091   2.311   3.788   1.704  0.1520  1.0135 -1.0123
 6178TIP3   OH240092   2.915   3.109   2.734  0.2193 -0.7646  0.2890
 6178TIP3    H140093   2.931   3.047   2.664 -1.1577  0.5419 -1.2749
 6178TIP3    H240094   2.821   3.099   2.754 -0.7489  2.4762 -1.8546
 6179TIP3   OH240095   1.275   5.052   1.500 -0.0319 -0.1092  0.6093
 6179TIP3    H140096   1.196   5.024   1.545 -0.0937  1.0031  1.2375
 6179TIP3    H240097   1.271   5.148   1.503  0.5984 -0.0291 -0.6588
 6180TIP3   OH240098   4.102   5.738   0.210  0.5527  0.3035  0.3110
 6180TIP3    H140099   4.187   5.741   0.166 -0.0852 -0.5971 -1.0735
 6180TIP3    H240100   4.094   5.648   0.242 -0.8958 -0.4267 -1.8417
 6181TIP3   OH240101   4.365   6.351   1.781 -0.2256 -0.0144 -0.5921
 6181TIP3    H140102   4.304   6.322   1.713 -0.2454  2.3548 -1.7237
 6181TIP3    H240103   4.326   6.323   1.863 -1.1056 -1.4597 -1.4724
 6182TIP3   OH240104   4.747   2.516   0.976  0.6432 -0.5247 -0.0645
 6182TIP3    H140105   4.663   2.561   0.972  0.8269 -0.2552 -1.3932
 6182TIP3    H240106   4.777   2.528   1.066  0.2277  1.1802 -0.1299
 6183TIP3   OH240107   0.438   1.813   1.092  0.5973  0.2067  0.4387
 6183TIP3    H140108   0.447   1.741   1.154 -3.6964 -1.0635 -0.0899
 6183TIP3    H240109   0.447   1.771   1.006  1.8167  1.0839  0.1122
 6184TIP3   OH240110   4.132   6.463   0.870 -0.3321 -0.1215  0.0317
 6184TIP3    H140111   4.045   6.503   0.868 -0.3405 -0.1207  0.4887
 6184TIP3    H240112   4.178   6.503   0.796 -0.8879 -0.5120 -0.5378
 6185TIP3   OH240113   5.284   1.727   7.313  0.3603 -0.0596  0.6184
 6185TIP3    H140114   5.287   1.805   7.258 -2.1767 -0.8229 -0.7405
 6185TIP3    H240115   5.191   1.714   7.331  0.9267 -1.2554  3.1089
 6186TIP3   OH240116   2.734   5.270   7.770 -0.1046  0.2928  0.4685
 6186TIP3    H140117   2.639   5.266   7.776 -0.0699  0.7893  1.5919
 6186TIP3    H240118   2.752   5.357   7.733 -0.0840  0.2271  0.3230
 6187TIP3   OH240119   4.380   5.159   7.036  0.0599  0.2047  0.3613
 6187TIP3    H140120   4.286   5.141   7.048  0.1244  0.3337  1.1198
 6187TIP3    H240121   4.383   5.248   7.000 -0.1174  0.1186  0.1320
 6188TIP3   OH240122   2.093   2.851   8.057  0.2944 -0.2604  0.0583
 6188TIP3    H140123   2.053   2.770   8.025 -1.7750  0.2099  1.2941
 6188TIP3    H240124   2.020   2.912   8.068  1.5230  1.1081  1.1218
 6189TIP3   OH240125   1.011   5.337   1.935  0.3876  0.2525  0.0643
 6189TIP3    H140126   1.053   5.422   1.950  3.2437 -1.1032  0.5478
 6189TIP3    H240127   1.056   5.302   1.858  0.5340 -1.5068  0.8869
 6190TIP3   OH240128   5.633   5.357   6.876  0.7531  0.1163  0.2234
 6190TIP3    H140129   5.570   5.424   6.904  1.1035 -0.2215  1.8880
 6190TIP3    H240130   5.584   5.304   6.813  0.5327  2.0279 -1.2988
 6191TIP3   OH240131   1.819   3.614   0.562 -0.0879 -0.3225 -0.0453
 6191TIP3    H140132   1.765   3.568   0.627 -0.3683 -1.0012 -0.7409
 6191TIP3    H240133   1.902   3.566   0.561 -0.1570 -0.4424 -0.3214
 6192TIP3   OH240134   2.735   5.113   7.374 -0.1598 -0.0918  0.1171
 6192TIP3    H140135   2.750   5.028   7.333  1.7632  1.0506 -1.7256
 6192TIP3    H240136   2.662   5.150   7.325  0.9410  0.5010 -1.1488
 6193TIP3   OH240137   1.348   5.090   1.146 -0.0177  0.3470  0.2685
 6193TIP3    H140138   1.387   5.094   1.059 -0.9732 -1.0437 -0.2588
 6193TIP3    H240139   1.316   5.178   1.162  0.8764  0.8171 -0.4347
 6194TIP3   OH240140   3.859   4.858   0.302  0.2715  0.0623 -0.1367
 6194TIP3    H140141   3.868   4.927   0.367 -0.3147  0.0701 -0.0579
 6194TIP3    H240142   3.766   4.834   0.305  0.1905  0.2128 -1.1180
 6195TIP3   OH240143   5.300   3.402   0.625  0.5056 -0.2434  0.8549
 6195TIP3    H140144   5.343   3.468   0.679 -0.5877  2.0204 -0.9006
 6195TIP3    H240145   5.291   3.442   0.539 -0.4427 -2.6090 -0.2549
 6196TIP3   OH240146   1.587   1.992   0.934  0.2939 -0.8859  0.6892
 6196TIP3    H140147   1.531   2.058   0.894  1.4110 -1.6402 -2.3944
 6196TIP3    H240148   1.651   2.042   0.985 -1.3988  0.1024  1.9438
 6197TIP3   OH240149   2.785   2.179   8.064  0.4361 -0.4165 -0.7299
 6197TIP3    H140150   2.718   2.146   8.124 -0.3839 -0.5201 -1.6770
 6197TIP3    H240151   2.844   2.105   8.051  0.0384 -0.7139 -0.8535
 6198TIP3   OH240152   1.673   4.094   1.169  0.5552 -0.2661 -0.6304
 6198TIP3    H140153   1.745   4.092   1.107  0.8993  1.4811 -0.3479
 6198TIP3    H240154   1.692   4.170   1.225 -0.2541 -1.2023  0.9777
 6199TIP3   OH240155   1.936   6.408   1.047  0.3387 -0.5084 -0.6135
 6199TIP3    H140156   1.933   6.404   0.951  0.1503  2.1166 -0.7974
 6199TIP3    H240157   2.020   6.450   1.067 -0.4474  0.7588  0.2219
 6200TIP3   OH240158   5.710   6.795   0.703 -0.6152  0.6905  0.3511
 6200TIP3    H140159   5.755   6.850   0.768  1.4881  0.1903 -0.6038
 6200TIP3    H240160   5.775   6.781   0.635 -2.3000 -0.0143 -1.1820
 6201TIP3   OH240161   0.568   3.995   2.996  0.0744  0.4978  0.2662
 6201TIP3    H140162   0.654   4.013   3.034  0.1774  0.1776  0.1918
 6201TIP3    H240163   0.535   3.921   3.047  0.5863 -0.5044 -0.8116
 6202TIP3   OH240164   2.284   0.721   0.857  0.2186  0.8076 -0.1309
 6202TIP3    H140165   2.363   0.776   0.850  2.8087 -2.6711 -1.1563
 6202TIP3    H240166   2.293   0.678   0.942  0.3729 -0.8073 -0.9258
 6203TIP3   OH240167   3.257   6.264   0.450 -0.3098  0.2090 -0.1060
 6203TIP3    H140168   3.263   6.188   0.392  0.1508  1.1209 -1.2882
 6203TIP3    H240169   3.167   6.295   0.440  0.7720  2.8836 -3.7512
 6204TIP3   OH240170   1.371   5.899   1.507  0.0539 -0.7594  0.6628
 6204TIP3    H140171   1.445   5.896   1.446 -0.4590  0.0760 -0.0293
 6204TIP3    H240172   1.298   5.933   1.455 -0.2085  0.7233  1.9308
 6205TIP3   OH240173   0.580   5.298   8.095  0.0211 -0.3676 -0.5772
 6205TIP3    H140174   0.642   5.232   8.126 -1.4454 -2.1683 -1.3038
 6205TIP3    H240175   0.505   5.248   8.063 -1.0581  1.6552 -1.4147
 6206TIP3   OH240176   5.330   2.670   8.502  0.6305 -0.1377  0.1132
 6206TIP3    H140177   5.364   2.587   8.535 -0.9757 -1.2018 -0.7510
 6206TIP3    H240178   5.277   2.704   8.574  1.1565  0.0653  0.4089
 6207TIP3   OH240179   1.182   0.756   1.600  0.3601 -0.0013 -0.3351
 6207TIP3    H140180   1.139   0.835   1.567  0.5892 -0.0816 -0.8392
 6207TIP3    H240181   1.275   0.772   1.583  0.5786  0.3470  1.1090
 6208TIP3   OH240182   3.058   1.397   0.241  0.0261  0.0788 -0.3084
 6208TIP3    H140183   3.135   1.360   0.196  1.0051 -0.3633  1.6149
 6208TIP3    H240184   3.044   1.481   0.198  2.8107  1.0633  0.4507
 6209TIP3   OH240185   4.451   0.591   1.409  0.0825  0.1368 -0.8398
 6209TIP3    H140186   4.487   0.618   1.493  2.8601 -0.0309 -1.8883
 6209TIP3    H240187   4.410   0.506   1.426  1.5721 -0.4081  0.1407
 6210TIP3   OH240188   2.351   6.387   8.278 -0.1887 -0.5087 -0.6613
 6210TIP3    H140189   2.315   6.472   8.304 -0.4962 -1.0726  0.8372
 6210TIP3    H240190   2.328   6.328   8.349  0.7368 -1.6808 -1.2936
 6211TIP3   OH240191   2.726   4.613   7.747  0.3154 -0.2031  0.6413
 6211TIP3    H140192   2.703   4.541   7.806 -1.2157 -0.4210 -0.1943
 6211TIP3    H240193   2.664   4.683   7.768  1.2801  0.6095  0.8933
 6212TIP3   OH240194   2.680   0.783   1.220  0.1780  0.1697 -0.2470
 6212TIP3    H140195   2.657   0.871   1.251  1.6589  0.3269  0.5396
 6212TIP3    H240196   2.728   0.744   1.294  0.9801 -0.6776 -1.1849
 6213TIP3   OH240197   3.904   5.274   6.474 -0.0283  0.0173 -0.0873
 6213TIP3    H140198   3.845   5.262   6.549 -0.1399 -0.9240 -0.3172
 6213TIP3    H240199   3.991   5.252   6.508  0.0082  0.1672 -0.0823
 6214TIP3   OH240200   3.940   1.970   1.206  0.0744 -0.1537 -0.3119
 6214TIP3    H140201   4.025   2.013   1.200 -0.7181  1.6865  0.6839
 6214TIP3    H240202   3.957   1.890   1.257  1.2513  0.0345 -0.3863
 6215TIP3   OH240203   2.281   5.960   1.185 -0.2217 -0.5877 -0.7894
 6215TIP3    H140204   2.327   5.940   1.103 -0.6400  0.0807 -1.1949
 6215TIP3    H240205   2.191   5.975   1.158 -0.9457 -2.8410  0.1120
 6216TIP3   OH240206   0.908   6.361   8.114 -0.0864  0.6218  0.2209
 6216TIP3    H140207   0.956   6.346   8.032  0.4298 -1.4459  0.8616
 6216TIP3    H240208   0.844   6.291   8.117 -0.5435  1.0733  1.2803
 6217TIP3   OH240209   6.038   4.258   0.705  0.1637 -0.5164  0.1408
 6217TIP3    H140210   6.108   4.219   0.651  1.4357 -0.1261  1.4587
 6217TIP3    H240211   6.060   4.233   0.794 -1.0984  0.0962  0.6440
 6218TIP3   OH240212   3.316   3.338   1.141  0.6079  0.2158 -0.4251
 6218TIP3    H140213   3.251   3.386   1.090 -0.2827 -2.0450 -1.5528
 6218TIP3    H240214   3.269   3.261   1.172  1.1460  1.3358  3.7689
 6219TIP3   OH240215   2.796   1.559   8.436  0.0099  0.1445 -0.0359
 6219TIP3    H140216   2.760   1.471   8.428  1.6431 -0.5510 -0.0999
 6219TIP3    H240217   2.867   1.550   8.500  1.6492  0.9193 -1.6505
 6220TIP3   OH240218   2.978   1.480   1.141  0.2158  0.2296 -0.2324
 6220TIP3    H140219   3.074   1.480   1.139  0.2346  0.8565  0.3044
 6220TIP3    H240220   2.953   1.402   1.092  0.9947  0.2757 -0.7306
 6221TIP3   OH240221   2.441   0.892   2.217  0.0575  0.5848 -0.5305
 6221TIP3    H140222   2.480   0.948   2.284 -2.4674  0.5357  1.1092
 6221TIP3    H240223   2.379   0.948   2.171  0.8477  0.2787 -2.0255
 6222TIP3   OH240224   5.554   1.692   0.053 -0.2288  0.3626 -0.6312
 6222TIP3    H140225   5.614   1.716   0.123  0.1126 -0.9518 -0.4553
 6222TIP3    H240226   5.495   1.627   0.092  0.9991 -1.6467 -1.9576
 6223TIP3   OH240227   3.976   3.981   1.529  0.4087 -0.2609  0.2199
 6223TIP3    H140228   3.956   3.902   1.580 -2.4730 -0.4205 -1.0114
 6223TIP3    H240229   3.898   4.036   1.538  0.1816  0.1304 -3.1735
 6224TIP3   OH240230   3.330   0.411   1.898  0.2648 -0.6926 -0.0386
 6224TIP3    H140231   3.410   0.369   1.867  0.7372  0.2704 -0.1768
 6224TIP3    H240232   3.336   0.407   1.993 -0.7085 -2.7679 -0.0074
 6225TIP3   OH240233   5.281   0.760   0.018 -0.3329 -0.3281  0.5225
 6225TIP3    H140234   5.309   0.694  -0.045 -1.3190  0.3566 -0.6572
 6225TIP3    H240235   5.205   0.721   0.062 -2.0818  0.6668 -1.4591
 6226TIP3   OH240236   2.110   2.832   1.185 -0.1827 -0.7459 -0.2885
 6226TIP3    H140237   2.122   2.890   1.109 -1.4237 -0.5346 -0.3390
 6226TIP3    H240238   2.193   2.785   1.192  0.2738 -0.1199 -1.2312
 6227TIP3   OH240239   5.605   3.702   7.441  0.4980  0.1136  0.3365
 6227TIP3    H140240   5.683   3.646   7.440  0.2885 -0.1790  0.1026
 6227TIP3    H240241   5.622   3.768   7.374  0.3860 -0.1755  0.0193
 6228TIP3   OH240242   5.593   5.050   0.791  0.4572 -0.8016 -0.7828
 6228TIP3    H140243   5.604   5.071   0.699  0.6182  0.5843 -0.4656
 6228TIP3    H240244   5.504   5.077   0.812  1.3665  1.7417  0.1566
 6229TIP3   OH240245   3.900   2.264   2.270 -0.1289  0.4301  0.5772
 6229TIP3    H140246   3.818   2.216   2.280  0.6445 -1.6968 -2.1113
 6229TIP3    H240247   3.967   2.207   2.309  0.3771  1.0030  0.5689
 6230TIP3   OH240248   4.733   2.164   1.563 -0.1258  0.2539  0.5440
 6230TIP3    H140249   4.688   2.154   1.647  0.8327  1.9026  1.3067
 6230TIP3    H240250   4.812   2.213   1.584  1.9365 -2.2142 -0.7822
 6231TIP3   OH240251   5.387   0.080   1.472 -0.1337 -0.0354  0.3651
 6231TIP3    H140252   5.298   0.083   1.507 -0.5620 -2.1679 -0.4240
 6231TIP3    H240253   5.433   0.149   1.519 -1.8750  0.2930  1.6894
 6232TIP3   OH240254   6.121   5.532   2.579 -1.0212  0.0775 -0.2062
 6232TIP3    H140255   6.174   5.553   2.656 -1.6030 -0.6169  0.3856
 6232TIP3    H240256   6.120   5.613   2.528  1.0518 -0.0299 -0.5047
 6233TIP3   OH240257   4.315   3.397   0.807 -0.0984 -0.2641 -0.3483
 6233TIP3    H140258   4.353   3.469   0.858 -0.3416 -0.4482  0.1041
 6233TIP3    H240259   4.387   3.362   0.756  0.3341 -0.5650  0.4437
 6234TIP3   OH240260   5.346   2.849   7.009 -0.1919  0.2359  0.2437
 6234TIP3    H140261   5.263   2.889   6.984  0.2261  1.0777  0.1534
 6234TIP3    H240262   5.410   2.920   6.998  0.8026 -0.8486 -1.3584
 6235TIP3   OH240263   5.435   2.000   2.192  0.0056 -0.0892  0.1968
 6235TIP3    H140264   5.431   2.027   2.283  0.1248  1.0282 -0.1099
 6235TIP3    H240265   5.444   2.082   2.143  0.6921 -0.7187 -0.7664
 6236TIP3   OH240266   0.741   6.382   7.724  0.3018  0.0702 -0.6441
 6236TIP3    H140267   0.814   6.324   7.748  1.3042  0.9778 -1.3865
 6236TIP3    H240268   0.683   6.328   7.672  2.1624  0.1355 -2.9663
 6237TIP3   OH240269   6.494   2.229   0.358 -0.1203  0.2437  0.1797
 6237TIP3    H140270   6.567   2.185   0.313  0.5227 -0.4231  1.7865
 6237TIP3    H240271   6.445   2.272   0.288  1.5566  0.3349 -1.0070
 6238TIP3   OH240272   1.275   5.244   2.268  0.3480  0.4078 -0.3984
 6238TIP3    H140273   1.261   5.187   2.344  1.4850  1.0223  0.3050
 6238TIP3    H240274   1.277   5.184   2.193 -1.4155 -0.1469 -0.0468
 6239TIP3   OH240275   1.463   3.631   0.618 -0.7225 -0.4042 -0.1977
 6239TIP3    H140276   1.519   3.575   0.672  1.7009 -1.5596 -3.5924
 6239TIP3    H240277   1.506   3.716   0.620  0.7066 -1.0182 -1.9328
 6240TIP3   OH240278   2.004   4.523   8.193 -0.1659 -0.0864  0.7494
 6240TIP3    H140279   2.100   4.526   8.197 -0.1534  0.3942  0.3436
 6240TIP3    H240280   1.983   4.431   8.184  0.2977 -0.1501  0.2257
 6241TIP3   OH240281   2.184   3.829   8.311  0.4618  0.4834  0.4192
 6241TIP3    H140282   2.099   3.849   8.349  0.1984 -1.1550  0.7907
 6241TIP3    H240283   2.247   3.874   8.366 -0.0557  0.0327  1.4097
 6242TIP3   OH240284   2.600   4.194   0.883 -0.6090 -0.1410  0.2078
 6242TIP3    H140285   2.638   4.132   0.946  1.4699  0.5718 -0.2842
 6242TIP3    H240286   2.604   4.148   0.799 -0.9368 -0.0973  0.1678
 6243TIP3   OH240287   5.107   0.539   1.065  0.1192  0.4032  0.2150
 6243TIP3    H140288   5.156   0.464   1.099  1.8406  1.6985  0.7105
 6243TIP3    H240289   5.066   0.579   1.142 -0.2758  0.3513  0.0368
 6244TIP3   OH240290   6.073   1.766   0.939 -0.2006  0.4662  0.2971
 6244TIP3    H140291   6.161   1.730   0.951  1.3640  3.4362 -1.0846
 6244TIP3    H240292   6.059   1.821   1.016  0.1852  1.8057 -0.5632
 6245TIP3   OH240293   3.160   6.869   7.138  0.1393  0.1034 -0.3123
 6245TIP3    H140294   3.106   6.797   7.169 -2.5588  1.1266 -2.2435
 6245TIP3    H240295   3.144   6.940   7.200  1.0375 -0.2387  0.3312
 6246TIP3   OH240296   6.316   1.425   6.919  0.0166  0.1513 -0.4040
 6246TIP3    H140297   6.306   1.404   7.012  0.1164 -0.8624 -0.6129
 6246TIP3    H240298   6.242   1.382   6.877  1.1255 -1.1989 -1.0472
 6247TIP3   OH240299   3.384   3.378   0.709  0.7232 -0.1994 -1.1277
 6247TIP3    H140300   3.357   3.293   0.743  3.3796 -0.4229  0.8023
 6247TIP3    H240301   3.458   3.359   0.651  1.1013  0.7455 -0.9762
 6248TIP3   OH240302   5.967   3.691   0.587  0.2465 -0.3435  0.3021
 6248TIP3    H140303   5.991   3.782   0.605  0.4760  0.3315 -2.7895
 6248TIP3    H240304   5.939   3.656   0.672  0.1870  2.5735  1.6076
 6249TIP3   OH240305   6.437   6.873   0.599 -0.1278 -0.2278 -0.3831
 6249TIP3    H140306   6.410   6.801   0.656 -1.2140  0.1500 -0.4049
 6249TIP3    H240307   6.369   6.939   0.609  2.0263  1.8807  1.4934
 6250TIP3   OH240308   2.407   1.814   7.734 -0.0553  0.0331  0.4304
 6250TIP3    H140309   2.374   1.901   7.755  0.8415  0.6980 -0.7893
 6250TIP3    H240310   2.494   1.829   7.697  0.0103 -1.3626 -0.0570
 6251TIP3   OH240311   3.938   0.697   0.724 -0.4623 -0.0213 -0.2826
 6251TIP3    H140312   3.900   0.611   0.708  0.9789 -1.2954  2.4249
 6251TIP3    H240313   3.994   0.713   0.649 -0.3125 -1.7341 -0.5820
 6252TIP3   OH240314   1.985   0.871   7.579  0.0037  0.7574 -0.7796
 6252TIP3    H140315   1.927   0.871   7.503  0.3623  0.5568 -1.0568
 6252TIP3    H240316   1.999   0.778   7.599 -0.1561  0.8102 -0.4172
 6253TIP3   OH240317   3.187   6.642   2.636  0.3329 -0.2576  0.2275
 6253TIP3    H140318   3.230   6.705   2.577 -0.7702 -1.3670 -1.8950
 6253TIP3    H240319   3.143   6.696   2.701  1.6417  1.0403  0.0821
 6254TIP3   OH240320   5.396   0.750   1.218  0.1583 -0.7584  0.7284
 6254TIP3    H140321   5.464   0.796   1.266 -0.5880  1.7494 -0.4524
 6254TIP3    H240322   5.408   0.658   1.241  2.8457 -0.2059  1.8430
 6255TIP3   OH240323   3.523   2.045   8.471 -0.5390 -0.0814 -0.1143
 6255TIP3    H140324   3.560   2.126   8.436 -1.3866  0.0365 -0.7814
 6255TIP3    H240325   3.570   2.030   8.553  0.9829  0.0369 -0.9311
 6256TIP3   OH240326   5.404   2.095   0.387 -0.0685 -0.2592 -0.2021
 6256TIP3    H140327   5.450   2.099   0.304 -1.6313  0.5058 -1.0912
 6256TIP3    H240328   5.418   2.181   0.427  1.1237 -0.8099  0.5979
 6257TIP3   OH240329   1.627   6.488   1.174 -0.0632  0.1840  0.7914
 6257TIP3    H140330   1.594   6.400   1.190  0.6347 -0.0377  1.0420
 6257TIP3    H240331   1.675   6.481   1.091  0.2480  0.2517  0.9615
 6258TIP3   OH240332   4.802   5.900   8.137 -0.5318 -0.1208 -0.1073
 6258TIP3    H140333   4.735   5.937   8.194 -0.6945 -0.8463  0.1884
 6258TIP3    H240334   4.878   5.888   8.194 -0.2865  0.2921 -0.3388
 6259TIP3   OH240335   4.896   5.373   1.924  0.3721 -0.2672 -0.7805
 6259TIP3    H140336   4.959   5.317   1.877 -1.2013 -1.1068 -2.0107
 6259TIP3    H240337   4.917   5.361   2.016  2.3055 -0.1394 -1.1675
 6260TIP3   OH240338   2.570   2.719   0.676  0.4542  0.0058 -0.4734
 6260TIP3    H140339   2.623   2.681   0.746  1.3939  0.0736 -1.1250
 6260TIP3    H240340   2.540   2.644   0.625  0.2120 -0.0166 -0.2923
 6261TIP3   OH240341   4.127   4.595   0.500  0.1096  0.4959  0.1606
 6261TIP3    H140342   4.094   4.671   0.547  2.5380  1.2441  0.8096
 6261TIP3    H240343   4.200   4.630   0.448  0.0072 -1.0506 -1.0834
 6262TIP3   OH240344   0.030   5.862   7.512 -0.1663  0.2526 -0.1720
 6262TIP3    H140345  -0.053   5.823   7.540 -0.8949  2.0632  0.3659
 6262TIP3    H240346   0.029   5.855   7.416 -1.1292  0.5648 -0.1994
 6263TIP3   OH240347   1.806   5.286   1.594  0.2465  0.0425 -0.1889
 6263TIP3    H140348   1.804   5.365   1.540  1.1632 -1.1956 -2.1126
 6263TIP3    H240349   1.721   5.286   1.638  0.0202  1.8194 -0.5163
 6264TIP3   OH240350   5.073   1.437   7.483  0.2321  0.1623 -0.1070
 6264TIP3    H140351   4.994   1.489   7.493  0.0502 -0.0235 -0.5543
 6264TIP3    H240352   5.074   1.411   7.390 -0.6445 -2.1226  0.4526
 6265TIP3   OH240353   5.618   1.312   2.521 -0.1759  0.4380 -0.5065
 6265TIP3    H140354   5.562   1.344   2.592  0.9838  1.9553 -0.2243
 6265TIP3    H240355   5.683   1.381   2.508  2.3537 -1.6806 -0.0709
 6266TIP3   OH240356   1.574   3.705   7.247  0.0122 -0.5715  0.3119
 6266TIP3    H140357   1.578   3.612   7.226 -1.3708 -0.5819  0.0016
 6266TIP3    H240358   1.642   3.745   7.192  0.6889 -1.4103  0.5354
 6267TIP3   OH240359   2.772   5.030   8.099  0.2550  0.1330  0.0674
 6267TIP3    H140360   2.837   5.017   8.030 -0.3900  0.0725 -0.5521
 6267TIP3    H240361   2.727   4.946   8.106  1.2349 -0.3005  1.5679
 6268TIP3   OH240362   1.299   4.291   0.984  0.1873  0.9231 -0.2382
 6268TIP3    H140363   1.350   4.346   1.044 -0.2344  0.5686  0.4629
 6268TIP3    H240364   1.208   4.307   1.010  0.0582 -0.1070 -0.0198
 6269TIP3   OH240365   1.285   2.884   1.853 -0.1710  0.0852 -0.4543
 6269TIP3    H140366   1.372   2.853   1.827  0.0857 -1.2775  1.7287
 6269TIP3    H240367   1.290   2.979   1.846  2.0470  0.1617  0.9688
 6270TIP3   OH240368   5.445   3.970   1.568  0.2739  0.1282  0.3019
 6270TIP3    H140369   5.388   3.958   1.492 -2.2939 -0.3620  2.1471
 6270TIP3    H240370   5.398   3.926   1.639  1.9906  1.5269  2.4188
 6271TIP3   OH240371   6.706   5.063   1.087 -0.2147 -0.1913  0.3461
 6271TIP3    H140372   6.768   4.993   1.110 -0.7065 -0.4705  0.8278
 6271TIP3    H240373   6.673   5.095   1.171 -0.5677  0.1078  0.0985
 6272TIP3   OH240374   5.574   3.835   0.803 -0.3284 -0.1380  0.1018
 6272TIP3    H140375   5.655   3.793   0.832  0.4177  1.4736  0.4786
 6272TIP3    H240376   5.592   3.862   0.713 -0.8730 -0.7900 -0.2089
 6273TIP3   OH240377   2.246   0.550   1.102 -0.1268 -0.3748 -0.1673
 6273TIP3    H140378   2.293   0.473   1.069 -0.8725  0.1912 -2.7034
 6273TIP3    H240379   2.155   0.535   1.078 -0.4793  0.7321  0.4300
 6274TIP3   OH240380   3.363   6.576   6.968 -0.1940  0.2084 -0.0164
 6274TIP3    H140381   3.288   6.625   6.935  0.2197  1.4678  0.8632
 6274TIP3    H240382   3.394   6.526   6.893 -3.5832 -2.5856  0.2120
 6275TIP3   OH240383   2.373   4.787   0.407 -0.5707  0.9200 -0.1146
 6275TIP3    H140384   2.328   4.728   0.467 -0.7445  3.0744  2.0193
 6275TIP3    H240385   2.309   4.855   0.387  0.5233  2.0056 -0.0657
 6276TIP3   OH240386   6.558   6.292   8.318 -0.3852  0.0950 -0.5418
 6276TIP3    H140387   6.521   6.204   8.326 -0.3162 -0.0062 -1.2788
 6276TIP3    H240388   6.603   6.307   8.401  0.1192 -0.8093 -0.6464
 6277TIP3   OH240389   6.755   4.834   0.777  0.0796 -0.6959  0.6155
 6277TIP3    H140390   6.762   4.784   0.695  1.3737  0.7471 -0.2239
 6277TIP3    H240391   6.704   4.912   0.753  4.1756  2.0863 -0.2211
 6278TIP3   OH240392   0.037   6.655   0.670 -0.3731 -0.3591  0.2370
 6278TIP3    H140393   0.133   6.657   0.672 -0.3611  0.1877 -0.2980
 6278TIP3    H240394   0.016   6.595   0.599 -0.4079  0.1891 -0.2244
 6279TIP3   OH240395   6.372   3.857   0.097  0.5206 -0.3543 -0.2633
 6279TIP3    H140396   6.398   3.917   0.027  1.5898  0.3154  0.6740
 6279TIP3    H240397   6.446   3.858   0.158  0.0008 -1.6337  0.4181
 6280TIP3   OH240398   3.085   0.113   0.581 -0.1653  0.0652 -0.2312
 6280TIP3    H140399   3.149   0.108   0.509 -0.1215  1.3704 -0.3032
 6280TIP3    H240400   3.129   0.072   0.655  0.5605  0.4508 -0.4319
 6281TIP3   OH240401   1.654   5.662   8.061 -0.0212 -0.3363  0.0204
 6281TIP3    H140402   1.602   5.670   8.141 -1.0899  0.3159 -0.7035
 6281TIP3    H240403   1.720   5.731   8.068  0.6119 -1.0143  0.8419
 6282TIP3   OH240404   6.802   2.682   8.517  0.1859  0.3447  0.0704
 6282TIP3    H140405   6.771   2.751   8.576 -0.2272  0.2504 -0.0276
 6282TIP3    H240406   6.894   2.670   8.540  0.0113  0.2566  0.7546
 6283TIP3   OH240407   4.276   2.950   8.401 -0.3503 -0.1911  0.0674
 6283TIP3    H140408   4.206   2.946   8.467  0.3608 -0.2339  0.8293
 6283TIP3    H240409   4.357   2.943   8.451  0.2062 -0.2507 -0.8208
 6284TIP3   OH240410   4.978   1.328   7.711 -0.3785  0.3333 -0.7956
 6284TIP3    H140411   5.051   1.377   7.675  1.1102 -0.7568  0.5845
 6284TIP3    H240412   4.917   1.395   7.744  0.7612  1.2668 -0.5314
 6285TIP3   OH240413   3.440   6.474   0.954 -0.0615  0.3595  0.1872
 6285TIP3    H140414   3.414   6.528   0.878 -0.7606 -0.1424  0.0536
 6285TIP3    H240415   3.483   6.398   0.915  0.6633  0.6796  0.3606
 6286TIP3   OH240416   3.861   5.818   0.695 -0.3860  0.0401  0.0733
 6286TIP3    H140417   3.814   5.840   0.776  0.7523 -0.8839  1.0300
 6286TIP3    H240418   3.823   5.876   0.629 -1.8183  0.3530  1.1161
 6287TIP3   OH240419   3.305   4.852   8.511  0.0387 -0.1779 -0.2538
 6287TIP3    H140420   3.278   4.809   8.591 -1.6231  1.1706 -0.0400
 6287TIP3    H240421   3.383   4.902   8.535 -0.1305 -0.2198  0.3870
 6288TIP3   OH240422   0.251   4.148   8.501 -0.3613 -0.0416  0.2150
 6288TIP3    H140423   0.338   4.112   8.517 -0.4013  0.0731  0.6984
 6288TIP3    H240424   0.200   4.074   8.468  0.7879  0.6044 -3.3685
 6289TIP3   OH240425   3.839   1.152   1.724 -0.3453 -0.4163  0.3351
 6289TIP3    H140426   3.827   1.110   1.809 -0.9715  2.0188  1.5404
 6289TIP3    H240427   3.934   1.157   1.713 -0.2249  0.5466  1.6178
 6290TIP3   OH240428   3.842   1.516   1.957  0.1080  0.9591 -0.3872
 6290TIP3    H140429   3.916   1.571   1.982 -0.9475  2.3848 -0.2933
 6290TIP3    H240430   3.779   1.577   1.919 -0.7866 -0.3111 -0.9932
 6291TIP3   OH240431   3.934   6.247   7.602 -0.0276  1.2180 -0.1145
 6291TIP3    H140432   4.006   6.185   7.610 -0.0184  1.4442  3.6876
 6291TIP3    H240433   3.858   6.199   7.635 -0.9935  1.9174 -1.2412
 6292TIP3   OH240434   2.406   5.174   3.045 -0.4814  0.2573 -0.2412
 6292TIP3    H140435   2.338   5.221   2.998  0.8846  1.6857 -0.8798
 6292TIP3    H240436   2.477   5.237   3.055  0.9371 -1.2906  0.0225
 6293TIP3   OH240437   5.373   0.774   0.767 -0.7568  0.4244 -0.4777
 6293TIP3    H140438   5.328   0.717   0.704 -0.0579  1.2025 -1.7302
 6293TIP3    H240439   5.417   0.839   0.712 -1.0429  1.8152  0.8939
 6294TIP3   OH240440   2.324   5.866   7.557  0.4837  0.4206  0.5357
 6294TIP3    H140441   2.261   5.938   7.558  0.1520  0.1305  0.3875
 6294TIP3    H240442   2.324   5.836   7.466  0.3515 -0.0053  0.6770
 6295TIP3   OH240443   1.524   2.576   7.355  0.3852  0.4082 -0.7515
 6295TIP3    H140444   1.612   2.580   7.318  1.1232 -2.0088  0.5207
 6295TIP3    H240445   1.488   2.494   7.322  0.3488 -0.8654  2.1506
 6296TIP3   OH240446   1.070   6.584   2.175  0.4966  0.2525 -0.5241
 6296TIP3    H140447   1.042   6.637   2.101 -1.0637 -0.4785 -0.4893
 6296TIP3    H240448   1.063   6.643   2.250  1.3501  0.7653 -0.8263
 6297TIP3   OH240449   4.620   0.710   8.189  0.2952 -0.4572 -0.6998
 6297TIP3    H140450   4.632   0.619   8.162  1.2926 -0.3674 -0.6034
 6297TIP3    H240451   4.594   0.705   8.281  0.9443 -0.6328 -0.5200
 6298TIP3   OH240452   2.852   4.114   0.519 -0.2098 -0.1007 -0.4049
 6298TIP3    H140453   2.839   4.032   0.566 -0.4824  0.5012  0.6291
 6298TIP3    H240454   2.946   4.122   0.509  0.0615  0.7782  2.0583
 6299TIP3   OH240455   1.253   2.247   1.799  0.4995  0.2530 -0.1039
 6299TIP3    H140456   1.327   2.197   1.764  1.7056  0.5644  1.8350
 6299TIP3    H240457   1.288   2.334   1.816  0.4485 -0.2454  3.0919
 6300TIP3   OH240458   4.433   2.961   0.109  0.3884  0.3728  0.0860
 6300TIP3    H140459   4.373   2.929   0.176  0.8500 -2.1716 -0.6169
 6300TIP3    H240460   4.445   3.054   0.130 -1.1703  0.1716  2.1874
 6301TIP3   OH240461   1.189   1.732   8.073 -0.1759  0.2156  0.5705
 6301TIP3    H140462   1.106   1.742   8.119  0.9222 -1.5498  3.1403
 6301TIP3    H240463   1.217   1.821   8.055 -1.7284  0.8958  1.3362
 6302TIP3   OH240464   4.169   6.507   2.936  0.2407  0.4164  0.6546
 6302TIP3    H140465   4.138   6.587   2.894  0.9583 -0.4362 -1.6261
 6302TIP3    H240466   4.115   6.437   2.899  2.5602 -0.6753 -0.9033
 6303TIP3   OH240467   4.964   6.079   1.358  0.5563  0.3206  0.2133
 6303TIP3    H140468   5.054   6.106   1.378  0.3006  0.2046  1.6240
 6303TIP3    H240469   4.913   6.160   1.362  0.8412  0.7176 -2.4560
 6304TIP3   OH240470   0.357   3.673   0.822  0.5952 -0.4443  0.2650
 6304TIP3    H140471   0.426   3.613   0.794  2.8758  1.0019  2.3904
 6304TIP3    H240472   0.327   3.715   0.742  2.5179 -0.7706 -0.6782
 6305TIP3   OH240473   2.273   3.256   7.859 -0.1918  0.1661 -0.1257
 6305TIP3    H140474   2.263   3.348   7.880 -2.6321 -0.0573  0.0288
 6305TIP3    H240475   2.304   3.215   7.940  2.6463  1.0086 -0.6718
 6306TIP3   OH240476   3.854   2.090   8.492 -0.2010 -0.0783  0.1065
 6306TIP3    H140477   3.894   2.160   8.440  1.6648 -0.7446  0.5704
 6306TIP3    H240478   3.847   2.127   8.580 -2.0345  0.5461 -0.2619
 6307TIP3   OH240479   5.797   5.277   0.567 -0.0793 -0.4330  0.0384
 6307TIP3    H140480   5.868   5.214   0.583  1.2523  1.0199  0.1095
 6307TIP3    H240481   5.806   5.299   0.474 -0.8933 -0.7664 -0.1194
 6308TIP3   OH240482   4.060   2.840   1.452 -0.0030 -0.3439 -0.0423
 6308TIP3    H140483   3.993   2.777   1.423 -0.4544 -0.0960  0.4567
 6308TIP3    H240484   4.028   2.873   1.535  0.7674 -0.2516  0.2296
 6309TIP3   OH240485   2.302   4.847   2.473 -0.3972 -0.7631  0.2114
 6309TIP3    H140486   2.331   4.775   2.529 -1.8953 -1.0822  0.6297
 6309TIP3    H240487   2.266   4.912   2.533  0.9483  0.3640 -0.1659
 6310TIP3   OH240488   5.416   5.941   7.414 -0.3097  0.0912  0.2183
 6310TIP3    H140489   5.440   5.911   7.326  0.5037  2.5084 -0.4655
 6310TIP3    H240490   5.322   5.920   7.421 -0.1378 -1.1281 -0.7588
 6311TIP3   OH240491   4.251   6.215   1.565 -0.2147  0.6953 -0.0031
 6311TIP3    H140492   4.178   6.211   1.628  0.7467 -0.3236  1.0817
 6311TIP3    H240493   4.236   6.142   1.506 -0.1113  0.5307  0.1743
 6312TIP3   OH240494   2.283   1.649   0.109 -0.4138 -0.4536 -0.4528
 6312TIP3    H140495   2.351   1.682   0.051 -1.9029  1.2900 -1.2969
 6312TIP3    H240496   2.329   1.628   0.190  1.0474  1.2402 -0.7828
 6313TIP3   OH240497   6.579   0.670   7.818 -0.1967  0.3559  0.0446
 6313TIP3    H140498   6.645   0.691   7.884 -0.0804  0.9637 -0.2549
 6313TIP3    H240499   6.541   0.755   7.795 -1.4979 -0.0309  0.6310
 6314TIP3   OH240500   1.414   3.885   7.399 -0.3236  0.5319  0.5937
 6314TIP3    H140501   1.405   3.973   7.363 -2.3730 -0.2654 -1.0834
 6314TIP3    H240502   1.423   3.828   7.323 -3.2818 -1.0866  1.2753
 6315TIP3   OH240503   0.427   2.898   7.960 -0.3933  0.4278  0.4796
 6315TIP3    H140504   0.409   2.907   7.867 -1.0771 -0.5429  0.5082
 6315TIP3    H240505   0.473   2.815   7.969 -0.0671  0.6539  0.9762
 6316TIP3   OH240506   1.454   6.746   7.374  0.2471 -0.2342  0.0324
 6316TIP3    H140507   1.406   6.794   7.307  0.0305  0.0328  0.3769
 6316TIP3    H240508   1.521   6.807   7.405 -1.9871  1.0865  2.7233
 6317TIP3   OH240509   0.942   5.119   7.353  0.4006 -0.0039  0.2073
 6317TIP3    H140510   0.919   5.030   7.380 -0.5155  0.1726  0.0557
 6317TIP3    H240511   0.861   5.154   7.316  0.6986  0.9708  0.4600
 6318TIP3   OH240512   3.160   0.790   8.023  0.4276  0.4404  0.5523
 6318TIP3    H140513   3.229   0.768   7.961 -0.4635  2.3502 -1.2172
 6318TIP3    H240514   3.109   0.709   8.033  0.8556 -0.0246 -0.8813
 6319TIP3   OH240515   4.629   6.706   0.282  0.4161  0.1385  0.1342
 6319TIP3    H140516   4.694   6.776   0.280  1.2082 -0.5354  1.2281
 6319TIP3    H240517   4.680   6.625   0.282 -0.4006 -0.3991  1.2992
 6320TIP3   OH240518   2.396   0.388   2.387  0.1717 -0.5999  0.2564
 6320TIP3    H140519   2.384   0.365   2.479  0.6309  0.5695  0.6135
 6320TIP3    H240520   2.334   0.459   2.371  1.2592  0.3346  0.1152
 6321TIP3   OH240521   4.900   6.843   7.691  0.4684  0.0109  0.1338
 6321TIP3    H140522   4.833   6.911   7.684 -0.3268 -0.7947 -0.1894
 6321TIP3    H240523   4.852   6.762   7.704  1.4238 -0.4478  0.9764
 6322TIP3   OH240524   0.497   1.232   0.191  0.0254 -0.3009  0.3861
 6322TIP3    H140525   0.477   1.145   0.155  0.3765  0.0156 -0.5836
 6322TIP3    H240526   0.552   1.214   0.267  2.0881 -0.8660 -1.1529
 6323TIP3   OH240527   5.484   3.381   8.137 -0.0385  0.1658  0.5656
 6323TIP3    H140528   5.523   3.334   8.063 -0.7684 -1.1697  0.9849
 6323TIP3    H240529   5.482   3.472   8.109  1.6540  0.0045 -0.1891
 6324TIP3   OH240530   5.357   2.313   0.060  0.2640  0.3331  0.7855
 6324TIP3    H140531   5.331   2.280  -0.025 -3.3075  1.5988  1.2325
 6324TIP3    H240532   5.401   2.396   0.042 -0.4445  0.5770  0.1519
 6325TIP3   OH240533   1.766   2.918   0.626  0.4591  0.3230 -0.0097
 6325TIP3    H140534   1.763   2.927   0.531  1.1155  0.7802  0.0017
 6325TIP3    H240535   1.707   2.845   0.646  1.5307 -0.8464 -0.9153
 6326TIP3   OH240536   1.049   6.773   2.399  0.3675 -0.4897  0.2505
 6326TIP3    H140537   1.021   6.746   2.486  0.8944 -2.1104 -0.0586
 6326TIP3    H240538   1.105   6.849   2.414  0.6549 -0.9017  1.3435
 6327TIP3   OH240539   6.148   6.443   7.936 -0.1879 -0.1121 -0.4527
 6327TIP3    H140540   6.222   6.500   7.951 -0.2167  0.3104 -1.7753
 6327TIP3    H240541   6.073   6.502   7.925 -0.0960 -0.3185 -2.5300
 6328TIP3   OH240542   3.275   2.812   7.297 -0.5984 -0.1406  0.0139
 6328TIP3    H140543   3.258   2.719   7.316 -1.9189  0.1144  0.1614
 6328TIP3    H240544   3.250   2.858   7.377 -0.4113  0.3944 -0.2278
 6329TIP3   OH240545   6.205   6.856   8.557 -0.6806  0.5035  0.0654
 6329TIP3    H140546   6.233   6.930   8.504 -1.7694  1.0076  0.1694
 6329TIP3    H240547   6.254   6.781   8.522 -0.3515  1.0771 -0.7256
 6330TIP3   OH240548   5.303   6.479   0.573  0.3510  0.1361 -0.5244
 6330TIP3    H140549   5.303   6.392   0.613  3.2353  1.0281  1.7815
 6330TIP3    H240550   5.237   6.528   0.621  0.9403  0.0787  0.3497
 6331TIP3   OH240551   6.670   6.085   7.149  0.0688  0.2586  0.1408
 6331TIP3    H140552   6.576   6.069   7.146  0.1988 -0.3989 -1.3863
 6331TIP3    H240553   6.678   6.174   7.183 -1.0786  0.2068  0.5912
 6332TIP3   OH240554   2.161   3.478   3.093 -0.3730 -0.3614  0.2473
 6332TIP3    H140555   2.090   3.505   3.151 -0.1419  1.5910 -0.3378
 6332TIP3    H240556   2.129   3.495   3.005  1.5041  2.6107  0.0026
 6333TIP3   OH240557   4.357   4.218   7.732  0.1853  0.0632  0.0510
 6333TIP3    H140558   4.416   4.182   7.798  0.7148 -1.0326 -0.9980
 6333TIP3    H240559   4.350   4.311   7.754  0.7263 -0.1911  1.3548
 6334TIP3   OH240560   4.738   5.051   0.387 -0.4645 -0.5391  0.0757
 6334TIP3    H140561   4.756   4.965   0.348  1.1562 -0.3527  0.3679
 6334TIP3    H240562   4.772   5.114   0.323 -0.9433 -0.1280  0.2181
 6335TIP3   OH240563   4.147   3.022   8.168 -0.1175  0.0835 -0.3728
 6335TIP3    H140564   4.169   2.994   8.257 -1.3000  2.0789  0.6241
 6335TIP3    H240565   4.213   2.981   8.113  3.1591  1.8648  1.8779
 6336TIP3   OH240566   6.093   6.495   8.284 -0.2658 -0.2500  0.8320
 6336TIP3    H140567   6.081   6.427   8.217 -1.5846  1.6406 -0.9705
 6336TIP3    H240568   6.004   6.516   8.313  0.2344 -0.4535  2.6683
 6337TIP3   OH240569   0.225   1.040   1.725  0.6707  0.3418  0.3096
 6337TIP3    H140570   0.175   1.085   1.793 -1.2065  1.1517 -1.4729
 6337TIP3    H240571   0.221   0.948   1.749 -2.0217  0.3313  0.1490
 6338TIP3   OH240572   5.329   2.879   8.025 -0.0978 -0.0942 -0.5433
 6338TIP3    H140573   5.285   2.852   7.945 -2.6220  0.5797  0.5032
 6338TIP3    H240574   5.320   2.805   8.084 -0.3681  0.2533 -0.1367
 6339TIP3   OH240575   0.952   3.068   8.214  0.2291 -0.5889  0.6691
 6339TIP3    H140576   1.033   3.023   8.188  0.9568  0.0772  1.6728
 6339TIP3    H240577   0.910   3.091   8.132  2.8052  2.1634 -0.0681
 6340TIP3   OH240578   0.194   6.401   2.291  0.6259 -0.3320  0.2009
 6340TIP3    H140579   0.233   6.456   2.222  0.2914 -1.3243 -0.8096
 6340TIP3    H240580   0.100   6.410   2.278  0.5501 -2.0843 -0.7959
 6341TIP3   OH240581   5.266   3.726   7.321 -0.3403  0.4204  0.3121
 6341TIP3    H140582   5.318   3.688   7.391 -0.4559  0.2025  0.2820
 6341TIP3    H240583   5.193   3.769   7.366 -1.3946 -1.2188  0.2672
 6342TIP3   OH240584   4.541   0.327   8.334 -0.5928  0.0358  0.6025
 6342TIP3    H140585   4.634   0.312   8.321 -0.6291 -1.9896  2.1076
 6342TIP3    H240586   4.516   0.388   8.265  1.7161  0.1694 -0.1847
 6343TIP3   OH240587   3.414   3.717   1.768  0.1321 -0.4414  0.4183
 6343TIP3    H140588   3.326   3.685   1.750  0.2949 -1.9119  2.0260
 6343TIP3    H240589   3.406   3.764   1.851  0.6536  0.4812 -0.0286
 6344TIP3   OH240590   2.529   4.856   7.000  0.1048  0.5769 -0.0073
 6344TIP3    H140591   2.462   4.923   6.983 -0.2645  0.2316  0.0608
 6344TIP3    H240592   2.479   4.779   7.027  0.4168 -0.1681 -1.4381
 6345TIP3   OH240593   4.250   0.866   6.972  0.0680  0.2304  0.2719
 6345TIP3    H140594   4.259   0.789   6.916  0.9331  0.3517  0.2301
 6345TIP3    H240595   4.218   0.934   6.913  1.5912  0.5313 -0.2483
 6346TIP3   OH240596   2.013   6.065   2.005  0.0447 -0.0931  0.3856
 6346TIP3    H140597   1.964   6.146   2.021  1.3467  0.7332  0.3827
 6346TIP3    H240598   2.057   6.080   1.922  1.3204 -0.2644  1.0057
 6347TIP3   OH240599   1.670   3.477   0.740 -0.1976 -0.6703  0.2404
 6347TIP3    H140600   1.632   3.460   0.827 -2.1229 -0.3357 -0.4875
 6347TIP3    H240601   1.737   3.409   0.729 -1.0968 -1.7677  1.2977
 6348TIP3   OH240602   2.141   6.750   2.574 -0.7171  0.2936  1.1021
 6348TIP3    H140603   2.086   6.828   2.571 -0.6525  0.3919  2.3321
 6348TIP3    H240604   2.203   6.766   2.644 -0.6144 -0.8020  1.2872
 6349TIP3   OH240605   3.265   3.084   0.005  0.2491 -0.7436 -0.2283
 6349TIP3    H140606   3.333   3.098  -0.061  0.2553  1.3427  0.1554
 6349TIP3    H240607   3.186   3.122  -0.033 -0.9426 -3.6286 -0.9027
 6350TIP3   OH240608   5.653   6.160   8.355  0.0067  0.0699  0.0567
 6350TIP3    H140609   5.648   6.116   8.270  1.8644 -0.2191  0.0670
 6350TIP3    H240610   5.662   6.089   8.418  1.0619  0.3584  0.2502
 6351TIP3   OH240611   3.934   6.283   2.400  0.5736  0.4808 -0.0335
 6351TIP3    H140612   3.924   6.188   2.392 -1.4294  0.5379  1.0939
 6351TIP3    H240613   3.945   6.298   2.494 -0.6957  1.4593 -0.0113
 6352TIP3   OH240614   2.267   0.528   1.488 -0.1600 -0.0312 -0.6312
 6352TIP3    H140615   2.207   0.600   1.469  0.7649  0.3165 -2.4830
 6352TIP3    H240616   2.262   0.517   1.583 -0.2521  2.5559 -0.2611
 6353TIP3   OH240617   1.700   5.351   8.262 -0.3596  0.4894  0.2061
 6353TIP3    H140618   1.653   5.282   8.215 -0.0839  1.1108 -1.0104
 6353TIP3    H240619   1.791   5.320   8.264 -0.1317  1.0562 -0.8330
 6354TIP3   OH240620   1.649   4.314   2.354  0.2560  0.0203  0.7186
 6354TIP3    H140621   1.679   4.269   2.274 -1.9995 -0.3386 -0.0057
 6354TIP3    H240622   1.713   4.383   2.368  0.8214 -0.0047 -1.3380
 6355TIP3   OH240623   4.111   2.077   1.664  0.6519 -0.2156  0.8612
 6355TIP3    H140624   4.133   2.163   1.701 -0.5195  0.5494 -0.1440
 6355TIP3    H240625   4.191   2.049   1.619  0.3642  1.4686 -0.8367
 6356TIP3   OH240626   5.393   1.396   1.529  0.2907 -0.0551 -0.2948
 6356TIP3    H140627   5.448   1.467   1.562  1.1261 -1.4041  1.3381
 6356TIP3    H240628   5.306   1.436   1.522  0.4195  0.8009  2.0052
 6357TIP3   OH240629   1.537   5.538   1.563  0.3018 -0.3080 -0.2681
 6357TIP3    H140630   1.612   5.557   1.619  0.4289 -1.4380 -0.0341
 6357TIP3    H240631   1.474   5.496   1.621 -0.3583  0.2662 -0.5540
 6358TIP3   OH240632   5.598   1.197   7.047  0.0914  0.2119  0.0050
 6358TIP3    H140633   5.645   1.124   7.087 -1.5286 -1.2550 -0.6508
 6358TIP3    H240634   5.580   1.167   6.958  1.8809  2.5935 -1.2683
 6359TIP3   OH240635   6.631   5.093   1.346  0.1236  0.4845  0.0844
 6359TIP3    H140636   6.561   5.158   1.346 -1.4474 -1.1171  1.0610
 6359TIP3    H240637   6.637   5.064   1.437 -0.3334 -1.8465 -0.5663
 6360TIP3   OH240638   2.788   5.057   5.544 -0.0476  0.4334  0.8823
 6360TIP3    H140639   2.708   5.106   5.526 -0.0132  0.1284 -0.1683
 6360TIP3    H240640   2.820   5.093   5.626 -1.7243 -0.0360  1.7916
 6361TIP3   OH240641   2.856   2.838   0.080  0.2734  0.5284  0.5246
 6361TIP3    H140642   2.892   2.766   0.132 -1.7696 -1.6892 -0.9235
 6361TIP3    H240643   2.923   2.854   0.013  0.5590 -0.3752  0.5751
 6362TIP3   OH240644   5.718   3.449   6.881 -0.6490 -0.4949 -0.3004
 6362TIP3    H140645   5.696   3.361   6.851 -2.4647  0.2319 -1.3188
 6362TIP3    H240646   5.710   3.445   6.976 -2.7726 -0.9960 -0.4445
 6363TIP3   OH240647   4.893   4.961   6.875 -0.3133 -0.4540 -0.4629
 6363TIP3    H140648   4.900   5.002   6.961  1.0336 -1.4949 -0.0321
 6363TIP3    H240649   4.819   5.005   6.833 -0.6966  0.4039  1.0362
 6364TIP3   OH240650   3.912   6.680   8.148  0.2828  0.3884  0.5444
 6364TIP3    H140651   3.879   6.591   8.161  1.3057 -0.6077 -2.6183
 6364TIP3    H240652   3.970   6.695   8.223  1.1755 -2.2095  0.4807
 6365TIP3   OH240653   3.870   2.520   1.249  0.3538  0.3469 -1.0960
 6365TIP3    H140654   3.962   2.528   1.276  0.7271  0.0849 -2.2711
 6365TIP3    H240655   3.852   2.426   1.252 -0.1548  0.4518 -0.0446
 6366TIP3   OH240656   4.968   1.512   8.362  0.1796 -0.0713 -0.1534
 6366TIP3    H140657   5.041   1.561   8.399  1.0184 -1.2535 -0.1849
 6366TIP3    H240658   4.953   1.440   8.424 -0.8138  0.0272 -0.2589
 6367TIP3   OH240659   1.416   0.564   7.390 -0.9397 -0.2302  0.1999
 6367TIP3    H140660   1.402   0.653   7.422  1.1215 -0.0079  0.6568
 6367TIP3    H240661   1.511   0.554   7.390 -1.1218 -2.5161  0.3781
 6368TIP3   OH240662   2.053   1.409   2.481 -0.0775 -0.0582  0.2446
 6368TIP3    H140663   2.029   1.360   2.560 -1.2003  0.7339  0.4089
 6368TIP3    H240664   2.099   1.486   2.513  0.6950 -0.4128  0.0354
 6369TIP3   OH240665   6.106   1.736   1.372  0.1201 -0.7314 -0.2593
 6369TIP3    H140666   6.076   1.751   1.462 -0.1869  0.7312 -0.5785
 6369TIP3    H240667   6.170   1.665   1.380  0.5150 -0.2575  1.2060
 6370TIP3   OH240668   2.619   5.495   2.379  0.3651  0.0079 -0.3384
 6370TIP3    H140669   2.610   5.550   2.457  0.5087 -2.2444  1.3633
 6370TIP3    H240670   2.710   5.467   2.381  0.5901  0.5358 -1.8154
 6371TIP3   OH240671   3.684   5.814   7.848 -0.0345 -0.6876  0.3235
 6371TIP3    H140672   3.706   5.755   7.920  1.5374  0.0167  0.4788
 6371TIP3    H240673   3.602   5.856   7.875  1.6970  1.3380  2.9285
 6372TIP3   OH240674   4.639   6.592   1.026  0.3382 -0.1634  0.4274
 6372TIP3    H140675   4.612   6.607   1.117  1.1217 -0.3774  0.6970
 6372TIP3    H240676   4.589   6.656   0.976 -0.5931 -0.4731  0.9327
 6373TIP3   OH240677   5.514   1.607   1.634  0.0409  0.2490 -0.2146
 6373TIP3    H140678   5.518   1.677   1.568  1.0403 -1.1061 -1.6497
 6373TIP3    H240679   5.595   1.616   1.683  1.2485 -1.1426 -1.8061
 6374TIP3   OH240680   6.365   2.727   7.123 -0.4450  0.6688 -0.0519
 6374TIP3    H140681   6.443   2.776   7.098  2.1808 -3.1575 -0.2490
 6374TIP3    H240682   6.300   2.749   7.057  1.3569  2.0139 -1.4639
 6375TIP3   OH240683   4.406   1.068   7.778 -0.3615 -0.1470  0.2478
 6375TIP3    H140684   4.409   0.977   7.749 -0.4742 -0.4674  1.2104
 6375TIP3    H240685   4.347   1.111   7.716 -2.1013 -1.2170  1.0927
 6376TIP3   OH240686   2.855   3.641   8.110 -0.0677 -0.4850 -0.0618
 6376TIP3    H140687   2.860   3.719   8.165 -1.0475 -2.1444  2.5790
 6376TIP3    H240688   2.805   3.669   8.034  0.5738  1.7246  0.2534
 6377TIP3   OH240689   5.679   3.135   1.490  0.5925  0.1107 -0.0666
 6377TIP3    H140690   5.716   3.199   1.430  2.2166 -1.4705 -0.8174
 6377TIP3    H240691   5.584   3.151   1.487  0.9033  2.1402 -0.5541
 6378TIP3   OH240692   6.875   1.060   2.338 -0.1210  0.3484 -0.2885
 6378TIP3    H140693   6.813   1.104   2.280  0.4308  1.4465 -0.0773
 6378TIP3    H240694   6.908   1.130   2.395  2.9292  0.3129 -1.8077
 6379TIP3   OH240695   2.667   3.561   7.433 -0.0097 -0.0130 -0.3303
 6379TIP3    H140696   2.645   3.508   7.357  1.5363  1.1459 -1.6529
 6379TIP3    H240697   2.584   3.601   7.459 -0.7879 -1.3905 -0.6122
 6380TIP3   OH240698   0.107   3.536   7.842  0.1107 -0.4127 -0.1076
 6380TIP3    H140699   0.157   3.473   7.895  1.2718 -0.0119 -0.6999
 6380TIP3    H240700   0.017   3.527   7.874  0.5779 -1.0242  1.1150
 6381TIP3   OH240701   0.557   6.177   7.634 -0.6375  0.2565  0.0899
 6381TIP3    H140702   0.613   6.192   7.558 -0.0288 -1.9091  0.0589
 6381TIP3    H240703   0.472   6.154   7.597 -0.7466  0.6269  0.1028
 6382TIP3   OH240704   1.633   6.213   7.588 -0.0147 -0.4528  0.4133
 6382TIP3    H140705   1.609   6.155   7.515  1.9660 -0.1461 -0.5354
 6382TIP3    H240706   1.592   6.297   7.566  1.3887 -0.0742 -0.9192
 6383TIP3   OH240707   5.799   4.397   0.741 -0.3425 -0.6795  0.1369
 6383TIP3    H140708   5.867   4.464   0.747 -1.8123  1.1421 -1.8806
 6383TIP3    H240709   5.845   4.318   0.713  1.2046 -0.1080  0.9643
 6384TIP3   OH240710   0.707   2.134   3.101 -0.2479 -0.1790  1.0299
 6384TIP3    H140711   0.699   2.187   3.179  1.1374  1.6423  0.0233
 6384TIP3    H240712   0.748   2.192   3.037 -1.0290 -1.7006 -0.9515
 6385TIP3   OH240713   3.429   1.257   7.026  0.0923  0.3208 -0.1437
 6385TIP3    H140714   3.466   1.265   6.938 -1.0117 -0.3339 -0.6997
 6385TIP3    H240715   3.491   1.201   7.073 -0.6843 -1.7162 -1.4024
 6386TIP3   OH240716   0.513   2.246   7.497  0.1684 -0.0362  0.1958
 6386TIP3    H140717   0.528   2.301   7.421  1.0238 -2.1244 -1.2312
 6386TIP3    H240718   0.464   2.171   7.463  1.6540 -1.6324  1.3875
 6387TIP3   OH240719   5.485   4.691   0.346 -0.4220  0.1612  0.4543
 6387TIP3    H140720   5.555   4.628   0.362  0.2856  1.1067  1.0733
 6387TIP3    H240721   5.454   4.669   0.257 -1.1439 -1.9546  1.1608
 6388TIP3   OH240722   4.305   5.145   0.272  0.5729  0.0178 -0.7916
 6388TIP3    H140723   4.340   5.232   0.293  0.1298 -0.1485  0.7334
 6388TIP3    H240724   4.212   5.160   0.259  0.3347 -0.3461  0.3810
 6389TIP3   OH240725   5.072   0.044   7.891  0.0586 -0.1568  0.0907
 6389TIP3    H140726   5.025  -0.018   7.835 -0.7727  1.2319 -0.8123
 6389TIP3    H240727   5.100   0.113   7.831  1.3055  0.1552  1.0074
 6390TIP3   OH240728   0.733   5.460   0.802 -0.0915 -0.5026  0.1690
 6390TIP3    H140729   0.668   5.515   0.759  0.4913  0.6980  0.7967
 6390TIP3    H240730   0.744   5.386   0.742 -4.9345 -2.9456  1.7753
 6391TIP3   OH240731   0.357   1.745   0.836  0.0132  0.4362  0.2161
 6391TIP3    H140732   0.387   1.823   0.790  0.3342  0.3528  0.2817
 6391TIP3    H240733   0.271   1.725   0.796 -0.3429  1.1598  0.6096
 6392TIP3   OH240734   3.071   3.757   8.455 -0.1768  0.2372 -0.1871
 6392TIP3    H140735   3.058   3.824   8.388 -0.6868  0.8957  0.5593
 6392TIP3    H240736   3.003   3.692   8.437 -1.1975  1.0839  0.5040
 6393TIP3   OH240737   5.017   1.380   7.206  0.3300  0.0784 -0.6796
 6393TIP3    H140738   5.063   1.304   7.170 -0.1220 -1.3550  1.5603
 6393TIP3    H240739   4.983   1.426   7.129  0.0269 -2.3530 -2.1161
 6394TIP3   OH240740   0.817   6.800   1.144  0.5214 -0.5996  0.0436
 6394TIP3    H140741   0.727   6.831   1.135  0.1030 -1.4878  1.0166
 6394TIP3    H240742   0.851   6.798   1.054 -0.1812  0.4270 -0.2634
 6395TIP3   OH240743   5.896   6.053   2.929  0.0536 -0.7078  0.6980
 6395TIP3    H140744   5.908   6.143   2.898 -0.5670 -0.8226  0.0913
 6395TIP3    H240745   5.972   6.006   2.896 -0.2940 -0.6926 -0.1418
 6396TIP3   OH240746   0.802   4.388   1.925 -0.1229  0.0073  0.5004
 6396TIP3    H140747   0.888   4.378   1.965  0.3236  2.3210  0.2634
 6396TIP3    H240748   0.756   4.450   1.981  0.0621  2.3602 -1.7573
 6397TIP3   OH240749   6.154   2.951   1.539 -0.2569 -0.0130 -0.1112
 6397TIP3    H140750   6.173   3.034   1.581 -1.5332  0.0923  0.2934
 6397TIP3    H240751   6.060   2.940   1.549 -0.0036 -1.9321  0.6608
 6398TIP3   OH240752   0.990   5.320   8.190 -0.1925  0.0775 -0.0580
 6398TIP3    H140753   1.085   5.328   8.185 -0.0365 -1.6874 -0.8564
 6398TIP3    H240754   0.967   5.266   8.114 -1.6829 -0.5203  0.7739
 6399TIP3   OH240755   1.983   6.089   7.804 -0.5342 -0.5088  0.1558
 6399TIP3    H140756   1.896   6.065   7.772 -1.0419 -1.3832  2.0153
 6399TIP3    H240757   1.977   6.184   7.818 -1.4629 -0.6626  0.9603
 6400TIP3   OH240758   0.806   1.386   0.272 -0.1223  0.2419  0.1932
 6400TIP3    H140759   0.715   1.413   0.286 -0.1147  0.4145 -0.0704
 6400TIP3    H240760   0.801   1.291   0.259 -0.0323 -0.0648  2.1480
 6401TIP3   OH240761   3.499   3.000   1.562 -0.2391 -0.4859  0.3566
 6401TIP3    H140762   3.592   3.007   1.541  0.1280 -1.5714  1.5042
 6401TIP3    H240763   3.464   2.936   1.500 -1.1125  2.5408 -2.5655
 6402TIP3   OH240764   3.977   0.595   7.571 -0.0700  0.3467  0.2957
 6402TIP3    H140765   3.945   0.638   7.492  0.1914  2.0282  1.0612
 6402TIP3    H240766   3.915   0.621   7.639  0.1566 -0.4297  0.8064
 6403TIP3   OH240767   5.799   0.863   1.851  0.6635 -0.0645 -0.3934
 6403TIP3    H140768   5.806   0.958   1.846 -0.2944  0.0045 -0.7121
 6403TIP3    H240769   5.880   0.834   1.893  2.7238  0.5731 -3.6173
 6404TIP3   OH240770   6.231   2.687   7.987  0.4872 -0.0581 -0.2460
 6404TIP3    H140771   6.149   2.734   7.973 -0.6302 -1.5061  1.0625
 6404TIP3    H240772   6.262   2.717   8.072  0.8882 -0.1237 -0.3652
 6405TIP3   OH240773   0.543   5.207   0.707 -0.0490 -0.2817 -0.0967
 6405TIP3    H140774   0.472   5.254   0.664 -0.7977 -1.7475 -0.5229
 6405TIP3    H240775   0.622   5.237   0.661 -0.2172  2.0492  0.9808
 6406TIP3   OH240776   4.566   0.246   1.897 -0.2110  0.2876  0.3097
 6406TIP3    H140777   4.565   0.200   1.980  1.3951 -1.1307 -0.3924
 6406TIP3    H240778   4.640   0.208   1.849 -0.3161  1.9308 -1.2763
 6407TIP3   OH240779   4.759   5.409   1.341 -0.1422  0.1984  0.2903
 6407TIP3    H140780   4.775   5.317   1.362  0.1182  0.0216 -0.6078
 6407TIP3    H240781   4.672   5.410   1.302  0.1984  0.1811 -0.4982
 6408TIP3   OH240782   3.650   3.217   7.056 -0.4150 -0.2146  0.5487
 6408TIP3    H140783   3.596   3.190   7.131 -1.4688  0.2106 -0.0279
 6408TIP3    H240784   3.666   3.310   7.071 -0.2386 -0.2347  0.4826
 6409TIP3   OH240785   2.136   4.566   1.730 -0.2343 -0.1341 -0.4991
 6409TIP3    H140786   2.093   4.486   1.756  1.1886 -1.2043 -1.2753
 6409TIP3    H240787   2.066   4.622   1.697 -1.8641  0.5473  3.5015
 6410TIP3   OH240788   4.525   5.836   7.699 -0.4056  0.3789  0.5595
 6410TIP3    H140789   4.449   5.786   7.727 -0.2382  0.0242  0.3827
 6410TIP3    H240790   4.580   5.773   7.651 -1.6318  1.3778 -2.4067
 6411TIP3   OH240791   4.193   2.303   1.820  0.4011  0.2165 -0.1714
 6411TIP3    H140792   4.267   2.296   1.880  1.3249 -0.5719 -1.3643
 6411TIP3    H240793   4.121   2.261   1.867 -0.1717  3.4084  2.1930
 6412TIP3   OH240794   1.388   4.759   8.368 -0.2344 -0.9685  0.1419
 6412TIP3    H140795   1.364   4.667   8.375 -0.2380 -0.9094  1.1015
 6412TIP3    H240796   1.407   4.785   8.458 -1.2480  0.2432  0.0342
 6413TIP3   OH240797   1.762   3.338   2.649  0.0106 -0.2658  0.0090
 6413TIP3    H140798   1.824   3.373   2.714 -0.4416  0.0535  0.2724
 6413TIP3    H240799   1.735   3.254   2.685  1.1267 -0.9254 -0.6418
 6414TIP3   OH240800   4.206   3.446   2.061  0.1725  0.6463 -0.1749
 6414TIP3    H140801   4.200   3.367   2.113 -0.3926  0.3593 -0.6605
 6414TIP3    H240802   4.182   3.418   1.972  1.5169  1.0288 -0.6900
 6415TIP3   OH240803   2.574   4.537   8.395 -0.4193  0.3441  0.1793
 6415TIP3    H140804   2.531   4.460   8.359  1.4649 -0.7732  0.1640
 6415TIP3    H240805   2.600   4.511   8.483 -1.1159  1.5290  0.7584
 6416TIP3   OH240806   6.510   4.051   0.777  0.7158 -0.1181  0.8234
 6416TIP3    H140807   6.445   3.990   0.741  2.0784 -1.0922 -0.1151
 6416TIP3    H240808   6.464   4.135   0.782 -0.4270 -0.6184 -0.4570
 6417TIP3   OH240809   1.492   6.334   1.997 -0.1103  0.1175 -0.2349
 6417TIP3    H140810   1.411   6.381   2.018 -1.1073 -1.3253 -0.7549
 6417TIP3    H240811   1.519   6.296   2.080 -1.0125 -0.9518 -0.4081
 6418TIP3   OH240812   5.013   4.227   0.261 -0.4591 -0.3762  0.1055
 6418TIP3    H140813   5.015   4.212   0.355 -0.0112  2.7085  0.7048
 6418TIP3    H240814   4.921   4.246   0.242 -0.3690  0.1849  0.1925
 6419TIP3   OH240815   3.947   2.234   8.111  0.5400 -0.2063 -0.3142
 6419TIP3    H140816   3.908   2.150   8.088 -1.0597  0.2206  0.6900
 6419TIP3    H240817   3.918   2.294   8.042 -0.8455  0.1573  0.5389
 6420TIP3   OH240818   4.659   0.357   7.635 -0.2700  0.4383  0.0462
 6420TIP3    H140819   4.677   0.449   7.616  0.0101  0.3688 -0.0386
 6420TIP3    H240820   4.589   0.359   7.699 -0.4431  0.7043 -0.1500
 6421TIP3   OH240821   5.577   5.380   0.685  0.4088 -0.1431  0.3483
 6421TIP3    H140822   5.657   5.338   0.651  0.4696  1.8920 -2.3180
 6421TIP3    H240823   5.507   5.319   0.662  0.6741  0.3589 -1.9888
 6422TIP3   OH240824   6.188   4.763   7.468  0.1803 -0.2481 -0.0222
 6422TIP3    H140825   6.167   4.837   7.411 -2.5710 -1.2575 -0.4456
 6422TIP3    H240826   6.244   4.707   7.414 -1.2461 -0.5147 -1.2684
 6423TIP3   OH240827   2.966   2.372   1.158 -0.8915  0.1327 -0.3204
 6423TIP3    H140828   2.889   2.425   1.179 -1.2542 -0.7488  0.6909
 6423TIP3    H240829   2.941   2.282   1.182  0.6977 -0.0647  0.7597
 6424TIP3   OH240830   4.287   6.621   8.247  0.4425  0.0530 -0.0479
 6424TIP3    H140831   4.291   6.547   8.307  0.3534 -1.0247 -1.3203
 6424TIP3    H240832   4.310   6.585   8.161 -1.9209  0.9452 -1.1707
 6425TIP3   OH240833   2.185   2.757   2.074  0.0346  0.2737  0.0998
 6425TIP3    H140834   2.280   2.763   2.082  0.1299 -0.8406 -0.0308
 6425TIP3    H240835   2.157   2.713   2.155 -0.2091 -0.6738 -0.4890
 6426TIP3   OH240836   4.899   1.519   6.995 -0.2878  0.6988 -0.1685
 6426TIP3    H140837   4.914   1.613   7.006 -0.8483  0.7508  0.2082
 6426TIP3    H240838   4.805   1.509   7.007 -0.2463  0.1011 -0.3241
 6427TIP3   OH240839   2.851   5.512   2.078  0.0932  0.2610  0.3025
 6427TIP3    H140840   2.915   5.475   2.017  0.1681  0.0660  0.4959
 6427TIP3    H240841   2.854   5.453   2.154 -0.9162 -0.2236 -0.0230
 6428TIP3   OH240842   4.552   1.673   1.265  0.5466 -0.5464  0.0931
 6428TIP3    H140843   4.501   1.714   1.195  0.3433  0.0840  0.5992
 6428TIP3    H240844   4.491   1.665   1.338  1.1464  0.1661  0.6887
 6429TIP3   OH240845   2.181   4.801   2.011 -0.0789 -0.2673  0.0198
 6429TIP3    H140846   2.094   4.761   2.002 -0.3429  0.2333  0.2703
 6429TIP3    H240847   2.182   4.870   1.945  0.6893 -1.2034 -0.9884
 6430TIP3   OH240848   2.984   4.490   1.150  0.2146  0.6594  0.3874
 6430TIP3    H140849   2.944   4.509   1.065  0.6068  2.2923  0.5334
 6430TIP3    H240850   2.934   4.416   1.184 -0.4053  0.4271 -0.9450
 6431TIP3   OH240851   3.585   5.215   3.107  0.7434  0.7672  0.5115
 6431TIP3    H140852   3.674   5.203   3.075  0.2816 -0.1903 -0.4817
 6431TIP3    H240853   3.532   5.222   3.027 -0.1431  0.7922  1.0911
 6432TIP3   OH240854   2.429   6.397   7.644  0.2385  0.0359  0.0202
 6432TIP3    H140855   2.419   6.351   7.561  0.9797 -2.2548  1.1252
 6432TIP3    H240856   2.387   6.482   7.629  1.2330  0.1481 -3.0064
 6433TIP3   OH240857   5.740   2.771   7.172 -0.4414  0.0332 -0.2749
 6433TIP3    H140858   5.772   2.851   7.131  1.2409 -0.9692 -0.9914
 6433TIP3    H240859   5.818   2.717   7.186 -1.1945 -0.4927  2.4733
 6434TIP3   OH240860   4.415   6.754   7.686  0.5922  0.2865  0.1034
 6434TIP3    H140861   4.402   6.672   7.734 -0.2520  0.3796  0.0606
 6434TIP3    H240862   4.344   6.811   7.716 -0.9321 -0.1607 -2.3081
 6435TIP3   OH240863   2.031   2.276   8.466  0.5652 -0.3680 -0.8208
 6435TIP3    H140864   2.008   2.357   8.421  4.2217  0.9517 -0.6560
 6435TIP3    H240865   2.011   2.294   8.558 -0.3328 -0.3897 -1.0006
 6436TIP3   OH240866   0.256   4.951   2.520 -0.4350 -0.1293 -0.6266
 6436TIP3    H140867   0.278   5.040   2.492 -0.0754  0.0120  0.0765
 6436TIP3    H240868   0.326   4.927   2.581 -1.1074 -0.4765  0.0203
 6437TIP3   OH240869   5.301   4.919   0.279 -0.1801  0.5930  0.2597
 6437TIP3    H140870   5.293   4.986   0.347 -0.8290 -0.8798  1.7044
 6437TIP3    H240871   5.349   4.848   0.321  1.8833  0.6993 -1.7108
 6438TIP3   OH240872   3.065   5.783   1.471  0.6350  0.0426 -0.3763
 6438TIP3    H140873   3.057   5.866   1.424  1.4390  0.2462 -0.1752
 6438TIP3    H240874   3.047   5.805   1.562  0.2600 -0.1198 -0.4105
 6439TIP3   OH240875   5.838   3.089   2.204  0.3756  0.4061  0.6601
 6439TIP3    H140876   5.917   3.042   2.229  1.4218  0.3386 -2.3034
 6439TIP3    H240877   5.852   3.179   2.234  0.9028  0.0746  1.4373
 6440TIP3   OH240878   1.824   4.118   0.051  0.2952 -0.0869  0.0565
 6440TIP3    H140879   1.765   4.189   0.027  0.3498  0.3482  1.1388
 6440TIP3    H240880   1.768   4.053   0.094  0.5175  0.1412  0.7136
 6441TIP3   OH240881   0.427   1.007   7.619  0.5564  0.5252 -0.2066
 6441TIP3    H140882   0.454   0.970   7.536  1.9085  0.2169  0.3476
 6441TIP3    H240883   0.440   0.937   7.683  1.4203  1.3500  0.5671
 6442TIP3   OH240884   4.622   0.820   0.357 -0.0362  0.1941  0.3970
 6442TIP3    H140885   4.592   0.735   0.390 -0.6222  0.1983 -0.0947
 6442TIP3    H240886   4.592   0.883   0.421 -0.6210  0.1400  0.1857
 6443TIP3   OH240887   4.481   3.317   0.573 -0.1391 -0.0299  0.2867
 6443TIP3    H140888   4.497   3.408   0.548 -0.4097  0.2789  1.1949
 6443TIP3    H240889   4.560   3.291   0.621 -0.9061  0.4440  1.9062
 6444TIP3   OH240890   2.110   3.866   7.963 -0.1566 -0.1150  0.1000
 6444TIP3    H140891   2.124   3.795   8.026  0.0046  0.1411  0.3552
 6444TIP3    H240892   2.197   3.900   7.945 -0.2216 -0.0642 -0.1216
 6445TIP3   OH240893   5.061   4.051   0.034  0.3043 -0.0621  0.4520
 6445TIP3    H140894   5.066   4.103   0.115  0.4834 -1.1293  1.1438
 6445TIP3    H240895   4.970   4.024   0.029 -0.1244  1.4523 -0.6661
 6446TIP3   OH240896   2.595   6.015   0.290  0.1410  0.3156 -0.0793
 6446TIP3    H140897   2.502   6.020   0.314 -0.4294 -1.1864 -1.7291
 6446TIP3    H240898   2.599   6.055   0.203  0.6324 -1.3186 -0.8620
 6447TIP3   OH240899   1.743   1.442   8.216 -0.0105 -0.3679 -0.1009
 6447TIP3    H140900   1.751   1.450   8.121 -0.4926  1.0988 -0.0487
 6447TIP3    H240901   1.828   1.409   8.244  0.9496  1.2674 -0.8696
 6448TIP3   OH240902   3.751   4.076   0.388  0.2180  0.0733  0.3943
 6448TIP3    H140903   3.693   4.001   0.373  1.8345 -1.0732 -0.4068
 6448TIP3    H240904   3.705   4.129   0.453 -0.9162 -1.6782  1.0930
 6449TIP3   OH240905   3.139   2.930   7.515 -0.2120  0.7402  0.1415
 6449TIP3    H140906   3.083   2.869   7.562 -0.4118  0.3827 -0.5489
 6449TIP3    H240907   3.192   2.972   7.583  0.1216 -0.3970  0.6051
 6450TIP3   OH240908   3.218   0.136   7.601 -0.3291 -0.2008 -0.7086
 6450TIP3    H140909   3.307   0.153   7.629  0.2578 -0.1869 -2.4429
 6450TIP3    H240910   3.184   0.074   7.666  0.6236  0.4562  0.4592
 6451TIP3   OH240911   5.045   2.380   6.662 -0.3827  0.0035 -0.4767
 6451TIP3    H140912   5.107   2.449   6.683 -0.7416  0.7040 -1.6408
 6451TIP3    H240913   5.090   2.298   6.685  1.1313  0.4675 -1.7098
 6452TIP3   OH240914   5.207   2.234   7.958  0.5685 -0.4521 -0.1465
 6452TIP3    H140915   5.195   2.142   7.981 -1.7666 -0.2363 -0.2285
 6452TIP3    H240916   5.248   2.232   7.871  1.3422 -1.3880  0.2269
 6453TIP3   OH240917   5.983   4.825   0.775  0.3105  0.2791  0.0463
 6453TIP3    H140918   5.994   4.730   0.783  1.6078  0.4342  0.3498
 6453TIP3    H240919   5.893   4.841   0.803  0.0501 -0.8709 -0.0791
 6454TIP3   OH240920   4.711   6.491   2.301 -0.2399 -0.2925  0.3131
 6454TIP3    H140921   4.737   6.547   2.228 -3.4277  0.0615 -0.6880
 6454TIP3    H240922   4.699   6.551   2.374  0.1312 -0.2363  0.3298
 6455TIP3   OH240923   6.365   3.185   2.634 -0.5129 -0.2893 -0.2660
 6455TIP3    H140924   6.406   3.101   2.655 -1.1664 -0.4443  0.4628
 6455TIP3    H240925   6.303   3.165   2.564 -0.2592 -0.2994 -0.4891
 6456TIP3   OH240926   3.118   4.619   6.911 -0.3508 -0.0204  0.3118
 6456TIP3    H140927   3.068   4.700   6.922  0.2416  0.3148  0.5635
 6456TIP3    H240928   3.192   4.644   6.856 -1.4484 -0.9264 -1.6994
 6457TIP3   OH240929   1.055   5.083   1.290  0.4460  0.6134 -0.2556
 6457TIP3    H140930   1.137   5.076   1.338  0.8726  0.6100 -0.9725
 6457TIP3    H240931   1.009   5.001   1.310  0.5494  0.6786  0.2642
 6458TIP3   OH240932   2.379   4.689   0.126 -0.6492 -0.4221  0.0839
 6458TIP3    H140933   2.435   4.717   0.198 -2.1887 -1.8232  1.9558
 6458TIP3    H240934   2.413   4.735   0.050  0.8104  1.4643  1.7536
 6459TIP3   OH240935   2.948   6.780   0.360  0.1112  0.0512 -0.6275
 6459TIP3    H140936   2.934   6.801   0.453  0.1455 -1.1848 -0.3226
 6459TIP3    H240937   3.017   6.713   0.361  1.1933  1.1189 -1.6556
 6460TIP3   OH240938   1.513   6.520   0.141  0.0582  0.2181  0.1070
 6460TIP3    H140939   1.428   6.481   0.162  0.4743 -0.3619  0.7272
 6460TIP3    H240940   1.495   6.614   0.136 -0.4277  0.1971  1.2169
 6461TIP3   OH240941   4.241   4.693   2.330 -0.6082  0.5166 -0.2266
 6461TIP3    H140942   4.273   4.610   2.366  0.6881 -0.0434 -2.4897
 6461TIP3    H240943   4.170   4.668   2.271 -0.8297  1.1314 -0.2314
 6462TIP3   OH240944   5.138   5.490   8.560 -0.2664  0.0917 -0.1651
 6462TIP3    H140945   5.189   5.416   8.593 -1.0464 -0.2332  0.3168
 6462TIP3    H240946   5.056   5.452   8.530 -0.3471  0.6544 -0.6894
 6463TIP3   OH240947   2.899   0.674   8.286 -0.3494  0.2414  0.0996
 6463TIP3    H140948   2.984   0.634   8.304 -0.2904 -0.2971 -1.2775
 6463TIP3    H240949   2.851   0.666   8.369  0.7921  0.2246  0.7851
 6464TIP3   OH240950   0.613   4.432   1.490  0.2707  0.2726  0.3243
 6464TIP3    H140951   0.565   4.505   1.452 -0.2553  0.5210  1.4232
 6464TIP3    H240952   0.672   4.473   1.554 -0.4827 -0.3032  1.4067
 6465TIP3   OH240953   4.976   0.217   0.974 -0.5572 -0.1925 -0.2625
 6465TIP3    H140954   4.908   0.182   1.031  0.9001 -0.8721  1.1274
 6465TIP3    H240955   5.055   0.171   0.999  0.5069  0.7779 -1.6370
 6466TIP3   OH240956   4.065   2.135   6.922 -0.6125 -0.3962 -0.7175
 6466TIP3    H140957   4.149   2.132   6.876 -0.0876  2.5656 -0.2001
 6466TIP3    H240958   4.003   2.098   6.860  0.7863 -0.9061 -1.8973
 6467TIP3   OH240959   0.967   6.399   2.843 -0.2887  0.2114 -0.1158
 6467TIP3    H140960   1.007   6.486   2.850  1.5575 -0.4987 -1.0656
 6467TIP3    H240961   1.024   6.342   2.895  0.2529 -0.9237 -1.8615
 6468TIP3   OH240962   3.529   2.754   7.463  0.0357 -0.0552 -0.0371
 6468TIP3    H140963   3.519   2.832   7.517 -0.0286 -0.0363 -0.0760
 6468TIP3    H240964   3.545   2.788   7.375  0.4065 -0.0837  0.0175
 6469TIP3   OH240965   4.868   4.163   6.454  0.6310  0.6546  0.0214
 6469TIP3    H140966   4.834   4.078   6.482 -2.6497  1.9510  0.4422
 6469TIP3    H240967   4.930   4.143   6.384 -0.1997 -2.0607 -0.0194
 6470TIP3   OH240968   5.998   2.066   7.410 -0.3968  0.2225 -0.1928
 6470TIP3    H140969   6.027   2.148   7.369  0.1097 -0.0247 -0.3443
 6470TIP3    H240970   6.036   2.069   7.498 -0.6361  0.2898 -0.0912
 6471TIP3   OH240971   0.032   1.975   1.930  0.4841 -0.2202  0.1845
 6471TIP3    H140972   0.087   1.918   1.985  1.4323 -0.3044 -0.8141
 6471TIP3    H240973  -0.043   1.921   1.907  1.7624 -1.4211 -1.4296
 6472TIP3   OH240974   5.184   1.811   7.934 -0.0446  0.5214 -0.6649
 6472TIP3    H140975   5.095   1.836   7.909  0.6072  1.6757 -1.9093
 6472TIP3    H240976   5.222   1.774   7.854  1.3339  2.1766 -0.8266
 6473TIP3   OH240977   6.862   5.542   1.343  0.1977  0.2472  0.0790
 6473TIP3    H140978   6.926   5.474   1.320  1.3538  1.1057  0.6518
 6473TIP3    H240979   6.837   5.522   1.433 -0.9666 -0.5441 -0.4006
 6474TIP3   OH240980   1.738   5.328   2.153  0.1580 -0.3640 -0.2349
 6474TIP3    H140981   1.743   5.411   2.200 -2.2457  1.5426 -2.9549
 6474TIP3    H240982   1.767   5.349   2.064 -1.2633 -2.1969 -1.2008
 6475TIP3   OH240983   3.744   5.047   7.302 -0.4428  0.0260  0.3375
 6475TIP3    H140984   3.694   5.071   7.224 -1.5367 -3.6168 -0.2714
 6475TIP3    H240985   3.835   5.063   7.277 -0.6627 -1.9850 -2.2341
 6476TIP3   OH240986   5.144   4.268   2.057 -0.3936 -0.1344 -0.0553
 6476TIP3    H140987   5.113   4.324   2.128 -2.4596 -0.2644 -0.7632
 6476TIP3    H240988   5.082   4.195   2.055  0.9507 -1.3194 -0.5569
 6477TIP3   OH240989   1.481   3.388   1.554  0.2634 -0.1594  0.3406
 6477TIP3    H140990   1.405   3.430   1.594  0.4051  1.5052 -1.0455
 6477TIP3    H240991   1.454   3.297   1.539 -1.8145  0.6176 -0.9761
 6478TIP3   OH240992   1.418   1.539   7.589  0.4362 -0.7859  0.7126
 6478TIP3    H140993   1.348   1.587   7.633  0.5364 -0.1636  0.2183
 6478TIP3    H240994   1.404   1.557   7.496  1.7288  0.0122  0.6599
 6479TIP3   OH240995   6.184   4.516   7.597 -0.6016  0.4569 -0.4208
 6479TIP3    H140996   6.204   4.589   7.539 -1.1179 -0.2573 -1.5342
 6479TIP3    H240997   6.210   4.438   7.547  1.0042 -0.1060  1.1752
 6480TIP3   OH240998   4.088   3.715   8.488 -0.3936  0.0171 -0.2199
 6480TIP3    H140999   4.123   3.770   8.559 -2.0710  0.3879  0.3619
 6480TIP3    H241000   4.113   3.626   8.513  1.0790  0.3388 -0.4179
 6481TIP3   OH241001   0.018   6.599   6.930 -0.6205 -0.0971  0.1028
 6481TIP3    H141002   0.044   6.661   6.862  0.5522 -0.2924  0.3525
 6481TIP3    H241003   0.003   6.653   7.008 -0.7814 -0.0074  0.0114
 6482TIP3   OH241004   5.400   1.196   7.234  0.2794 -0.1301  0.4399
 6482TIP3    H141005   5.481   1.221   7.191 -0.1758  1.2517  0.3636
 6482TIP3    H241006   5.429   1.142   7.308  1.2412  0.0382  0.2026
 6483TIP3   OH241007   0.323   1.017   2.831  0.6198 -0.1455  0.8359
 6483TIP3    H141008   0.358   0.934   2.863  0.1887 -1.6588 -2.2769
 6483TIP3    H241009   0.401   1.066   2.803  0.7426 -0.4637  0.6127
 6484TIP3   OH241010   2.348   0.522   8.072  0.1842 -0.0292  0.3008
 6484TIP3    H141011   2.294   0.562   8.141 -1.3501  0.2347 -0.9905
 6484TIP3    H241012   2.435   0.557   8.087 -0.4216  1.1574  1.2616
 6485TIP3   OH241013   6.734   4.827   3.189 -0.0173  0.0510 -0.0787
 6485TIP3    H141014   6.765   4.861   3.272 -0.3964 -1.5881  0.7790
 6485TIP3    H241015   6.644   4.799   3.206 -0.8333  1.5629 -1.6019
 6486TIP3   OH241016   6.449   5.125   1.997 -0.2136  0.5578 -0.5068
 6486TIP3    H141017   6.356   5.129   1.974 -0.0021 -2.0716 -2.3424
 6486TIP3    H241018   6.481   5.214   1.982 -2.4514  1.6212  0.5161
 6487TIP3   OH241019   3.855   5.809   2.506 -0.1172  0.0780 -0.0843
 6487TIP3    H141020   3.844   5.738   2.443  0.3697 -0.4941  0.4576
 6487TIP3    H241021   3.790   5.791   2.574  0.3358 -0.1433  0.3010
 6488TIP3   OH241022   1.870   0.553   2.151  0.0919 -0.5374 -0.0945
 6488TIP3    H141023   1.809   0.597   2.210  0.3690  0.7315 -0.7175
 6488TIP3    H241024   1.919   0.625   2.109  0.7238 -1.4532 -0.9710
 6489TIP3   OH241025   2.617   4.342   1.824  0.1798 -0.0214 -0.0908
 6489TIP3    H141026   2.614   4.256   1.782  0.3468  0.1985 -0.5635
 6489TIP3    H241027   2.561   4.333   1.901 -1.5229  0.0383 -1.2471
 6490TIP3   OH241028   1.131   3.940   0.075 -0.0186 -0.3339 -0.1198
 6490TIP3    H141029   1.066   3.964   0.009 -0.8868 -1.0318  0.4573
 6490TIP3    H241030   1.155   4.022   0.118 -1.2613 -0.1940  0.3283
 6491TIP3   OH241031   6.858   4.641   8.084 -0.7061  0.1137  0.3722
 6491TIP3    H141032   6.849   4.623   8.178 -1.7835  0.6913  0.3887
 6491TIP3    H241033   6.852   4.736   8.077 -0.3841  0.0958 -0.2697
 6492TIP3   OH241034   6.700   5.683   0.953  0.0570 -0.7924  0.0915
 6492TIP3    H141035   6.641   5.752   0.920  2.7624  0.7017 -2.0892
 6492TIP3    H241036   6.683   5.680   1.047 -1.5535  1.5024 -0.0362
 6493TIP3   OH241037   5.869   1.590   6.436  0.3980 -0.5270  0.0309
 6493TIP3    H141038   5.881   1.680   6.407  2.3939 -0.2858  1.4481
 6493TIP3    H241039   5.859   1.596   6.531  1.8628 -1.8689  0.3160
 6494TIP3   OH241040   0.987   2.150   0.152  0.0046 -0.0583  0.2237
 6494TIP3    H141041   0.948   2.138   0.065  2.1029 -0.2297 -0.7511
 6494TIP3    H241042   0.975   2.066   0.195 -1.3275  0.1199  0.2585
 6495TIP3   OH241043   3.714   4.750   6.967  0.0704  0.2774 -0.3102
 6495TIP3    H141044   3.809   4.760   6.981  0.2821  1.1142 -2.0809
 6495TIP3    H241045   3.692   4.670   7.015  1.9211 -0.6440 -0.8632
 6496TIP3   OH241046   5.744   4.612   1.023 -0.3292 -0.1738  0.0403
 6496TIP3    H141047   5.833   4.579   1.034  0.1069  0.5995 -0.9318
 6496TIP3    H241048   5.695   4.576   1.097  0.4188 -1.8496 -0.2333
 6497TIP3   OH241049   4.691   0.076   7.634  0.5027  0.1031 -0.1085
 6497TIP3    H141050   4.613   0.072   7.578  0.1590  0.9249  0.3074
 6497TIP3    H241051   4.703   0.169   7.653  0.8988 -0.1212  0.7964
 6498TIP3   OH241052   2.637   0.567   8.191 -0.2805  0.4705  0.1548
 6498TIP3    H141053   2.683   0.523   8.121  0.3314 -1.1920  1.5360
 6498TIP3    H241054   2.682   0.652   8.200 -0.3524  0.6948 -1.3832
 6499TIP3   OH241055   1.196   6.778   0.155  0.0748 -0.3783 -0.5196
 6499TIP3    H141056   1.261   6.831   0.203  2.3067 -1.9184 -1.6526
 6499TIP3    H241057   1.159   6.721   0.222  0.8292 -0.3294 -0.0405
 6500TIP3   OH241058   1.011   3.545   7.578  0.4018 -0.1366 -0.3092
 6500TIP3    H141059   1.101   3.537   7.545  0.5688 -1.7717  0.4532
 6500TIP3    H241060   0.978   3.455   7.580 -1.0719  0.3803 -0.0506
 6501TIP3   OH241061   0.266   5.252   7.500  0.3753 -0.0316  0.1561
 6501TIP3    H141062   0.211   5.330   7.496  1.1581  0.5432  0.1766
 6501TIP3    H241063   0.259   5.221   7.590 -1.8535 -1.4414 -0.4404
 6502TIP3   OH241064   3.055   4.656   8.283 -0.6588 -0.2889 -0.4934
 6502TIP3    H141065   3.141   4.696   8.274 -0.3762 -1.2276 -2.8219
 6502TIP3    H241066   2.999   4.705   8.223 -1.4631 -0.4377  0.1208
 6503TIP3   OH241067   5.166   0.501   7.586 -0.1363  0.2295  0.0013
 6503TIP3    H141068   5.245   0.482   7.638  0.8183 -1.6309 -1.9723
 6503TIP3    H241069   5.199   0.537   7.504 -1.4427  0.5857 -0.3948
 6504TIP3   OH241070   1.163   5.729   7.972 -0.1732 -0.2014  0.1261
 6504TIP3    H141071   1.211   5.745   8.054 -1.2283  0.7054  0.5813
 6504TIP3    H241072   1.159   5.633   7.966  0.8921 -0.2945  0.5333
 6505TIP3   OH241073   1.252   4.531   7.656 -0.2489  0.1360  0.3919
 6505TIP3    H141074   1.318   4.494   7.597 -0.6382  1.9635 -1.3038
 6505TIP3    H241075   1.297   4.539   7.740  1.0407 -0.5108 -0.1983
 6506TIP3   OH241076   1.692   2.728   8.322  0.2649  0.5517  0.0864
 6506TIP3    H141077   1.738   2.783   8.386 -1.4551  0.6339  1.3276
 6506TIP3    H241078   1.619   2.691   8.371 -1.7869  1.4603 -2.1022
 6507TIP3   OH241079   5.889   6.196   1.234  0.1871 -0.2434  0.7583
 6507TIP3    H141080   5.924   6.216   1.321 -0.1090 -0.1649  0.8627
 6507TIP3    H241081   5.880   6.100   1.234 -0.9536 -0.1610  1.2753
 6508TIP3   OH241082   2.793   6.796   2.236 -0.0757  0.1325  0.1787
 6508TIP3    H141083   2.699   6.801   2.253 -0.7460  0.0542 -3.0156
 6508TIP3    H241084   2.811   6.869   2.177  1.3756 -1.2510 -1.1867
 6509TIP3   OH241085   6.280   3.861   0.775 -0.3423 -0.1566 -0.2048
 6509TIP3    H141086   6.255   3.878   0.866 -0.6478  0.5213 -0.4090
 6509TIP3    H241087   6.207   3.895   0.723 -0.0844 -0.3660 -0.7122
 6510TIP3   OH241088   4.515   4.169   7.961 -0.0752 -0.2576  0.0616
 6510TIP3    H141089   4.563   4.224   8.023 -1.0593  0.2929  0.3526
 6510TIP3    H241090   4.553   4.082   7.973  1.4574  0.3137 -0.3564
 6511TIP3   OH241091   1.682   6.009   8.419 -0.3106  0.0417 -0.1525
 6511TIP3    H141092   1.775   6.029   8.411 -0.5643  1.1722 -0.4150
 6511TIP3    H241093   1.645   6.082   8.469 -1.1713 -0.0637 -0.6110
 6512TIP3   OH241094   6.050   3.964   8.445  0.0603  0.2714  0.2106
 6512TIP3    H141095   5.998   3.892   8.411 -1.1594  0.9853  0.5313
 6512TIP3    H241096   6.016   4.042   8.402  0.5675  0.8119  0.7565
 6513TIP3   OH241097   0.747   4.492   0.589  0.1308  0.0589  0.0638
 6513TIP3    H141098   0.670   4.464   0.639  1.0965  0.4717  1.8470
 6513TIP3    H241099   0.736   4.586   0.579  1.2129  0.4283  1.8851
 6514TIP3   OH241100   1.303   1.347   7.884  0.4796 -1.1553  0.2698
 6514TIP3    H141101   1.258   1.412   7.831  1.1641  0.4411  1.5758
 6514TIP3    H241102   1.265   1.263   7.857 -0.9628 -0.1587 -0.9111
 6515TIP3   OH241103   3.271   5.980   7.486  0.6787 -0.5357  0.1766
 6515TIP3    H141104   3.218   6.030   7.423  0.7215 -0.4499  0.2073
 6515TIP3    H241105   3.207   5.942   7.546  0.5502 -1.6445 -0.6396
 6516TIP3   OH241106   1.343   6.706   2.523 -0.6913 -1.0147 -0.1667
 6516TIP3    H141107   1.291   6.717   2.602 -0.9695  1.5766 -0.6338
 6516TIP3    H241108   1.429   6.743   2.545 -0.4801 -1.1071 -0.7931
 6517TIP3   OH241109   2.885   3.190   1.764  0.7014  0.6618  0.3873
 6517TIP3    H141110   2.943   3.259   1.797  0.4263  0.5769  1.0680
 6517TIP3    H241111   2.797   3.222   1.783  0.3134  2.0315 -2.9772
 6518TIP3   OH241112   5.509   5.159   8.248  0.1989  0.5244 -0.1111
 6518TIP3    H141113   5.539   5.241   8.286 -0.9356  1.0951 -0.3997
 6518TIP3    H241114   5.568   5.143   8.174  0.0251  1.4178 -0.4495
 6519TIP3   OH241115   5.831   5.050   0.179  0.0478 -0.5517  0.3817
 6519TIP3    H141116   5.869   5.119   0.233 -0.0211  0.8982 -1.3303
 6519TIP3    H241117   5.795   5.096   0.103 -1.4723 -2.3253 -0.0290
 6520TIP3   OH241118   3.623   0.704   8.422 -0.5313  0.1700  0.4125
 6520TIP3    H141119   3.683   0.687   8.349 -1.7344 -0.9685 -0.3646
 6520TIP3    H241120   3.597   0.796   8.411  1.8373  1.0613  1.4178
 6521TIP3   OH241121   0.422   5.452   0.004 -0.1315 -0.2299  0.1174
 6521TIP3    H141122   0.410   5.496  -0.079  0.1110  1.1786  0.8008
 6521TIP3    H241123   0.513   5.470   0.028 -0.1055 -0.8857  0.5460
 6522TIP3   OH241124   0.047   0.393   7.804 -0.4596 -0.3727  0.3332
 6522TIP3    H141125   0.085   0.410   7.718 -0.4827 -0.3892  0.3198
 6522TIP3    H241126   0.064   0.473   7.854  2.5012 -1.5268  1.3741
 6523TIP3   OH241127   5.317   0.470   0.040  0.0642 -0.0530 -0.5829
 6523TIP3    H141128   5.231   0.512   0.046  0.0238 -0.0661 -1.0006
 6523TIP3    H241129   5.336   0.441   0.129 -0.5726 -0.4633 -0.5709
 6524TIP3   OH241130   6.388   6.061   7.881 -0.3402 -0.4510 -0.3028
 6524TIP3    H141131   6.455   6.047   7.948  0.2391 -1.1297 -1.0012
 6524TIP3    H241132   6.438   6.086   7.803 -1.0507  1.1726 -0.2873
 6525TIP3   OH241133   0.312   0.139   1.405 -0.3426  0.3774 -0.2929
 6525TIP3    H141134   0.286   0.051   1.377 -0.4853 -0.2920  1.8000
 6525TIP3    H241135   0.246   0.197   1.366 -0.8633 -0.5524 -0.8220
 6526TIP3   OH241136   3.683   6.371   1.468 -0.2039  0.4651  0.0001
 6526TIP3    H141137   3.647   6.302   1.413 -0.6975  0.4414  0.3425
 6526TIP3    H241138   3.702   6.443   1.408 -2.5835  1.1977  0.0079
 6527TIP3   OH241139   0.351   4.619   1.486  0.4732  0.2239  0.1680
 6527TIP3    H141140   0.348   4.532   1.446 -0.2877 -1.0336  2.7492
 6527TIP3    H241141   0.262   4.653   1.477  0.5092  0.2946  0.0774
 6528TIP3   OH241142   0.595   4.217   7.964 -0.9742 -0.4431  0.0217
 6528TIP3    H141143   0.674   4.179   7.925 -1.0721 -0.7719  0.1343
 6528TIP3    H241144   0.627   4.287   8.020 -0.9255  1.0776 -1.8079
 6529TIP3   OH241145   4.016   4.303   6.887 -0.0882 -0.2234  0.0948
 6529TIP3    H141146   4.085   4.255   6.933 -0.7494 -1.0426  0.2378
 6529TIP3    H241147   4.006   4.257   6.804 -1.5238 -1.0619  0.7000
 6530TIP3   OH241148   5.857   3.590   7.451  1.2704  0.0950  0.0479
 6530TIP3    H141149   5.930   3.576   7.391  0.8500  1.5025 -0.8551
 6530TIP3    H241150   5.891   3.650   7.517  1.6259 -1.1738  1.0499
 6531TIP3   OH241151   2.840   0.505   1.889 -0.8024 -0.0473 -0.3016
 6531TIP3    H141152   2.888   0.544   1.815  2.4972 -1.0195  1.1260
 6531TIP3    H241153   2.835   0.575   1.954  2.2366 -0.8538  0.9905
 6532TIP3   OH241154   5.546   2.709   2.307  0.5321  0.2014 -0.6200
 6532TIP3    H141155   5.537   2.688   2.214 -2.1523  0.9681 -0.6271
 6532TIP3    H241156   5.462   2.685   2.345  0.3979  2.7485  0.9659
 6533TIP3   OH241157   5.159   0.481   7.211 -0.3959  0.2041 -0.0713
 6533TIP3    H141158   5.173   0.389   7.190  4.5232  0.4428  0.9478
 6533TIP3    H241159   5.067   0.487   7.235 -1.5342 -3.8543 -2.5734
 6534TIP3   OH241160   1.664   4.969   1.827  0.1571 -0.1463 -0.1035
 6534TIP3    H141161   1.618   4.901   1.877 -0.3026  0.7444  0.7232
 6534TIP3    H241162   1.672   5.042   1.888 -0.7431  1.1222 -1.4214
 6535TIP3   OH241163   2.759   4.605   0.655  0.5639 -0.1754 -0.5941
 6535TIP3    H141164   2.717   4.557   0.584 -1.0100 -0.1453  0.2589
 6535TIP3    H241165   2.760   4.696   0.626  0.5751 -0.2617 -0.8660
 6536TIP3   OH241166   0.158   0.484   1.496  0.1344  0.2901  0.1017
 6536TIP3    H141167   0.162   0.460   1.403 -0.5683  0.4360  0.0252
 6536TIP3    H241168   0.245   0.466   1.529 -0.0870 -1.4415 -0.1707
 6537TIP3   OH241169   5.460   5.582   7.888  0.6230 -0.5666 -0.4039
 6537TIP3    H141170   5.436   5.675   7.899  1.3111 -0.5127  0.8458
 6537TIP3    H241171   5.382   5.534   7.917  1.0156 -0.3693  1.1042
 6538TIP3   OH241172   6.450   6.631   7.560 -0.1311 -0.0843 -0.4373
 6538TIP3    H141173   6.442   6.698   7.628 -0.4143 -0.2318 -0.3259
 6538TIP3    H241174   6.533   6.588   7.579 -0.4200 -0.4212  0.0831
 6539TIP3   OH241175   4.301   1.094   0.893  0.5933 -0.3234  0.2077
 6539TIP3    H141176   4.245   1.035   0.944 -1.5639  1.3654 -0.0452
 6539TIP3    H241177   4.324   1.043   0.815 -0.5937 -1.1057  0.3346
 6540TIP3   OH241178   4.903   3.218   0.913 -0.1542  0.3279 -0.2302
 6540TIP3    H141179   4.966   3.245   0.846  0.7336  0.5149  0.6527
 6540TIP3    H241180   4.949   3.150   0.962 -0.6634  0.4248  0.3878
 6541TIP3   OH241181   2.903   0.918   1.576  0.2202 -0.4598 -0.0691
 6541TIP3    H141182   2.855   0.921   1.493 -0.5370 -1.6615  0.2866
 6541TIP3    H241183   2.919   0.825   1.591 -1.4218 -0.4859  2.0687
 6542TIP3   OH241184   5.549   2.490   8.508 -0.4195 -0.6497 -0.1135
 6542TIP3    H141185   5.596   2.572   8.524  1.8815 -2.1582  1.4294
 6542TIP3    H241186   5.546   2.483   8.412 -1.9040  1.8301 -0.3184
 6543TIP3   OH241187   1.894   6.680   1.844 -0.0412  0.4862 -0.0632
 6543TIP3    H141188   1.903   6.775   1.851 -0.8344  0.6528 -1.0902
 6543TIP3    H241189   1.867   6.652   1.932  0.7952  1.1207  0.4113
 6544TIP3   OH241190   2.323   4.086   2.359  0.6779 -0.0133  0.5804
 6544TIP3    H141191   2.320   4.076   2.454  1.1179  2.5457  0.9323
 6544TIP3    H241192   2.304   4.179   2.344 -0.4422 -0.5588 -1.9111
 6545TIP3   OH241193   3.317   1.493   7.099 -0.1076 -0.2344 -0.0947
 6545TIP3    H141194   3.316   1.541   7.016  1.0708 -1.4631 -0.8591
 6545TIP3    H241195   3.340   1.404   7.075  1.4493 -0.3695  1.6665
 6546TIP3   OH241196   0.390   5.936   1.739 -0.0360  0.1311  0.3465
 6546TIP3    H141197   0.405   5.987   1.819  2.2323  0.1256 -0.0086
 6546TIP3    H241198   0.340   5.859   1.768 -0.2578  0.7071  1.5308
 6547TIP3   OH241199   5.135   6.585   8.385 -0.2768 -0.8069  0.3842
 6547TIP3    H141200   5.224   6.622   8.387 -0.1655 -1.0881  0.7541
 6547TIP3    H241201   5.095   6.623   8.307  0.2359 -0.8307  0.1050
 6548TIP3   OH241202   1.637   3.172   7.848 -0.0982  0.3741 -0.5516
 6548TIP3    H141203   1.599   3.189   7.762  0.4666  0.0140 -0.8817
 6548TIP3    H241204   1.643   3.257   7.890  0.2879  0.6513 -1.1565
 6549TIP3   OH241205   2.794   3.416   2.175  0.3422 -0.1612  0.6174
 6549TIP3    H141206   2.846   3.337   2.192  0.0471 -0.3204  0.7889
 6549TIP3    H241207   2.778   3.452   2.262 -0.7406 -0.6982  0.6530
 6550TIP3   OH241208   1.298   1.056   2.575  0.0957  0.0497 -0.3057
 6550TIP3    H141209   1.203   1.052   2.583  0.0681 -0.5557 -0.8530
 6550TIP3    H241210   1.329   1.076   2.663 -0.5020 -0.5386  0.0465
 6551TIP3   OH241211   2.449   2.171   8.532 -0.1641 -0.0072  0.2372
 6551TIP3    H141212   2.499   2.096   8.564 -0.5376  0.2101  1.3452
 6551TIP3    H241213   2.372   2.175   8.588 -0.6283  0.6347 -0.4285
 6552TIP3   OH241214   2.431   0.852   1.509 -0.7316  0.1961  0.9689
 6552TIP3    H141215   2.441   0.815   1.421  0.9819  2.4862  0.0723
 6552TIP3    H241216   2.352   0.906   1.503 -1.4202 -0.7502  1.3044
 6553TIP3   OH241217   0.685   4.427   1.012  0.0248 -0.1460 -0.4655
 6553TIP3    H141218   0.735   4.346   1.021 -0.9570 -0.7685 -0.4709
 6553TIP3    H241219   0.650   4.424   0.923 -1.4094 -0.5669  0.0804
 6554TIP3   OH241220   6.026   0.120   8.357  0.4852  0.2166 -0.1279
 6554TIP3    H141221   6.019   0.170   8.275 -1.9829 -0.5220 -0.4432
 6554TIP3    H241222   6.045   0.031   8.329 -0.6888 -0.1045  0.0318
 6555TIP3   OH241223   6.782   6.487   3.253 -1.0021 -0.2015 -0.3514
 6555TIP3    H141224   6.821   6.407   3.218 -1.6273 -0.5415 -0.2867
 6555TIP3    H241225   6.856   6.537   3.288 -0.6908 -1.0759  0.2584
 6556TIP3   OH241226   1.803   5.860   2.016  0.6226  0.2714  0.0547
 6556TIP3    H141227   1.871   5.800   2.045 -0.6554 -0.0747  2.6526
 6556TIP3    H241228   1.835   5.947   2.041  0.8899  0.2944 -0.3694
 6557TIP3   OH241229   6.584   2.573   7.917  0.3164 -0.3253 -0.0877
 6557TIP3    H141230   6.582   2.634   7.991  1.3559 -0.3375 -0.0429
 6557TIP3    H241231   6.507   2.517   7.931  0.4880 -0.3193  0.9819
 6558TIP3   OH241232   4.394   0.710   0.203 -0.4630 -0.7243 -0.2355
 6558TIP3    H141233   4.456   0.782   0.199 -2.3676  0.9742 -2.0323
 6558TIP3    H241234   4.309   0.751   0.183 -2.0970 -2.9981  1.4695
 6559TIP3   OH241235   3.200   2.320   0.791  0.1490  0.3692 -0.0273
 6559TIP3    H141236   3.260   2.249   0.768  0.1197 -0.1594  1.4089
 6559TIP3    H241237   3.125   2.309   0.732  1.6955  1.4716 -2.3435
 6560TIP3   OH241238   3.362   3.024   2.150 -0.2427 -0.2343  0.0779
 6560TIP3    H141239   3.434   2.964   2.166  0.1342  0.3463  0.5822
 6560TIP3    H241240   3.363   3.038   2.055 -0.0321 -0.6383  0.0188
 6561TIP3   OH241241   2.181   6.390   2.703 -0.4660 -0.8387 -0.1923
 6561TIP3    H141242   2.184   6.426   2.792  0.7698 -1.7155  0.1385
 6561TIP3    H241243   2.088   6.390   2.681 -0.6888  0.5346  0.6114
 6562TIP3   OH241244   4.708   1.792   7.887 -0.0040  0.0412  0.0924
 6562TIP3    H141245   4.652   1.770   7.962 -2.3436  0.9595 -1.2897
 6562TIP3    H241246   4.734   1.707   7.851  0.0600 -0.4071  1.1564
 6563TIP3   OH241247   6.751   2.751   0.408  0.5163  0.3722 -0.1909
 6563TIP3    H141248   6.845   2.741   0.422  0.5517  1.0072  0.0962
 6563TIP3    H241249   6.737   2.846   0.408 -0.1505  0.2807 -0.0383
 6564TIP3   OH241250   1.800   1.012   1.171  0.1722  0.0808  0.1409
 6564TIP3    H141251   1.743   1.085   1.191 -0.3067 -0.6607  1.6629
 6564TIP3    H241252   1.747   0.934   1.188  0.6261 -0.6475 -1.5580
 6565TIP3   OH241253   0.576   1.639   2.021 -0.0826  0.2031 -0.2635
 6565TIP3    H141254   0.484   1.657   1.998 -0.0329  0.3745 -0.3233
 6565TIP3    H241255   0.577   1.636   2.116 -0.0281  0.8253 -0.2449
 6566TIP3   OH241256   2.326   5.520   0.672  0.1617 -0.2491  0.0098
 6566TIP3    H141257   2.401   5.467   0.697 -0.4710 -0.6457  1.1176
 6566TIP3    H241258   2.363   5.605   0.648  1.1931 -1.1381 -1.7672
 6567TIP3   OH241259   0.728   3.375   2.009 -0.1807 -0.0049 -0.3331
 6567TIP3    H141260   0.717   3.349   2.100  0.2248  0.5845 -0.1038
 6567TIP3    H241261   0.774   3.459   2.014  0.2948 -0.2070 -1.0938
 6568TIP3   OH241262   5.197   4.245   8.098  0.5401  0.5078 -0.1222
 6568TIP3    H141263   5.228   4.155   8.088 -2.3409 -0.4095 -1.9593
 6568TIP3    H241264   5.208   4.263   8.191  1.9802 -1.4039  0.1509
 6569TIP3   OH241265   1.250   1.284   2.087  0.4783  0.3522 -0.1457
 6569TIP3    H141266   1.205   1.299   2.170  0.9636  1.2092 -0.0142
 6569TIP3    H241267   1.310   1.212   2.105 -0.8542 -0.8266 -0.3385
 6570TIP3   OH241268   1.568   1.483   3.064  0.0736 -1.1732  0.2692
 6570TIP3    H141269   1.658   1.499   3.093  0.3974 -1.0232 -0.7949
 6570TIP3    H241270   1.533   1.422   3.129  1.2235 -1.9324  0.2022
 6571TIP3   OH241271   0.954   4.861   2.977 -0.4458  0.5109 -0.0652
 6571TIP3    H141272   1.019   4.810   2.928 -0.2198 -0.1886  0.9186
 6571TIP3    H241273   0.988   4.950   2.978  0.1429  0.2890 -0.1501
 6572TIP3   OH241274   0.202   2.820   0.671  0.5887  0.0311  0.0534
 6572TIP3    H141275   0.263   2.880   0.628  0.1599  0.0221 -0.5868
 6572TIP3    H241276   0.120   2.870   0.677  0.0417 -0.6909 -1.0603
 6573TIP3   OH241277   4.009   2.136   0.287  0.1522 -0.0996  0.5634
 6573TIP3    H141278   4.077   2.191   0.326 -0.6092  1.8678 -0.7392
 6573TIP3    H241279   4.056   2.074   0.231  1.0099 -0.6679  1.8789
 6574TIP3   OH241280   3.672   1.165   1.341  0.6787  0.5199  0.1438
 6574TIP3    H141281   3.734   1.118   1.285  1.5278  0.0393  1.4500
 6574TIP3    H241282   3.590   1.116   1.333  1.3710 -0.8263  0.9673
 6575TIP3   OH241283   3.691   1.984   1.557  0.7238  0.3167 -0.3767
 6575TIP3    H141284   3.671   2.076   1.571  1.8246  0.2681  1.8881
 6575TIP3    H241285   3.736   1.956   1.636 -2.2553 -2.9896  0.4323
 6576TIP3   OH241286   6.825   4.597   8.350 -0.1925 -0.5429 -0.2092
 6576TIP3    H141287   6.822   4.501   8.343 -1.5220 -0.8262  2.7266
 6576TIP3    H241288   6.758   4.618   8.415  1.3291  2.2557  0.5894
 6577TIP3   OH241289   4.863   1.914   0.867 -0.2582  0.2033  0.4588
 6577TIP3    H141290   4.825   1.989   0.914 -0.6316  0.4118 -0.1754
 6577TIP3    H241291   4.899   1.952   0.787 -1.2676 -0.4352 -0.3048
 6578TIP3   OH241292   1.996   3.818   0.959  0.0258 -0.6602 -0.3529
 6578TIP3    H141293   1.992   3.891   0.898  0.6119  0.1727  0.5656
 6578TIP3    H241294   2.074   3.836   1.013 -0.4988 -1.3241  0.6684
 6579TIP3   OH241295   1.731   4.149   2.162  0.4080  0.6840  0.6832
 6579TIP3    H141296   1.759   4.067   2.203 -0.6952  0.2973  0.7009
 6579TIP3    H241297   1.795   4.164   2.093  1.5118  0.6270  1.6633
 6580TIP3   OH241298   1.337   6.660   0.403  0.0360 -0.3180  0.1536
 6580TIP3    H141299   1.266   6.657   0.467  0.0483  1.4851  0.3262
 6580TIP3    H241300   1.411   6.699   0.451  0.3011  0.2895 -0.7149
 6581TIP3   OH241301   2.681   6.148   2.238  0.4081  0.2685 -0.1504
 6581TIP3    H141302   2.742   6.087   2.280  0.3041  0.5793  0.4494
 6581TIP3    H241303   2.605   6.149   2.295 -0.0900  0.0374 -0.7936
 6582TIP3   OH241304   2.578   2.698   2.284  0.7494 -0.1135  0.0235
 6582TIP3    H141305   2.626   2.755   2.344  0.5239  0.3291 -0.2115
 6582TIP3    H241306   2.557   2.620   2.337  1.9913 -0.4660  0.0428
 6583TIP3   OH241307   6.025   2.633   8.555 -0.2928 -0.8962  0.7905
 6583TIP3    H141308   6.055   2.679   8.633  1.7075 -0.2537 -0.2854
 6583TIP3    H241309   5.975   2.558   8.588  0.8836 -0.8954  2.7000
 6584TIP3   OH241310   1.404   3.453   2.385  0.2500 -0.3607 -0.1252
 6584TIP3    H141311   1.373   3.427   2.298 -1.3979 -2.1513  0.9101
 6584TIP3    H241312   1.327   3.492   2.427  0.0777 -2.2337  1.4967
 6585TIP3   OH241313   5.372   3.244   1.710 -0.0351 -0.4789  0.4200
 6585TIP3    H141314   5.450   3.272   1.662 -0.4326  0.4485  0.3063
 6585TIP3    H241315   5.311   3.317   1.703 -0.5056 -0.7520  1.4445
 6586TIP3   OH241316   3.648   6.455   7.562  0.0166  0.0042 -0.1348
 6586TIP3    H141317   3.596   6.411   7.629  0.7734 -0.9046 -0.1256
 6586TIP3    H241318   3.688   6.383   7.512  1.2651  0.6845 -0.1383
 6587TIP3   OH241319   5.941   6.675   1.837 -0.4566 -0.1709  0.7070
 6587TIP3    H141320   5.970   6.690   1.747 -3.4079 -0.7393 -0.4639
 6587TIP3    H241321   6.019   6.691   1.890  1.5795 -0.4183 -1.9647
 6588TIP3   OH241322   3.968   6.638   8.458 -0.0668  0.5751 -0.2014
 6588TIP3    H141323   3.919   6.682   8.528 -1.5341 -0.1196 -0.7410
 6588TIP3    H241324   3.941   6.546   8.464  1.6594  0.0274 -0.1598
 6589TIP3   OH241325   0.767   2.176   1.904 -0.2101  0.0263  0.1397
 6589TIP3    H141326   0.852   2.135   1.923 -0.3076  1.0038  3.1499
 6589TIP3    H241327   0.715   2.105   1.867  1.2309 -1.1884  0.3109
 6590TIP3   OH241328   1.649   2.741   0.080  0.0641  0.1340  0.0308
 6590TIP3    H141329   1.614   2.763   0.166  1.3159  1.6285  0.2074
 6590TIP3    H241330   1.719   2.805   0.066 -0.1653 -0.0268 -2.1375
 6591TIP3   OH241331   5.587   2.367   7.694 -0.3133  0.0403 -0.3825
 6591TIP3    H141332   5.655   2.299   7.695 -0.1344  0.2184 -0.1745
 6591TIP3    H241333   5.572   2.386   7.787 -1.3559 -0.6995 -0.3916
 6592TIP3   OH241334   1.223   3.945   8.297  0.2344 -0.4064 -0.3840
 6592TIP3    H141335   1.248   4.026   8.252 -0.1640  0.0276  0.1560
 6592TIP3    H241336   1.132   3.960   8.323  1.3192  0.7361  3.4268
 6593TIP3   OH241337   5.225   4.821   2.236 -0.1121 -0.7566 -0.4687
 6593TIP3    H141338   5.178   4.746   2.199 -1.9688  0.8287 -1.5115
 6593TIP3    H241339   5.156   4.883   2.259  1.3930  0.8203 -0.0247
 6594TIP3   OH241340   1.012   2.886   1.713 -0.6622 -0.3329 -0.2834
 6594TIP3    H141341   1.086   2.826   1.706 -0.0341  0.3916  0.0613
 6594TIP3    H241342   1.043   2.958   1.768 -1.6907 -0.1172  0.0578
 6595TIP3   OH241343   5.676   3.488   0.157  0.3249 -0.4857 -0.5751
 6595TIP3    H141344   5.702   3.404   0.195 -0.0456  0.0005  0.7890
 6595TIP3    H241345   5.753   3.517   0.108  1.5803 -0.1494  1.5056
 6596TIP3   OH241346   0.719   6.416   0.215 -0.1507 -0.6163  0.1838
 6596TIP3    H141347   0.679   6.449   0.296  1.7517 -0.1678  1.0075
 6596TIP3    H241348   0.653   6.428   0.148 -0.4836  2.5489  0.9401
 6597TIP3   OH241349   2.794   5.524   7.633  0.2039  0.5506 -0.4165
 6597TIP3    H141350   2.828   5.613   7.630 -0.5294  0.8332 -0.6073
 6597TIP3    H241351   2.719   5.525   7.574 -0.4015  0.0658  0.3258
 6598TIP3   OH241352   4.418   3.294   1.850 -0.4999  0.7633  0.6820
 6598TIP3    H141353   4.467   3.302   1.768  0.1325  0.4099  1.0140
 6598TIP3    H241354   4.327   3.286   1.823 -0.3336  1.0120  0.0288
 6599TIP3   OH241355   4.792   5.727   7.918 -0.7864 -0.0300 -0.0995
 6599TIP3    H141356   4.789   5.778   7.999  0.0170 -0.2650  0.0882
 6599TIP3    H241357   4.849   5.778   7.860 -1.4205  0.1774 -0.5588
 6600TIP3   OH241358   6.774   2.230   1.691 -0.2688 -0.6637  0.5823
 6600TIP3    H141359   6.782   2.325   1.680 -0.0289 -0.4910  2.0700
 6600TIP3    H241360   6.702   2.220   1.754 -1.6642 -1.5698 -1.0830
 6601TIP3   OH241361   2.244   3.331   0.916 -0.1889 -0.5960  0.3858
 6601TIP3    H141362   2.176   3.312   0.981  1.0776 -0.3020  1.8408
 6601TIP3    H241363   2.321   3.285   0.947  0.4940 -0.3112 -0.8378
 6602TIP3   OH241364   5.016   4.602   0.229  0.0833 -0.0820  0.4547
 6602TIP3    H141365   5.079   4.533   0.209  1.1411  1.0731 -0.3023
 6602TIP3    H241366   5.043   4.635   0.315  0.6253  0.5374  0.0470
 6603TIP3   OH241367   2.792   2.662   0.949 -0.2297 -0.0234  0.7308
 6603TIP3    H141368   2.877   2.694   0.979  0.3736 -1.9407  1.2526
 6603TIP3    H241369   2.728   2.705   1.006  0.4816  0.6106  1.0640
 6604TIP3   OH241370   5.610   5.573   7.260 -0.2930  0.3474  0.1238
 6604TIP3    H141371   5.578   5.625   7.334 -0.8371  0.1263  0.0465
 6604TIP3    H241372   5.560   5.605   7.184  0.2750  0.5872 -0.1569
 6605TIP3   OH241373   6.714   2.750   7.510 -0.3156 -0.2412  0.1462
 6605TIP3    H141374   6.736   2.776   7.421 -1.1173 -0.0951 -0.0147
 6605TIP3    H241375   6.743   2.824   7.564 -0.0099 -0.2443 -0.0120
 6606TIP3   OH241376   6.152   6.175   7.946  0.4322  0.4667  0.2769
 6606TIP3    H141377   6.159   6.270   7.937 -1.5185  0.6855  0.5184
 6606TIP3    H241378   6.235   6.141   7.913  1.7549  2.3064  1.5263
 6607TIP3   OH241379   3.569   1.214   0.957 -0.3549  0.2299 -0.4619
 6607TIP3    H141380   3.493   1.162   0.931  0.3983 -0.7346 -0.7799
 6607TIP3    H241381   3.636   1.196   0.891  0.4526  0.3819  0.2854
 6608TIP3   OH241382   0.644   5.007   7.476  0.1382 -0.4232 -0.0335
 6608TIP3    H141383   0.645   4.913   7.494  0.1820 -0.4074  0.0476
 6608TIP3    H241384   0.652   5.048   7.562  0.6620 -0.3517 -0.1084
 6609TIP3   OH241385   1.620   3.518   8.548  0.1403 -0.0365 -0.2169
 6609TIP3    H141386   1.546   3.481   8.500  0.0320  1.6676 -1.4587
 6609TIP3    H241387   1.587   3.526   8.638 -0.7502 -0.4471 -0.4884
 6610TIP3   OH241388   2.906   6.713   1.534 -0.4823  0.1258 -0.0388
 6610TIP3    H141389   2.973   6.719   1.601 -1.5375  0.8609  1.0024
 6610TIP3    H241390   2.936   6.773   1.465  1.1944 -1.5162 -0.8391
 6611TIP3   OH241391   2.583   0.542   7.379  0.0391  0.0221 -0.2949
 6611TIP3    H141392   2.510   0.570   7.325 -2.0653 -1.2947  1.6807
 6611TIP3    H241393   2.592   0.449   7.360  0.3894 -0.0868  0.3756
 6612TIP3   OH241394   0.469   5.562   0.670 -0.4218 -0.5853 -0.0944
 6612TIP3    H141395   0.473   5.590   0.579  1.5675 -1.1303 -0.2273
 6612TIP3    H241396   0.396   5.499   0.672  0.4175 -1.6817 -1.6645
 6613TIP3   OH241397   2.289   6.834   2.799 -0.3207  0.0895  0.0456
 6613TIP3    H141398   2.379   6.805   2.785 -0.6656 -0.8463 -0.3489
 6613TIP3    H241399   2.259   6.783   2.875 -0.2121  1.1212  0.8006
 6614TIP3   OH241400   4.543   3.038   1.869 -0.6001  0.1664 -0.4964
 6614TIP3    H141401   4.529   3.130   1.846 -1.9128 -0.1640 -1.1302
 6614TIP3    H241402   4.458   3.007   1.898  0.0625 -0.6016  0.7259
 6615TIP3   OH241403   6.065   1.275   6.458  0.1223 -0.2592 -0.1116
 6615TIP3    H141404   5.982   1.304   6.419  0.3706  0.8436  0.1410
 6615TIP3    H241405   6.089   1.197   6.408 -0.4409  0.1263 -1.0239
 6616TIP3   OH241406   4.231   2.618   0.516  0.2649  0.5902  0.2115
 6616TIP3    H141407   4.199   2.548   0.573 -1.3161  0.8912 -0.2674
 6616TIP3    H241408   4.296   2.575   0.460  0.8669 -0.0008  1.3208
 6617TIP3   OH241409   5.624   3.188   2.532 -0.2692  0.3036  0.3991
 6617TIP3    H141410   5.602   3.115   2.474  3.4580  0.6052 -1.6852
 6617TIP3    H241411   5.687   3.152   2.594  1.6195  1.6230 -0.6537
 6618TIP3   OH241412   5.977   2.791   7.963 -0.7660  0.3734 -0.3441
 6618TIP3    H141413   5.974   2.883   7.991 -0.2354  0.4116 -0.3945
 6618TIP3    H241414   5.893   2.755   7.990 -0.2500  0.3868  1.3920
 6619TIP3   OH241415   5.514   5.841   1.924 -0.3047  0.1494 -0.4082
 6619TIP3    H141416   5.441   5.860   1.983  0.5530 -0.5663  0.9363
 6619TIP3    H241417   5.514   5.914   1.862 -0.7138  1.4092  0.9998
 6620TIP3   OH241418   4.788   5.943   1.078 -0.3504 -0.3011  0.6421
 6620TIP3    H141419   4.791   5.854   1.114 -0.8325 -0.1689  1.0179
 6620TIP3    H241420   4.707   5.946   1.027 -0.0139 -0.2724  0.1010
 6621TIP3   OH241421   6.300   6.637   8.428 -0.8860  0.3650  0.6093
 6621TIP3    H141422   6.254   6.566   8.382 -2.4518  1.5001  0.3179
 6621TIP3    H241423   6.390   6.632   8.396 -0.7846 -1.8626  1.0873
 6622TIP3   OH241424   2.944   0.907   1.044 -0.4564 -0.0564  0.0043
 6622TIP3    H141425   2.930   0.954   1.126 -0.4782 -1.7490  1.0199
 6622TIP3    H241426   2.999   0.966   0.992 -0.2481  0.9706  1.3187
 6623TIP3   OH241427   0.860   2.351   2.907  0.4513  0.0395  0.0439
 6623TIP3    H141428   0.868   2.428   2.850  2.9275 -0.0963  0.0679
 6623TIP3    H241429   0.950   2.335   2.937 -0.1808 -2.1865  0.9414
 6624TIP3   OH241430   1.254   3.815   7.625 -0.1484  0.3847  0.0555
 6624TIP3    H141431   1.225   3.906   7.636 -1.4710  0.0085 -0.1793
 6624TIP3    H241432   1.289   3.812   7.536 -0.4448  0.5861 -0.0727
 6625TIP3   OH241433   2.511   1.933   7.232 -0.1494  0.2624 -0.2840
 6625TIP3    H141434   2.589   1.988   7.223 -0.1166  0.0473 -1.3771
 6625TIP3    H241435   2.529   1.857   7.178 -0.6136 -0.3761  0.4407
 6626TIP3   OH241436   2.837   3.010   3.104 -0.3426 -0.1704  0.7071
 6626TIP3    H141437   2.924   2.972   3.118  0.0384  0.4644  0.1356
 6626TIP3    H241438   2.855   3.102   3.084 -1.1813  0.0665  1.0373
 6627TIP3   OH241439   2.869   5.380   7.017  0.0332 -0.2919  0.1273
 6627TIP3    H141440   2.790   5.406   7.064 -0.3330  0.0627 -0.6618
 6627TIP3    H241441   2.874   5.442   6.944  0.3309 -1.1210 -0.5586
 6628TIP3   OH241442   0.017   3.167   7.982 -0.1813 -0.1751  0.6915
 6628TIP3    H141443   0.106   3.182   7.948 -0.3726 -2.3923 -1.0312
 6628TIP3    H241444   0.007   3.231   8.052  1.2998  2.8633 -1.6530
 6629TIP3   OH241445   6.828   5.788   1.546 -0.5934  0.3524  0.3874
 6629TIP3    H141446   6.820   5.792   1.641  0.7774  1.1143  0.5093
 6629TIP3    H241447   6.853   5.698   1.528 -1.0249  0.1619  0.7434
 6630TIP3   OH241448   2.121   0.390   2.863 -0.3789 -0.2643  0.3290
 6630TIP3    H141449   2.148   0.320   2.804  0.0627  0.4700 -0.3649
 6630TIP3    H241450   2.043   0.356   2.906 -2.8011  0.3759 -3.1310
 6631TIP3   OH241451   5.685   6.157   1.765  0.0413  0.1913  0.1936
 6631TIP3    H141452   5.680   6.246   1.800 -0.5986  0.3167 -0.2207
 6631TIP3    H241453   5.595   6.124   1.767 -0.1719  0.4852 -2.0806
 6632TIP3   OH241454   6.181   5.066   8.548 -0.3090 -0.2170  0.3210
 6632TIP3    H141455   6.237   4.991   8.566  0.7805  0.7785  1.1756
 6632TIP3    H241456   6.094   5.028   8.536 -1.1833 -1.3148  6.5798
 6633TIP3   OH241457   3.246   3.068   1.215 -0.0059  0.9170 -0.1329
 6633TIP3    H141458   3.317   3.034   1.160 -0.5443  1.9790 -1.5306
 6633TIP3    H241459   3.273   3.046   1.304 -0.8618 -4.3856 -0.8080
 6634TIP3   OH241460   3.421   5.861   7.958 -0.3102 -0.0956  0.7654
 6634TIP3    H141461   3.399   5.769   7.968  0.3660 -0.3804 -0.2712
 6634TIP3    H241462   3.337   5.907   7.968 -0.7139 -0.8478  0.8864
 6635TIP3   OH241463   0.345   2.009   1.558  0.3656 -0.4601 -0.6405
 6635TIP3    H141464   0.265   2.023   1.609  1.3240  0.1024  0.7835
 6635TIP3    H241465   0.318   2.024   1.467 -1.1992 -0.5573 -0.2307
 6636TIP3   OH241466   5.840   1.772   7.905  0.2284  0.1045  0.4925
 6636TIP3    H141467   5.850   1.769   8.000  0.9074  0.4183  0.4388
 6636TIP3    H241468   5.927   1.751   7.872  0.2652  1.0622 -0.0499
 6637TIP3   OH241469   1.420   5.511   0.847 -0.9899 -0.6774 -0.0483
 6637TIP3    H141470   1.481   5.515   0.774 -1.6271 -2.2249 -0.7221
 6637TIP3    H241471   1.403   5.602   0.870 -2.0905 -0.0369 -2.9781
 6638TIP3   OH241472   4.662   4.826   7.473  0.0806 -0.1860  0.1726
 6638TIP3    H141473   4.737   4.883   7.489  0.0544 -0.1309  0.1009
 6638TIP3    H241474   4.607   4.875   7.411 -0.8040  0.4725  1.4256
 6639TIP3   OH241475   3.979   2.720   0.508  0.4457 -0.0119 -0.2787
 6639TIP3    H141476   3.919   2.651   0.535  0.3633 -0.7684 -2.2606
 6639TIP3    H241477   4.066   2.682   0.520  0.5980  0.8995  2.0922
 6640TIP3   OH241478   0.924   3.512   0.020 -0.4581  0.1455 -0.7075
 6640TIP3    H141479   0.891   3.438  -0.032 -0.7603  0.0630 -0.4006
 6640TIP3    H241480   0.993   3.551  -0.035  2.2945 -2.5055  0.5568
 6641TIP3   OH241481   5.593   3.667   8.049  0.4061 -0.0233 -0.2113
 6641TIP3    H141482   5.603   3.635   7.960  0.2299  0.1474 -0.2939
 6641TIP3    H241483   5.514   3.721   8.047  0.5924  0.2657 -0.0344
 6642TIP3   OH241484   1.253   2.684   2.062  0.3810  1.0208  0.4904
 6642TIP3    H141485   1.258   2.759   2.003  0.2995  1.2764  0.8137
 6642TIP3    H241486   1.242   2.721   2.149  0.1384  0.6303  0.6282
 6643TIP3   OH241487   1.117   5.786   7.698  0.1638  0.0561  0.3758
 6643TIP3    H141488   1.084   5.697   7.698  1.1411 -0.3283  1.4079
 6643TIP3    H241489   1.141   5.804   7.789 -1.8031  2.0811  0.5758
 6644TIP3   OH241490   4.184   2.322   0.836  0.0414 -0.0074 -0.3495
 6644TIP3    H141491   4.141   2.406   0.852 -1.4881 -0.8176 -0.0409
 6644TIP3    H241492   4.264   2.325   0.887 -0.4806  0.8911  0.4267
 6645TIP3   OH241493   1.817   5.029   0.280  0.3451  0.4899 -0.1521
 6645TIP3    H141494   1.821   5.098   0.347 -1.6072  0.4304  0.0924
 6645TIP3    H241495   1.831   5.075   0.197  0.5314  0.9231  0.1168
 6646TIP3   OH241496   5.351   0.435   2.123  0.0550  0.1437 -0.3474
 6646TIP3    H141497   5.336   0.392   2.207  0.9687 -1.5300 -1.0157
 6646TIP3    H241498   5.439   0.472   2.130 -0.8456  2.3790  0.3588
 6647TIP3   OH241499   1.368   4.612   1.918 -0.5703 -0.1053  0.0610
 6647TIP3    H141500   1.301   4.549   1.946  0.7905 -1.2006  1.0117
 6647TIP3    H241501   1.331   4.653   1.840 -1.8589 -1.5290 -0.1312
 6648TIP3   OH241502   1.723   3.223   1.089  0.1396 -0.0233 -0.2981
 6648TIP3    H141503   1.646   3.167   1.078  0.6782 -0.7769 -0.3247
 6648TIP3    H241504   1.703   3.277   1.166 -0.2091 -0.5566 -0.0113
 6649TIP3   OH241505   0.194   6.056   0.046 -0.2324  0.7963  0.0230
 6649TIP3    H141506   0.125   6.059   0.113 -0.9085  1.4794 -0.6784
 6649TIP3    H241507   0.226   5.966   0.049 -0.8331  0.5865  0.6842
 6650TIP3   OH241508   0.470   0.581   7.324  0.0305  0.2645 -0.3494
 6650TIP3    H141509   0.509   0.542   7.401 -0.5487 -0.9152 -0.6319
 6650TIP3    H241510   0.382   0.608   7.352  1.0005  3.1099  0.3484
 6651TIP3   OH241511   3.603   6.241   0.618 -0.1431 -0.0334  0.3786
 6651TIP3    H141512   3.516   6.203   0.609  0.0925 -0.1713 -1.6508
 6651TIP3    H241513   3.612   6.300   0.543  2.3183 -1.6869 -0.7794
 6652TIP3   OH241514   1.450   5.961   0.174  0.0663 -0.3790 -0.7659
 6652TIP3    H141515   1.368   6.006   0.190 -0.7150 -1.4237 -1.6149
 6652TIP3    H241516   1.426   5.868   0.168  1.1204 -0.6101 -2.0750
 6653TIP3   OH241517   5.395   4.458   1.402  0.3814 -0.9872 -0.3091
 6653TIP3    H141518   5.476   4.421   1.435  0.4666 -0.0149  0.6228
 6653TIP3    H241519   5.368   4.521   1.469 -0.7482 -0.7558 -0.9511
 6654TIP3   OH241520   4.874   3.537   0.795  0.4937  0.7211  0.0554
 6654TIP3    H141521   4.785   3.502   0.792  0.2209  1.3956 -2.8788
 6654TIP3    H241522   4.928   3.469   0.756  0.5641  1.8303 -1.9411
 6655TIP3   OH241523   5.644   0.269   8.344  0.8322 -0.2569  0.4086
 6655TIP3    H141524   5.604   0.293   8.427 -0.9010 -0.0021 -0.4402
 6655TIP3    H241525   5.709   0.337   8.327 -0.3049  0.9128  0.5627
 6656TIP3   OH241526   3.625   2.375   7.677  0.2358  0.0930  0.6724
 6656TIP3    H141527   3.589   2.286   7.680  2.6907 -1.0994 -1.0960
 6656TIP3    H241528   3.559   2.426   7.631 -0.1284 -1.5019 -0.6898
 6657TIP3   OH241529   4.126   4.944   2.486  0.7112 -0.6956 -0.3051
 6657TIP3    H141530   4.138   4.877   2.419  1.9161  0.2916 -1.1319
 6657TIP3    H241531   4.212   4.986   2.494 -0.2488  1.4850 -0.6406
 6658TIP3   OH241532   4.951   1.116   8.343 -0.3965 -0.0561 -0.6732
 6658TIP3    H141533   4.897   1.037   8.334  0.1418 -0.4745 -0.3591
 6658TIP3    H241534   4.888   1.188   8.348 -0.9817 -0.6308  0.8063
 6659TIP3   OH241535   1.394   1.354   1.853 -0.5088 -0.1707 -0.2941
 6659TIP3    H141536   1.372   1.334   1.944  3.2342 -0.6702  0.6811
 6659TIP3    H241537   1.385   1.449   1.847 -0.8202 -0.1311  0.6212
 6660TIP3   OH241538   4.728   1.286   8.442 -0.1261  0.1926  0.0772
 6660TIP3    H141539   4.708   1.293   8.535 -1.6078 -0.7964 -0.1271
 6660TIP3    H241540   4.725   1.376   8.410 -0.3877  0.4646  0.8403
 6661TIP3   OH241541   5.279   5.901   2.045  0.2343 -0.2891  0.1130
 6661TIP3    H141542   5.242   5.909   1.957  0.7699 -0.3812 -0.1274
 6661TIP3    H241543   5.273   5.989   2.082 -0.3376 -0.3322  0.1274
 6662TIP3   OH241544   2.902   1.857   6.747 -0.1407 -0.0768 -0.3451
 6662TIP3    H141545   2.849   1.894   6.818 -1.1886  0.1905 -1.2333
 6662TIP3    H241546   2.895   1.762   6.759  0.9305 -0.0523  0.7688
 6663TIP3   OH241547   1.826   2.973   1.006 -0.2767 -0.0186 -0.6396
 6663TIP3    H141548   1.787   3.059   1.021  1.4882  0.5940  0.9256
 6663TIP3    H241549   1.920   2.990   1.004  0.0698 -1.7910 -1.4378
 6664TIP3   OH241550   1.585   3.815   8.256  0.2250  0.2174  0.0249
 6664TIP3    H141551   1.535   3.859   8.324  0.2666  1.5084 -0.7401
 6664TIP3    H241552   1.530   3.742   8.229 -0.0828  0.0798  0.9737
 6665TIP3   OH241553   3.280   4.740   7.516  0.3423 -0.0356  0.5407
 6665TIP3    H141554   3.190   4.721   7.489  0.4760  0.4637 -0.2975
 6665TIP3    H241555   3.272   4.814   7.577  0.3895  2.3127 -2.0992
 6666TIP3   OH241556   5.797   6.050   7.460  0.9273 -0.1508 -0.4365
 6666TIP3    H141557   5.753   5.975   7.501  0.7224 -2.2087 -3.9834
 6666TIP3    H241558   5.725   6.108   7.435  0.9268  0.2906  0.5402
 6667TIP3   OH241559   3.160   4.435   7.834  0.0799  0.3388 -0.6048
 6667TIP3    H141560   3.134   4.527   7.836  0.1094  0.3519  1.6937
 6667TIP3    H241561   3.216   4.424   7.911 -0.2450 -1.6847 -0.5986
 6668TIP3   OH241562   6.482   4.877   0.343  0.7901  0.3213 -0.2580
 6668TIP3    H141563   6.459   4.792   0.307  0.5727  0.7067 -1.0512
 6668TIP3    H241564   6.398   4.920   0.359  0.7930 -0.5056  2.4269
 6669TIP3   OH241565   3.988   3.389   6.547  0.0111 -0.2868 -0.1251
 6669TIP3    H141566   4.042   3.465   6.571  0.8467 -0.6823 -0.6787
 6669TIP3    H241567   4.037   3.347   6.477 -0.6039 -1.1611 -0.0431
 6670TIP3   OH241568   0.301   3.665   1.608 -0.0120  0.2745 -0.6267
 6670TIP3    H141569   0.278   3.752   1.576  2.1252  1.2250  0.2365
 6670TIP3    H241570   0.219   3.631   1.645 -0.6886  2.2966 -0.1388
 6671TIP3   OH241571   0.450   4.985   1.236  0.5238 -0.0172  0.3061
 6671TIP3    H141572   0.367   5.029   1.215 -0.9202 -1.2689  2.8743
 6671TIP3    H241573   0.508   5.054   1.266 -1.2960  0.4336  3.1318
 6672TIP3   OH241574   4.982   2.270   7.407  0.4606 -0.1320 -0.1958
 6672TIP3    H141575   4.921   2.336   7.438 -0.5934 -0.2105 -1.9812
 6672TIP3    H241576   4.961   2.192   7.458 -0.4655  0.0362 -0.3131
 6673TIP3   OH241577   0.385   1.294   1.199  0.0555  0.5791 -0.0109
 6673TIP3    H141578   0.398   1.215   1.147 -0.8168  0.5358 -0.1870
 6673TIP3    H241579   0.336   1.353   1.142  0.4524  1.1440  0.2195
 6674TIP3   OH241580   3.167   3.655   1.669 -0.1557 -0.2832  0.3737
 6674TIP3    H141581   3.078   3.619   1.674  0.4622 -1.7192  2.8201
 6674TIP3    H241582   3.155   3.746   1.642 -2.2523 -0.7859 -0.5675
 6675TIP3   OH241583   3.433   3.242   0.316 -0.6013  0.0175 -0.1528
 6675TIP3    H141584   3.518   3.282   0.296 -1.1854  0.6953 -1.3551
 6675TIP3    H241585   3.443   3.150   0.290 -0.3670  0.1925 -0.6999
 6676TIP3   OH241586   1.176   2.134   8.482  0.0991  0.6553 -1.2222
 6676TIP3    H141587   1.184   2.214   8.430  0.3731  1.0129 -0.6354
 6676TIP3    H241588   1.232   2.071   8.438  0.3060  0.9485 -1.3785
 6677TIP3   OH241589   4.124   2.068   2.293  0.5164 -0.3245  0.2048
 6677TIP3    H141590   4.186   2.003   2.325  0.2554 -0.5073  0.3456
 6677TIP3    H241591   4.167   2.152   2.308  1.1665 -0.4907 -0.6584
 6678TIP3   OH241592   1.174   3.613   6.840 -0.4637 -0.2149 -0.1540
 6678TIP3    H141593   1.222   3.680   6.888 -1.7414  1.1344 -0.6696
 6678TIP3    H241594   1.185   3.533   6.892  1.6223  0.1971  0.1497
 6679TIP3   OH241595   3.034   6.152   0.922 -0.4021 -0.3368  0.2775
 6679TIP3    H141596   2.946   6.118   0.909 -0.2580 -1.2167  1.4507
 6679TIP3    H241597   3.085   6.113   0.851 -1.0710  0.6952 -0.7959
 6680TIP3   OH241598   4.955   2.298   1.620  0.2658  0.5642  0.3354
 6680TIP3    H141599   5.038   2.258   1.645  0.1077  0.6019  0.9522
 6680TIP3    H241600   4.932   2.354   1.695 -0.6429  0.0230  0.4823
 6681TIP3   OH241601   1.042   1.926   7.621  0.9624  0.4532  0.3667
 6681TIP3    H141602   1.008   1.999   7.570 -0.6215 -1.1007 -0.9611
 6681TIP3    H241603   1.057   1.857   7.556  1.3187 -0.7793  1.7058
 6682TIP3   OH241604   2.865   3.076   0.673  0.6988 -0.1877  0.3392
 6682TIP3    H141605   2.851   3.001   0.616 -2.6267 -0.5213  1.3946
 6682TIP3    H241606   2.844   3.152   0.619 -1.6045 -0.4499  0.7884
 6683TIP3   OH241607   2.436   1.898   1.603 -0.0934 -0.3698  0.1539
 6683TIP3    H141608   2.394   1.970   1.650  0.4841 -0.6803  1.1611
 6683TIP3    H241609   2.465   1.838   1.671  0.4319 -1.0188 -0.6186
 6684TIP3   OH241610   1.547   1.981   6.993 -0.0732 -0.1397 -0.3077
 6684TIP3    H141611   1.584   1.893   6.989 -1.2005 -0.5883 -1.4781
 6684TIP3    H241612   1.526   2.003   6.902  1.2013  1.8009 -0.1781
 6685TIP3   OH241613   2.799   2.731   2.868 -0.3452  0.1051 -0.3316
 6685TIP3    H141614   2.849   2.649   2.864  0.6794  0.7618 -2.7083
 6685TIP3    H241615   2.866   2.800   2.864 -1.3114  1.0162 -1.6963
 6686TIP3   OH241616   5.306   4.638   1.156 -0.7996 -0.2821  0.1734
 6686TIP3    H141617   5.341   4.550   1.168 -1.7123 -0.4705  1.8710
 6686TIP3    H241618   5.217   4.624   1.124 -0.7822  0.0415 -0.0205
 6687TIP3   OH241619   5.076   6.262   8.086  0.1643  0.1129  0.0170
 6687TIP3    H141620   5.161   6.218   8.077 -0.9410 -2.4821  1.1286
 6687TIP3    H241621   5.057   6.260   8.179 -0.5814  1.8538 -0.0543
 6688TIP3   OH241622   2.329   4.108   0.713 -0.2287 -0.2490 -0.1480
 6688TIP3    H141623   2.342   4.089   0.620  2.4829 -0.4271  0.1990
 6688TIP3    H241624   2.403   4.067   0.757 -1.8222 -0.7668  2.2168
 6689TIP3   OH241625   5.213   2.920   1.841  0.4155  0.6786  0.2943
 6689TIP3    H141626   5.297   2.877   1.859 -0.1899 -0.1086  1.3334
 6689TIP3    H241627   5.216   2.999   1.895  0.8902  1.1712 -0.4368
 6690TIP3   OH241628   5.651   5.392   1.435  0.0980  0.5073  0.1303
 6690TIP3    H141629   5.704   5.312   1.437  1.5906  1.3941 -1.4358
 6690TIP3    H241630   5.561   5.360   1.426  0.7042 -1.0228 -1.0644
 6691TIP3   OH241631   1.482   3.519   7.477  0.0466  0.0057 -0.6249
 6691TIP3    H141632   1.521   3.522   7.390  1.6594  1.5607  0.0753
 6691TIP3    H241633   1.517   3.597   7.521 -0.2886 -1.0182  1.5855
 6692TIP3   OH241634   3.306   1.311   1.819 -0.1067 -0.3474  0.1449
 6692TIP3    H141635   3.345   1.271   1.897 -1.2095 -0.6363  0.5731
 6692TIP3    H241636   3.351   1.395   1.810  0.9629 -0.8839  0.3034
 6693TIP3   OH241637   4.919   2.679   7.932 -0.0742  0.6095  0.4985
 6693TIP3    H141638   4.907   2.774   7.937  0.6039  0.6645  1.5726
 6693TIP3    H241639   5.009   2.668   7.899 -0.2056  0.3401  0.2270
 6694TIP3   OH241640   5.459   3.528   7.614  0.1687 -1.0197 -0.3335
 6694TIP3    H141641   5.395   3.471   7.571 -1.7089  1.4571 -1.0540
 6694TIP3    H241642   5.503   3.572   7.542  3.1012 -2.9056  0.1297
 6695TIP3   OH241643   5.304   3.864   0.695  0.4183 -0.0127 -0.2015
 6695TIP3    H141644   5.269   3.780   0.664  0.7482 -0.6769  1.1346
 6695TIP3    H241645   5.398   3.859   0.677  0.4056  0.1554 -0.3120
 6696TIP3   OH241646   0.883   4.061   2.026 -0.5628 -0.4526  0.0766
 6696TIP3    H141647   0.910   3.987   2.081 -0.4594 -0.6015 -0.1748
 6696TIP3    H241648   0.810   4.100   2.074 -0.0436 -0.1713  0.6574
 6697TIP3   OH241649   0.818   4.296   1.299 -0.6131 -0.1588 -0.0886
 6697TIP3    H141650   0.759   4.325   1.368 -2.6541 -1.5809 -1.1128
 6697TIP3    H241651   0.851   4.376   1.260 -1.4309  0.6898  0.8924
 6698TIP3   OH241652   2.730   3.255   0.474 -0.1855 -0.2552 -0.3524
 6698TIP3    H141653   2.772   3.337   0.448  0.1484 -0.2878  0.0728
 6698TIP3    H241654   2.660   3.243   0.410  0.3863 -0.1440 -1.0224
 6699TIP3   OH241655   5.404   1.756   0.787  0.2062  0.2547 -0.0567
 6699TIP3    H141656   5.417   1.807   0.707  0.6031 -1.9126 -1.4606
 6699TIP3    H241657   5.374   1.671   0.756  0.4844 -0.6923  2.1180
 6700TIP3   OH241658   4.456   3.201   0.283  0.2016  0.0914  0.1560
 6700TIP3    H141659   4.502   3.151   0.351  0.5809  0.4756  0.1870
 6700TIP3    H241660   4.365   3.203   0.312  0.1553 -0.6880  0.0895
 6701TIP3   OH241661   2.925   5.517   1.418  0.4746  0.9038 -0.1840
 6701TIP3    H141662   2.988   5.585   1.393  1.9378 -0.9290 -1.8739
 6701TIP3    H241663   2.943   5.446   1.356 -0.6862 -1.1755  1.7677
 6702TIP3   OH241664   1.257   1.115   7.726  0.4308 -0.0030  0.1690
 6702TIP3    H141665   1.255   1.138   7.633 -0.1872  0.8529  0.3808
 6702TIP3    H241666   1.332   1.057   7.735  0.9528  0.5127 -0.7302
 6703TIP3   OH241667   2.778   5.289   2.593  0.4191 -0.2039  0.5720
 6703TIP3    H141668   2.826   5.329   2.521  0.3424  0.6074  0.9596
 6703TIP3    H241669   2.757   5.201   2.562 -0.4301  0.4426 -0.7727
 6704TIP3   OH241670   2.639   3.545   1.994 -0.4804 -0.6686  0.5370
 6704TIP3    H141671   2.699   3.505   2.057  0.4210  1.2412  0.9803
 6704TIP3    H241672   2.555   3.552   2.041 -0.0894 -0.1981  1.1810
 6705TIP3   OH241673   1.652   4.902   8.054  0.1920 -0.3064 -0.1059
 6705TIP3    H141674   1.712   4.830   8.069 -0.7469 -1.0226  0.3212
 6705TIP3    H241675   1.614   4.884   7.968  1.2512  0.6380 -0.7847
 6706TIP3   OH241676   0.487   4.894   2.651 -0.1817 -0.0962 -0.2457
 6706TIP3    H141677   0.504   4.861   2.739  1.8977  0.6360 -0.3300
 6706TIP3    H241678   0.528   4.830   2.593 -0.5198  0.0471 -0.6491
 6707TIP3   OH241679   4.974   0.838   8.473 -0.2489  0.4744 -0.1722
 6707TIP3    H141680   5.027   0.762   8.498 -0.5887  0.3442  0.1632
 6707TIP3    H241681   5.036   0.898   8.430 -0.2240 -0.5707 -1.6897
 6708TIP3   OH241682   5.937   0.598   2.543  0.1447 -0.4962 -0.9467
 6708TIP3    H141683   5.867   0.597   2.608  0.7251 -0.5043 -0.3045
 6708TIP3    H241684   6.018   0.596   2.595  0.7462  3.3234 -1.4665
 6709TIP3   OH241685   0.314   6.185   0.800  0.0108 -0.0394  0.4283
 6709TIP3    H141686   0.405   6.217   0.798  0.2952 -0.7749  1.1118
 6709TIP3    H241687   0.265   6.250   0.750  0.8771  0.4973  0.2519
 6710TIP3   OH241688   2.146   3.094   0.477  0.4607  0.0557 -0.0347
 6710TIP3    H141689   2.204   3.150   0.529  1.4550 -0.1837 -0.8532
 6710TIP3    H241690   2.084   3.058   0.541  1.4178  0.0492  0.9235
 6711TIP3   OH241691   2.169   0.859   6.927  0.0348 -0.2677  0.0606
 6711TIP3    H141692   2.171   0.793   6.996  3.4911  1.0901  1.5197
 6711TIP3    H241693   2.253   0.848   6.881  0.1729  2.2187 -0.4404
 6712TIP3   OH241694   6.662   2.684   1.791 -0.1779 -0.1951 -0.0931
 6712TIP3    H141695   6.574   2.649   1.781 -0.6978  1.1960 -0.5278
 6712TIP3    H241696   6.679   2.732   1.710  0.1050  1.3914  0.8648
 6713TIP3   OH241697   4.415   1.238   0.329 -0.1260 -0.6444 -0.1410
 6713TIP3    H141698   4.470   1.165   0.358 -2.2751 -2.6002 -0.6813
 6713TIP3    H241699   4.427   1.305   0.396  0.5221 -2.2252  1.4122
 6714TIP3   OH241700   4.852   0.420   0.835 -0.0898  0.3647 -0.4598
 6714TIP3    H141701   4.839   0.502   0.883  2.2735  0.4113  0.2736
 6714TIP3    H241702   4.886   0.360   0.901  0.3284 -0.5152 -1.4562
 6715TIP3   OH241703   4.628   0.158   0.397 -0.2261 -0.1217 -0.2733
 6715TIP3    H141704   4.675   0.135   0.317 -1.1231  0.5415 -1.0099
 6715TIP3    H241705   4.692   0.145   0.467 -0.1666 -3.3272 -0.7568
 6716TIP3   OH241706   3.589   6.518   8.480  0.0514 -0.4164  0.0015
 6716TIP3    H141707   3.547   6.433   8.472 -0.3432 -0.2238 -0.0375
 6716TIP3    H241708   3.678   6.505   8.447 -0.6336 -0.3369 -2.0288
 6717TIP3   OH241709   0.136   6.160   6.585 -0.5151 -0.4099  0.3212
 6717TIP3    H141710   0.072   6.231   6.589  0.6271  0.6715 -0.1127
 6717TIP3    H241711   0.218   6.199   6.617  0.7748 -0.7386 -2.2814
 6718TIP3   OH241712   2.573   6.490   8.544 -0.0079 -0.3275 -0.0859
 6718TIP3    H141713   2.519   6.445   8.478  0.5652 -0.0513 -0.7569
 6718TIP3    H241714   2.583   6.579   8.509 -1.6265  0.5608  1.4988
 6719TIP3   OH241715   1.403   4.173   1.282 -0.0955 -0.3391  0.1815
 6719TIP3    H141716   1.496   4.195   1.274  0.0152 -0.4489  1.0347
 6719TIP3    H241717   1.361   4.255   1.308 -0.0556 -0.5424  0.9202
 6720TIP3   OH241718   1.270   6.550   1.912 -0.2494  0.1241  0.3876
 6720TIP3    H141719   1.251   6.459   1.889  0.5591  0.7248 -3.1835
 6720TIP3    H241720   1.185   6.588   1.933 -0.8163 -1.0637  0.3047
 6721TIP3   OH241721   5.227   1.226   0.718  0.1326 -0.3316 -0.3984
 6721TIP3    H141722   5.133   1.229   0.734  0.1554 -0.9147 -0.1330
 6721TIP3    H241723   5.239   1.156   0.654  0.3231  0.1873 -0.9428
 6722TIP3   OH241724   3.008   2.545   8.509 -0.1687 -0.0740  0.1900
 6722TIP3    H141725   2.967   2.615   8.458 -0.3675  0.3036  0.8571
 6722TIP3    H241726   2.967   2.552   8.595 -0.5129 -1.2948  0.1403
 6723TIP3   OH241727   1.457   1.829   0.200  0.0115 -0.8012  0.0898
 6723TIP3    H141728   1.502   1.813   0.117 -0.0723 -1.2852  0.1341
 6723TIP3    H241729   1.404   1.907   0.184 -0.8463 -1.5179 -0.6626
 6724TIP3   OH241730   1.029   5.514   1.054 -0.3236  0.7190 -0.0028
 6724TIP3    H141731   0.978   5.590   1.024  0.7762  0.8995 -1.5083
 6724TIP3    H241732   1.109   5.552   1.090 -0.1205  0.3154 -0.0276
 6725TIP3   OH241733   2.427   1.675   1.210  0.0855  0.4218  0.0082
 6725TIP3    H141734   2.380   1.687   1.128 -0.9699 -1.4769  0.2713
 6725TIP3    H241735   2.501   1.617   1.188  1.0881  1.6542  0.0146
 6726TIP3   OH241736   6.812   6.111   2.687 -0.1166  0.0099  0.3934
 6726TIP3    H141737   6.756   6.046   2.643 -0.5375  1.0023 -0.6085
 6726TIP3    H241738   6.896   6.067   2.698 -0.2947 -0.6152 -0.5627
 6727TIP3   OH241739   0.937   2.057   8.024  0.4392 -0.4778  0.1858
 6727TIP3    H141740   0.885   2.072   8.103 -1.7730 -1.0366 -1.0573
 6727TIP3    H241741   0.968   2.143   7.998  2.2351 -0.4218  2.2544
 6728TIP3   OH241742   4.067   3.218   6.956 -0.0273 -0.0205  0.6010
 6728TIP3    H141743   3.980   3.242   6.924 -0.9370 -2.2875  1.1762
 6728TIP3    H241744   4.084   3.278   7.028 -1.7988 -0.4689  1.4512
 6729TIP3   OH241745   1.474   5.796   1.039  0.7345 -0.0760  0.6196
 6729TIP3    H141746   1.562   5.804   1.075  1.2967 -1.1153 -0.4383
 6729TIP3    H241747   1.473   5.854   0.963  0.8397 -0.7515  0.0836
 6730TIP3   OH241748   2.492   5.446   2.138 -0.2424  0.1029 -0.4966
 6730TIP3    H141749   2.538   5.459   2.221 -0.5797  5.2670 -0.8278
 6730TIP3    H241750   2.547   5.384   2.090  1.5098 -0.8129  2.3834
 6731TIP3   OH241751   3.092   4.964   0.185  0.1193  0.7550  0.4448
 6731TIP3    H141752   3.020   4.927   0.135  0.1008  2.5455 -0.9792
 6731TIP3    H241753   3.141   4.889   0.218 -0.9599 -0.4765 -0.6975
 6732TIP3   OH241754   5.717   2.399   1.848  0.4121 -0.3288 -0.2039
 6732TIP3    H141755   5.773   2.323   1.830 -0.3489 -0.8685 -0.3839
 6732TIP3    H241756   5.771   2.475   1.828  0.5758 -0.8545 -1.9560
 6733TIP3   OH241757   2.575   1.668   0.019  0.2239 -0.7834  0.4592
 6733TIP3    H141758   2.594   1.610   0.093 -0.1981 -0.3062  0.9512
 6733TIP3    H241759   2.658   1.675  -0.028  0.3367 -1.6047  0.5206
 6734TIP3   OH241760   6.909   3.742   2.008 -0.2392  0.0098 -0.6783
 6734TIP3    H141761   6.867   3.702   1.932 -0.6358 -1.0127  0.0526
 6734TIP3    H241762   6.881   3.688   2.082 -0.8939  1.7128  0.3883
 6735TIP3   OH241763   6.508   3.796   1.048 -0.0704  0.1387  0.3032
 6735TIP3    H141764   6.496   3.876   0.997  0.8751  2.1094  2.9221
 6735TIP3    H241765   6.603   3.781   1.047  0.3332  1.6746  3.2665
 6736TIP3   OH241766   3.967   3.246   1.510 -0.4628  0.1627  0.0655
 6736TIP3    H141767   3.886   3.278   1.551 -1.5246 -1.5880 -0.5665
 6736TIP3    H241768   3.969   3.288   1.425  1.5079  3.4453  1.5406
 6737TIP3   OH241769   4.788   1.708   8.305  0.1447 -0.3485  0.6814
 6737TIP3    H141770   4.851   1.636   8.307 -1.2124 -1.6261 -0.6086
 6737TIP3    H241771   4.735   1.696   8.384 -0.2844 -0.9751  0.3041
 6738TIP3   OH241772   4.710   6.144   2.119  0.1560  0.0605 -0.7530
 6738TIP3    H141773   4.796   6.137   2.078  1.1065  0.2044  1.1151
 6738TIP3    H241774   4.658   6.194   2.057  1.3802 -0.1368 -1.9763
 6739TIP3   OH241775   4.109   6.144   8.046 -0.0244 -0.3504 -0.1744
 6739TIP3    H141776   4.081   6.216   7.990  1.6758  0.6031  0.1347
 6739TIP3    H241777   4.048   6.073   8.026 -2.4603  1.4706  0.3141
 6740TIP3   OH241778   6.504   0.110   0.057 -0.0281 -0.3762 -0.1221
 6740TIP3    H141779   6.411   0.132   0.064  0.0962  0.2568 -0.3967
 6740TIP3    H241780   6.511   0.065  -0.028 -0.2320 -1.2692  0.3123
 6741TIP3   OH241781   6.009   3.953   0.660  0.0686 -0.0257 -0.4074
 6741TIP3    H141782   5.942   3.989   0.719 -0.3780 -0.9939 -0.3135
 6741TIP3    H241783   5.997   4.002   0.578  0.1782  0.7812  0.0439
 6742TIP3   OH241784   3.890   3.044   8.289 -0.0858 -0.3893  0.3686
 6742TIP3    H141785   3.972   3.059   8.241 -0.8367  0.1575 -0.7915
 6742TIP3    H241786   3.851   2.968   8.246 -0.5098 -0.2332  0.4784
 6743TIP3   OH241787   2.557   3.150   1.632  0.1466  0.7240 -0.0623
 6743TIP3    H141788   2.544   3.116   1.721  0.5146  2.9305  0.9301
 6743TIP3    H241789   2.604   3.081   1.586  0.5974 -0.1998  1.6983
 6744TIP3   OH241790   5.253   6.151   2.148  0.2238  0.1628 -0.0575
 6744TIP3    H141791   5.235   6.221   2.085 -1.0918 -0.4118 -0.3452
 6744TIP3    H241792   5.177   6.149   2.205  0.9673  0.0134  0.9697
 6745TIP3   OH241793   3.296   2.430   8.487  0.5816  0.4645  0.7114
 6745TIP3    H141794   3.213   2.477   8.495  0.7428  0.8742  0.1019
 6745TIP3    H241795   3.297   2.369   8.560 -0.0307  0.8100  1.0148
 6746TIP3   OH241796   1.366   6.044   3.196  0.0493  0.2145  0.6793
 6746TIP3    H141797   1.284   5.996   3.206 -0.2940  0.1329 -1.9562
 6746TIP3    H241798   1.341   6.136   3.198 -0.3536  0.1886 -1.4441
 6747TIP3   OH241799   3.290   1.742   1.069  0.1767 -0.4472  0.3832
 6747TIP3    H141800   3.371   1.773   1.029  0.6405 -0.9758  0.9118
 6747TIP3    H241801   3.306   1.650   1.089 -1.1109 -1.0196 -0.9780
 6748TIP3   OH241802   3.154   0.050   7.862 -0.1890  0.1441 -0.1691
 6748TIP3    H141803   3.244   0.018   7.856 -0.7028 -1.2573 -1.0467
 6748TIP3    H241804   3.151   0.097   7.945  0.7626 -1.8284  1.0639
 6749TIP3   OH241805   3.721   5.061   7.575 -0.3040  0.4833  0.8100
 6749TIP3    H141806   3.744   4.975   7.611  2.0111  0.3304 -0.8674
 6749TIP3    H241807   3.729   5.051   7.481  0.0565  2.5569  0.5741
 6750TIP3   OH241808   5.542   3.194   7.335 -0.2406  0.2334 -0.0887
 6750TIP3    H141809   5.488   3.231   7.266 -0.9996  0.9529  0.8632
 6750TIP3    H241810   5.621   3.249   7.336 -0.3401  0.3777 -0.2141
 6751TIP3   OH241811   6.150   0.900   3.029 -0.2220 -0.1388  0.0880
 6751TIP3    H141812   6.145   0.994   3.013 -1.1080 -0.6282 -3.2157
 6751TIP3    H241813   6.061   0.869   3.017  0.2933 -1.5541 -0.2542
 6752TIP3   OH241814   4.904   4.225   8.220 -0.1266  0.3658 -0.5978
 6752TIP3    H141815   4.969   4.293   8.237 -1.9145  1.3884  2.9637
 6752TIP3    H241816   4.948   4.143   8.242  0.8000  0.7160 -1.0809
 6753TIP3   OH241817   5.099   4.561   2.448 -0.2668 -0.1705  0.2725
 6753TIP3    H141818   5.068   4.612   2.522 -0.3564 -0.3617  0.3665
 6753TIP3    H241819   5.189   4.538   2.470 -0.0881  0.2971  0.0451
 6754TIP3   OH241820   4.266   2.847   0.310  0.6217 -0.2530  0.3009
 6754TIP3    H141821   4.301   2.758   0.301  0.3750 -0.3240  0.0547
 6754TIP3    H241822   4.174   2.835   0.332  0.8169 -0.0670  1.2771
 6755TIP3   OH241823   6.084   5.424   7.168 -0.0921  0.4920 -0.2053
 6755TIP3    H141824   6.028   5.486   7.215 -0.2981  0.7004 -0.7211
 6755TIP3    H241825   6.169   5.467   7.164  0.0198  0.3196  0.2889
 6756TIP3   OH241826   1.095   0.139   0.282  0.1308  0.2283  0.0335
 6756TIP3    H141827   1.133   0.143   0.369 -0.0692  0.8496  0.0920
 6756TIP3    H241828   1.019   0.082   0.292 -0.1018  0.5906  0.3448
 6757TIP3   OH241829   5.305   2.207   7.706  0.3935  0.2476 -0.0085
 6757TIP3    H141830   5.388   2.246   7.679 -0.2985  0.0879 -2.6302
 6757TIP3    H241831   5.303   2.121   7.664 -1.0918  0.2537 -0.0213
 6758TIP3   OH241832   1.418   4.332   0.200 -0.5714 -0.4134  0.2171
 6758TIP3    H141833   1.399   4.261   0.138  0.3105 -0.9038  0.4887
 6758TIP3    H241834   1.409   4.412   0.149 -1.4571 -0.7200 -0.1278
 6759TIP3   OH241835   0.697   0.944   1.767 -0.1158  0.2824  0.1395
 6759TIP3    H141836   0.655   1.011   1.822  1.7282  1.8079 -0.2215
 6759TIP3    H241837   0.750   0.993   1.704 -0.1846 -1.4939 -1.3958
 6760TIP3   OH241838   6.862   0.873   1.169 -0.0055 -0.4428 -0.2415
 6760TIP3    H141839   6.798   0.926   1.216 -0.2588 -1.0937  0.1627
 6760TIP3    H241840   6.920   0.937   1.128  1.1908  0.2068  2.2405
 6761TIP3   OH241841   3.320   2.113   7.771  0.1983 -0.2805 -0.3933
 6761TIP3    H141842   3.270   2.034   7.791 -0.3137  0.0743 -0.2564
 6761TIP3    H241843   3.409   2.092   7.801  0.1875 -0.9830 -0.8191
 6762TIP3   OH241844   3.624   5.702   7.191 -0.1325  0.9556  0.6762
 6762TIP3    H141845   3.565   5.654   7.250 -0.0464  1.1672  0.9334
 6762TIP3    H241846   3.570   5.773   7.157 -0.9130 -0.5083 -1.3288
 6763TIP3   OH241847   5.608   4.677   7.383  0.4787  0.8831 -0.2526
 6763TIP3    H141848   5.659   4.597   7.376  0.2986  0.7199  0.2846
 6763TIP3    H241849   5.673   4.747   7.384  0.6397  0.7372 -0.6203
 6764TIP3   OH241850   4.331   4.491   7.765 -0.8426  0.9434  0.4357
 6764TIP3    H141851   4.241   4.477   7.795 -0.1956 -1.6211  1.4602
 6764TIP3    H241852   4.369   4.548   7.831 -0.7239 -1.0356  2.1959
 6765TIP3   OH241853   6.823   6.363   2.959 -0.0069 -0.7003 -0.3268
 6765TIP3    H141854   6.790   6.273   2.964  1.4026 -1.2234 -0.0037
 6765TIP3    H241855   6.755   6.416   3.001 -1.6786 -1.3556 -2.0983
 6766TIP3   OH241856   6.599   2.418   2.158  0.3363 -0.2755  0.7673
 6766TIP3    H141857   6.521   2.366   2.178 -0.1815  0.3093  0.2989
 6766TIP3    H241858   6.607   2.414   2.062  0.2840  0.5206  0.7286
 6767TIP3   OH241859   1.670   2.740   0.889 -0.4222  0.2353 -0.3765
 6767TIP3    H141860   1.706   2.662   0.930 -0.4515  0.1803 -0.4540
 6767TIP3    H241861   1.738   2.806   0.899 -0.9326  0.5991  0.9027
 6768TIP3   OH241862   5.593   5.573   1.918 -0.0634  0.2209 -0.1659
 6768TIP3    H141863   5.584   5.668   1.924  2.5562  0.5343 -0.1219
 6768TIP3    H241864   5.612   5.557   1.826  1.0823 -0.0745  0.1129
 6769TIP3   OH241865   3.911   0.337   7.421  0.3718  0.1029 -0.4167
 6769TIP3    H141866   3.869   0.357   7.338 -0.2981  0.2946 -0.0321
 6769TIP3    H241867   3.926   0.422   7.462  0.4231 -0.0120 -0.1980
 6770TIP3   OH241868   4.719   6.157   7.994  0.2499 -0.2574 -0.0961
 6770TIP3    H141869   4.652   6.175   8.060 -0.5032 -0.4840 -0.7827
 6770TIP3    H241870   4.787   6.108   8.042  1.9849  3.4590  1.6287
 6771TIP3   OH241871   4.414   2.536   1.353  0.0277 -0.3651  0.3821
 6771TIP3    H141872   4.466   2.523   1.433  0.1879  0.0867  0.3549
 6771TIP3    H241873   4.324   2.524   1.381  0.2036 -2.5825  0.1506
 6772TIP3   OH241874   6.280   3.357   1.471 -0.1986  0.4125 -0.1225
 6772TIP3    H141875   6.229   3.314   1.402  0.1155 -0.4567  0.1727
 6772TIP3    H241876   6.243   3.325   1.553  0.9431 -0.3972  0.0927
 6773TIP3   OH241877   1.758   6.723   1.275 -0.5750  0.4223 -0.2589
 6773TIP3    H141878   1.703   6.798   1.253 -1.2151 -0.1342 -0.5821
 6773TIP3    H241879   1.737   6.657   1.209  1.4972  0.6626 -1.2591
 6774TIP3   OH241880   1.184   5.461   7.881  0.1760  0.0238 -0.1498
 6774TIP3    H141881   1.228   5.421   7.956 -0.9230 -1.2370 -0.1264
 6774TIP3    H241882   1.233   5.429   7.805 -0.2033 -0.7473 -0.0842
 6775TIP3   OH241883   3.659   0.492   1.055 -0.4744  0.1542  0.4664
 6775TIP3    H141884   3.592   0.524   0.995 -1.3787  1.3350  2.0219
 6775TIP3    H241885   3.647   0.398   1.059 -2.0935  0.3500  0.7392
 6776TIP3   OH241886   2.483   2.321   8.296  0.0014  0.3462  0.1271
 6776TIP3    H141887   2.441   2.273   8.367  1.9588 -0.1079  1.0246
 6776TIP3    H241888   2.457   2.412   8.310 -1.8674 -0.0906 -0.2425
 6777TIP3   OH241889   0.299   5.219   0.910  0.2474 -0.3406  0.3593
 6777TIP3    H141890   0.347   5.164   0.847  0.5523  0.9378 -0.5673
 6777TIP3    H241891   0.364   5.243   0.976  0.7896  0.8990 -0.5743
 6778TIP3   OH241892   4.299   3.696   7.628  0.1742 -0.1675 -1.4708
 6778TIP3    H141893   4.321   3.788   7.611 -0.8016  0.4039  0.1178
 6778TIP3    H241894   4.212   3.685   7.592 -2.3856  1.3553  3.3555
 6779TIP3   OH241895   6.395   4.919   2.490 -0.3283 -0.0744 -0.0345
 6779TIP3    H141896   6.374   4.955   2.404 -0.3490 -0.8824 -0.3839
 6779TIP3    H241897   6.327   4.854   2.506 -0.3074  0.0545  0.5807
 6780TIP3   OH241898   0.992   3.251   0.375 -0.4196 -0.5049 -0.8599
 6780TIP3    H141899   1.028   3.339   0.374  0.4616 -0.8577 -1.2363
 6780TIP3    H241900   0.909   3.258   0.327 -1.5201  0.5700  1.0666
 6781TIP3   OH241901   4.397   0.502   8.165  0.2154 -0.3159 -0.1361
 6781TIP3    H141902   4.385   0.596   8.179  4.5425  0.4530 -0.0816
 6781TIP3    H241903   4.371   0.488   8.074 -1.4642  0.6345  0.1495
 6782TIP3   OH241904   3.194   2.227   6.597 -0.4714 -0.4145 -0.9887
 6782TIP3    H141905   3.232   2.234   6.510 -0.7104  1.4171 -0.9810
 6782TIP3    H241906   3.214   2.311   6.639 -3.8633  0.4099 -0.7293
 6783TIP3   OH241907   5.023   3.672   1.697 -0.2117  0.0855  0.3293
 6783TIP3    H141908   4.961   3.726   1.747 -0.8066  1.2256 -1.5444
 6783TIP3    H241909   5.012   3.700   1.606  0.0672 -2.6429 -0.6370
 6784TIP3   OH241910   2.841   1.287   0.972 -0.1087 -0.0784 -0.4015
 6784TIP3    H141911   2.768   1.348   0.975 -0.3361 -0.3713  0.4255
 6784TIP3    H241912   2.851   1.265   0.880 -0.4632  0.6779 -0.6258
 6785TIP3   OH241913   3.633   0.428   8.306 -0.2904 -0.1415 -0.0466
 6785TIP3    H141914   3.677   0.497   8.256 -0.8441  0.5375  0.3901
 6785TIP3    H241915   3.575   0.386   8.242 -0.8432  0.5882 -0.0390
 6786TIP3   OH241916   3.125   0.492   8.479 -0.4816  0.2951  0.0528
 6786TIP3    H141917   3.054   0.496   8.543 -2.3023  2.2440 -1.9097
 6786TIP3    H241918   3.187   0.559   8.507 -0.1392 -0.3773  0.9438
 6787TIP3   OH241919   4.072   5.454   2.014  0.0238  0.6780 -0.1147
 6787TIP3    H141920   4.105   5.526   2.067  2.8536  1.9351 -3.2520
 6787TIP3    H241921   4.124   5.378   2.040 -1.5512  0.1752  1.7568
 6788TIP3   OH241922   3.954   4.743   2.246 -0.2016  0.1776  0.3329
 6788TIP3    H141923   3.927   4.819   2.195  1.2637  1.2401  1.0649
 6788TIP3    H241924   3.872   4.709   2.283 -1.0222  0.6674 -0.9628
 6789TIP3   OH241925   5.446   3.345   2.150 -0.0419  0.4983 -0.7795
 6789TIP3    H141926   5.492   3.343   2.233 -1.0255  0.7071 -0.2168
 6789TIP3    H241927   5.512   3.373   2.086  0.1158  2.8608  0.3412
 6790TIP3   OH241928   5.899   4.310   0.142 -0.6961  0.0710 -0.3090
 6790TIP3    H141929   5.901   4.228   0.093 -0.3513  1.9757 -3.8257
 6790TIP3    H241930   5.806   4.334   0.147 -0.9213 -1.0627  1.8608
 6791TIP3   OH241931   0.155   6.755   1.849  0.3200 -0.3599  0.2842
 6791TIP3    H141932   0.110   6.814   1.909 -1.0580 -1.4037  0.3017
 6791TIP3    H241933   0.105   6.759   1.768 -0.4892 -2.3427  0.6382
 6792TIP3   OH241934   2.531   5.267   0.528 -0.0772  0.4672  0.2165
 6792TIP3    H141935   2.480   5.197   0.487  0.1494 -0.5971  1.6493
 6792TIP3    H241936   2.606   5.280   0.469  0.5938 -1.4846  0.5503
 6793TIP3   OH241937   2.434   1.123   8.207  0.9806 -0.5532  0.4927
 6793TIP3    H141938   2.367   1.160   8.151  1.2373 -2.3522 -1.1071
 6793TIP3    H241939   2.516   1.136   8.159  1.4177 -0.7568  1.1692
 6794TIP3   OH241940   6.764   5.965   2.324 -0.5831  0.3143  0.4351
 6794TIP3    H141941   6.737   5.928   2.407  0.4084 -2.5306 -0.4172
 6794TIP3    H241942   6.859   5.972   2.330 -0.5913  1.1256 -0.1045
 6795TIP3   OH241943   1.757   3.671   1.734  0.8512  0.6038  0.1895
 6795TIP3    H141944   1.686   3.669   1.799  0.5116  1.1374 -0.1535
 6795TIP3    H241945   1.791   3.761   1.739  0.4213  0.8282 -0.7841
 6796TIP3   OH241946   1.571   1.041   7.387 -0.1375  0.3220  0.1670
 6796TIP3    H141947   1.632   0.967   7.386  0.5701  0.8698  1.3682
 6796TIP3    H241948   1.627   1.118   7.381 -0.7234  0.8262  1.0281
 6797TIP3   OH241949   1.540   1.266   0.225 -0.6542  0.3089 -0.3075
 6797TIP3    H141950   1.474   1.205   0.258 -0.9673  0.6576 -0.2843
 6797TIP3    H241951   1.490   1.331   0.177 -0.1949 -0.2676 -1.6023
 6798TIP3   OH241952   0.549   5.363   2.511  0.1029  0.1344  0.0839
 6798TIP3    H141953   0.560   5.373   2.417 -0.9794 -0.8872 -0.1788
 6798TIP3    H241954   0.578   5.274   2.530 -0.1084  0.1778  0.6393
 6799TIP3   OH241955   6.209   0.366   0.955 -0.6353 -0.0948 -0.0637
 6799TIP3    H141956   6.121   0.401   0.962 -0.8840 -0.6778 -0.2455
 6799TIP3    H241957   6.214   0.330   0.866  0.5389  1.9650 -0.9237
 6800TIP3   OH241958   6.324   1.195   7.946  0.9491 -0.1748  0.6502
 6800TIP3    H141959   6.369   1.204   7.862  0.3713 -2.2144  0.0592
 6800TIP3    H241960   6.231   1.194   7.923  0.7240  0.5265  1.4836
 6801TIP3   OH241961   0.349   5.918   3.213  0.0838  0.1099  0.0364
 6801TIP3    H141962   0.392   6.001   3.191 -1.8305  1.5798  1.5010
 6801TIP3    H241963   0.256   5.936   3.202 -0.4103 -1.6546  1.0294
 6802TIP3   OH241964   4.616   3.936   7.994  0.1485 -0.0026  0.4480
 6802TIP3    H141965   4.657   3.916   7.910  0.6529  0.4641  0.5734
 6802TIP3    H241966   4.599   3.851   8.034 -0.3274 -0.2308 -0.2362
 6803TIP3   OH241967   6.420   0.264   0.383  0.0988 -0.1167  0.3721
 6803TIP3    H141968   6.390   0.205   0.314  0.3661  0.3929 -0.1898
 6803TIP3    H241969   6.470   0.208   0.442  2.1380 -0.1337 -1.2486
 6804TIP3   OH241970   2.935   1.299   7.390  0.1713 -0.0450 -0.2939
 6804TIP3    H141971   2.859   1.342   7.351 -0.4329  0.6147  1.4924
 6804TIP3    H241972   2.997   1.371   7.404  1.1909 -0.5814 -1.7705
 6805TIP3   OH241973   6.037   1.895   8.118 -0.4875  0.0896 -0.1917
 6805TIP3    H141974   5.958   1.893   8.171  0.5745 -1.8381  1.4416
 6805TIP3    H241975   6.099   1.946   8.169  0.6246 -1.9954  0.6580
 6806TIP3   OH241976   2.458   1.430   2.430  0.0015 -0.2038 -0.2483
 6806TIP3    H141977   2.408   1.435   2.512 -0.0334  1.3400 -0.3328
 6806TIP3    H241978   2.395   1.397   2.366  0.0559 -1.5178  0.3402
 6807TIP3   OH241979   3.739   4.305   8.504 -0.1867  0.3756 -0.3088
 6807TIP3    H141980   3.669   4.258   8.460 -0.3973  0.0836  0.3276
 6807TIP3    H241981   3.776   4.242   8.566  2.3060 -0.3336 -2.3249
 6808TIP3   OH241982   0.505   5.714   0.216 -0.3284  0.4797 -0.0621
 6808TIP3    H141983   0.508   5.798   0.171 -1.2660  0.2373 -0.6205
 6808TIP3    H241984   0.595   5.696   0.240 -0.1707  1.8393  0.4429
 6809TIP3   OH241985   3.878   3.994   8.541  0.0207 -0.3749 -0.2623
 6809TIP3    H141986   3.968   4.015   8.515 -0.1043 -0.1832 -0.5360
 6809TIP3    H241987   3.861   4.051   8.616  0.4209 -1.0102  0.3322
 6810TIP3   OH241988   6.347   4.805   1.506 -0.6067 -0.0506 -0.0652
 6810TIP3    H141989   6.374   4.732   1.561 -1.1062  0.8622  1.4504
 6810TIP3    H241990   6.296   4.765   1.436  1.9695 -1.4820 -1.2504
 6811TIP3   OH241991   6.864   1.169   1.161  0.6795 -0.0530 -0.1748
 6811TIP3    H141992   6.907   1.254   1.170 -0.1691  0.3837 -0.0941
 6811TIP3    H241993   6.857   1.155   1.067 -1.3040  1.1215 -0.2745
 6812TIP3   OH241994   1.599   1.150   1.857  0.8706  0.2257  0.6359
 6812TIP3    H141995   1.649   1.164   1.937 -0.6686  0.7685  1.5384
 6812TIP3    H241996   1.523   1.207   1.866 -0.2282 -1.0108 -0.4059
 6813TIP3   OH241997   3.893   6.096   1.421 -0.0606  0.0339  0.0191
 6813TIP3    H141998   3.895   6.007   1.456 -1.4112 -1.2796 -2.9198
 6813TIP3    H241999   3.814   6.099   1.367  0.5096  2.7100 -0.8105
 6814TIP3   OH242000   0.957   0.737   7.609  0.2811 -0.1765  0.0923
 6814TIP3    H142001   1.031   0.792   7.633  0.3303  0.7163 -1.9287
 6814TIP3    H242002   0.921   0.777   7.530 -1.4073 -1.4768  0.1241
 6815TIP3   OH242003   5.468   6.214   7.688 -0.3070  0.7178 -0.2232
 6815TIP3    H142004   5.430   6.134   7.724 -1.0924  0.7306 -0.9889
 6815TIP3    H242005   5.396   6.278   7.692  0.0027  1.0902 -0.5716
 6816TIP3   OH242006   0.070   0.655   1.692 -0.3230  0.4221  0.1838
 6816TIP3    H142007   0.134   0.645   1.622  1.2885  2.8767  1.1605
 6816TIP3    H242008   0.099   0.595   1.760  0.1778  0.5527  0.0921
 6817TIP3   OH242009   5.941   5.314   1.982  0.3191  0.0042  0.1122
 6817TIP3    H142010   5.860   5.317   1.931  1.4096  1.1605 -1.6642
 6817TIP3    H242011   5.919   5.262   2.060 -1.9949 -0.0397 -0.5031
 6818TIP3   OH242012   6.515   0.774   0.427 -0.5921 -0.5178  0.2680
 6818TIP3    H142013   6.551   0.762   0.516  3.3106  0.6612 -0.9328
 6818TIP3    H242014   6.449   0.842   0.437  1.0190  0.9039  2.0893
 6819TIP3   OH242015   0.231   6.079   1.563 -0.0334  0.4811  0.2786
 6819TIP3    H142016   0.272   6.165   1.565 -0.7084  0.8189 -0.3320
 6819TIP3    H242017   0.295   6.022   1.606  0.8592  1.0911 -0.1962
 6820TIP3   OH242018   3.019   0.299   8.084 -0.2183 -0.6851  0.1966
 6820TIP3    H142019   2.949   0.250   8.126 -0.8445 -1.4772 -1.6472
 6820TIP3    H242020   3.009   0.280   7.991  2.0650 -0.2961 -0.1989
 6821TIP3   OH242021   5.433   6.088   1.832  0.0815 -0.2744  0.3305
 6821TIP3    H142022   5.357   6.122   1.783  0.7304  0.2269 -0.3483
 6821TIP3    H242023   5.467   6.165   1.878  0.9653 -0.2003 -0.4237
 6822TIP3   OH242024   3.699   0.150   7.341 -0.5438  0.3875 -0.1892
 6822TIP3    H142025   3.725   0.211   7.271  1.5246 -0.3693 -0.1518
 6822TIP3    H242026   3.701   0.064   7.299  0.0752 -0.0082  0.6415
 6823TIP3   OH242027   5.101   2.886   1.259  0.2235  0.5600 -0.7243
 6823TIP3    H142028   5.162   2.903   1.332 -0.0790  1.9313 -0.7742
 6823TIP3    H242029   5.059   2.970   1.242  0.3491  0.2912 -2.5602
 6824TIP3   OH242030   1.097   6.435   1.030  0.2848 -0.0649 -0.1485
 6824TIP3    H142031   1.114   6.526   1.053 -2.7376  0.2556  1.2887
 6824TIP3    H242032   1.111   6.431   0.935  1.1599  1.6868 -0.1272
 6825TIP3   OH242033   3.977   5.160   7.969 -0.1750 -0.3247  0.4632
 6825TIP3    H142034   3.913   5.173   7.900 -0.6320 -1.3570  0.6726
 6825TIP3    H242035   4.037   5.094   7.935  0.1237 -0.1849  0.7039
 6826TIP3   OH242036   3.503   0.687   0.801  0.3325 -0.1998  0.1227
 6826TIP3    H142037   3.441   0.736   0.748  0.5509 -1.1404 -1.0570
 6826TIP3    H242038   3.532   0.749   0.868  0.3651  1.1625 -1.1083
 6827TIP3   OH242039   4.864   1.543   7.854  0.3107 -0.0776 -0.3146
 6827TIP3    H142040   4.842   1.497   7.935 -0.5911  1.6510  0.4784
 6827TIP3    H242041   4.947   1.587   7.872  0.3791 -0.1256 -0.5093
 6828TIP3   OH242042   3.600   3.460   7.405 -0.4142  0.0970  0.3815
 6828TIP3    H142043   3.519   3.504   7.431 -1.7379 -1.6282 -0.6273
 6828TIP3    H242044   3.658   3.532   7.377 -1.8310  1.3294  0.4899
 6829TIP3   OH242045   4.808   4.304   2.311 -0.6142  0.0616  0.4389
 6829TIP3    H142046   4.751   4.335   2.381  0.2849 -0.4330  1.4257
 6829TIP3    H242047   4.845   4.222   2.345  1.0905  0.6308  0.0809
 6830TIP3   OH242048   4.470   3.049   7.426  0.1831 -0.2483 -0.3096
 6830TIP3    H142049   4.460   3.088   7.513 -0.3953 -1.0106 -0.0171
 6830TIP3    H242050   4.423   3.108   7.368 -1.6919 -1.0603  0.3009
 6831TIP3   OH242051   1.616   1.759   7.507 -0.0879 -0.2573  0.6890
 6831TIP3    H142052   1.618   1.714   7.592  1.4523  0.3771  1.0126
 6831TIP3    H242053   1.549   1.827   7.518 -1.7754 -1.7977  0.4949
 6832TIP3   OH242054   3.949   1.369   0.795  0.0498 -0.2318  0.4597
 6832TIP3    H142055   4.037   1.335   0.815 -0.5699 -2.1143  0.2204
 6832TIP3    H242056   3.959   1.464   0.795  1.8812 -0.3801  1.3821
 6833TIP3   OH242057   0.991   1.493   2.135  0.1834 -0.1423 -0.1100
 6833TIP3    H142058   0.988   1.460   2.045 -0.4827 -1.8397  0.4783
 6833TIP3    H242059   1.083   1.514   2.150  0.0789  1.6909 -1.6595
 6834TIP3   OH242060   3.955   1.510   2.351  0.0318 -0.6774 -0.4522
 6834TIP3    H142061   3.898   1.433   2.346  0.7784 -1.1632 -2.1201
 6834TIP3    H242062   4.014   1.502   2.276  1.9649  0.0968  0.8921
 6835TIP3   OH242063   6.394   3.707   7.055  0.4009 -0.2779  1.0822
 6835TIP3    H142064   6.330   3.775   7.033  1.0993  0.4925  1.3765
 6835TIP3    H242065   6.421   3.671   6.970 -2.2180 -2.3760  1.0064
 6836TIP3   OH242066   1.547   6.145   1.762 -0.2137 -0.2859  0.5579
 6836TIP3    H142067   1.533   6.231   1.802  2.7720 -0.1790  1.5924
 6836TIP3    H242068   1.464   6.099   1.775 -1.8258  2.3166  0.1690
 6837TIP3   OH242069   5.921   6.696   7.316  0.2969  0.8318  0.2300
 6837TIP3    H142070   5.996   6.750   7.290  0.8960  0.7307  1.6344
 6837TIP3    H242071   5.875   6.678   7.234  1.8815  0.7814 -0.6956
 6838TIP3   OH242072   0.279   3.547   8.136 -0.6657 -0.2075 -0.4334
 6838TIP3    H142073   0.280   3.632   8.091 -2.7527 -0.0617 -0.2933
 6838TIP3    H242074   0.354   3.500   8.100  1.3365  2.1486  0.4412
 6839TIP3   OH242075   6.046   5.192   7.303 -0.1396  0.2880 -0.1222
 6839TIP3    H142076   5.989   5.132   7.255 -1.3602  1.8889 -0.7847
 6839TIP3    H242077   6.061   5.264   7.242  0.0653  1.3427  1.1418
 6840TIP3   OH242078   2.873   0.935   7.785  0.8448  0.1956  0.7772
 6840TIP3    H142079   2.916   0.850   7.776  1.3439  0.5965 -0.9710
 6840TIP3    H242080   2.872   0.971   7.697 -0.5593  1.4436  1.2497
 6841TIP3   OH242081   4.007   5.658   8.008 -0.0841 -0.3486  0.2919
 6841TIP3    H142082   3.962   5.609   7.939  0.1087 -1.0150  0.6318
 6841TIP3    H242083   4.081   5.700   7.964 -0.3295 -0.2494 -0.0296
 6842TIP3   OH242084   3.771   5.453   7.552 -0.1496 -0.3622  0.0330
 6842TIP3    H142085   3.719   5.373   7.553  0.0855 -0.5406  1.9226
 6842TIP3    H242086   3.835   5.439   7.482 -0.7948 -1.3550 -0.3763
 6843TIP3   OH242087   0.900   1.956   1.681  0.2117  0.0933  0.2127
 6843TIP3    H142088   0.921   1.982   1.771 -0.0080 -0.0043  0.2939
 6843TIP3    H242089   0.843   1.880   1.691 -1.6987  1.4159  0.0527
 6844TIP3   OH242090   2.056   2.131   0.447 -0.0813 -0.3047  0.0061
 6844TIP3    H142091   2.068   2.218   0.409  0.2204 -0.1015  0.5560
 6844TIP3    H242092   2.120   2.127   0.518 -1.6541 -0.0823  1.5106
 6845TIP3   OH242093   2.599   3.820   1.736  0.7292  0.7724  0.1273
 6845TIP3    H142094   2.535   3.752   1.758  3.3813 -2.1178 -0.4370
 6845TIP3    H242095   2.606   3.817   1.641  2.2576  0.4240  0.2244
 6846TIP3   OH242096   0.841   2.518   0.903 -0.2593  0.0215 -0.3851
 6846TIP3    H142097   0.855   2.529   0.997  1.6838  1.8887 -0.8122
 6846TIP3    H242098   0.822   2.424   0.893  0.6887 -0.4693  1.7481
 6847TIP3   OH242099   0.396   5.595   0.419 -0.1928 -0.1321  0.1109
 6847TIP3    H142100   0.301   5.589   0.409 -0.2650  0.2955  0.4879
 6847TIP3    H242101   0.425   5.647   0.344 -0.2568 -0.2691 -0.0086
 6848TIP3   OH242102   6.428   6.819   7.318  0.0894 -0.8168  0.2104
 6848TIP3    H142103   6.514   6.797   7.284  0.0205 -0.4467 -0.2312
 6848TIP3    H242104   6.407   6.750   7.380  0.2457 -1.4967 -0.4733
 6849TIP3   OH242105   2.665   1.606   7.311  0.0329  0.0203  0.1179
 6849TIP3    H142106   2.613   1.638   7.237  0.0652  0.6228  0.3501
 6849TIP3    H242107   2.671   1.511   7.297 -0.7469  0.0028 -0.1495
 6850TIP3   OH242108   2.930   1.321   1.706  0.4070 -0.0816  0.0297
 6850TIP3    H142109   2.990   1.269   1.653 -0.2779 -1.7765  0.8191
 6850TIP3    H242110   2.863   1.259   1.734 -0.5238  1.2706  0.9496
 6851TIP3   OH242111   4.437   2.783   1.228  0.0391  0.1202  0.0276
 6851TIP3    H142112   4.400   2.699   1.254  3.0196 -1.2545  0.2923
 6851TIP3    H242113   4.494   2.807   1.301  0.4959  1.5383 -0.7611
 6852TIP3   OH242114   3.020   1.784   1.064 -0.4479  0.2246  0.0226
 6852TIP3    H142115   3.115   1.792   1.051 -0.4974  0.2482 -0.3429
 6852TIP3    H242116   2.995   1.709   1.009 -0.7750  0.7563 -0.5667
 6853TIP3   OH242117   3.595   2.605   7.167 -0.1080  0.1339 -0.1516
 6853TIP3    H142118   3.532   2.665   7.206  0.5317 -0.0511  1.2371
 6853TIP3    H242119   3.607   2.637   7.077  0.2312  2.0979  0.5487
 6854TIP3   OH242120   2.554   0.761   0.831 -0.2662 -0.1718 -0.2519
 6854TIP3    H142121   2.612   0.727   0.899  0.0757  0.9905  0.0658
 6854TIP3    H242122   2.606   0.759   0.751  0.2348  0.8649  0.0317
 6855TIP3   OH242123   3.063   5.522   7.837 -0.5149  0.1665  0.1645
 6855TIP3    H142124   3.091   5.437   7.874 -1.9696 -1.1320 -1.5621
 6855TIP3    H242125   3.124   5.537   7.765 -0.2039  0.6730  0.5239
 6856TIP3   OH242126   3.159   6.716   7.514 -0.1550 -0.6802  0.0555
 6856TIP3    H142127   3.252   6.697   7.500 -0.1592 -1.3872  0.9189
 6856TIP3    H242128   3.120   6.632   7.537 -0.5503 -0.0209  2.0373
 6857TIP3   OH242129   5.433   4.912   1.610  0.3388  0.2297  0.1392
 6857TIP3    H142130   5.421   5.000   1.644  0.0180 -0.0447  0.7400
 6857TIP3    H242131   5.376   4.908   1.533 -1.6167 -0.2491  1.5365
 6858TIP3   OH242132   0.482   5.815   7.042 -0.2302 -0.0673  0.1572
 6858TIP3    H142133   0.392   5.803   7.071 -0.4967  0.9540 -0.1859
 6858TIP3    H242134   0.490   5.761   6.963 -0.6060 -0.0005  0.0737
 6859TIP3   OH242135   1.539   2.478   8.225  0.6516 -0.0346  0.4641
 6859TIP3    H142136   1.604   2.545   8.202  0.2570  0.3194  0.3753
 6859TIP3    H242137   1.474   2.524   8.278  0.8131 -0.5354  1.1027
 6860TIP3   OH242138   6.786   4.247   0.157 -0.1332 -0.7149 -0.0080
 6860TIP3    H142139   6.715   4.264   0.095 -0.1616  0.8584  0.4216
 6860TIP3    H242140   6.744   4.244   0.243  0.1144 -1.4273  0.1007
 6861TIP3   OH242141   1.215   4.318   1.688  0.1018 -0.2534 -0.1560
 6861TIP3    H142142   1.148   4.265   1.730  0.6460 -0.6217  0.2470
 6861TIP3    H242143   1.293   4.306   1.741 -0.0218  1.8098  0.6137
 6862TIP3   OH242144   5.793   2.323   1.285  0.0698 -0.1626 -0.9178
 6862TIP3    H142145   5.701   2.322   1.310  0.4051 -0.7731  0.4029
 6862TIP3    H242146   5.840   2.318   1.368  1.3255  1.5976 -1.4676
 6863TIP3   OH242147   5.445   2.676   1.168 -0.1462 -0.0616 -0.1552
 6863TIP3    H142148   5.422   2.763   1.134  0.3534 -0.1334 -0.6750
 6863TIP3    H242149   5.455   2.689   1.262  0.0939  0.4798 -0.2550
 6864TIP3   OH242150   2.612   1.958   0.793 -0.0735  0.1871  0.2596
 6864TIP3    H142151   2.675   2.026   0.816 -2.3051  2.9312 -1.1277
 6864TIP3    H242152   2.558   1.948   0.872 -1.5638  2.3173 -0.4040
 6865TIP3   OH242153   2.818   6.195   8.476  0.9418  0.5004  0.0885
 6865TIP3    H142154   2.761   6.172   8.403  1.6709 -0.4693 -0.1910
 6865TIP3    H242155   2.862   6.114   8.500 -0.5396  0.3591  2.7787
 6866TIP3   OH242156   2.144   4.245   2.158 -0.0449 -0.4892 -0.0102
 6866TIP3    H142157   2.176   4.309   2.221  2.6627 -0.1631 -1.5882
 6866TIP3    H242158   2.049   4.259   2.156 -0.1163  0.1842  3.1391
 6867TIP3   OH242159   0.296   1.405   0.279 -0.2784  0.7772  0.1488
 6867TIP3    H142160   0.260   1.460   0.209 -3.4752 -1.6985 -0.3559
 6867TIP3    H242161   0.362   1.351   0.235 -0.3150  1.1288 -0.3523
 6868TIP3   OH242162   2.409   3.466   2.091 -0.9809 -0.4293  0.7143
 6868TIP3    H142163   2.321   3.491   2.121 -0.2451  3.4957  0.2243
 6868TIP3    H242164   2.452   3.432   2.170 -2.0507  0.4640  1.7300
 6869TIP3   OH242165   6.776   5.074   1.595  0.1687 -0.0406  0.1659
 6869TIP3    H142166   6.766   5.131   1.672  0.3619  0.9359 -0.5117
 6869TIP3    H242167   6.870   5.079   1.575 -0.3391  2.3945 -2.0959
 6870TIP3   OH242168   2.052   4.308   1.764  0.3983  0.1668  0.0166
 6870TIP3    H142169   1.989   4.256   1.714  1.2098 -0.3591 -0.4828
 6870TIP3    H242170   2.126   4.318   1.705  0.8001  0.7559  0.6086
 6871TIP3   OH242171   3.137   5.266   7.900  0.3176  0.0546 -0.6746
 6871TIP3    H142172   3.089   5.204   7.955 -1.2001  2.3911  0.8322
 6871TIP3    H242173   3.226   5.263   7.933  0.9737 -3.0790 -2.3478
 6872TIP3   OH242174   3.360   0.075   6.963 -0.4724  0.3898 -0.0442
 6872TIP3    H142175   3.302   0.035   7.027 -1.1943 -0.0302 -0.9523
 6872TIP3    H242176   3.350   0.169   6.977  1.4083  0.3607  2.2547
 6873TIP3   OH242177   3.756   1.782   8.152  0.1174 -0.5781  0.0384
 6873TIP3    H142178   3.730   1.760   8.242  1.6916 -1.6026  0.2914
 6873TIP3    H242179   3.719   1.711   8.099 -1.0794  0.1917 -0.2075
 6874TIP3   OH242180   4.702   6.195   1.227  0.4793 -0.5032  0.4326
 6874TIP3    H142181   4.626   6.251   1.215  1.8788  1.3297 -0.4134
 6874TIP3    H242182   4.698   6.133   1.154  0.4712  0.4471 -0.4080
 6875TIP3   OH242183   1.544   4.514   7.507 -0.7813  0.9783 -0.3433
 6875TIP3    H142184   1.553   4.454   7.433 -1.3662 -2.0716  1.9053
 6875TIP3    H242185   1.528   4.599   7.466 -0.3137 -0.4032 -3.7121
 6876TIP3   OH242186   2.350   6.526   1.513  0.3364  0.6559  0.1014
 6876TIP3    H142187   2.360   6.457   1.579  0.1299 -0.8029 -1.3269
 6876TIP3    H242188   2.316   6.601   1.562 -2.3142 -1.1505  1.2685
 6877TIP3   OH242189   1.540   1.965   8.214 -0.5358  0.0254 -0.1239
 6877TIP3    H142190   1.526   2.045   8.264 -1.9067 -0.9781  1.1673
 6877TIP3    H242191   1.473   1.969   8.145 -0.9357 -0.2257  0.2432
 6878TIP3   OH242192   1.469   0.810   0.082 -0.1365 -0.2217 -0.3659
 6878TIP3    H142193   1.541   0.866   0.112  0.5013 -0.4943 -1.3471
 6878TIP3    H242194   1.423   0.786   0.162 -0.3641  1.6146  0.1059
 6879TIP3   OH242195   4.263   5.144   1.906 -0.0225  0.0307  0.0514
 6879TIP3    H142196   4.318   5.066   1.906  0.5340  0.4125 -0.3741
 6879TIP3    H242197   4.301   5.201   1.973 -0.0540  0.1797 -0.0549
 6880TIP3   OH242198   2.601   5.237   8.107  0.4489 -0.2020  0.0661
 6880TIP3    H142199   2.551   5.195   8.037  0.2734  0.4141 -0.1865
 6880TIP3    H242200   2.687   5.194   8.104 -0.4325 -2.2085  1.3757
 6881TIP3   OH242201   0.114   5.707   7.822 -0.2843  0.4347  0.4381
 6881TIP3    H142202   0.087   5.620   7.849  1.1189  0.3297  1.6625
 6881TIP3    H242203   0.184   5.693   7.759 -0.3049  0.6780  0.3570
 6882TIP3   OH242204   3.658   1.348   0.344  0.4600  0.2545 -0.2555
 6882TIP3    H142205   3.630   1.402   0.418  0.4390 -0.8724  0.5959
 6882TIP3    H242206   3.708   1.277   0.384  0.1136 -0.6002 -1.2874
 6883TIP3   OH242207   0.673   6.559   1.252  0.1950  0.0163 -0.1235
 6883TIP3    H142208   0.704   6.644   1.223 -0.1826  0.1646 -0.1020
 6883TIP3    H242209   0.721   6.496   1.198  0.1856  0.2554 -0.4135
 6884TIP3   OH242210   1.725   0.894   2.314  0.1168  0.0932  0.3243
 6884TIP3    H142211   1.651   0.868   2.260  0.9041 -1.6824  0.0510
 6884TIP3    H242212   1.686   0.947   2.384 -1.6145 -1.9660  1.0037
 6885TIP3   OH242213   5.921   5.908   1.240 -0.1106  0.2339  0.5516
 6885TIP3    H142214   5.995   5.864   1.198  0.8683  2.7104 -0.4402
 6885TIP3    H242215   5.852   5.842   1.240  0.6725 -0.7459 -2.5711
 6886TIP3   OH242216   5.542   5.750   8.305 -0.4523 -0.2248  0.0004
 6886TIP3    H142217   5.510   5.752   8.395  0.2895 -0.0553  0.2693
 6886TIP3    H242218   5.620   5.807   8.306  0.2174 -1.1068 -0.4801
 6887TIP3   OH242219   3.213   2.663   1.256 -0.3589  0.1098  0.2754
 6887TIP3    H142220   3.179   2.638   1.170 -1.3850  1.6356  0.1979
 6887TIP3    H242221   3.163   2.609   1.318  0.3917 -1.0019 -0.0633
 6888TIP3   OH242222   3.721   5.355   2.180 -0.4805  0.2209  0.5391
 6888TIP3    H142223   3.708   5.260   2.189  1.5160  0.0208  1.8430
 6888TIP3    H242224   3.636   5.387   2.149 -1.0402 -2.0452 -0.5060
 6889TIP3   OH242225   1.270   2.742   2.337  0.3946 -0.1001 -0.3767
 6889TIP3    H142226   1.208   2.772   2.402 -1.2360  1.3071 -2.4560
 6889TIP3    H242227   1.340   2.808   2.338 -1.1362  1.6929 -2.0406
 6890TIP3   OH242228   4.494   2.658   7.515  0.3380  0.7502 -0.5554
 6890TIP3    H142229   4.427   2.628   7.576  0.5958 -0.2233 -0.7363
 6890TIP3    H242230   4.570   2.676   7.570  0.2550  0.8551 -0.4742
 6891TIP3   OH242231   5.268   0.916   7.062 -0.1769  0.0047  0.2824
 6891TIP3    H142232   5.345   0.962   7.029 -1.2159  0.5806 -1.4770
 6891TIP3    H242233   5.291   0.823   7.056  1.3838  0.1709  2.4586
 6892TIP3   OH242234   3.523   0.813   2.070 -0.3286 -0.2509 -0.0426
 6892TIP3    H142235   3.567   0.735   2.105  0.9812  1.4051  2.3269
 6892TIP3    H242236   3.501   0.865   2.148 -2.7177  0.9883 -1.4322
 6893TIP3   OH242237   3.545   4.377   7.839 -0.4331  0.4152 -0.2560
 6893TIP3    H142238   3.536   4.470   7.817  0.9325  0.3157 -1.3189
 6893TIP3    H242239   3.499   4.368   7.923  0.8794  2.4356  0.7715
 6894TIP3   OH242240   3.427   0.534   2.421 -0.0177  0.3057  0.0361
 6894TIP3    H142241   3.347   0.493   2.456 -0.6620  0.7814 -0.8227
 6894TIP3    H242242   3.498   0.477   2.449 -0.6866 -0.2403  0.6532
 6895TIP3   OH242243   3.749   3.031   1.989  0.1453 -0.1189  0.0508
 6895TIP3    H142244   3.798   2.948   1.991 -0.0849 -0.2892 -0.9786
 6895TIP3    H242245   3.809   3.095   2.028  0.8261 -0.5128 -0.3259
 6896TIP3   OH242246   6.044   0.432   7.807 -0.0484 -0.1450  0.6465
 6896TIP3    H142247   6.120   0.444   7.751 -0.8783  1.1574 -0.2491
 6896TIP3    H242248   6.007   0.519   7.817 -0.6798 -0.5587  2.1596
 6897TIP3   OH242249   4.790   3.086   8.019  0.2577  0.3342  0.1573
 6897TIP3    H142250   4.702   3.114   8.044  0.2611  0.9643 -0.4985
 6897TIP3    H242251   4.837   3.076   8.102  0.2035  2.1542  0.4550
 6898TIP3   OH242252   4.880   4.141   1.490 -0.1409 -0.1208  0.2167
 6898TIP3    H142253   4.916   4.147   1.402 -0.1044 -1.9546  0.0668
 6898TIP3    H242254   4.901   4.225   1.531 -1.8611  1.5672 -2.1059
 6899TIP3   OH242255   1.347   6.331   8.490 -0.5002  0.1852 -0.1247
 6899TIP3    H142256   1.262   6.303   8.457 -1.8704  0.9263  2.4970
 6899TIP3    H242257   1.360   6.281   8.570  0.7392  1.3045  0.4193
 6900TIP3   OH242258   0.989   0.465   0.257  0.3624 -0.3756 -0.4367
 6900TIP3    H142259   1.075   0.459   0.298  1.2417  1.2134 -1.9289
 6900TIP3    H242260   0.989   0.397   0.190  0.7203  0.0051 -0.8346
 6901TIP3   OH242261   1.971   1.912   0.245 -0.0638 -0.3819 -0.8010
 6901TIP3    H142262   1.941   1.831   0.204  0.2148 -0.8709 -0.0486
 6901TIP3    H242263   2.066   1.901   0.255  0.1363  0.4589 -1.6160
 6902TIP3   OH242264   4.524   1.656   7.630  0.1658 -0.2480 -0.0338
 6902TIP3    H142265   4.452   1.715   7.651 -0.1006 -0.4165 -0.4678
 6902TIP3    H242266   4.579   1.704   7.568 -0.8136 -0.9616 -1.5135
 6903TIP3   OH242267   5.861   5.048   7.625  0.2516 -0.0191  0.2858
 6903TIP3    H142268   5.882   4.965   7.669  0.2839  0.0647  0.4312
 6903TIP3    H242269   5.787   5.027   7.569  0.3168 -0.1685  0.2533
 6904TIP3   OH242270   0.566   0.031   8.360 -0.2189 -0.6934  0.3766
 6904TIP3    H142271   0.597   0.004   8.446 -1.4060 -0.7886  0.8005
 6904TIP3    H242272   0.477  -0.005   8.354 -0.2891 -0.3826 -0.7388
 6905TIP3   OH242273   3.073   1.509   1.852 -0.6995  0.3239  0.5039
 6905TIP3    H142274   2.987   1.549   1.865 -0.4275  1.5353 -1.1133
 6905TIP3    H242275   3.057   1.436   1.792 -0.7132  0.0336  0.8580
 6906TIP3   OH242276   1.310   4.524   7.920 -0.6962  0.5661 -0.0937
 6906TIP3    H142277   1.399   4.547   7.947 -0.6993  0.0271  0.3861
 6906TIP3    H242278   1.269   4.489   7.999 -0.7276 -0.9601 -0.7462
 6907TIP3   OH242279   5.218   1.063   2.162  0.2363  0.0854 -0.3134
 6907TIP3    H142280   5.170   1.061   2.079  2.0949 -1.2620 -1.4156
 6907TIP3    H242281   5.276   0.988   2.158  0.1394 -0.2307  2.4003
 6908TIP3   OH242282   3.739   3.087   6.820 -0.3004  0.0737  0.3167
 6908TIP3    H142283   3.718   3.134   6.900 -1.4271  1.8299 -0.9343
 6908TIP3    H242284   3.749   3.156   6.754 -0.8696 -1.3867 -1.3722
 6909TIP3   OH242285   0.647   5.696   8.402  0.0586 -0.2732  0.0540
 6909TIP3    H142286   0.698   5.667   8.326 -2.3117 -2.5444 -0.8517
 6909TIP3    H242287   0.661   5.628   8.468  0.3252  0.5089  0.8145
 6910TIP3   OH242288   6.137   5.457   7.504 -0.6467 -0.5240 -0.3343
 6910TIP3    H142289   6.227   5.426   7.504 -0.3182  0.2371  1.9061
 6910TIP3    H242290   6.133   5.517   7.430  1.6010  1.6986  1.1745
 6911TIP3   OH242291   3.417   5.403   1.795 -0.2485 -0.6670  0.0274
 6911TIP3    H142292   3.481   5.451   1.743 -1.8141  0.3095 -1.0885
 6911TIP3    H242293   3.378   5.468   1.853 -1.1894 -0.9416 -0.2834
 6912TIP3   OH242294   0.071   5.860   8.115 -0.7410 -0.6702  0.5703
 6912TIP3    H142295   0.089   5.784   8.059 -1.3342  1.1437 -2.3231
 6912TIP3    H242296  -0.018   5.886   8.092 -0.7612  0.5849  1.8979
 6913TIP3   OH242297   2.688   5.183   0.222 -0.1860 -0.3431  0.1733
 6913TIP3    H142298   2.751   5.178   0.150 -1.0322  2.5923 -0.9193
 6913TIP3    H242299   2.605   5.156   0.182 -0.6620  1.3063 -0.0144
 6914TIP3   OH242300   2.188   0.020   1.754  0.2203  0.0422 -0.2362
 6914TIP3    H142301   2.261   0.079   1.735  0.2875 -0.4826 -1.7101
 6914TIP3    H242302   2.219  -0.066   1.727 -1.1776 -0.0831 -1.5590
 6915TIP3   OH242303   4.001   2.279   1.980  0.6074  0.1997 -0.3892
 6915TIP3    H142304   4.007   2.292   2.075  0.9789 -0.5559 -0.2970
 6915TIP3    H242305   3.943   2.204   1.970  0.4518  0.3702 -0.7724
 6916TIP3   OH242306   5.569   3.856   6.743  0.0925 -0.0852  0.5031
 6916TIP3    H142307   5.489   3.833   6.697 -0.2360  0.7413  0.6306
 6916TIP3    H242308   5.570   3.952   6.743 -0.2386 -0.0286  2.7217
 6917TIP3   OH242309   3.930   4.021   2.169  0.1628  0.4950 -0.8487
 6917TIP3    H142310   3.986   3.967   2.224  0.2247  2.3568  1.0474
 6917TIP3    H242311   3.990   4.075   2.118  0.1331  1.1532 -0.2082
 6918TIP3   OH242312   3.357   3.445   7.897 -0.1243  0.5233  0.3029
 6918TIP3    H142313   3.364   3.393   7.977  1.1397  0.2934  0.0551
 6918TIP3    H242314   3.443   3.439   7.856 -1.0965 -0.5320 -1.7876
 6919TIP3   OH242315   6.767   0.403   2.914  0.2484  0.2823  0.1245
 6919TIP3    H142316   6.806   0.491   2.907  0.4460  0.2955  1.2038
 6919TIP3    H242317   6.688   0.416   2.967 -2.3243  0.5600 -3.4687
 6920TIP3   OH242318   1.184   3.713   0.918  0.3286  0.7670  0.2075
 6920TIP3    H142319   1.107   3.701   0.974  0.6741  3.3453  1.3604
 6920TIP3    H242320   1.155   3.685   0.831 -1.0507 -0.8010  1.0944
 6921TIP3   OH242321   6.057   0.104   0.959  0.4870  0.3257 -0.3847
 6921TIP3    H142322   6.038   0.191   0.994  1.1897  0.1099  0.5662
 6921TIP3    H242323   6.089   0.055   1.034 -1.2746 -1.2084 -0.5742
 6922TIP3   OH242324   4.777   4.645   0.447  0.5018 -0.0615  0.0969
 6922TIP3    H142325   4.834   4.708   0.403 -0.5687  0.4855 -0.5343
 6922TIP3    H242326   4.772   4.678   0.537 -0.8676  1.3818 -0.4623
 6923TIP3   OH242327   1.141   5.900   2.418 -0.1207  0.9510 -0.2314
 6923TIP3    H142328   1.176   5.939   2.498 -0.3562 -3.3826  2.3059
 6923TIP3    H242329   1.046   5.905   2.427 -0.1467  0.5657 -0.2496
 6924TIP3   OH242330   5.429   4.236   2.532 -0.5549 -0.1994 -0.7375
 6924TIP3    H142331   5.524   4.243   2.516 -0.3419 -1.7025 -0.2700
 6924TIP3    H242332   5.395   4.199   2.451 -0.7951  0.5863 -1.0027
 6925TIP3   OH242333   2.924   2.327   2.411 -0.5779 -0.0563  0.0025
 6925TIP3    H142334   2.951   2.239   2.439 -1.3092 -0.4542 -0.5148
 6925TIP3    H242335   2.830   2.330   2.427 -0.6614  0.4218 -0.5378
 6926TIP3   OH242336   1.168   4.572   0.043  0.0299 -0.4261  0.0630
 6926TIP3    H142337   1.096   4.634   0.048 -0.3816 -0.7694 -1.3318
 6926TIP3    H242338   1.184   4.547   0.134 -1.6826 -0.4337  0.3901
 6927TIP3   OH242339   2.479   3.969   7.909 -0.4901 -0.4645 -0.0594
 6927TIP3    H142340   2.549   4.030   7.931 -0.6603 -0.8680  1.8343
 6927TIP3    H242341   2.483   3.960   7.814  0.7265  1.0440 -0.1856
 6928TIP3   OH242342   1.817   3.924   2.289  0.8095 -0.1610  0.0609
 6928TIP3    H142343   1.790   3.872   2.365 -1.4227  1.1249  0.2583
 6928TIP3    H242344   1.912   3.933   2.298  1.0308 -2.6700  0.9413
 6929TIP3   OH242345   3.829   5.235   7.737  0.3571  0.2200 -0.2494
 6929TIP3    H142346   3.739   5.266   7.749 -0.0801 -1.6793  2.3041
 6929TIP3    H242347   3.825   5.179   7.659 -0.8760 -0.3984  0.2283
 6930TIP3   OH242348   0.487   3.978   2.739  0.5957  0.0457 -0.2230
 6930TIP3    H142349   0.512   3.968   2.831  0.8044  2.5976  0.0731
 6930TIP3    H242350   0.452   4.067   2.733 -1.2814 -0.7491 -2.2359
 6931TIP3   OH242351   0.839   4.885   1.981  0.2272  0.3994  0.7023
 6931TIP3    H142352   0.868   4.794   1.989  2.1206  0.9772  0.7914
 6931TIP3    H242353   0.754   4.887   2.025  1.0026 -0.9406  2.3811
 6932TIP3   OH242354   2.248   0.687   7.844 -0.6360 -0.0606 -0.3426
 6932TIP3    H142355   2.195   0.744   7.899 -0.7072 -1.4747  1.1304
 6932TIP3    H242356   2.330   0.735   7.831 -1.0259  0.7439  0.1129
 6933TIP3   OH242357   4.501   4.831   6.680 -0.5745 -0.8501  0.1239
 6933TIP3    H142358   4.520   4.748   6.637 -1.6668 -1.4395  0.7423
 6933TIP3    H242359   4.570   4.890   6.649 -0.8063 -1.4858 -1.7082
 6934TIP3   OH242360   5.096   0.067   1.520 -0.1696 -0.3792  0.0520
 6934TIP3    H142361   5.015   0.118   1.515 -0.2859 -0.5382  0.3149
 6934TIP3    H242362   5.081  -0.008   1.462 -0.1103 -0.2709 -0.1036
 6935TIP3   OH242363   3.764   3.481   7.039  0.1670 -0.2887 -0.4109
 6935TIP3    H142364   3.822   3.555   7.058 -0.7085  0.1936  0.4432
 6935TIP3    H242365   3.714   3.508   6.963 -1.5548  0.8586  1.0612
 6936TIP3   OH242366   1.950   5.758   8.359 -0.7044  0.1664 -0.3155
 6936TIP3    H142367   1.879   5.785   8.300 -0.5741 -0.1014 -0.6004
 6936TIP3    H242368   1.925   5.670   8.387  0.1327 -0.4444 -1.4183
 6937TIP3   OH242369   0.317   6.459   8.480 -0.2039  0.0341 -0.0261
 6937TIP3    H142370   0.231   6.418   8.472  0.4740 -1.2628 -1.0346
 6937TIP3    H242371   0.341   6.482   8.390  0.8617 -0.4188  0.1223
 6938TIP3   OH242372   2.166   2.592   2.332  0.1783  0.0546  0.0521
 6938TIP3    H142373   2.134   2.561   2.417  0.8414 -0.8506 -0.0278
 6938TIP3    H242374   2.212   2.518   2.294 -0.6174  0.2445 -1.3800
 6939TIP3   OH242375   1.935   0.957   2.174  0.0925  0.2055  0.0039
 6939TIP3    H142376   1.934   0.921   2.086 -1.9711  3.4896 -1.5287
 6939TIP3    H242377   1.858   0.919   2.216 -1.9869  2.3995 -1.5434
 6940TIP3   OH242378   4.687   3.762   2.416 -0.1791 -0.5357  0.4855
 6940TIP3    H142379   4.747   3.767   2.490 -0.8370 -0.4564  1.0263
 6940TIP3    H242380   4.614   3.709   2.447 -0.4010 -0.6178 -0.1505
 6941TIP3   OH242381   5.109   3.962   0.483 -0.4814 -0.3934 -0.3720
 6941TIP3    H142382   5.032   3.959   0.539 -1.4099  0.2766 -1.5737
 6941TIP3    H242383   5.079   3.927   0.399  0.7867 -1.0661 -0.5686
 6942TIP3   OH242384   6.309   1.296   1.565 -0.2566  0.3253 -0.2049
 6942TIP3    H142385   6.276   1.208   1.545 -1.3694  0.4342  0.9976
 6942TIP3    H242386   6.403   1.289   1.553 -0.4614 -0.6328 -1.5443
 6943TIP3   OH242387   3.292   4.648   7.131 -0.7208  0.5952 -0.5650
 6943TIP3    H142388   3.339   4.572   7.165 -0.4775  1.8222  2.0946
 6943TIP3    H242389   3.227   4.612   7.071  0.7876 -1.4826 -1.0421
 6944TIP3   OH242390   0.837   2.284   7.247  0.0014  0.4061  0.2148
 6944TIP3    H142391   0.806   2.210   7.195  0.1561 -0.8187  1.7828
 6944TIP3    H242392   0.771   2.352   7.234 -0.7390 -0.4035 -0.3879
 6945TIP3   OH242393   5.865   2.226   1.569  0.3413 -0.5126 -0.0111
 6945TIP3    H142394   5.943   2.175   1.589 -0.0532 -1.1602 -0.0783
 6945TIP3    H242395   5.880   2.311   1.610  0.2839 -1.2422  1.6114
 6946TIP3   OH242396   4.380   6.621   0.345  0.3892 -0.0965 -0.1494
 6946TIP3    H142397   4.335   6.706   0.343 -0.4655 -0.5140  0.2915
 6946TIP3    H242398   4.472   6.641   0.330  0.2614  0.9628  0.4018
 6947TIP3   OH242399   6.764   0.616   7.121  0.4122 -0.1533  0.8467
 6947TIP3    H142400   6.816   0.610   7.201  2.8535 -2.0145 -0.7131
 6947TIP3    H242401   6.754   0.525   7.092 -0.0823  0.4744 -1.1366
 6948TIP3   OH242402   4.550   3.583   0.533 -0.3812 -0.1654 -0.0474
 6948TIP3    H142403   4.478   3.641   0.508 -0.5615 -1.0191 -1.6299
 6948TIP3    H242404   4.629   3.631   0.508 -0.5256 -0.5251 -1.2542
 6949TIP3   OH242405   3.829   4.475   8.094  0.4807 -0.2129 -0.3412
 6949TIP3    H142406   3.893   4.438   8.033 -0.8799 -3.4149 -0.0172
 6949TIP3    H242407   3.858   4.446   8.180 -0.9051 -1.0408 -0.1165
 6950TIP3   OH242408   4.406   0.016   0.320  0.4866  0.1626 -0.3939
 6950TIP3    H142409   4.346   0.082   0.287 -0.7336 -1.5742 -1.8390
 6950TIP3    H242410   4.492   0.059   0.320  0.0745  1.1737 -3.1476
 6951TIP3   OH242411   4.091   3.232   7.971  0.0585 -0.0472  0.0314
 6951TIP3    H142412   4.156   3.300   7.954 -1.0824  1.1849  0.4589
 6951TIP3    H242413   4.142   3.158   8.003  1.3120  0.6639 -0.2433
 6952TIP3   OH242414   2.251   2.171   7.566 -0.3740  0.2129 -0.3477
 6952TIP3    H142415   2.205   2.254   7.579 -0.3017  0.4309 -1.4192
 6952TIP3    H242416   2.285   2.149   7.653 -0.4982  1.2363 -0.0259
 6953TIP3   OH242417   5.545   2.123   0.895 -0.2513 -0.3941  0.2156
 6953TIP3    H142418   5.565   2.030   0.911 -0.3556 -0.9303 -2.3889
 6953TIP3    H242419   5.583   2.142   0.810  0.4621  2.2425  1.0179
 6954TIP3   OH242420   2.974   1.303   8.141  1.5080  0.4126  0.4016
 6954TIP3    H142421   3.033   1.358   8.192  0.1408  1.7268  0.6288
 6954TIP3    H242422   2.997   1.214   8.166  2.5619  0.9364  1.3944
 6955TIP3   OH242423   3.644   0.112   8.492 -0.2165  0.1981  0.1293
 6955TIP3    H142424   3.662   0.044   8.426 -0.9013  0.0441  0.0887
 6955TIP3    H242425   3.730   0.144   8.518  0.0721  0.2391 -0.8225
 6956TIP3   OH242426   2.792   1.546   1.631  0.4349 -0.0469  0.1621
 6956TIP3    H142427   2.857   1.481   1.658 -0.1532 -1.4767 -1.5966
 6956TIP3    H242428   2.731   1.496   1.576 -1.7348  1.4065  1.1469
 6957TIP3   OH242429   4.639   6.604   7.598 -0.5733  0.4428 -0.3155
 6957TIP3    H142430   4.664   6.555   7.676 -2.2440 -1.9833 -1.1800
 6957TIP3    H242431   4.578   6.670   7.630  0.2478  0.7596  0.6533
 6958TIP3   OH242432   6.684   2.070   0.236 -0.2709 -0.0451  0.4128
 6958TIP3    H142433   6.716   1.980   0.238 -1.2712 -0.4149  1.6038
 6958TIP3    H242434   6.599   2.064   0.191 -0.3914  0.2733  0.5895
 6959TIP3   OH242435   3.116   3.513   7.669 -0.3588  0.7444 -0.1836
 6959TIP3    H142436   3.032   3.544   7.636  0.4024  2.9183 -0.2480
 6959TIP3    H242437   3.169   3.497   7.591 -1.3023 -2.8755 -0.2895
 6960TIP3   OH242438   0.268   3.405   0.679  0.0480  0.1594  0.3314
 6960TIP3    H142439   0.267   3.443   0.591 -0.5727  0.2916  0.3953
 6960TIP3    H242440   0.359   3.377   0.691  0.5457  1.6550  0.3026
 6961TIP3   OH242441   2.157   2.093   7.025  0.1734 -0.0804 -0.1137
 6961TIP3    H142442   2.163   2.072   6.932 -0.7093  0.0656 -0.2112
 6961TIP3    H242443   2.208   2.026   7.069  0.8611  0.0305 -0.7250
 6962TIP3   OH242444   5.984   1.813   7.638  0.4138  0.4016 -0.4992
 6962TIP3    H142445   5.899   1.822   7.595 -0.6468 -1.5947  0.9900
 6962TIP3    H242446   6.000   1.899   7.677 -1.4434  0.5687  0.0250
 6963TIP3   OH242447   6.098   5.006   0.991 -0.2276  0.6944 -0.7188
 6963TIP3    H142448   6.190   5.025   0.969  0.0648 -0.0187 -0.1677
 6963TIP3    H242449   6.068   4.952   0.918 -0.2245  0.9576 -0.9182
 6964TIP3   OH242450   3.292   4.982   0.443 -0.3529 -0.3295  0.4374
 6964TIP3    H142451   3.201   4.962   0.466 -0.7361  1.5413  0.6482
 6964TIP3    H242452   3.290   5.072   0.411  1.4743 -0.1647  0.6849
 6965TIP3   OH242453   1.394   1.504   0.985  0.6105  0.3227  0.2955
 6965TIP3    H142454   1.338   1.436   0.946 -1.9662  2.6938 -0.5472
 6965TIP3    H242455   1.350   1.528   1.066  1.6286  0.7842  0.7293
 6966TIP3   OH242456   0.915   2.503   7.415  0.4969  0.1474 -0.2030
 6966TIP3    H142457   0.869   2.576   7.373  1.3571  0.6314 -0.3299
 6966TIP3    H242458   0.903   2.430   7.355  1.1571  0.6633 -0.9879
 6967TIP3   OH242459   6.026   2.749   2.116 -0.0271 -0.4326 -0.3751
 6967TIP3    H142460   6.022   2.841   2.142 -2.3762  0.1053 -2.2931
 6967TIP3    H242461   6.030   2.700   2.198 -0.0816  1.3302  0.7143
 6968TIP3   OH242462   2.041   6.869   8.149  0.1438 -0.8537 -0.5017
 6968TIP3    H142463   2.028   6.884   8.242 -1.0719 -2.1265 -0.4259
 6968TIP3    H242464   2.109   6.930   8.123  1.3639 -1.3073  1.4811
 6969TIP3   OH242465   4.952   2.378   0.064 -0.0009 -0.4751  0.1237
 6969TIP3    H142466   4.948   2.326  -0.017  1.0207 -1.2949  0.5806
 6969TIP3    H242467   5.038   2.357   0.102  1.4789  3.2123 -0.7636
 6970TIP3   OH242468   6.225   5.152   8.273  0.0025 -0.3052  0.0603
 6970TIP3    H142469   6.189   5.238   8.250  0.9010 -0.1297 -0.7631
 6970TIP3    H242470   6.215   5.147   8.368  0.1500  0.8069  0.1516
 6971TIP3   OH242471   0.622   2.196   0.328 -0.4422 -0.1637  0.1889
 6971TIP3    H142472   0.686   2.206   0.398  1.5774  1.9772 -1.7922
 6971TIP3    H242473   0.669   2.152   0.257 -1.1798  1.1416 -1.1983
 6972TIP3   OH242474   4.783   4.727   6.774  0.1431 -0.5195  0.6650
 6972TIP3    H142475   4.793   4.742   6.680 -0.3453  0.4866  0.7634
 6972TIP3    H242476   4.823   4.803   6.815 -1.2354 -0.0701  1.2183
 6973TIP3   OH242477   2.668   3.797   1.472 -0.1253  0.3314 -0.2186
 6973TIP3    H142478   2.594   3.801   1.411 -0.1560  2.2212 -0.1297
 6973TIP3    H242479   2.735   3.748   1.425 -1.0806 -0.5788 -0.6813
 6974TIP3   OH242480   2.261   0.636   0.603 -0.3746  0.4437  0.1500
 6974TIP3    H142481   2.248   0.721   0.561 -1.8195  0.2742  0.2223
 6974TIP3    H242482   2.279   0.657   0.694 -0.1155  0.6917  0.0434
 6975TIP3   OH242483   3.071   2.817   1.476  0.4836  0.7310 -0.6951
 6975TIP3    H142484   3.134   2.846   1.542  0.7984 -3.1931  1.0234
 6975TIP3    H242485   3.125   2.785   1.404  0.2568  1.6089 -1.2654
 6976TIP3   OH242486   0.464   1.238   6.766  0.1193 -0.7220  0.1158
 6976TIP3    H142487   0.480   1.226   6.860  1.2930 -1.1507 -0.1210
 6976TIP3    H242488   0.534   1.189   6.724  1.1609  1.5850 -0.9899
 6977TIP3   OH242489   3.792   0.871   2.617 -0.4052 -0.5540 -0.0571
 6977TIP3    H142490   3.746   0.793   2.647  1.3502 -1.0678  1.5481
 6977TIP3    H242491   3.724   0.939   2.614 -1.9569 -2.0906 -1.4752
 6978TIP3   OH242492   3.225   1.043   2.802  0.1540  0.3183 -0.0506
 6978TIP3    H142493   3.261   1.105   2.866  0.6897  1.3843 -1.3486
 6978TIP3    H242494   3.251   1.078   2.717 -0.6221 -1.0230 -0.8752
 6979TIP3   OH242495   0.357   0.188   2.137 -0.0906  0.5607  0.0713
 6979TIP3    H142496   0.385   0.143   2.057 -1.4818  1.4131 -0.9558
 6979TIP3    H242497   0.364   0.281   2.114  0.4610  0.8422  1.3169
 6980TIP3   OH242498   1.974   1.516   0.873 -0.9055  0.2454 -0.2698
 6980TIP3    H142499   1.916   1.510   0.948 -0.0966 -0.0566  0.3515
 6980TIP3    H242500   1.933   1.580   0.815 -2.2684 -0.5797 -0.2406
 6981TIP3   OH242501   4.780   0.165   8.288 -0.0475  0.2328 -0.5130
 6981TIP3    H142502   4.708   0.120   8.333 -0.3130 -0.7763 -1.8815
 6981TIP3    H242503   4.792   0.116   8.207  0.7957  1.6408 -1.2818
 6982TIP3   OH242504   3.560   5.488   0.794 -0.7476  0.0588  0.0513
 6982TIP3    H142505   3.617   5.414   0.776 -0.5475 -0.2083  1.6651
 6982TIP3    H242506   3.473   5.449   0.806 -0.4917 -0.0425  1.7363
 6983TIP3   OH242507   0.335   5.349   6.907  0.2576 -0.1554  0.2372
 6983TIP3    H142508   0.411   5.342   6.965  0.6742  0.1574 -0.2619
 6983TIP3    H242509   0.300   5.436   6.922 -1.4688 -1.1003  2.2219
 6984TIP3   OH242510   0.903   3.135   1.295  0.3367  0.0400  0.6357
 6984TIP3    H142511   0.919   3.059   1.351  0.6145 -0.2681  0.1509
 6984TIP3    H242512   0.825   3.176   1.331  1.2811  0.6301  2.0737
 6985TIP3   OH242513   2.761   0.671   0.600  0.8822  0.2298 -0.4437
 6985TIP3    H142514   2.766   0.665   0.505 -0.1243  1.1768 -0.5773
 6985TIP3    H242515   2.770   0.581   0.630 -0.9073 -0.3782 -1.5591
 6986TIP3   OH242516   3.999   1.744   1.365 -0.5059  0.4495  0.3019
 6986TIP3    H142517   4.007   1.747   1.460  0.9378 -0.6325  0.2348
 6986TIP3    H242518   4.076   1.697   1.335 -1.0231  0.6124 -1.4076
 6987TIP3   OH242519   5.216   3.190   1.944  1.0687 -0.2738 -0.6867
 6987TIP3    H142520   5.259   3.219   1.864 -0.4308 -0.7792 -1.7346
 6987TIP3    H242521   5.133   3.237   1.945  1.1181 -0.1741  0.6716
 6988TIP3   OH242522   2.211   5.273   2.890 -0.2871 -0.1103 -0.4125
 6988TIP3    H142523   2.133   5.239   2.933 -0.2392  0.2006 -0.0765
 6988TIP3    H242524   2.195   5.259   2.796 -0.3730 -0.8240 -0.2949
 6989TIP3   OH242525   5.678   2.895   1.027  0.1872 -0.0787 -0.3268
 6989TIP3    H142526   5.604   2.938   1.070  0.1347 -0.1461 -0.3492
 6989TIP3    H242527   5.746   2.891   1.095 -1.0087 -3.1553  0.8720
 6990TIP3   OH242528   0.166   1.944   7.100 -0.2632  0.4631  0.0823
 6990TIP3    H142529   0.178   2.036   7.124  0.5212  0.2754  0.4202
 6990TIP3    H242530   0.215   1.895   7.166  0.4161 -0.1392 -0.8536
 6991TIP3   OH242531   5.118   3.412   1.686  0.3624 -0.0920 -0.4406
 6991TIP3    H142532   5.061   3.352   1.734  0.3835  0.3199  0.1161
 6991TIP3    H242533   5.082   3.499   1.705  2.3044  0.3848  1.5960
 6992TIP3   OH242534   4.258   3.683   2.194 -0.2200 -0.5081 -0.6705
 6992TIP3    H142535   4.213   3.630   2.127  0.8039 -0.5310 -1.3599
 6992TIP3    H242536   4.252   3.631   2.274 -1.1899 -0.6240 -0.8066
 6993TIP3   OH242537   1.688   6.279   1.541 -0.2076  0.5122  0.3353
 6993TIP3    H142538   1.653   6.364   1.568  0.8476  0.6713  1.2712
 6993TIP3    H242539   1.643   6.216   1.597 -0.5787  0.5104  0.0344
 6994TIP3   OH242540   4.527   0.814   7.945 -0.4392  0.2800 -0.0804
 6994TIP3    H142541   4.552   0.802   8.036  1.5273  0.1829 -0.5886
 6994TIP3    H242542   4.606   0.795   7.895 -1.4672  0.3133 -1.8251
 6995TIP3   OH242543   6.454   1.577   2.467 -0.1829  0.4435  0.7419
 6995TIP3    H142544   6.427   1.486   2.478  2.4987 -0.3147  1.6066
 6995TIP3    H242545   6.480   1.606   2.554  0.0793  1.6824  0.2801
 6996TIP3   OH242546   5.567   0.531   8.499  0.0613 -0.0497  0.0283
 6996TIP3    H142547   5.488   0.497   8.541  0.7808 -1.7342  0.0896
 6996TIP3    H242548   5.599   0.598   8.559 -0.4134 -0.5191  0.8216
 6997TIP3   OH242549   4.522   2.351   8.116  0.3338  0.1930  0.6081
 6997TIP3    H142550   4.565   2.432   8.088 -0.0340 -0.0434 -0.7274
 6997TIP3    H242551   4.569   2.282   8.069 -0.3431 -0.2200  0.5281
 6998TIP3   OH242552   4.470   3.505   6.501  0.0744  0.2282 -0.0246
 6998TIP3    H142553   4.396   3.453   6.471  0.3931  0.9190 -2.2560
 6998TIP3    H242554   4.547   3.457   6.469  0.4070  1.3531 -1.0146
 6999TIP3   OH242555   0.448   6.132   3.113 -0.3196  0.0987  0.1472
 6999TIP3    H142556   0.540   6.128   3.136 -0.4145 -0.6011  0.4340
 6999TIP3    H242557   0.446   6.177   3.028  0.4239 -1.2634 -0.6197
 7000TIP3   OH242558   3.393   5.973   1.257  0.2653  0.1089 -0.4981
 7000TIP3    H142559   3.322   5.930   1.210 -2.0635  0.2594  2.5962
 7000TIP3    H242560   3.374   6.066   1.251 -0.2691  0.1181  0.9063
 7001TIP3   OH242561   6.784   3.327   2.035 -0.6784  0.1025  0.3378
 7001TIP3    H142562   6.731   3.274   1.976 -0.5738  0.8439 -0.4277
 7001TIP3    H242563   6.782   3.279   2.118 -1.0061 -0.8344 -0.1983
 7002TIP3   OH242564   2.802   2.859   0.518 -0.3335 -0.2100  0.6403
 7002TIP3    H142565   2.758   2.811   0.588 -1.6656  0.6893  0.4696
 7002TIP3    H242566   2.731   2.889   0.461  0.3976  2.0844  0.8429
 7003TIP3   OH242567   3.174   5.350   1.688  0.5127 -0.0858  0.4443
 7003TIP3    H142568   3.262   5.331   1.719  0.6835  0.4604  0.3161
 7003TIP3    H242569   3.187   5.419   1.623 -0.0839  0.5673  1.0045
 7004TIP3   OH242570   0.489   3.780   1.417 -0.1520 -0.7736  0.2569
 7004TIP3    H142571   0.476   3.708   1.479 -0.5599 -0.6467  0.3243
 7004TIP3    H242572   0.493   3.858   1.472 -1.4147 -0.5554  0.0798
 7005TIP3   OH242573   0.137   3.522   2.245 -0.5372  0.1122 -0.2581
 7005TIP3    H142574   0.117   3.506   2.338  0.2324 -0.1182 -0.1231
 7005TIP3    H242575   0.052   3.539   2.205 -1.1385 -1.7558  0.1083
 7006TIP3   OH242576   1.001   0.105   1.547  0.5630 -0.7916  0.0300
 7006TIP3    H142577   0.957   0.025   1.571  0.5200 -0.7284  0.1598
 7006TIP3    H242578   0.936   0.174   1.560  1.1602 -0.4977  1.7391
 7007TIP3   OH242579   3.688   3.004   2.810  0.7747 -0.3198  0.2336
 7007TIP3    H142580   3.625   3.075   2.796 -0.5280 -1.2366  1.1953
 7007TIP3    H242581   3.749   3.039   2.875 -0.5216 -0.4400  1.5674
 7008TIP3   OH242582   1.793   6.524   1.498  0.1035 -0.8201 -0.1436
 7008TIP3    H142583   1.752   6.554   1.417 -0.6684 -2.2444 -0.3039
 7008TIP3    H242584   1.846   6.599   1.527  0.2352 -0.2239 -1.8367
 7009TIP3   OH242585   5.180   6.259   0.680 -0.4342  0.2213  0.4862
 7009TIP3    H142586   5.178   6.292   0.770 -0.4366 -0.1530  0.6253
 7009TIP3    H242587   5.200   6.166   0.689 -0.6138  0.1445  0.1071
 7010TIP3   OH242588   3.391   5.741   7.510  0.2300  0.4087 -0.2200
 7010TIP3    H142589   3.481   5.751   7.540  0.1770  0.2797 -0.0200
 7010TIP3    H242590   3.366   5.828   7.480  0.3398  0.5001 -0.0467
 7011TIP3   OH242591   2.274   2.342   6.876 -0.2076  0.2875 -0.6012
 7011TIP3    H142592   2.354   2.320   6.828 -0.2445  0.3428 -0.6883
 7011TIP3    H242593   2.205   2.292   6.833 -0.1559 -0.0781 -0.2680
 7012TIP3   OH242594   1.710   4.827   0.808  0.3245 -0.8280  0.6744
 7012TIP3    H142595   1.726   4.750   0.753 -0.0412 -1.1055  0.9544
 7012TIP3    H242596   1.671   4.792   0.888 -3.0879 -0.1021 -0.5031
 7013TIP3   OH242597   0.574   1.406   8.025 -0.1715  0.8244  0.3555
 7013TIP3    H142598   0.609   1.403   7.936  0.3029  1.0346  0.5339
 7013TIP3    H242599   0.615   1.333   8.070 -1.0768  0.1820  0.1688
 7014TIP3   OH242600   0.323   0.576   0.327 -0.4194  0.0394  0.2922
 7014TIP3    H142601   0.238   0.567   0.285 -0.9798  1.5479  1.0565
 7014TIP3    H242602   0.310   0.542   0.416 -0.3744  0.7826  0.5867
 7015TIP3   OH242603   3.954   5.719   1.227 -0.3242  0.6116 -0.0398
 7015TIP3    H142604   4.028   5.670   1.262  0.0471  1.3493  0.2282
 7015TIP3    H242605   3.928   5.671   1.148  0.4341  0.3445 -0.1322
 7016TIP3   OH242606   3.280   6.502   7.234 -0.0557 -0.3689  0.5607
 7016TIP3    H142607   3.197   6.548   7.241  0.1282 -0.2536  3.2771
 7016TIP3    H242608   3.290   6.483   7.141 -4.1160 -2.2070  0.2839
 7017TIP3   OH242609   4.600   5.036   7.267  0.3923  0.1360 -0.5633
 7017TIP3    H142610   4.647   5.090   7.331  0.8643 -0.6369 -0.2463
 7017TIP3    H242611   4.631   5.067   7.182 -0.2175  1.1507 -0.4294
 7018TIP3   OH242612   0.469   1.236   7.318  0.3330  0.6000  0.2779
 7018TIP3    H142613   0.391   1.281   7.351  0.6902  1.5350 -0.1058
 7018TIP3    H242614   0.461   1.146   7.350 -1.4674  0.3645 -0.7302
 7019TIP3   OH242615   1.257   0.546   1.073 -0.1538  0.6846  0.3099
 7019TIP3    H142616   1.179   0.491   1.079  1.0663 -1.1204  0.2872
 7019TIP3    H242617   1.235   0.625   1.124 -1.1320 -0.8224  2.3599
 7020TIP3   OH242618   1.211   0.754   1.262  0.0967  0.2826  0.0058
 7020TIP3    H142619   1.121   0.780   1.277  0.7980  1.7895  1.9121
 7020TIP3    H242620   1.247   0.737   1.349  1.1483 -2.2713 -0.8129
 7021TIP3   OH242621   0.096   6.320   8.557  0.1153 -0.0741  0.6146
 7021TIP3    H142622   0.011   6.322   8.601 -1.0776  0.7430 -1.5586
 7021TIP3    H242623   0.111   6.227   8.538 -1.8645 -0.0548 -1.6255
 7022TIP3   OH242624   4.598   6.231   0.148  0.2567  0.0636 -0.1297
 7022TIP3    H142625   4.520   6.264   0.103  0.6685 -0.5924 -1.3727
 7022TIP3    H242626   4.580   6.138   0.163  0.4620  0.0969  0.3500
 7023TIP3   OH242627   4.029   2.400   0.586 -0.4502 -0.0800 -0.2210
 7023TIP3    H142628   3.939   2.432   0.583 -1.1803 -2.0128 -0.4262
 7023TIP3    H242629   4.031   2.343   0.663  0.1824 -1.1851 -1.0356
 7024TIP3   OH242630   0.442   5.491   1.827  0.1382  0.2597 -1.1051
 7024TIP3    H142631   0.412   5.581   1.834 -2.4829 -0.5226 -1.1506
 7024TIP3    H242632   0.435   5.455   1.915 -0.7150 -0.3990 -1.4216
 7025TIP3   OH242633   6.317   2.134   1.268 -0.3277 -0.5123  0.7719
 7025TIP3    H142634   6.305   2.190   1.191 -0.5390  0.6304  1.5955
 7025TIP3    H242635   6.403   2.093   1.255  0.3510  0.8786  0.6437
 7026TIP3   OH242636   2.952   1.827   1.983  0.1244  0.4230 -0.0657
 7026TIP3    H142637   2.942   1.826   2.078 -2.9634 -0.0932 -0.3080
 7026TIP3    H242638   2.866   1.853   1.950  0.7287 -0.6825 -2.7619
 7027TIP3   OH242639   1.547   5.644   0.375 -0.6968  0.4141 -0.0736
 7027TIP3    H142640   1.544   5.707   0.303  1.5427  0.5220 -0.1465
 7027TIP3    H242641   1.455   5.622   0.392 -1.3248  0.8525 -2.5311
 7028TIP3   OH242642   2.630   4.105   1.684 -0.1003 -0.1618  0.1300
 7028TIP3    H142643   2.669   4.021   1.707 -0.1474 -0.2775 -0.2038
 7028TIP3    H242644   2.579   4.087   1.605  1.0487  0.4764 -0.7911
 7029TIP3   OH242645   3.528   3.032   7.549 -0.6999  0.0761  0.1001
 7029TIP3    H142646   3.618   3.055   7.573  0.2113 -1.8022 -1.2420
 7029TIP3    H242647   3.505   3.093   7.479 -0.6915  0.8796  0.7733
 7030TIP3   OH242648   2.645   1.394   8.160  0.0465 -0.2890 -0.0751
 7030TIP3    H142649   2.710   1.339   8.203 -0.8047 -1.1273  0.1813
 7030TIP3    H242650   2.694   1.470   8.128  0.8664 -0.1074  1.5407
 7031TIP3   OH242651   6.353   0.877   8.118 -0.2218  0.5685  0.0256
 7031TIP3    H142652   6.400   0.805   8.160 -1.3124 -0.3354 -0.2381
 7031TIP3    H242653   6.410   0.953   8.129  1.3749 -0.5175 -0.4729
 7032TIP3   OH242654   1.866   1.915   2.960  0.0712 -0.6461 -0.3318
 7032TIP3    H142655   1.957   1.887   2.947  0.2054  0.4227 -2.0082
 7032TIP3    H242656   1.864   2.004   2.927 -1.0870  0.2127  1.8524
 7033TIP3   OH242657   4.655   3.295   0.814  0.5552  1.0223  0.1941
 7033TIP3    H142658   4.749   3.283   0.824  0.5372  0.5364 -0.1747
 7033TIP3    H242659   4.625   3.324   0.900  0.9923  0.8660  0.4006
 7034TIP3   OH242660   1.749   0.617   3.117 -0.4284 -0.1419 -0.3621
 7034TIP3    H142661   1.790   0.559   3.053 -1.0188  1.4578 -2.2995
 7034TIP3    H242662   1.657   0.623   3.088 -0.5291  1.2107  0.1698
 7035TIP3   OH242663   2.204   3.359   8.339 -0.0316  0.4091 -0.0114
 7035TIP3    H142664   2.180   3.414   8.413 -0.9220  0.6200 -0.4460
 7035TIP3    H242665   2.233   3.420   8.271  2.1695  0.1521  0.6108
 7036TIP3   OH242666   1.297   5.865   8.167  0.3589  0.1478  0.0551
 7036TIP3    H142667   1.385   5.832   8.186  0.4987 -0.0973 -0.9713
 7036TIP3    H242668   1.243   5.831   8.239  0.9386 -0.4144  0.2321
 7037TIP3   OH242669   4.451   5.861   8.070 -0.5724  0.3043  0.1391
 7037TIP3    H142670   4.500   5.842   7.990 -0.0682 -2.4861  1.0257
 7037TIP3    H242671   4.359   5.861   8.043 -0.3694  0.1839 -0.5688
 7038TIP3   OH242672   0.602   3.725   8.148  0.6051  0.3356 -0.3705
 7038TIP3    H142673   0.665   3.797   8.146 -1.0744  1.8281 -1.0980
 7038TIP3    H242674   0.618   3.682   8.232  0.4030  2.7014  0.9399
 7039TIP3   OH242675   6.871   1.328   2.381 -0.4180  0.2312 -0.2210
 7039TIP3    H142676   6.860   1.395   2.448  1.2416  0.9152 -0.5653
 7039TIP3    H242677   6.847   1.373   2.299 -0.2870  0.1001 -0.3320
 7040TIP3   OH242678   3.690   0.641   0.140 -0.0302  0.2872 -0.2043
 7040TIP3    H142679   3.607   0.617   0.180  0.4812  1.9848  2.0489
 7040TIP3    H242680   3.674   0.632   0.046 -2.6931  0.3659  0.1607
 7041TIP3   OH242681   3.960   2.283   7.652  0.0140 -0.4281  0.2076
 7041TIP3    H142682   3.893   2.257   7.589  0.5009 -0.9791 -0.0902
 7041TIP3    H242683   3.968   2.207   7.711  0.6670 -0.5374 -0.0109
 7042TIP3   OH242684   4.020   1.154   6.980 -0.6253 -0.5076  0.4530
 7042TIP3    H142685   4.017   1.071   6.933 -2.3206  0.3366 -1.1114
 7042TIP3    H242686   3.968   1.140   7.059  1.5228 -1.7045  1.7242
 7043TIP3   OH242687   3.116   5.022   8.343  0.0960 -0.4615 -0.1116
 7043TIP3    H142688   3.144   4.949   8.398  2.0678 -0.7729 -1.4170
 7043TIP3    H242689   3.135   5.100   8.395 -1.5345 -0.8143  1.0839
 7044TIP3   OH242690   6.732   3.991   0.587 -0.1641 -0.2420  0.0460
 7044TIP3    H142691   6.790   3.915   0.595 -0.9709 -0.9671 -0.8262
 7044TIP3    H242692   6.662   3.975   0.650 -0.1606 -0.0670  0.0943
 7045TIP3   OH242693   5.542   6.165   2.151  0.0021 -0.2276  0.0663
 7045TIP3    H142694   5.449   6.172   2.173 -0.6237 -0.5789 -2.1824
 7045TIP3    H242695   5.556   6.234   2.086  0.0722 -3.0608 -3.1914
 7046TIP3   OH242696   0.546   5.295   7.481 -0.3558 -0.6502  0.8945
 7046TIP3    H142697   0.455   5.268   7.471 -0.2919 -0.9295  1.0870
 7046TIP3    H242698   0.592   5.254   7.408 -0.3722 -0.5558  0.8304
 7047TIP3   OH242699   1.679   0.019   2.107  0.5411 -0.0038  0.6471
 7047TIP3    H142700   1.649   0.080   2.039  0.7561 -0.3169  0.2694
 7047TIP3    H242701   1.705   0.076   2.180  2.3530  0.4991 -0.3094
 7048TIP3   OH242702   5.057   4.318   7.243  0.0567 -0.0590 -0.4061
 7048TIP3    H142703   5.151   4.319   7.261  0.0423  0.6386 -0.3337
 7048TIP3    H242704   5.049   4.353   7.154 -0.1771  0.4921 -0.1717
 7049TIP3   OH242705   1.086   1.130   0.076  0.0619 -0.0565 -0.1824
 7049TIP3    H142706   1.071   1.038   0.095  1.0471 -0.6438 -2.0012
 7049TIP3    H242707   1.006   1.158   0.031 -1.6310  0.9380  3.1041
 7050TIP3   OH242708   5.194   5.801   7.463 -0.5407  0.0889  0.8337
 7050TIP3    H142709   5.186   5.770   7.553  0.5420  0.9135  1.2343
 7050TIP3    H242710   5.198   5.720   7.410 -2.2010 -0.3913  1.3953
 7051TIP3   OH242711   2.486   1.622   8.030  0.7743  0.3211  0.0928
 7051TIP3    H142712   2.406   1.626   7.978  0.7370  1.1367  0.2089
 7051TIP3    H242713   2.556   1.613   7.966  0.5182 -1.7435  0.0346
 7052TIP3   OH242714   3.322   1.190   2.344 -0.1863 -0.5376  0.6837
 7052TIP3    H142715   3.405   1.210   2.301 -1.0283 -1.8108 -1.7288
 7052TIP3    H242716   3.259   1.250   2.303 -0.5149  0.3884  2.4523
 7053TIP3   OH242717   6.163   5.208   0.211 -0.0872  0.3120 -0.3164
 7053TIP3    H142718   6.176   5.139   0.146 -0.6018  0.2141 -0.3219
 7053TIP3    H242719   6.183   5.167   0.295  0.5342  0.4258 -0.4031
 7054TIP3   OH242720   1.422   2.627   7.936 -0.2440 -0.1792 -0.3126
 7054TIP3    H142721   1.504   2.618   7.889  0.4660 -1.4396  1.0860
 7054TIP3    H242722   1.434   2.705   7.990  0.3840 -0.8261  0.5073
 7055TIP3   OH242723   5.051   6.134   2.359  0.2290  0.1121  0.0023
 7055TIP3    H142724   5.010   6.217   2.335  2.0538  0.3143 -2.8604
 7055TIP3    H242725   4.977   6.073   2.371 -1.0271  1.1977 -1.8219
 7056TIP3   OH242726   3.886   6.576   0.860 -0.5489  0.0662  0.1427
 7056TIP3    H142727   3.811   6.544   0.810 -1.1555  0.0836  1.0247
 7056TIP3    H242728   3.873   6.670   0.865  0.4000  0.3027 -1.0740
 7057LIG     O142729   3.050   5.070   6.079 -0.0185  0.2219 -0.4423
 7057LIG     O242730   3.089   5.277   5.960  0.3620  0.1397 -0.1153
 7057LIG     O342731   3.311   5.227   6.033 -0.4717 -0.0644  0.2834
 7057LIG     O442732   2.761   5.175   6.030 -0.2446 -0.0023  0.2290
 7057LIG     O542733   2.822   5.250   6.302  0.2733  0.1504 -0.3746
 7057LIG     O642734   3.194   5.250   5.673 -0.4671 -0.2652  0.2522
 7057LIG     O742735   3.186   5.497   5.818 -1.1866 -0.2127  0.0519
 7057LIG     O842736   3.429   5.569   5.942  0.2772 -0.0063  0.0394
 7057LIG     O942737   2.877   5.182   5.781  0.2424  0.1789 -0.2391
 7057LIG    O1042738   3.224   5.107   6.300  0.2850  0.2495 -0.2907
 7057LIG    O1142739   3.488   5.498   6.213 -0.1744  0.2238  0.1957
 7057LIG     C142740   2.996   5.168   5.986  0.0781  0.4054 -0.2349
 7057LIG     C242741   2.883   5.242   6.059  0.0788 -0.5883  0.2170
 7057LIG     C342742   2.933   5.232   6.207  0.0700 -0.5936  0.1417
 7057LIG     C442743   2.995   5.091   6.203  0.0123  0.2355 -1.0313
 7057LIG     C542744   3.213   5.214   5.926  0.3721  0.3175 -0.1916
 7057LIG     C642745   3.270   5.273   5.799  0.0434 -0.7519  0.0144
 7057LIG     C742746   3.306   5.420   5.808 -0.2902  0.0137  0.3549
 7057LIG     C842747   3.399   5.435   5.927  0.1199  0.2707 -0.2985
 7057LIG     C942748   3.346   5.364   6.055  0.8619 -0.1805  0.4661
 7057LIG    C1042749   2.962   5.097   5.853 -0.7416  0.0847 -0.2603
 7057LIG    C1142750   3.093   5.048   6.316 -0.5881 -0.3706  0.0919
 7057LIG    C1242751   3.435   5.369   6.181 -0.3251  0.3562 -0.4594
 7057LIG     H142752   2.875   5.348   6.033 -1.6506 -0.9944 -1.0837
 7057LIG     H242753   3.017   5.300   6.230  1.2485 -1.9502  0.0067
 7057LIG     H342754   2.923   5.009   6.212  1.2513 -0.9518 -1.6185
 7057LIG     H442755   3.208   5.105   5.904  1.6524  0.1043  0.4609
 7057LIG     H542756   3.364   5.220   5.771  0.2488 -0.5492  0.3071
 7057LIG     H642757   3.362   5.453   5.718  1.4316  0.4601  1.5343
 7057LIG     H742758   3.497   5.391   5.895  1.2881  2.2270  0.4155
 7057LIG     H842759   3.253   5.416   6.088  1.5246  1.5799 -0.2790
 7057LIG     H942760   3.050   5.084   5.786 -0.3188 -0.3949  0.3746
 7057LIG    H1042761   2.913   5.002   5.881 -1.0432  0.9606  2.5113
 7057LIG    H1142762   3.053   5.087   6.413  1.5656  1.8816  0.1775
 7057LIG    H1242763   3.116   4.939   6.315 -0.4572 -0.3495 -1.4374
 7057LIG    H1342764   3.391   5.330   6.276 -0.0000  1.4572  0.1594
 7057LIG    H1442765   3.524   5.310   6.150 -0.4562  0.5899 -1.2818
 7057LIG    H1542766   2.714   5.166   6.113  1.2067 -0.5806  1.0188
 7057LIG    H1642767   2.848   5.294   6.384  0.0677 -0.9042  0.2795
 7057LIG    H1742768   3.107   5.286   5.691  0.5076  2.2082  0.4576
 7057LIG    H1842769   3.213   5.585   5.843 -2.3736  0.0775  0.3630
 7057LIG    H1942770   3.463   5.580   6.031  0.4703  2.0811 -0.2440
 7057LIG    H2042771   2.804   5.186   5.843 -0.0101  0.9077 -0.5774
 7057LIG    H2142772   3.236   5.104   6.205  4.5868 -0.2417  0.1067
 7057LIG    H2242773   3.549   5.487   6.287  0.4025  2.6148  0.1437
   6.91374   6.91374   8.56155
